FOO
138240
    1MOL0     O    1   6.325   0.140   2.974 -0.2077  0.5946  0.6293
    1MOL0     C    2   6.337   0.255   2.933  0.1541  0.2503  0.8339
    1MOL0     O    3   6.283   0.295   2.818 -0.5004 -0.6595 -0.7450
    1MOL0     C    4   6.213   0.196   2.749 -0.0922 -0.9567  0.6219
    1MOL0     C    5   6.239   0.182   2.610 -0.1189  0.0532 -0.4500
    1MOL0     C    6   6.163   0.096   2.535  0.7200 -0.1840 -0.4636
    1MOL0     C    7   6.066   0.015   2.591 -0.1205 -0.3603 -0.6769
    1MOL0     O    8   5.996  -0.073   2.516 -0.7218  0.5354  0.4107
    1MOL0     C    9   5.955  -0.197   2.587 -0.3699 -0.4743  0.3914
    1MOL0     C   10   5.904  -0.306   2.487  0.3611 -0.3377  0.2336
    1MOL0     C   11   6.004  -0.409   2.452  0.1324  0.5520 -0.3944
    1MOL0     C   12   6.138  -0.365   2.378  0.0955  0.0039  0.1911
    1MOL0     C   13   6.232  -0.481   2.379 -0.1763 -0.1199  0.1833
    1MOL0     C   14   6.384  -0.445   2.361  1.2067  0.2543 -0.8316
    1MOL0     C   15   6.471  -0.574   2.343 -0.0049 -0.7351 -0.7160
    1MOL0     C   16   6.617  -0.539   2.304  0.4340  0.3564  0.5344
    1MOL0     N   17   6.683  -0.666   2.279 -0.1293 -0.3977  0.3914
    1MOL0     C   18   6.777  -0.717   2.356 -0.2676 -0.1501 -0.1496
    1MOL0     C   19   6.838  -0.812   2.281 -0.1369  0.2503  0.9275
    1MOL0     C   20   6.967  -0.883   2.312  0.7596  0.3692 -0.1764
    1MOL0     C   21   7.095  -0.808   2.292 -0.2216  0.0273 -0.1139
    1MOL0     C   22   7.113  -0.742   2.154  0.2285 -0.2023 -0.4052
    1MOL0     C   23   7.237  -0.644   2.152 -0.0602  0.8147 -1.0898
    1MOL0     O   24   7.241  -0.585   2.028 -0.6323 -0.7661  0.5020
    1MOL0     C   25   7.301  -0.653   1.924  0.6850  0.0562 -0.3123
    1MOL0     C   26   7.440  -0.648   1.892 -0.2104  0.3191 -0.3416
    1MOL0     C   27   7.495  -0.725   1.780 -0.2988  0.3395 -0.1768
    1MOL0     C   28   7.642  -0.715   1.768 -0.1190  0.5513  0.0974
    1MOL0     C   29   7.408  -0.797   1.697 -0.3992 -0.3711  0.6074
    1MOL0     C   30   7.456  -0.856   1.573  0.0986 -1.0275  0.9722
    1MOL0     O   31   7.579  -0.907   1.576  0.1093  0.2924  0.4255
    1MOL0     C   32   7.620  -0.996   1.488 -0.4506  0.4145  0.6343
    1MOL0     C   33   7.533  -1.089   1.415  1.2595  0.2926  0.1022
    1MOL0     C   34   7.576  -1.186   1.321 -0.6641 -0.2294  0.5694
    1MOL0     C   35   7.709  -1.174   1.281  0.4329 -0.6154 -0.5784
    1MOL0     O   36   7.763  -1.237   1.177  0.1878 -0.1487  0.5150
    1MOL0     C   37   7.678  -1.309   1.082 -0.7813  1.1097  0.0313
    1MOL0     C   38   7.776  -1.384   0.983  0.0243  0.5315 -0.7781
    1MOL0     C   39   7.868  -1.282   0.916 -0.1453 -0.4856  0.0475
    1MOL0     C   40   7.813  -1.150   0.862  0.5128  0.4590 -0.7280
    1MOL0     C   41   7.914  -1.090   0.770  0.3524 -0.2535 -0.1007
    1MOL0     C   42   7.868  -0.995   0.656  0.1184  0.2123 -1.0078
    1MOL0     C   43   7.983  -1.004   0.553  0.2731  0.5947  0.3718
    1MOL0     C   44   7.978  -0.892   0.454 -0.0780 -0.3909  0.3323
    1MOL0    Cl   45   8.028  -0.740   0.539 -0.2691  0.0893  0.3002
    1MOL0     C   46   7.794  -1.083   1.342 -0.0273 -0.0449 -0.7891
    1MOL0     C   47   7.756  -0.998   1.447  0.2843  0.3726 -1.2309
    1MOL0     O   48   7.375  -0.867   1.477 -0.4986  0.3330  0.6252
    1MOL0     C   49   7.271  -0.794   1.729 -0.8282  0.2237 -0.0091
    1MOL0     C   50   7.219  -0.726   1.836 -0.0214  0.5248  0.6935
    1MOL0     N   51   6.781  -0.818   2.154 -0.2620  0.8931  1.2114
    1MOL0     N   52   6.690  -0.727   2.158 -0.7032  0.2161  0.3400
    1MOL0     C   53   6.022   0.056   2.716  0.4004 -0.2961  0.9960
    1MOL0     C   54   6.094   0.142   2.793 -0.3379  0.7286 -1.0175
    1MOL0     C   55   6.422   0.345   3.013 -0.0123  0.0481 -0.1510
    1MOL0     C   56   6.490   0.303   3.130  0.2318  1.3233  0.7173
    1MOL0     C   57   6.591   0.395   3.183 -0.2669  0.6417 -0.0144
    1MOL0     C   58   6.604   0.523   3.121  0.7003  0.2494 -0.3608
    1MOL0     O   59   6.693   0.594   3.190 -0.6504 -0.4886 -0.2544
    1MOL0     C   60   6.669   0.733   3.195  0.1045  0.1585  0.5937
    1MOL0     C   61   6.569   0.776   3.301  0.0001 -0.4006  0.2327
    1MOL0     C   62   6.580   0.933   3.310  1.4025 -0.2445 -0.2677
    1MOL0     C   63   6.504   0.974   3.441 -0.2206  0.2768  0.6228
    1MOL0     C   64   6.470   1.117   3.427 -1.0981  0.6815  0.7750
    1MOL0     C   65   6.451   1.235   3.429 -0.6290 -0.2807 -0.1716
    1MOL0     C   66   6.523   0.568   3.013  0.4746 -1.0564 -0.2534
    1MOL0     C   67   6.434   0.474   2.959  0.4041 -0.4967 -0.0228
    1MOL0     H   68   6.323   0.236   2.567  0.4525  0.4032  1.0657
    1MOL0     H   69   6.187   0.082   2.430  0.8391 -3.6850 -0.0644
    1MOL0     H   70   6.040  -0.245   2.636  0.4506  2.2670  1.8891
    1MOL0     H   71   5.874  -0.181   2.659 -0.1007 -0.6684  0.7392
    1MOL0     H   72   5.813  -0.353   2.527 -0.0761  0.4532  0.1833
    1MOL0     H   73   5.864  -0.255   2.399 -0.1300  0.7287  1.0557
    1MOL0     H   74   6.018  -0.466   2.544 -1.2601 -1.1791 -1.1750
    1MOL0     H   75   5.952  -0.480   2.386 -1.3334 -0.5541  1.8228
    1MOL0     H   76   6.131  -0.352   2.269  4.2231 -1.5375 -0.4408
    1MOL0     H   77   6.171  -0.278   2.435 -0.6318  0.3142  0.1432
    1MOL0     H   78   6.224  -0.541   2.470 -2.5804 -1.0629 -0.5603
    1MOL0     H   79   6.198  -0.557   2.308 -0.1478 -0.6808  0.7600
    1MOL0     H   80   6.382  -0.378   2.274  0.4157 -0.0634 -1.0718
    1MOL0     H   81   6.419  -0.390   2.448  0.3106 -0.4059 -0.0364
    1MOL0     H   82   6.475  -0.642   2.428  1.1496  1.2630  0.9262
    1MOL0     H   83   6.418  -0.632   2.267 -3.8686  1.4046  0.0505
    1MOL0     H   84   6.663  -0.477   2.381  1.2382 -0.8755  1.0721
    1MOL0     H   85   6.612  -0.490   2.206  0.6721 -0.2246  0.2310
    1MOL0     H   86   6.788  -0.694   2.461  1.8039 -0.7012 -0.2069
    1MOL0     H   87   6.973  -0.922   2.414  0.2043 -1.2467 -0.7378
    1MOL0     H   88   6.964  -0.970   2.247  0.5034 -0.0460  0.3846
    1MOL0     H   89   7.170  -0.887   2.307 -2.1294 -2.5951 -3.1469
    1MOL0     H   90   7.100  -0.728   2.367  1.2496  0.0739 -0.2307
    1MOL0     H   91   7.031  -0.673   2.135  0.0286 -0.1240  0.6846
    1MOL0     H   92   7.119  -0.818   2.075 -0.0311 -2.3107  1.4978
    1MOL0     H   93   7.331  -0.698   2.167  1.5334  4.1241  2.5495
    1MOL0     H   94   7.233  -0.577   2.238  3.2521  2.0919 -1.7550
    1MOL0     H   95   7.500  -0.599   1.968 -1.5753  0.4578  0.6965
    1MOL0     H   96   7.684  -0.654   1.849 -0.4067  0.2916  0.4447
    1MOL0     H   97   7.684  -0.814   1.784  2.2072  1.8280  2.6345
    1MOL0     H   98   7.679  -0.679   1.671  0.8142 -1.6991 -0.4408
    1MOL0     H   99   7.431  -1.104   1.449  1.0693  1.3563  0.0253
    1MOL0     H  100   7.497  -1.250   1.285 -2.8036  2.3773  0.2845
    1MOL0     H  101   7.617  -1.389   1.127 -0.0770  0.4122 -0.2262
    1MOL0     H  102   7.610  -1.240   1.031 -1.2595 -0.8794 -2.2236
    1MOL0     H  103   7.827  -1.458   1.045  2.0987  3.8804  1.8556
    1MOL0     H  104   7.720  -1.440   0.908  0.3168  0.0650 -0.6524
    1MOL0     H  105   7.929  -1.323   0.835  1.3200  1.3805  0.1406
    1MOL0     H  106   7.942  -1.253   0.991  0.8361 -1.6819 -0.4281
    1MOL0     H  107   7.728  -1.174   0.798  1.2764 -0.7171 -1.3302
    1MOL0     H  108   7.782  -1.081   0.941  1.2658 -2.0689  1.9622
    1MOL0     H  109   7.974  -1.171   0.726  0.3853 -0.1313 -0.2816
    1MOL0     H  110   7.974  -1.019   0.826 -0.2732  1.5162 -1.5816
    1MOL0     H  111   7.785  -1.035   0.596 -0.4239 -1.0332  0.5162
    1MOL0     H  112   7.853  -0.897   0.701 -1.5629  0.1077 -1.2915
    1MOL0     H  113   7.966  -1.098   0.500 -1.3985  0.6697  0.7105
    1MOL0     H  114   8.083  -1.000   0.598  0.8700 -1.7264 -0.6011
    1MOL0     H  115   7.873  -0.874   0.431  0.5696  2.0652 -1.0464
    1MOL0     H  116   8.037  -0.909   0.364  0.9732 -0.1301  0.9485
    1MOL0     H  117   7.891  -1.066   1.296  0.5109  1.1417  0.6920
    1MOL0     H  118   7.820  -0.922   1.490  1.7384 -0.3143 -2.1166
    1MOL0     H  119   7.212  -0.843   1.652  0.1886 -0.7783 -0.1808
    1MOL0     H  120   7.112  -0.722   1.854 -0.2787  0.1425 -0.6474
    1MOL0     H  121   5.928   0.016   2.751  1.6582 -2.9627  1.6127
    1MOL0     H  122   6.039   0.178   2.880 -1.7598 -1.7732 -0.7845
    1MOL0     H  123   6.473   0.209   3.182 -0.6012  0.1804 -1.4966
    1MOL0     H  124   6.658   0.378   3.267  2.2749  4.5771 -0.9651
    1MOL0     H  125   6.764   0.784   3.213  1.7956 -1.8405 -1.9171
    1MOL0     H  126   6.640   0.781   3.101 -0.4913  1.0971  1.2448
    1MOL0     H  127   6.591   0.733   3.400  0.4655  1.7178  1.1022
    1MOL0     H  128   6.469   0.737   3.280  0.1417 -1.6840  1.7038
    1MOL0     H  129   6.532   0.962   3.216  1.6753 -3.1163 -1.3807
    1MOL0     H  130   6.672   0.991   3.314  0.5385  1.2256 -0.6164
    1MOL0     H  131   6.558   0.948   3.533 -2.2682 -5.0833  0.6706
    1MOL0     H  132   6.413   0.915   3.457 -0.3719  0.1083 -0.7584
    1MOL0     H  133   6.420   1.335   3.453 -2.9074 -1.0702  0.4312
    1MOL0     H  134   6.531   0.668   2.971  3.1405 -1.6755 -1.4423
    1MOL0     H  135   6.390   0.508   2.866  2.0397  3.3753  0.4278
    2MOL0     O  136   4.606   9.603   5.207 -0.1841 -0.7499 -0.2731
    2MOL0     C  137   4.521   9.664   5.272 -1.0322  0.5842  0.6710
    2MOL0     O  138   4.415   9.602   5.332 -0.3086 -0.0939 -0.0179
    2MOL0     C  139   4.384   9.467   5.336 -0.6729  1.1084  0.8585
    2MOL0     C  140   4.272   9.422   5.408  0.0844 -1.3173  0.5523
    2MOL0     C  141   4.221   9.291   5.402 -0.3593 -1.0410 -0.0138
    2MOL0     C  142   4.299   9.188   5.340 -0.0339  0.1633 -0.3936
    2MOL0     O  143   4.268   9.055   5.338  0.4188 -0.7380 -0.0406
    2MOL0     C  144   4.131   9.016   5.354  2.0705  0.6493 -0.6389
    2MOL0     C  145   4.095   8.971   5.499 -0.1308  0.0714 -0.2307
    2MOL0     C  146   4.160   8.841   5.533 -0.1274 -0.3952 -0.4968
    2MOL0     C  147   4.143   8.803   5.675  0.3774  0.4183 -0.0692
    2MOL0     C  148   4.154   8.652   5.687 -0.3623  0.6328  0.1534
    2MOL0     C  149   4.188   8.621   5.831 -0.0980 -0.1403 -0.0229
    2MOL0     C  150   4.207   8.465   5.860 -0.3713 -0.5261 -0.4589
    2MOL0     C  151   4.339   8.435   5.934  0.0351  0.1388  0.4278
    2MOL0     N  152   4.460   8.456   5.852 -0.2739 -0.7013  0.1894
    2MOL0     C  153   4.522   8.359   5.776  1.7417  0.8399 -0.3894
    2MOL0     C  154   4.627   8.408   5.709 -0.3871  0.0888 -0.1488
    2MOL0     C  155   4.718   8.338   5.606 -0.4644  0.2839 -0.5910
    2MOL0     C  156   4.807   8.256   5.693  0.6726  0.7057 -0.1858
    2MOL0     C  157   4.832   8.120   5.621  0.4804  0.1267  0.1170
    2MOL0     C  158   4.867   8.014   5.725 -0.6447  0.4071  0.1434
    2MOL0     O  159   4.989   8.055   5.799  0.3478  0.6813  1.1876
    2MOL0     C  160   4.991   8.011   5.921 -0.3491  0.2908 -0.6218
    2MOL0     C  161   4.990   8.099   6.026  0.2089 -0.2578  0.7331
    2MOL0     C  162   4.988   8.064   6.161  0.1364 -0.6253  0.2643
    2MOL0     C  163   5.002   8.171   6.259 -0.3481 -0.7691  0.5050
    2MOL0     C  164   4.975   7.932   6.192 -1.1108  0.7493 -0.0474
    2MOL0     C  165   4.953   7.888   6.331 -0.2371 -0.1034  0.6214
    2MOL0     O  166   4.953   7.754   6.332  0.0743 -0.0532 -0.8435
    2MOL0     C  167   4.939   7.677   6.445  0.8078 -0.0697 -0.4208
    2MOL0     C  168   4.876   7.557   6.424  0.5131  0.3383 -0.6490
    2MOL0     C  169   4.860   7.457   6.522 -0.5009 -0.2885  0.4661
    2MOL0     C  170   4.896   7.489   6.660 -0.5021  0.3737 -1.5676
    2MOL0     O  171   4.901   7.399   6.767  0.5486 -0.4854  0.4264
    2MOL0     C  172   4.841   7.455   6.886  0.9596  1.2287 -0.7583
    2MOL0     C  173   4.753   7.354   6.950 -0.2425 -0.4993  0.5653
    2MOL0     C  174   4.640   7.317   6.852  1.0207 -0.1996  0.4700
    2MOL0     C  175   4.532   7.233   6.914 -0.4254 -0.3281  0.2390
    2MOL0     C  176   4.441   7.323   7.003  0.8544 -0.1220  0.0917
    2MOL0     C  177   4.333   7.233   7.073 -0.4530 -0.5573  0.7097
    2MOL0     C  178   4.375   7.153   7.192 -0.6274 -0.0833 -0.8041
    2MOL0     C  179   4.260   7.080   7.242  1.3090 -0.2185  0.4979
    2MOL0    Cl  180   4.318   6.979   7.365  0.4822 -0.0469  0.0115
    2MOL0     C  181   4.953   7.616   6.676 -0.1845  0.7996 -0.0752
    2MOL0     C  182   4.978   7.711   6.577  0.7650 -0.4504  0.6179
    2MOL0     O  183   4.917   7.961   6.420 -0.2100 -0.0895  0.0847
    2MOL0     C  184   4.988   7.838   6.090 -0.1382 -0.5072  0.6328
    2MOL0     C  185   4.988   7.877   5.952 -0.0186 -0.1093 -0.0291
    2MOL0     N  186   4.643   8.535   5.754  0.7751 -0.4858  0.4553
    2MOL0     N  187   4.554   8.561   5.842 -0.2302 -0.8645  0.6005
    2MOL0     C  188   4.400   9.225   5.265 -0.4686  0.1202  0.0798
    2MOL0     C  189   4.450   9.360   5.264 -0.0203  0.4400 -1.2711
    2MOL0     C  190   4.508   9.815   5.262  0.4495  0.7110 -0.0526
    2MOL0     C  191   4.602   9.886   5.185 -0.0867  0.1343  0.0856
    2MOL0     C  192   4.579  10.020   5.159  0.5579 -0.2888 -0.1478
    2MOL0     C  193   4.467  10.089   5.210 -1.1018  0.6411 -0.6988
    2MOL0     O  194   4.458  10.222   5.197  0.4166  0.2348 -0.1451
    2MOL0     C  195   4.331  10.248   5.135  0.1957  0.1007 -0.0784
    2MOL0     C  196   4.320  10.227   4.980 -0.5903 -0.2639 -0.0490
    2MOL0     C  197   4.428  10.300   4.895  0.0930 -0.5596 -0.6671
    2MOL0     C  198   4.414  10.247   4.751  0.3979 -0.7310 -1.0690
    2MOL0     C  199   4.542  10.273   4.678  0.1740 -0.2874  0.9635
    2MOL0     C  200   4.645  10.288   4.607  0.1670  1.3138  0.6632
    2MOL0     C  201   4.390  10.019   5.298  1.2310  0.0264 -0.5085
    2MOL0     C  202   4.397   9.885   5.316  0.5685 -0.6580  0.1336
    2MOL0     H  203   4.229   9.508   5.459  0.0006  0.7386 -2.6405
    2MOL0     H  204   4.131   9.272   5.459 -0.8697  3.6455  1.1849
    2MOL0     H  205   4.054   9.085   5.319  3.4218  2.3253 -0.4495
    2MOL0     H  206   4.112   8.926   5.295 -2.5780 -0.2315  1.7142
    2MOL0     H  207   4.117   9.053   5.567 -2.4113  0.0697  0.6119
    2MOL0     H  208   3.991   8.941   5.514  0.0247 -1.2291 -1.4627
    2MOL0     H  209   4.118   8.770   5.461 -1.7799 -1.3373  1.2811
    2MOL0     H  210   4.268   8.830   5.519  0.0163 -0.4299  0.5644
    2MOL0     H  211   4.214   8.854   5.741  1.3756 -0.5481 -0.3670
    2MOL0     H  212   4.042   8.824   5.710 -0.7193 -1.9614 -1.5296
    2MOL0     H  213   4.056   8.610   5.663 -0.5310  1.3679 -0.5029
    2MOL0     H  214   4.232   8.611   5.622 -1.2678  0.8716 -1.1123
    2MOL0     H  215   4.283   8.671   5.853  0.3787 -1.5339  1.2235
    2MOL0     H  216   4.110   8.653   5.901  0.3643  1.5045 -0.2254
    2MOL0     H  217   4.129   8.429   5.928  0.0890 -2.3343 -0.8248
    2MOL0     H  218   4.215   8.399   5.773  1.3515  0.1700 -0.8459
    2MOL0     H  219   4.338   8.331   5.966 -2.0466 -0.2204 -0.6178
    2MOL0     H  220   4.342   8.492   6.027 -0.3311 -0.9635  1.1324
    2MOL0     H  221   4.482   8.259   5.769  0.8879  1.2424 -1.6351
    2MOL0     H  222   4.665   8.280   5.530  2.4089 -2.0104 -0.9989
    2MOL0     H  223   4.773   8.408   5.543 -0.5436  0.3345 -0.6049
    2MOL0     H  224   4.769   8.236   5.793 -3.7596 -0.4173 -1.8264
    2MOL0     H  225   4.904   8.304   5.704  1.5704 -1.3477  1.4583
    2MOL0     H  226   4.915   8.129   5.550  2.5476 -2.1841  2.0290
    2MOL0     H  227   4.739   8.094   5.569 -0.5241  0.2742  1.7603
    2MOL0     H  228   4.898   7.922   5.675  1.7650 -0.7592  3.4476
    2MOL0     H  229   4.786   8.012   5.798  0.5393 -3.0914  1.5824
    2MOL0     H  230   5.001   8.206   6.008  2.5610 -0.3202  1.4022
    2MOL0     H  231   5.030   8.269   6.220 -2.1957  2.7959  6.7037
    2MOL0     H  232   4.914   8.199   6.318 -1.1151  1.6898 -1.6163
    2MOL0     H  233   5.085   8.159   6.329  0.1295  0.4911  0.1776
    2MOL0     H  234   4.842   7.536   6.323  0.1727 -0.9460 -0.2828
    2MOL0     H  235   4.812   7.362   6.499  0.0949 -1.0115  2.0195
    2MOL0     H  236   4.921   7.475   6.959  1.3722 -0.1950 -0.7869
    2MOL0     H  237   4.782   7.544   6.866  2.1171  2.3248  0.5084
    2MOL0     H  238   4.823   7.277   6.985  1.8344  0.7253 -0.7072
    2MOL0     H  239   4.706   7.388   7.044 -0.7927 -0.3202  0.2314
    2MOL0     H  240   4.679   7.275   6.759  2.6547 -0.4372  1.2254
    2MOL0     H  241   4.603   7.415   6.820 -0.1247 -0.3367  1.2924
    2MOL0     H  242   4.487   7.191   6.824 -3.9438  2.2168  0.6342
    2MOL0     H  243   4.585   7.150   6.961  2.2418  0.6802 -0.7743
    2MOL0     H  244   4.388   7.390   6.935  0.2977 -1.9114 -1.3516
    2MOL0     H  245   4.506   7.374   7.074  1.6014 -1.4945  0.4307
    2MOL0     H  246   4.256   7.306   7.103  2.2097  2.8828 -0.2119
    2MOL0     H  247   4.282   7.161   7.008 -0.6537 -1.0614  1.4098
    2MOL0     H  248   4.404   7.221   7.272 -1.0862  0.1563 -0.8363
    2MOL0     H  249   4.451   7.079   7.167 -2.2525 -1.8527 -0.7725
    2MOL0     H  250   4.211   7.020   7.164  0.4689 -0.1803  0.9892
    2MOL0     H  251   4.182   7.142   7.287 -0.0781 -2.3843  1.2649
    2MOL0     H  252   5.010   7.636   6.766  2.0662 -3.2874 -0.2961
    2MOL0     H  253   5.027   7.806   6.596 -0.4544  0.3338 -0.0049
    2MOL0     H  254   4.982   7.731   6.107 -2.3266 -0.0952  3.0769
    2MOL0     H  255   4.994   7.801   5.875  2.0147  2.6338 -2.8540
    2MOL0     H  256   4.444   9.146   5.206  1.3594  1.0088  0.1663
    2MOL0     H  257   4.540   9.387   5.209  0.0913  1.7339 -0.4789
    2MOL0     H  258   4.681   9.830   5.136  2.6921  3.1594  0.7555
    2MOL0     H  259   4.649  10.086   5.108 -1.3881  2.4675  0.4883
    2MOL0     H  260   4.238  10.209   5.176 -0.5423  0.8385 -1.0179
    2MOL0     H  261   4.340  10.356   5.145  0.0586  0.2015 -1.0222
    2MOL0     H  262   4.221  10.258   4.945 -2.0649 -0.6022  3.4674
    2MOL0     H  263   4.327  10.120   4.960  3.2865 -0.7121  2.5864
    2MOL0     H  264   4.527  10.286   4.940 -1.2002 -1.2890  2.1893
    2MOL0     H  265   4.404  10.407   4.893  0.4756 -0.4814 -2.4953
    2MOL0     H  266   4.322  10.294   4.714 -0.6455 -2.8297 -1.2704
    2MOL0     H  267   4.398  10.139   4.748  0.6966 -0.8632  0.7923
    2MOL0     H  268   4.726  10.299   4.537 -1.9570 -1.3682 -2.5362
    2MOL0     H  269   4.302  10.070   5.334 -0.2763 -1.3571 -2.0241
    2MOL0     H  270   4.328   9.834   5.381  0.2888 -1.4744 -0.7741
    3MOL0     O  271   4.420   0.766   8.317 -0.4898  0.0714 -0.0820
    3MOL0     C  272   4.321   0.756   8.249 -0.0684 -0.2075 -0.4710
    3MOL0     O  273   4.195   0.772   8.290  0.5337 -1.1954  0.4643
    3MOL0     C  274   4.177   0.778   8.423 -0.3694 -0.0766  0.8957
    3MOL0     C  275   4.159   0.897   8.487  0.9288 -0.7003 -1.0979
    3MOL0     C  276   4.124   0.903   8.629 -0.7558 -0.2148  0.6364
    3MOL0     C  277   4.148   0.790   8.701  0.6341  1.0047  0.4132
    3MOL0     O  278   4.151   0.790   8.842 -0.6855  0.2876 -0.4626
    3MOL0     C  279   4.171   0.679   8.931  0.5251  0.9644  0.3388
    3MOL0     C  280   4.320   0.660   8.943 -0.9237 -0.9146  0.2665
    3MOL0     C  281   4.390   0.762   9.047  0.1201 -0.3637 -0.7447
    3MOL0     C  282   4.367   0.713   9.189  0.3637  0.1827  0.0144
    3MOL0     C  283   4.429   0.784   9.309  0.5745  0.0167  0.3904
    3MOL0     C  284   4.382   0.932   9.322  0.8630  0.4260 -0.0638
    3MOL0     C  285   4.463   0.998   9.438 -0.2633 -0.3926 -0.0383
    3MOL0     C  286   4.475   1.148   9.422  0.2242 -0.3225 -0.4154
    3MOL0     N  287   4.348   1.212   9.468 -0.2947 -0.1281  0.0051
    3MOL0     C  288   4.298   1.328   9.420  0.1123 -1.1548  0.7421
    3MOL0     C  289   4.178   1.342   9.483 -0.4430 -0.3316  0.6390
    3MOL0     C  290   4.081   1.461   9.466  0.7363  0.0378  0.4480
    3MOL0     C  291   4.161   1.582   9.426  0.4884  0.1598  1.0157
    3MOL0     C  292   4.097   1.708   9.485 -0.2268 -0.1101 -0.3855
    3MOL0     C  293   3.957   1.737   9.445  0.8916 -0.1155  0.2524
    3MOL0     O  294   3.908   1.850   9.530  0.1554  0.8818 -0.3957
    3MOL0     C  295   3.812   1.920   9.468 -1.0764 -0.0200 -0.0765
    3MOL0     C  296   3.837   2.056   9.454 -0.6537  0.0653  0.6257
    3MOL0     C  297   3.746   2.144   9.400  0.3578  0.4588  0.0571
    3MOL0     C  298   3.769   2.290   9.404 -0.2247 -0.1368  0.3088
    3MOL0     C  299   3.620   2.090   9.353  0.4192 -0.6406  0.8896
    3MOL0     C  300   3.497   2.178   9.298  0.4200 -0.4540 -0.1072
    3MOL0     O  301   3.498   2.304   9.308 -0.1668  0.8956  0.2691
    3MOL0     C  302   3.417   2.397   9.239  0.4647 -1.2520  1.2045
    3MOL0     C  303   3.394   2.370   9.103  0.0107  0.1078 -0.1429
    3MOL0     C  304   3.309   2.450   9.024  0.2696  1.0936  0.4085
    3MOL0     C  305   3.234   2.554   9.084 -0.5637  0.5206  0.5446
    3MOL0     O  306   3.150   2.627   9.006 -0.2280 -0.5674  0.7439
    3MOL0     C  307   3.133   2.769   9.046 -0.8820 -1.8312  0.9953
    3MOL0     C  308   3.110   2.840   8.902  0.6085 -0.2459  0.1586
    3MOL0     C  309   3.235   2.874   8.822  0.0760  0.4618 -0.5757
    3MOL0     C  310   3.213   3.017   8.765 -0.4603 -0.1618 -0.4085
    3MOL0     C  311   3.093   3.040   8.673  0.8877  0.5584  0.5758
    3MOL0     C  312   3.083   3.195   8.647  0.1337 -0.0552  0.6056
    3MOL0     C  313   2.984   3.232   8.541 -0.4318 -1.4218  0.9546
    3MOL0     C  314   2.953   3.388   8.550  0.2743  0.2392  0.7610
    3MOL0    Cl  315   2.847   3.407   8.694  0.2336 -0.2767 -0.0289
    3MOL0     C  316   3.258   2.582   9.226  0.9528  0.2089  0.4393
    3MOL0     C  317   3.345   2.500   9.303 -0.2845  0.8765 -0.2552
    3MOL0     O  318   3.402   2.111   9.248 -0.1955  0.3211  0.0858
    3MOL0     C  319   3.593   1.955   9.375  0.0670  0.9982  0.8226
    3MOL0     C  320   3.686   1.868   9.433  0.3609 -0.1776  0.4556
    3MOL0     N  321   4.156   1.231   9.559 -0.1681 -0.2962  0.5557
    3MOL0     N  322   4.247   1.148   9.548 -0.6846 -0.9785  0.0204
    3MOL0     C  323   4.148   0.665   8.628  0.3914 -0.7848  0.1942
    3MOL0     C  324   4.165   0.659   8.495  1.2215 -0.6188  0.4428
    3MOL0     C  325   4.348   0.710   8.115 -0.0936 -0.3473  0.0949
    3MOL0     C  326   4.239   0.679   8.030  0.9796  0.0001 -0.3084
    3MOL0     C  327   4.259   0.608   7.918  0.1725  0.3567 -0.1229
    3MOL0     C  328   4.382   0.563   7.873  0.1189 -0.9657 -1.1464
    3MOL0     O  329   4.381   0.500   7.752  0.0866  0.4304 -0.7012
    3MOL0     C  330   4.479   0.393   7.730  0.6046 -0.2393 -0.1319
    3MOL0     C  331   4.504   0.359   7.579 -0.1336  0.1206  0.1685
    3MOL0     C  332   4.368   0.355   7.501 -0.2071 -0.8214 -0.1612
    3MOL0     C  333   4.382   0.295   7.368 -0.1433  0.0513 -0.2169
    3MOL0     C  334   4.283   0.188   7.342 -0.3911 -0.7850 -0.1680
    3MOL0     C  335   4.203   0.099   7.312 -1.4068  0.7512  0.4065
    3MOL0     C  336   4.497   0.600   7.951  0.4296 -0.2201 -0.2429
    3MOL0     C  337   4.481   0.675   8.068  0.4379  0.5195  0.6376
    3MOL0     H  338   4.168   0.988   8.427 -3.1117  0.9770  0.4878
    3MOL0     H  339   4.097   0.996   8.678 -0.7507 -0.3098  0.8167
    3MOL0     H  340   4.134   0.706   9.031  0.8304  4.5469 -0.3812
    3MOL0     H  341   4.120   0.591   8.890  1.5992  1.0297 -1.2300
    3MOL0     H  342   4.346   0.560   8.979 -2.8110 -0.9393  1.7273
    3MOL0     H  343   4.361   0.678   8.843 -2.9406  2.1352 -0.1559
    3MOL0     H  344   4.498   0.752   9.036  0.1980 -2.7662  1.3957
    3MOL0     H  345   4.366   0.867   9.028  0.4887 -0.0250  0.5835
    3MOL0     H  346   4.258   0.712   9.198  0.2810 -0.4613 -0.9082
    3MOL0     H  347   4.407   0.613   9.209 -0.7763 -0.0753  1.1232
    3MOL0     H  348   4.400   0.730   9.400  0.4790 -1.7118 -0.6469
    3MOL0     H  349   4.536   0.786   9.291  0.6331  0.5344  0.7434
    3MOL0     H  350   4.400   0.981   9.227 -1.2191  0.5836 -0.4324
    3MOL0     H  351   4.273   0.932   9.333 -0.1736  3.8962 -6.0214
    3MOL0     H  352   4.426   0.965   9.535 -1.5815  1.1624  0.0320
    3MOL0     H  353   4.566   0.962   9.431 -0.5612 -1.9076  2.3639
    3MOL0     H  354   4.500   1.165   9.317 -0.0182 -0.2407 -0.4613
    3MOL0     H  355   4.564   1.188   9.473 -1.0536 -1.3128  2.8637
    3MOL0     H  356   4.340   1.393   9.345 -1.1576 -0.2800  0.7491
    3MOL0     H  357   3.993   1.448   9.402  1.7511  1.1425 -1.2578
    3MOL0     H  358   4.036   1.461   9.566 -0.3323 -4.0847  0.1478
    3MOL0     H  359   4.160   1.592   9.317 -0.2767 -2.5697  0.6964
    3MOL0     H  360   4.266   1.578   9.455  0.6777 -1.2488  0.2261
    3MOL0     H  361   4.168   1.789   9.466 -2.7283  3.4273  3.4446
    3MOL0     H  362   4.094   1.696   9.594  0.9308  1.4952 -0.1460
    3MOL0     H  363   3.905   1.644   9.468  0.4834 -1.0432 -3.7055
    3MOL0     H  364   3.939   1.750   9.338 -1.3853 -0.3480  0.5786
    3MOL0     H  365   3.935   2.085   9.490  0.5404 -2.3141 -0.4564
    3MOL0     H  366   3.692   2.357   9.443 -0.3758 -0.7000  1.0145
    3MOL0     H  367   3.849   2.315   9.475 -2.0346 -3.9044  4.1141
    3MOL0     H  368   3.783   2.328   9.302  0.5401  0.1465  0.5145
    3MOL0     H  369   3.447   2.290   9.052  0.7850  0.0921  0.6486
    3MOL0     H  370   3.281   2.432   8.921 -0.1561  0.1767  0.6812
    3MOL0     H  371   3.039   2.776   9.101 -0.9380 -0.3970  0.7527
    3MOL0     H  372   3.213   2.812   9.108  0.8823 -0.8882 -1.7345
    3MOL0     H  373   3.058   2.775   8.831 -0.8188  2.4084 -1.4141
    3MOL0     H  374   3.056   2.931   8.931  1.5474  0.4275 -0.1578
    3MOL0     H  375   3.259   2.796   8.750  2.3587 -0.5672  1.1644
    3MOL0     H  376   3.323   2.869   8.886  0.0364 -2.2085 -0.6141
    3MOL0     H  377   3.220   3.088   8.848 -0.1061  0.1433 -0.6968
    3MOL0     H  378   3.294   3.046   8.697 -0.9141 -2.1920 -1.9109
    3MOL0     H  379   2.996   3.010   8.713  1.3086  0.1134  1.2751
    3MOL0     H  380   3.109   2.990   8.577 -4.4864  2.1544 -1.5324
    3MOL0     H  381   3.055   3.239   8.743 -0.2856 -0.3094  0.5982
    3MOL0     H  382   3.176   3.245   8.618  1.2805 -1.6157  1.4276
    3MOL0     H  383   2.889   3.177   8.535 -0.3968 -1.3522 -0.8021
    3MOL0     H  384   3.045   3.209   8.453  0.5129  1.2212  0.8174
    3MOL0     H  385   2.895   3.417   8.462  0.0090 -2.3869 -0.0262
    3MOL0     H  386   3.046   3.445   8.563  1.4957 -1.4182 -0.1648
    3MOL0     H  387   3.199   2.650   9.288  2.0499  1.4216  0.2025
    3MOL0     H  388   3.356   2.523   9.408  1.1503 -0.3764 -0.0917
    3MOL0     H  389   3.507   1.896   9.345  2.5050 -2.2631 -0.3044
    3MOL0     H  390   3.665   1.764   9.452 -3.6077  0.3410 -0.1295
    3MOL0     H  391   4.175   0.568   8.668  2.0077  1.0660  4.0710
    3MOL0     H  392   4.166   0.567   8.438 -0.4234 -0.2856 -0.1803
    3MOL0     H  393   4.137   0.701   8.058  0.5032  1.0320 -2.6187
    3MOL0     H  394   4.171   0.575   7.863 -0.6343 -0.6938  1.7018
    3MOL0     H  395   4.577   0.427   7.764  2.1022  0.3784 -4.4410
    3MOL0     H  396   4.436   0.303   7.775 -0.5046 -0.2889 -1.2176
    3MOL0     H  397   4.561   0.268   7.561  1.2868  0.5604  2.1126
    3MOL0     H  398   4.567   0.443   7.547  2.6744 -1.1174  2.0689
    3MOL0     H  399   4.318   0.453   7.506  1.4918  0.0281  2.4688
    3MOL0     H  400   4.306   0.286   7.560 -2.3578 -1.0343 -2.5030
    3MOL0     H  401   4.485   0.263   7.349  0.3502  1.3775  0.1449
    3MOL0     H  402   4.366   0.367   7.288  0.7895 -0.8123 -1.2216
    3MOL0     H  403   4.140   0.015   7.295 -0.2666 -0.2233  0.8592
    3MOL0     H  404   4.599   0.579   7.921  0.4143  0.1893 -0.5799
    3MOL0     H  405   4.563   0.711   8.131  0.2498 -0.1415  1.2731
    4MOL0     O  406   5.172   0.921   2.476  0.3898  1.8344  0.2670
    4MOL0     C  407   5.172   1.043   2.445  0.3370  1.1395 -0.2643
    4MOL0     O  408   5.061   1.114   2.420 -0.2737  0.1033 -0.4201
    4MOL0     C  409   4.941   1.057   2.439  0.5519  0.2437  0.2134
    4MOL0     C  410   4.844   1.062   2.334  1.4120 -0.4830  1.6708
    4MOL0     C  411   4.712   1.021   2.349  0.5399  0.3893  0.6596
    4MOL0     C  412   4.672   0.955   2.462  0.4655  0.2358 -0.9674
    4MOL0     O  413   4.536   0.920   2.455 -0.6467  0.0761 -0.1436
    4MOL0     C  414   4.498   0.814   2.546 -0.1630  0.2912 -1.3624
    4MOL0     C  415   4.458   0.857   2.691 -0.3368 -0.2343  0.3524
    4MOL0     C  416   4.323   0.925   2.688 -0.5557  0.3541 -0.0171
    4MOL0     C  417   4.212   0.821   2.709  0.6840  0.3150  0.2553
    4MOL0     C  418   4.086   0.896   2.755 -1.0108  0.4518 -0.0889
    4MOL0     C  419   4.011   0.971   2.636 -0.3413 -0.5933 -0.4153
    4MOL0     C  420   3.858   0.970   2.640 -0.0681  0.3703 -0.2488
    4MOL0     C  421   3.800   1.029   2.782 -0.6395  0.8513 -0.5650
    4MOL0     N  422   3.654   1.064   2.769 -0.5195  0.0967 -0.4630
    4MOL0     C  423   3.602   1.185   2.724 -0.0963 -0.1142  0.8195
    4MOL0     C  424   3.473   1.157   2.715  0.4618 -0.7743 -0.5174
    4MOL0     C  425   3.364   1.263   2.682 -0.3131 -0.1137 -0.1501
    4MOL0     C  426   3.309   1.265   2.541 -0.2552 -0.8507  0.0739
    4MOL0     C  427   3.219   1.394   2.537 -0.0991 -1.0202 -0.8053
    4MOL0     C  428   3.284   1.511   2.459  0.7287  0.5741  0.8198
    4MOL0     O  429   3.427   1.522   2.473  0.3445  0.4895  0.0759
    4MOL0     C  430   3.507   1.567   2.371 -0.0560  0.9295  0.0343
    4MOL0     C  431   3.471   1.625   2.256 -0.7848 -0.6188  0.8777
    4MOL0     C  432   3.561   1.659   2.156 -0.1524 -0.5432 -0.1731
    4MOL0     C  433   3.518   1.710   2.032  0.2419 -0.1444  1.7296
    4MOL0     C  434   3.697   1.633   2.179 -0.5103  0.0813 -0.1255
    4MOL0     C  435   3.806   1.674   2.083  0.7704  0.7463 -0.3591
    4MOL0     O  436   3.896   1.569   2.074  0.3720  0.3716  0.5341
    4MOL0     C  437   3.984   1.573   1.971 -0.0487  0.0984  0.4188
    4MOL0     C  438   4.116   1.572   2.010  0.4798  0.1113  0.0933
    4MOL0     C  439   4.212   1.588   1.901 -0.8810  0.2604  0.2219
    4MOL0     C  440   4.182   1.585   1.764  0.4514  0.1362  0.1794
    4MOL0     O  441   4.265   1.602   1.654 -0.2544  0.0846 -0.1652
    4MOL0     C  442   4.409   1.573   1.675 -0.3115  0.4253  1.3861
    4MOL0     C  443   4.486   1.703   1.691  0.0327 -0.9349  0.0606
    4MOL0     C  444   4.603   1.724   1.595 -0.3972 -0.6204 -0.2810
    4MOL0     C  445   4.579   1.833   1.480  0.1258 -0.3456 -0.4549
    4MOL0     C  446   4.706   1.829   1.383  1.3094 -0.0657 -0.3755
    4MOL0     C  447   4.822   1.902   1.443 -0.1314  1.0429  0.3514
    4MOL0     C  448   4.941   1.912   1.337  0.0183  0.3680  0.0752
    4MOL0     C  449   4.994   1.786   1.300  0.2116 -0.8705 -0.0015
    4MOL0    Cl  450   5.058   1.685   1.440  0.4776 -0.3927 -0.1478
    4MOL0     C  451   4.045   1.590   1.736  0.3049 -0.7824 -0.0256
    4MOL0     C  452   3.946   1.585   1.837 -0.0119  0.3703 -0.3341
    4MOL0     O  453   3.817   1.784   2.034  0.0691 -0.4475  0.5155
    4MOL0     C  454   3.733   1.555   2.293 -0.5113  0.8846  0.4917
    4MOL0     C  455   3.641   1.523   2.390 -0.5772 -0.3099  0.1806
    4MOL0     N  456   3.453   1.024   2.738  0.8321 -0.8061 -0.2055
    4MOL0     N  457   3.564   0.967   2.763 -0.1400  0.3916  0.1143
    4MOL0     C  458   4.771   0.946   2.566 -0.2435  0.2459  0.0375
    4MOL0     C  459   4.905   0.995   2.552  1.6216  0.7179 -0.4160
    4MOL0     C  460   5.308   1.105   2.423 -0.0656 -0.0376 -0.4082
    4MOL0     C  461   5.347   1.242   2.459  0.6771 -0.0790 -0.8945
    4MOL0     C  462   5.468   1.296   2.439 -0.2391 -0.7646  1.1117
    4MOL0     C  463   5.562   1.225   2.375 -0.4711 -0.8308  0.3862
    4MOL0     O  464   5.678   1.288   2.323 -0.0974 -0.2179  0.7104
    4MOL0     C  465   5.722   1.427   2.319 -1.2848  0.8082 -0.2602
    4MOL0     C  466   5.855   1.436   2.245  0.4424 -0.1558 -0.1783
    4MOL0     C  467   5.983   1.402   2.341  0.2262  0.5228  0.3869
    4MOL0     C  468   5.974   1.274   2.423 -0.1457 -0.9271  0.2123
    4MOL0     C  469   6.094   1.199   2.391 -0.3886  0.4281  0.2771
    4MOL0     C  470   6.192   1.139   2.352 -0.7909  0.4644 -0.2166
    4MOL0     C  471   5.539   1.092   2.343 -0.4892  0.1914 -0.0258
    4MOL0     C  472   5.408   1.028   2.369  0.0614 -0.2460  0.0669
    4MOL0     H  473   4.854   1.099   2.232  1.0556 -1.5016  1.2603
    4MOL0     H  474   4.637   1.056   2.279  1.6122  2.0693  0.2792
    4MOL0     H  475   4.418   0.753   2.503 -0.1522  0.6868 -1.9518
    4MOL0     H  476   4.587   0.751   2.548  0.9066  1.7790 -0.4498
    4MOL0     H  477   4.454   0.778   2.766  0.6407  0.2310  0.9063
    4MOL0     H  478   4.532   0.929   2.725 -0.0902 -0.7836  1.0009
    4MOL0     H  479   4.326   1.006   2.762  1.5988 -2.1891  2.9093
    4MOL0     H  480   4.313   0.969   2.588 -0.3988  1.1002  0.2894
    4MOL0     H  481   4.188   0.765   2.618  0.9701  0.7190 -0.0701
    4MOL0     H  482   4.247   0.740   2.773  0.1967 -2.3676 -2.6486
    4MOL0     H  483   4.028   0.821   2.811 -2.5047  3.0932  2.1408
    4MOL0     H  484   4.106   0.975   2.828 -0.5670  0.1150  0.1634
    4MOL0     H  485   4.037   1.076   2.619  1.1180 -0.3630  2.6577
    4MOL0     H  486   4.040   0.915   2.547 -0.8698 -1.8223  0.1591
    4MOL0     H  487   3.813   1.009   2.548  4.2336  0.2781 -2.6145
    4MOL0     H  488   3.830   0.865   2.629 -3.0569  0.8653  1.3777
    4MOL0     H  489   3.862   1.114   2.811  3.3188 -1.2439 -2.1490
    4MOL0     H  490   3.816   0.956   2.862 -0.4302  3.8276  2.3251
    4MOL0     H  491   3.662   1.275   2.711 -1.1425  0.6817  1.3822
    4MOL0     H  492   3.286   1.250   2.757  0.9177 -0.7083  1.0697
    4MOL0     H  493   3.414   1.360   2.696  0.1494 -0.5237  1.2143
    4MOL0     H  494   3.257   1.172   2.517 -1.3785 -0.1245 -0.4119
    4MOL0     H  495   3.389   1.283   2.468  0.0820 -0.2178  0.5890
    4MOL0     H  496   3.200   1.425   2.640  1.1396  0.4914 -0.9842
    4MOL0     H  497   3.128   1.365   2.484  0.4212 -2.8529 -0.7734
    4MOL0     H  498   3.242   1.597   2.510  1.0890  3.3073 -3.0476
    4MOL0     H  499   3.275   1.499   2.350  0.3257  1.5317  0.7453
    4MOL0     H  500   3.368   1.656   2.244 -0.2340  1.0298  0.1035
    4MOL0     H  501   3.555   1.655   1.945  2.2324  1.0196  1.7856
    4MOL0     H  502   3.408   1.710   2.034  0.1840 -2.4842  4.3265
    4MOL0     H  503   3.539   1.816   2.020 -1.9875  0.3558  1.7137
    4MOL0     H  504   4.152   1.574   2.112  0.1228 -0.1241  0.2240
    4MOL0     H  505   4.311   1.612   1.939 -0.3515 -2.9966  1.1507
    4MOL0     H  506   4.426   1.511   1.764  0.3654 -0.5984  0.5615
    4MOL0     H  507   4.446   1.510   1.594 -1.1923  2.5052 -0.7524
    4MOL0     H  508   4.416   1.784   1.670  0.2119 -0.1666  2.2527
    4MOL0     H  509   4.522   1.718   1.793  0.6273  1.1056 -0.4093
    4MOL0     H  510   4.613   1.625   1.550 -3.9351 -0.9144 -0.7139
    4MOL0     H  511   4.688   1.759   1.654 -2.9707  1.3339  2.5579
    4MOL0     H  512   4.486   1.807   1.429 -0.0547  1.0115 -0.8387
    4MOL0     H  513   4.566   1.935   1.514 -2.6710 -0.7318 -0.1680
    4MOL0     H  514   4.677   1.892   1.299  1.9894  0.9119  0.1050
    4MOL0     H  515   4.726   1.723   1.362 -2.0703 -1.6345  2.9072
    4MOL0     H  516   4.790   2.003   1.469 -2.4059  0.4611 -0.0017
    4MOL0     H  517   4.849   1.850   1.535 -2.1662 -5.2271 -2.0620
    4MOL0     H  518   5.027   1.971   1.370 -0.0673 -0.5557  2.0764
    4MOL0     H  519   4.901   1.953   1.243 -1.7907 -0.3460  0.4987
    4MOL0     H  520   5.085   1.814   1.246  1.0857  0.2186  1.9121
    4MOL0     H  521   4.920   1.734   1.239  2.2839 -3.2961 -0.5784
    4MOL0     H  522   4.017   1.590   1.631  4.4904 -2.0286 -1.3482
    4MOL0     H  523   3.838   1.592   1.822 -0.1910  0.3632  0.8328
    4MOL0     H  524   3.838   1.531   2.304 -1.2323 -1.7466  2.6650
    4MOL0     H  525   3.675   1.473   2.480  0.8676  4.1937  2.4815
    4MOL0     H  526   4.737   0.892   2.653 -1.2502 -1.2747 -1.2424
    4MOL0     H  527   4.973   1.007   2.636 -1.2915  2.3356  1.9343
    4MOL0     H  528   5.260   1.290   2.503 -0.0612 -0.9937 -1.3145
    4MOL0     H  529   5.486   1.398   2.472  0.2311 -0.9541  1.4667
    4MOL0     H  530   5.655   1.487   2.256 -2.0686 -1.8232 -2.1314
    4MOL0     H  531   5.719   1.461   2.423  0.5201  1.7235 -0.4690
    4MOL0     H  532   5.859   1.543   2.224 -2.9046  1.4661  5.2475
    4MOL0     H  533   5.847   1.371   2.157 -0.3500 -0.7587  0.3210
    4MOL0     H  534   6.006   1.488   2.406  0.8503  1.5388 -1.1303
    4MOL0     H  535   6.072   1.394   2.279 -0.5317  1.3581 -0.8423
    4MOL0     H  536   5.888   1.211   2.398  0.0688 -0.5701 -1.5680
    4MOL0     H  537   5.968   1.293   2.530 -0.6466 -1.4340  0.2783
    4MOL0     H  538   6.268   1.075   2.313 -1.4862 -1.2833  1.1466
    4MOL0     H  539   5.611   1.035   2.284 -0.9812 -5.6645  4.1685
    4MOL0     H  540   5.395   0.931   2.322  0.4458  1.2820 -3.5435
    5MOL0     O  541   1.050   4.958   5.993 -0.4657  0.2318 -0.2797
    5MOL0     C  542   0.974   5.053   6.014  0.7582  0.6899  0.6300
    5MOL0     O  543   0.909   5.125   5.928 -0.0350 -0.1612 -0.5040
    5MOL0     C  544   0.944   5.122   5.799 -0.2060 -0.0801  0.1580
    5MOL0     C  545   0.849   5.129   5.696  0.0741 -0.4356  0.0262
    5MOL0     C  546   0.889   5.135   5.559 -0.2958  0.2729 -0.2574
    5MOL0     C  547   1.024   5.123   5.528 -0.4136  0.4275  0.3529
    5MOL0     O  548   1.061   5.112   5.401  0.0491  1.0034  1.4033
    5MOL0     C  549   1.180   5.186   5.356 -0.6181 -0.3093 -0.0193
    5MOL0     C  550   1.165   5.333   5.364 -0.3653  1.0359  0.4189
    5MOL0     C  551   1.287   5.409   5.320 -0.1781 -1.8143 -0.8269
    5MOL0     C  552   1.271   5.567   5.322  0.1059 -0.4333  0.6104
    5MOL0     C  553   1.133   5.623   5.302  0.0852  0.8969 -0.5884
    5MOL0     C  554   1.143   5.760   5.247 -0.0823 -0.2304  0.8313
    5MOL0     C  555   1.021   5.847   5.292 -0.2543 -0.6314 -1.3795
    5MOL0     C  556   1.004   5.878   5.444 -0.2472  0.4246  0.1072
    5MOL0     N  557   0.902   5.982   5.460  0.0652  0.2969  0.1772
    5MOL0     C  558   0.921   6.115   5.448  0.8710  0.3860  0.7042
    5MOL0     C  559   0.792   6.177   5.450 -0.3846  0.2833  0.0643
    5MOL0     C  560   0.768   6.325   5.473  0.8353 -0.1856 -0.0911
    5MOL0     C  561   0.821   6.377   5.601  0.3013  0.9598 -0.6415
    5MOL0     C  562   0.740   6.333   5.724 -0.1712 -0.1646  0.3025
    5MOL0     C  563   0.799   6.386   5.852  0.6041 -0.3292  1.2816
    5MOL0     O  564   0.928   6.322   5.860 -0.1322  0.3983 -0.5601
    5MOL0     C  565   1.011   6.355   5.972  0.6119  0.3691  0.5468
    5MOL0     C  566   1.146   6.308   5.968  0.3908 -0.7754 -0.6640
    5MOL0     C  567   1.232   6.308   6.077 -0.2028 -0.3412  0.2865
    5MOL0     C  568   1.356   6.231   6.060  0.0366 -0.1119 -0.0563
    5MOL0     C  569   1.205   6.393   6.188 -0.2607  1.2079  0.0585
    5MOL0     C  570   1.282   6.415   6.316  0.5480 -1.0860  0.1296
    5MOL0     O  571   1.239   6.529   6.385 -0.3874 -0.6617 -0.1700
    5MOL0     C  572   1.318   6.557   6.495 -0.2343 -0.8471  0.8305
    5MOL0     C  573   1.285   6.519   6.621  0.7082  0.4288 -0.5055
    5MOL0     C  574   1.367   6.561   6.735  0.0877 -0.1310  0.4389
    5MOL0     C  575   1.484   6.633   6.714 -0.1585  0.0015 -0.3870
    5MOL0     O  576   1.580   6.656   6.801 -0.6916  0.9169 -0.2751
    5MOL0     C  577   1.552   6.619   6.937  0.1271 -0.9045 -0.2296
    5MOL0     C  578   1.466   6.741   6.998 -0.3104 -0.2447  0.2054
    5MOL0     C  579   1.548   6.874   6.985 -0.5715  0.9173  0.1402
    5MOL0     C  580   1.499   6.982   7.085 -0.6578  0.9441  1.1160
    5MOL0     C  581   1.577   7.116   7.074  0.4573  0.5364  0.2342
    5MOL0     C  582   1.729   7.094   7.102 -0.6596  0.2614  0.3132
    5MOL0     C  583   1.812   7.232   7.099  0.4313  0.0175 -0.6536
    5MOL0     C  584   1.773   7.325   7.208  0.5997  0.3109 -0.0195
    5MOL0    Cl  585   1.870   7.483   7.172 -0.0179  0.4715 -0.0586
    5MOL0     C  586   1.514   6.666   6.579  0.3010 -0.4278  0.8303
    5MOL0     C  587   1.433   6.627   6.469  0.5116 -0.2844 -0.3673
    5MOL0     O  588   1.384   6.349   6.336 -0.0717  0.0267  0.4242
    5MOL0     C  589   1.079   6.454   6.181  0.5575 -0.3393  0.2153
    5MOL0     C  590   0.979   6.431   6.082 -1.1167  0.2223 -0.4703
    5MOL0     N  591   0.700   6.071   5.451  0.0791 -0.7750 -0.6135
    5MOL0     N  592   0.766   5.962   5.454 -0.3749 -0.4959  0.2988
    5MOL0     C  593   1.118   5.109   5.635  0.2445 -0.1967  0.8155
    5MOL0     C  594   1.083   5.129   5.764 -0.4882 -0.2829  1.0812
    5MOL0     C  595   0.944   5.090   6.158 -1.2112 -0.7244 -0.4649
    5MOL0     C  596   0.982   5.009   6.269  0.8434 -0.1422 -0.8765
    5MOL0     C  597   0.940   5.053   6.400 -0.2147  0.0512 -0.4415
    5MOL0     C  598   0.868   5.172   6.415 -0.5238  0.5445  0.3197
    5MOL0     O  599   0.855   5.234   6.534 -0.1986 -0.1489  0.8772
    5MOL0     C  600   0.801   5.171   6.649 -0.4518 -0.7425 -0.4766
    5MOL0     C  601   0.914   5.167   6.745  0.4696  0.5674 -0.4081
    5MOL0     C  602   0.878   5.106   6.885 -0.2054 -0.1142 -0.0795
    5MOL0     C  603   0.806   4.969   6.903 -0.3125  1.0687 -0.2450
    5MOL0     C  604   0.664   4.969   6.868  0.3159  0.2445  0.4783
    5MOL0     C  605   0.546   4.954   6.847  0.2502 -0.7119 -0.4697
    5MOL0     C  606   0.831   5.248   6.309  0.5591 -0.2581  0.1211
    5MOL0     C  607   0.868   5.203   6.182  0.4801  0.1449 -0.4528
    5MOL0     H  608   0.745   5.136   5.726  0.3604 -0.3683  1.0363
    5MOL0     H  609   0.830   5.128   5.468  1.6129 -2.3515 -1.4428
    5MOL0     H  610   1.265   5.154   5.416 -2.5412 -0.0581  3.0944
    5MOL0     H  611   1.205   5.161   5.253 -1.0511 -0.1801 -0.1580
    5MOL0     H  612   1.087   5.358   5.291  0.8153 -0.8375 -1.5945
    5MOL0     H  613   1.129   5.364   5.463 -0.3183 -0.4246  0.9192
    5MOL0     H  614   1.372   5.387   5.385 -1.1094 -3.2218 -0.0185
    5MOL0     H  615   1.298   5.383   5.215 -0.6538  1.6098 -1.8490
    5MOL0     H  616   1.314   5.604   5.416 -5.7443  0.2111  3.5087
    5MOL0     H  617   1.341   5.610   5.249 -0.9813  0.4836  0.0769
    5MOL0     H  618   1.077   5.561   5.231 -2.1353  1.7122  0.3584
    5MOL0     H  619   1.093   5.618   5.404 -1.1377  1.5390 -1.0207
    5MOL0     H  620   1.239   5.799   5.283  0.8707 -1.7952  0.0528
    5MOL0     H  621   1.138   5.760   5.138 -3.5420  2.2709  0.8233
    5MOL0     H  622   1.039   5.938   5.235  0.6952 -0.1362 -0.3364
    5MOL0     H  623   0.936   5.787   5.259  0.6832 -3.6567  1.1841
    5MOL0     H  624   1.103   5.911   5.478  0.3437 -1.9836  0.9194
    5MOL0     H  625   0.972   5.792   5.503 -0.1324 -0.2308 -0.7616
    5MOL0     H  626   1.018   6.164   5.459  1.4311 -1.0686  2.6986
    5MOL0     H  627   0.808   6.379   5.387 -2.5551 -0.6327 -2.1033
    5MOL0     H  628   0.661   6.346   5.467  0.5163 -1.1927  1.5679
    5MOL0     H  629   0.833   6.485   5.590  0.6007  1.1888  1.5658
    5MOL0     H  630   0.922   6.338   5.619  0.0143  0.9193  0.9837
    5MOL0     H  631   0.716   6.226   5.730 -2.1182  0.0784 -1.7503
    5MOL0     H  632   0.644   6.384   5.714  0.6307  1.1096 -1.2730
    5MOL0     H  633   0.734   6.366   5.937 -0.0939  1.6506  1.2641
    5MOL0     H  634   0.807   6.495   5.855 -4.5092  0.2521  1.2966
    5MOL0     H  635   1.187   6.272   5.874  2.2936  1.5413 -0.8212
    5MOL0     H  636   1.388   6.169   6.144 -1.4799 -0.5967  0.1937
    5MOL0     H  637   1.358   6.161   5.977  0.7813 -0.6158  0.3775
    5MOL0     H  638   1.434   6.305   6.041 -0.6505  0.9460  1.0718
    5MOL0     H  639   1.193   6.463   6.632  0.0034  1.4847 -0.9359
    5MOL0     H  640   1.328   6.546   6.836  2.4244 -0.3508  1.3751
    5MOL0     H  641   1.487   6.531   6.933  0.0932 -0.8329 -2.4397
    5MOL0     H  642   1.640   6.601   7.001  0.4688  0.9926 -0.1076
    5MOL0     H  643   1.369   6.739   6.947 -1.0008 -1.6110  1.5164
    5MOL0     H  644   1.441   6.721   7.102 -1.0165  2.0222  0.5162
    5MOL0     H  645   1.543   6.911   6.882  1.2774  0.9746  0.0332
    5MOL0     H  646   1.648   6.840   7.010 -0.1630  1.9687  0.0204
    5MOL0     H  647   1.393   7.002   7.069 -0.9428  0.7798  2.7060
    5MOL0     H  648   1.496   6.940   7.186 -2.9323 -0.7014  0.4498
    5MOL0     H  649   1.532   7.186   7.144  3.6445  0.4578  2.5775
    5MOL0     H  650   1.567   7.160   6.974 -3.8498 -3.0221 -1.2420
    5MOL0     H  651   1.752   7.059   7.203 -0.9892  1.1893  0.7196
    5MOL0     H  652   1.770   7.021   7.031  1.3900  2.7281 -1.1965
    5MOL0     H  653   1.790   7.287   7.007 -0.0294  3.1260  1.1735
    5MOL0     H  654   1.917   7.202   7.101  0.1833 -0.9759 -1.4729
    5MOL0     H  655   1.811   7.299   7.307 -3.0164  1.4525  1.8695
    5MOL0     H  656   1.665   7.345   7.203  1.1008  3.1336 -2.3926
    5MOL0     H  657   1.613   6.707   6.562  1.0152 -0.5107  4.0540
    5MOL0     H  658   1.459   6.658   6.368 -0.8661 -1.5183 -1.1509
    5MOL0     H  659   1.040   6.525   6.254 -1.4676 -1.5141  0.3417
    5MOL0     H  660   0.886   6.487   6.094 -2.1153 -1.6060  0.7791
    5MOL0     H  661   1.222   5.081   5.620  0.5030 -0.1114  2.3031
    5MOL0     H  662   1.150   5.154   5.846 -0.8252  2.4762  0.6307
    5MOL0     H  663   1.044   4.921   6.254 -0.4997 -1.0625 -1.1906
    5MOL0     H  664   0.966   4.998   6.490 -4.5032 -2.4418 -0.4312
    5MOL0     H  665   0.719   5.230   6.691 -1.0814 -3.4488  2.4936
    5MOL0     H  666   0.761   5.071   6.628  0.5730 -1.5444  1.1320
    5MOL0     H  667   0.969   5.260   6.765  0.8522  0.3067 -0.2314
    5MOL0     H  668   0.982   5.095   6.698  0.0561 -1.3003  1.7345
    5MOL0     H  669   0.821   5.173   6.949  1.4740 -0.2305  1.6289
    5MOL0     H  670   0.975   5.104   6.935  0.9622  1.2490 -2.1114
    5MOL0     H  671   0.817   4.932   7.005  2.3756  1.1758 -0.4327
    5MOL0     H  672   0.855   4.897   6.837 -0.4397  0.1030  0.6974
    5MOL0     H  673   0.443   4.954   6.818  0.1621  2.6959 -0.5506
    5MOL0     H  674   0.783   5.344   6.329  0.5656 -0.5142  1.3991
    5MOL0     H  675   0.839   5.268   6.100 -2.4394  0.1764  0.4875
    6MOL0     O  676   6.643   2.718   0.793 -0.7656  0.3379  0.2760
    6MOL0     C  677   6.735   2.789   0.836  0.4533 -0.3806  1.3067
    6MOL0     O  678   6.828   2.856   0.760  0.2237 -0.3077  0.3123
    6MOL0     C  679   6.819   2.827   0.625 -0.2304 -0.9155  0.8416
    6MOL0     C  680   6.817   2.700   0.567 -0.1997 -0.0326 -0.0855
    6MOL0     C  681   6.845   2.683   0.436  0.2843  0.4716 -0.8966
    6MOL0     C  682   6.861   2.786   0.348  0.3263 -0.1595 -1.5406
    6MOL0     O  683   6.888   2.753   0.227  0.1247 -0.7710  0.3480
    6MOL0     C  684   6.859   2.847   0.116  0.3263 -0.0748 -0.0379
    6MOL0     C  685   6.726   2.825   0.035 -0.8476  0.3037  0.0766
    6MOL0     C  686   6.730   2.686  -0.024 -0.8225  1.0003  0.7652
    6MOL0     C  687   6.589   2.646  -0.062 -0.0183  0.8475  1.1089
    6MOL0     C  688   6.587   2.511  -0.127  0.5375 -0.1842  0.1767
    6MOL0     C  689   6.650   2.508  -0.268  0.9572 -0.0385 -0.3283
    6MOL0     C  690   6.652   2.372  -0.335 -1.2598  0.3316  0.2374
    6MOL0     C  691   6.523   2.291  -0.308 -0.4351 -2.0844 -0.6440
    6MOL0     N  692   6.512   2.191  -0.417  0.6922 -0.1080 -0.1979
    6MOL0     C  693   6.516   2.056  -0.387  0.7477 -0.7888  0.2804
    6MOL0     C  694   6.473   1.981  -0.491  0.5509 -0.4469  0.5090
    6MOL0     C  695   6.478   1.830  -0.505 -0.6135 -0.6677 -1.0584
    6MOL0     C  696   6.367   1.764  -0.411  1.2204 -0.2890 -0.0511
    6MOL0     C  697   6.238   1.742  -0.496  0.9220 -0.4984  0.3226
    6MOL0     C  698   6.137   1.648  -0.413 -1.2100 -0.4859  0.9615
    6MOL0     O  699   6.021   1.646  -0.494 -0.2019 -0.5412 -0.2494
    6MOL0     C  700   5.920   1.573  -0.456 -1.0624  0.2499 -0.8103
    6MOL0     C  701   5.846   1.521  -0.565  0.1701 -0.2910 -0.0867
    6MOL0     C  702   5.739   1.431  -0.529  0.1127  0.2375  0.2679
    6MOL0     C  703   5.669   1.372  -0.654 -0.3843 -0.2350  1.1033
    6MOL0     C  704   5.700   1.415  -0.393  0.3066  0.9222  0.3990
    6MOL0     C  705   5.573   1.352  -0.348  0.2484  0.7085  0.6644
    6MOL0     O  706   5.531   1.367  -0.222 -0.0475 -1.2629  0.3055
    6MOL0     C  707   5.403   1.336  -0.198  0.9068  0.1883  0.2572
    6MOL0     C  708   5.381   1.296  -0.062 -0.5744  0.5241  0.7543
    6MOL0     C  709   5.260   1.268  -0.006 -0.2251 -0.5848  0.2166
    6MOL0     C  710   5.143   1.285  -0.086  0.3491 -1.1059 -0.2643
    6MOL0     O  711   5.012   1.261  -0.053  0.8794 -1.3050 -0.1632
    6MOL0     C  712   4.975   1.158   0.041  0.2265  0.0043  0.4925
    6MOL0     C  713   4.829   1.179   0.081 -1.1505  0.1651  0.7337
    6MOL0     C  714   4.789   1.084   0.187  0.5855  0.4103  0.1514
    6MOL0     C  715   4.734   0.954   0.127  0.0731 -0.2053 -0.1583
    6MOL0     C  716   4.695   0.849   0.225  0.1592  0.6380 -0.8786
    6MOL0     C  717   4.628   0.725   0.164 -0.6070  1.0122 -0.0910
    6MOL0     C  718   4.559   0.633   0.271 -0.5565 -0.0313 -0.1267
    6MOL0     C  719   4.498   0.519   0.194 -0.0002  0.9180 -0.9294
    6MOL0    Cl  720   4.396   0.422   0.312 -0.4002  0.3839  0.2353
    6MOL0     C  721   5.160   1.335  -0.214  0.2427 -0.0748  0.4184
    6MOL0     C  722   5.283   1.363  -0.276  0.6139  0.3739 -0.0057
    6MOL0     O  723   5.532   1.255  -0.424  1.2757  0.0968 -1.0616
    6MOL0     C  724   5.773   1.477  -0.292 -0.2207 -0.8433  0.0847
    6MOL0     C  725   5.879   1.559  -0.323  0.8171 -0.1494 -0.1170
    6MOL0     N  726   6.417   2.060  -0.585  0.5249  0.4241 -0.2557
    6MOL0     N  727   6.437   2.187  -0.536  0.9271 -1.2405 -0.2856
    6MOL0     C  728   6.846   2.911   0.401 -0.4331 -0.6252  0.4909
    6MOL0     C  729   6.830   2.930   0.530 -0.2248 -0.2952 -0.6439
    6MOL0     C  730   6.748   2.819   0.980  0.1099 -1.1259  0.3181
    6MOL0     C  731   6.817   2.935   1.030 -0.9661  0.8945 -0.1123
    6MOL0     C  732   6.824   2.958   1.175 -0.3290 -0.6383  0.0881
    6MOL0     C  733   6.775   2.868   1.262 -0.3649  0.4836 -0.2339
    6MOL0     O  734   6.784   2.906   1.388 -0.3519  0.0368  0.1016
    6MOL0     C  735   6.713   2.844   1.494  1.0369 -0.2129 -0.2322
    6MOL0     C  736   6.603   2.946   1.509 -0.3537 -0.4485  0.1689
    6MOL0     C  737   6.648   3.071   1.590  0.0349 -0.0393 -0.4849
    6MOL0     C  738   6.558   3.186   1.612  0.4794 -0.3974 -0.2676
    6MOL0     C  739   6.499   3.233   1.489 -0.2914 -0.1105  0.6830
    6MOL0     C  740   6.446   3.275   1.384  0.4411 -0.1225  0.8823
    6MOL0     C  741   6.696   2.762   1.211  0.2785  0.1105  0.6219
    6MOL0     C  742   6.684   2.736   1.076  0.3041 -0.6747 -0.8746
    6MOL0     H  743   6.824   2.610   0.628 -2.3153 -0.1388  0.0526
    6MOL0     H  744   6.856   2.581   0.401  1.0084 -0.7067  2.4235
    6MOL0     H  745   6.863   2.952   0.146  2.2320 -0.2749  0.5700
    6MOL0     H  746   6.938   2.829   0.042  0.2898  0.0677 -0.1108
    6MOL0     H  747   6.631   2.849   0.084 -1.6682  2.1810 -2.2275
    6MOL0     H  748   6.715   2.896  -0.048 -3.5239  1.3499  1.1963
    6MOL0     H  749   6.802   2.686  -0.106 -1.3914  1.8725  0.2461
    6MOL0     H  750   6.755   2.608   0.049 -1.3715 -1.2160 -1.2898
    6MOL0     H  751   6.526   2.652   0.027 -2.5271 -2.6524 -0.1912
    6MOL0     H  752   6.562   2.721  -0.137  2.0085 -0.0900 -0.6410
    6MOL0     H  753   6.644   2.434  -0.074 -1.7868 -3.7454 -2.0924
    6MOL0     H  754   6.486   2.470  -0.133  0.4878 -0.0623  0.1596
    6MOL0     H  755   6.587   2.577  -0.325 -0.8798 -0.0681  1.5266
    6MOL0     H  756   6.751   2.549  -0.272  1.4407 -1.3180 -2.9847
    6MOL0     H  757   6.669   2.392  -0.441 -1.3763 -1.6707 -0.2106
    6MOL0     H  758   6.738   2.314  -0.299  0.2186  3.4353  2.0849
    6MOL0     H  759   6.441   2.364  -0.307  2.8678  1.9601 -0.9300
    6MOL0     H  760   6.517   2.251  -0.206 -2.5861  0.5329  0.3853
    6MOL0     H  761   6.562   2.031  -0.293 -1.6946  3.2285  2.8470
    6MOL0     H  762   6.456   1.800  -0.608  0.6460  0.5694 -1.7103
    6MOL0     H  763   6.578   1.798  -0.476 -1.5581 -0.7015  2.6881
    6MOL0     H  764   6.342   1.832  -0.329  0.8881  0.9368 -1.1491
    6MOL0     H  765   6.403   1.669  -0.370  0.4591 -0.8918 -0.7264
    6MOL0     H  766   6.265   1.693  -0.590 -0.6933 -2.1238  0.6567
    6MOL0     H  767   6.201   1.841  -0.522  1.6119  0.1169  1.6184
    6MOL0     H  768   6.124   1.684  -0.310  0.4675  0.3701  0.9084
    6MOL0     H  769   6.189   1.553  -0.402 -0.4838 -0.0895  0.9899
    6MOL0     H  770   5.883   1.544  -0.664 -0.7496  0.6589 -0.2245
    6MOL0     H  771   5.660   1.446  -0.734 -2.9705 -1.2648  0.3169
    6MOL0     H  772   5.725   1.280  -0.670  0.3557  0.3289  0.3816
    6MOL0     H  773   5.562   1.350  -0.640 -0.5582 -0.5412 -0.5242
    6MOL0     H  774   5.472   1.294  -0.003  0.1493  4.4960  0.0623
    6MOL0     H  775   5.257   1.235   0.098  2.1614  1.4932  1.0419
    6MOL0     H  776   4.991   1.065  -0.014 -0.0617  0.3177 -0.1284
    6MOL0     H  777   5.044   1.157   0.126  0.6724  0.0697  0.1339
    6MOL0     H  778   4.832   1.274   0.135  0.7990 -1.9195  4.7168
    6MOL0     H  779   4.761   1.177  -0.004 -1.4086  0.3456  0.9333
    6MOL0     H  780   4.710   1.138   0.240  0.9097  0.5338  0.5066
    6MOL0     H  781   4.870   1.067   0.259  0.3029  1.0338  0.6303
    6MOL0     H  782   4.638   0.976   0.079 -0.6475  2.0045  2.0808
    6MOL0     H  783   4.799   0.902   0.056  2.7335  0.6538  1.4879
    6MOL0     H  784   4.629   0.897   0.298  0.7764  2.0463 -1.2047
    6MOL0     H  785   4.782   0.821   0.285 -1.6408 -0.2191  1.4859
    6MOL0     H  786   4.551   0.755   0.093 -0.6069  1.3461  0.0446
    6MOL0     H  787   4.704   0.680   0.100 -1.3498 -0.9366  0.3431
    6MOL0     H  788   4.473   0.676   0.322 -1.7026  2.2486 -3.6728
    6MOL0     H  789   4.642   0.586   0.325  2.3882 -0.0514 -4.2078
    6MOL0     H  790   4.576   0.451   0.158 -2.1619 -1.8521 -0.7223
    6MOL0     H  791   4.434   0.564   0.117  0.8200  3.1231 -0.3989
    6MOL0     H  792   5.070   1.367  -0.264 -0.3952 -1.1914  0.8016
    6MOL0     H  793   5.287   1.408  -0.375  0.0166 -1.3638 -0.8576
    6MOL0     H  794   5.734   1.466  -0.191  3.6801 -1.7568  1.6890
    6MOL0     H  795   5.939   1.601  -0.243 -1.8816  0.1666  1.8871
    6MOL0     H  796   6.852   3.004   0.345  2.0095 -1.1174 -0.2009
    6MOL0     H  797   6.830   3.033   0.563 -0.9666 -0.4673 -0.0972
    6MOL0     H  798   6.868   3.003   0.962 -2.5502  1.2004 -1.0410
    6MOL0     H  799   6.867   3.049   1.217 -0.5561  0.5446 -2.1079
    6MOL0     H  800   6.670   2.744   1.487 -1.3232  0.6784  0.5997
    6MOL0     H  801   6.769   2.842   1.588 -0.9226 -1.4683  0.9671
    6MOL0     H  802   6.519   2.882   1.538  0.3515 -1.5242 -0.1006
    6MOL0     H  803   6.576   2.995   1.415  2.8672 -0.6306 -0.9546
    6MOL0     H  804   6.741   3.116   1.554  0.8615 -1.0673  0.3039
    6MOL0     H  805   6.666   3.032   1.691  1.4416  0.4297 -0.5357
    6MOL0     H  806   6.606   3.272   1.660 -1.7810  1.8247 -1.7585
    6MOL0     H  807   6.481   3.164   1.687  1.2625  2.8274  1.6804
    6MOL0     H  808   6.411   3.308   1.288  1.3617 -1.0294  0.2174
    6MOL0     H  809   6.640   2.696   1.278  1.2739  0.6608  2.0418
    6MOL0     H  810   6.629   2.656   1.027 -0.2277  0.0058 -1.4228
    7MOL0     O  811   3.108  10.546   8.166  1.1336  0.1624 -0.1232
    7MOL0     C  812   3.067  10.663   8.136 -0.0038  0.3017  0.2394
    7MOL0     O  813   3.009  10.697   8.018  0.0227  0.3060 -0.1644
    7MOL0     C  814   2.988  10.604   7.923  0.6126 -1.1629 -0.1624
    7MOL0     C  815   3.096  10.556   7.842  0.0547 -0.4737  0.3399
    7MOL0     C  816   3.068  10.486   7.719 -0.0544  0.2468  0.2080
    7MOL0     C  817   2.939  10.453   7.685  0.0714  0.3433 -0.5545
    7MOL0     O  818   2.922  10.392   7.566  0.1649 -0.8160 -0.3454
    7MOL0     C  819   2.968  10.258   7.557 -0.0689  0.0661 -0.6728
    7MOL0     C  820   2.854  10.195   7.480 -1.0058 -0.3641  0.2396
    7MOL0     C  821   2.715  10.217   7.545  0.1096  1.2066  1.1899
    7MOL0     C  822   2.615  10.112   7.488 -0.4394 -0.4697  0.0646
    7MOL0     C  823   2.541  10.170   7.362  0.2602  1.2382  0.7518
    7MOL0     C  824   2.596  10.114   7.229 -0.0022 -0.1469  0.5506
    7MOL0     C  825   2.510  10.165   7.113 -0.5727 -1.3631 -0.4102
    7MOL0     C  826   2.366  10.112   7.104  0.3198 -0.3684 -0.3979
    7MOL0     N  827   2.276  10.203   7.021 -1.1816  0.2035  0.2793
    7MOL0     C  828   2.225  10.328   7.057  0.0107  0.0626 -0.3206
    7MOL0     C  829   2.150  10.365   6.950 -0.2313 -0.6937  0.2808
    7MOL0     C  830   2.087  10.494   6.954  0.7705 -0.1206 -1.3215
    7MOL0     C  831   2.185  10.608   6.949 -0.2057  0.1221 -0.3299
    7MOL0     C  832   2.116  10.750   6.986  0.1423  0.2762 -0.1121
    7MOL0     C  833   1.976  10.774   6.924 -0.0789  0.3917 -0.5542
    7MOL0     O  834   1.975  10.752   6.784  0.0035  0.2092  0.2883
    7MOL0     C  835   1.856  10.763   6.714  1.0399 -0.9772 -0.3271
    7MOL0     C  836   1.751  10.856   6.755  0.1869 -0.1829  0.2368
    7MOL0     C  837   1.628  10.884   6.677 -0.7148  1.4241  0.8368
    7MOL0     C  838   1.514  10.965   6.741 -0.0310 -0.4981  0.7040
    7MOL0     C  839   1.613  10.807   6.555 -0.7159  0.1397 -0.0916
    7MOL0     C  840   1.496  10.804   6.460  0.2978  0.1160  0.4236
    7MOL0     O  841   1.528  10.774   6.332  0.7205  0.9278 -0.0659
    7MOL0     C  842   1.433  10.702   6.255  0.2821 -1.4903 -0.3034
    7MOL0     C  843   1.352  10.764   6.161 -0.0072  0.6997 -0.5323
    7MOL0     C  844   1.244  10.690   6.106  0.6978 -0.3760 -0.3191
    7MOL0     C  845   1.244  10.555   6.128  0.0974 -0.1398 -0.0150
    7MOL0     O  846   1.159  10.469   6.069 -0.3025  0.1605 -0.1737
    7MOL0     C  847   1.114  10.503   5.946 -0.0965 -0.0871  0.2991
    7MOL0     C  848   1.045  10.387   5.880 -0.3962 -0.9382 -0.2735
    7MOL0     C  849   1.131  10.260   5.852 -0.5775 -0.3124 -1.1810
    7MOL0     C  850   1.143  10.176   5.972  0.3413 -0.0923 -0.0887
    7MOL0     C  851   1.238  10.064   5.952  0.7688  0.2209  0.3337
    7MOL0     C  852   1.173   9.957   5.869  0.0272 -0.3666  0.0951
    7MOL0     C  853   1.272   9.840   5.860  0.7677 -0.1869 -0.0511
    7MOL0     C  854   1.397   9.866   5.781  0.7684  0.2812 -0.1655
    7MOL0    Cl  855   1.499   9.715   5.758 -0.1447 -0.0386 -0.4674
    7MOL0     C  856   1.318  10.492   6.232  0.0467 -0.1346 -0.6530
    7MOL0     C  857   1.404  10.575   6.300 -0.1113 -0.3811 -0.2330
    7MOL0     O  858   1.388  10.830   6.503  0.9042 -0.5815 -0.0303
    7MOL0     C  859   1.715  10.712   6.526 -0.7207 -0.6887  0.7065
    7MOL0     C  860   1.838  10.689   6.602  0.6088  0.9027  0.6764
    7MOL0     N  861   2.179  10.265   6.857 -0.4586  0.1821 -0.0604
    7MOL0     N  862   2.253  10.177   6.894  0.0062 -0.6319 -0.2871
    7MOL0     C  863   2.833  10.481   7.774  0.5357 -0.4113  0.3430
    7MOL0     C  864   2.853  10.555   7.889  0.5464 -0.4413  0.6773
    7MOL0     C  865   3.090  10.762   8.242 -0.5393  0.0876  0.7148
    7MOL0     C  866   3.147  10.734   8.361  0.2386 -0.1527 -0.6057
    7MOL0     C  867   3.153  10.836   8.469 -0.1836  0.6470  0.4685
    7MOL0     C  868   3.098  10.962   8.452  0.2023 -1.2786 -0.3624
    7MOL0     O  869   3.122  11.064   8.541 -0.7094 -0.2129 -0.1074
    7MOL0     C  870   3.224  11.054   8.639  0.1502 -0.2407  0.0116
    7MOL0     C  871   3.154  11.031   8.769  0.9179 -0.6905 -0.2620
    7MOL0     C  872   3.237  11.019   8.885 -0.3940  0.5882  0.0113
    7MOL0     C  873   3.315  10.886   8.894  0.3003 -0.1960  0.6095
    7MOL0     C  874   3.232  10.769   8.916  1.6917  0.4267 -1.4008
    7MOL0     C  875   3.150  10.681   8.929 -0.3884  0.8954  1.0913
    7MOL0     C  876   3.026  10.983   8.332 -0.1896 -0.1111  0.0391
    7MOL0     C  877   3.031  10.889   8.229 -0.5467 -0.9585 -0.1067
    7MOL0     H  878   3.196  10.598   7.855  0.9808 -1.3709 -2.9666
    7MOL0     H  879   3.160  10.459   7.668  0.2548  0.2505  0.7510
    7MOL0     H  880   3.060  10.255   7.497  0.2629  1.6140 -0.3070
    7MOL0     H  881   2.977  10.220   7.659 -1.0075  1.2925 -0.0994
    7MOL0     H  882   2.862  10.248   7.385  3.3424  0.9702  1.1298
    7MOL0     H  883   2.885  10.092   7.464 -2.0895 -0.6411 -0.1330
    7MOL0     H  884   2.734  10.208   7.652  3.8112 -4.3975  0.4857
    7MOL0     H  885   2.685  10.321   7.527  1.3149  1.7254  2.0391
    7MOL0     H  886   2.657  10.011   7.477 -1.0345 -0.6420 -0.7095
    7MOL0     H  887   2.541  10.093   7.567 -2.2025 -0.6444 -1.5601
    7MOL0     H  888   2.436  10.142   7.374  0.0943  1.9644  0.9874
    7MOL0     H  889   2.542  10.279   7.364  1.4389  1.2757 -0.3835
    7MOL0     H  890   2.699  10.139   7.205 -0.0301 -1.9250 -1.9565
    7MOL0     H  891   2.581  10.005   7.228 -1.7361  0.0501 -0.6990
    7MOL0     H  892   2.512  10.274   7.113  0.4255 -1.3669 -1.5375
    7MOL0     H  893   2.559  10.149   7.017  1.7674  2.0604  0.0727
    7MOL0     H  894   2.319  10.110   7.203 -2.5861  0.8784 -1.6431
    7MOL0     H  895   2.351  10.009   7.069 -5.4338  0.0652 -0.1134
    7MOL0     H  896   2.245  10.373   7.154  1.8969 -1.4656  0.0646
    7MOL0     H  897   2.022  10.487   6.866  0.2420  1.6108 -1.1184
    7MOL0     H  898   2.019  10.493   7.040  0.3376 -1.4750 -1.6536
    7MOL0     H  899   2.229  10.619   6.850 -1.9137  2.1255 -0.9406
    7MOL0     H  900   2.269  10.594   7.018 -1.5601 -0.3603  1.3144
    7MOL0     H  901   2.193  10.827   6.976 -1.8446  2.7805  2.2059
    7MOL0     H  902   2.093  10.747   7.093 -4.5025 -1.5207 -0.8966
    7MOL0     H  903   1.934  10.866   6.964 -1.4723  0.2513 -1.6056
    7MOL0     H  904   1.912  10.695   6.966 -0.1152  1.0993  0.7636
    7MOL0     H  905   1.758  10.916   6.845 -0.3508  0.6889 -0.2830
    7MOL0     H  906   1.546  11.007   6.836  0.7514 -1.1269  0.7365
    7MOL0     H  907   1.487  11.035   6.661 -0.3468 -2.2107 -0.7536
    7MOL0     H  908   1.428  10.899   6.757 -1.9594  0.4770 -3.9022
    7MOL0     H  909   1.355  10.873   6.161 -0.9557  0.7610  0.8114
    7MOL0     H  910   1.172  10.739   6.042  1.6803  4.0042  1.5629
    7MOL0     H  911   1.042  10.585   5.951 -3.4315 -2.3902 -3.5264
    7MOL0     H  912   1.193  10.544   5.883  1.3565 -0.1199  2.0046
    7MOL0     H  913   0.963  10.358   5.946  1.3664  0.4713  2.7357
    7MOL0     H  914   0.995  10.408   5.785 -1.6885  1.0666  0.7809
    7MOL0     H  915   1.228  10.294   5.814 -0.6881  1.5136  0.0444
    7MOL0     H  916   1.072  10.208   5.776 -1.7437 -0.7084 -0.0465
    7MOL0     H  917   1.188  10.228   6.057 -0.6989 -0.7688  0.8907
    7MOL0     H  918   1.041  10.143   5.994  0.3606 -0.4042 -0.4469
    7MOL0     H  919   1.262  10.026   6.052 -0.9100 -0.3261  0.5665
    7MOL0     H  920   1.335  10.092   5.910  1.5469 -1.2175  1.1130
    7MOL0     H  921   1.081   9.929   5.921  1.8322 -4.6008  1.4430
    7MOL0     H  922   1.148  10.001   5.772 -1.0901  0.7597  0.8615
    7MOL0     H  923   1.227   9.745   5.830  0.1510 -0.7699  2.4664
    7MOL0     H  924   1.317   9.823   5.959  0.0917 -2.8002 -0.1230
    7MOL0     H  925   1.461   9.936   5.836 -1.8528  2.2513  0.5865
    7MOL0     H  926   1.366   9.911   5.686  1.4008 -0.0470 -0.5398
    7MOL0     H  927   1.308  10.386   6.250  1.9597 -0.1031  0.8764
    7MOL0     H  928   1.466  10.541   6.383 -0.3816 -1.0894 -0.3175
    7MOL0     H  929   1.709  10.655   6.433 -0.6746 -0.5080  0.5925
    7MOL0     H  930   1.913  10.623   6.559  3.2566  3.2254  1.4890
    7MOL0     H  931   2.730  10.461   7.745 -0.2941  0.3058  2.5806
    7MOL0     H  932   2.771  10.578   7.956 -1.2628 -0.2168 -1.4937
    7MOL0     H  933   3.168  10.630   8.382  0.0935 -0.5118 -2.1164
    7MOL0     H  934   3.218  10.815   8.553  0.5452 -2.7184 -0.7592
    7MOL0     H  935   3.306  10.984   8.623 -0.8635 -1.3420 -0.5381
    7MOL0     H  936   3.266  11.155   8.651 -0.5777  0.0857 -0.0892
    7MOL0     H  937   3.085  10.947   8.756 -1.9009  1.1078  1.8547
    7MOL0     H  938   3.100  11.121   8.799  4.2026  0.3775  3.2890
    7MOL0     H  939   3.164  11.029   8.966 -0.2272 -1.9589  0.5702
    7MOL0     H  940   3.304  11.106   8.889  1.2505 -0.5485 -1.2791
    7MOL0     H  941   3.378  10.877   8.983  1.7802 -2.5579 -0.5572
    7MOL0     H  942   3.377  10.875   8.804  0.2332  3.3382  0.0052
    7MOL0     H  943   3.087  10.594   8.934  0.7902 -0.0558 -0.0106
    7MOL0     H  944   2.967  11.072   8.312  0.0690 -0.1357 -0.8606
    7MOL0     H  945   2.986  10.920   8.135 -0.3442  0.9852  0.3885
    8MOL0     O  946  10.481  10.691  11.278 -0.3530  0.1581 -0.4088
    8MOL0     C  947  10.418  10.784  11.317 -0.1549  0.2248  0.0004
    8MOL0     O  948  10.390  10.808  11.449 -0.1033 -0.1660 -0.2503
    8MOL0     C  949  10.439  10.724  11.546 -0.4667 -0.9867 -0.5528
    8MOL0     C  950  10.517  10.772  11.643 -0.0374  0.5208  0.0902
    8MOL0     C  951  10.585  10.702  11.738 -0.4793  0.1324  0.4501
    8MOL0     C  952  10.557  10.568  11.746  0.1148  0.5351  0.0130
    8MOL0     O  953  10.582  10.491  11.854 -0.1253 -0.3720  0.4189
    8MOL0     C  954  10.712  10.478  11.899  0.3549  0.3003 -0.6785
    8MOL0     C  955  10.725  10.553  12.035 -0.3071  0.9904  0.3197
    8MOL0     C  956  10.633  10.482  12.146 -0.7824 -0.4842 -0.2387
    8MOL0     C  957  10.678  10.344  12.192 -0.0535  0.1841 -0.5637
    8MOL0     C  958  10.589  10.300  12.313  0.1671 -0.5501  0.6638
    8MOL0     C  959  10.642  10.171  12.373 -0.5893  0.0166  0.4062
    8MOL0     C  960  10.521  10.072  12.397  1.1308  0.4762 -0.0345
    8MOL0     C  961  10.437  10.108  12.523 -0.4641 -0.4459  0.4586
    8MOL0     N  962  10.347   9.996  12.571  0.2513  1.0146  0.2401
    8MOL0     C  963  10.248   9.939  12.496 -0.6300 -0.5902  0.5140
    8MOL0     C  964  10.199   9.840  12.565  0.0109 -0.2010 -0.1075
    8MOL0     C  965  10.092   9.739  12.514  0.1163 -0.6318 -0.0552
    8MOL0     C  966   9.954   9.774  12.581 -0.0273  0.9141 -0.3685
    8MOL0     C  967   9.836   9.692  12.537  0.6310 -0.2035  0.0058
    8MOL0     C  968   9.817   9.678  12.379  0.4084 -0.6517  0.3804
    8MOL0     O  969   9.828   9.803  12.311 -0.5219  0.1535  0.4240
    8MOL0     C  970   9.746   9.911  12.329 -0.9846  0.5771  0.1738
    8MOL0     C  971   9.620   9.909  12.396  0.5422  0.6595 -0.9857
    8MOL0     C  972   9.528  10.014  12.377 -0.2922 -0.4881  0.1493
    8MOL0     C  973   9.381   9.995  12.432 -1.0459  1.8598 -0.6922
    8MOL0     C  974   9.568  10.126  12.305 -0.2975  0.2130  0.8624
    8MOL0     C  975   9.482  10.245  12.282  1.0251 -0.3688  1.0581
    8MOL0     O  976   9.555  10.360  12.259  0.3369  0.0235 -0.5303
    8MOL0     C  977   9.504  10.492  12.234  0.3112  0.1915  0.1451
    8MOL0     C  978   9.370  10.543  12.210 -0.3488  0.3193  0.7758
    8MOL0     C  979   9.338  10.680  12.189  0.0696 -0.8754 -0.6380
    8MOL0     C  980   9.447  10.766  12.186 -1.1157 -0.9155  1.0846
    8MOL0     O  981   9.440  10.897  12.149  0.5745  0.5591  0.6376
    8MOL0     C  982   9.364  10.911  12.027 -0.8545  0.8772  0.9081
    8MOL0     C  983   9.436  10.845  11.908  0.1378 -0.1662 -1.1675
    8MOL0     C  984   9.568  10.930  11.893 -0.7545  0.3710  0.9294
    8MOL0     C  985   9.650  10.852  11.789 -0.3014  0.9768  0.4464
    8MOL0     C  986   9.726  10.723  11.843  0.3948 -0.8470 -0.5017
    8MOL0     C  987   9.751  10.636  11.729  1.0432  0.5676  0.1955
    8MOL0     C  988   9.847  10.510  11.757  0.8350  0.5463 -0.3385
    8MOL0     C  989   9.827  10.440  11.892  0.0014 -0.1466 -0.5893
    8MOL0    Cl  990   9.668  10.371  11.915  0.3040  0.1283 -0.2162
    8MOL0     C  991   9.582  10.728  12.204  0.6396  0.5715 -0.1282
    8MOL0     C  992   9.606  10.588  12.233  1.2402 -0.8100 -0.0926
    8MOL0     O  993   9.361  10.237  12.282  0.3989 -0.9348 -0.5053
    8MOL0     C  994   9.695  10.128  12.241  0.0393 -0.3727  0.0876
    8MOL0     C  995   9.783  10.026  12.263  0.6725  0.3944 -0.2752
    8MOL0     N  996  10.269   9.836  12.683 -0.4263 -0.4323  0.5946
    8MOL0     N  997  10.356   9.924  12.683 -0.4741 -0.3303 -0.1150
    8MOL0     C  998  10.457  10.520  11.659  0.4879  0.5376 -0.9406
    8MOL0     C  999  10.401  10.594  11.557  0.6431  0.1073 -0.9076
    8MOL0     C 1000  10.340  10.845  11.210  0.4086 -0.7561  0.1740
    8MOL0     C 1001  10.249  10.942  11.254 -0.2272  0.1132 -0.7923
    8MOL0     C 1002  10.157  11.008  11.161 -0.7658  1.5362  0.1114
    8MOL0     C 1003  10.155  10.961  11.024 -0.0681  0.5850 -0.7490
    8MOL0     O 1004  10.072  10.997  10.928  0.4947  0.2928 -0.3497
    8MOL0     C 1005  10.002  11.118  10.920 -0.2530  1.2311  0.7052
    8MOL0     C 1006  10.023  11.190  10.791 -0.0288 -0.1997  1.0052
    8MOL0     C 1007  10.000  11.100  10.669  1.0783  0.2054 -0.3991
    8MOL0     C 1008  10.116  11.008  10.614 -0.8520 -1.0639 -0.2363
    8MOL0     C 1009  10.239  11.091  10.589  0.2023 -0.2172  0.5866
    8MOL0     C 1010  10.316  11.181  10.552  0.2655  0.1672  0.1136
    8MOL0     C 1011  10.252  10.858  10.980 -0.0145 -0.2480 -0.8449
    8MOL0     C 1012  10.332  10.803  11.076  0.7012 -0.0491  0.0292
    8MOL0     H 1013  10.535  10.879  11.644 -1.6008  0.8104  0.2933
    8MOL0     H 1014  10.650  10.757  11.805  1.8689  1.4673 -2.6965
    8MOL0     H 1015  10.741  10.373  11.890  0.9936  0.5168 -1.1817
    8MOL0     H 1016  10.782  10.526  11.830 -1.7212  1.6266 -1.9948
    8MOL0     H 1017  10.831  10.546  12.063  0.3665  1.2801 -1.9664
    8MOL0     H 1018  10.700  10.659  12.030  0.0833  1.4558  4.5691
    8MOL0     H 1019  10.639  10.546  12.235 -3.2023 -0.9442  0.3137
    8MOL0     H 1020  10.526  10.489  12.125 -1.4970 -1.9417  2.4658
    8MOL0     H 1021  10.669  10.269  12.113  0.8658 -1.0007  0.4210
    8MOL0     H 1022  10.779  10.336  12.232 -1.3358 -0.3361  2.8951
    8MOL0     H 1023  10.605  10.370  12.395 -0.5544  1.6653 -1.0016
    8MOL0     H 1024  10.483  10.288  12.290  0.2739  1.1819 -0.9130
    8MOL0     H 1025  10.710  10.125  12.301 -2.5098 -5.2932  1.5483
    8MOL0     H 1026  10.699  10.196  12.464 -2.0229  2.5587  0.7048
    8MOL0     H 1027  10.450  10.060  12.314 -0.6705  1.9066  1.2233
    8MOL0     H 1028  10.560   9.970  12.409 -1.5310 -0.4717  1.1677
    8MOL0     H 1029  10.383  10.202  12.512  0.4705  0.4614  3.1162
    8MOL0     H 1030  10.501  10.119  12.611 -0.7871 -1.0351  0.7751
    8MOL0     H 1031  10.219   9.974  12.397  0.6960  0.4690  0.4795
    8MOL0     H 1032  10.083   9.751  12.406  1.5438  0.6160 -0.0614
    8MOL0     H 1033  10.123   9.636  12.532  3.4054 -0.1672 -2.2091
    8MOL0     H 1034   9.928   9.880  12.571 -1.0308  0.5844 -1.3812
    8MOL0     H 1035   9.972   9.740  12.684 -0.4546  1.5581 -0.0747
    8MOL0     H 1036   9.752   9.728  12.597  0.1550 -2.5008  0.7939
    8MOL0     H 1037   9.865   9.593  12.572  0.8392 -0.4865 -0.9402
    8MOL0     H 1038   9.713   9.647  12.362  0.1713  1.0045 -1.5739
    8MOL0     H 1039   9.878   9.601  12.331 -1.9258 -1.0297 -2.2134
    8MOL0     H 1040   9.591   9.819  12.450  0.3169  0.5816 -1.2364
    8MOL0     H 1041   9.314  10.002  12.346 -1.2939 -0.6851 -0.7842
    8MOL0     H 1042   9.364   9.895  12.475 -0.1657  1.2600 -1.6850
    8MOL0     H 1043   9.381  10.074  12.508  2.1434 -0.1610  1.7331
    8MOL0     H 1044   9.278  10.486  12.220 -0.4309  0.1211 -0.8473
    8MOL0     H 1045   9.238  10.716  12.170 -0.6563 -1.5753  1.5109
    8MOL0     H 1046   9.263  10.872  12.042 -0.3242 -0.4627  1.1815
    8MOL0     H 1047   9.359  11.018  12.007  0.2838  0.5113 -1.7300
    8MOL0     H 1048   9.462  10.741  11.929  0.8511 -0.0070 -1.2443
    8MOL0     H 1049   9.376  10.846  11.817  4.7325  0.6037 -4.5715
    8MOL0     H 1050   9.623  10.929  11.988  1.9982  0.2675 -0.5470
    8MOL0     H 1051   9.556  11.034  11.861 -1.2083  0.6660  1.9947
    8MOL0     H 1052   9.586  10.828  11.703  2.8136 -2.4241 -1.1972
    8MOL0     H 1053   9.731  10.911  11.745 -0.1853 -1.1648 -2.5326
    8MOL0     H 1054   9.666  10.673  11.921  0.3749 -0.4097 -0.2335
    8MOL0     H 1055   9.815  10.760  11.895 -0.2789 -2.2422  1.8192
    8MOL0     H 1056   9.654  10.602  11.691  2.6286 -0.0936 -3.6853
    8MOL0     H 1057   9.780  10.685  11.636  0.0405  0.2539 -0.2967
    8MOL0     H 1058   9.952  10.536  11.741  0.5131  0.2262 -3.8573
    8MOL0     H 1059   9.826  10.440  11.675 -3.1713  2.1140 -0.8821
    8MOL0     H 1060   9.845  10.507  11.977  2.0774 -1.6931  0.2603
    8MOL0     H 1061   9.896  10.356  11.900 -0.0297 -0.0393  1.2968
    8MOL0     H 1062   9.663  10.800  12.209 -0.0040  1.3607 -0.6409
    8MOL0     H 1063   9.709  10.575  12.264  0.8792  0.1086  1.6191
    8MOL0     H 1064   9.733  10.205  12.176  3.7920 -1.9216  0.2006
    8MOL0     H 1065   9.873  10.024  12.202  1.9377 -3.0452  1.4591
    8MOL0     H 1066  10.412  10.421  11.667 -0.4186  1.0715  3.4638
    8MOL0     H 1067  10.319  10.565  11.492 -1.6594  0.8695  1.4537
    8MOL0     H 1068  10.244  10.977  11.356  0.7662  0.8380 -0.9678
    8MOL0     H 1069  10.080  11.078  11.193 -1.7658 -0.8172  3.4167
    8MOL0     H 1070   9.899  11.083  10.926  0.5676 -1.5865 -0.2653
    8MOL0     H 1071  10.032  11.189  10.998  0.4585  1.4107  0.2751
    8MOL0     H 1072  10.123  11.234  10.787 -0.4930  0.8509 -2.5296
    8MOL0     H 1073   9.949  11.269  10.775  0.3464 -0.4557 -3.2187
    8MOL0     H 1074   9.961  11.163  10.589 -0.0559 -0.9137 -0.7585
    8MOL0     H 1075   9.919  11.033  10.699 -0.3794  2.3829  0.8649
    8MOL0     H 1076  10.070  10.967  10.523 -3.4318 -2.4049  1.5471
    8MOL0     H 1077  10.139  10.929  10.686 -3.0287 -0.8622  0.7500
    8MOL0     H 1078  10.381  11.263  10.530  0.1336  1.3027  3.3461
    8MOL0     H 1079  10.264  10.820  10.879  0.5766 -1.1016 -0.4642
    8MOL0     H 1080  10.398  10.720  11.053  0.2055 -0.4237 -0.0465
    9MOL0     O 1081   2.484   4.623   1.764  0.2907 -0.2758 -0.1062
    9MOL0     C 1082   2.429   4.577   1.669 -0.0344  0.4100  0.2483
    9MOL0     O 1083   2.484   4.568   1.549  0.3542 -0.7516  0.0061
    9MOL0     C 1084   2.612   4.590   1.519 -0.9671 -0.0825 -0.4882
    9MOL0     C 1085   2.688   4.493   1.455 -0.0664 -0.1170 -0.4683
    9MOL0     C 1086   2.816   4.522   1.411  0.1434  0.1447  0.7747
    9MOL0     C 1087   2.887   4.645   1.442 -0.7947 -0.2183 -0.3156
    9MOL0     O 1088   3.024   4.653   1.422 -0.1983  0.1901 -0.4846
    9MOL0     C 1089   3.110   4.726   1.515  0.5391  0.2852  0.0745
    9MOL0     C 1090   3.239   4.792   1.458 -0.0925 -0.9134 -0.4649
    9MOL0     C 1091   3.318   4.697   1.359  0.7649  0.1989  0.5281
    9MOL0     C 1092   3.425   4.760   1.275  0.1705 -1.4386 -0.7694
    9MOL0     C 1093   3.497   4.664   1.180 -0.2104  0.2030 -0.8839
    9MOL0     C 1094   3.392   4.626   1.082  0.8841 -0.1758 -0.2271
    9MOL0     C 1095   3.458   4.550   0.965  0.9209  0.5434 -0.0848
    9MOL0     C 1096   3.346   4.487   0.865 -0.2399 -0.1267 -0.7364
    9MOL0     N 1097   3.396   4.450   0.728  0.1049  0.0705 -0.2969
    9MOL0     C 1098   3.413   4.545   0.628 -0.0442 -0.3119  0.0608
    9MOL0     C 1099   3.448   4.471   0.526 -0.0597 -1.4623 -0.0434
    9MOL0     C 1100   3.495   4.540   0.400 -0.4304 -0.2571  0.1734
    9MOL0     C 1101   3.632   4.496   0.351 -0.2084  1.6926 -0.3113
    9MOL0     C 1102   3.672   4.572   0.231 -0.6455 -0.9657 -0.8026
    9MOL0     C 1103   3.579   4.562   0.108 -0.4146  0.6173 -0.4947
    9MOL0     O 1104   3.467   4.649   0.108  0.0395 -0.9073  0.7053
    9MOL0     C 1105   3.406   4.699  -0.003 -0.0883  0.4207  0.3541
    9MOL0     C 1106   3.353   4.826   0.002 -0.5574 -0.1261 -0.7965
    9MOL0     C 1107   3.278   4.892  -0.095  0.4519 -0.6043 -0.6680
    9MOL0     C 1108   3.223   5.037  -0.072  0.4435  0.2216  0.4507
    9MOL0     C 1109   3.261   4.832  -0.222  0.1577  0.6207  0.3491
    9MOL0     C 1110   3.187   4.884  -0.348  0.3374  0.7534 -1.7239
    9MOL0     O 1111   3.180   4.780  -0.442 -0.2641  0.0131 -0.2148
    9MOL0     C 1112   3.082   4.801  -0.545  0.6656 -0.4271 -0.1197
    9MOL0     C 1113   2.957   4.747  -0.537  0.4596 -0.5299  0.6937
    9MOL0     C 1114   2.862   4.774  -0.645 -1.2060  0.9915 -0.2318
    9MOL0     C 1115   2.908   4.833  -0.760  0.0019 -1.4550  0.1340
    9MOL0     O 1116   2.835   4.849  -0.871 -0.1148  0.7412  0.2386
    9MOL0     C 1117   2.702   4.788  -0.876  0.3160  1.4020 -1.0145
    9MOL0     C 1118   2.622   4.849  -0.991  0.1031 -0.5412  0.5778
    9MOL0     C 1119   2.584   4.993  -0.981 -0.2527 -0.5588 -0.4131
    9MOL0     C 1120   2.540   5.035  -0.839 -0.6226  0.1076  0.3261
    9MOL0     C 1121   2.400   4.972  -0.803  0.1233  0.1343  0.0825
    9MOL0     C 1122   2.389   4.985  -0.650  1.0359 -0.3656  0.1631
    9MOL0     C 1123   2.244   4.961  -0.595  0.0656  0.4109 -0.0616
    9MOL0     C 1124   2.229   4.816  -0.572 -0.5165 -0.8176 -0.0970
    9MOL0    Cl 1125   2.062   4.800  -0.509 -0.3217 -0.0977 -0.1571
    9MOL0     C 1126   3.037   4.880  -0.765  0.8095  0.3192 -0.0341
    9MOL0     C 1127   3.124   4.871  -0.658 -0.4139 -1.3110 -0.0345
    9MOL0     O 1128   3.171   5.003  -0.363 -0.0380 -0.3202 -0.5922
    9MOL0     C 1129   3.320   4.705  -0.233  0.3206  0.1959 -0.8257
    9MOL0     C 1130   3.390   4.634  -0.125 -0.0532 -0.5909  0.4147
    9MOL0     N 1131   3.429   4.337   0.549 -0.1971  0.1873 -0.4725
    9MOL0     N 1132   3.398   4.323   0.672  0.2986 -0.5134 -0.3066
    9MOL0     C 1133   2.814   4.741   1.510  0.4113 -0.3188 -0.0738
    9MOL0     C 1134   2.674   4.718   1.545  1.4449  0.8321  0.2342
    9MOL0     C 1135   2.311   4.497   1.687  0.2641  1.1247  0.1280
    9MOL0     C 1136   2.272   4.389   1.603 -1.5398  0.6119 -0.1555
    9MOL0     C 1137   2.175   4.300   1.642  0.3700  0.3251  0.4556
    9MOL0     C 1138   2.099   4.315   1.765  0.2306  0.9361  0.1376
    9MOL0     O 1139   2.008   4.219   1.807  0.0752  0.4343 -0.7049
    9MOL0     C 1140   2.072   4.095   1.845  0.3420 -0.1495  0.1686
    9MOL0     C 1141   1.961   3.987   1.810 -0.4788 -1.2780 -0.3829
    9MOL0     C 1142   1.915   3.986   1.672 -0.3062 -0.1196 -0.2824
    9MOL0     C 1143   1.858   3.854   1.628  0.5691  0.7019  0.1000
    9MOL0     C 1144   1.714   3.847   1.645 -0.7172  0.6391 -0.0701
    9MOL0     C 1145   1.594   3.840   1.666  1.6329 -0.3648  1.1500
    9MOL0     C 1146   2.129   4.419   1.853  0.3109  0.3763  0.7103
    9MOL0     C 1147   2.235   4.516   1.807  0.2543  0.2127 -0.1867
    9MOL0     H 1148   2.639   4.403   1.421 -0.2257 -0.4224  0.5312
    9MOL0     H 1149   2.861   4.450   1.343 -2.4087 -0.2708 -0.5934
    9MOL0     H 1150   3.044   4.802   1.559 -0.5493 -1.1780  1.0444
    9MOL0     H 1151   3.139   4.662   1.598 -0.1615 -1.3813 -0.9204
    9MOL0     H 1152   3.202   4.871   1.392  3.3995  1.4183  0.1605
    9MOL0     H 1153   3.300   4.841   1.534 -0.3709 -0.7964 -0.3163
    9MOL0     H 1154   3.355   4.607   1.409 -1.2465  0.1515  2.0447
    9MOL0     H 1155   3.244   4.671   1.282  0.0915 -0.2884  1.3201
    9MOL0     H 1156   3.382   4.841   1.215  2.3048 -1.3689 -2.3444
    9MOL0     H 1157   3.495   4.813   1.341 -4.1936  2.1577  1.5267
    9MOL0     H 1158   3.578   4.699   1.115 -0.9593  2.3075 -0.7849
    9MOL0     H 1159   3.531   4.578   1.238 -0.4353  1.8161  1.8331
    9MOL0     H 1160   3.315   4.566   1.132 -0.5292  1.6041 -0.1734
    9MOL0     H 1161   3.332   4.714   1.057  0.1208  0.2827  2.7714
    9MOL0     H 1162   3.522   4.622   0.913 -1.3366  0.4093 -3.3961
    9MOL0     H 1163   3.506   4.470   1.021 -2.5971 -1.5471  0.2290
    9MOL0     H 1164   3.263   4.556   0.846 -0.1464  0.2822  0.2958
    9MOL0     H 1165   3.320   4.394   0.917 -3.8387  1.9415  1.5742
    9MOL0     H 1166   3.415   4.653   0.640 -1.7134 -0.3351  0.8861
    9MOL0     H 1167   3.417   4.513   0.329  0.8199 -0.8495 -1.0163
    9MOL0     H 1168   3.471   4.646   0.410 -0.7430 -0.4135  1.1882
    9MOL0     H 1169   3.624   4.389   0.329  3.5271  1.1656  0.3252
    9MOL0     H 1170   3.708   4.511   0.427 -1.7485  0.2320  1.6097
    9MOL0     H 1171   3.770   4.549   0.189 -0.5526  1.1822 -1.9351
    9MOL0     H 1172   3.668   4.679   0.252 -2.8763 -0.9864 -0.8832
    9MOL0     H 1173   3.561   4.457   0.084  2.4352 -0.2553  0.8076
    9MOL0     H 1174   3.643   4.601   0.028 -0.5556 -0.8534 -1.3691
    9MOL0     H 1175   3.375   4.871   0.099  1.2606 -1.7094 -0.3981
    9MOL0     H 1176   3.114   5.033  -0.079  0.4646 -1.4764  0.5162
    9MOL0     H 1177   3.256   5.091   0.016 -2.6745  0.9512  1.3022
    9MOL0     H 1178   3.245   5.095  -0.162 -2.2357 -1.2437 -1.2952
    9MOL0     H 1179   2.927   4.712  -0.439  4.6540  2.6205  3.4768
    9MOL0     H 1180   2.765   4.731  -0.627 -0.3347 -0.2693  1.8035
    9MOL0     H 1181   2.718   4.686  -0.911  1.5564  0.5548  1.7472
    9MOL0     H 1182   2.640   4.790  -0.786 -3.0846  1.3630 -3.1791
    9MOL0     H 1183   2.668   4.828  -1.088 -3.9421  0.7536 -1.8719
    9MOL0     H 1184   2.528   4.794  -1.003 -0.7733  1.0297 -0.1129
    9MOL0     H 1185   2.500   5.020  -1.046 -1.8294 -0.7604  1.4442
    9MOL0     H 1186   2.673   5.050  -1.011  0.5497 -0.7579  1.4181
    9MOL0     H 1187   2.624   5.013  -0.772  1.7325 -0.4155 -2.6094
    9MOL0     H 1188   2.531   5.144  -0.838 -0.8521  0.2301 -3.2706
    9MOL0     H 1189   2.390   4.872  -0.846  0.5274  0.8560 -1.7988
    9MOL0     H 1190   2.311   5.023  -0.841 -1.8714 -2.3809  1.1242
    9MOL0     H 1191   2.459   4.929  -0.588 -0.1832  1.0782  3.0414
    9MOL0     H 1192   2.391   5.092  -0.627 -3.2309  0.4336 -2.0201
    9MOL0     H 1193   2.168   5.006  -0.659  1.3808  1.9690 -0.6127
    9MOL0     H 1194   2.257   5.012  -0.500  3.6347 -2.2835  1.1416
    9MOL0     H 1195   2.304   4.776  -0.503  0.8450  0.6445 -0.6697
    9MOL0     H 1196   2.238   4.767  -0.669 -2.6061  1.7019 -1.6962
    9MOL0     H 1197   3.063   4.932  -0.856  0.6970  0.1911 -0.1393
    9MOL0     H 1198   3.220   4.921  -0.656  1.1619 -4.1791  1.0855
    9MOL0     H 1199   3.321   4.648  -0.325  1.8436 -2.2043  0.5855
    9MOL0     H 1200   3.436   4.538  -0.147 -1.6248 -1.1728 -0.4568
    9MOL0     H 1201   2.853   4.838   1.539  2.9904 -1.4426  0.4357
    9MOL0     H 1202   2.617   4.798   1.592 -0.5130 -0.3929  0.0579
    9MOL0     H 1203   2.337   4.368   1.518 -0.0408  1.5960  0.6941
    9MOL0     H 1204   2.159   4.217   1.574 -3.5806  1.4417 -0.2283
    9MOL0     H 1205   2.157   4.077   1.779  0.6737  2.1363 -0.0862
    9MOL0     H 1206   2.081   4.114   1.952 -1.7397  2.7606 -0.0478
    9MOL0     H 1207   1.877   4.005   1.878  0.3975  1.7735  0.0480
    9MOL0     H 1208   2.006   3.890   1.832  1.3538 -0.2966  0.4184
    9MOL0     H 1209   2.004   4.004   1.611  0.4499  0.3195  0.9031
    9MOL0     H 1210   1.842   4.062   1.643 -1.9900 -1.7723 -0.5685
    9MOL0     H 1211   1.917   3.774   1.673 -2.1126 -0.9820  0.8379
    9MOL0     H 1212   1.884   3.841   1.522  0.7161 -1.9749  0.4121
    9MOL0     H 1213   1.487   3.843   1.653  1.7890 -0.8452 -0.4463
    9MOL0     H 1214   2.078   4.427   1.948 -0.6604 -0.1925  0.2440
    9MOL0     H 1215   2.264   4.598   1.871 -2.8322 -2.0286  4.7750
   10MOL0     O 1216   9.223   8.878   0.280  0.2148 -0.1753 -0.8174
   10MOL0     C 1217   9.324   8.918   0.216  0.6382 -0.2195  0.2841
   10MOL0     O 1218   9.443   8.937   0.267 -0.0179  0.2041  0.2213
   10MOL0     C 1219   9.455   8.956   0.404 -0.2643 -0.0847  0.1345
   10MOL0     C 1220   9.469   8.849   0.487  1.0291 -0.0646 -0.0795
   10MOL0     C 1221   9.487   8.877   0.623 -0.1971  1.0782 -0.3520
   10MOL0     C 1222   9.489   9.005   0.675 -1.0277 -0.4001 -0.0373
   10MOL0     O 1223   9.467   9.038   0.807 -0.6592 -0.5005  0.0288
   10MOL0     C 1224   9.548   8.972   0.901  0.3571  0.5729 -0.3218
   10MOL0     C 1225   9.465   8.876   0.998  0.5660  1.5110  0.0539
   10MOL0     C 1226   9.354   8.941   1.096 -0.3300 -0.1291  0.8234
   10MOL0     C 1227   9.290   8.843   1.188  0.0870 -0.6928 -0.6263
   10MOL0     C 1228   9.241   8.909   1.322  0.1937 -0.1639  1.1403
   10MOL0     C 1229   9.151   9.034   1.308 -0.0581  0.0150 -0.0634
   10MOL0     C 1230   9.125   9.101   1.447  0.0163 -0.3708  0.2123
   10MOL0     C 1231   9.256   9.117   1.528 -0.4098 -0.7010 -0.9783
   10MOL0     N 1232   9.378   9.180   1.472 -0.3080 -0.3531  0.3763
   10MOL0     C 1233   9.368   9.297   1.402  1.1740  0.5347  0.1964
   10MOL0     C 1234   9.482   9.326   1.361  0.5407 -0.5039  1.0235
   10MOL0     C 1235   9.518   9.456   1.291  0.9873  0.3509  0.6182
   10MOL0     C 1236   9.544   9.433   1.130  0.6201 -1.2452  0.6734
   10MOL0     C 1237   9.674   9.356   1.109 -0.3033  0.8411  0.4899
   10MOL0     C 1238   9.706   9.334   0.963 -0.1269 -0.0429  0.5887
   10MOL0     O 1239   9.843   9.345   0.932 -0.8868  0.1426  0.5231
   10MOL0     C 1240   9.934   9.244   0.959 -0.4234  0.8534  1.0840
   10MOL0     C 1241  10.067   9.269   0.910 -0.9263  0.4738  0.1995
   10MOL0     C 1242  10.169   9.170   0.930  0.3826 -0.7172 -0.1610
   10MOL0     C 1243  10.297   9.214   0.855 -1.1348  0.0690  0.3223
   10MOL0     C 1244  10.144   9.048   0.995  0.5212  0.4968 -0.0018
   10MOL0     C 1245  10.242   8.931   1.000  0.0604 -0.1637 -0.0456
   10MOL0     O 1246  10.207   8.830   1.072  0.2789 -0.1202  0.4272
   10MOL0     C 1247  10.279   8.721   1.073 -0.2622  0.3736  0.3346
   10MOL0     C 1248  10.319   8.658   1.191 -1.0332 -0.8487  0.5439
   10MOL0     C 1249  10.388   8.532   1.197  0.3917  1.0267 -0.7110
   10MOL0     C 1250  10.384   8.453   1.077 -0.9480  0.2397 -0.2550
   10MOL0     O 1251  10.447   8.331   1.085  1.1480  0.0831  0.6624
   10MOL0     C 1252  10.373   8.222   1.018 -0.6769  0.1772  0.0117
   10MOL0     C 1253  10.217   8.220   1.021 -0.5717  0.1636  0.2805
   10MOL0     C 1254  10.161   8.071   0.994  0.3421  0.7207  0.2248
   10MOL0     C 1255  10.189   7.981   1.113 -0.3991 -0.1962  0.2764
   10MOL0     C 1256  10.184   7.834   1.078 -0.1713 -0.0329 -0.4030
   10MOL0     C 1257  10.046   7.778   1.097 -0.3239  0.0531 -0.4400
   10MOL0     C 1258  10.052   7.630   1.042  0.0806 -0.0777  0.6120
   10MOL0     C 1259   9.928   7.589   0.956  0.2112 -0.7107 -0.0990
   10MOL0    Cl 1260   9.794   7.559   1.071  0.1139  0.5612 -0.0836
   10MOL0     C 1261  10.337   8.505   0.952  0.4569 -0.4868  0.7010
   10MOL0     C 1262  10.294   8.638   0.960  1.0723 -0.2674 -0.4136
   10MOL0     O 1263  10.354   8.944   0.949  0.1993 -0.0356  0.4230
   10MOL0     C 1264  10.006   9.026   1.047  0.3862 -0.1437 -0.8822
   10MOL0     C 1265   9.908   9.125   1.030  0.4785 -0.1684 -0.3304
   10MOL0     N 1266   9.571   9.232   1.414  0.3371 -0.3596  1.1192
   10MOL0     N 1267   9.510   9.139   1.481 -0.4379 -0.4323  0.5457
   10MOL0     C 1268   9.478   9.113   0.589  0.3474 -0.4196  0.1760
   10MOL0     C 1269   9.455   9.086   0.453  0.5436 -0.3338 -0.8153
   10MOL0     C 1270   9.299   8.944   0.065 -0.6628  1.6627 -0.8352
   10MOL0     C 1271   9.409   8.951  -0.022  0.4877  0.6879  0.4245
   10MOL0     C 1272   9.387   8.961  -0.155 -0.3360  0.2088 -0.4742
   10MOL0     C 1273   9.267   9.003  -0.213  0.5009  0.9902  0.3327
   10MOL0     O 1274   9.234   9.016  -0.347 -0.2708 -0.5487  0.4595
   10MOL0     C 1275   9.338   8.999  -0.445  0.5611  0.2663 -0.4488
   10MOL0     C 1276   9.435   9.131  -0.453  0.3489 -0.1699  0.6752
   10MOL0     C 1277   9.540   9.105  -0.564  0.5237 -0.0416 -0.0593
   10MOL0     C 1278   9.660   9.192  -0.553  0.0241 -0.5903 -0.3508
   10MOL0     C 1279   9.724   9.184  -0.681 -0.2132  0.1008  0.1383
   10MOL0     C 1280   9.767   9.173  -0.792  0.5933 -0.7910  0.5839
   10MOL0     C 1281   9.159   9.019  -0.127 -0.0439 -0.1928  1.2255
   10MOL0     C 1282   9.177   8.988   0.009  0.3787 -0.1763  0.0894
   10MOL0     H 1283   9.485   8.748   0.450  0.8014 -0.0798 -0.1331
   10MOL0     H 1284   9.488   8.791   0.690  0.4669  0.5758 -0.9840
   10MOL0     H 1285   9.633   8.924   0.853 -0.1752 -2.6798  1.6338
   10MOL0     H 1286   9.600   9.048   0.961  1.7305 -1.1142  0.7306
   10MOL0     H 1287   9.426   8.792   0.939  0.3478  0.2460  1.8918
   10MOL0     H 1288   9.538   8.841   1.073  3.0459  0.8214 -2.4871
   10MOL0     H 1289   9.404   9.021   1.151  3.1951 -1.6015  0.0118
   10MOL0     H 1290   9.268   8.982   1.043  0.0524 -1.6993 -1.1689
   10MOL0     H 1291   9.212   8.791   1.130  1.5331 -1.6874 -1.7680
   10MOL0     H 1292   9.355   8.758   1.212 -0.8842 -0.9131  1.4639
   10MOL0     H 1293   9.195   8.833   1.386 -0.8407 -1.1815 -0.7389
   10MOL0     H 1294   9.333   8.938   1.374  2.2241 -1.1189 -1.6407
   10MOL0     H 1295   9.200   9.108   1.244 -1.9781  2.2663  0.9311
   10MOL0     H 1296   9.059   8.993   1.264  0.3286 -2.2769  1.1327
   10MOL0     H 1297   9.078   9.197   1.424  1.8303  0.5822  0.3039
   10MOL0     H 1298   9.047   9.052   1.506  0.2925 -0.1939  0.7249
   10MOL0     H 1299   9.293   9.021   1.565 -0.7206 -0.6644 -0.5623
   10MOL0     H 1300   9.227   9.194   1.600  1.7451  0.8410 -1.6381
   10MOL0     H 1301   9.279   9.346   1.364  1.3913  0.6061 -0.2219
   10MOL0     H 1302   9.439   9.530   1.305 -1.1515 -1.4138 -1.2443
   10MOL0     H 1303   9.619   9.473   1.328  1.8025 -1.2747 -0.7271
   10MOL0     H 1304   9.539   9.530   1.080 -2.2619 -1.2893  0.7003
   10MOL0     H 1305   9.456   9.377   1.095  0.3572 -1.7813  2.1315
   10MOL0     H 1306   9.662   9.256   1.152 -0.9733  1.3505  1.5103
   10MOL0     H 1307   9.760   9.407   1.153  0.4041 -0.2343  0.3827
   10MOL0     H 1308   9.664   9.421   0.911 -2.0594  1.8444  4.7982
   10MOL0     H 1309   9.667   9.241   0.922 -1.6358  2.1433 -3.4470
   10MOL0     H 1310  10.079   9.357   0.848 -1.0709  2.1232  2.3834
   10MOL0     H 1311  10.385   9.215   0.919 -1.6978  1.1058  1.1182
   10MOL0     H 1312  10.304   9.133   0.781 -2.5699 -1.9077  2.1857
   10MOL0     H 1313  10.294   9.308   0.799  6.1710  0.7156  0.1540
   10MOL0     H 1314  10.302   8.700   1.290 -3.2395 -1.1358  0.3140
   10MOL0     H 1315  10.422   8.478   1.285 -2.1446 -3.0518 -1.9753
   10MOL0     H 1316  10.403   8.220   0.913 -3.1315  0.2748 -0.7469
   10MOL0     H 1317  10.414   8.125   1.046  2.1340  1.1218 -0.4533
   10MOL0     H 1318  10.197   8.257   1.122  1.1398  0.0022  0.7098
   10MOL0     H 1319  10.181   8.294   0.949 -1.7387  0.4102  1.0891
   10MOL0     H 1320  10.221   8.039   0.909  1.7032  1.8967  0.6900
   10MOL0     H 1321  10.054   8.086   0.979  0.1277 -1.4676 -0.8534
   10MOL0     H 1322  10.284   8.007   1.162 -0.4513  1.2525 -0.3502
   10MOL0     H 1323  10.105   8.005   1.179 -0.7815  1.4986 -0.7813
   10MOL0     H 1324  10.254   7.786   1.147  1.2687  0.5978 -1.3815
   10MOL0     H 1325  10.219   7.811   0.977  0.9089  1.2307 -0.3395
   10MOL0     H 1326  10.031   7.785   1.205  0.2407 -0.6499 -0.3089
   10MOL0     H 1327   9.969   7.835   1.045 -0.2006 -1.2926 -2.2000
   10MOL0     H 1328  10.053   7.559   1.125 -4.0171 -1.2098 -0.0835
   10MOL0     H 1329  10.138   7.617   0.976 -0.9364 -1.7538 -0.4521
   10MOL0     H 1330   9.932   7.503   0.889  0.8834  1.3693 -2.9116
   10MOL0     H 1331   9.902   7.678   0.899 -1.0792 -1.0469 -0.0639
   10MOL0     H 1332  10.354   8.455   0.857 -1.9342  0.8173 -0.5249
   10MOL0     H 1333  10.275   8.682   0.863 -2.4538 -0.3547  0.1360
   10MOL0     H 1334   9.984   8.932   1.096 -0.9519 -1.2992 -3.4949
   10MOL0     H 1335   9.812   9.101   1.073  0.4101  2.0121  0.8597
   10MOL0     H 1336   9.473   9.217   0.620 -0.8453  0.3274 -2.2112
   10MOL0     H 1337   9.436   9.163   0.379  3.1951 -1.9820 -3.4555
   10MOL0     H 1338   9.504   8.916   0.017  0.7394  2.4894  1.5181
   10MOL0     H 1339   9.474   8.934  -0.212 -0.8043 -0.4959 -0.8595
   10MOL0     H 1340   9.393   8.906  -0.430 -0.5480 -0.4912 -0.9408
   10MOL0     H 1341   9.288   8.991  -0.542 -0.7969  2.8283 -0.0583
   10MOL0     H 1342   9.477   9.151  -0.354  2.5796 -2.8935  0.3973
   10MOL0     H 1343   9.369   9.217  -0.469 -0.7206 -0.5824  2.5093
   10MOL0     H 1344   9.494   9.139  -0.657  0.4429  0.7207  0.2481
   10MOL0     H 1345   9.553   8.999  -0.584  0.6918  0.3553 -2.3634
   10MOL0     H 1346   9.719   9.172  -0.463 -0.9659  0.4646  0.5583
   10MOL0     H 1347   9.630   9.296  -0.540  0.1380 -0.3432 -1.8799
   10MOL0     H 1348   9.812   9.192  -0.888  0.3638  3.0419  1.0500
   10MOL0     H 1349   9.058   9.042  -0.159  0.8935  1.0817 -1.0885
   10MOL0     H 1350   9.102   9.003   0.087  4.7991 -0.8015  5.0498
   11MOL0     O 1351   6.285   1.245   1.295 -0.7888  0.1804  0.2983
   11MOL0     C 1352   6.389   1.176   1.288  0.2671  0.3629  0.4042
   11MOL0     O 1353   6.398   1.059   1.353  0.1615  0.4048  0.1101
   11MOL0     C 1354   6.276   0.990   1.386 -0.9656  0.9451  0.5231
   11MOL0     C 1355   6.192   1.025   1.488  0.3406 -0.3357 -0.2827
   11MOL0     C 1356   6.077   0.956   1.525  0.3688 -0.7358 -0.3560
   11MOL0     C 1357   6.024   0.858   1.438 -0.4941 -0.1260 -0.0912
   11MOL0     O 1358   5.914   0.786   1.467 -0.0789  0.5672 -0.0966
   11MOL0     C 1359   5.907   0.746   1.603 -0.2551  0.2954  0.2705
   11MOL0     C 1360   5.788   0.655   1.604 -0.5306  0.5043 -0.2248
   11MOL0     C 1361   5.756   0.608   1.746 -0.4385  0.3254  0.4746
   11MOL0     C 1362   5.674   0.484   1.748 -0.1357 -0.7703 -0.1144
   11MOL0     C 1363   5.640   0.449   1.897 -0.2540  0.6302 -0.2083
   11MOL0     C 1364   5.539   0.547   1.974  0.4833  0.4330  0.5897
   11MOL0     C 1365   5.500   0.498   2.116  0.1689 -0.0211 -1.1761
   11MOL0     C 1366   5.452   0.612   2.210  0.6902  0.4740  0.5043
   11MOL0     N 1367   5.381   0.564   2.329  0.0505  0.3734 -0.3894
   11MOL0     C 1368   5.261   0.607   2.372 -0.2526  0.7635  0.0941
   11MOL0     C 1369   5.234   0.551   2.488  0.7806  0.5905 -0.8689
   11MOL0     C 1370   5.107   0.538   2.573  0.1801  0.2627 -0.4721
   11MOL0     C 1371   4.997   0.619   2.518 -0.2483  0.2665  0.4798
   11MOL0     C 1372   4.863   0.571   2.569  0.1694  0.8476  0.2204
   11MOL0     C 1373   4.792   0.471   2.485 -0.5222 -0.5955 -0.1962
   11MOL0     O 1374   4.860   0.340   2.476 -0.7543 -0.1279 -0.0137
   11MOL0     C 1375   4.779   0.238   2.420 -0.7001  0.7690 -0.1895
   11MOL0     C 1376   4.666   0.265   2.345 -0.4917 -1.2700 -0.5330
   11MOL0     C 1377   4.601   0.165   2.277  0.3244 -0.3274 -0.2481
   11MOL0     C 1378   4.473   0.189   2.200 -0.3722 -0.5607  0.0319
   11MOL0     C 1379   4.637   0.033   2.293  0.6598  0.4789  0.0277
   11MOL0     C 1380   4.563  -0.087   2.241 -0.9989  1.3555  0.1105
   11MOL0     O 1381   4.583  -0.205   2.314 -0.3786  0.0571  0.5808
   11MOL0     C 1382   4.537  -0.323   2.272 -0.2912  0.2763  0.3271
   11MOL0     C 1383   4.606  -0.394   2.170 -0.8455  0.9398 -0.0065
   11MOL0     C 1384   4.563  -0.523   2.127  0.5690 -0.0074 -0.7665
   11MOL0     C 1385   4.452  -0.582   2.191  1.4378 -0.3383 -0.0159
   11MOL0     O 1386   4.414  -0.711   2.166  0.1689 -0.5241  0.5647
   11MOL0     C 1387   4.447  -0.768   2.039 -0.0137 -1.2290  0.3741
   11MOL0     C 1388   4.584  -0.854   2.052 -0.0440 -0.4000  0.2577
   11MOL0     C 1389   4.572  -0.974   2.152 -0.1507  0.5124  0.1475
   11MOL0     C 1390   4.671  -1.088   2.118  0.1683  0.1385  0.2397
   11MOL0     C 1391   4.630  -1.223   2.194 -0.3873 -0.4253  0.6127
   11MOL0     C 1392   4.707  -1.347   2.145  0.1064  0.1593  0.1850
   11MOL0     C 1393   4.854  -1.346   2.187 -0.3985 -0.1347 -0.2125
   11MOL0     C 1394   4.921  -1.481   2.200 -0.1379  0.5033 -0.3450
   11MOL0    Cl 1395   5.076  -1.431   2.281  0.3161  0.0685 -0.7283
   11MOL0     C 1396   4.371  -0.507   2.274  0.2602  0.2361 -0.2855
   11MOL0     C 1397   4.416  -0.377   2.317 -0.1323  0.1516 -0.6888
   11MOL0     O 1398   4.476  -0.082   2.157  0.2164  0.0982  0.1374
   11MOL0     C 1399   4.751   0.004   2.378 -0.8382  0.0288 -0.1787
   11MOL0     C 1400   4.817   0.104   2.435 -0.1870 -0.4237  0.8220
   11MOL0     N 1401   5.344   0.480   2.522 -0.3108  0.2078 -0.4970
   11MOL0     N 1402   5.428   0.482   2.429 -0.2639 -0.2937 -0.1337
   11MOL0     C 1403   6.099   0.824   1.334  0.0360 -0.3090  0.3480
   11MOL0     C 1404   6.229   0.874   1.318 -0.2126 -0.2738 -0.9301
   11MOL0     C 1405   6.505   1.231   1.213  0.0982  0.4690  0.0841
   11MOL0     C 1406   6.490   1.321   1.104 -0.0079  0.5492 -0.0894
   11MOL0     C 1407   6.605   1.370   1.043 -0.8779 -0.7734 -0.6904
   11MOL0     C 1408   6.737   1.333   1.092  0.2919 -0.0533  0.4382
   11MOL0     O 1409   6.849   1.389   1.025 -0.1758  0.0086 -0.0099
   11MOL0     C 1410   6.961   1.422   1.105  0.6631 -0.3828 -0.3604
   11MOL0     C 1411   6.940   1.548   1.182  0.0326 -0.5697 -0.3528
   11MOL0     C 1412   6.935   1.674   1.103 -0.0994 -0.1468  0.0349
   11MOL0     C 1413   6.880   1.794   1.185 -0.1197  0.4101 -0.4291
   11MOL0     C 1414   6.888   1.915   1.097 -0.2123 -0.1431 -0.5563
   11MOL0     C 1415   6.887   1.992   1.002  0.0431 -0.3563 -0.2746
   11MOL0     C 1416   6.747   1.227   1.187 -0.6033  0.1021  0.2459
   11MOL0     C 1417   6.639   1.175   1.247  0.4304 -1.0063  0.2746
   11MOL0     H 1418   6.218   1.113   1.545 -0.3332  0.3423 -0.9978
   11MOL0     H 1419   6.028   0.976   1.620  5.4606 -0.4506  2.5901
   11MOL0     H 1420   5.991   0.686   1.639  0.9833  0.5830 -1.9803
   11MOL0     H 1421   5.892   0.830   1.672  0.2432  2.6011 -2.2960
   11MOL0     H 1422   5.700   0.712   1.573 -0.8343  0.0046 -0.2923
   11MOL0     H 1423   5.794   0.562   1.547 -0.1653 -0.2784  1.0478
   11MOL0     H 1424   5.845   0.579   1.802 -0.4317 -0.6917 -0.0425
   11MOL0     H 1425   5.710   0.694   1.796 -0.4447  0.6141 -0.0133
   11MOL0     H 1426   5.584   0.500   1.688 -2.0618  1.3424  2.9986
   11MOL0     H 1427   5.721   0.397   1.702 -2.5409 -1.2645 -1.8037
   11MOL0     H 1428   5.598   0.348   1.891  2.8058 -0.6584 -3.7816
   11MOL0     H 1429   5.731   0.440   1.956 -1.3477 -0.0955  1.4674
   11MOL0     H 1430   5.582   0.647   1.986  2.5349  0.0558 -2.5350
   11MOL0     H 1431   5.448   0.553   1.914 -0.0108 -0.8042  1.1870
   11MOL0     H 1432   5.414   0.432   2.099  0.0674  0.3442 -2.1226
   11MOL0     H 1433   5.580   0.437   2.159  0.2677 -1.6612 -3.4916
   11MOL0     H 1434   5.406   0.696   2.158  1.2252  1.3452  1.3991
   11MOL0     H 1435   5.541   0.660   2.252  0.5365  0.7866  0.4758
   11MOL0     H 1436   5.197   0.672   2.312 -0.7256 -3.6885 -4.9389
   11MOL0     H 1437   5.079   0.433   2.585  1.8669 -0.3923 -1.7896
   11MOL0     H 1438   5.126   0.576   2.673 -1.1495 -1.7527  0.6040
   11MOL0     H 1439   4.981   0.620   2.410 -1.0982  3.2380  0.5439
   11MOL0     H 1440   5.014   0.719   2.558  0.2839  0.9679 -1.3886
   11MOL0     H 1441   4.801   0.661   2.558 -1.3132 -0.0261  1.1428
   11MOL0     H 1442   4.875   0.556   2.676  1.1376  2.6077  0.3979
   11MOL0     H 1443   4.778   0.511   2.384 -2.1527  3.2313  1.3494
   11MOL0     H 1444   4.702   0.453   2.545  0.3660 -1.7465  0.8401
   11MOL0     H 1445   4.629   0.367   2.345  0.8423 -0.7561 -0.2252
   11MOL0     H 1446   4.499   0.155   2.100  1.7429  1.4430 -0.1957
   11MOL0     H 1447   4.395   0.132   2.252  0.2154 -0.6289  0.8611
   11MOL0     H 1448   4.445   0.295   2.199 -0.5528 -0.5698  1.4777
   11MOL0     H 1449   4.695  -0.341   2.138  0.7179  0.1171  2.6587
   11MOL0     H 1450   4.626  -0.583   2.063  0.2402 -1.6158  0.3495
   11MOL0     H 1451   4.368  -0.832   1.998 -0.6034  0.7527 -1.7706
   11MOL0     H 1452   4.466  -0.686   1.970  4.5289 -0.9818  1.5821
   11MOL0     H 1453   4.609  -0.898   1.955  2.0613  0.1169  0.5246
   11MOL0     H 1454   4.672  -0.792   2.070 -1.3805  1.0294  2.3404
   11MOL0     H 1455   4.470  -1.014   2.142  0.7450 -1.5741 -1.5257
   11MOL0     H 1456   4.580  -0.942   2.256  2.1331  2.6950 -0.6143
   11MOL0     H 1457   4.671  -1.096   2.009  3.4974  3.4175 -0.1778
   11MOL0     H 1458   4.773  -1.077   2.154  0.5447 -1.1770 -0.3523
   11MOL0     H 1459   4.526  -1.248   2.172 -0.4784  1.5684 -1.5265
   11MOL0     H 1460   4.642  -1.201   2.301  0.8012 -0.5780  0.5283
   11MOL0     H 1461   4.674  -1.425   2.214  1.8932  2.1143  3.5646
   11MOL0     H 1462   4.697  -1.368   2.038  1.2730 -3.2686  0.6031
   11MOL0     H 1463   4.851  -1.304   2.288 -0.3057 -1.3367  0.3047
   11MOL0     H 1464   4.922  -1.291   2.121 -0.7086  0.3045 -0.1731
   11MOL0     H 1465   4.945  -1.522   2.102  2.4182 -2.9441  1.5228
   11MOL0     H 1466   4.863  -1.552   2.258  1.1606  0.5112  1.0463
   11MOL0     H 1467   4.283  -0.551   2.320  0.3002  1.7507  1.3679
   11MOL0     H 1468   4.382  -0.314   2.399  2.7127  4.0494 -2.2115
   11MOL0     H 1469   4.778  -0.101   2.392 -0.0297  0.1379 -0.8329
   11MOL0     H 1470   4.906   0.082   2.494  2.8709  0.8337 -2.8994
   11MOL0     H 1471   6.066   0.740   1.273 -0.3164  1.5760 -2.2191
   11MOL0     H 1472   6.299   0.831   1.247 -1.7503 -1.5886 -1.7111
   11MOL0     H 1473   6.389   1.358   1.087 -0.1369  1.3304  2.0869
   11MOL0     H 1474   6.596   1.446   0.966 -2.2461 -0.9766 -0.7432
   11MOL0     H 1475   6.999   1.343   1.171  1.4341 -1.3946 -1.9556
   11MOL0     H 1476   7.045   1.450   1.041 -1.3096  0.9361 -2.5258
   11MOL0     H 1477   7.024   1.553   1.252 -0.0784  1.6442 -0.3062
   11MOL0     H 1478   6.846   1.547   1.237 -0.2419  0.8120 -0.7435
   11MOL0     H 1479   6.867   1.669   1.017 -1.0126  1.2147  0.6474
   11MOL0     H 1480   7.039   1.696   1.074  0.7621  1.2496  3.6099
   11MOL0     H 1481   6.931   1.813   1.280  0.2530 -2.9742  0.1560
   11MOL0     H 1482   6.776   1.789   1.219 -0.3161  1.5075 -0.8181
   11MOL0     H 1483   6.880   2.057   0.917  0.8701  1.6340  1.1106
   11MOL0     H 1484   6.846   1.190   1.209  0.0976  2.0953  0.6659
   11MOL0     H 1485   6.655   1.105   1.328  0.9640 -0.1677  0.8987
   12MOL0     O 1486   5.777  11.437   0.467 -0.1894  0.3182 -0.3984
   12MOL0     C 1487   5.754  11.336   0.390  0.0472  0.3718  0.1760
   12MOL0     O 1488   5.631  11.306   0.331  0.3408  0.8576 -0.4480
   12MOL0     C 1489   5.537  11.409   0.333  0.2520  0.3332 -1.0508
   12MOL0     C 1490   5.559  11.528   0.265 -0.2172 -0.0185  0.5836
   12MOL0     C 1491   5.452  11.619   0.240 -0.4314 -0.6808  0.1457
   12MOL0     C 1492   5.328  11.601   0.299  0.1684 -0.5437 -0.4948
   12MOL0     O 1493   5.213  11.679   0.289 -0.2992  0.9416  0.0390
   12MOL0     C 1494   5.213  11.791   0.213 -0.1749 -1.0625 -0.2974
   12MOL0     C 1495   5.070  11.846   0.213  0.3648  1.4450  0.2120
   12MOL0     C 1496   5.025  11.878   0.351  0.1160  0.3617 -0.0100
   12MOL0     C 1497   5.116  11.986   0.407  0.0216  0.9698  0.2743
   12MOL0     C 1498   5.045  12.039   0.538  0.7773 -0.2270 -0.2193
   12MOL0     C 1499   4.927  12.129   0.526  0.3567 -0.0637 -0.5745
   12MOL0     C 1500   4.895  12.200   0.655 -0.0752  0.8248  0.3090
   12MOL0     C 1501   4.813  12.332   0.619  0.2936  0.3313 -0.2698
   12MOL0     N 1502   4.767  12.405   0.737  0.4130 -0.1280  0.6160
   12MOL0     C 1503   4.660  12.371   0.817  0.2631 -0.6834  1.0974
   12MOL0     C 1504   4.658  12.458   0.918 -0.1323 -0.4594  0.5046
   12MOL0     C 1505   4.582  12.473   1.034 -0.4506  0.2998  0.1302
   12MOL0     C 1506   4.508  12.347   1.082  0.5256  0.6887 -0.4307
   12MOL0     C 1507   4.574  12.283   1.209 -0.6221 -0.3223  0.0877
   12MOL0     C 1508   4.718  12.251   1.196 -0.2988  0.2563 -0.4813
   12MOL0     O 1509   4.725  12.126   1.120  0.2057  0.7208  0.4684
   12MOL0     C 1510   4.853  12.086   1.093 -0.3796 -0.5532  0.8119
   12MOL0     C 1511   4.917  11.985   1.150 -0.4459  0.0773  0.4746
   12MOL0     C 1512   5.047  11.944   1.121  0.3739  0.0328 -0.8713
   12MOL0     C 1513   5.089  11.814   1.183  0.5462 -0.4740 -0.8767
   12MOL0     C 1514   5.121  12.012   1.020 -0.3687 -0.5419 -0.0665
   12MOL0     C 1515   5.264  11.975   0.983 -0.2534  0.5483  0.7421
   12MOL0     O 1516   5.297  12.004   0.852 -1.3092  0.7447  0.1614
   12MOL0     C 1517   5.402  11.931   0.803 -0.3418 -0.9162  0.4860
   12MOL0     C 1518   5.528  11.959   0.859  0.7574  0.2166 -0.5482
   12MOL0     C 1519   5.645  11.908   0.796 -0.7606 -0.8378 -0.1468
   12MOL0     C 1520   5.637  11.836   0.677 -0.8417  0.3209 -0.8206
   12MOL0     O 1521   5.762  11.792   0.635 -0.1971  0.8994  0.3543
   12MOL0     C 1522   5.785  11.792   0.496 -0.4953 -0.7175  0.1945
   12MOL0     C 1523   5.930  11.806   0.469 -0.2195 -0.2897  0.5056
   12MOL0     C 1524   5.971  11.951   0.487  0.4373 -0.4698  0.2318
   12MOL0     C 1525   6.047  12.006   0.368  0.7262  0.1206  0.0406
   12MOL0     C 1526   5.956  12.039   0.244 -0.7363 -1.3230  0.3490
   12MOL0     C 1527   5.821  12.121   0.287 -0.1067  0.2015  0.1620
   12MOL0     C 1528   5.743  12.163   0.163 -0.1538  0.0761 -0.1562
   12MOL0     C 1529   5.682  12.049   0.079 -0.6154 -0.5895 -0.4112
   12MOL0    Cl 1530   5.571  11.973   0.186 -0.0767  0.2361  0.0480
   12MOL0     C 1531   5.511  11.828   0.606 -0.3257  0.6709  0.1111
   12MOL0     C 1532   5.401  11.875   0.676  1.3489 -0.7561 -0.0707
   12MOL0     O 1533   5.336  11.918   1.067  0.6365 -0.8470 -0.2192
   12MOL0     C 1534   5.061  12.123   0.950  0.3175  0.2370 -0.0039
   12MOL0     C 1535   4.934  12.155   0.995  0.1839  0.5339  0.2678
   12MOL0     N 1536   4.767  12.539   0.895 -0.3207 -0.5400 -0.2029
   12MOL0     N 1537   4.826  12.516   0.782 -0.1017  0.3960 -0.2748
   12MOL0     C 1538   5.316  11.486   0.380 -0.7943  0.1757  0.9538
   12MOL0     C 1539   5.414  11.393   0.394 -0.6938  0.3040 -0.4383
   12MOL0     C 1540   5.864  11.248   0.335 -0.8168 -0.4965 -0.8866
   12MOL0     C 1541   5.838  11.154   0.237 -0.6650 -0.8656 -0.1664
   12MOL0     C 1542   5.938  11.070   0.189 -0.5322 -0.1024  1.0139
   12MOL0     C 1543   6.066  11.060   0.238  0.1561 -0.4271  1.0285
   12MOL0     O 1544   6.167  10.982   0.200  0.2369  0.6275  0.2455
   12MOL0     C 1545   6.142  10.882   0.100 -0.7080  0.6585 -0.3592
   12MOL0     C 1546   6.270  10.797   0.085  0.7852 -0.7844 -0.5277
   12MOL0     C 1547   6.279  10.698   0.205  0.0938  0.4818  1.1351
   12MOL0     C 1548   6.359  10.571   0.178 -0.5591  0.0572 -0.4820
   12MOL0     C 1549   6.330  10.470   0.283  0.5548 -0.4499 -0.5623
   12MOL0     C 1550   6.304  10.379   0.362 -0.4709 -0.3713 -0.1084
   12MOL0     C 1551   6.085  11.156   0.342  0.4076  0.0415 -0.1766
   12MOL0     C 1552   5.989  11.241   0.397 -0.1799  0.3991  0.3214
   12MOL0     H 1553   5.652  11.541   0.211  1.2087 -0.3627  2.8034
   12MOL0     H 1554   5.481  11.703   0.179 -1.5590 -2.5046 -3.1662
   12MOL0     H 1555   5.285  11.865   0.249  0.0578 -0.7424 -1.3846
   12MOL0     H 1556   5.251  11.763   0.114 -0.0033  3.6915 -1.8488
   12MOL0     H 1557   5.058  11.934   0.149 -0.8952  1.7383  0.8203
   12MOL0     H 1558   5.010  11.764   0.172  1.5999  1.0680 -0.9200
   12MOL0     H 1559   4.926  11.924   0.356 -0.5730 -1.0982  0.4357
   12MOL0     H 1560   5.020  11.783   0.406  0.0984 -0.2484 -1.0447
   12MOL0     H 1561   5.210  11.937   0.432 -1.4493 -1.8147  0.7844
   12MOL0     H 1562   5.122  12.072   0.340 -0.7605  1.6904  1.0907
   12MOL0     H 1563   5.012  11.963   0.610  0.9066  1.6475  1.9129
   12MOL0     H 1564   5.115  12.103   0.592 -2.0604  0.2233  3.3622
   12MOL0     H 1565   4.955  12.194   0.442  0.9397 -0.6120 -0.8151
   12MOL0     H 1566   4.838  12.075   0.493 -1.6056  2.1565  0.7460
   12MOL0     H 1567   4.823  12.137   0.708  0.8567 -0.1447  0.4446
   12MOL0     H 1568   4.989  12.229   0.704  1.3777  0.3874 -2.0619
   12MOL0     H 1569   4.722  12.305   0.566  0.9839 -0.7524 -0.9519
   12MOL0     H 1570   4.867  12.409   0.563  2.5413 -0.3356  0.8240
   12MOL0     H 1571   4.592  12.286   0.813 -1.2018  0.5193 -1.2026
   12MOL0     H 1572   4.636  12.516   1.120 -1.5947  0.1083  0.9747
   12MOL0     H 1573   4.498  12.542   1.021 -2.3868 -2.5113 -4.4518
   12MOL0     H 1574   4.499  12.262   1.013  0.7651 -1.5329  2.1010
   12MOL0     H 1575   4.410  12.377   1.121  1.5636  1.3890  1.8260
   12MOL0     H 1576   4.526  12.197   1.255  0.8615  0.1061  2.6233
   12MOL0     H 1577   4.542  12.349   1.291 -1.3117 -2.4158  1.5732
   12MOL0     H 1578   4.773  12.247   1.290 -2.0468 -0.1885  0.5549
   12MOL0     H 1579   4.771  12.340   1.160 -3.5861  2.3660 -0.4884
   12MOL0     H 1580   4.861  11.907   1.202 -0.6136 -0.9983 -1.2243
   12MOL0     H 1581   5.023  11.782   1.263 -0.7825  1.3499 -1.1680
   12MOL0     H 1582   5.104  11.736   1.108 -0.9922  0.4942 -2.2699
   12MOL0     H 1583   5.186  11.839   1.227  0.3508  1.6288 -1.5006
   12MOL0     H 1584   5.542  12.009   0.955 -1.1142  1.4839 -0.8769
   12MOL0     H 1585   5.740  11.911   0.847 -1.5965 -1.3648  1.5273
   12MOL0     H 1586   5.745  11.696   0.462  2.0836 -2.3541  1.3511
   12MOL0     H 1587   5.729  11.865   0.438  3.3143  0.6571 -2.0891
   12MOL0     H 1588   5.978  11.740   0.542  0.8638  0.8794  0.8814
   12MOL0     H 1589   5.953  11.775   0.366 -0.5364  0.4863  0.1990
   12MOL0     H 1590   6.031  11.944   0.579 -0.6575 -0.2651  0.9859
   12MOL0     H 1591   5.881  12.007   0.512 -0.1243 -1.5555  0.7006
   12MOL0     H 1592   6.091  12.097   0.410 -0.3398  0.3779  0.6404
   12MOL0     H 1593   6.130  11.936   0.353 -0.1210 -1.7379  3.0819
   12MOL0     H 1594   5.919  11.947   0.198  2.2323 -1.5368 -1.9136
   12MOL0     H 1595   6.014  12.096   0.170  2.8381 -1.0187  3.1261
   12MOL0     H 1596   5.760  12.052   0.346  0.3981  1.6630  2.5134
   12MOL0     H 1597   5.842  12.214   0.341  0.4655  1.0080 -1.3961
   12MOL0     H 1598   5.818  12.206   0.096  1.1425 -2.7635 -0.6725
   12MOL0     H 1599   5.667  12.237   0.188 -0.0519  1.0800 -2.5607
   12MOL0     H 1600   5.754  11.981   0.033 -3.1199 -3.8198  0.1002
   12MOL0     H 1601   5.618  12.088  -0.000  0.5560 -0.0208 -1.1020
   12MOL0     H 1602   5.504  11.775   0.512  3.4618 -0.3928  0.2490
   12MOL0     H 1603   5.304  11.863   0.629  1.7287  3.4542 -2.4284
   12MOL0     H 1604   5.111  12.175   0.868 -0.3913  1.8759  0.5557
   12MOL0     H 1605   4.878  12.230   0.941  0.5582 -0.8502 -2.2112
   12MOL0     H 1606   5.225  11.484   0.440 -0.1647 -0.2043  1.9177
   12MOL0     H 1607   5.404  11.312   0.466  0.2888  0.8392  0.3183
   12MOL0     H 1608   5.736  11.157   0.199 -1.0635 -1.4096  0.8100
   12MOL0     H 1609   5.908  11.004   0.108 -1.3718  2.2317 -0.6958
   12MOL0     H 1610   6.053  10.832   0.139  0.1466  0.5618  1.5977
   12MOL0     H 1611   6.111  10.921   0.002  1.8729  0.3415 -1.3863
   12MOL0     H 1612   6.351  10.869   0.099 -1.1859  0.9687  3.7389
   12MOL0     H 1613   6.279  10.745  -0.010  0.7061 -3.0149  0.6363
   12MOL0     H 1614   6.178  10.669   0.237  0.2680 -3.0185 -0.8808
   12MOL0     H 1615   6.311  10.742   0.299 -0.0609 -0.4297  1.6305
   12MOL0     H 1616   6.466  10.588   0.173 -0.7152  1.7562  0.8157
   12MOL0     H 1617   6.330  10.512   0.091 -0.0337 -3.0297  1.2748
   12MOL0     H 1618   6.267  10.306   0.432  0.2401  0.9295  1.6974
   12MOL0     H 1619   6.181  11.175   0.389 -0.2685  2.0520  0.4729
   12MOL0     H 1620   6.027  11.310   0.472 -0.6321 -1.0757  1.9635
   13MOL0     O 1621   9.157   5.431   3.487 -0.1894 -0.6860  0.2430
   13MOL0     C 1622   9.245   5.477   3.399 -0.4203  0.3880  0.4420
   13MOL0     O 1623   9.382   5.507   3.421 -0.0200 -0.3088 -1.0152
   13MOL0     C 1624   9.437   5.485   3.550  0.9760 -0.1852 -0.0211
   13MOL0     C 1625   9.560   5.411   3.573  1.1717 -0.0268 -0.4407
   13MOL0     C 1626   9.619   5.402   3.696  0.3423 -0.2243  0.9987
   13MOL0     C 1627   9.557   5.455   3.809  0.0539 -0.0657  0.7834
   13MOL0     O 1628   9.616   5.446   3.930 -0.6614  0.6249  0.2036
   13MOL0     C 1629   9.567   5.498   4.044  0.5690  0.9381 -0.0784
   13MOL0     C 1630   9.665   5.510   4.155 -0.2421 -0.0205 -0.1786
   13MOL0     C 1631   9.601   5.567   4.289  0.0152 -0.4857 -0.1395
   13MOL0     C 1632   9.533   5.710   4.277 -0.5511  0.2866  0.1682
   13MOL0     C 1633   9.602   5.818   4.191 -0.4570 -0.5717  0.1061
   13MOL0     C 1634   9.736   5.867   4.247 -0.1040  0.5610 -0.6363
   13MOL0     C 1635   9.738   5.940   4.380  0.6237  0.6629 -0.0511
   13MOL0     C 1636   9.882   5.959   4.421 -0.1046  0.4595 -0.2754
   13MOL0     N 1637   9.893   6.046   4.532  0.7493  0.6543  1.0667
   13MOL0     C 1638   9.869   6.021   4.659 -0.3112  0.2930  0.0463
   13MOL0     C 1639   9.899   6.134   4.722 -0.1838 -0.4212  0.4152
   13MOL0     C 1640   9.930   6.128   4.873  0.6201 -0.7867 -0.4123
   13MOL0     C 1641   9.904   6.264   4.935 -1.1090 -0.4489  0.5919
   13MOL0     C 1642   9.961   6.265   5.086  0.0215  0.3279 -0.6218
   13MOL0     C 1643   9.858   6.263   5.199  0.6358 -1.0895 -0.8379
   13MOL0     O 1644   9.767   6.378   5.190 -0.0455  0.3564 -0.1834
   13MOL0     C 1645   9.681   6.390   5.292  0.7283 -0.1910 -0.0188
   13MOL0     C 1646   9.601   6.296   5.356  0.0433  0.7092  0.5280
   13MOL0     C 1647   9.503   6.326   5.458  0.7332 -0.5481  0.0148
   13MOL0     C 1648   9.413   6.218   5.511 -0.1098 -0.3070  0.6037
   13MOL0     C 1649   9.496   6.464   5.493  0.4231 -0.0001  0.3743
   13MOL0     C 1650   9.392   6.521   5.585  0.1397 -0.9786 -0.7361
   13MOL0     O 1651   9.393   6.657   5.612 -0.0851  0.2667  0.1589
   13MOL0     C 1652   9.274   6.725   5.646  0.6435 -0.5580  0.4556
   13MOL0     C 1653   9.276   6.859   5.610 -0.3674  0.1796 -0.5828
   13MOL0     C 1654   9.173   6.948   5.655  1.0887 -0.6278 -0.3828
   13MOL0     C 1655   9.062   6.906   5.733  0.3891  0.8399  0.1949
   13MOL0     O 1656   8.971   7.004   5.782 -0.2446  0.7104 -0.0025
   13MOL0     C 1657   8.842   6.960   5.834 -0.6819  0.0959  0.1080
   13MOL0     C 1658   8.764   7.087   5.866 -0.3443  0.3698 -0.5067
   13MOL0     C 1659   8.836   7.187   5.957  0.1344 -0.9402  0.1130
   13MOL0     C 1660   8.755   7.199   6.093  0.5163  0.5562 -0.6427
   13MOL0     C 1661   8.811   7.289   6.211 -0.3040  0.2163  0.2398
   13MOL0     C 1662   8.805   7.443   6.186  0.2936 -0.0123  0.8481
   13MOL0     C 1663   8.857   7.535   6.290 -0.3733  1.1523  0.5699
   13MOL0     C 1664   8.800   7.508   6.436  0.1587 -0.3239  0.1044
   13MOL0    Cl 1665   8.875   7.605   6.555 -0.2308 -0.4662  0.5591
   13MOL0     C 1666   9.056   6.771   5.756 -0.3571  0.3269  0.5169
   13MOL0     C 1667   9.156   6.681   5.715  0.0655  0.3441  0.8369
   13MOL0     O 1668   9.307   6.451   5.627 -0.1216 -0.6083  0.2218
   13MOL0     C 1669   9.589   6.556   5.440  0.3416  0.4961  0.3577
   13MOL0     C 1670   9.672   6.525   5.343 -0.5384  0.4543  0.3533
   13MOL0     N 1671   9.926   6.233   4.626 -1.0126  0.4188 -0.2815
   13MOL0     N 1672   9.920   6.177   4.513  0.0296  1.1705 -0.5894
   13MOL0     C 1673   9.432   5.522   3.793  0.0354 -0.0704 -0.1267
   13MOL0     C 1674   9.374   5.536   3.667 -0.8646 -0.3932 -0.8624
   13MOL0     C 1675   9.198   5.471   3.248 -0.7667  0.1238  0.1073
   13MOL0     C 1676   9.301   5.453   3.150 -0.1801  0.3116  0.7721
   13MOL0     C 1677   9.263   5.433   3.017  0.0719  0.1695 -0.5772
   13MOL0     C 1678   9.129   5.413   2.980 -0.0991  0.4478 -1.4448
   13MOL0     O 1679   9.088   5.409   2.852  0.6333 -1.0029 -0.5639
   13MOL0     C 1680   9.151   5.311   2.767 -1.2497 -0.0243 -0.4174
   13MOL0     C 1681   9.055   5.220   2.686  0.5344  0.1152 -0.5489
   13MOL0     C 1682   8.991   5.294   2.568  0.3039  0.1974 -0.2049
   13MOL0     C 1683   8.888   5.202   2.492 -0.5663 -1.0108 -0.4537
   13MOL0     C 1684   8.809   5.295   2.402  0.1168  0.7882 -0.5181
   13MOL0     C 1685   8.738   5.369   2.330  0.0878  0.8288  0.3592
   13MOL0     C 1686   9.030   5.429   3.078  1.0489  0.0784 -0.3301
   13MOL0     C 1687   9.062   5.464   3.205  0.1125 -0.2536  0.1229
   13MOL0     H 1688   9.599   5.363   3.484  2.0056 -2.2619  1.0354
   13MOL0     H 1689   9.716   5.352   3.699  0.1879 -0.5135  1.1225
   13MOL0     H 1690   9.515   5.592   4.020 -2.6211 -0.8254 -0.7242
   13MOL0     H 1691   9.488   5.427   4.071 -1.8469  2.3190 -2.9007
   13MOL0     H 1692   9.699   5.406   4.168 -1.3436 -0.5024 -1.0072
   13MOL0     H 1693   9.744   5.574   4.115 -0.3716  0.6325  0.5926
   13MOL0     H 1694   9.526   5.495   4.322  1.4911 -2.5159 -0.9578
   13MOL0     H 1695   9.679   5.583   4.364  0.6763 -0.7369 -0.7580
   13MOL0     H 1696   9.439   5.687   4.227 -0.1477  0.3122 -0.6276
   13MOL0     H 1697   9.520   5.753   4.377  0.3273 -0.3485  0.5684
   13MOL0     H 1698   9.603   5.777   4.090  0.2046 -3.5258  1.2079
   13MOL0     H 1699   9.533   5.902   4.189 -0.4327 -0.5685 -1.5840
   13MOL0     H 1700   9.791   5.773   4.258 -2.8640 -1.0824  0.0251
   13MOL0     H 1701   9.798   5.921   4.175  3.9931 -1.3787  1.0993
   13MOL0     H 1702   9.692   6.039   4.375 -1.3552 -0.1615  0.8336
   13MOL0     H 1703   9.680   5.877   4.448  0.6237  0.7685  0.0472
   13MOL0     H 1704   9.939   6.006   4.341 -0.5824  2.2338  0.3714
   13MOL0     H 1705   9.921   5.857   4.431 -3.5476 -1.4311 -3.2735
   13MOL0     H 1706   9.853   5.923   4.703 -1.8334 -1.1487 -3.4277
   13MOL0     H 1707   9.857   6.055   4.909 -2.2055  0.8480 -2.4092
   13MOL0     H 1708  10.026   6.078   4.890 -0.1179 -1.9005  0.6339
   13MOL0     H 1709   9.799   6.294   4.931 -1.0757 -0.4120 -3.0367
   13MOL0     H 1710   9.974   6.325   4.878  0.8063 -0.8006  2.4470
   13MOL0     H 1711  10.038   6.341   5.095 -1.1626  1.3033  2.2456
   13MOL0     H 1712  10.026   6.179   5.105  1.1187  1.6899  2.1272
   13MOL0     H 1713   9.917   6.261   5.291  2.0571 -1.8468 -1.7275
   13MOL0     H 1714   9.793   6.174   5.202 -3.2612  1.4584  3.4232
   13MOL0     H 1715   9.614   6.192   5.329 -2.5814  0.0809  1.3460
   13MOL0     H 1716   9.307   6.243   5.514  0.4620  2.4387  1.0915
   13MOL0     H 1717   9.412   6.121   5.461  1.1111  0.7835 -1.7042
   13MOL0     H 1718   9.432   6.208   5.618 -3.0224  2.0518  1.4875
   13MOL0     H 1719   9.365   6.883   5.552  2.0038 -2.9278  1.4742
   13MOL0     H 1720   9.180   7.055   5.635  0.0695 -0.6012 -0.6812
   13MOL0     H 1721   8.782   6.911   5.756 -0.3368 -0.1626 -0.0007
   13MOL0     H 1722   8.852   6.886   5.914  0.4060 -2.0256 -1.8388
   13MOL0     H 1723   8.741   7.134   5.770 -1.6682 -0.0916 -0.4321
   13MOL0     H 1724   8.673   7.044   5.908  1.9163 -0.7141  3.8891
   13MOL0     H 1725   8.847   7.281   5.902  3.3383 -0.5309  1.2817
   13MOL0     H 1726   8.936   7.161   5.991  1.3899  2.1667 -0.8720
   13MOL0     H 1727   8.652   7.226   6.069 -0.1048 -1.6299 -0.6037
   13MOL0     H 1728   8.760   7.100   6.139 -1.6011  1.0844  0.9032
   13MOL0     H 1729   8.918   7.269   6.220  0.2198  2.0811 -1.2089
   13MOL0     H 1730   8.750   7.266   6.299  0.0771 -1.8864 -0.0071
   13MOL0     H 1731   8.867   7.472   6.101 -2.2657  0.8336 -0.8589
   13MOL0     H 1732   8.702   7.474   6.166 -0.6366 -1.8516  2.4247
   13MOL0     H 1733   8.815   7.625   6.243 -0.5571 -0.3555 -2.3326
   13MOL0     H 1734   8.966   7.541   6.286 -0.4139  1.0731 -1.7278
   13MOL0     H 1735   8.806   7.405   6.473  0.9309  0.8395  3.6777
   13MOL0     H 1736   8.695   7.536   6.428  0.0684  0.0547  2.0978
   13MOL0     H 1737   8.968   6.734   5.808 -0.1984  1.4168  1.6112
   13MOL0     H 1738   9.138   6.575   5.735  1.6574 -0.4686 -1.5543
   13MOL0     H 1739   9.606   6.653   5.485 -0.8647 -0.3257  2.7959
   13MOL0     H 1740   9.756   6.590   5.324 -0.3094  0.8042  2.3302
   13MOL0     H 1741   9.379   5.583   3.866 -0.6966  0.4180 -1.0467
   13MOL0     H 1742   9.273   5.575   3.657 -1.8870 -2.2731  1.0637
   13MOL0     H 1743   9.402   5.477   3.183 -0.2381  0.4408  0.8530
   13MOL0     H 1744   9.334   5.432   2.935  2.2266 -1.1740  1.1868
   13MOL0     H 1745   9.220   5.371   2.707 -2.2981  0.5886 -1.0573
   13MOL0     H 1746   9.217   5.248   2.826 -0.5052  1.7410  0.7178
   13MOL0     H 1747   8.969   5.191   2.748  1.6555  2.0867  2.1200
   13MOL0     H 1748   9.110   5.133   2.649  0.9760 -0.8625  2.1654
   13MOL0     H 1749   9.064   5.334   2.497  1.4532  1.0881  1.4183
   13MOL0     H 1750   8.934   5.370   2.622  1.9445  1.2774  0.0805
   13MOL0     H 1751   8.818   5.149   2.557 -1.0099  1.6530  1.3689
   13MOL0     H 1752   8.946   5.128   2.435  0.3556 -1.7186  1.3363
   13MOL0     H 1753   8.692   5.433   2.258  0.0616 -0.4449 -0.7772
   13MOL0     H 1754   8.925   5.433   3.048  0.7625  5.1088  0.4398
   13MOL0     H 1755   8.982   5.482   3.276 -1.8409 -0.7273 -1.8784
   14MOL0     O 1756   7.080  10.472   0.686 -0.3414  0.0540 -0.2486
   14MOL0     C 1757   6.968  10.522   0.667  0.0790  0.4787 -0.8077
   14MOL0     O 1758   6.944  10.652   0.648  0.7923 -0.8607  0.1974
   14MOL0     C 1759   7.035  10.748   0.683  0.1177  0.1940  0.4050
   14MOL0     C 1760   7.173  10.759   0.645  0.7955  0.1533 -0.1461
   14MOL0     C 1761   7.243  10.873   0.694  0.0357 -0.5290 -0.3065
   14MOL0     C 1762   7.187  10.967   0.783 -0.2161 -0.5351 -0.3599
   14MOL0     O 1763   7.273  11.048   0.844 -0.0811 -0.0164 -0.8742
   14MOL0     C 1764   7.219  11.152   0.927 -0.0107  0.2801  0.4618
   14MOL0     C 1765   7.331  11.215   1.001 -0.8631  0.2805 -0.6594
   14MOL0     C 1766   7.308  11.260   1.138 -0.6852  0.0730 -0.6368
   14MOL0     C 1767   7.278  11.155   1.243  0.0315  0.3308 -0.0335
   14MOL0     C 1768   7.386  11.054   1.259 -1.0532  0.9916  0.3504
   14MOL0     C 1769   7.364  10.958   1.384 -0.3768 -1.1063  0.1109
   14MOL0     C 1770   7.219  10.913   1.421  0.5164 -0.3708  0.1841
   14MOL0     C 1771   7.155  10.808   1.322  0.7118 -0.6269  0.5748
   14MOL0     N 1772   7.013  10.803   1.360 -0.6469  0.6067  0.0747
   14MOL0     C 1773   6.966  10.705   1.450  0.0195  0.1277  0.2638
   14MOL0     C 1774   6.835  10.738   1.463  0.1628  0.0846 -0.1320
   14MOL0     C 1775   6.720  10.655   1.512 -0.3872  1.1325  0.6830
   14MOL0     C 1776   6.691  10.681   1.658  1.2090  0.7821  0.3992
   14MOL0     C 1777   6.794  10.631   1.751  0.1928 -0.0297 -0.0323
   14MOL0     C 1778   6.855  10.492   1.744  0.0411 -0.3290  1.0838
   14MOL0     O 1779   6.963  10.479   1.847  0.7409  1.2671  0.7863
   14MOL0     C 1780   6.932  10.417   1.964 -0.2859 -0.1334  0.7165
   14MOL0     C 1781   7.053  10.380   2.031 -0.0471 -0.5558  0.3489
   14MOL0     C 1782   7.045  10.287   2.130 -0.2324  0.1377 -0.8808
   14MOL0     C 1783   7.175  10.219   2.175 -0.0811  0.2117  0.2499
   14MOL0     C 1784   6.922  10.252   2.189  0.1457  0.0993  1.3985
   14MOL0     C 1785   6.911  10.168   2.307 -0.2127  0.3589  0.2290
   14MOL0     O 1786   6.809  10.082   2.305 -0.0493 -0.5292  0.1313
   14MOL0     C 1787   6.776   9.995   2.407  0.1039 -0.3657  0.1096
   14MOL0     C 1788   6.857   9.972   2.521  0.0102 -0.3288 -0.1473
   14MOL0     C 1789   6.812   9.872   2.611  0.3397 -0.8235  1.1478
   14MOL0     C 1790   6.698   9.802   2.589 -0.0048  0.4222 -0.8990
   14MOL0     O 1791   6.665   9.708   2.685 -0.9938  0.2222  0.0240
   14MOL0     C 1792   6.572   9.604   2.659  0.4246  0.4112  0.2847
   14MOL0     C 1793   6.603   9.488   2.759  0.2798 -1.1097 -0.5386
   14MOL0     C 1794   6.508   9.354   2.759  0.3750  0.2337 -0.0739
   14MOL0     C 1795   6.586   9.230   2.695 -0.2611  0.4644  0.5620
   14MOL0     C 1796   6.519   9.089   2.731  0.2881 -0.3332 -0.1870
   14MOL0     C 1797   6.371   9.079   2.701  0.3057 -0.0147  0.1922
   14MOL0     C 1798   6.342   8.982   2.590  1.3429 -0.2197 -0.2324
   14MOL0     C 1799   6.192   8.994   2.540 -0.1521  0.2618 -0.8444
   14MOL0    Cl 1800   6.158   8.848   2.441  0.2312 -0.1286  0.2973
   14MOL0     C 1801   6.606   9.832   2.481  0.1820  0.5501 -0.3560
   14MOL0     C 1802   6.650   9.922   2.393 -0.7993  0.1966  1.1060
   14MOL0     O 1803   6.976  10.204   2.403  0.0920 -0.0538  0.2301
   14MOL0     C 1804   6.809  10.303   2.127  0.6989 -0.2366  1.4645
   14MOL0     C 1805   6.811  10.378   2.008  0.9613  0.9616 -0.2380
   14MOL0     N 1806   6.804  10.839   1.379  0.9174  0.4658  0.3104
   14MOL0     N 1807   6.907  10.884   1.315  0.2672  0.8952 -0.4069
   14MOL0     C 1808   7.049  10.963   0.800 -0.6502 -0.8978 -0.3820
   14MOL0     C 1809   6.975  10.853   0.752 -0.3585 -0.6452 -0.4900
   14MOL0     C 1810   6.850  10.433   0.653 -0.3752  0.5550 -1.3255
   14MOL0     C 1811   6.768  10.454   0.546  0.1438  0.5810  0.2249
   14MOL0     C 1812   6.666  10.365   0.503 -0.6553  0.3133 -0.2688
   14MOL0     C 1813   6.657  10.246   0.581  0.0655  0.8199 -1.1967
   14MOL0     O 1814   6.570  10.135   0.565 -0.9911  0.0444 -0.4861
   14MOL0     C 1815   6.609  10.053   0.448 -0.2189 -0.0362  0.2304
   14MOL0     C 1816   6.758  10.036   0.444  1.0855 -0.2016 -0.4370
   14MOL0     C 1817   6.815   9.920   0.347  0.8031 -0.4216  0.1109
   14MOL0     C 1818   6.958   9.943   0.281 -1.1808  0.1688  0.3952
   14MOL0     C 1819   6.977   9.836   0.183 -0.5018 -0.1130  0.8093
   14MOL0     C 1820   7.010   9.749   0.110  0.6717 -0.2118  0.0535
   14MOL0     C 1821   6.736  10.235   0.693  0.9253 -0.1122 -0.1912
   14MOL0     C 1822   6.826  10.334   0.735  0.1301 -0.0396 -0.5059
   14MOL0     H 1823   7.221  10.678   0.591  0.2892 -0.4120  0.2409
   14MOL0     H 1824   7.350  10.878   0.676  0.1507 -0.1123  0.4776
   14MOL0     H 1825   7.165  11.222   0.862 -1.1679 -0.1889  0.8887
   14MOL0     H 1826   7.148  11.115   1.002 -2.0714  0.1328 -1.4575
   14MOL0     H 1827   7.416  11.146   1.010  3.0691  4.3401 -2.9175
   14MOL0     H 1828   7.370  11.289   0.931 -1.0644  0.2196 -0.8343
   14MOL0     H 1829   7.398  11.307   1.177 -1.8508  0.9904  1.1099
   14MOL0     H 1830   7.227  11.333   1.150 -2.2322 -1.7843  0.8642
   14MOL0     H 1831   7.262  11.219   1.330  0.5155  3.5613 -2.1202
   14MOL0     H 1832   7.189  11.099   1.213 -1.1994  2.4981 -0.6921
   14MOL0     H 1833   7.397  10.994   1.168 -0.9391  1.3453  0.1318
   14MOL0     H 1834   7.479  11.110   1.270 -0.8515  0.6843  0.2282
   14MOL0     H 1835   7.423  10.868   1.361  0.0852 -0.2494 -2.4139
   14MOL0     H 1836   7.402  11.010   1.472 -2.9181  2.6504 -0.7886
   14MOL0     H 1837   7.214  10.866   1.520  0.7476 -2.2496 -0.6506
   14MOL0     H 1838   7.157  11.003   1.418  0.9240 -0.1056 -1.8111
   14MOL0     H 1839   7.198  10.708   1.313 -0.1239 -1.0691  1.3666
   14MOL0     H 1840   7.165  10.858   1.225 -1.8328 -0.4687  0.3369
   14MOL0     H 1841   7.018  10.631   1.511 -2.7107  1.7540  5.1793
   14MOL0     H 1842   6.633  10.671   1.447  0.3926 -1.7223 -1.2387
   14MOL0     H 1843   6.746  10.549   1.501  1.0498  1.4756  0.5449
   14MOL0     H 1844   6.613  10.618   1.702  3.2473 -0.7619  1.9928
   14MOL0     H 1845   6.665  10.785   1.678 -2.1624  0.3327 -0.9161
   14MOL0     H 1846   6.747  10.629   1.850 -0.4278  1.9315 -0.2527
   14MOL0     H 1847   6.872  10.707   1.762 -0.5300  0.4485  2.4562
   14MOL0     H 1848   6.913  10.479   1.652  2.5847 -1.3867  2.7201
   14MOL0     H 1849   6.785  10.408   1.753  3.6178 -3.4126  3.1013
   14MOL0     H 1850   7.150  10.382   1.981  2.3311 -2.8210  4.3529
   14MOL0     H 1851   7.149  10.117   2.205 -1.9568  0.8735  0.9670
   14MOL0     H 1852   7.245  10.201   2.093 -0.0742 -0.3171  0.3686
   14MOL0     H 1853   7.222  10.264   2.263  0.4490  3.4153 -1.5407
   14MOL0     H 1854   6.955  10.016   2.535  0.2216 -0.9670  0.4346
   14MOL0     H 1855   6.877   9.835   2.690 -0.9136 -1.2001  2.0393
   14MOL0     H 1856   6.474   9.649   2.675  1.7216  2.8724  2.0874
   14MOL0     H 1857   6.575   9.570   2.555 -0.5706  0.0840  0.3542
   14MOL0     H 1858   6.706   9.466   2.731 -0.0689 -2.6432 -0.7211
   14MOL0     H 1859   6.590   9.524   2.861 -2.3767 -0.4691 -1.0140
   14MOL0     H 1860   6.416   9.365   2.701  0.5759 -1.5548 -0.8018
   14MOL0     H 1861   6.482   9.328   2.863  0.5466  1.4970  0.2935
   14MOL0     H 1862   6.594   9.233   2.586 -2.8462 -0.0522  0.2946
   14MOL0     H 1863   6.688   9.230   2.736 -0.5499  2.2207  1.3835
   14MOL0     H 1864   6.532   9.080   2.839  1.9537  0.6222 -0.2764
   14MOL0     H 1865   6.575   9.008   2.684 -0.7524  0.8151 -3.6826
   14MOL0     H 1866   6.328   9.033   2.790 -1.4422  0.4388 -0.3755
   14MOL0     H 1867   6.322   9.173   2.672 -1.8024 -0.8738  0.7949
   14MOL0     H 1868   6.353   8.883   2.636 -1.4569  0.7431  2.8608
   14MOL0     H 1869   6.400   8.990   2.497  0.5501 -0.4597 -0.7582
   14MOL0     H 1870   6.165   9.084   2.485 -2.2111  0.0345 -0.2939
   14MOL0     H 1871   6.126   8.986   2.627  1.8901  0.0609  0.7700
   14MOL0     H 1872   6.515   9.774   2.466  1.3319 -1.1382 -1.1003
   14MOL0     H 1873   6.582   9.953   2.313 -0.6539  0.5503  1.1168
   14MOL0     H 1874   6.711  10.279   2.167 -0.6650 -1.6533 -2.2694
   14MOL0     H 1875   6.716  10.392   1.957  0.6767 -1.3769 -0.4185
   14MOL0     H 1876   7.011  11.029   0.876 -0.5705 -2.3144  0.9397
   14MOL0     H 1877   6.871  10.850   0.781  0.1139  1.4049  1.7325
   14MOL0     H 1878   6.800  10.531   0.476 -2.0629  0.4126 -1.0790
   14MOL0     H 1879   6.598  10.375   0.419 -1.6343 -1.4657  0.2559
   14MOL0     H 1880   6.558   9.956   0.458 -3.2005  1.2097 -1.7421
   14MOL0     H 1881   6.582  10.094   0.351  2.6582 -1.2400 -1.2018
   14MOL0     H 1882   6.780  10.022   0.550  0.2540  2.1183  0.0931
   14MOL0     H 1883   6.810  10.129   0.421 -2.1198  2.7933  3.0678
   14MOL0     H 1884   6.753   9.913   0.257  1.0652  0.3690 -0.1413
   14MOL0     H 1885   6.822   9.824   0.398  1.6304  0.0571  0.9384
   14MOL0     H 1886   7.041   9.943   0.352 -0.9621 -1.1059  0.1628
   14MOL0     H 1887   6.965  10.044   0.240  2.9229  0.8111  2.1569
   14MOL0     H 1888   7.032   9.666   0.046 -3.8104  0.0693 -2.2412
   14MOL0     H 1889   6.732  10.149   0.761 -1.3654 -0.1169 -0.2651
   14MOL0     H 1890   6.895  10.318   0.816  2.0182  1.6756 -1.6836
   15MOL0     O 1891   2.054  10.504   5.989 -0.3401  0.2792  0.0907
   15MOL0     C 1892   2.090  10.396   5.950 -0.5236 -0.3536 -0.1508
   15MOL0     O 1893   2.111  10.362   5.816 -0.3261  0.4122 -0.7956
   15MOL0     C 1894   2.086  10.459   5.723 -0.1240 -0.0986  0.4385
   15MOL0     C 1895   2.179  10.469   5.617 -0.0899  0.4565  0.3906
   15MOL0     C 1896   2.147  10.550   5.506 -0.7436 -0.2996  0.0031
   15MOL0     C 1897   2.043  10.637   5.503  0.7064  0.3383 -0.5911
   15MOL0     O 1898   2.033  10.709   5.383 -0.2925  0.3326  0.0594
   15MOL0     C 1899   1.928  10.802   5.368 -0.0915 -0.1591  0.0833
   15MOL0     C 1900   1.926  10.865   5.225  0.1671  0.2243  1.2512
   15MOL0     C 1901   1.815  10.958   5.186 -0.0756  0.5869 -0.6623
   15MOL0     C 1902   1.798  10.985   5.030  0.5641  0.7725 -0.0090
   15MOL0     C 1903   1.680  11.084   5.015 -1.0143  0.0135 -1.4374
   15MOL0     C 1904   1.647  11.127   4.873 -1.3903 -0.6299  0.1609
   15MOL0     C 1905   1.762  11.223   4.838  0.0382 -0.7718  0.1785
   15MOL0     C 1906   1.716  11.297   4.714 -0.8713 -0.5835 -0.8003
   15MOL0     N 1907   1.801  11.416   4.684  0.0479 -0.1587  0.6509
   15MOL0     C 1908   1.899  11.424   4.587 -0.4170  0.4463  0.3973
   15MOL0     C 1909   1.924  11.552   4.567 -0.3652 -0.1689 -0.5496
   15MOL0     C 1910   2.035  11.626   4.479  0.2291  0.0283 -0.2786
   15MOL0     C 1911   2.098  11.534   4.369 -1.0155  0.6994  0.1277
   15MOL0     C 1912   1.988  11.480   4.270  0.0040 -0.9057 -0.0774
   15MOL0     C 1913   1.895  11.593   4.211 -0.2656  0.6934 -0.1324
   15MOL0     O 1914   1.810  11.521   4.124 -0.9912  0.2570  0.8763
   15MOL0     C 1915   1.810  11.571   3.996  0.8994  0.3401  0.3572
   15MOL0     C 1916   1.908  11.572   3.905 -0.3145  0.3568 -1.0188
   15MOL0     C 1917   1.887  11.621   3.776 -0.5620 -0.6280 -0.3560
   15MOL0     C 1918   2.008  11.623   3.686 -0.3325  0.3753 -0.3060
   15MOL0     C 1919   1.766  11.664   3.733  0.0028  0.2007  0.1840
   15MOL0     C 1920   1.737  11.703   3.596  1.1200  0.2735 -1.5047
   15MOL0     O 1921   1.659  11.813   3.574 -0.3170 -0.4260  0.0341
   15MOL0     C 1922   1.599  11.846   3.455 -0.1732 -0.5085  0.0977
   15MOL0     C 1923   1.574  11.759   3.349  0.0448  0.5420  0.0876
   15MOL0     C 1924   1.488  11.794   3.246  1.0001  0.7194  0.3661
   15MOL0     C 1925   1.436  11.928   3.239 -0.4880 -0.2923 -0.4235
   15MOL0     O 1926   1.359  11.971   3.130 -0.0105 -0.4802 -1.0006
   15MOL0     C 1927   1.363  11.887   3.007  0.0577 -1.2391 -0.7651
   15MOL0     C 1928   1.304  11.961   2.883  0.4907  0.0943  0.4691
   15MOL0     C 1929   1.181  12.038   2.923 -0.2070  0.9761 -0.3925
   15MOL0     C 1930   1.099  12.090   2.800 -0.6185  1.2256 -1.1956
   15MOL0     C 1931   0.981  12.172   2.832 -0.9844  0.1077 -0.7082
   15MOL0     C 1932   1.017  12.273   2.936  0.9325 -0.2261 -0.4340
   15MOL0     C 1933   0.928  12.395   2.955  0.0258  0.2986  1.1728
   15MOL0     C 1934   0.809  12.384   3.051 -0.6498 -0.1897  0.1841
   15MOL0    Cl 1935   0.719  12.234   3.038 -0.0849  0.2539  0.2885
   15MOL0     C 1936   1.472  12.012   3.347 -0.0595  0.9975  0.1588
   15MOL0     C 1937   1.546  11.974   3.449  0.2443  0.5043  0.6919
   15MOL0     O 1938   1.780  11.628   3.509  0.1573 -0.4113  0.0238
   15MOL0     C 1939   1.670  11.671   3.831 -0.3949 -0.6407 -0.4634
   15MOL0     C 1940   1.684  11.618   3.962 -0.7120 -0.6373 -0.1972
   15MOL0     N 1941   1.840  11.620   4.657 -0.0591 -0.0164 -0.2532
   15MOL0     N 1942   1.776  11.542   4.728 -0.4134 -1.2582  0.2088
   15MOL0     C 1943   1.956  10.630   5.613 -0.3414 -0.1209 -0.1463
   15MOL0     C 1944   1.975  10.541   5.720  0.0019 -0.0829  0.3374
   15MOL0     C 1945   2.132  10.310   6.055  0.5334  0.3725 -0.0699
   15MOL0     C 1946   2.186  10.358   6.176  0.2509 -0.8900  0.0876
   15MOL0     C 1947   2.222  10.269   6.273  0.2507 -0.3801 -0.6517
   15MOL0     C 1948   2.210  10.125   6.250 -1.4740 -0.1891 -0.0582
   15MOL0     O 1949   2.263  10.027   6.333  0.7492 -0.0081  0.2609
   15MOL0     C 1950   2.324  10.071   6.454 -0.1522 -0.8141  0.1320
   15MOL0     C 1951   2.389   9.957   6.538 -0.0856  0.7351  0.0788
   15MOL0     C 1952   2.477  10.028   6.641  0.0270  0.1194  0.2395
   15MOL0     C 1953   2.538   9.940   6.744 -0.2090 -0.1429 -0.0296
   15MOL0     C 1954   2.636   9.851   6.684  0.5706  0.0945 -0.5093
   15MOL0     C 1955   2.708   9.778   6.618 -0.1197  0.1948 -0.0903
   15MOL0     C 1956   2.152  10.082   6.138  0.1177  0.0479  0.5585
   15MOL0     C 1957   2.107  10.172   6.043 -0.4628 -0.3318  0.3249
   15MOL0     H 1958   2.262  10.400   5.613 -1.1336 -0.7615 -1.2500
   15MOL0     H 1959   2.204  10.521   5.418 -0.1818  0.8686 -0.0403
   15MOL0     H 1960   1.832  10.752   5.385  0.6924 -2.5917 -1.9433
   15MOL0     H 1961   1.936  10.881   5.443 -0.1497 -1.9436  2.0622
   15MOL0     H 1962   2.019  10.922   5.217 -0.6914  1.6617  1.2218
   15MOL0     H 1963   1.931  10.787   5.148 -2.6832  1.8767 -0.8559
   15MOL0     H 1964   1.718  10.933   5.228 -1.1805  2.3540 -1.9914
   15MOL0     H 1965   1.840  11.055   5.230  4.4426 -0.0781 -1.2345
   15MOL0     H 1966   1.894  11.008   4.983  0.7597 -1.8492 -1.0917
   15MOL0     H 1967   1.766  10.891   4.984 -1.6735  1.5537 -0.1375
   15MOL0     H 1968   1.589  11.037   5.052 -0.9673 -0.4303 -1.8700
   15MOL0     H 1969   1.704  11.176   5.070 -0.9281  1.5437 -3.8694
   15MOL0     H 1970   1.654  11.037   4.812 -0.0527 -1.5034  1.5431
   15MOL0     H 1971   1.546  11.167   4.866 -1.6741 -0.9386  1.9969
   15MOL0     H 1972   1.776  11.286   4.926  2.7222  0.0101 -0.7012
   15MOL0     H 1973   1.851  11.164   4.815 -0.6812 -2.5491  1.6554
   15MOL0     H 1974   1.612  11.328   4.728 -0.9951 -1.3508  0.0585
   15MOL0     H 1975   1.719  11.227   4.630 -2.6215 -1.9192  0.1715
   15MOL0     H 1976   1.941  11.342   4.529  0.1604  1.0072  0.0008
   15MOL0     H 1977   1.987  11.718   4.444  1.5124  0.9008  0.1488
   15MOL0     H 1978   2.124  11.671   4.525  0.3070  1.5863 -1.8284
   15MOL0     H 1979   2.160  11.449   4.397 -1.0724 -0.3734 -2.6463
   15MOL0     H 1980   2.167  11.592   4.307  2.6088 -1.6861  1.6262
   15MOL0     H 1981   1.932  11.394   4.309  1.1815 -2.1731 -1.0599
   15MOL0     H 1982   2.048  11.433   4.191  3.1056  0.0928  1.4965
   15MOL0     H 1983   1.953  11.667   4.155 -1.4531  1.4129 -0.4491
   15MOL0     H 1984   1.841  11.639   4.295 -2.1983 -1.5563 -0.0408
   15MOL0     H 1985   2.008  11.543   3.935  0.8384  2.8510 -2.1470
   15MOL0     H 1986   2.099  11.647   3.742 -1.2324  0.3826  1.1996
   15MOL0     H 1987   2.030  11.520   3.659  0.5328  0.6743 -0.7843
   15MOL0     H 1988   2.002  11.688   3.598 -1.8515  1.3663  0.4678
   15MOL0     H 1989   1.602  11.655   3.356 -1.7110 -0.1434 -1.8747
   15MOL0     H 1990   1.458  11.719   3.174  2.0719  0.6756 -0.0456
   15MOL0     H 1991   1.469  11.873   2.983  0.8684  3.6905 -1.1086
   15MOL0     H 1992   1.317  11.790   3.025 -2.9156  0.7359  4.5242
   15MOL0     H 1993   1.381  12.032   2.851 -1.7715  3.7498  2.4062
   15MOL0     H 1994   1.284  11.889   2.803  1.6575 -0.0539  0.2977
   15MOL0     H 1995   1.204  12.121   2.990  0.7487 -0.6181  1.3457
   15MOL0     H 1996   1.108  11.987   2.986 -0.4575  3.3143  1.3400
   15MOL0     H 1997   1.172  12.159   2.757 -0.5331  5.3329  4.4488
   15MOL0     H 1998   1.066  12.005   2.740 -1.3888 -0.7157  1.7388
   15MOL0     H 1999   0.901  12.110   2.873 -1.8385  0.2043 -2.1245
   15MOL0     H 2000   0.950  12.221   2.739 -2.2824  0.7875  0.0498
   15MOL0     H 2001   1.041  12.229   3.034 -0.6351 -0.5145 -0.1454
   15MOL0     H 2002   1.111  12.320   2.905  0.1144  0.3239 -2.1580
   15MOL0     H 2003   0.898  12.417   2.852  1.6223 -2.2478  0.0537
   15MOL0     H 2004   0.991  12.476   2.994  1.3640 -1.2867  2.4481
   15MOL0     H 2005   0.751  12.472   3.021  1.1207  1.4656  1.4034
   15MOL0     H 2006   0.846  12.398   3.152  2.5864 -1.3994 -0.7196
   15MOL0     H 2007   1.405  12.098   3.346 -2.3222 -0.6459  1.2076
   15MOL0     H 2008   1.557  12.048   3.527  0.3080  0.4276  0.7547
   15MOL0     H 2009   1.580  11.720   3.797  1.6952  3.7385 -0.3839
   15MOL0     H 2010   1.599  11.613   4.030 -1.3734  2.1373 -0.7009
   15MOL0     H 2011   1.874  10.701   5.625 -2.5599 -2.0922 -2.4297
   15MOL0     H 2012   1.905  10.534   5.803  0.3558 -1.1268  0.5651
   15MOL0     H 2013   2.212  10.462   6.195 -1.3204 -0.2583 -1.0135
   15MOL0     H 2014   2.261  10.322   6.359 -2.3599  2.8472 -1.2354
   15MOL0     H 2015   2.414  10.124   6.421  1.6396 -2.6064  1.8361
   15MOL0     H 2016   2.246  10.123   6.511 -0.1255 -0.4416 -0.1671
   15MOL0     H 2017   2.444   9.898   6.465 -0.1144  0.8395 -0.0275
   15MOL0     H 2018   2.303   9.901   6.577 -0.3177  0.5084 -0.7393
   15MOL0     H 2019   2.431  10.114   6.690 -2.6719 -0.9937 -0.1822
   15MOL0     H 2020   2.562  10.066   6.584 -3.1454  1.7855 -3.9036
   15MOL0     H 2021   2.463   9.885   6.801 -0.6539  0.1732 -0.2998
   15MOL0     H 2022   2.593   9.999   6.817 -1.5149  1.1408 -0.0321
   15MOL0     H 2023   2.765   9.709   6.559  1.4545 -0.2643  1.8437
   15MOL0     H 2024   2.136   9.976   6.120 -2.3448  0.4897 -0.1959
   15MOL0     H 2025   2.054  10.133   5.956  0.9421 -1.4728 -0.0411
   16MOL0     O 2026   5.138   4.865   8.421  0.6759 -0.2568 -0.0720
   16MOL0     C 2027   5.215   4.887   8.515 -0.2594 -0.0178 -0.6093
   16MOL0     O 2028   5.208   4.989   8.609  0.1233  0.8089  0.3378
   16MOL0     C 2029   5.120   5.087   8.579  0.3971 -0.3683  0.6979
   16MOL0     C 2030   5.158   5.220   8.527 -0.2615  0.0419  0.0113
   16MOL0     C 2031   5.054   5.319   8.495 -0.5576  0.4978 -0.3458
   16MOL0     C 2032   4.918   5.284   8.511  0.3433 -0.5664  0.1450
   16MOL0     O 2033   4.811   5.357   8.461 -0.6650 -0.6037 -0.2057
   16MOL0     C 2034   4.804   5.503   8.451  0.2331 -0.0415  0.0626
   16MOL0     C 2035   4.799   5.551   8.311 -0.5816  0.8638 -0.0033
   16MOL0     C 2036   4.671   5.485   8.245  0.8002  0.8553  0.1750
   16MOL0     C 2037   4.681   5.521   8.099  0.9057 -0.0060 -0.1247
   16MOL0     C 2038   4.556   5.476   8.009 -0.7999  0.8913  0.7899
   16MOL0     C 2039   4.567   5.524   7.856 -0.6185 -0.5579 -1.0213
   16MOL0     C 2040   4.676   5.450   7.769  0.7443 -0.8512  0.8995
   16MOL0     C 2041   4.717   5.543   7.649 -0.1114  0.0772 -0.4003
   16MOL0     N 2042   4.635   5.548   7.529 -0.9678 -0.5100  0.5749
   16MOL0     C 2043   4.582   5.657   7.463 -0.2698 -0.3524  0.4837
   16MOL0     C 2044   4.512   5.610   7.360 -0.2686 -0.7766  0.2711
   16MOL0     C 2045   4.430   5.688   7.264 -0.2417  0.1708  0.1741
   16MOL0     C 2046   4.487   5.681   7.125  0.6432 -0.5863  0.4175
   16MOL0     C 2047   4.503   5.554   7.053 -0.9009 -0.2477  0.6089
   16MOL0     C 2048   4.383   5.464   7.044  1.2236  0.6118  1.0410
   16MOL0     O 2049   4.308   5.496   6.915  0.5480  0.0660 -0.4237
   16MOL0     C 2050   4.213   5.402   6.875 -0.5513 -0.1793 -1.2560
   16MOL0     C 2051   4.206   5.272   6.924  0.5485 -0.1790 -0.4919
   16MOL0     C 2052   4.111   5.178   6.880 -0.2243 -0.3805 -0.0643
   16MOL0     C 2053   4.100   5.055   6.951 -0.1507 -1.0120  0.4940
   16MOL0     C 2054   4.010   5.217   6.787 -0.6825 -0.5279  0.3272
   16MOL0     C 2055   3.911   5.129   6.720 -0.3031  0.6978 -0.3395
   16MOL0     O 2056   3.796   5.186   6.698  0.7521 -0.3074  0.3754
   16MOL0     C 2057   3.694   5.105   6.646 -0.6393  1.4848  0.1157
   16MOL0     C 2058   3.716   5.013   6.536 -0.2856  0.0505  0.3833
   16MOL0     C 2059   3.604   4.949   6.482  0.3168  0.4942  0.1228
   16MOL0     C 2060   3.472   4.975   6.540 -0.4402 -0.1950  0.0617
   16MOL0     O 2061   3.363   4.911   6.501  0.2097  0.3467 -0.4904
   16MOL0     C 2062   3.353   4.765   6.510  0.6031  0.2007 -0.4615
   16MOL0     C 2063   3.348   4.721   6.361  0.0711  0.5533 -0.0083
   16MOL0     C 2064   3.328   4.566   6.342 -0.8474  0.1673 -1.6070
   16MOL0     C 2065   3.457   4.492   6.372 -0.7929  0.1549  0.0644
   16MOL0     C 2066   3.444   4.335   6.381  0.5332  0.6799 -0.4787
   16MOL0     C 2067   3.566   4.269   6.307 -0.5482  0.3947 -0.3558
   16MOL0     C 2068   3.552   4.115   6.293 -0.1380  0.0840  0.1533
   16MOL0     C 2069   3.581   4.066   6.154 -0.2159  0.0087  0.1905
   16MOL0    Cl 2070   3.740   4.127   6.097 -0.3807 -0.4012  0.1665
   16MOL0     C 2071   3.454   5.061   6.641 -0.0809  0.3646 -0.0954
   16MOL0     C 2072   3.565   5.125   6.694  0.6950  0.1012  0.2347
   16MOL0     O 2073   3.946   5.016   6.698  0.2351 -0.3514  0.1111
   16MOL0     C 2074   4.031   5.344   6.734 -0.4139  0.3156 -0.3144
   16MOL0     C 2075   4.129   5.446   6.778  0.6397  0.2069  0.0969
   16MOL0     N 2076   4.531   5.470   7.356 -0.5397 -0.4207 -0.1796
   16MOL0     N 2077   4.609   5.437   7.454  0.8850 -0.8863 -0.1294
   16MOL0     C 2078   4.888   5.155   8.562 -0.4366 -0.0173 -0.0147
   16MOL0     C 2079   4.981   5.061   8.602  0.2594  0.9043 -0.3046
   16MOL0     C 2080   5.333   4.799   8.519  0.9587 -0.7165 -1.5395
   16MOL0     C 2081   5.392   4.777   8.650 -0.1068 -0.7391  0.3549
   16MOL0     C 2082   5.514   4.706   8.661 -0.4465 -0.4675  0.1823
   16MOL0     C 2083   5.562   4.646   8.546  0.3735  0.6813  0.0682
   16MOL0     O 2084   5.680   4.570   8.538 -0.3973  1.2215  0.1107
   16MOL0     C 2085   5.753   4.547   8.665  0.1029  0.0934 -0.8970
   16MOL0     C 2086   5.692   4.430   8.750 -0.0994  0.3044 -0.6442
   16MOL0     C 2087   5.795   4.393   8.858 -0.1167 -0.1941 -0.3738
   16MOL0     C 2088   5.744   4.270   8.933 -0.7276  0.0369  0.7267
   16MOL0     C 2089   5.839   4.219   9.030  0.3732  0.1930  0.5944
   16MOL0     C 2090   5.911   4.189   9.116 -0.3292  0.0456 -0.0267
   16MOL0     C 2091   5.499   4.668   8.424 -0.0043  0.1356 -0.1437
   16MOL0     C 2092   5.386   4.737   8.414  0.6725  0.1692 -0.9118
   16MOL0     H 2093   5.263   5.245   8.514  0.1646 -2.1898 -1.2727
   16MOL0     H 2094   5.080   5.409   8.441  0.1216  0.8961  0.6198
   16MOL0     H 2095   4.716   5.550   8.493 -0.3961 -0.0110 -1.2290
   16MOL0     H 2096   4.890   5.530   8.514  1.6309 -3.9007  0.0972
   16MOL0     H 2097   4.796   5.660   8.304 -2.7116  0.9166  0.9399
   16MOL0     H 2098   4.887   5.517   8.256 -0.3528 -0.8936  1.3583
   16MOL0     H 2099   4.665   5.376   8.248 -0.1769  0.8573 -1.1314
   16MOL0     H 2100   4.574   5.519   8.282  1.6951  3.4445  0.3481
   16MOL0     H 2101   4.685   5.626   8.067 -0.5390  0.2667  0.4954
   16MOL0     H 2102   4.772   5.474   8.063  0.8532  1.7976 -2.9001
   16MOL0     H 2103   4.549   5.367   8.012  1.9455  0.6273  0.7720
   16MOL0     H 2104   4.461   5.511   8.049 -1.7980  0.0504 -0.7527
   16MOL0     H 2105   4.472   5.529   7.802 -0.4756  2.2254 -1.1628
   16MOL0     H 2106   4.612   5.623   7.860  1.5696 -1.5302  1.1277
   16MOL0     H 2107   4.763   5.435   7.833  2.6500 -0.6202 -1.4915
   16MOL0     H 2108   4.644   5.353   7.729 -0.8672  0.3598 -0.9648
   16MOL0     H 2109   4.811   5.490   7.632  1.0333  0.7922  2.8783
   16MOL0     H 2110   4.756   5.643   7.667  2.3204 -0.7982 -0.4059
   16MOL0     H 2111   4.583   5.759   7.501  0.1634 -0.3235  0.4021
   16MOL0     H 2112   4.329   5.646   7.253  1.3528 -3.7034 -1.5917
   16MOL0     H 2113   4.416   5.792   7.293 -0.3968  0.1413  0.2106
   16MOL0     H 2114   4.583   5.733   7.126  1.9088 -2.7989  2.0792
   16MOL0     H 2115   4.422   5.750   7.070 -0.6194  0.5865  3.1957
   16MOL0     H 2116   4.587   5.496   7.092  0.2266 -1.5910 -3.3012
   16MOL0     H 2117   4.541   5.585   6.955  2.2307 -0.8013  1.5340
   16MOL0     H 2118   4.324   5.481   7.135  0.5538  0.9192  0.5630
   16MOL0     H 2119   4.417   5.360   7.037  0.3830  0.1700  3.0432
   16MOL0     H 2120   4.280   5.222   6.986  0.6508 -0.8323 -1.1247
   16MOL0     H 2121   4.161   5.058   7.042  0.4597 -1.0333  0.0849
   16MOL0     H 2122   3.995   5.041   6.978  0.5497 -4.6355  1.9435
   16MOL0     H 2123   4.128   4.968   6.891 -1.5214 -0.2795 -1.3114
   16MOL0     H 2124   3.815   5.007   6.492  0.1425  1.3299  1.1067
   16MOL0     H 2125   3.600   4.870   6.408 -1.4395 -2.6082  3.2268
   16MOL0     H 2126   3.427   4.713   6.572  0.5113  2.9203  2.1885
   16MOL0     H 2127   3.260   4.749   6.566  1.4904  1.4089  1.4613
   16MOL0     H 2128   3.259   4.770   6.322 -1.6714 -1.3767  1.3626
   16MOL0     H 2129   3.429   4.761   6.299 -1.3674 -1.1572 -3.2290
   16MOL0     H 2130   3.302   4.547   6.237 -0.0515 -2.3263 -1.4255
   16MOL0     H 2131   3.253   4.530   6.413  0.8432  1.7203  1.1243
   16MOL0     H 2132   3.527   4.510   6.290 -2.2102  1.5015 -0.8947
   16MOL0     H 2133   3.501   4.534   6.463 -2.7016 -0.5225  1.3640
   16MOL0     H 2134   3.353   4.295   6.334 -0.9775  3.6663 -0.2808
   16MOL0     H 2135   3.450   4.306   6.486  1.2486  2.9573  0.1617
   16MOL0     H 2136   3.571   4.306   6.204 -2.0757  1.4009 -0.0911
   16MOL0     H 2137   3.658   4.295   6.360 -0.9121  0.4730  0.2373
   16MOL0     H 2138   3.447   4.101   6.320 -0.1976  1.9329  1.0177
   16MOL0     H 2139   3.626   4.062   6.354  3.0632  0.8361 -2.7722
   16MOL0     H 2140   3.509   4.115   6.087 -2.4177 -3.8973 -0.6353
   16MOL0     H 2141   3.567   3.960   6.134  1.5158 -0.1622 -0.2478
   16MOL0     H 2142   3.361   5.089   6.689 -0.2915  1.6423 -1.2035
   16MOL0     H 2143   3.566   5.190   6.781 -0.1681 -0.3231  0.5751
   16MOL0     H 2144   3.969   5.364   6.647  1.3546 -0.7878 -1.9136
   16MOL0     H 2145   4.150   5.539   6.726  1.0508 -1.9391 -3.9624
   16MOL0     H 2146   4.782   5.136   8.575 -0.3203 -1.3992 -0.9151
   16MOL0     H 2147   4.939   4.968   8.640 -0.0987 -0.9724 -4.6625
   16MOL0     H 2148   5.362   4.831   8.740 -1.9732  2.0990 -1.7831
   16MOL0     H 2149   5.553   4.699   8.762 -2.1998  0.9714  1.0159
   16MOL0     H 2150   5.854   4.531   8.625  0.6428 -0.1803  0.4833
   16MOL0     H 2151   5.765   4.637   8.725 -0.6819  0.9466 -1.9876
   16MOL0     H 2152   5.669   4.352   8.677 -3.3664  2.1368 -1.8044
   16MOL0     H 2153   5.601   4.466   8.799  0.4350  0.8434 -0.0210
   16MOL0     H 2154   5.795   4.469   8.936 -3.0091  0.2590 -0.7126
   16MOL0     H 2155   5.896   4.382   8.817 -1.2589 -2.5927 -2.8875
   16MOL0     H 2156   5.717   4.199   8.854  0.8010  1.9290 -1.6673
   16MOL0     H 2157   5.651   4.284   8.990 -1.2920 -1.3899  0.2039
   16MOL0     H 2158   5.967   4.152   9.199  0.9180  1.3175 -0.2628
   16MOL0     H 2159   5.539   4.618   8.336  1.5805  1.8006 -0.4214
   16MOL0     H 2160   5.347   4.760   8.316 -0.0429  3.5467  0.0299
   17MOL0     O 2161   6.655   9.359   8.506  0.2343 -0.1344  0.4002
   17MOL0     C 2162   6.715   9.416   8.595 -0.7989 -0.2755 -0.0514
   17MOL0     O 2163   6.662   9.503   8.692  0.3777  0.2390  0.8572
   17MOL0     C 2164   6.528   9.538   8.679 -0.5445 -0.4625  0.0679
   17MOL0     C 2165   6.502   9.664   8.736  0.4223  0.8015  0.2121
   17MOL0     C 2166   6.373   9.700   8.768 -0.4592 -0.6001 -0.3484
   17MOL0     C 2167   6.264   9.616   8.745 -0.0254  0.3335  0.0650
   17MOL0     O 2168   6.136   9.655   8.776 -0.3896 -0.1600 -0.3592
   17MOL0     C 2169   6.097   9.760   8.687  0.7715 -0.0216 -0.0853
   17MOL0     C 2170   5.945   9.777   8.699  0.8880  0.5211  0.2576
   17MOL0     C 2171   5.843   9.656   8.648 -0.6355  0.3952 -0.8128
   17MOL0     C 2172   5.901   9.553   8.550 -0.0452  0.3485  1.2414
   17MOL0     C 2173   5.896   9.620   8.407 -1.0203 -0.6188  0.4840
   17MOL0     C 2174   5.967   9.540   8.308  0.4239  0.1760  0.4059
   17MOL0     C 2175   6.125   9.542   8.333  0.9513 -0.3314  0.0677
   17MOL0     C 2176   6.193   9.457   8.220 -0.3402  0.0793 -0.7422
   17MOL0     N 2177   6.185   9.517   8.091 -0.0513  0.5619  0.0342
   17MOL0     C 2178   6.245   9.644   8.067 -0.4713  0.1807 -1.4355
   17MOL0     C 2179   6.247   9.648   7.935  0.3224  0.5686  1.2007
   17MOL0     C 2180   6.309   9.746   7.848  0.0455 -0.1822  0.3449
   17MOL0     C 2181   6.446   9.689   7.796 -1.2236 -0.2003  0.1501
   17MOL0     C 2182   6.526   9.805   7.756 -0.5967  0.9444  0.3686
   17MOL0     C 2183   6.673   9.758   7.744  0.3980  0.4140  0.3106
   17MOL0     O 2184   6.731   9.734   7.871  0.5728  0.0735  0.2943
   17MOL0     C 2185   6.809   9.839   7.910  0.2076 -0.1277 -0.0726
   17MOL0     C 2186   6.942   9.841   7.866 -0.4399  1.1958  0.7538
   17MOL0     C 2187   7.028   9.947   7.900  1.0568  0.9998  0.4469
   17MOL0     C 2188   7.164   9.947   7.830 -0.2909  0.7961 -0.0269
   17MOL0     C 2189   6.975  10.052   7.984 -0.1047 -0.2128 -0.9573
   17MOL0     C 2190   7.065  10.170   8.037  0.1393  0.2615  0.2040
   17MOL0     O 2191   6.991  10.285   8.078  0.0497  0.3674  0.4581
   17MOL0     C 2192   7.040  10.391   8.137  0.5394 -0.3651  0.0134
   17MOL0     C 2193   7.017  10.520   8.077 -0.7313 -0.6094  0.2123
   17MOL0     C 2194   7.077  10.636   8.128  0.9351  1.0673  0.7610
   17MOL0     C 2195   7.150  10.631   8.247 -0.7847 -0.2456 -0.3378
   17MOL0     O 2196   7.209  10.747   8.308 -0.4085  0.0097 -0.5714
   17MOL0     C 2197   7.170  10.876   8.271  0.6974  0.2360 -0.6461
   17MOL0     C 2198   7.191  10.960   8.395  0.7034 -0.8737 -0.1715
   17MOL0     C 2199   7.187  11.111   8.350  0.2930 -0.6751  0.1951
   17MOL0     C 2200   7.150  11.193   8.478 -0.0607 -0.3459 -0.1929
   17MOL0     C 2201   7.155  11.344   8.468 -1.4037  0.5531  0.4156
   17MOL0     C 2202   7.085  11.400   8.584  1.4201 -1.0965 -0.0692
   17MOL0     C 2203   7.090  11.558   8.579 -0.6249 -0.3347 -0.3512
   17MOL0     C 2204   7.004  11.617   8.466  0.2462  0.0439 -0.1275
   17MOL0    Cl 2205   7.098  11.626   8.321  0.0993 -0.1644  0.3341
   17MOL0     C 2206   7.169  10.507   8.312 -0.1826  0.7361 -0.5651
   17MOL0     C 2207   7.131  10.388   8.248  0.0387  0.2555  0.0472
   17MOL0     O 2208   7.179  10.159   8.047 -0.2469  0.8852  0.4553
   17MOL0     C 2209   6.844  10.044   8.033  0.5084 -0.5941  1.3568
   17MOL0     C 2210   6.756   9.939   7.997  0.0784 -0.2797 -0.2940
   17MOL0     N 2211   6.204   9.531   7.876  0.3610  0.7774 -0.5185
   17MOL0     N 2212   6.175   9.451   7.972  0.1011  0.4809  0.4608
   17MOL0     C 2213   6.287   9.494   8.676 -0.8624 -0.0110 -0.0199
   17MOL0     C 2214   6.419   9.458   8.635 -0.6526  0.0110 -0.9379
   17MOL0     C 2215   6.868   9.384   8.598  1.0396 -0.3709  0.5116
   17MOL0     C 2216   6.909   9.263   8.551  0.8265 -0.2071 -0.4997
   17MOL0     C 2217   7.043   9.215   8.574  0.1850  0.5666  1.8131
   17MOL0     C 2218   7.131   9.293   8.647 -0.5490 -0.8450  0.0919
   17MOL0     O 2219   7.260   9.260   8.677 -0.9277  0.1620  0.4138
   17MOL0     C 2220   7.309   9.128   8.686  0.3173 -0.4784 -0.1968
   17MOL0     C 2221   7.396   9.109   8.819 -0.0814 -0.0465 -1.0082
   17MOL0     C 2222   7.520   9.190   8.831  0.9531 -0.4513  0.5973
   17MOL0     C 2223   7.587   9.147   8.964 -0.6698  0.8185 -1.0159
   17MOL0     C 2224   7.516   9.167   9.089  1.4476  0.3892 -0.7582
   17MOL0     C 2225   7.440   9.190   9.187 -0.1140 -0.0838  0.0282
   17MOL0     C 2226   7.094   9.421   8.678  0.1473 -0.5744  0.4565
   17MOL0     C 2227   6.956   9.461   8.663 -0.6897  0.2133  0.9627
   17MOL0     H 2228   6.585   9.731   8.757  0.7295  1.7692 -3.4978
   17MOL0     H 2229   6.354   9.800   8.805  2.4794 -0.2974  0.5471
   17MOL0     H 2230   6.144   9.856   8.711 -2.9681  1.4190  2.3738
   17MOL0     H 2231   6.118   9.732   8.584 -0.5951 -1.4258 -0.0274
   17MOL0     H 2232   5.916   9.798   8.803 -2.1885  0.0998 -0.4375
   17MOL0     H 2233   5.925   9.868   8.643 -0.8741  0.3568  0.5802
   17MOL0     H 2234   5.809   9.602   8.736  0.9627  1.2766  0.4005
   17MOL0     H 2235   5.752   9.698   8.603 -0.8142 -1.2421 -2.0352
   17MOL0     H 2236   6.000   9.516   8.576 -1.3840 -3.8325  1.1707
   17MOL0     H 2237   5.840   9.463   8.545 -0.1500  0.4737 -1.5840
   17MOL0     H 2238   5.792   9.633   8.378 -1.2866 -4.2224 -0.7004
   17MOL0     H 2239   5.948   9.716   8.403  2.7065 -2.3562  2.3152
   17MOL0     H 2240   5.920   9.441   8.310 -0.2150  0.2988 -2.9273
   17MOL0     H 2241   5.947   9.570   8.205 -3.7904 -1.2506  0.6184
   17MOL0     H 2242   6.176   9.638   8.337  2.3977 -1.0625 -0.2106
   17MOL0     H 2243   6.143   9.487   8.426  0.6571 -0.4429  0.0577
   17MOL0     H 2244   6.149   9.358   8.207  0.4817 -0.6365  1.3939
   17MOL0     H 2245   6.296   9.447   8.257 -0.7724 -0.0420  0.4715
   17MOL0     H 2246   6.301   9.697   8.143  1.8802 -2.4844 -1.1404
   17MOL0     H 2247   6.233   9.773   7.774  2.5249  0.7425 -2.0579
   17MOL0     H 2248   6.329   9.836   7.906 -0.4487  0.1963 -0.0578
   17MOL0     H 2249   6.435   9.627   7.707  3.1628  2.7158 -2.8085
   17MOL0     H 2250   6.492   9.642   7.884  1.0937 -0.0201 -0.9202
   17MOL0     H 2251   6.534   9.882   7.833  0.8726  0.7130  0.4733
   17MOL0     H 2252   6.483   9.856   7.669  0.3095 -0.8010 -1.1856
   17MOL0     H 2253   6.727   9.834   7.687  0.7555 -0.6549 -0.8387
   17MOL0     H 2254   6.679   9.665   7.687 -0.9312  1.5132 -1.7550
   17MOL0     H 2255   6.960   9.755   7.802 -1.9567  1.2665  0.1892
   17MOL0     H 2256   7.186   9.879   7.747  0.7098 -1.0255  1.6260
   17MOL0     H 2257   7.171  10.050   7.793  4.1374  1.1408  1.1990
   17MOL0     H 2258   7.247   9.934   7.899  1.1643 -3.7475 -2.2109
   17MOL0     H 2259   6.954  10.525   7.989 -1.8467  1.4198  1.0739
   17MOL0     H 2260   7.053  10.727   8.073 -2.0334 -0.4695 -0.7554
   17MOL0     H 2261   7.238  10.911   8.193  0.1676  2.4906 -0.1803
   17MOL0     H 2262   7.068  10.881   8.233  1.1765 -0.5662 -2.0794
   17MOL0     H 2263   7.105  10.934   8.457  1.8715 -1.0900  1.4395
   17MOL0     H 2264   7.271  10.933   8.464 -0.0292 -0.0902  1.0259
   17MOL0     H 2265   7.114  11.124   8.270  0.6925 -0.6563 -0.1720
   17MOL0     H 2266   7.277  11.149   8.299  0.9545 -1.7729  0.5035
   17MOL0     H 2267   7.054  11.165   8.522  0.7774  1.2065  2.8898
   17MOL0     H 2268   7.229  11.161   8.547 -0.3133 -0.3873  0.0774
   17MOL0     H 2269   7.116  11.376   8.371  0.4915 -1.5122 -1.1339
   17MOL0     H 2270   7.259  11.375   8.485 -1.7716  1.5937  0.8452
   17MOL0     H 2271   6.981  11.365   8.580 -1.0449  5.0260 -3.4052
   17MOL0     H 2272   7.118  11.356   8.678  0.6630 -1.3028  0.1017
   17MOL0     H 2273   7.197  11.575   8.564  0.0366 -2.0861  1.8145
   17MOL0     H 2274   7.038  11.606   8.663 -3.4616  0.6784 -2.5112
   17MOL0     H 2275   6.976  11.719   8.495  3.5426  1.2469 -0.6542
   17MOL0     H 2276   6.919  11.550   8.456 -0.1588 -0.1427  3.4481
   17MOL0     H 2277   7.234  10.505   8.399 -2.5266 -0.5453  1.2559
   17MOL0     H 2278   7.167  10.298   8.296  0.3327  0.2783 -0.1262
   17MOL0     H 2279   6.810  10.112   8.111 -1.0811 -1.7613  1.7239
   17MOL0     H 2280   6.655   9.934   8.037  1.1152 -4.1907  2.4662
   17MOL0     H 2281   6.203   9.433   8.644  0.0358 -0.8242 -0.9251
   17MOL0     H 2282   6.434   9.358   8.596  1.9417 -0.6172  1.3275
   17MOL0     H 2283   6.838   9.191   8.512 -0.5555 -1.9408  4.4597
   17MOL0     H 2284   7.074   9.121   8.531 -1.5612  1.4101 -1.6133
   17MOL0     H 2285   7.233   9.050   8.681  1.0235 -1.1588 -0.6030
   17MOL0     H 2286   7.365   9.111   8.594 -1.7859  0.0305 -1.6295
   17MOL0     H 2287   7.408   9.001   8.831  0.9546 -0.1294 -2.5144
   17MOL0     H 2288   7.330   9.148   8.897  1.8628  3.3052 -0.8723
   17MOL0     H 2289   7.488   9.295   8.830 -3.8620 -1.6768  0.9282
   17MOL0     H 2290   7.591   9.165   8.751  0.7908  1.8959 -0.3777
   17MOL0     H 2291   7.682   9.201   8.974 -0.7924  1.0981 -1.3113
   17MOL0     H 2292   7.604   9.039   8.967 -2.1261  0.5951 -0.0231
   17MOL0     H 2293   7.368   9.216   9.262 -0.6243  0.7708 -0.7409
   17MOL0     H 2294   7.164   9.473   8.742 -0.2919 -0.4616  0.8532
   17MOL0     H 2295   6.923   9.561   8.690 -3.0372 -0.9162  2.6795
   18MOL0     O 2296   3.410   8.346  10.000 -0.9045 -0.1434 -1.2614
   18MOL0     C 2297   3.393   8.449   9.929 -0.4048  0.8801  0.2517
   18MOL0     O 2298   3.420   8.579   9.967 -0.0349 -0.9683  1.0809
   18MOL0     C 2299   3.461   8.603  10.095  0.2785 -0.4701 -0.7713
   18MOL0     C 2300   3.577   8.529  10.142 -0.1672  0.3331 -0.2014
   18MOL0     C 2301   3.645   8.568  10.256  0.1691 -0.7797 -0.7368
   18MOL0     C 2302   3.589   8.656  10.348 -0.2594  0.4774  0.4153
   18MOL0     O 2303   3.654   8.692  10.467  0.0923 -0.6330  0.1374
   18MOL0     C 2304   3.773   8.626  10.518  0.0938  0.8764  0.4496
   18MOL0     C 2305   3.831   8.713  10.642  0.8323 -0.3739  1.5898
   18MOL0     C 2306   3.946   8.646  10.704  1.2896 -0.1916  0.7809
   18MOL0     C 2307   4.003   8.726  10.824 -0.8457  0.2288 -0.3720
   18MOL0     C 2308   4.072   8.644  10.930  0.6186  0.5271  0.1603
   18MOL0     C 2309   4.125   8.721  11.054 -0.7906  0.2678 -0.6972
   18MOL0     C 2310   4.253   8.642  11.094 -0.2378 -0.1256 -0.4918
   18MOL0     C 2311   4.332   8.692  11.209  0.1703 -0.6322  0.7008
   18MOL0     N 2312   4.394   8.822  11.181 -0.7428 -0.6296  0.1992
   18MOL0     C 2313   4.510   8.844  11.111 -0.1750 -0.6008  0.5266
   18MOL0     C 2314   4.506   8.973  11.075 -0.7372 -0.0862 -0.1859
   18MOL0     C 2315   4.603   9.038  10.979  0.1756  0.2559 -0.2193
   18MOL0     C 2316   4.566   9.017  10.835  0.6631 -0.7990 -0.5764
   18MOL0     C 2317   4.630   9.122  10.748  0.3480  0.5694  0.1026
   18MOL0     C 2318   4.786   9.094  10.746  0.2422 -0.7309  0.4968
   18MOL0     O 2319   4.850   9.160  10.638  0.2684 -0.0142  0.0684
   18MOL0     C 2320   4.988   9.145  10.644  0.0180 -0.0939  0.5598
   18MOL0     C 2321   5.066   9.083  10.746 -0.2477  0.1588  0.9066
   18MOL0     C 2322   5.202   9.050  10.741  0.0812 -0.5474  0.6358
   18MOL0     C 2323   5.263   8.979  10.855 -0.7627 -0.0480 -0.1143
   18MOL0     C 2324   5.269   9.102  10.630  0.1021 -0.5395 -0.4665
   18MOL0     C 2325   5.413   9.094  10.610  0.4020  0.1654 -0.5789
   18MOL0     O 2326   5.463   9.184  10.512  0.0053 -0.3745 -0.5380
   18MOL0     C 2327   5.589   9.170  10.465  0.2209 -0.2513  0.6393
   18MOL0     C 2328   5.704   9.157  10.544 -0.8461 -0.4435 -0.1697
   18MOL0     C 2329   5.823   9.123  10.489 -0.9739 -0.1136 -0.3242
   18MOL0     C 2330   5.838   9.096  10.354  0.4907  0.8620 -0.4768
   18MOL0     O 2331   5.971   9.070  10.318  1.4264  0.1067 -0.1177
   18MOL0     C 2332   5.995   9.000  10.194 -0.7577 -0.5844  1.0858
   18MOL0     C 2333   6.089   9.081  10.104  0.0645 -0.0280  0.1370
   18MOL0     C 2334   6.034   9.217  10.064 -0.8981  0.4778 -0.6050
   18MOL0     C 2335   5.950   9.220   9.931  0.2782  0.1368  0.1768
   18MOL0     C 2336   5.875   9.354   9.898 -0.0936  0.5691 -0.2056
   18MOL0     C 2337   5.731   9.340   9.923  0.2606  0.2828 -0.8298
   18MOL0     C 2338   5.635   9.449   9.878 -0.3455  0.3906  0.0833
   18MOL0     C 2339   5.494   9.427   9.898  0.0670  0.7918 -0.0822
   18MOL0    Cl 2340   5.452   9.369  10.069  0.4187  0.0322 -0.4207
   18MOL0     C 2341   5.721   9.098  10.271 -0.3204  0.5882 -0.6370
   18MOL0     C 2342   5.602   9.145  10.325  0.4838  0.0669  0.0975
   18MOL0     O 2343   5.481   9.017  10.679 -1.3546 -0.3455 -0.0708
   18MOL0     C 2344   5.195   9.143  10.510  0.1990  0.8057  0.5971
   18MOL0     C 2345   5.058   9.170  10.526  0.6351  0.3475  0.9852
   18MOL0     N 2346   4.387   9.034  11.130  0.7132 -0.3899 -0.1597
   18MOL0     N 2347   4.321   8.942  11.193 -0.3241 -0.0436  0.2734
   18MOL0     C 2348   3.471   8.716  10.310  0.1909 -0.7022 -0.7523
   18MOL0     C 2349   3.401   8.690  10.183  0.5593  0.0236 -0.2376
   18MOL0     C 2350   3.308   8.442   9.814 -0.2168 -0.6983 -0.3062
   18MOL0     C 2351   3.313   8.335   9.715 -0.2589 -0.2568  0.9084
   18MOL0     C 2352   3.228   8.335   9.601 -0.6391  0.5577 -0.0791
   18MOL0     C 2353   3.128   8.434   9.584  1.2126  1.1459 -0.6179
   18MOL0     O 2354   3.051   8.430   9.472  0.0631 -0.0060  0.3805
   18MOL0     C 2355   2.968   8.550   9.452 -0.6458  0.2985  0.9452
   18MOL0     C 2356   2.913   8.547   9.308 -0.1089 -0.2664 -0.4174
   18MOL0     C 2357   3.026   8.578   9.202  0.4044 -0.2356 -0.6140
   18MOL0     C 2358   3.083   8.461   9.113 -0.1174 -0.6785  0.0990
   18MOL0     C 2359   3.192   8.513   9.031  0.6354  0.1733  0.3249
   18MOL0     C 2360   3.267   8.556   8.952 -0.4228 -0.6629 -0.5294
   18MOL0     C 2361   3.122   8.529   9.683  0.8607  0.2846  0.9522
   18MOL0     C 2362   3.206   8.530   9.798  0.4003  1.0982  0.3938
   18MOL0     H 2363   3.625   8.452  10.083 -2.6978  1.7065 -4.4858
   18MOL0     H 2364   3.746   8.537  10.282  0.9305  1.8721 -0.2572
   18MOL0     H 2365   3.749   8.524  10.551  1.0476 -0.2196 -2.0435
   18MOL0     H 2366   3.858   8.625  10.450 -0.6970  2.2387 -0.6213
   18MOL0     H 2367   3.862   8.810  10.602  1.2465 -1.2930 -0.4455
   18MOL0     H 2368   3.754   8.736  10.715  1.2228  1.2443  1.5308
   18MOL0     H 2369   3.910   8.549  10.737  2.5573 -1.8017 -2.1678
   18MOL0     H 2370   4.020   8.625  10.626  0.1202  0.2809 -0.4927
   18MOL0     H 2371   4.066   8.806  10.783 -3.5188  0.1614 -5.4040
   18MOL0     H 2372   3.917   8.776  10.870  0.3213 -0.0851  2.3201
   18MOL0     H 2373   4.000   8.575  10.976 -1.3858  3.3723  1.5759
   18MOL0     H 2374   4.143   8.580  10.876  0.1307 -0.2758  0.4412
   18MOL0     H 2375   4.155   8.822  11.024  2.1427  0.3227  1.9933
   18MOL0     H 2376   4.058   8.746  11.137 -0.1647  1.4380 -0.5253
   18MOL0     H 2377   4.217   8.542  11.121 -2.7641  0.7942 -0.1050
   18MOL0     H 2378   4.316   8.628  11.006 -1.4505 -1.5659 -1.1741
   18MOL0     H 2379   4.420   8.628  11.225  1.3006  0.2954 -1.4411
   18MOL0     H 2380   4.270   8.694  11.299 -2.2974  0.8653 -0.9050
   18MOL0     H 2381   4.592   8.778  11.083  0.5409  1.9261 -4.5636
   18MOL0     H 2382   4.599   9.144  11.006 -0.8867 -0.2464  1.8655
   18MOL0     H 2383   4.705   9.000  10.989  1.4180  2.3642 -3.4129
   18MOL0     H 2384   4.457   9.027  10.824  0.7071  0.7465  0.1381
   18MOL0     H 2385   4.579   8.917  10.793 -2.7475 -1.9498  0.6920
   18MOL0     H 2386   4.595   9.220  10.779 -2.0533 -0.2556  0.1816
   18MOL0     H 2387   4.593   9.127  10.645  2.3699  1.0978 -0.6414
   18MOL0     H 2388   4.807   8.987  10.741  0.7896 -0.5707 -1.4760
   18MOL0     H 2389   4.817   9.127  10.845 -0.7144 -0.5939  0.7601
   18MOL0     H 2390   5.014   9.050  10.834  0.0064 -1.8080  0.3738
   18MOL0     H 2391   5.189   8.938  10.924  0.4692 -1.1096  0.6313
   18MOL0     H 2392   5.332   8.898  10.827  1.4451  0.9211  2.1523
   18MOL0     H 2393   5.325   9.041  10.920 -0.4846 -0.9080  0.4597
   18MOL0     H 2394   5.696   9.170  10.652  2.1801 -0.3626  0.1144
   18MOL0     H 2395   5.913   9.114  10.548  2.4701  2.9981 -4.3782
   18MOL0     H 2396   6.064   8.916  10.211 -0.2244 -0.2353  0.6622
   18MOL0     H 2397   5.908   8.976  10.133  1.9105  1.5683 -4.2525
   18MOL0     H 2398   6.174   9.095  10.171  0.0845 -1.2267  0.3780
   18MOL0     H 2399   6.109   9.023  10.013 -2.5997  0.3130 -0.7770
   18MOL0     H 2400   6.112   9.293  10.057 -0.0472 -0.3789 -0.4903
   18MOL0     H 2401   5.952   9.242  10.133 -3.3965  0.2910 -3.2827
   18MOL0     H 2402   6.034   9.201   9.864  0.9354 -5.7968  2.0466
   18MOL0     H 2403   5.881   9.135   9.931 -0.5587  0.8042  0.0123
   18MOL0     H 2404   5.892   9.383   9.794 -0.8469 -2.3353 -1.2454
   18MOL0     H 2405   5.923   9.429   9.961  3.5836 -2.5041  1.0979
   18MOL0     H 2406   5.697   9.255   9.862 -0.7698 -0.0549  0.1806
   18MOL0     H 2407   5.702   9.314  10.025 -0.5564 -2.5309 -1.6671
   18MOL0     H 2408   5.653   9.481   9.774 -0.1165 -0.0564 -0.0138
   18MOL0     H 2409   5.650   9.540   9.937 -1.6676 -0.3481  1.6255
   18MOL0     H 2410   5.466   9.348   9.828 -3.1031  1.2619  0.4779
   18MOL0     H 2411   5.428   9.514   9.887 -3.1306 -1.4573 -0.1562
   18MOL0     H 2412   5.733   9.080  10.165  2.1264  0.3637 -0.3724
   18MOL0     H 2413   5.510   9.154  10.269 -0.5314  1.5293  1.9078
   18MOL0     H 2414   5.242   9.150  10.413 -0.3280 -1.5629  0.1109
   18MOL0     H 2415   4.985   9.201  10.452  2.3684  0.5936 -0.6936
   18MOL0     H 2416   3.430   8.786  10.382  3.3880 -0.0758  0.6816
   18MOL0     H 2417   3.306   8.736  10.156  1.2024  2.2688  1.0066
   18MOL0     H 2418   3.392   8.261   9.716  1.0370  1.0702  0.7279
   18MOL0     H 2419   3.230   8.264   9.520  0.3362  1.0404 -0.4945
   18MOL0     H 2420   2.878   8.540   9.513 -3.9426 -1.0569 -3.5831
   18MOL0     H 2421   3.024   8.643   9.467 -0.5711  0.2179  1.1665
   18MOL0     H 2422   2.820   8.603   9.297 -0.4995 -0.9647 -0.7087
   18MOL0     H 2423   2.878   8.445   9.297  2.7310 -1.2441 -1.1120
   18MOL0     H 2424   3.113   8.627   9.247  0.6081 -0.1036 -1.1400
   18MOL0     H 2425   2.979   8.656   9.141 -1.2452  0.7336  1.7450
   18MOL0     H 2426   3.012   8.430   9.035  0.8105  1.4285 -1.6666
   18MOL0     H 2427   3.124   8.380   9.175 -0.6350 -1.6331 -0.7723
   18MOL0     H 2428   3.337   8.601   8.885 -2.4670  6.1121  1.0649
   18MOL0     H 2429   3.057   8.616   9.677 -0.3301 -0.5767  0.8942
   18MOL0     H 2430   3.182   8.601   9.877  0.7189  1.9194 -0.2298
   19MOL0     O 2431   1.306   5.398   0.829 -0.6287  0.8359 -0.7723
   19MOL0     C 2432   1.254   5.493   0.887 -1.2285 -0.4446 -0.0698
   19MOL0     O 2433   1.294   5.624   0.885  0.3312  0.2015 -0.4257
   19MOL0     C 2434   1.388   5.672   0.798 -0.7875 -0.1347  0.3757
   19MOL0     C 2435   1.439   5.611   0.679 -0.8581  0.3106 -0.9732
   19MOL0     C 2436   1.531   5.679   0.598 -0.5258 -0.3305  0.8927
   19MOL0     C 2437   1.557   5.824   0.623  0.2776  0.0875 -0.1581
   19MOL0     O 2438   1.638   5.891   0.535  0.0459  0.0207 -0.7951
   19MOL0     C 2439   1.679   6.024   0.579 -0.5100  0.3614 -0.2163
   19MOL0     C 2440   1.783   6.008   0.700  0.2042 -0.8444 -0.0515
   19MOL0     C 2441   1.842   6.143   0.750 -0.5940  1.0622  0.4522
   19MOL0     C 2442   1.727   6.236   0.806 -0.2689  0.3085  0.0514
   19MOL0     C 2443   1.779   6.299   0.934 -0.7754  0.1487 -0.2091
   19MOL0     C 2444   1.692   6.424   0.976 -1.0746 -0.3317 -0.1877
   19MOL0     C 2445   1.721   6.468   1.123  0.5894  0.0059  1.1424
   19MOL0     C 2446   1.677   6.607   1.171 -0.0003 -0.2269 -0.5670
   19MOL0     N 2447   1.737   6.711   1.086 -0.5801  0.3684  0.2888
   19MOL0     C 2448   1.839   6.803   1.118  0.2261  0.0233  0.0723
   19MOL0     C 2449   1.830   6.899   1.025  0.1547 -0.3809 -0.2168
   19MOL0     C 2450   1.923   7.017   1.025  0.3618  0.5340 -0.4837
   19MOL0     C 2451   1.932   7.073   0.883  0.3089 -0.7371  0.4924
   19MOL0     C 2452   1.977   7.217   0.895  0.0364  0.0365  0.6429
   19MOL0     C 2453   2.042   7.271   0.763  0.5582  0.7098  0.2200
   19MOL0     O 2454   2.034   7.413   0.782  0.0725 -0.5951  0.8150
   19MOL0     C 2455   2.126   7.487   0.708 -0.6812  0.3528 -0.1160
   19MOL0     C 2456   2.116   7.621   0.732  0.2248 -0.0431 -0.4298
   19MOL0     C 2457   2.171   7.710   0.636 -0.4469 -0.9125  0.8329
   19MOL0     C 2458   2.114   7.850   0.646 -0.4308  1.1826 -0.4400
   19MOL0     C 2459   2.269   7.672   0.543 -0.4859  0.3950 -0.4396
   19MOL0     C 2460   2.361   7.764   0.475  0.3613  0.5565  0.1530
   19MOL0     O 2461   2.371   7.892   0.526 -0.9877  0.5443 -0.3226
   19MOL0     C 2462   2.483   7.974   0.508 -0.0016 -1.1307  0.3232
   19MOL0     C 2463   2.489   8.110   0.545  0.5038  0.0920 -0.6596
   19MOL0     C 2464   2.597   8.190   0.544  0.5564 -0.0592 -0.6382
   19MOL0     C 2465   2.712   8.142   0.481 -0.3714  0.1755  0.5146
   19MOL0     O 2466   2.821   8.229   0.475 -0.3311  0.6248 -0.7509
   19MOL0     C 2467   2.889   8.236   0.352  0.2819 -0.5375  0.9240
   19MOL0     C 2468   2.801   8.310   0.251 -0.7172 -0.1623  0.0884
   19MOL0     C 2469   2.894   8.396   0.157  0.1469  0.1440  0.2036
   19MOL0     C 2470   3.005   8.332   0.079 -0.9005  0.2968 -0.0577
   19MOL0     C 2471   3.079   8.438  -0.005 -0.5727 -0.4794 -0.4334
   19MOL0     C 2472   3.183   8.360  -0.100  0.2635  0.2879 -0.0381
   19MOL0     C 2473   3.240   8.467  -0.190 -0.1607  0.3128  0.8745
   19MOL0     C 2474   3.351   8.539  -0.113  0.0179 -1.1680  0.2682
   19MOL0    Cl 2475   3.385   8.673  -0.223  0.0124  0.0062  0.5720
   19MOL0     C 2476   2.714   8.010   0.434  0.1720 -0.5952  0.4318
   19MOL0     C 2477   2.602   7.926   0.457 -0.8584  0.2467  0.6949
   19MOL0     O 2478   2.424   7.715   0.376 -0.7104 -0.3863  0.9925
   19MOL0     C 2479   2.286   7.534   0.525  0.3729 -0.2624  0.3085
   19MOL0     C 2480   2.212   7.444   0.599  1.0613  0.7275  0.6622
   19MOL0     N 2481   1.732   6.869   0.943  0.0270 -0.1895 -0.5588
   19MOL0     N 2482   1.677   6.756   0.978 -0.6257 -0.0809  0.4037
   19MOL0     C 2483   1.492   5.878   0.732 -1.0109 -0.1323 -0.8417
   19MOL0     C 2484   1.407   5.802   0.817  0.0074  0.3021  0.1315
   19MOL0     C 2485   1.148   5.457   0.984 -0.7832 -0.3715 -0.0544
   19MOL0     C 2486   1.086   5.333   0.987 -0.3907 -0.9610 -0.6381
   19MOL0     C 2487   0.988   5.305   1.074  0.7960 -0.4094 -0.8091
   19MOL0     C 2488   0.941   5.400   1.160 -0.2751 -0.0451 -0.1962
   19MOL0     O 2489   0.831   5.383   1.230 -0.1013  0.0119  0.4516
   19MOL0     C 2490   0.776   5.505   1.298  0.8910  0.8275  0.1167
   19MOL0     C 2491   0.627   5.472   1.338  0.7191  0.2638 -0.9402
   19MOL0     C 2492   0.584   5.320   1.353  0.3022  0.1169  0.5423
   19MOL0     C 2493   0.436   5.302   1.347 -0.4780  0.3309 -0.1337
   19MOL0     C 2494   0.384   5.175   1.391 -1.1166  0.0388  0.4708
   19MOL0     C 2495   0.314   5.075   1.426 -0.1858 -0.7522  0.6347
   19MOL0     C 2496   1.011   5.524   1.174 -0.5809  0.1010  0.2061
   19MOL0     C 2497   1.113   5.550   1.083 -0.3817  1.1238 -0.0715
   19MOL0     H 2498   1.429   5.504   0.669 -1.0287  0.4360 -2.3536
   19MOL0     H 2499   1.575   5.639   0.508  1.3868  0.7684  1.2820
   19MOL0     H 2500   1.741   6.085   0.512 -1.1803  3.0687  1.4924
   19MOL0     H 2501   1.596   6.093   0.594 -0.3792  0.7603 -1.2797
   19MOL0     H 2502   1.737   5.958   0.786  0.1959  0.1740  0.5622
   19MOL0     H 2503   1.857   5.939   0.657 -1.2881 -1.7953 -1.1706
   19MOL0     H 2504   1.925   6.120   0.818 -0.0900  2.9017  0.5095
   19MOL0     H 2505   1.887   6.191   0.663 -0.4039 -3.0046 -1.9293
   19MOL0     H 2506   1.709   6.308   0.725  1.7790  1.0944  0.2525
   19MOL0     H 2507   1.634   6.184   0.832  0.4343  0.1116  2.3748
   19MOL0     H 2508   1.767   6.219   1.008  1.7381 -1.3192 -1.2530
   19MOL0     H 2509   1.886   6.321   0.938 -0.5395 -0.9547  0.0033
   19MOL0     H 2510   1.717   6.503   0.904 -2.5425 -1.2968 -1.8263
   19MOL0     H 2511   1.585   6.404   0.969 -0.9053 -0.7346 -2.0345
   19MOL0     H 2512   1.679   6.389   1.186 -1.5268 -0.5971 -0.8599
   19MOL0     H 2513   1.829   6.471   1.135  1.2722  0.7478 -3.4053
   19MOL0     H 2514   1.700   6.631   1.275 -0.0520  1.0927 -0.8426
   19MOL0     H 2515   1.567   6.607   1.170 -0.0168 -0.2355  0.5888
   19MOL0     H 2516   1.899   6.795   1.208  0.2388  1.2338  0.1933
   19MOL0     H 2517   1.869   7.081   1.095  2.9309  0.3522  1.8426
   19MOL0     H 2518   2.018   6.984   1.067  0.5961 -2.3773 -2.9519
   19MOL0     H 2519   1.841   7.074   0.823  0.7139 -1.6277 -0.1690
   19MOL0     H 2520   2.009   7.017   0.829 -0.9524 -1.7738 -0.3078
   19MOL0     H 2521   2.040   7.230   0.984  1.8131  1.7846 -0.7979
   19MOL0     H 2522   1.878   7.263   0.905 -0.5331 -1.2269  1.1011
   19MOL0     H 2523   1.991   7.247   0.669 -0.1479  2.0204  0.2442
   19MOL0     H 2524   2.141   7.227   0.746  0.1396  1.0580 -4.5004
   19MOL0     H 2525   2.044   7.645   0.811  1.3537 -1.5312  1.1156
   19MOL0     H 2526   2.097   7.897   0.548  1.0745  3.0127  0.1161
   19MOL0     H 2527   2.017   7.843   0.694  0.0645 -0.1920  0.4259
   19MOL0     H 2528   2.162   7.930   0.703 -0.1205  2.4349 -2.3695
   19MOL0     H 2529   2.398   8.140   0.597  1.8918  0.9474  1.4222
   19MOL0     H 2530   2.603   8.293   0.579  0.6286  0.7769 -2.9663
   19MOL0     H 2531   2.985   8.289   0.362 -0.1879  0.1022  2.3112
   19MOL0     H 2532   2.902   8.142   0.297  1.3122  0.1573 -0.0859
   19MOL0     H 2533   2.738   8.251   0.183 -2.7215  3.1971 -1.2730
   19MOL0     H 2534   2.728   8.374   0.302 -1.2602 -1.3939  0.9014
   19MOL0     H 2535   2.923   8.489   0.206 -4.3343  1.1199  1.4991
   19MOL0     H 2536   2.827   8.434   0.080  4.5416  0.7695 -3.7355
   19MOL0     H 2537   3.073   8.277   0.145 -1.6072 -1.9210 -1.0983
   19MOL0     H 2538   2.955   8.273   0.002 -2.8057  1.9597 -0.1676
   19MOL0     H 2539   3.128   8.503   0.068 -2.7384 -1.0154  1.6182
   19MOL0     H 2540   3.010   8.500  -0.063  0.8639  2.1645  0.5180
   19MOL0     H 2541   3.265   8.316  -0.044  0.8535  2.3829  0.8619
   19MOL0     H 2542   3.142   8.280  -0.162 -1.5329  1.4790 -0.4768
   19MOL0     H 2543   3.161   8.526  -0.236  0.6272 -0.7656 -2.0820
   19MOL0     H 2544   3.281   8.422  -0.281  0.9201  1.2867  0.8629
   19MOL0     H 2545   3.446   8.485  -0.106  1.5418  0.5133 -3.8464
   19MOL0     H 2546   3.305   8.581  -0.024 -1.9386  1.2302 -1.7334
   19MOL0     H 2547   2.801   7.965   0.388 -0.1335 -0.9294  0.1727
   19MOL0     H 2548   2.619   7.827   0.417 -2.2336  0.0212  0.6075
   19MOL0     H 2549   2.359   7.491   0.458  0.8191 -1.3336  1.4395
   19MOL0     H 2550   2.209   7.339   0.570 -2.8373  1.0042 -0.6006
   19MOL0     H 2551   1.515   5.981   0.760  1.7367 -0.5866 -1.1594
   19MOL0     H 2552   1.376   5.845   0.912  0.9544  0.6568  0.2895
   19MOL0     H 2553   1.113   5.265   0.907 -1.1755 -1.9911 -0.0419
   19MOL0     H 2554   0.943   5.207   1.087  0.7541  0.0073  3.7737
   19MOL0     H 2555   0.830   5.524   1.391  1.6028 -1.3401  0.2096
   19MOL0     H 2556   0.774   5.590   1.230 -1.0334  1.4531  0.8670
   19MOL0     H 2557   0.568   5.527   1.264  1.9354  0.1618 -1.9998
   19MOL0     H 2558   0.609   5.514   1.438 -3.0593 -1.2184 -0.8168
   19MOL0     H 2559   0.632   5.283   1.444  0.6678 -1.3179 -0.2055
   19MOL0     H 2560   0.623   5.265   1.267  0.7477 -0.3141  1.0192
   19MOL0     H 2561   0.414   5.307   1.240  2.0317 -0.0554 -0.7426
   19MOL0     H 2562   0.390   5.391   1.389  0.1941  0.9260 -0.6271
   19MOL0     H 2563   0.235   5.018   1.470 -1.1402  0.7109  0.9128
   19MOL0     H 2564   0.981   5.599   1.246 -1.1600  1.3263 -1.2632
   19MOL0     H 2565   1.169   5.642   1.098  2.5009 -0.8219  2.3847
   20MOL0     O 2566   4.796   7.475   9.253  0.1651 -0.1929 -0.0777
   20MOL0     C 2567   4.830   7.547   9.343  0.2619 -0.6161 -0.5577
   20MOL0     O 2568   4.936   7.531   9.419  0.6096 -0.3595 -0.6408
   20MOL0     C 2569   5.020   7.420   9.397  0.2846  1.1187 -0.6838
   20MOL0     C 2570   4.968   7.286   9.418 -0.8393 -0.7279  0.0022
   20MOL0     C 2571   5.050   7.175   9.400 -1.0218 -0.8044  0.2412
   20MOL0     C 2572   5.186   7.194   9.368 -0.1349 -0.2929  1.1097
   20MOL0     O 2573   5.265   7.085   9.345 -0.2685 -0.8934 -0.6151
   20MOL0     C 2574   5.300   7.057   9.216 -0.1210 -0.8411  0.2721
   20MOL0     C 2575   5.418   6.962   9.224  0.4445 -0.7735 -0.0019
   20MOL0     C 2576   5.376   6.817   9.252 -0.0309 -0.0759 -0.3971
   20MOL0     C 2577   5.482   6.719   9.226  0.4123  0.0661 -0.3562
   20MOL0     C 2578   5.600   6.725   9.325  0.7367  0.2272  0.3360
   20MOL0     C 2579   5.670   6.590   9.372 -0.5020 -0.4318  0.7663
   20MOL0     C 2580   5.760   6.613   9.496  0.2846 -0.1953 -0.3867
   20MOL0     C 2581   5.852   6.499   9.526 -0.1086  0.7039  0.1605
   20MOL0     N 2582   5.772   6.379   9.563  0.1883  0.4730 -0.2595
   20MOL0     C 2583   5.696   6.353   9.674  0.3386 -0.4218  0.1511
   20MOL0     C 2584   5.653   6.221   9.653  0.4433 -0.6055 -0.3475
   20MOL0     C 2585   5.569   6.137   9.734  1.0437 -0.3283 -0.9860
   20MOL0     C 2586   5.579   6.130   9.883 -1.2217 -0.7246  0.0755
   20MOL0     C 2587   5.728   6.113   9.935  0.2920 -0.2520 -0.5988
   20MOL0     C 2588   5.796   5.978   9.897 -1.2068  0.0523  0.0283
   20MOL0     O 2589   5.717   5.881   9.959 -0.5072  0.0314 -0.4458
   20MOL0     C 2590   5.723   5.748   9.933 -1.4054  0.0884 -0.9432
   20MOL0     C 2591   5.632   5.663  10.003 -0.5292 -0.3440  0.8572
   20MOL0     C 2592   5.622   5.519   9.973  0.2715 -0.0291 -0.0704
   20MOL0     C 2593   5.554   5.409  10.053  0.8105 -0.4373  0.1542
   20MOL0     C 2594   5.705   5.475   9.865  0.9687 -0.0558 -1.0870
   20MOL0     C 2595   5.721   5.342   9.822 -0.7002 -0.6095 -0.2471
   20MOL0     O 2596   5.794   5.265   9.902 -0.7277  0.8617 -0.6288
   20MOL0     C 2597   5.790   5.134   9.873 -0.1634  0.7106 -0.5229
   20MOL0     C 2598   5.703   5.040   9.941  0.1374 -0.2465  1.1745
   20MOL0     C 2599   5.689   4.914   9.887 -0.2540  0.3907 -0.4624
   20MOL0     C 2600   5.767   4.869   9.781 -0.2399 -0.0366 -0.3820
   20MOL0     O 2601   5.751   4.734   9.751 -0.1830 -0.3355  0.2269
   20MOL0     C 2602   5.663   4.702   9.647  1.1572  0.1188 -0.3979
   20MOL0     C 2603   5.613   4.560   9.671 -0.5261  0.2995 -0.4348
   20MOL0     C 2604   5.498   4.548   9.765  1.3779  0.1928 -1.7182
   20MOL0     C 2605   5.367   4.581   9.685 -0.5075  0.8337  0.0570
   20MOL0     C 2606   5.249   4.584   9.780 -0.5773 -0.8109  1.3364
   20MOL0     C 2607   5.229   4.730   9.815 -0.1916 -0.8644 -0.9057
   20MOL0     C 2608   5.103   4.754   9.910  0.9541 -0.7412  0.0152
   20MOL0     C 2609   5.099   4.899   9.955 -0.0420  0.1277 -0.1916
   20MOL0    Cl 2610   5.208   4.917  10.091 -0.0017  0.0733  0.1658
   20MOL0     C 2611   5.858   4.956   9.729  0.5950 -0.0166 -0.4795
   20MOL0     C 2612   5.879   5.083   9.770  0.5514 -0.7767 -0.5769
   20MOL0     O 2613   5.667   5.317   9.719 -0.2614 -0.2654 -0.5471
   20MOL0     C 2614   5.796   5.560   9.799  0.3149 -0.0742 -1.1135
   20MOL0     C 2615   5.795   5.697   9.832 -1.0406 -0.1419 -0.4358
   20MOL0     N 2616   5.685   6.190   9.522 -0.3581 -0.7020 -0.5940
   20MOL0     N 2617   5.760   6.282   9.471 -0.1290 -0.3299 -0.0518
   20MOL0     C 2618   5.238   7.320   9.351 -1.1716  0.2981  0.4827
   20MOL0     C 2619   5.153   7.436   9.362  0.8031  0.9580 -0.0913
   20MOL0     C 2620   4.735   7.666   9.376  0.8486  0.5964 -1.5012
   20MOL0     C 2621   4.796   7.784   9.428  0.8108  0.3197  0.0070
   20MOL0     C 2622   4.731   7.893   9.488  0.2060  0.4620  0.5134
   20MOL0     C 2623   4.583   7.891   9.476 -0.3818 -0.2030 -0.9378
   20MOL0     O 2624   4.511   8.000   9.525  0.0489 -0.0263  0.2022
   20MOL0     C 2625   4.584   8.114   9.591 -0.1990  0.8816 -0.0844
   20MOL0     C 2626   4.489   8.229   9.629 -0.3882 -0.1411  0.2217
   20MOL0     C 2627   4.385   8.183   9.732  0.2390 -0.2115  0.1365
   20MOL0     C 2628   4.432   8.114   9.858 -0.5829 -0.3790 -0.0998
   20MOL0     C 2629   4.340   8.144   9.972 -0.1100 -1.0066  0.4239
   20MOL0     C 2630   4.268   8.162  10.063 -0.8075  0.4023 -0.0403
   20MOL0     C 2631   4.520   7.778   9.430  0.1078  0.3927  0.2060
   20MOL0     C 2632   4.595   7.664   9.379  0.2680 -0.3334  0.3368
   20MOL0     H 2633   4.866   7.269   9.450 -0.2566 -1.7865  1.4055
   20MOL0     H 2634   5.008   7.075   9.404  0.4701 -1.6757 -2.8022
   20MOL0     H 2635   5.211   7.008   9.174 -2.1775  1.2492  1.8959
   20MOL0     H 2636   5.321   7.148   9.158 -2.2110  1.7141  3.1579
   20MOL0     H 2637   5.459   6.953   9.123 -2.4517  3.2170 -1.7977
   20MOL0     H 2638   5.488   6.991   9.303  0.6662 -1.9167  0.2452
   20MOL0     H 2639   5.354   6.797   9.357 -0.2646 -2.9947 -0.9274
   20MOL0     H 2640   5.292   6.780   9.191  1.2256 -0.5153 -1.9170
   20MOL0     H 2641   5.450   6.615   9.234 -0.0920  0.1569 -1.1170
   20MOL0     H 2642   5.519   6.742   9.125 -2.3323 -1.7736 -1.9029
   20MOL0     H 2643   5.658   6.817   9.314 -1.7359  1.9811  1.0312
   20MOL0     H 2644   5.546   6.747   9.417 -0.2514  2.2209 -0.6642
   20MOL0     H 2645   5.599   6.513   9.405 -0.3826 -1.0151 -0.3025
   20MOL0     H 2646   5.729   6.548   9.291  0.1684 -2.0759  2.0464
   20MOL0     H 2647   5.815   6.704   9.471 -2.1551  1.0458 -1.5736
   20MOL0     H 2648   5.711   6.645   9.588  0.1908  0.4381 -0.6510
   20MOL0     H 2649   5.918   6.525   9.609 -0.8796  1.0669  0.6609
   20MOL0     H 2650   5.916   6.487   9.438  2.4314  1.8002  1.7487
   20MOL0     H 2651   5.682   6.424   9.755 -0.0572 -2.1274  1.6420
   20MOL0     H 2652   5.464   6.162   9.714  0.7643 -0.1495  0.5729
   20MOL0     H 2653   5.589   6.038   9.692 -2.4675  0.3258 -4.8686
   20MOL0     H 2654   5.525   6.046   9.926  0.0808 -0.2110  2.9241
   20MOL0     H 2655   5.531   6.219   9.926  1.1800 -0.8279  3.3459
   20MOL0     H 2656   5.717   6.125  10.043 -0.0633  0.4422 -0.7061
   20MOL0     H 2657   5.798   6.190   9.899 -0.3321  0.3345 -0.5703
   20MOL0     H 2658   5.894   5.965   9.944 -0.9411 -3.6748 -1.1826
   20MOL0     H 2659   5.806   5.958   9.790 -0.2924  1.9577 -0.2647
   20MOL0     H 2660   5.571   5.717  10.075  1.3500  3.5580 -0.1737
   20MOL0     H 2661   5.460   5.444  10.096 -0.8751 -1.0075 -2.7823
   20MOL0     H 2662   5.530   5.319   9.996  2.6059 -2.1706  1.9558
   20MOL0     H 2663   5.634   5.375  10.120  1.7500 -2.4721 -1.8624
   20MOL0     H 2664   5.643   5.084  10.020 -0.5601  0.5507  0.2307
   20MOL0     H 2665   5.619   4.843   9.929 -0.7495 -0.4659 -2.5689
   20MOL0     H 2666   5.581   4.774   9.638  1.6069  0.8747  1.3225
   20MOL0     H 2667   5.713   4.704   9.549  1.2374  0.1276 -0.3564
   20MOL0     H 2668   5.602   4.527   9.567  4.6513 -0.3940 -1.0547
   20MOL0     H 2669   5.699   4.502   9.705 -0.9419 -0.2159 -0.2504
   20MOL0     H 2670   5.530   4.614   9.846 -0.4900 -1.2733  0.3459
   20MOL0     H 2671   5.485   4.454   9.820  3.2205  2.8484  4.0754
   20MOL0     H 2672   5.377   4.679   9.638 -0.4696  0.6426 -0.3375
   20MOL0     H 2673   5.364   4.501   9.610  2.0209 -0.4849  1.2411
   20MOL0     H 2674   5.276   4.527   9.870  0.1597  0.7047  2.1176
   20MOL0     H 2675   5.169   4.530   9.730  1.1578  0.8834 -3.9196
   20MOL0     H 2676   5.314   4.760   9.878 -2.1125  1.9213  0.6139
   20MOL0     H 2677   5.237   4.791   9.724 -2.6046  1.6088  0.3624
   20MOL0     H 2678   5.104   4.684   9.995 -2.3894 -1.1362 -0.1432
   20MOL0     H 2679   5.013   4.732   9.852 -0.0392  1.1823  0.7290
   20MOL0     H 2680   5.003   4.931   9.997  0.8034  2.9508 -0.2580
   20MOL0     H 2681   5.101   4.966   9.868 -5.8273  2.0460  0.7032
   20MOL0     H 2682   5.924   4.905   9.660  1.8289  1.4722 -0.4553
   20MOL0     H 2683   5.956   5.144   9.723 -1.7595  1.3219 -1.8748
   20MOL0     H 2684   5.863   5.530   9.719  0.0370 -0.9815 -1.0200
   20MOL0     H 2685   5.868   5.758   9.779  0.4549 -3.3098 -2.2651
   20MOL0     H 2686   5.340   7.342   9.324 -1.9448  0.5807 -2.5625
   20MOL0     H 2687   5.197   7.534   9.347 -0.1849  1.7278  1.6999
   20MOL0     H 2688   4.904   7.781   9.438  0.8184 -2.4234 -0.3714
   20MOL0     H 2689   4.786   7.982   9.517 -0.3025  1.3184 -1.0341
   20MOL0     H 2690   4.652   8.079   9.669  0.4063 -0.6884 -1.2589
   20MOL0     H 2691   4.642   8.153   9.507  0.1377  3.2751  1.1874
   20MOL0     H 2692   4.428   8.257   9.543  0.4929 -0.8922 -0.6755
   20MOL0     H 2693   4.535   8.320   9.668 -0.2078 -0.1663  0.0705
   20MOL0     H 2694   4.322   8.109   9.682 -0.1390  1.7181 -2.4332
   20MOL0     H 2695   4.322   8.265   9.768  1.6850  1.1172 -0.2186
   20MOL0     H 2696   4.534   8.141   9.885 -0.1732 -2.6886  0.8737
   20MOL0     H 2697   4.444   8.008   9.835  1.3048 -0.0166 -0.9738
   20MOL0     H 2698   4.195   8.169  10.142  0.5771  1.9633  1.1652
   20MOL0     H 2699   4.412   7.778   9.433  0.1026 -0.9313  1.5264
   20MOL0     H 2700   4.556   7.571   9.338 -0.2873  0.6483 -1.4484
   21MOL0     O 2701   3.159   4.855   9.406  0.4854 -0.1386  0.0661
   21MOL0     C 2702   3.181   4.952   9.336 -0.4401 -0.4333  0.7806
   21MOL0     O 2703   3.098   5.058   9.304  0.3967  0.1990 -0.6713
   21MOL0     C 2704   2.975   5.053   9.362 -0.0969  0.6278 -0.9991
   21MOL0     C 2705   2.875   4.955   9.324  0.3386 -0.5925 -0.7730
   21MOL0     C 2706   2.746   4.952   9.392 -0.2032 -0.9114 -0.3950
   21MOL0     C 2707   2.724   5.052   9.497 -0.6116 -1.3057  0.1221
   21MOL0     O 2708   2.596   5.059   9.552  0.0977  0.5500 -0.2071
   21MOL0     C 2709   2.572   5.153   9.662 -0.0483 -0.8630 -0.5646
   21MOL0     C 2710   2.451   5.102   9.747  0.1066  0.2430 -0.0055
   21MOL0     C 2711   2.432   5.184   9.879  0.1296 -0.6223  0.8327
   21MOL0     C 2712   2.378   5.091   9.983  0.0108  0.6538 -0.6190
   21MOL0     C 2713   2.305   5.173  10.084  0.0116 -0.1459  0.0833
   21MOL0     C 2714   2.218   5.091  10.179 -0.4802 -0.6217 -0.1466
   21MOL0     C 2715   2.185   5.182  10.290 -0.2482  0.9416  0.1977
   21MOL0     C 2716   2.085   5.106  10.378 -0.5234  0.8049  0.3440
   21MOL0     N 2717   2.027   5.196  10.480  0.7135  0.8500  0.0315
   21MOL0     C 2718   1.943   5.301  10.457 -0.0825 -0.2756  0.8715
   21MOL0     C 2719   1.901   5.354  10.577  0.3900  0.0844  0.8327
   21MOL0     C 2720   1.796   5.447  10.621 -0.1685  1.2477  0.2969
   21MOL0     C 2721   1.693   5.378  10.702  0.3763 -0.3631 -0.2211
   21MOL0     C 2722   1.605   5.482  10.778 -0.0210 -0.4963 -0.2307
   21MOL0     C 2723   1.489   5.419  10.845  0.5719 -0.2496 -0.4659
   21MOL0     O 2724   1.405   5.350  10.755 -0.4451 -0.9763  0.3345
   21MOL0     C 2725   1.333   5.248  10.806 -0.3101 -0.9180 -0.0068
   21MOL0     C 2726   1.307   5.215  10.939 -0.6130 -0.3167  0.5877
   21MOL0     C 2727   1.258   5.089  10.977  0.2174  0.3596 -0.5661
   21MOL0     C 2728   1.245   5.061  11.124  0.0916 -0.6055 -1.5122
   21MOL0     C 2729   1.226   5.002  10.876  0.2425  0.0834 -0.2774
   21MOL0     C 2730   1.185   4.855  10.892  0.3082 -0.8990 -0.0993
   21MOL0     O 2731   1.078   4.812  10.815  0.1523  0.2983 -0.2169
   21MOL0     C 2732   1.072   4.673  10.795  0.3014 -0.3015  0.1600
   21MOL0     C 2733   0.975   4.587  10.844  0.6413 -0.5631 -0.1892
   21MOL0     C 2734   0.978   4.452  10.805  0.4685  0.4238  0.6655
   21MOL0     C 2735   1.072   4.398  10.733  0.3301 -0.4110 -0.0055
   21MOL0     O 2736   1.070   4.266  10.704 -0.1328  0.2840  0.7900
   21MOL0     C 2737   1.119   4.230  10.576  0.3982  1.1068 -0.0264
   21MOL0     C 2738   1.053   4.297  10.448  0.0524 -0.6902  0.5016
   21MOL0     C 2739   1.118   4.280  10.307  0.6163  0.5246  0.5909
   21MOL0     C 2740   1.105   4.127  10.266  0.5076  0.1043 -1.5421
   21MOL0     C 2741   1.178   4.115  10.142 -0.2432 -0.2894 -1.0439
   21MOL0     C 2742   1.175   3.972  10.090  0.2151  0.5708  0.0330
   21MOL0     C 2743   1.306   3.946  10.006  0.2955 -0.1581 -0.6165
   21MOL0     C 2744   1.335   3.803   9.960 -0.3629 -0.0187 -0.3577
   21MOL0    Cl 2745   1.503   3.797   9.904 -0.0461  0.0968  0.4134
   21MOL0     C 2746   1.180   4.478  10.695 -0.3707 -0.2513 -1.0512
   21MOL0     C 2747   1.174   4.611  10.716 -0.6730 -0.2995 -1.0742
   21MOL0     O 2748   1.261   4.780  10.955 -0.0315 -0.1121 -0.0183
   21MOL0     C 2749   1.248   5.038  10.734  0.6289 -0.2555  0.7538
   21MOL0     C 2750   1.312   5.156  10.703  0.1249 -0.0066  0.3096
   21MOL0     N 2751   1.964   5.275  10.670  0.6222  0.3793  0.3522
   21MOL0     N 2752   2.037   5.179  10.608 -0.3645 -0.3720 -0.1640
   21MOL0     C 2753   2.829   5.149   9.527 -0.6055  0.8509 -0.9295
   21MOL0     C 2754   2.949   5.152   9.466 -1.0303  0.3097 -0.6210
   21MOL0     C 2755   3.310   4.917   9.260  0.3526  0.4283  0.7357
   21MOL0     C 2756   3.398   4.813   9.291  1.4225  0.1994  0.4274
   21MOL0     C 2757   3.520   4.807   9.227  0.3506  1.2167  0.6886
   21MOL0     C 2758   3.558   4.907   9.135  1.1639 -0.3881  0.8597
   21MOL0     O 2759   3.667   4.893   9.052 -0.3555 -0.3435  0.2669
   21MOL0     C 2760   3.781   4.833   9.105 -0.0227 -0.0637  0.9275
   21MOL0     C 2761   3.915   4.880   9.048  0.4707 -0.2002 -0.8217
   21MOL0     C 2762   3.935   4.869   8.894 -0.0114 -0.3884  0.1282
   21MOL0     C 2763   3.993   4.999   8.848  0.2778 -0.5404 -0.4603
   21MOL0     C 2764   3.891   5.097   8.834  0.0052  0.0742  0.5833
   21MOL0     C 2765   3.795   5.170   8.813 -0.0824 -0.6140  0.0478
   21MOL0     C 2766   3.479   5.021   9.114  1.3216 -0.7221 -1.0398
   21MOL0     C 2767   3.355   5.025   9.163  0.8394  0.8767 -0.9997
   21MOL0     H 2768   2.908   4.878   9.255  1.1692  1.6487 -3.0533
   21MOL0     H 2769   2.675   4.871   9.375 -2.1109  0.3007  1.3417
   21MOL0     H 2770   2.656   5.168   9.731 -0.5653 -0.1648 -0.0696
   21MOL0     H 2771   2.553   5.255   9.627  1.1962 -0.0733  0.9386
   21MOL0     H 2772   2.357   5.112   9.690  0.8662 -0.3494 -1.4119
   21MOL0     H 2773   2.469   4.996   9.764 -0.2111  0.2117  0.1569
   21MOL0     H 2774   2.530   5.220   9.911  0.4039 -1.8405  1.4095
   21MOL0     H 2775   2.363   5.266   9.858  0.9048 -0.2738 -0.5143
   21MOL0     H 2776   2.306   5.017   9.946 -1.7765  2.4041 -0.8500
   21MOL0     H 2777   2.448   5.031  10.041 -3.1767 -0.7507  2.1386
   21MOL0     H 2778   2.370   5.240  10.142 -2.9461  1.9394  1.2371
   21MOL0     H 2779   2.237   5.238  10.029  1.0603 -1.4896 -3.0045
   21MOL0     H 2780   2.136   5.058  10.115 -0.5650 -2.2853  0.7529
   21MOL0     H 2781   2.273   5.003  10.216  1.6376  0.4135 -0.6329
   21MOL0     H 2782   2.275   5.201  10.348  0.5518 -1.8071  0.0070
   21MOL0     H 2783   2.148   5.278  10.253  0.6512  0.8926 -0.8782
   21MOL0     H 2784   2.139   5.024  10.426  0.8086  0.9827 -0.7697
   21MOL0     H 2785   2.010   5.059  10.315 -0.6939  0.0184  1.1164
   21MOL0     H 2786   1.923   5.345  10.360 -1.7701 -2.8072 -0.0299
   21MOL0     H 2787   1.847   5.529  10.672 -0.8423  2.2416 -0.5827
   21MOL0     H 2788   1.753   5.489  10.529  0.1749  1.8167  0.3866
   21MOL0     H 2789   1.739   5.304  10.768  0.2244 -0.9388 -0.7518
   21MOL0     H 2790   1.624   5.323  10.637  1.0589 -2.6848  0.8952
   21MOL0     H 2791   1.562   5.544  10.699  0.7419  1.2752  0.6854
   21MOL0     H 2792   1.654   5.537  10.858 -2.8530  2.2395 -0.1790
   21MOL0     H 2793   1.431   5.500  10.890  1.2236  0.6705 -1.2545
   21MOL0     H 2794   1.516   5.344  10.921  3.4500 -1.9516 -2.9567
   21MOL0     H 2795   1.338   5.288  11.014 -0.7846 -0.1679  0.5158
   21MOL0     H 2796   1.235   4.958  11.159  0.5115 -0.0361  0.4365
   21MOL0     H 2797   1.329   5.106  11.177 -0.8487  1.8999 -2.0187
   21MOL0     H 2798   1.163   5.126  11.156  0.9027 -0.5029  0.4797
   21MOL0     H 2799   0.884   4.627  10.890  1.8960  4.9934 -1.7770
   21MOL0     H 2800   0.903   4.382  10.839  0.9041 -1.2840 -1.5955
   21MOL0     H 2801   1.227   4.236  10.557  0.6053  0.2888  0.7895
   21MOL0     H 2802   1.097   4.123  10.561  3.6079  0.4239 -0.6207
   21MOL0     H 2803   0.953   4.251  10.443 -1.2440  1.9685  0.3403
   21MOL0     H 2804   1.032   4.404  10.454  1.0286 -0.4418 -0.4023
   21MOL0     H 2805   1.224   4.302  10.322  1.0855 -0.3985 -1.1497
   21MOL0     H 2806   1.075   4.340  10.227  1.3135  2.6920  1.7651
   21MOL0     H 2807   1.160   4.059  10.333 -2.4757 -1.9857 -1.0225
   21MOL0     H 2808   1.002   4.092  10.255  0.2587 -2.6823  4.7684
   21MOL0     H 2809   1.280   4.152  10.156  1.3747 -4.1342 -1.5366
   21MOL0     H 2810   1.125   4.174  10.066 -2.4346  1.7816  1.8520
   21MOL0     H 2811   1.193   3.915  10.181  2.8300  1.1110 -0.0408
   21MOL0     H 2812   1.085   3.956  10.031 -1.8324 -0.9707  3.2786
   21MOL0     H 2813   1.388   3.985  10.068 -1.3119  0.5070  1.1853
   21MOL0     H 2814   1.306   4.009   9.916 -1.4243 -1.6949 -1.7591
   21MOL0     H 2815   1.262   3.760   9.891 -0.5588 -0.7758  0.3054
   21MOL0     H 2816   1.326   3.726  10.037  1.5677 -3.5381 -3.3198
   21MOL0     H 2817   1.271   4.440  10.649 -0.2322  0.2778 -1.2174
   21MOL0     H 2818   1.258   4.671  10.681 -0.7577 -0.0582 -0.8679
   21MOL0     H 2819   1.219   4.969  10.655 -1.8573 -0.2793  1.6092
   21MOL0     H 2820   1.349   5.167  10.601  3.0985 -3.7618  0.7652
   21MOL0     H 2821   2.810   5.229   9.599 -0.2869 -2.4076  3.1530
   21MOL0     H 2822   3.030   5.220   9.492  1.8410 -3.0922  0.0893
   21MOL0     H 2823   3.366   4.741   9.365  0.2124  0.6262  0.3358
   21MOL0     H 2824   3.575   4.713   9.230 -0.6953  0.4221 -1.8759
   21MOL0     H 2825   3.774   4.824   9.214 -5.2578 -2.7367  0.7086
   21MOL0     H 2826   3.771   4.732   9.065  0.3112 -0.0011  0.6862
   21MOL0     H 2827   3.998   4.829   9.098 -0.3870 -1.5395 -0.6964
   21MOL0     H 2828   3.920   4.983   9.083 -0.6920 -1.4263  3.5409
   21MOL0     H 2829   3.845   4.838   8.841  0.9661 -2.7052 -0.2970
   21MOL0     H 2830   4.014   4.796   8.872  1.0920  0.5938  0.6714
   21MOL0     H 2831   4.035   4.978   8.749 -1.6800 -1.4062 -1.1550
   21MOL0     H 2832   4.081   5.016   8.910  1.3805  1.8917 -2.4932
   21MOL0     H 2833   3.715   5.221   8.764  0.0872 -1.3091 -0.9730
   21MOL0     H 2834   3.508   5.099   9.044  2.1792  1.2260  1.3652
   21MOL0     H 2835   3.294   5.114   9.152 -0.5633 -0.2405 -2.7389
   22MOL0     O 2836  10.786   4.757   8.177 -0.0544 -0.2509 -0.7475
   22MOL0     C 2837  10.758   4.822   8.278 -0.0511  0.1887  0.2317
   22MOL0     O 2838  10.786   4.955   8.307  0.1073  0.8837  0.5387
   22MOL0     C 2839  10.838   5.038   8.212 -0.6022 -0.1447 -0.1698
   22MOL0     C 2840  10.878   5.156   8.268  0.7392 -0.7556 -0.0125
   22MOL0     C 2841  10.945   5.258   8.193  0.1739 -0.1876 -1.0987
   22MOL0     C 2842  11.002   5.228   8.071  0.1782 -0.2422  0.0266
   22MOL0     O 2843  11.090   5.320   8.026 -0.3155 -0.0856 -0.0555
   22MOL0     C 2844  11.162   5.281   7.909 -1.6132  0.0140  0.8680
   22MOL0     C 2845  11.278   5.373   7.872  0.0552 -0.0440 -0.5774
   22MOL0     C 2846  11.236   5.521   7.855 -0.0567 -0.4690  0.7126
   22MOL0     C 2847  11.330   5.616   7.780  0.0140 -0.5302 -0.7236
   22MOL0     C 2848  11.305   5.768   7.818 -0.8380  1.3622  0.2438
   22MOL0     C 2849  11.411   5.862   7.762 -0.5319  0.3348 -0.4283
   22MOL0     C 2850  11.403   5.890   7.610 -0.4758  1.0608 -0.1611
   22MOL0     C 2851  11.471   6.026   7.584  0.0583  0.5747  0.5455
   22MOL0     N 2852  11.593   6.045   7.654 -0.4336 -0.1090 -0.6841
   22MOL0     C 2853  11.697   5.950   7.639 -0.4496  0.1996  0.2916
   22MOL0     C 2854  11.792   5.991   7.733  0.4212  0.5873  0.0209
   22MOL0     C 2855  11.924   5.915   7.771  0.4177 -0.6631  0.0398
   22MOL0     C 2856  11.915   5.856   7.916  0.7650  1.0343 -0.9528
   22MOL0     C 2857  11.805   5.752   7.941 -1.0100 -0.0108 -0.5228
   22MOL0     C 2858  11.806   5.728   8.092 -0.3319  1.1179  0.2853
   22MOL0     O 2859  11.744   5.593   8.123  0.4023 -0.2589  0.0637
   22MOL0     C 2860  11.613   5.605   8.153  0.6788  0.0726 -0.5482
   22MOL0     C 2861  11.546   5.484   8.189 -0.6340 -0.3012 -0.2713
   22MOL0     C 2862  11.410   5.473   8.232 -0.6543 -0.1332 -0.7721
   22MOL0     C 2863  11.367   5.335   8.274  0.2744  0.2459  0.5248
   22MOL0     C 2864  11.328   5.590   8.237 -0.5023  0.5038  0.3134
   22MOL0     C 2865  11.200   5.589   8.303  0.4828  0.2644 -0.0071
   22MOL0     O 2866  11.116   5.687   8.262  1.1321  0.8543 -0.0340
   22MOL0     C 2867  11.002   5.694   8.340  0.0971  0.4945 -0.4945
   22MOL0     C 2868  10.879   5.673   8.272  0.0467  0.1515 -0.3530
   22MOL0     C 2869  10.764   5.700   8.350  0.0190  1.2770  0.6838
   22MOL0     C 2870  10.770   5.744   8.487  0.1523 -0.9339  0.5831
   22MOL0     O 2871  10.654   5.762   8.567 -0.6102  0.4589  0.1433
   22MOL0     C 2872  10.655   5.761   8.713  0.5426 -0.3088  0.0008
   22MOL0     C 2873  10.513   5.768   8.764 -0.2581 -0.0205  0.1678
   22MOL0     C 2874  10.423   5.652   8.720 -0.5195 -0.8925  0.7325
   22MOL0     C 2875  10.310   5.645   8.832 -0.7057 -0.4268  0.6390
   22MOL0     C 2876  10.220   5.516   8.805 -0.3218 -0.5818 -0.4044
   22MOL0     C 2877  10.147   5.462   8.939 -1.0891  0.2406 -0.6487
   22MOL0     C 2878  10.258   5.399   9.025  0.3423 -0.4381  0.4753
   22MOL0     C 2879  10.194   5.306   9.119 -0.2599  0.4021 -0.0677
   22MOL0    Cl 2880  10.136   5.426   9.238 -0.2875  0.0375  0.0206
   22MOL0     C 2881  10.900   5.771   8.543  0.3053  0.1287 -0.0633
   22MOL0     C 2882  11.013   5.741   8.469 -0.4058  0.3534  0.4411
   22MOL0     O 2883  11.181   5.511   8.400 -0.5096 -0.1318  0.5554
   22MOL0     C 2884  11.379   5.709   8.184  0.1755  0.1629  0.0055
   22MOL0     C 2885  11.517   5.717   8.139 -1.6049  0.5527 -0.0774
   22MOL0     N 2886  11.748   6.122   7.779  0.0553  1.6450  0.1195
   22MOL0     N 2887  11.623   6.143   7.738 -0.4938 -0.4490 -0.5480
   22MOL0     C 2888  10.948   5.110   8.009  0.9402 -0.5784 -0.4647
   22MOL0     C 2889  10.866   5.020   8.082 -0.2939  1.0283 -0.1152
   22MOL0     C 2890  10.719   4.736   8.394  0.6597  0.0227  0.4357
   22MOL0     C 2891  10.722   4.784   8.520 -0.6664  0.4853  0.1348
   22MOL0     C 2892  10.698   4.706   8.632  0.9245 -0.0667 -0.7647
   22MOL0     C 2893  10.673   4.570   8.627 -0.3880  0.7505  0.2405
   22MOL0     O 2894  10.691   4.474   8.724  0.1303  0.6191  0.6371
   22MOL0     C 2895  10.706   4.516   8.861  0.4289  0.1395 -0.9469
   22MOL0     C 2896  10.564   4.531   8.909 -0.1867 -0.0511 -1.0247
   22MOL0     C 2897  10.467   4.406   8.918  0.5719 -1.3076  0.3042
   22MOL0     C 2898  10.424   4.343   8.780  0.6838  0.2314 -0.6604
   22MOL0     C 2899  10.336   4.223   8.796  0.8730 -0.3232 -0.2969
   22MOL0     C 2900  10.250   4.131   8.807  0.1323 -0.5123  0.1116
   22MOL0     C 2901  10.662   4.528   8.496  0.6270  0.0340  0.0186
   22MOL0     C 2902  10.685   4.600   8.379  0.8888 -0.0553  0.0966
   22MOL0     H 2903  10.865   5.177   8.374 -3.2943 -0.5913 -0.3599
   22MOL0     H 2904  10.966   5.351   8.245 -4.6522  0.4963  0.1351
   22MOL0     H 2905  11.212   5.187   7.934  1.1041  1.2374  0.3980
   22MOL0     H 2906  11.094   5.264   7.825 -0.7924  0.9851 -0.0276
   22MOL0     H 2907  11.359   5.374   7.946  2.5191  2.8526 -3.0527
   22MOL0     H 2908  11.334   5.338   7.785  1.5039  2.6308 -0.8159
   22MOL0     H 2909  11.146   5.521   7.793  1.2204 -0.3067 -1.1943
   22MOL0     H 2910  11.196   5.565   7.947  1.0269  2.1366  0.0114
   22MOL0     H 2911  11.431   5.586   7.810 -0.0478  0.1230  0.1993
   22MOL0     H 2912  11.331   5.593   7.673  1.4284 -2.0632 -0.4221
   22MOL0     H 2913  11.209   5.801   7.776 -0.2442 -0.3779 -2.8015
   22MOL0     H 2914  11.317   5.770   7.927 -3.5859 -2.3866  0.8109
   22MOL0     H 2915  11.397   5.948   7.828  1.4106  0.2933  0.0890
   22MOL0     H 2916  11.506   5.819   7.792 -2.9498 -3.7475  2.3120
   22MOL0     H 2917  11.455   5.820   7.544  0.9139  1.2339  0.7097
   22MOL0     H 2918  11.298   5.911   7.586 -1.0986  0.0397  1.4381
   22MOL0     H 2919  11.401   6.108   7.602 -0.8353  0.6251 -2.6755
   22MOL0     H 2920  11.486   6.028   7.476 -1.2794 -1.2443  0.2867
   22MOL0     H 2921  11.700   5.857   7.583  1.0504 -0.6211  1.6439
   22MOL0     H 2922  11.942   5.840   7.693  1.9831  3.2284 -3.7580
   22MOL0     H 2923  12.000   5.993   7.762 -0.6446  0.4603  0.4939
   22MOL0     H 2924  11.877   5.940   7.975 -2.1937  0.4177 -1.8132
   22MOL0     H 2925  12.010   5.820   7.958 -0.6775 -0.4757  1.2387
   22MOL0     H 2926  11.818   5.656   7.891 -1.9017 -0.3790 -0.0745
   22MOL0     H 2927  11.703   5.788   7.924 -2.1134 -2.7569 -0.3035
   22MOL0     H 2928  11.755   5.812   8.140 -1.5642 -0.2290  1.4340
   22MOL0     H 2929  11.909   5.726   8.127  0.7020 -0.4764 -2.5139
   22MOL0     H 2930  11.618   5.404   8.179  0.8752  1.2274 -2.7061
   22MOL0     H 2931  11.370   5.331   8.384 -0.7087 -2.4680  0.5373
   22MOL0     H 2932  11.266   5.323   8.236  1.3551  4.4266 -4.7880
   22MOL0     H 2933  11.425   5.253   8.229  0.8692  0.4030  0.9791
   22MOL0     H 2934  10.869   5.654   8.166  0.9177 -0.6926 -0.2871
   22MOL0     H 2935  10.664   5.667   8.327 -0.0294 -1.4701  4.0337
   22MOL0     H 2936  10.703   5.668   8.745  1.8910 -0.6723 -2.7235
   22MOL0     H 2937  10.705   5.845   8.763  0.4794 -0.5080  0.4040
   22MOL0     H 2938  10.520   5.788   8.871  0.4534  0.1620  0.0975
   22MOL0     H 2939  10.463   5.852   8.715 -2.2014 -1.3632 -0.2469
   22MOL0     H 2940  10.488   5.566   8.703  0.6877  0.5096 -2.6263
   22MOL0     H 2941  10.377   5.671   8.623 -0.6331  1.6170  1.2242
   22MOL0     H 2942  10.370   5.627   8.922  0.4965 -0.5853 -0.1713
   22MOL0     H 2943  10.248   5.734   8.832  0.3046  0.4761 -3.3581
   22MOL0     H 2944  10.290   5.448   8.756 -1.4478 -0.7413 -1.8530
   22MOL0     H 2945  10.143   5.525   8.728  0.4803 -4.1312 -1.8220
   22MOL0     H 2946  10.095   5.538   8.996 -0.4374 -0.1648  0.5153
   22MOL0     H 2947  10.076   5.382   8.920  0.4127 -0.5315 -3.7029
   22MOL0     H 2948  10.322   5.469   9.079  2.2617 -2.4297  0.8975
   22MOL0     H 2949  10.329   5.335   8.973  0.9532 -0.1266  0.9125
   22MOL0     H 2950  10.261   5.230   9.161 -0.8266 -0.7848 -1.2179
   22MOL0     H 2951  10.107   5.251   9.081 -1.0594  1.0178  0.8178
   22MOL0     H 2952  10.919   5.800   8.646  0.0454  0.1223 -0.0109
   22MOL0     H 2953  11.110   5.742   8.517 -1.2752  0.0964  2.3310
   22MOL0     H 2954  11.319   5.798   8.174  0.4466  0.6760  2.3484
   22MOL0     H 2955  11.544   5.805   8.081 -2.0376  1.2506  0.7595
   22MOL0     H 2956  10.977   5.080   7.910  1.5819 -1.6397  0.0308
   22MOL0     H 2957  10.841   4.928   8.029 -1.3896  0.1180  1.8631
   22MOL0     H 2958  10.750   4.888   8.534  1.3186  0.2240 -1.4409
   22MOL0     H 2959  10.714   4.750   8.729 -0.3513  0.1232 -0.6233
   22MOL0     H 2960  10.767   4.449   8.922  0.6288  2.6776  1.8987
   22MOL0     H 2961  10.745   4.618   8.872 -0.6098  0.3659  1.3613
   22MOL0     H 2962  10.519   4.618   8.860  0.0116  0.5299 -0.2194
   22MOL0     H 2963  10.585   4.555   9.014 -0.6019  0.3772 -1.0319
   22MOL0     H 2964  10.377   4.435   8.974 -0.4234 -1.8559 -0.9553
   22MOL0     H 2965  10.517   4.324   8.970 -1.1115 -3.0499 -0.7174
   22MOL0     H 2966  10.513   4.302   8.732 -0.6812  0.1446 -3.3403
   22MOL0     H 2967  10.389   4.421   8.712  0.1614  0.3819 -0.2285
   22MOL0     H 2968  10.173   4.057   8.797 -1.8994  0.6817  4.2607
   22MOL0     H 2969  10.657   4.421   8.481 -0.5545  0.1828 -0.8201
   22MOL0     H 2970  10.677   4.550   8.283  0.7849  1.5425 -0.7526
   23MOL0     O 2971   1.904   5.905   9.890  0.4513  0.2153 -0.7408
   23MOL0     C 2972   1.870   5.917   9.774  0.7859 -0.1575 -0.1896
   23MOL0     O 2973   1.737   5.925   9.728 -0.2768 -0.5032  0.2035
   23MOL0     C 2974   1.640   5.886   9.817  0.2921  0.6537  0.0279
   23MOL0     C 2975   1.555   5.981   9.864  0.5384  0.1869  0.5965
   23MOL0     C 2976   1.456   5.935   9.954  0.1009  0.1736  0.3803
   23MOL0     C 2977   1.452   5.804  10.004  0.1946 -0.9109 -0.9091
   23MOL0     O 2978   1.364   5.772  10.107  0.7000  0.6413  0.6318
   23MOL0     C 2979   1.249   5.697  10.059  0.6206  0.8031 -0.4373
   23MOL0     C 2980   1.119   5.755  10.131  0.6492 -0.7619 -0.4059
   23MOL0     C 2981   0.993   5.681  10.094  1.3572  0.2798  0.1890
   23MOL0     C 2982   0.885   5.727  10.186 -0.4037 -1.0291 -0.4673
   23MOL0     C 2983   0.773   5.627  10.204  0.0420  0.0112 -0.1131
   23MOL0     C 2984   0.651   5.707  10.256 -0.6259  0.5781  0.4255
   23MOL0     C 2985   0.540   5.610  10.317 -0.4597 -0.1192  0.2528
   23MOL0     C 2986   0.493   5.490  10.225 -0.6259  0.2708 -0.3714
   23MOL0     N 2987   0.400   5.411  10.299 -0.7212  0.9961  0.5332
   23MOL0     C 2988   0.427   5.323  10.405 -0.2838 -0.2361 -0.4066
   23MOL0     C 2989   0.312   5.301  10.467  0.4143 -0.8366  1.5522
   23MOL0     C 2990   0.277   5.235  10.596  0.3112  0.2477 -1.1268
   23MOL0     C 2991   0.284   5.077  10.577 -0.2204 -0.3439  0.4881
   23MOL0     C 2992   0.247   5.007  10.710  0.2049 -0.4271  1.1350
   23MOL0     C 2993   0.316   5.080  10.823 -0.9095 -0.5915  0.2958
   23MOL0     O 2994   0.257   5.025  10.946  0.6280  0.0520 -0.1561
   23MOL0     C 2995   0.261   5.096  11.064  0.3637 -0.1028  1.2615
   23MOL0     C 2996   0.149   5.115  11.140  0.3595 -0.3040 -0.3026
   23MOL0     C 2997   0.151   5.195  11.258  0.4182  0.1297  0.8208
   23MOL0     C 2998   0.020   5.224  11.321  0.6616 -0.0155 -0.3841
   23MOL0     C 2999   0.276   5.236  11.303  0.7229 -0.1354  0.1390
   23MOL0     C 3000   0.283   5.326  11.424 -0.4906  0.2368  0.0226
   23MOL0     O 3001   0.410   5.382  11.440  0.9056 -0.0650  0.5435
   23MOL0     C 3002   0.435   5.459  11.548 -0.7251  0.3592  1.0020
   23MOL0     C 3003   0.386   5.589  11.545 -0.3225 -0.0438  1.0044
   23MOL0     C 3004   0.408   5.685  11.643 -0.0421  0.7117 -0.1256
   23MOL0     C 3005   0.482   5.647  11.753 -0.3119 -0.3660 -0.5593
   23MOL0     O 3006   0.498   5.750  11.848  0.7576  0.4488 -0.0133
   23MOL0     C 3007   0.556   5.716  11.974 -1.1309  0.2428  0.0825
   23MOL0     C 3008   0.530   5.827  12.076 -0.4831 -0.4814 -0.1136
   23MOL0     C 3009   0.635   5.942  12.074  0.9240 -0.7875  0.4327
   23MOL0     C 3010   0.627   6.043  12.188  0.1649 -1.0054 -0.4207
   23MOL0     C 3011   0.705   6.173  12.169  0.0736  0.7657 -0.1094
   23MOL0     C 3012   0.694   6.276  12.280 -0.4676 -0.9065 -0.0590
   23MOL0     C 3013   0.769   6.393  12.219 -0.4990  0.1974  0.0940
   23MOL0     C 3014   0.725   6.529  12.274 -0.0428 -0.1173  0.1678
   23MOL0    Cl 3015   0.835   6.648  12.222 -0.1459  0.1002  0.1131
   23MOL0     C 3016   0.536   5.517  11.759  0.7774  0.2708 -0.2417
   23MOL0     C 3017   0.509   5.419  11.658  0.2725  0.1739 -0.1419
   23MOL0     O 3018   0.193   5.323  11.515 -0.2427 -0.0289 -0.7352
   23MOL0     C 3019   0.392   5.218  11.215  0.0835  0.0978 -0.1100
   23MOL0     C 3020   0.380   5.146  11.102 -1.1014  0.2797 -0.2449
   23MOL0     N 3021   0.215   5.360  10.393 -1.1644 -1.0495  0.4460
   23MOL0     N 3022   0.263   5.429  10.296  0.7038  0.1519 -0.8958
   23MOL0     C 3023   1.538   5.709   9.956 -0.7918 -0.3630  0.0502
   23MOL0     C 3024   1.637   5.754   9.862 -0.1925 -0.1185 -0.4053
   23MOL0     C 3025   1.981   5.939   9.675 -0.3681  0.6356 -0.6145
   23MOL0     C 3026   1.952   5.940   9.534 -0.5132 -0.5329  0.2637
   23MOL0     C 3027   2.056   5.969   9.446 -0.1253  0.2293  0.1772
   23MOL0     C 3028   2.178   6.027   9.493  0.2992  1.1506  0.5692
   23MOL0     O 3029   2.259   6.066   9.386 -0.5413  0.0262 -0.4504
   23MOL0     C 3030   2.397   6.085   9.408  0.7580 -0.0564 -0.4965
   23MOL0     C 3031   2.448   6.156   9.287  0.1075 -0.2296  0.2874
   23MOL0     C 3032   2.593   6.197   9.291  0.3284  0.2427  0.3968
   23MOL0     C 3033   2.679   6.080   9.326 -0.1630  0.6272 -0.7887
   23MOL0     C 3034   2.705   6.059   9.468  0.3251 -0.6965  0.0477
   23MOL0     C 3035   2.722   6.064   9.586  0.3243 -0.3108 -0.4938
   23MOL0     C 3036   2.206   6.019   9.626 -0.1366 -1.4469  0.9494
   23MOL0     C 3037   2.112   5.987   9.714 -0.3779  0.8638  0.6035
   23MOL0     H 3038   1.554   6.085   9.834 -0.4424 -0.6278 -2.5939
   23MOL0     H 3039   1.391   6.007  10.003 -2.6925  0.0060 -2.7237
   23MOL0     H 3040   1.225   5.700   9.952  0.2712 -4.5446 -0.7723
   23MOL0     H 3041   1.254   5.594  10.094  0.5122  1.1371  0.5891
   23MOL0     H 3042   1.136   5.767  10.238  0.7601  1.2460 -0.6018
   23MOL0     H 3043   1.114   5.857  10.091 -1.3742 -1.0315 -0.9454
   23MOL0     H 3044   0.963   5.693   9.989  1.2796 -1.8541 -0.0791
   23MOL0     H 3045   0.998   5.572  10.100 -0.4777  0.2176  1.6131
   23MOL0     H 3046   0.915   5.755  10.288  1.0974  2.1529 -1.6663
   23MOL0     H 3047   0.850   5.818  10.138  2.1175 -0.1925 -0.8866
   23MOL0     H 3048   0.760   5.585  10.104  1.2771  1.0724 -0.7557
   23MOL0     H 3049   0.794   5.546  10.275 -1.9660 -2.9684 -2.6175
   23MOL0     H 3050   0.686   5.778  10.331 -0.1878  0.2961  0.4924
   23MOL0     H 3051   0.611   5.768  10.175  1.5991  2.1376  0.4145
   23MOL0     H 3052   0.575   5.565  10.411  1.0523 -0.1679 -0.3090
   23MOL0     H 3053   0.449   5.669  10.334 -2.0375 -2.1330 -0.8067
   23MOL0     H 3054   0.564   5.421  10.178  0.2173  0.8679 -0.0156
   23MOL0     H 3055   0.449   5.540  10.138  0.7166  0.9875 -0.6746
   23MOL0     H 3056   0.525   5.289  10.437 -0.6063  2.5209  4.5896
   23MOL0     H 3057   0.357   5.273  10.661 -0.8883 -0.5616  0.8957
   23MOL0     H 3058   0.182   5.259  10.645  1.0565 -0.7374  0.9274
   23MOL0     H 3059   0.381   5.048  10.536 -1.1410 -1.4586 -0.9990
   23MOL0     H 3060   0.212   5.049  10.499  0.1960 -0.5867  0.1862
   23MOL0     H 3061   0.291   4.908  10.697 -1.7409 -0.9909 -2.1622
   23MOL0     H 3062   0.137   5.007  10.710  0.1983 -1.3915  1.6310
   23MOL0     H 3063   0.294   5.187  10.823 -0.6591 -0.5400  0.4943
   23MOL0     H 3064   0.425   5.071  10.820 -0.5400  2.1457  1.9593
   23MOL0     H 3065   0.061   5.084  11.085  0.0445  0.2573 -0.1141
   23MOL0     H 3066   0.023   5.333  11.327  2.6434 -0.0018 -1.1056
   23MOL0     H 3067  -0.067   5.182  11.269 -0.8509  1.1597  1.0906
   23MOL0     H 3068   0.013   5.195  11.427 -1.7090  3.8973  0.7298
   23MOL0     H 3069   0.311   5.613  11.470  0.3156 -3.2122 -0.8532
   23MOL0     H 3070   0.353   5.778  11.647 -0.6810  0.2929  2.7409
   23MOL0     H 3071   0.508   5.626  12.015 -0.3849 -1.3901 -2.3522
   23MOL0     H 3072   0.665   5.705  11.968 -0.9852 -1.1183  3.2234
   23MOL0     H 3073   0.434   5.872  12.049 -0.1008  1.2981  1.3265
   23MOL0     H 3074   0.528   5.783  12.176  1.8750 -0.3596  0.0485
   23MOL0     H 3075   0.620   5.999  11.982  1.4691  0.9965  1.4033
   23MOL0     H 3076   0.736   5.900  12.078  0.1980 -2.5148  1.9005
   23MOL0     H 3077   0.522   6.072  12.201  0.6747 -0.2096  2.9865
   23MOL0     H 3078   0.669   5.996  12.277 -1.1082 -2.0777 -0.3548
   23MOL0     H 3079   0.660   6.216  12.079 -4.0900 -3.2686 -0.3309
   23MOL0     H 3080   0.813   6.158  12.163  0.6394  3.3296  1.8201
   23MOL0     H 3081   0.589   6.292  12.307 -0.4064  0.1135 -0.3897
   23MOL0     H 3082   0.750   6.258  12.372 -1.6312  3.4008  1.7498
   23MOL0     H 3083   0.768   6.409  12.111 -1.3149  1.6836  0.2867
   23MOL0     H 3084   0.875   6.380  12.243 -0.9681 -3.4421  0.8279
   23MOL0     H 3085   0.717   6.525  12.383 -0.0903 -4.0646  0.1657
   23MOL0     H 3086   0.626   6.544  12.231 -1.0874 -3.6435  1.0237
   23MOL0     H 3087   0.594   5.485  11.845  1.4388  0.1136 -0.7464
   23MOL0     H 3088   0.537   5.314  11.657  1.0364  0.2998  1.9145
   23MOL0     H 3089   0.491   5.261  11.227  1.0810 -1.7451 -1.3064
   23MOL0     H 3090   0.468   5.137  11.040 -0.3212  1.1187  0.6942
   23MOL0     H 3091   1.534   5.607   9.992  0.5579 -0.6426 -0.5515
   23MOL0     H 3092   1.711   5.691   9.813 -1.1575  0.1255 -2.2849
   23MOL0     H 3093   1.857   5.918   9.486 -1.8005  0.0580  2.4018
   23MOL0     H 3094   2.044   5.958   9.339  3.9525 -2.1271 -0.2595
   23MOL0     H 3095   2.409   6.159   9.487  0.0803  2.6358 -2.7578
   23MOL0     H 3096   2.455   5.997   9.437  0.6959  0.0995  0.1161
   23MOL0     H 3097   2.403   6.256   9.291  2.6423  1.0689 -1.1538
   23MOL0     H 3098   2.412   6.102   9.199 -3.7927  1.4336  0.6632
   23MOL0     H 3099   2.609   6.282   9.358  0.1996  0.0993  0.6109
   23MOL0     H 3100   2.617   6.232   9.190 -1.7007  3.3296  0.8505
   23MOL0     H 3101   2.773   6.095   9.271  0.5053  3.4754  0.9247
   23MOL0     H 3102   2.637   5.985   9.293  0.5819  0.5294 -1.5054
   23MOL0     H 3103   2.750   6.063   9.689  0.8492 -1.9519 -0.6343
   23MOL0     H 3104   2.298   6.068   9.654 -0.1401  0.0048 -1.2888
   23MOL0     H 3105   2.127   5.986   9.822 -1.1723  0.0108  0.7163
   24MOL0     O 3106   4.118   8.419  10.408  0.5478 -0.0152  0.1455
   24MOL0     C 3107   4.053   8.308  10.405 -0.1325 -0.5348 -0.2992
   24MOL0     O 3108   4.053   8.223  10.509 -0.0040  0.1482  0.3068
   24MOL0     C 3109   4.154   8.257  10.604  0.0214  0.5005 -0.3663
   24MOL0     C 3110   4.293   8.248  10.572 -0.3023 -0.1651 -0.3302
   24MOL0     C 3111   4.390   8.296  10.665  0.4257 -0.4713 -0.6081
   24MOL0     C 3112   4.349   8.329  10.800 -0.4905 -0.5597  0.0607
   24MOL0     O 3113   4.437   8.352  10.905  0.2774  0.3361 -0.2950
   24MOL0     C 3114   4.580   8.383  10.883 -0.7889 -1.3187 -0.0877
   24MOL0     C 3115   4.607   8.519  10.830 -0.3456 -0.3371 -0.2645
   24MOL0     C 3116   4.756   8.553  10.845 -0.6711 -1.1093  0.0142
   24MOL0     C 3117   4.796   8.675  10.755  0.5386 -0.1353  0.4701
   24MOL0     C 3118   4.941   8.717  10.773  0.4263 -0.0184 -0.9456
   24MOL0     C 3119   5.037   8.605  10.734  0.2892  0.9093  0.0624
   24MOL0     C 3120   5.186   8.642  10.754  0.4547  0.2460 -0.7057
   24MOL0     C 3121   5.269   8.518  10.757  0.6888  0.5532  0.5043
   24MOL0     N 3122   5.252   8.427  10.645 -1.1509 -0.1696 -0.3617
   24MOL0     C 3123   5.258   8.284  10.658 -1.4728  0.5692  0.4332
   24MOL0     C 3124   5.246   8.247  10.528 -0.2768 -0.1767 -0.4376
   24MOL0     C 3125   5.244   8.106  10.488 -0.2966 -0.4043  0.4193
   24MOL0     C 3126   5.175   8.013  10.584  0.5947 -0.2793  0.4657
   24MOL0     C 3127   5.031   8.050  10.623 -0.6251 -0.2248 -0.9819
   24MOL0     C 3128   4.994   8.015  10.772 -0.3757 -0.4858  0.5321
   24MOL0     O 3129   4.880   8.089  10.808 -0.1104 -0.0541 -0.2527
   24MOL0     C 3130   4.768   8.039  10.763  0.3847 -0.2910 -0.3778
   24MOL0     C 3131   4.698   7.954  10.844  0.4015  0.4053 -0.8885
   24MOL0     C 3132   4.575   7.905  10.797  0.1897  0.1108  0.2245
   24MOL0     C 3133   4.506   7.815  10.901 -0.0384  0.6068 -0.4580
   24MOL0     C 3134   4.533   7.929  10.663 -0.5580 -1.3728 -0.0605
   24MOL0     C 3135   4.409   7.870  10.599  0.1713 -1.2522  0.1825
   24MOL0     O 3136   4.368   7.931  10.480  0.2041  0.0888 -0.1306
   24MOL0     C 3137   4.249   7.892  10.427  0.9126  0.2593 -0.6073
   24MOL0     C 3138   4.134   7.931  10.493 -0.4730  0.3874 -0.3800
   24MOL0     C 3139   4.009   7.902  10.437  0.8637 -0.1896 -0.1752
   24MOL0     C 3140   3.999   7.830  10.325  0.2712  0.2032  0.9074
   24MOL0     O 3141   3.874   7.782  10.273  0.5129  0.5240  0.5795
   24MOL0     C 3142   3.741   7.805  10.332 -0.2559  0.5305  0.3106
   24MOL0     C 3143   3.622   7.771  10.233 -0.5276  0.2295 -1.7704
   24MOL0     C 3144   3.504   7.850  10.288 -0.5417  1.0093 -0.6984
   24MOL0     C 3145   3.397   7.830  10.180 -0.0918  0.6278 -1.0130
   24MOL0     C 3146   3.274   7.915  10.206  1.5993  0.4133 -0.0476
   24MOL0     C 3147   3.208   7.921  10.347 -0.5998  0.7154  0.1901
   24MOL0     C 3148   3.182   7.793  10.418  0.5280  0.7343 -0.5822
   24MOL0     C 3149   3.108   7.806  10.545 -0.3816 -0.2840 -0.7299
   24MOL0    Cl 3150   2.936   7.814  10.515  0.0736  0.1634  0.8654
   24MOL0     C 3151   4.121   7.790  10.258 -0.4051 -0.1224  0.8882
   24MOL0     C 3152   4.245   7.825  10.316 -0.9566  1.0454 -0.2559
   24MOL0     O 3153   4.341   7.788  10.661  0.6340  0.6376  0.0085
   24MOL0     C 3154   4.607   8.025  10.592 -0.5107  0.7631 -1.1221
   24MOL0     C 3155   4.710   8.087  10.645  1.2598 -0.2338 -0.9544
   24MOL0     N 3156   5.238   8.347  10.442  0.0253  0.3063 -0.2231
   24MOL0     N 3157   5.236   8.454  10.512  0.4557 -0.1576  0.0518
   24MOL0     C 3158   4.210   8.319  10.831 -0.6695 -0.0525  0.7878
   24MOL0     C 3159   4.116   8.291  10.731  0.0193 -0.6239 -0.6512
   24MOL0     C 3160   3.972   8.280  10.288  0.4231 -0.4256  0.2409
   24MOL0     C 3161   3.997   8.337  10.161 -1.0066  0.3769  0.5136
   24MOL0     C 3162   3.910   8.305  10.049  0.1982 -0.2970 -0.6120
   24MOL0     C 3163   3.808   8.205  10.060 -1.1388  0.5619  0.4458
   24MOL0     O 3164   3.743   8.166   9.949 -0.0607  0.1577 -0.4368
   24MOL0     C 3165   3.630   8.076   9.975  0.4606 -0.9022  0.9290
   24MOL0     C 3166   3.574   8.031   9.847 -0.6435  0.0102 -0.1380
   24MOL0     C 3167   3.665   7.939   9.770 -0.9504 -0.2860 -0.5694
   24MOL0     C 3168   3.705   8.008   9.626 -0.1081  0.6000 -1.2817
   24MOL0     C 3169   3.818   8.094   9.642 -0.2223 -0.2714 -0.3820
   24MOL0     C 3170   3.920   8.160   9.669 -0.1919 -0.7922  0.3227
   24MOL0     C 3171   3.779   8.163  10.194  0.4162 -0.3110  0.1869
   24MOL0     C 3172   3.859   8.194  10.299 -0.1012  0.2907  1.5754
   24MOL0     H 3173   4.313   8.211  10.472 -3.1215  0.6973 -1.3054
   24MOL0     H 3174   4.495   8.307  10.641  1.5123 -3.2807  2.1069
   24MOL0     H 3175   4.632   8.378  10.979 -4.4435 -3.7506  2.0138
   24MOL0     H 3176   4.629   8.302  10.828  2.2688 -0.2829  0.9357
   24MOL0     H 3177   4.585   8.526  10.723 -1.6360 -1.9095 -0.1552
   24MOL0     H 3178   4.537   8.588  10.878 -1.4792 -0.4180 -1.7347
   24MOL0     H 3179   4.757   8.576  10.952 -0.1154 -2.3920  0.3129
   24MOL0     H 3180   4.812   8.462  10.820 -2.8051 -1.7580 -2.9930
   24MOL0     H 3181   4.771   8.656  10.651 -0.0170  1.7828  0.2165
   24MOL0     H 3182   4.736   8.766  10.769  0.0581 -0.0166 -1.9923
   24MOL0     H 3183   4.960   8.799  10.704 -0.1614  0.7162 -0.2550
   24MOL0     H 3184   4.972   8.753  10.872  1.5146  1.1730 -1.6957
   24MOL0     H 3185   5.006   8.515  10.787  0.7319 -0.8461 -2.4950
   24MOL0     H 3186   5.024   8.589  10.627 -1.0914 -0.6839  0.4174
   24MOL0     H 3187   5.216   8.709  10.673 -0.5799  1.7451  0.1028
   24MOL0     H 3188   5.206   8.692  10.849 -0.7391 -0.1708 -0.2148
   24MOL0     H 3189   5.261   8.466  10.853  2.0463  1.0927  0.9271
   24MOL0     H 3190   5.374   8.545  10.752  0.4854  1.1479 -0.8213
   24MOL0     H 3191   5.268   8.218  10.744 -4.4239  0.5767  0.9146
   24MOL0     H 3192   5.180   8.099  10.400  0.6940 -1.7328 -0.2442
   24MOL0     H 3193   5.342   8.073  10.451 -0.8919 -1.2304 -0.4348
   24MOL0     H 3194   5.240   8.005  10.672 -1.0639  0.7026  1.8473
   24MOL0     H 3195   5.169   7.911  10.545  1.7845 -0.2546  0.1995
   24MOL0     H 3196   4.953   8.007  10.560 -0.6883 -1.5778 -0.0235
   24MOL0     H 3197   5.021   8.159  10.618 -0.4075 -0.0835  1.0554
   24MOL0     H 3198   5.079   8.033  10.840 -0.0989  1.6106 -0.2762
   24MOL0     H 3199   4.975   7.909  10.791 -2.7200  0.2792  3.0990
   24MOL0     H 3200   4.739   7.930  10.942  0.0311  4.5248  0.4681
   24MOL0     H 3201   4.558   7.823  10.997  1.4640  0.2644 -1.2087
   24MOL0     H 3202   4.402   7.840  10.921 -0.4505 -1.9690  1.1929
   24MOL0     H 3203   4.513   7.711  10.866 -1.0116  1.6303 -4.1621
   24MOL0     H 3204   4.131   7.992  10.582  2.0945  0.7788 -0.4672
   24MOL0     H 3205   3.929   7.943  10.498  2.6047  2.0822  0.7714
   24MOL0     H 3206   3.726   7.748  10.423  2.3200  0.4889  0.7815
   24MOL0     H 3207   3.743   7.912  10.352  2.0591  0.6997 -0.4625
   24MOL0     H 3208   3.658   7.801  10.134  3.1568  1.6429 -0.1820
   24MOL0     H 3209   3.595   7.666  10.246 -1.1244  0.3674 -1.8640
   24MOL0     H 3210   3.529   7.955  10.309  5.2197 -0.1557 -0.1090
   24MOL0     H 3211   3.486   7.797  10.382 -0.1056 -0.1341 -1.2429
   24MOL0     H 3212   3.441   7.851  10.082  5.4607 -1.9527  0.5059
   24MOL0     H 3213   3.366   7.725  10.191 -1.0933  0.7596 -2.2849
   24MOL0     H 3214   3.189   7.880  10.146 -0.6554 -0.1898  3.2039
   24MOL0     H 3215   3.305   8.018  10.189  1.0051  0.5876 -0.1097
   24MOL0     H 3216   3.289   7.973  10.400  2.0649 -0.8513 -2.0517
   24MOL0     H 3217   3.114   7.977  10.352 -1.4936 -0.8169  2.5193
   24MOL0     H 3218   3.280   7.752  10.445  0.8073  1.8442  0.1740
   24MOL0     H 3219   3.137   7.732  10.340 -1.1647 -3.0492  2.9630
   24MOL0     H 3220   3.131   7.886  10.616 -2.9851 -0.3982  0.3547
   24MOL0     H 3221   3.129   7.712  10.598 -1.9631 -0.8661 -1.0985
   24MOL0     H 3222   4.125   7.733  10.166  4.4771 -0.5000  1.1095
   24MOL0     H 3223   4.327   7.778  10.263  1.8456  1.4536  3.2858
   24MOL0     H 3224   4.572   8.051  10.493 -0.2075  1.1285 -1.1323
   24MOL0     H 3225   4.761   8.162  10.585  1.0652  0.4111 -0.3269
   24MOL0     H 3226   4.164   8.356  10.922  2.9794  2.1146  1.9922
   24MOL0     H 3227   4.016   8.307  10.771 -0.0912  0.7834 -1.4270
   24MOL0     H 3228   4.088   8.394  10.148  0.5661 -2.1530 -0.2454
   24MOL0     H 3229   3.945   8.337   9.951  1.9427 -0.9595 -0.2357
   24MOL0     H 3230   3.663   7.997  10.043  0.0341 -1.0955  0.9081
   24MOL0     H 3231   3.551   8.129  10.029  0.8962 -0.0854  0.7965
   24MOL0     H 3232   3.556   8.120   9.787  3.7088 -0.8709 -3.2536
   24MOL0     H 3233   3.477   7.984   9.865  0.5442 -1.7664  2.3011
   24MOL0     H 3234   3.614   7.842   9.764 -2.0151 -0.0834  3.0147
   24MOL0     H 3235   3.757   7.917   9.825 -2.3341 -2.5244  1.0167
   24MOL0     H 3236   3.614   8.060   9.596 -1.7529 -1.1764  0.3843
   24MOL0     H 3237   3.729   7.929   9.555 -2.5524 -1.9437  0.5296
   24MOL0     H 3238   3.994   8.229   9.702 -0.1186 -0.4916 -0.4426
   24MOL0     H 3239   3.711   8.085  10.228 -0.0840  0.0092 -0.0648
   24MOL0     H 3240   3.832   8.148  10.394 -0.2098 -2.2180  0.4207
   25MOL0     O 3241   5.034   7.488   7.466 -0.3499 -0.2889 -0.2791
   25MOL0     C 3242   5.148   7.444   7.448 -0.0239  0.4514  0.6523
   25MOL0     O 3243   5.174   7.320   7.399 -0.1118  0.5486  0.5131
   25MOL0     C 3244   5.066   7.231   7.412 -0.4006 -0.8840 -0.2515
   25MOL0     C 3245   5.086   7.116   7.484  0.6663  0.1394 -0.1076
   25MOL0     C 3246   4.991   7.016   7.490 -0.0430  0.2120 -1.1068
   25MOL0     C 3247   4.863   7.042   7.431 -0.2406 -0.0734  0.4005
   25MOL0     O 3248   4.763   6.948   7.455 -0.3236  1.1333  0.4012
   25MOL0     C 3249   4.656   6.930   7.359  0.4391 -0.8418 -0.1918
   25MOL0     C 3250   4.604   6.782   7.381  0.2745  1.4728 -0.1268
   25MOL0     C 3251   4.709   6.680   7.316 -0.6206  0.1794  0.6450
   25MOL0     C 3252   4.653   6.538   7.331 -1.0071  1.1097  0.6297
   25MOL0     C 3253   4.728   6.428   7.240  0.4755  0.2390  0.2168
   25MOL0     C 3254   4.863   6.392   7.299 -0.8765  0.0187 -0.1628
   25MOL0     C 3255   4.956   6.311   7.209  0.5750 -0.2686 -0.7315
   25MOL0     C 3256   5.074   6.264   7.285 -0.5917  0.8111  0.3155
   25MOL0     N 3257   5.162   6.371   7.338  0.0729  0.2776 -0.2396
   25MOL0     C 3258   5.223   6.470   7.262  0.0155  0.1462 -0.0644
   25MOL0     C 3259   5.255   6.559   7.358  0.2478 -0.5879 -0.0718
   25MOL0     C 3260   5.320   6.698   7.342  1.1876 -0.1523 -0.8109
   25MOL0     C 3261   5.233   6.785   7.248  0.4801  0.1472  0.3729
   25MOL0     C 3262   5.288   6.924   7.236  0.2540 -0.1654  0.8598
   25MOL0     C 3263   5.187   6.985   7.130 -0.3990 -0.2421 -0.1780
   25MOL0     O 3264   5.237   7.121   7.114  0.0606 -0.4057 -0.7662
   25MOL0     C 3265   5.359   7.143   7.047 -0.2793  0.1980 -0.4724
   25MOL0     C 3266   5.418   7.043   6.967  0.0287  0.5713  0.6894
   25MOL0     C 3267   5.554   7.050   6.935  0.1092 -0.4972 -0.5427
   25MOL0     C 3268   5.599   6.932   6.852 -0.4283  1.2302  1.0609
   25MOL0     C 3269   5.631   7.160   6.970 -0.0942 -0.2965 -0.4770
   25MOL0     C 3270   5.766   7.173   6.910 -0.3340  0.7033  1.0641
   25MOL0     O 3271   5.802   7.295   6.863  0.4177  0.0803 -0.5187
   25MOL0     C 3272   5.931   7.331   6.843  0.0289  0.1833  1.8557
   25MOL0     C 3273   6.020   7.256   6.761 -0.5522  0.0853 -1.4775
   25MOL0     C 3274   6.156   7.278   6.747 -0.3036 -0.0705  0.2444
   25MOL0     C 3275   6.218   7.396   6.800 -0.7390 -0.3303 -0.4530
   25MOL0     O 3276   6.347   7.419   6.772 -0.4543  0.1862 -0.3905
   25MOL0     C 3277   6.368   7.490   6.654  0.6627  0.2937  0.1364
   25MOL0     C 3278   6.521   7.501   6.639  0.1946 -0.6140  0.6696
   25MOL0     C 3279   6.565   7.602   6.530  0.9099 -0.2818 -0.0853
   25MOL0     C 3280   6.548   7.543   6.394  0.5613  0.3529  0.7014
   25MOL0     C 3281   6.593   7.645   6.287 -0.2374  0.2233  0.3988
   25MOL0     C 3282   6.542   7.596   6.142 -0.5079 -0.1588 -0.5619
   25MOL0     C 3283   6.579   7.449   6.100  0.8260  0.4491 -0.2850
   25MOL0     C 3284   6.545   7.429   5.948 -0.9732  0.6918  0.3590
   25MOL0    Cl 3285   6.682   7.499   5.850  0.0570 -0.4025 -0.2606
   25MOL0     C 3286   6.129   7.482   6.867 -0.0374  0.2542  0.4412
   25MOL0     C 3287   5.990   7.446   6.893  0.2654 -0.7435 -0.5534
   25MOL0     O 3288   5.841   7.076   6.919 -0.4090 -0.2096 -0.0670
   25MOL0     C 3289   5.567   7.268   7.048 -0.4153 -0.0479  0.2812
   25MOL0     C 3290   5.439   7.254   7.093  0.6039  0.7486 -0.4297
   25MOL0     N 3291   5.236   6.504   7.480  0.5415 -0.5276 -0.5067
   25MOL0     N 3292   5.176   6.390   7.469 -0.2395  0.0099 -0.8623
   25MOL0     C 3293   4.845   7.160   7.359 -0.1121  1.0853  0.7132
   25MOL0     C 3294   4.950   7.245   7.339 -0.6211 -0.5256  0.2059
   25MOL0     C 3295   5.258   7.543   7.457 -0.7302  0.3240  0.7311
   25MOL0     C 3296   5.391   7.512   7.403  0.7934 -0.2522 -0.2407
   25MOL0     C 3297   5.478   7.617   7.374 -0.5908 -0.5306 -0.4186
   25MOL0     C 3298   5.446   7.746   7.403  0.4233 -0.0903  0.4464
   25MOL0     O 3299   5.543   7.839   7.380 -0.3330  0.2717  0.1505
   25MOL0     C 3300   5.532   7.983   7.398  0.2193 -0.5313 -0.6732
   25MOL0     C 3301   5.530   8.052   7.262  0.4072  0.0702 -0.2619
   25MOL0     C 3302   5.664   8.093   7.214  0.8010 -0.7028  1.1216
   25MOL0     C 3303   5.731   8.206   7.303  0.5104 -0.5802 -0.1398
   25MOL0     C 3304   5.827   8.280   7.212 -0.4701 -0.2207 -0.5246
   25MOL0     C 3305   5.900   8.344   7.142 -1.2932 -0.6941  0.5811
   25MOL0     C 3306   5.314   7.776   7.455 -0.6577 -0.7583  0.2492
   25MOL0     C 3307   5.223   7.676   7.482  0.0788  0.8539 -0.4698
   25MOL0     H 3308   5.175   7.088   7.540 -0.7686 -2.6196  1.0027
   25MOL0     H 3309   5.018   6.925   7.543 -0.8375 -0.1213 -1.2690
   25MOL0     H 3310   4.586   7.005   7.397  3.4815  0.5450  3.3915
   25MOL0     H 3311   4.686   6.943   7.255 -3.2862  0.5462 -1.2532
   25MOL0     H 3312   4.586   6.767   7.488 -2.5547  1.2963 -0.5533
   25MOL0     H 3313   4.505   6.771   7.335  0.5342 -1.8735 -0.1186
   25MOL0     H 3314   4.738   6.714   7.216  0.1595  3.6357  1.9157
   25MOL0     H 3315   4.795   6.693   7.383 -2.1843 -0.6136  2.9172
   25MOL0     H 3316   4.648   6.498   7.432 -3.4812 -1.4871 -0.3862
   25MOL0     H 3317   4.547   6.540   7.303 -0.4231  1.4067 -1.7684
   25MOL0     H 3318   4.657   6.344   7.235 -2.2306  2.3684  0.5276
   25MOL0     H 3319   4.743   6.470   7.140  1.3371  1.1662  0.7298
   25MOL0     H 3320   4.916   6.486   7.317 -0.8557 -0.1158  0.5431
   25MOL0     H 3321   4.849   6.345   7.397 -2.8882 -0.2094 -0.5142
   25MOL0     H 3322   4.912   6.216   7.176 -0.3369 -0.1220  0.0209
   25MOL0     H 3323   4.985   6.371   7.122  2.6905 -0.6484 -0.3442
   25MOL0     H 3324   5.143   6.207   7.221 -2.7655 -0.7231 -0.7755
   25MOL0     H 3325   5.038   6.191   7.358  2.8186 -2.4093 -0.8654
   25MOL0     H 3326   5.226   6.494   7.156 -3.2890  0.5668 -0.1546
   25MOL0     H 3327   5.305   6.751   7.436  1.7887  2.2095 -1.9732
   25MOL0     H 3328   5.423   6.700   7.307  1.3299 -0.0489 -0.3871
   25MOL0     H 3329   5.131   6.793   7.285 -1.3164  3.7497 -4.4065
   25MOL0     H 3330   5.229   6.730   7.154 -1.6643 -0.1082  0.5704
   25MOL0     H 3331   5.392   6.928   7.203 -1.1855  2.8613 -4.5366
   25MOL0     H 3332   5.282   6.976   7.332 -0.7628 -0.7175  1.1070
   25MOL0     H 3333   5.087   6.979   7.173 -0.9858 -0.8152 -1.5849
   25MOL0     H 3334   5.182   6.936   7.033  2.4106  0.7796 -0.9505
   25MOL0     H 3335   5.370   6.948   6.952  2.9295 -1.7312  4.0783
   25MOL0     H 3336   5.547   6.926   6.756  0.6645  3.4126  0.2622
   25MOL0     H 3337   5.706   6.924   6.829 -0.7856 -1.9353 -0.0826
   25MOL0     H 3338   5.566   6.835   6.890  0.5590  0.5821  0.3339
   25MOL0     H 3339   5.974   7.170   6.713  0.4206 -2.8808  2.4613
   25MOL0     H 3340   6.213   7.205   6.691  2.3246  1.4860  0.7374
   25MOL0     H 3341   6.335   7.445   6.560 -2.2931  0.9688  0.7528
   25MOL0     H 3342   6.322   7.589   6.659  0.8903  0.3500  1.2943
   25MOL0     H 3343   6.569   7.522   6.735  3.0398 -2.7826 -0.1566
   25MOL0     H 3344   6.570   7.409   6.607  1.8035  1.0063 -2.0201
   25MOL0     H 3345   6.666   7.631   6.560 -0.0509  0.1458  3.0816
   25MOL0     H 3346   6.495   7.683   6.550 -2.1815 -3.0886  1.5543
   25MOL0     H 3347   6.591   7.443   6.381  0.6055  0.4311  0.2322
   25MOL0     H 3348   6.441   7.535   6.370  1.1034 -2.5442 -1.2922
   25MOL0     H 3349   6.702   7.650   6.297 -0.2911  1.4965  0.4444
   25MOL0     H 3350   6.555   7.745   6.310 -0.4288  0.0359  0.9022
   25MOL0     H 3351   6.435   7.618   6.151 -0.6030 -1.3392  2.4955
   25MOL0     H 3352   6.591   7.663   6.071  2.1733  0.2096  1.4857
   25MOL0     H 3353   6.510   7.380   6.149  2.1886 -0.8377 -0.1096
   25MOL0     H 3354   6.676   7.405   6.126 -0.2868 -0.6328  2.4486
   25MOL0     H 3355   6.449   7.474   5.921 -0.5599  2.4591  1.7111
   25MOL0     H 3356   6.535   7.323   5.920 -2.2465  0.7415  0.5605
   25MOL0     H 3357   6.173   7.577   6.894  2.0025  1.0853 -4.6829
   25MOL0     H 3358   5.941   7.517   6.959 -2.6620 -1.7031 -1.5833
   25MOL0     H 3359   5.625   7.358   7.064  0.3146 -0.3519 -0.5557
   25MOL0     H 3360   5.388   7.319   7.164 -0.7813 -2.5655  1.8752
   25MOL0     H 3361   4.753   7.187   7.306  1.1788  1.6324 -1.3954
   25MOL0     H 3362   4.936   7.333   7.276  1.3318 -1.3840 -1.5659
   25MOL0     H 3363   5.421   7.409   7.387 -2.4273 -1.7710  2.1552
   25MOL0     H 3364   5.579   7.593   7.341  0.3873  0.8571  1.4050
   25MOL0     H 3365   5.442   8.012   7.454  0.4938  0.9004 -0.9341
   25MOL0     H 3366   5.619   8.023   7.451  0.3817 -1.7087 -0.0027
   25MOL0     H 3367   5.468   8.142   7.268  1.0176  0.6834 -2.3833
   25MOL0     H 3368   5.486   7.987   7.186 -1.6041 -0.5977  1.3793
   25MOL0     H 3369   5.654   8.134   7.112 -0.3561  3.7165  2.7671
   25MOL0     H 3370   5.736   8.011   7.208  3.7693  1.7934 -1.2225
   25MOL0     H 3371   5.783   8.159   7.387  2.3408  2.6994  0.7636
   25MOL0     H 3372   5.665   8.283   7.344  1.4387 -0.7027  1.6831
   25MOL0     H 3373   5.953   8.384   7.058  0.0670 -1.1630  1.1972
   25MOL0     H 3374   5.288   7.881   7.465  0.6432 -0.3777 -0.2067
   25MOL0     H 3375   5.128   7.700   7.529  0.5628 -1.8921  2.2365
   26MOL0     O 3376  10.219   1.298   0.057  0.6490  0.6271 -0.6955
   26MOL0     C 3377  10.220   1.405   0.115 -0.1453  0.3011  0.0060
   26MOL0     O 3378  10.333   1.486   0.127  0.9127  0.2619  0.4095
   26MOL0     C 3379  10.457   1.439   0.091 -0.3596 -0.1434  0.5994
   26MOL0     C 3380  10.522   1.471  -0.028  0.1215 -1.3311  0.3367
   26MOL0     C 3381  10.647   1.426  -0.063  0.3307 -0.5515 -0.1067
   26MOL0     C 3382  10.718   1.345   0.024 -0.4038 -0.5276  0.4118
   26MOL0     O 3383  10.834   1.289  -0.006 -0.3840  0.0706  0.4462
   26MOL0     C 3384  10.910   1.312  -0.121  0.2237 -0.0709 -0.0390
   26MOL0     C 3385  11.054   1.246  -0.109 -0.4894 -0.3975 -0.1116
   26MOL0     C 3386  11.164   1.299  -0.199 -0.4461 -0.0721 -0.3463
   26MOL0     C 3387  11.149   1.240  -0.339  0.0794 -0.0988 -0.9141
   26MOL0     C 3388  11.256   1.302  -0.431 -0.0339 -0.0692 -0.1713
   26MOL0     C 3389  11.200   1.434  -0.498 -0.0206  0.4829  0.0287
   26MOL0     C 3390  11.097   1.406  -0.615  0.0793  1.3743  0.2804
   26MOL0     C 3391  11.126   1.293  -0.722  0.7251  0.7020 -0.2696
   26MOL0     N 3392  11.023   1.274  -0.826  0.2979 -1.2867 -0.3162
   26MOL0     C 3393  10.892   1.325  -0.836 -0.0063  0.1259  0.4918
   26MOL0     C 3394  10.839   1.254  -0.930  0.3894  0.1271  0.2258
   26MOL0     C 3395  10.696   1.259  -0.965 -0.0703  0.0555 -0.4772
   26MOL0     C 3396  10.655   1.383  -1.036 -0.8047 -0.2544 -0.6102
   26MOL0     C 3397  10.523   1.398  -1.106  0.5437 -0.0528 -0.6729
   26MOL0     C 3398  10.399   1.359  -1.023 -0.5489  0.4223  0.1059
   26MOL0     O 3399  10.393   1.215  -1.016 -0.4024  0.1863  0.6608
   26MOL0     C 3400  10.378   1.158  -0.895  0.8010  0.6018 -0.5465
   26MOL0     C 3401  10.409   1.021  -0.890  0.4014 -0.2926 -0.9038
   26MOL0     C 3402  10.414   0.945  -0.772 -0.1260  0.0937 -0.4946
   26MOL0     C 3403  10.453   0.797  -0.784  1.0819 -0.4102  0.7638
   26MOL0     C 3404  10.362   1.003  -0.650 -0.6316  0.0422 -0.5381
   26MOL0     C 3405  10.352   0.934  -0.515 -0.5043 -0.4062  0.4403
   26MOL0     O 3406  10.391   1.009  -0.405 -0.3594  0.2816 -0.4456
   26MOL0     C 3407  10.372   0.980  -0.275 -0.5402  0.5186  0.1055
   26MOL0     C 3408  10.298   0.878  -0.223 -0.2314  0.1173  0.1492
   26MOL0     C 3409  10.286   0.863  -0.085  0.0547 -1.1447 -0.5640
   26MOL0     C 3410  10.324   0.954   0.004  0.0086  0.7714  0.1453
   26MOL0     O 3411  10.295   0.937   0.136 -0.8683 -0.5400  1.9548
   26MOL0     C 3412  10.397   0.986   0.223 -0.2172  0.3409  0.1519
   26MOL0     C 3413  10.373   0.940   0.368 -0.0382  0.3509 -1.2308
   26MOL0     C 3414  10.238   0.961   0.426  0.6472 -0.0701 -0.5005
   26MOL0     C 3415  10.200   1.118   0.432  0.4980 -0.0257  0.9952
   26MOL0     C 3416  10.306   1.206   0.502 -0.9175 -0.1677  0.7714
   26MOL0     C 3417  10.268   1.343   0.503  0.2260 -0.4282 -0.2563
   26MOL0     C 3418  10.362   1.420   0.591  0.2804 -0.1452 -0.8402
   26MOL0     C 3419  10.323   1.566   0.637  0.4124  1.0154  0.6746
   26MOL0    Cl 3420  10.472   1.649   0.680 -0.1335  0.0433  0.0235
   26MOL0     C 3421  10.409   1.067  -0.046 -0.3005  0.6915 -0.7391
   26MOL0     C 3422  10.433   1.071  -0.181  0.3593 -0.8841 -0.6212
   26MOL0     O 3423  10.302   0.819  -0.517  0.3227 -0.2903 -0.9594
   26MOL0     C 3424  10.327   1.129  -0.660 -0.0392  0.1042  0.0339
   26MOL0     C 3425  10.338   1.211  -0.773 -0.2893  0.8836 -0.4392
   26MOL0     N 3426  10.934   1.173  -0.992  0.3104  0.4528  0.3083
   26MOL0     N 3427  11.042   1.192  -0.937  0.2259  0.0903  0.1836
   26MOL0     C 3428  10.663   1.321   0.145 -0.0090  1.2585 -0.5054
   26MOL0     C 3429  10.533   1.364   0.178 -0.0992  0.3142 -0.1309
   26MOL0     C 3430  10.081   1.458   0.167 -0.1495 -0.5464 -0.2944
   26MOL0     C 3431  10.064   1.587   0.210  0.6429 -0.9875  0.0165
   26MOL0     C 3432   9.944   1.639   0.238  0.0009  0.0286 -0.6681
   26MOL0     C 3433   9.836   1.550   0.272  0.1831 -1.1489  0.9353
   26MOL0     O 3434   9.726   1.613   0.327  0.1374  0.4975 -0.5719
   26MOL0     C 3435   9.624   1.517   0.361  0.4207  0.2136  0.3496
   26MOL0     C 3436   9.503   1.593   0.429 -0.3216  0.0505  1.0096
   26MOL0     C 3437   9.536   1.607   0.576  0.0226 -0.7376  0.5918
   26MOL0     C 3438   9.416   1.654   0.657  0.2642 -0.0027 -0.2064
   26MOL0     C 3439   9.438   1.635   0.800 -0.6064 -0.0126 -0.3899
   26MOL0     C 3440   9.480   1.636   0.913 -0.2171 -0.0965  0.1768
   26MOL0     C 3441   9.848   1.423   0.219 -0.2609  0.9030  0.2657
   26MOL0     C 3442   9.972   1.372   0.169  0.4057  0.0838  0.0275
   26MOL0     H 3443  10.473   1.538  -0.097  0.4222 -3.5199 -2.1364
   26MOL0     H 3444  10.666   1.449  -0.168  1.6339  0.4041  0.3144
   26MOL0     H 3445  10.872   1.270  -0.215 -1.1076  0.3360  0.2965
   26MOL0     H 3446  10.908   1.418  -0.149 -1.4069 -0.7961 -3.1533
   26MOL0     H 3447  11.083   1.274  -0.007 -0.7093  1.6775 -0.5772
   26MOL0     H 3448  11.058   1.137  -0.112  1.0271 -0.3559 -0.4125
   26MOL0     H 3449  11.166   1.408  -0.195  0.4884  0.0250 -2.4455
   26MOL0     H 3450  11.262   1.285  -0.151  0.1819  4.3708  0.1376
   26MOL0     H 3451  11.156   1.131  -0.340 -0.2016 -0.1351  0.0484
   26MOL0     H 3452  11.049   1.270  -0.372  0.1444  1.7203  0.4023
   26MOL0     H 3453  11.353   1.322  -0.385 -0.5839  1.2959  0.4686
   26MOL0     H 3454  11.281   1.222  -0.501  2.4789 -0.4858  1.0759
   26MOL0     H 3455  11.142   1.495  -0.428 -0.6774  1.4275 -1.2653
   26MOL0     H 3456  11.285   1.491  -0.537 -1.9259  1.7990 -2.5890
   26MOL0     H 3457  10.996   1.400  -0.573 -0.2014 -0.7211 -0.5584
   26MOL0     H 3458  11.085   1.504  -0.662  0.0496  0.2572 -2.2196
   26MOL0     H 3459  11.130   1.198  -0.669 -0.8054 -1.0857 -3.1297
   26MOL0     H 3460  11.219   1.308  -0.777  0.8221 -2.8077 -1.2509
   26MOL0     H 3461  10.834   1.397  -0.780 -0.5427  3.5860 -3.8890
   26MOL0     H 3462  10.677   1.169  -1.023  1.0252  1.3698 -3.0363
   26MOL0     H 3463  10.638   1.257  -0.873  1.3343  1.0494  0.4745
   26MOL0     H 3464  10.736   1.392  -1.110 -0.3204 -2.2174 -0.3827
   26MOL0     H 3465  10.661   1.459  -0.958 -2.2815 -2.2594  1.6034
   26MOL0     H 3466  10.521   1.350  -1.205 -1.2505  2.8567 -2.1810
   26MOL0     H 3467  10.499   1.501  -1.132 -1.2547 -0.8251 -2.3814
   26MOL0     H 3468  10.310   1.401  -1.071  0.8107 -0.0189 -3.0290
   26MOL0     H 3469  10.404   1.407  -0.924  0.5878  2.1038 -0.7143
   26MOL0     H 3470  10.443   0.979  -0.984  0.8397  0.3304 -1.0263
   26MOL0     H 3471  10.520   0.789  -0.870  2.0970 -0.0879  1.5112
   26MOL0     H 3472  10.516   0.778  -0.697  1.8345  2.4179  0.9421
   26MOL0     H 3473  10.367   0.732  -0.803  0.2203  1.3001 -1.6680
   26MOL0     H 3474  10.251   0.801  -0.283  1.0513 -1.5460  1.1722
   26MOL0     H 3475  10.229   0.782  -0.040  2.0103 -2.4942 -0.3880
   26MOL0     H 3476  10.499   0.953   0.199 -0.1426 -0.7990  1.8300
   26MOL0     H 3477  10.393   1.095   0.222 -3.9793  0.4266 -3.1442
   26MOL0     H 3478  10.401   0.835   0.381  0.3997  0.3725 -1.9060
   26MOL0     H 3479  10.448   0.981   0.436 -2.4253  2.1332  0.4642
   26MOL0     H 3480  10.234   0.926   0.530 -0.3545  0.7905 -0.2313
   26MOL0     H 3481  10.169   0.894   0.373  0.4110 -2.8972  2.9219
   26MOL0     H 3482  10.177   1.166   0.337  0.9646  0.4726  1.1277
   26MOL0     H 3483  10.105   1.117   0.485 -0.3593 -1.2888 -0.4985
   26MOL0     H 3484  10.406   1.201   0.459 -2.1021  0.3066 -2.2948
   26MOL0     H 3485  10.304   1.167   0.604  0.4163 -0.1975  0.8052
   26MOL0     H 3486  10.270   1.396   0.407 -1.9024  2.5370  1.1804
   26MOL0     H 3487  10.175   1.353   0.559  1.3264  3.0451  1.2500
   26MOL0     H 3488  10.449   1.431   0.524 -1.3140  1.8137 -2.7393
   26MOL0     H 3489  10.382   1.360   0.680 -0.9268  0.4281 -0.1572
   26MOL0     H 3490  10.250   1.566   0.718 -2.9895  3.4216 -2.0849
   26MOL0     H 3491  10.286   1.623   0.551  3.0541 -1.6075 -2.5100
   26MOL0     H 3492  10.450   1.145   0.017 -1.1470  0.6188 -0.0882
   26MOL0     H 3493  10.473   1.162  -0.224 -0.1537  0.1710  1.0060
   26MOL0     H 3494  10.260   1.171  -0.586 -0.5331 -2.2984  1.0456
   26MOL0     H 3495  10.306   1.315  -0.769  0.8288  1.2093  2.9876
   26MOL0     H 3496  10.705   1.254   0.219 -2.6961  0.9765  0.9034
   26MOL0     H 3497  10.500   1.333   0.277  3.3325 -0.9326  0.7976
   26MOL0     H 3498  10.140   1.661   0.189 -0.2091  0.0644  0.5142
   26MOL0     H 3499   9.933   1.745   0.262  1.8057  0.1739 -0.3574
   26MOL0     H 3500   9.587   1.473   0.269  1.5477  0.2423 -0.1327
   26MOL0     H 3501   9.663   1.432   0.418  2.3438  0.1795 -0.9212
   26MOL0     H 3502   9.413   1.530   0.425  0.0361 -0.4483  0.6546
   26MOL0     H 3503   9.487   1.690   0.381  0.9165  0.1290  0.7194
   26MOL0     H 3504   9.630   1.660   0.591  0.8427 -2.8455  4.0674
   26MOL0     H 3505   9.562   1.508   0.616  1.3980 -0.3252  0.7571
   26MOL0     H 3506   9.326   1.596   0.636 -1.1337  1.7164  0.7633
   26MOL0     H 3507   9.399   1.757   0.624 -0.0113 -0.0892 -0.3349
   26MOL0     H 3508   9.530   1.639   1.008 -0.2700  0.5348  0.1876
   26MOL0     H 3509   9.765   1.353   0.226 -0.5750  1.2502  0.0306
   26MOL0     H 3510   9.983   1.271   0.130  0.6642 -0.5399  1.6621
   27MOL0     O 3511  10.992  11.519   7.278 -0.0186  0.3570  0.5590
   27MOL0     C 3512  10.957  11.636   7.280  0.4906  0.5049  0.5388
   27MOL0     O 3513  10.822  11.681   7.274 -0.2925 -0.5982  0.8786
   27MOL0     C 3514  10.715  11.598   7.289 -0.0979 -0.3043 -0.9129
   27MOL0     C 3515  10.710  11.475   7.355  0.4845 -0.0487 -0.6391
   27MOL0     C 3516  10.590  11.399   7.352 -1.2799 -0.7874 -0.7762
   27MOL0     C 3517  10.467  11.458   7.315  0.4897  0.0461 -0.7421
   27MOL0     O 3518  10.357  11.377   7.334  0.2695 -0.0028  0.5112
   27MOL0     C 3519  10.245  11.421   7.252  0.3594 -0.0749 -0.1884
   27MOL0     C 3520  10.162  11.291   7.241  0.1036 -0.2278 -0.2266
   27MOL0     C 3521  10.030  11.323   7.168 -0.3109 -0.0152  0.4741
   27MOL0     C 3522   9.911  11.243   7.216  1.0636 -0.2386 -0.0141
   27MOL0     C 3523   9.782  11.247   7.120 -0.7130 -0.2468 -1.1573
   27MOL0     C 3524   9.683  11.130   7.158  0.1576  0.0296 -0.8739
   27MOL0     C 3525   9.567  11.134   7.045 -0.5655 -0.4755 -0.5236
   27MOL0     C 3526   9.454  11.026   7.061 -0.0543  0.4465  0.4182
   27MOL0     N 3527   9.353  11.043   6.961 -0.6143  0.1665 -1.2540
   27MOL0     C 3528   9.310  11.162   6.900  0.7917  0.1483 -0.8936
   27MOL0     C 3529   9.240  11.125   6.788  0.0173 -0.5548  0.5407
   27MOL0     C 3530   9.189  11.231   6.696 -0.2321  0.0268  0.3816
   27MOL0     C 3531   9.140  11.188   6.554  0.6069  0.1434  0.6031
   27MOL0     C 3532   9.051  11.291   6.492 -0.8793 -0.6310 -0.3251
   27MOL0     C 3533   8.920  11.316   6.564  0.2709  0.8382 -0.6212
   27MOL0     O 3534   8.860  11.438   6.516 -0.2066 -0.0995 -0.4958
   27MOL0     C 3535   8.734  11.433   6.451 -0.5340 -0.6702  0.9737
   27MOL0     C 3536   8.657  11.543   6.452  0.3477  0.6888  0.1791
   27MOL0     C 3537   8.528  11.564   6.399  0.0631  0.4614  0.2666
   27MOL0     C 3538   8.446  11.684   6.447 -0.5818  0.0460  0.5661
   27MOL0     C 3539   8.476  11.452   6.323 -0.1899 -0.2593 -1.3804
   27MOL0     C 3540   8.342  11.445   6.264  1.6031 -1.0095 -0.1951
   27MOL0     O 3541   8.331  11.355   6.164  0.8326  0.2432  0.7196
   27MOL0     C 3542   8.207  11.305   6.137  0.2885 -0.3960 -0.2675
   27MOL0     C 3543   8.181  11.184   6.201 -0.2510 -0.0235  0.6786
   27MOL0     C 3544   8.059  11.118   6.178  0.1532  0.4474 -0.5061
   27MOL0     C 3545   7.955  11.174   6.101 -1.1525  0.3508 -0.3633
   27MOL0     O 3546   7.840  11.106   6.106  0.5890  0.6095  0.0507
   27MOL0     C 3547   7.773  11.117   5.975 -0.8691  0.5429 -0.0606
   27MOL0     C 3548   7.639  11.174   6.000  0.1950  0.6265 -0.1099
   27MOL0     C 3549   7.569  11.174   5.856  0.2510 -0.1788 -0.0617
   27MOL0     C 3550   7.424  11.199   5.868  0.2516 -0.4316  0.0353
   27MOL0     C 3551   7.332  11.091   5.936 -0.1335  0.7748 -0.3307
   27MOL0     C 3552   7.333  10.958   5.858 -0.2850  0.5618 -0.9671
   27MOL0     C 3553   7.219  10.922   5.776 -0.2559  0.8090  0.4636
   27MOL0     C 3554   7.197  10.768   5.737  0.1806  0.3537  0.0521
   27MOL0    Cl 3555   7.324  10.727   5.622  0.2470 -0.5153 -0.0193
   27MOL0     C 3556   7.979  11.301   6.047  1.1564 -0.8530 -0.2985
   27MOL0     C 3557   8.105  11.367   6.064  0.0131  0.1609  0.1239
   27MOL0     O 3558   8.243  11.513   6.307  0.4418  0.0954  0.0593
   27MOL0     C 3559   8.554  11.339   6.319 -0.9361  0.0805 -1.1669
   27MOL0     C 3560   8.680  11.325   6.380 -0.0061 -0.0555  0.4705
   27MOL0     N 3561   9.219  10.987   6.793 -0.1229 -0.7432  0.8008
   27MOL0     N 3562   9.294  10.945   6.890 -0.1927  0.7034  0.1682
   27MOL0     C 3563  10.470  11.588   7.265  0.3365  0.2589 -0.0585
   27MOL0     C 3564  10.596  11.661   7.256  0.2594  0.3822  0.6594
   27MOL0     C 3565  11.070  11.731   7.275  0.4563 -0.7151  1.2413
   27MOL0     C 3566  11.198  11.692   7.257 -0.5215 -0.3238 -0.8545
   27MOL0     C 3567  11.304  11.779   7.267  0.0325  0.1181  0.5510
   27MOL0     C 3568  11.277  11.914   7.300  0.4164 -0.1076  0.0418
   27MOL0     O 3569  11.386  12.002   7.306 -0.0338 -0.0130 -0.4876
   27MOL0     C 3570  11.370  12.117   7.391  0.1965  0.4679  0.2629
   27MOL0     C 3571  11.504  12.142   7.466  0.5463  0.2775 -0.3296
   27MOL0     C 3572  11.478  12.269   7.550 -0.1072 -0.1000  0.5754
   27MOL0     C 3573  11.599  12.319   7.626 -0.1781 -0.2815 -1.1871
   27MOL0     C 3574  11.678  12.210   7.688  0.6861  0.5519  0.5820
   27MOL0     C 3575  11.747  12.112   7.696 -0.4631  0.9927  0.4249
   27MOL0     C 3576  11.146  11.959   7.308  0.7780  0.6525 -0.0846
   27MOL0     C 3577  11.038  11.869   7.302 -0.0840  0.3967  0.2838
   27MOL0     H 3578  10.797  11.430   7.401  0.6888 -1.1322 -2.0322
   27MOL0     H 3579  10.588  11.299   7.396 -1.4009 -0.5902 -0.3327
   27MOL0     H 3580  10.183  11.488   7.312 -3.4302 -2.7573 -0.7449
   27MOL0     H 3581  10.275  11.441   7.149  1.2369 -2.5711 -0.4908
   27MOL0     H 3582  10.213  11.204   7.200  1.2125  0.9416 -1.4428
   27MOL0     H 3583  10.128  11.261   7.340 -2.3356  0.2193 -0.8520
   27MOL0     H 3584  10.021  11.431   7.183  4.1086  0.4628  1.0767
   27MOL0     H 3585  10.027  11.310   7.059  0.3947 -0.2370  0.4749
   27MOL0     H 3586   9.933  11.137   7.227  2.6858  0.1575  1.0888
   27MOL0     H 3587   9.881  11.275   7.316 -1.5064 -1.6878 -0.2266
   27MOL0     H 3588   9.738  11.345   7.139  2.3994  1.3198 -1.3909
   27MOL0     H 3589   9.818  11.235   7.018  2.6934 -1.3833  0.0434
   27MOL0     H 3590   9.723  11.029   7.170  0.0690  0.2859  2.2625
   27MOL0     H 3591   9.632  11.156   7.251 -0.8177  1.7061 -1.8278
   27MOL0     H 3592   9.520  11.232   7.063  0.6856 -0.2957  2.4189
   27MOL0     H 3593   9.604  11.138   6.943 -2.8190  1.0177 -1.3679
   27MOL0     H 3594   9.400  11.031   7.157  0.2319 -1.9087  0.7396
   27MOL0     H 3595   9.484  10.922   7.049 -2.4161 -0.0199 -2.9317
   27MOL0     H 3596   9.345  11.261   6.928  1.6544 -0.4336  0.1112
   27MOL0     H 3597   9.101  11.266   6.751  0.3855  2.5375 -0.0974
   27MOL0     H 3598   9.261  11.308   6.664  0.0364  0.0364  0.9870
   27MOL0     H 3599   9.075  11.100   6.558  3.2366 -1.9654 -0.1613
   27MOL0     H 3600   9.231  11.159   6.500 -1.1173  0.0074 -2.3890
   27MOL0     H 3601   9.027  11.269   6.388  1.5816 -2.0046 -0.6915
   27MOL0     H 3602   9.107  11.384   6.506  0.1913 -1.5010  1.4984
   27MOL0     H 3603   8.927  11.329   6.672  1.1828 -0.2130 -0.5403
   27MOL0     H 3604   8.852  11.234   6.539  1.2543 -0.5805  1.0755
   27MOL0     H 3605   8.696  11.630   6.504  1.4084 -0.0107  0.5954
   27MOL0     H 3606   8.384  11.727   6.368  0.1912  1.5774  0.7526
   27MOL0     H 3607   8.395  11.656   6.540 -1.7677 -0.9964 -0.3731
   27MOL0     H 3608   8.510  11.771   6.466  1.1093 -0.8541 -0.7219
   27MOL0     H 3609   8.259  11.128   6.250  3.3383  4.0686  0.2287
   27MOL0     H 3610   8.037  11.022   6.224 -3.1897  1.4398  0.2260
   27MOL0     H 3611   7.823  11.179   5.899  1.3933 -0.2373  0.7023
   27MOL0     H 3612   7.775  11.012   5.946 -0.3450 -0.1451  2.2610
   27MOL0     H 3613   7.586  11.116   6.076 -0.9896  3.2306  1.1916
   27MOL0     H 3614   7.640  11.280   6.027 -2.0756  0.9208 -0.9138
   27MOL0     H 3615   7.598  11.078   5.812  2.8867  0.3637  0.3257
   27MOL0     H 3616   7.613  11.249   5.790 -0.3597  0.3062  0.0701
   27MOL0     H 3617   7.411  11.287   5.932  1.0899 -2.7771  3.7461
   27MOL0     H 3618   7.382  11.220   5.769 -0.4319 -1.7880  0.0205
   27MOL0     H 3619   7.229  11.127   5.940 -0.3317  0.2634 -0.6177
   27MOL0     H 3620   7.363  11.071   6.039 -0.8438 -1.0243 -0.4258
   27MOL0     H 3621   7.426  10.944   5.802  0.0004  1.6692 -0.7971
   27MOL0     H 3622   7.335  10.877   5.932 -0.1545  1.4642  0.0363
   27MOL0     H 3623   7.215  10.980   5.684  2.0690  0.2370 -0.0606
   27MOL0     H 3624   7.133  10.944   5.840 -0.4976 -1.2663  0.9159
   27MOL0     H 3625   7.095  10.764   5.697 -0.4406  2.4233  1.2837
   27MOL0     H 3626   7.200  10.708   5.828  0.0009  1.8668  1.0942
   27MOL0     H 3627   7.897  11.349   5.995  1.2811  0.3832  0.6008
   27MOL0     H 3628   8.115  11.466   6.021  2.8102  0.1381  0.5373
   27MOL0     H 3629   8.511  11.255   6.264 -2.5434  0.9729 -1.3373
   27MOL0     H 3630   8.733  11.230   6.375  0.2593  0.0779  0.7436
   27MOL0     H 3631  10.377  11.631   7.228  0.1860  1.5320  1.6768
   27MOL0     H 3632  10.598  11.758   7.207  1.2150 -1.4068 -3.3201
   27MOL0     H 3633  11.224  11.588   7.241  0.6176 -0.2123  0.1002
   27MOL0     H 3634  11.408  11.756   7.247  0.4096  2.6813 -0.8554
   27MOL0     H 3635  11.341  12.202   7.328  2.8281 -0.6785 -2.8023
   27MOL0     H 3636  11.294  12.113   7.469  0.6067  1.4098  0.7255
   27MOL0     H 3637  11.589  12.163   7.400 -0.2820  0.1945 -1.4470
   27MOL0     H 3638  11.517  12.048   7.521  2.7366 -0.2567 -1.6166
   27MOL0     H 3639  11.397  12.260   7.622  1.4284 -0.0137  2.3900
   27MOL0     H 3640  11.462  12.354   7.483  2.8612 -0.7308 -1.1458
   27MOL0     H 3641  11.560  12.372   7.713  0.8575 -0.7113 -0.4361
   27MOL0     H 3642  11.668  12.392   7.582 -0.1884  1.4280  1.4117
   27MOL0     H 3643  11.821  12.035   7.705 -1.1828  0.0222 -1.4808
   27MOL0     H 3644  11.122  12.061   7.336  1.1171  0.8899 -0.6317
   27MOL0     H 3645  10.937  11.904   7.320  0.8284  1.4484  4.4468
   28MOL0     O 3646  10.650   7.527   2.403 -0.5664 -0.4452  0.5532
   28MOL0     C 3647  10.698   7.615   2.474 -0.1948  1.1033  0.3511
   28MOL0     O 3648  10.703   7.609   2.606 -0.3097  0.7443  0.2197
   28MOL0     C 3649  10.631   7.503   2.671  0.0276  0.2843  0.6710
   28MOL0     C 3650  10.688   7.451   2.790  0.1160 -0.7766  0.5095
   28MOL0     C 3651  10.621   7.351   2.862  0.0975 -0.3891  0.0488
   28MOL0     C 3652  10.507   7.296   2.804  0.3086  0.2292 -0.0470
   28MOL0     O 3653  10.463   7.183   2.876  0.5097  0.1242  0.6174
   28MOL0     C 3654  10.320   7.149   2.876 -0.1911 -0.7140 -0.2895
   28MOL0     C 3655  10.296   7.003   2.908 -0.5086 -0.9510 -0.1835
   28MOL0     C 3656  10.367   6.904   2.816  0.4580 -0.1941  0.2532
   28MOL0     C 3657  10.362   6.766   2.876  0.5210 -0.5165  0.3262
   28MOL0     C 3658  10.358   6.663   2.763 -0.2982  0.7508 -0.3677
   28MOL0     C 3659  10.393   6.526   2.828  0.3708  0.6824  0.6410
   28MOL0     C 3660  10.349   6.420   2.723  0.4444  0.1200  0.2116
   28MOL0     C 3661  10.414   6.287   2.738 -0.6271 -0.3015 -0.7115
   28MOL0     N 3662  10.425   6.219   2.608  1.3359  0.6346 -0.3955
   28MOL0     C 3663  10.519   6.238   2.515 -0.1466 -0.6050 -0.4419
   28MOL0     C 3664  10.475   6.186   2.398 -0.5303 -0.5309 -0.7045
   28MOL0     C 3665  10.541   6.197   2.273  0.6350 -0.1178  0.5379
   28MOL0     C 3666  10.642   6.078   2.244  0.9391  0.4150  0.6205
   28MOL0     C 3667  10.763   6.056   2.339  0.1296 -0.1606  0.1135
   28MOL0     C 3668  10.833   5.924   2.321 -0.1082  0.0441 -0.4922
   28MOL0     O 3669  10.886   5.894   2.197 -0.2967  0.2300 -0.1303
   28MOL0     C 3670  10.980   5.791   2.191  0.4158  0.5156 -0.7739
   28MOL0     C 3671  11.085   5.802   2.104  0.5898 -1.2409  0.0969
   28MOL0     C 3672  11.187   5.713   2.093 -0.0269  0.2835 -0.0721
   28MOL0     C 3673  11.303   5.754   2.006  0.1894 -0.2384 -0.1210
   28MOL0     C 3674  11.186   5.600   2.175  0.9446 -0.0732 -1.1905
   28MOL0     C 3675  11.290   5.496   2.193  0.5966 -0.3614  0.3310
   28MOL0     O 3676  11.405   5.538   2.147  0.2693  0.0808  0.2545
   28MOL0     C 3677  11.508   5.452   2.131 -0.8733  0.2291 -0.3499
   28MOL0     C 3678  11.535   5.389   2.016  0.2844 -0.7438  0.0804
   28MOL0     C 3679  11.661   5.321   2.000  0.1620  0.3810 -0.8413
   28MOL0     C 3680  11.746   5.303   2.105 -0.7233  0.7059 -0.5035
   28MOL0     O 3681  11.849   5.221   2.105 -0.7647 -0.1643  0.9458
   28MOL0     C 3682  11.985   5.273   2.112 -0.2652 -0.0001 -0.3110
   28MOL0     C 3683  12.036   5.317   1.973 -0.8121  0.1718  0.7213
   28MOL0     C 3684  12.185   5.358   1.965 -0.0443 -0.0649 -0.6326
   28MOL0     C 3685  12.212   5.381   1.809  0.2049 -0.1542 -1.1279
   28MOL0     C 3686  12.359   5.412   1.791 -0.3588 -0.3923  0.3159
   28MOL0     C 3687  12.391   5.546   1.857  0.2388 -1.0548  0.0540
   28MOL0     C 3688  12.522   5.615   1.817  0.5668  0.2423 -0.2218
   28MOL0     C 3689  12.558   5.722   1.919  0.3603  0.1024  0.0287
   28MOL0    Cl 3690  12.460   5.874   1.898  0.0021  0.0588  0.5724
   28MOL0     C 3691  11.710   5.357   2.228  0.3300  0.0003 -0.7863
   28MOL0     C 3692  11.588   5.430   2.245  0.5295 -0.3192  1.0554
   28MOL0     O 3693  11.270   5.395   2.257 -0.3535 -0.5734 -0.5272
   28MOL0     C 3694  11.070   5.573   2.258 -0.0521  0.4044  0.5401
   28MOL0     C 3695  10.963   5.667   2.261  0.2395  0.4959  1.2712
   28MOL0     N 3696  10.355   6.122   2.439  0.1038  0.6798 -0.3509
   28MOL0     N 3697  10.327   6.139   2.560  0.3429 -0.0168 -0.0738
   28MOL0     C 3698  10.447   7.346   2.690 -0.5032 -1.1782 -0.3264
   28MOL0     C 3699  10.506   7.455   2.625  1.1723  0.0585 -0.9870
   28MOL0     C 3700  10.752   7.732   2.410  0.4518  0.1458 -0.6799
   28MOL0     C 3701  10.836   7.821   2.487 -0.9129  0.2680 -0.6218
   28MOL0     C 3702  10.893   7.930   2.436  0.0971  0.4753  0.5598
   28MOL0     C 3703  10.865   7.962   2.298 -1.1849  0.1850  0.2802
   28MOL0     O 3704  10.922   8.085   2.248  0.1763  0.4182 -0.2978
   28MOL0     C 3705  10.842   8.200   2.279  0.1822  1.0607  0.3626
   28MOL0     C 3706  10.937   8.314   2.260  0.1338  0.5802 -0.3825
   28MOL0     C 3707  10.870   8.451   2.254 -0.4990 -0.0480  0.6643
   28MOL0     C 3708  10.969   8.563   2.287 -0.3639  0.5393 -0.3677
   28MOL0     C 3709  10.902   8.694   2.317  0.6122  0.0246  0.2358
   28MOL0     C 3710  10.844   8.800   2.339  0.5133  0.3492 -1.1790
   28MOL0     C 3711  10.781   7.883   2.220 -0.0738  0.3717  0.2402
   28MOL0     C 3712  10.727   7.762   2.273 -0.1845 -0.4124 -0.6667
   28MOL0     H 3713  10.780   7.494   2.827 -0.6917  0.4187  1.2378
   28MOL0     H 3714  10.657   7.304   2.954 -0.2898 -0.7441  0.0197
   28MOL0     H 3715  10.278   7.203   2.962  1.8819  0.4881  0.0201
   28MOL0     H 3716  10.257   7.182   2.793 -2.9715  0.3796  2.0590
   28MOL0     H 3717  10.320   6.972   3.010  2.2217 -1.5263 -0.9205
   28MOL0     H 3718  10.188   7.002   2.889 -0.2812  1.0327 -1.9951
   28MOL0     H 3719  10.296   6.895   2.733 -0.9467  1.6943  1.1745
   28MOL0     H 3720  10.464   6.930   2.773  0.3040 -1.1438 -0.7089
   28MOL0     H 3721  10.436   6.738   2.952 -1.8105 -0.8885  2.6150
   28MOL0     H 3722  10.268   6.764   2.931  1.0618  6.0534  2.3078
   28MOL0     H 3723  10.254   6.652   2.731 -0.4915 -1.8221  0.9121
   28MOL0     H 3724  10.436   6.674   2.688  1.7404 -2.5317  1.0547
   28MOL0     H 3725  10.500   6.515   2.846  0.0313 -1.2902  1.7186
   28MOL0     H 3726  10.336   6.510   2.920  1.4967 -2.3034  0.9376
   28MOL0     H 3727  10.241   6.404   2.723  0.3020  0.9772 -0.5519
   28MOL0     H 3728  10.379   6.469   2.630  0.2385 -1.7963 -0.9009
   28MOL0     H 3729  10.356   6.229   2.810 -1.6838  0.2768 -1.0691
   28MOL0     H 3730  10.516   6.290   2.777 -0.3380  0.6762 -1.5180
   28MOL0     H 3731  10.603   6.304   2.534 -0.4571 -0.7456  1.7242
   28MOL0     H 3732  10.466   6.197   2.193 -0.9119  3.8533  1.7237
   28MOL0     H 3733  10.591   6.294   2.258 -2.2936  1.1028 -2.8904
   28MOL0     H 3734  10.693   6.093   2.148  1.9473 -2.3335  0.6301
   28MOL0     H 3735  10.579   5.989   2.236 -0.8506  1.5713  1.2679
   28MOL0     H 3736  10.744   6.063   2.447  1.4057 -0.5156  0.3733
   28MOL0     H 3737  10.832   6.138   2.317  1.4335 -1.6183 -1.4905
   28MOL0     H 3738  10.757   5.847   2.336 -0.1024  0.0330 -0.5220
   28MOL0     H 3739  10.900   5.901   2.405  2.1689 -0.9234 -2.4864
   28MOL0     H 3740  11.088   5.896   2.050  0.7613 -0.5921  1.2096
   28MOL0     H 3741  11.359   5.838   2.048  0.4942 -0.6466  0.2954
   28MOL0     H 3742  11.375   5.679   1.972  0.8711 -0.5023  1.8091
   28MOL0     H 3743  11.275   5.804   1.912  0.7127 -0.8077 -0.5879
   28MOL0     H 3744  11.468   5.405   1.933  1.6794 -1.5334 -1.2578
   28MOL0     H 3745  11.702   5.267   1.915  0.2716 -2.0885  0.6818
   28MOL0     H 3746  11.989   5.360   2.178  2.9661  0.7053 -1.2723
   28MOL0     H 3747  12.062   5.204   2.149 -1.4503 -0.1819  1.9820
   28MOL0     H 3748  12.019   5.224   1.918 -3.1167 -1.1442  3.4608
   28MOL0     H 3749  11.970   5.395   1.932  0.3164  2.2846  2.7183
   28MOL0     H 3750  12.251   5.282   2.007 -1.6362 -1.2515 -0.1988
   28MOL0     H 3751  12.197   5.450   2.024  0.8227 -0.4959 -0.1108
   28MOL0     H 3752  12.200   5.285   1.757 -0.3072 -0.0646 -1.1793
   28MOL0     H 3753  12.142   5.448   1.758 -0.6699 -0.2445 -0.0812
   28MOL0     H 3754  12.383   5.451   1.692  0.0079  0.7197  0.8312
   28MOL0     H 3755  12.421   5.331   1.829 -1.4329  0.1041  3.3680
   28MOL0     H 3756  12.319   5.626   1.841  1.8704  0.4302 -0.2513
   28MOL0     H 3757  12.400   5.519   1.963 -3.1637 -3.0102 -0.0259
   28MOL0     H 3758  12.512   5.654   1.716  0.8020 -0.8519 -0.6815
   28MOL0     H 3759  12.593   5.532   1.820  0.4125  0.1307  0.6789
   28MOL0     H 3760  12.665   5.747   1.922  1.2381 -3.2434  1.7592
   28MOL0     H 3761  12.534   5.698   2.023  2.1903  1.2746  0.7702
   28MOL0     H 3762  11.767   5.330   2.317  1.5649 -1.7947 -2.0562
   28MOL0     H 3763  11.542   5.469   2.335  0.5188 -2.2027  1.9047
   28MOL0     H 3764  11.046   5.490   2.323  0.0600  1.3134  1.7775
   28MOL0     H 3765  10.878   5.666   2.328  1.3956  2.0316  2.8787
   28MOL0     H 3766  10.364   7.295   2.642 -1.3642 -0.4514  0.3541
   28MOL0     H 3767  10.444   7.489   2.543  1.3070 -3.0618 -2.5008
   28MOL0     H 3768  10.846   7.806   2.594  2.6843 -0.9993 -0.9965
   28MOL0     H 3769  10.958   7.983   2.505  2.4348 -2.1112  0.5028
   28MOL0     H 3770  10.762   8.200   2.206 -1.2293 -2.4503  1.6942
   28MOL0     H 3771  10.791   8.201   2.376  0.3461  0.5752  0.4557
   28MOL0     H 3772  10.988   8.306   2.163 -0.2782  1.4687 -0.6799
   28MOL0     H 3773  11.002   8.318   2.348 -3.9280  2.2009  2.8606
   28MOL0     H 3774  10.780   8.458   2.316 -0.8712 -1.3843  0.3093
   28MOL0     H 3775  10.828   8.478   2.157 -1.0365  3.4801  1.7223
   28MOL0     H 3776  11.039   8.573   2.203 -0.5465 -4.6232 -1.4570
   28MOL0     H 3777  11.022   8.534   2.378 -0.7680  2.6737  0.6051
   28MOL0     H 3778  10.774   8.875   2.370  0.5367 -0.8402  2.1384
   28MOL0     H 3779  10.759   7.906   2.116  0.8913 -3.2778 -0.9234
   28MOL0     H 3780  10.673   7.687   2.216 -2.2899 -1.8598  2.8920
   29MOL0     O 3781   3.799   4.050   8.803 -0.4307  0.0744 -1.0881
   29MOL0     C 3782   3.900   3.984   8.766 -0.3881 -1.6335  0.2015
   29MOL0     O 3783   3.911   3.901   8.659 -0.2779 -0.2919  0.6391
   29MOL0     C 3784   3.812   3.911   8.563  0.3553 -0.0339 -0.1576
   29MOL0     C 3785   3.692   3.832   8.571  0.0839 -0.0069 -0.2042
   29MOL0     C 3786   3.585   3.833   8.481  0.9417 -0.3067  0.6009
   29MOL0     C 3787   3.608   3.906   8.358 -0.4973 -0.0558 -0.0554
   29MOL0     O 3788   3.522   3.896   8.256  0.0467  1.0544 -0.7207
   29MOL0     C 3789   3.379   3.909   8.290 -0.1622  0.0426  1.0433
   29MOL0     C 3790   3.307   3.913   8.154 -0.6862  0.1480 -1.0993
   29MOL0     C 3791   3.152   3.929   8.171  0.9989  0.2868 -0.4756
   29MOL0     C 3792   3.108   4.072   8.171 -0.0515  0.1697 -0.3566
   29MOL0     C 3793   2.970   4.104   8.229  0.5110 -0.3541  0.3689
   29MOL0     C 3794   2.947   4.061   8.376 -0.5578  0.2193 -0.3579
   29MOL0     C 3795   2.802   4.111   8.426  1.2529 -0.7007  0.3779
   29MOL0     C 3796   2.790   4.063   8.566 -0.8478  0.1253 -0.2971
   29MOL0     N 3797   2.715   4.154   8.649  0.5218  0.5893  1.1190
   29MOL0     C 3798   2.586   4.210   8.611 -0.1332  0.2385  0.0668
   29MOL0     C 3799   2.547   4.268   8.720  0.7213  0.3256 -0.4374
   29MOL0     C 3800   2.419   4.345   8.729 -0.6518  0.0007 -0.8561
   29MOL0     C 3801   2.448   4.483   8.653 -0.0423  0.4882 -0.2596
   29MOL0     C 3802   2.338   4.580   8.679 -0.3343  0.1885 -0.3659
   29MOL0     C 3803   2.375   4.676   8.806  0.1294  0.6162  0.1080
   29MOL0     O 3804   2.344   4.617   8.934  0.1373  0.0973  0.7439
   29MOL0     C 3805   2.440   4.599   9.028  0.6404 -0.7675  0.3029
   29MOL0     C 3806   2.400   4.619   9.161 -0.4145  0.2630 -0.3405
   29MOL0     C 3807   2.494   4.602   9.258 -0.1752  0.2338 -0.6765
   29MOL0     C 3808   2.438   4.620   9.402 -0.8214  0.6896  0.6621
   29MOL0     C 3809   2.634   4.568   9.231 -0.5665 -0.6269 -0.0723
   29MOL0     C 3810   2.740   4.522   9.322  0.0760 -0.4662  0.8801
   29MOL0     O 3811   2.864   4.527   9.262  0.2963  0.2147  0.0744
   29MOL0     C 3812   2.981   4.489   9.324 -0.0379  0.6735 -1.2407
   29MOL0     C 3813   3.087   4.489   9.243  0.3345  1.1352 -1.0810
   29MOL0     C 3814   3.220   4.486   9.286  0.5778  0.3430  0.5625
   29MOL0     C 3815   3.253   4.460   9.423 -0.0085  1.1844  0.0369
   29MOL0     O 3816   3.391   4.441   9.457  0.5012 -0.2587  0.6524
   29MOL0     C 3817   3.434   4.419   9.582  0.1974  0.1263 -0.9415
   29MOL0     C 3818   3.426   4.549   9.665 -0.0828  0.4727  1.4023
   29MOL0     C 3819   3.501   4.667   9.613  0.1597  0.7016  0.2413
   29MOL0     C 3820   3.572   4.736   9.734 -0.1728 -0.3137  0.1277
   29MOL0     C 3821   3.667   4.638   9.797 -0.1019 -0.1371 -0.1403
   29MOL0     C 3822   3.777   4.704   9.867 -0.1055 -0.0885 -0.1050
   29MOL0     C 3823   3.884   4.608   9.920  0.9434  0.6186  0.2949
   29MOL0     C 3824   3.999   4.675   9.981  0.2619 -0.0649  1.2240
   29MOL0    Cl 3825   3.957   4.740  10.139  0.1099 -0.1491 -0.1248
   29MOL0     C 3826   3.143   4.451   9.509  0.6446 -0.6689 -0.7002
   29MOL0     C 3827   3.012   4.464   9.459 -0.7096 -0.6125  0.0178
   29MOL0     O 3828   2.715   4.491   9.437 -0.0522 -0.8439  0.4702
   29MOL0     C 3829   2.659   4.535   9.098 -0.5690 -0.4926 -0.0645
   29MOL0     C 3830   2.557   4.542   9.002  0.0745  0.9193 -0.5228
   29MOL0     N 3831   2.638   4.251   8.814  0.1826  0.2636 -0.1477
   29MOL0     N 3832   2.751   4.183   8.772  0.2656 -0.0476 -0.2241
   29MOL0     C 3833   3.728   3.968   8.334  0.5046 -0.3140  0.1308
   29MOL0     C 3834   3.816   3.980   8.446 -0.0468 -0.4681  0.3317
   29MOL0     C 3835   4.015   4.013   8.847 -0.6091  0.1539 -0.5643
   29MOL0     C 3836   4.140   3.948   8.823 -0.0081  0.0075 -1.3134
   29MOL0     C 3837   4.241   3.953   8.917  0.3757 -0.3465  0.0630
   29MOL0     C 3838   4.232   4.039   9.029 -0.0181 -0.2949 -0.4330
   29MOL0     O 3839   4.338   4.052   9.109  0.4769 -0.9573 -0.0565
   29MOL0     C 3840   4.406   3.932   9.136 -1.0177 -1.4142  0.4814
   29MOL0     C 3841   4.471   3.940   9.277 -0.6006 -0.0349 -0.6668
   29MOL0     C 3842   4.509   3.811   9.355  0.0081 -0.0289  0.8588
   29MOL0     C 3843   4.604   3.721   9.276 -0.5344 -0.7949 -0.3318
   29MOL0     C 3844   4.546   3.646   9.173 -0.0972  0.4523  0.2457
   29MOL0     C 3845   4.495   3.581   9.077  0.6881 -1.0837  0.5220
   29MOL0     C 3846   4.112   4.109   9.048  0.2924  0.2389  0.8150
   29MOL0     C 3847   4.004   4.102   8.957  0.2949  0.3069  0.0005
   29MOL0     H 3848   3.671   3.774   8.660  0.0831  1.9949  1.1446
   29MOL0     H 3849   3.491   3.788   8.511 -0.6792  1.2901 -1.7294
   29MOL0     H 3850   3.332   3.823   8.337 -0.4734 -1.7745 -2.2478
   29MOL0     H 3851   3.360   3.995   8.354 -0.3798  0.4748  0.4083
   29MOL0     H 3852   3.347   3.988   8.085 -0.1110  1.5783  0.7187
   29MOL0     H 3853   3.313   3.808   8.123  2.3424 -0.8921  2.3015
   29MOL0     H 3854   3.102   3.880   8.087  0.0071 -0.0806  0.3173
   29MOL0     H 3855   3.114   3.873   8.257  0.5705  0.7879 -0.3337
   29MOL0     H 3856   3.190   4.130   8.215  2.2998 -0.9498 -2.9543
   29MOL0     H 3857   3.106   4.109   8.067 -0.8959 -3.1538 -1.6483
   29MOL0     H 3858   2.959   4.213   8.223 -1.2134 -0.5638 -1.0024
   29MOL0     H 3859   2.896   4.061   8.161  0.7208 -0.2617  0.0808
   29MOL0     H 3860   2.950   3.953   8.388  0.4260  0.3165  0.3618
   29MOL0     H 3861   3.028   4.099   8.439 -2.3353  0.1745  2.0976
   29MOL0     H 3862   2.788   4.220   8.420  0.3484 -0.7390  1.4660
   29MOL0     H 3863   2.727   4.063   8.363  1.8621 -1.3675  0.1534
   29MOL0     H 3864   2.892   4.045   8.601 -0.2456  0.2421 -1.9157
   29MOL0     H 3865   2.754   3.960   8.560  1.4372 -0.7286 -0.3098
   29MOL0     H 3866   2.540   4.201   8.513  1.6148 -1.4584 -0.6733
   29MOL0     H 3867   2.340   4.283   8.688 -2.9860 -0.0081  3.1605
   29MOL0     H 3868   2.396   4.355   8.836 -1.1495  1.1442 -1.0632
   29MOL0     H 3869   2.453   4.459   8.546 -0.6609 -2.4358  0.2826
   29MOL0     H 3870   2.543   4.530   8.679 -1.9276  3.1635  2.4042
   29MOL0     H 3871   2.240   4.532   8.690  0.8644 -3.2740 -3.0644
   29MOL0     H 3872   2.327   4.635   8.586  2.1509  0.6340 -0.4409
   29MOL0     H 3873   2.312   4.764   8.786 -0.4614  0.2241  0.2293
   29MOL0     H 3874   2.476   4.717   8.800  0.0598  1.1060  1.8027
   29MOL0     H 3875   2.301   4.649   9.191 -0.6035 -0.2196 -0.4625
   29MOL0     H 3876   2.340   4.669   9.405 -1.0386  0.3704 -0.6029
   29MOL0     H 3877   2.423   4.524   9.452 -4.7019  1.8644  2.0337
   29MOL0     H 3878   2.500   4.699   9.447 -1.3156  0.8799  1.0153
   29MOL0     H 3879   3.079   4.506   9.136  0.5850  0.7866 -1.1584
   29MOL0     H 3880   3.290   4.500   9.204 -1.7684 -1.9663 -2.0418
   29MOL0     H 3881   3.382   4.332   9.623  3.6839 -1.2383  1.0770
   29MOL0     H 3882   3.540   4.388   9.585  0.2708  0.4254  1.3291
   29MOL0     H 3883   3.320   4.577   9.668  0.2670  3.0761 -2.6662
   29MOL0     H 3884   3.459   4.517   9.764 -0.1094  1.0267  1.5875
   29MOL0     H 3885   3.429   4.733   9.564  0.3209 -0.8089 -2.2326
   29MOL0     H 3886   3.584   4.641   9.547  0.9300  1.1601  1.0196
   29MOL0     H 3887   3.636   4.813   9.690 -0.5506  0.2569  0.5434
   29MOL0     H 3888   3.502   4.791   9.798 -0.3552 -1.3085  0.8067
   29MOL0     H 3889   3.705   4.570   9.720  3.3421 -1.3245  2.3588
   29MOL0     H 3890   3.608   4.578   9.868  1.9654 -0.9977  0.9476
   29MOL0     H 3891   3.831   4.776   9.805  0.8106  1.5070  2.3743
   29MOL0     H 3892   3.743   4.767   9.950  1.5171  0.8761 -0.1303
   29MOL0     H 3893   3.922   4.550   9.836  3.2999  2.0861  0.2644
   29MOL0     H 3894   3.829   4.537   9.983 -1.2032  2.2460  0.3942
   29MOL0     H 3895   4.019   4.767   9.925  0.3516  0.5984  2.3256
   29MOL0     H 3896   4.080   4.601   9.981 -0.5939 -1.0294  1.4235
   29MOL0     H 3897   3.161   4.439   9.615  1.9654 -0.9220 -0.9459
   29MOL0     H 3898   2.948   4.463   9.547  1.1563  0.1065  1.4467
   29MOL0     H 3899   2.748   4.477   9.074  0.0906  0.8048 -0.8567
   29MOL0     H 3900   2.564   4.495   8.904 -0.8693  0.8521 -0.5719
   29MOL0     H 3901   3.741   4.009   8.234 -2.5226  4.7648  1.4421
   29MOL0     H 3902   3.902   4.041   8.421 -0.3032 -0.1129  0.3221
   29MOL0     H 3903   4.146   3.892   8.731 -0.3749 -0.4440 -1.0696
   29MOL0     H 3904   4.330   3.898   8.890  0.9367 -0.1435  1.4272
   29MOL0     H 3905   4.345   3.843   9.124 -2.6177 -0.1822 -1.1050
   29MOL0     H 3906   4.481   3.908   9.059 -1.4001  0.6776 -0.6282
   29MOL0     H 3907   4.402   3.997   9.340  0.8683  1.0539 -0.0042
   29MOL0     H 3908   4.563   3.998   9.277  0.0191 -0.8829  1.9531
   29MOL0     H 3909   4.417   3.758   9.381  1.6170 -2.4594  1.9537
   29MOL0     H 3910   4.554   3.837   9.451 -0.7208  0.7716  1.0017
   29MOL0     H 3911   4.649   3.646   9.343 -2.0118  0.5070  2.3083
   29MOL0     H 3912   4.690   3.784   9.249 -1.7112  1.1170  0.1841
   29MOL0     H 3913   4.448   3.544   8.989 -1.9110 -0.7044  1.6475
   29MOL0     H 3914   4.116   4.178   9.131 -1.0296  1.8101 -0.3436
   29MOL0     H 3915   3.912   4.159   8.972 -0.1967 -0.3507 -0.4445
   30MOL0     O 3916  10.242   4.920   7.243  0.3226  0.4048 -0.6924
   30MOL0     C 3917  10.314   4.866   7.165 -0.2425  0.0309 -0.2313
   30MOL0     O 3918  10.421   4.783   7.195 -0.9717  0.0899  0.2682
   30MOL0     C 3919  10.392   4.698   7.300  0.1321 -0.2592 -0.9456
   30MOL0     C 3920  10.270   4.622   7.304 -0.1323 -0.1652 -0.2486
   30MOL0     C 3921  10.240   4.534   7.395 -0.9572 -0.9893  0.6448
   30MOL0     C 3922  10.335   4.506   7.495 -0.2240 -0.3264 -0.3773
   30MOL0     O 3923  10.308   4.405   7.581 -1.1260 -0.2566  0.3735
   30MOL0     C 3924  10.412   4.327   7.652  0.2357  0.4327 -0.2616
   30MOL0     C 3925  10.326   4.242   7.744 -1.0580 -0.0021 -0.2020
   30MOL0     C 3926  10.387   4.115   7.793  0.1350 -0.1754  0.1015
   30MOL0     C 3927  10.518   4.137   7.872  0.2398 -0.4807 -0.2064
   30MOL0     C 3928  10.564   4.013   7.946  0.3493 -0.6333  0.2467
   30MOL0     C 3929  10.613   3.893   7.848  1.0688  0.9625  0.0939
   30MOL0     C 3930  10.631   3.756   7.914 -0.3882  0.4791 -0.8638
   30MOL0     C 3931  10.503   3.713   7.981  0.3728 -0.7045  0.4352
   30MOL0     N 3932  10.503   3.592   8.066 -0.0535 -0.0987 -1.0242
   30MOL0     C 3933  10.436   3.480   8.048 -0.7252  0.3202 -0.2184
   30MOL0     C 3934  10.432   3.418   8.171  0.1054 -0.0670  0.2159
   30MOL0     C 3935  10.358   3.298   8.222 -0.4136  0.5947  0.4297
   30MOL0     C 3936  10.283   3.225   8.112  0.3506  0.4508  0.2451
   30MOL0     C 3937  10.199   3.103   8.154 -0.2382 -0.0782 -0.0261
   30MOL0     C 3938  10.052   3.120   8.128  0.5141 -0.4319  0.2665
   30MOL0     O 3939  10.026   3.103   7.992  0.0632  0.1129 -0.0296
   30MOL0     C 3940   9.897   3.099   7.955 -0.6606 -0.1396 -1.2275
   30MOL0     C 3941   9.790   3.125   8.036  0.1138 -0.7254  0.5389
   30MOL0     C 3942   9.655   3.119   7.990  0.3500 -0.6004 -0.4499
   30MOL0     C 3943   9.547   3.144   8.096  0.0265  0.5157 -0.6151
   30MOL0     C 3944   9.626   3.064   7.859 -0.2308  0.0841  0.1928
   30MOL0     C 3945   9.493   3.042   7.789 -0.3810  0.2629 -0.0754
   30MOL0     O 3946   9.509   3.010   7.660 -0.4767  0.2161  0.0766
   30MOL0     C 3947   9.398   3.003   7.581 -0.0409 -0.3008 -1.2262
   30MOL0     C 3948   9.413   3.078   7.466  0.2762 -0.7434  0.4449
   30MOL0     C 3949   9.313   3.063   7.365  0.2772 -1.2882 -0.7249
   30MOL0     C 3950   9.206   2.979   7.371 -0.0792 -0.6950 -0.0460
   30MOL0     O 3951   9.114   2.980   7.268 -0.0689  0.1164  0.0034
   30MOL0     C 3952   9.046   2.857   7.247 -1.0848 -0.1302  0.5830
   30MOL0     C 3953   8.997   2.848   7.092 -0.9810 -0.0063  0.5190
   30MOL0     C 3954   8.913   2.970   7.043  0.1342  0.0672  0.4400
   30MOL0     C 3955   8.770   2.936   7.099 -0.7094  0.4336 -0.0238
   30MOL0     C 3956   8.668   3.030   7.027  0.9880  0.5838  0.5946
   30MOL0     C 3957   8.521   3.032   7.088  0.3248 -0.2172 -0.3111
   30MOL0     C 3958   8.445   2.903   7.061  0.2300  0.3310 -0.6630
   30MOL0     C 3959   8.316   2.889   7.139  0.9333 -0.5258 -0.5477
   30MOL0    Cl 3960   8.162   2.986   7.095  0.0537  0.1760 -0.4007
   30MOL0     C 3961   9.191   2.912   7.493 -0.1048 -0.6060 -0.2335
   30MOL0     C 3962   9.278   2.921   7.597 -0.5337  0.2851  0.3529
   30MOL0     O 3963   9.388   3.079   7.852 -0.2236 -0.6103  0.8920
   30MOL0     C 3964   9.742   3.044   7.784  0.5623 -0.0971 -0.1131
   30MOL0     C 3965   9.868   3.060   7.831  0.1678 -0.4505  0.0356
   30MOL0     N 3966  10.499   3.498   8.263 -0.5988  0.4962  0.7121
   30MOL0     N 3967  10.532   3.605   8.200 -0.5659  0.0403  0.6823
   30MOL0     C 3968  10.457   4.573   7.498 -0.1617 -0.9969  0.3238
   30MOL0     C 3969  10.487   4.678   7.406  0.0291  0.4157  0.2042
   30MOL0     C 3970  10.313   4.907   7.021  0.3489 -0.6517 -0.5745
   30MOL0     C 3971  10.413   4.856   6.936  0.4001 -0.8131 -1.1316
   30MOL0     C 3972  10.416   4.902   6.801 -0.0008 -0.3552 -0.3538
   30MOL0     C 3973  10.324   5.004   6.759 -0.1892 -0.6980  0.2182
   30MOL0     O 3974  10.346   5.027   6.624 -0.5894  0.0524 -0.2521
   30MOL0     C 3975  10.255   5.126   6.565 -0.6256  0.0391  0.0738
   30MOL0     C 3976  10.249   5.139   6.410 -0.4440  0.5026 -0.0468
   30MOL0     C 3977  10.385   5.102   6.339  0.0827 -0.1175 -0.2191
   30MOL0     C 3978  10.505   5.195   6.386  0.0361  0.7857  0.2512
   30MOL0     C 3979  10.479   5.336   6.391 -0.7642  0.2760 -0.3717
   30MOL0     C 3980  10.469   5.459   6.388  0.0968 -0.3624  0.5131
   30MOL0     C 3981  10.233   5.063   6.843 -0.0518  0.0689  0.6436
   30MOL0     C 3982  10.232   5.014   6.977  0.4058  0.7975 -1.1012
   30MOL0     H 3983  10.201   4.644   7.223  0.2351  1.2030 -0.2031
   30MOL0     H 3984  10.148   4.476   7.395 -1.1404 -0.7093 -0.4805
   30MOL0     H 3985  10.470   4.263   7.585 -1.4431 -0.8110 -0.5917
   30MOL0     H 3986  10.473   4.383   7.724 -0.7696  0.3391  0.6847
   30MOL0     H 3987  10.295   4.289   7.838 -2.7502 -3.6344  1.2542
   30MOL0     H 3988  10.236   4.211   7.691 -2.0462  0.6420  1.0548
   30MOL0     H 3989  10.311   4.064   7.853  0.0471 -1.3265 -0.9465
   30MOL0     H 3990  10.415   4.057   7.704 -0.1561  0.8899 -0.7020
   30MOL0     H 3991  10.596   4.164   7.800 -0.8222  1.1547 -0.8348
   30MOL0     H 3992  10.518   4.227   7.935 -1.1801  0.4516 -1.4438
   30MOL0     H 3993  10.642   4.042   8.017 -1.3155  0.6181  1.6455
   30MOL0     H 3994  10.472   3.990   8.000 -0.3691  1.0630 -0.1872
   30MOL0     H 3995  10.537   3.869   7.773  2.5417  2.0131 -1.8653
   30MOL0     H 3996  10.701   3.928   7.793  0.3866  0.8172 -1.1311
   30MOL0     H 3997  10.666   3.678   7.845  3.4586  0.4326  0.8861
   30MOL0     H 3998  10.713   3.753   7.986  0.6599 -0.2219 -2.0440
   30MOL0     H 3999  10.424   3.702   7.907 -1.8076  1.2194  2.3313
   30MOL0     H 4000  10.475   3.794   8.049  0.9319  0.7612 -1.0342
   30MOL0     H 4001  10.425   3.433   7.951  2.0997 -1.5059  0.2377
   30MOL0     H 4002  10.435   3.241   8.274 -0.7088  0.0545  0.2843
   30MOL0     H 4003  10.279   3.340   8.286 -1.2801 -0.7740  0.3020
   30MOL0     H 4004  10.348   3.187   8.033 -1.5298 -0.3507 -0.9926
   30MOL0     H 4005  10.220   3.297   8.060  0.1774  0.4290  0.4241
   30MOL0     H 4006  10.219   3.093   8.261 -1.5164 -1.0510  0.1493
   30MOL0     H 4007  10.245   3.020   8.100  1.6519  0.7985  0.1587
   30MOL0     H 4008  10.017   3.217   8.166 -0.1168 -1.2423  1.8648
   30MOL0     H 4009  10.001   3.033   8.170  0.4659 -1.8289 -2.4746
   30MOL0     H 4010   9.796   3.167   8.136 -5.5255 -2.2395  1.9011
   30MOL0     H 4011   9.467   3.215   8.074  0.4153  2.4867  3.4098
   30MOL0     H 4012   9.498   3.049   8.117 -0.0014  0.4040 -1.1608
   30MOL0     H 4013   9.590   3.185   8.188 -0.0994 -2.2914  0.7810
   30MOL0     H 4014   9.500   3.142   7.457 -0.8522  0.6867 -0.9767
   30MOL0     H 4015   9.330   3.130   7.282 -0.9935  0.8109  0.6118
   30MOL0     H 4016   9.111   2.770   7.263 -2.2388 -1.7687 -2.6600
   30MOL0     H 4017   8.962   2.855   7.317 -2.6003 -1.5294 -1.1705
   30MOL0     H 4018   9.086   2.848   7.027 -0.6006  2.2207  0.9555
   30MOL0     H 4019   8.943   2.754   7.080  1.2564 -1.3266  0.0909
   30MOL0     H 4020   8.884   2.964   6.938 -3.5698 -3.3421  1.4039
   30MOL0     H 4021   8.952   3.067   7.074  0.8600 -0.1657  0.2697
   30MOL0     H 4022   8.725   2.837   7.089 -1.8286  0.9185  0.0238
   30MOL0     H 4023   8.774   2.962   7.206  1.6355  0.2875 -0.0243
   30MOL0     H 4024   8.672   3.007   6.920 -5.5019 -4.4547  0.7894
   30MOL0     H 4025   8.704   3.133   7.037  2.0854  0.3521 -0.7190
   30MOL0     H 4026   8.511   3.059   7.193  1.2725  0.1971 -0.3112
   30MOL0     H 4027   8.472   3.122   7.051  1.8058 -0.7700 -4.1534
   30MOL0     H 4028   8.509   2.826   7.105 -0.8715  0.4978  1.3026
   30MOL0     H 4029   8.433   2.875   6.956  0.3605 -0.1155 -0.5583
   30MOL0     H 4030   8.329   2.909   7.246 -1.5324  3.9650 -0.8236
   30MOL0     H 4031   8.270   2.792   7.120 -0.7284  0.0526  0.3442
   30MOL0     H 4032   9.104   2.849   7.509 -0.8829 -0.4469 -3.2126
   30MOL0     H 4033   9.260   2.855   7.682 -0.3296  0.3324  0.4345
   30MOL0     H 4034   9.738   3.025   7.677 -1.6109 -0.6260  0.0145
   30MOL0     H 4035   9.953   3.047   7.765  1.8932  0.7785  1.8755
   30MOL0     H 4036  10.524   4.539   7.576 -0.6374 -0.2424  1.0719
   30MOL0     H 4037  10.573   4.743   7.411  2.1071 -2.2535  1.6448
   30MOL0     H 4038  10.485   4.783   6.971 -1.5830 -2.0425  0.6273
   30MOL0     H 4039  10.490   4.867   6.730  0.0515 -0.0979 -0.4283
   30MOL0     H 4040  10.154   5.103   6.603 -0.7631  0.3055 -0.1249
   30MOL0     H 4041  10.287   5.222   6.606  3.1464 -1.2042  0.3829
   30MOL0     H 4042  10.217   5.239   6.380 -1.8703 -0.0004 -0.2551
   30MOL0     H 4043  10.167   5.075   6.376 -0.2682  0.3750 -0.2355
   30MOL0     H 4044  10.383   5.105   6.230  0.4466 -2.7503 -0.3665
   30MOL0     H 4045  10.399   4.997   6.368  2.1178  0.5226  1.4173
   30MOL0     H 4046  10.593   5.187   6.322  2.0512 -0.7354  2.9982
   30MOL0     H 4047  10.536   5.177   6.489  0.8908  2.3423  0.2999
   30MOL0     H 4048  10.464   5.566   6.380  0.1028 -0.3719  0.3735
   30MOL0     H 4049  10.155   5.138   6.833  0.3165  0.1748 -2.5361
   30MOL0     H 4050  10.165   5.057   7.051 -1.7749  0.3760 -2.7181
   31MOL0     O 4051  10.912   3.508   6.437 -0.0951  0.5214  0.0402
   31MOL0     C 4052  10.895   3.503   6.556  0.1518 -0.9834 -0.3129
   31MOL0     O 4053  10.878   3.614   6.634  0.0310  1.5304 -0.8080
   31MOL0     C 4054  10.880   3.735   6.582  0.2601  0.7509 -1.0464
   31MOL0     C 4055  11.004   3.791   6.551 -0.0078 -0.6479 -0.2063
   31MOL0     C 4056  11.011   3.918   6.481 -0.2157 -0.6254 -0.7097
   31MOL0     C 4057  10.896   3.986   6.459 -0.5551  0.0119  0.5456
   31MOL0     O 4058  10.908   4.104   6.387 -0.1783  0.1857 -0.4412
   31MOL0     C 4059  10.792   4.191   6.372 -0.0006  0.5900 -0.7063
   31MOL0     C 4060  10.847   4.316   6.320 -0.8084 -0.7223 -0.6286
   31MOL0     C 4061  10.735   4.415   6.302  0.2176  0.5745  0.4671
   31MOL0     C 4062  10.788   4.542   6.237  0.7608 -0.3404  0.4511
   31MOL0     C 4063  10.684   4.648   6.195 -0.2516 -0.7107 -0.0317
   31MOL0     C 4064  10.587   4.693   6.307 -1.2127 -1.1807  0.4982
   31MOL0     C 4065  10.648   4.731   6.442  0.5621 -0.3205  0.2801
   31MOL0     C 4066  10.696   4.880   6.438 -0.3730 -0.0052  0.8787
   31MOL0     N 4067  10.764   4.929   6.564 -0.5230  0.0924 -0.9185
   31MOL0     C 4068  10.878   4.868   6.619  0.2689 -0.8903  0.9172
   31MOL0     C 4069  10.926   4.964   6.700  0.3166  0.3852 -0.5088
   31MOL0     C 4070  11.029   4.942   6.800 -0.3846  0.2729 -0.0879
   31MOL0     C 4071  11.152   4.897   6.743  0.4174 -0.8726  0.9602
   31MOL0     C 4072  11.228   4.834   6.861 -0.3915  0.1318  1.1171
   31MOL0     C 4073  11.381   4.814   6.840  0.3530  0.8308 -0.4929
   31MOL0     O 4074  11.391   4.677   6.798 -0.2694 -0.3701  0.3499
   31MOL0     C 4075  11.524   4.636   6.804  0.4186 -0.7932  0.4773
   31MOL0     C 4076  11.620   4.669   6.900  0.9761 -0.0749  0.8645
   31MOL0     C 4077  11.755   4.631   6.894 -0.4084  0.2172  1.1396
   31MOL0     C 4078  11.858   4.666   7.008 -0.0207 -0.9702  0.6974
   31MOL0     C 4079  11.794   4.552   6.775 -0.3605  0.1651 -0.4299
   31MOL0     C 4080  11.935   4.498   6.747 -0.2213  0.0717  0.0921
   31MOL0     O 4081  11.953   4.393   6.667 -1.1047 -0.0821 -0.0504
   31MOL0     C 4082  12.075   4.336   6.655 -0.2008  1.0958  0.5520
   31MOL0     C 4083  12.184   4.339   6.749 -0.1994  0.6086 -0.0582
   31MOL0     C 4084  12.305   4.274   6.712 -0.3000 -0.4851  0.6924
   31MOL0     C 4085  12.317   4.211   6.584 -0.3442 -0.1269  0.7400
   31MOL0     O 4086  12.439   4.169   6.536 -0.4865  0.2363 -0.3520
   31MOL0     C 4087  12.528   4.117   6.633 -1.1694  0.7949  0.6186
   31MOL0     C 4088  12.616   4.014   6.557  0.8796  0.5030  0.3718
   31MOL0     C 4089  12.732   3.973   6.658  0.0169  0.0555 -0.5691
   31MOL0     C 4090  12.821   3.861   6.612  0.0347 -0.9158 -0.6028
   31MOL0     C 4091  12.881   3.767   6.723  0.0346 -0.0630 -0.4624
   31MOL0     C 4092  12.995   3.677   6.674  0.9559  0.4222 -1.5971
   31MOL0     C 4093  13.041   3.604   6.794  0.0742 -0.2118 -0.1014
   31MOL0     C 4094  13.134   3.687   6.878 -0.5804 -0.0371 -0.4900
   31MOL0    Cl 4095  13.212   3.562   6.989 -0.1077 -0.3759 -0.1613
   31MOL0     C 4096  12.211   4.210   6.494 -0.7270 -0.1192 -0.5699
   31MOL0     C 4097  12.097   4.277   6.533 -0.0565 -0.3980  0.1905
   31MOL0     O 4098  12.030   4.572   6.789  0.1457 -0.1262 -0.0550
   31MOL0     C 4099  11.693   4.504   6.686 -0.4939 -1.4186 -0.7442
   31MOL0     C 4100  11.558   4.553   6.699 -0.2735  0.0702 -0.1789
   31MOL0     N 4101  10.851   5.071   6.685  0.1295 -0.7744 -0.7899
   31MOL0     N 4102  10.758   5.059   6.603  0.0849  1.0907 -0.3557
   31MOL0     C 4103  10.777   3.933   6.493  0.4179 -0.8708 -0.5125
   31MOL0     C 4104  10.765   3.804   6.553 -0.7147 -0.1297 -0.1520
   31MOL0     C 4105  10.896   3.367   6.622 -0.0130  0.7412  0.8014
   31MOL0     C 4106  10.970   3.264   6.554 -0.1862 -0.2315 -0.9186
   31MOL0     C 4107  10.962   3.136   6.601  0.5663  0.0092 -0.5826
   31MOL0     C 4108  10.891   3.104   6.723  0.9854 -0.5729  0.2596
   31MOL0     O 4109  10.895   2.989   6.797  0.4391 -0.9433 -0.2900
   31MOL0     C 4110  10.987   2.886   6.749 -1.2489  0.3343 -0.0359
   31MOL0     C 4111  11.140   2.927   6.767 -0.4374  0.2712  0.2166
   31MOL0     C 4112  11.228   2.791   6.735 -0.7414 -0.4891  0.2046
   31MOL0     C 4113  11.374   2.830   6.753 -0.2842 -0.8577  0.0322
   31MOL0     C 4114  11.417   2.828   6.891 -0.7126  0.2635  0.0906
   31MOL0     C 4115  11.424   2.838   7.016  0.8791 -0.3185  0.0598
   31MOL0     C 4116  10.822   3.205   6.797 -0.4800  0.4550 -0.3032
   31MOL0     C 4117  10.825   3.336   6.746 -0.1360  0.1339 -0.8159
   31MOL0     H 4118  11.094   3.731   6.562  2.4549  2.6100 -1.0138
   31MOL0     H 4119  11.101   3.960   6.437 -0.8664 -1.4796 -3.0285
   31MOL0     H 4120  10.717   4.149   6.304  1.0319  2.3621 -3.0570
   31MOL0     H 4121  10.748   4.202   6.471 -2.0998  3.7731 -1.8558
   31MOL0     H 4122  10.928   4.354   6.382 -0.7540 -0.6707 -0.7318
   31MOL0     H 4123  10.897   4.296   6.226  2.0577  1.1085  0.3831
   31MOL0     H 4124  10.649   4.369   6.252  1.5632 -0.1779 -1.2723
   31MOL0     H 4125  10.694   4.433   6.402  3.4085 -2.0827  2.4612
   31MOL0     H 4126  10.864   4.587   6.302 -1.6003  0.2008  3.0076
   31MOL0     H 4127  10.847   4.502   6.154  0.1371 -5.0605  1.9738
   31MOL0     H 4128  10.738   4.731   6.148 -1.5371  0.7248  0.9490
   31MOL0     H 4129  10.627   4.594   6.119 -1.8472 -0.6252  1.0544
   31MOL0     H 4130  10.538   4.784   6.269  2.2030 -0.0013 -1.4623
   31MOL0     H 4131  10.504   4.625   6.329 -0.2152 -1.8923  2.2366
   31MOL0     H 4132  10.576   4.694   6.515  1.3669 -3.1681 -0.2638
   31MOL0     H 4133  10.733   4.664   6.460  0.2291 -0.3285  2.0188
   31MOL0     H 4134  10.610   4.943   6.416 -1.3364 -0.4754  3.0072
   31MOL0     H 4135  10.774   4.890   6.363  1.5321  1.7734  2.9482
   31MOL0     H 4136  10.904   4.763   6.614 -0.8973 -1.1181 -1.8999
   31MOL0     H 4137  11.048   5.041   6.842  2.6530  1.1353 -2.9777
   31MOL0     H 4138  10.988   4.874   6.875  1.7095 -2.9165 -1.6037
   31MOL0     H 4139  11.211   4.976   6.694 -2.0286 -1.7506 -3.9625
   31MOL0     H 4140  11.149   4.829   6.658  0.9622  2.3376 -1.8572
   31MOL0     H 4141  11.192   4.731   6.860 -0.0692 -0.0318 -1.8160
   31MOL0     H 4142  11.210   4.889   6.954  1.1967  3.3429 -0.3275
   31MOL0     H 4143  11.423   4.846   6.936 -2.4851  1.1216  0.7794
   31MOL0     H 4144  11.412   4.879   6.758 -1.3779  2.4042  0.0350
   31MOL0     H 4145  11.579   4.728   6.981 -1.5866  1.1727 -1.1797
   31MOL0     H 4146  11.813   4.679   7.107  3.8624 -0.9247  2.6603
   31MOL0     H 4147  11.929   4.586   7.030 -2.5841 -3.5021  0.4251
   31MOL0     H 4148  11.922   4.753   6.991 -3.1479  1.0557 -2.1274
   31MOL0     H 4149  12.174   4.381   6.849  0.1408  0.6688 -0.0485
   31MOL0     H 4150  12.378   4.270   6.792 -0.9765 -2.3666  1.2746
   31MOL0     H 4151  12.598   4.194   6.665  0.8295 -0.9557  0.6847
   31MOL0     H 4152  12.484   4.067   6.720 -0.9158 -1.9204 -0.6948
   31MOL0     H 4153  12.554   3.932   6.519  0.0965  2.1751 -2.2790
   31MOL0     H 4154  12.655   4.059   6.465 -0.3429 -2.1801 -1.5868
   31MOL0     H 4155  12.684   3.943   6.752  0.1480  1.9105  0.1327
   31MOL0     H 4156  12.801   4.053   6.687  0.4934 -1.4446  2.9271
   31MOL0     H 4157  12.775   3.801   6.533 -2.6842  3.1718 -2.4475
   31MOL0     H 4158  12.906   3.912   6.565  0.3484 -1.2374 -0.3925
   31MOL0     H 4159  12.802   3.699   6.755  2.1586 -1.1321  3.0062
   31MOL0     H 4160  12.915   3.824   6.810  1.9127 -1.4595 -0.1953
   31MOL0     H 4161  12.970   3.608   6.593 -2.1835  1.8658 -2.0202
   31MOL0     H 4162  13.070   3.745   6.633 -0.2127  3.4523  0.8565
   31MOL0     H 4163  13.103   3.519   6.766 -1.6506 -1.3153 -0.7406
   31MOL0     H 4164  12.966   3.570   6.866 -0.0701  2.8070  1.3340
   31MOL0     H 4165  13.085   3.767   6.934  2.9147  1.6799  0.3539
   31MOL0     H 4166  13.213   3.739   6.824  2.0093 -0.8976  2.1731
   31MOL0     H 4167  12.208   4.162   6.397  0.5532  0.7642 -1.0658
   31MOL0     H 4168  12.018   4.270   6.459  0.5405 -1.6693 -0.3637
   31MOL0     H 4169  11.714   4.428   6.612 -2.1841 -1.3092 -1.3861
   31MOL0     H 4170  11.481   4.515   6.632 -0.9202  4.6532 -2.4145
   31MOL0     H 4171  10.685   3.989   6.478  1.0339  0.8921  1.6392
   31MOL0     H 4172  10.666   3.765   6.573 -1.2853  0.7322 -1.2408
   31MOL0     H 4173  11.021   3.282   6.460  0.2341 -0.8885 -0.8262
   31MOL0     H 4174  11.020   3.063   6.545  1.5554 -0.1835  0.6543
   31MOL0     H 4175  10.989   2.794   6.808  3.7880 -0.3548 -0.8417
   31MOL0     H 4176  10.972   2.861   6.643 -0.8534  3.2507 -0.8653
   31MOL0     H 4177  11.169   2.963   6.866  0.5639  2.3019 -0.7604
   31MOL0     H 4178  11.159   3.007   6.695 -0.7858  0.3942  0.2603
   31MOL0     H 4179  11.225   2.762   6.629  2.3558 -0.5604  0.0470
   31MOL0     H 4180  11.198   2.702   6.790 -2.2103 -1.4638 -2.0048
   31MOL0     H 4181  11.382   2.933   6.715  0.0939 -1.4090 -1.4643
   31MOL0     H 4182  11.443   2.772   6.690  0.9807  2.2249 -1.6349
   31MOL0     H 4183  11.439   2.855   7.120  0.2068  1.3121 -0.0901
   31MOL0     H 4184  10.775   3.183   6.892 -0.3997  3.6238  0.5765
   31MOL0     H 4185  10.770   3.415   6.797 -2.8391 -2.1357  0.0161
   32MOL0     O 4186   8.785   9.253   6.766 -0.7640 -0.6453  0.5714
   32MOL0     C 4187   8.779   9.162   6.850 -0.0253 -0.2727  0.6976
   32MOL0     O 4188   8.786   9.177   6.986 -0.6452 -0.7495  0.2007
   32MOL0     C 4189   8.778   9.305   7.044  0.4706  1.6473 -0.6236
   32MOL0     C 4190   8.708   9.322   7.158  0.6654 -0.2515  0.2920
   32MOL0     C 4191   8.695   9.448   7.220 -0.1826  0.1511 -0.7265
   32MOL0     C 4192   8.766   9.555   7.179  0.1070 -1.1378  0.1198
   32MOL0     O 4193   8.736   9.670   7.246  0.1376 -0.1107  0.7607
   32MOL0     C 4194   8.829   9.781   7.229  0.3549  0.0405 -0.3692
   32MOL0     C 4195   8.766   9.887   7.126 -0.0068  0.8206 -1.7887
   32MOL0     C 4196   8.853  10.008   7.111 -0.0882 -0.4373 -0.8218
   32MOL0     C 4197   8.796  10.119   7.021 -0.1789  0.7853 -0.0900
   32MOL0     C 4198   8.676  10.198   7.098  0.6860  1.6339  0.4210
   32MOL0     C 4199   8.583  10.281   6.998  0.0394 -0.7787  0.1154
   32MOL0     C 4200   8.485  10.360   7.100  0.3646 -0.1469 -0.0156
   32MOL0     C 4201   8.423  10.484   7.034  0.0121 -0.3522  0.2126
   32MOL0     N 4202   8.329  10.458   6.926 -0.3297 -0.5951  0.9105
   32MOL0     C 4203   8.223  10.370   6.917  0.0114 -0.0302 -0.3220
   32MOL0     C 4204   8.165  10.401   6.801  0.6647 -0.6817  0.3460
   32MOL0     C 4205   8.029  10.366   6.754  0.5013 -0.5771 -0.2604
   32MOL0     C 4206   7.951  10.495   6.718  0.2127  0.6898 -0.2609
   32MOL0     C 4207   7.802  10.480   6.699  0.7897 -0.4521 -0.6761
   32MOL0     C 4208   7.730  10.376   6.778 -0.0410  0.3736 -0.5231
   32MOL0     O 4209   7.605  10.339   6.720  0.1833 -0.1187 -0.5587
   32MOL0     C 4210   7.496  10.333   6.807 -0.4436 -0.7187  0.8913
   32MOL0     C 4211   7.471  10.440   6.894  0.6135  0.1875  0.7408
   32MOL0     C 4212   7.360  10.425   6.984  0.8672  0.8009 -0.5418
   32MOL0     C 4213   7.331  10.533   7.096 -0.2631  0.0087 -0.2368
   32MOL0     C 4214   7.265  10.318   6.974 -0.9371  0.0843 -0.3710
   32MOL0     C 4215   7.135  10.318   7.045 -0.4266  0.4400  0.1823
   32MOL0     O 4216   7.049  10.424   7.032 -0.3090 -0.2121  0.6861
   32MOL0     C 4217   6.921  10.419   7.094 -0.2530  0.1269  0.1468
   32MOL0     C 4218   6.828  10.469   7.008  0.0590  0.6549 -0.3360
   32MOL0     C 4219   6.692  10.464   7.035  0.5972  0.4452  0.0224
   32MOL0     C 4220   6.643  10.407   7.159  0.6232  0.0965 -0.4288
   32MOL0     O 4221   6.509  10.399   7.175 -0.3239 -0.1153 -0.3025
   32MOL0     C 4222   6.455  10.393   7.305  0.1537  1.0733  0.1418
   32MOL0     C 4223   6.302  10.402   7.278 -0.4124 -0.2876  0.1640
   32MOL0     C 4224   6.266  10.251   7.242 -0.3169  0.1351  0.7463
   32MOL0     C 4225   6.264  10.140   7.342  0.0057 -0.1502  0.3457
   32MOL0     C 4226   6.208  10.005   7.294  0.3467 -0.5740 -0.7603
   32MOL0     C 4227   6.231   9.905   7.406 -0.3981 -0.3878  0.3237
   32MOL0     C 4228   6.191   9.773   7.346  0.1811 -0.5849  0.3008
   32MOL0     C 4229   6.223   9.658   7.433 -1.2363 -0.4145 -0.4551
   32MOL0    Cl 4230   6.397   9.632   7.434 -0.1121  0.1108  0.1643
   32MOL0     C 4231   6.744  10.366   7.255  0.9345 -0.1147 -0.5915
   32MOL0     C 4232   6.879  10.380   7.223  0.3294  1.0789 -0.2610
   32MOL0     O 4233   7.116  10.219   7.115  0.2712  0.1336 -0.0644
   32MOL0     C 4234   7.286  10.215   6.880  0.2492 -0.1052  1.0703
   32MOL0     C 4235   7.403  10.223   6.796 -0.3393  0.0081 -0.3022
   32MOL0     N 4236   8.222  10.511   6.741 -0.7826 -0.0367 -0.6782
   32MOL0     N 4237   8.320  10.543   6.818  0.1119  1.4345  0.0441
   32MOL0     C 4238   8.847   9.540   7.066  0.2033  0.2562 -0.2997
   32MOL0     C 4239   8.845   9.415   6.993 -0.1409  0.2002  0.1791
   32MOL0     C 4240   8.756   9.023   6.802  0.6112  0.7260 -1.3516
   32MOL0     C 4241   8.748   8.915   6.885 -0.3450  0.5098 -0.7719
   32MOL0     C 4242   8.710   8.788   6.843  0.5650 -0.3781  0.2137
   32MOL0     C 4243   8.690   8.768   6.706 -0.3297  0.1812 -0.5709
   32MOL0     O 4244   8.648   8.649   6.652 -0.3733  0.0012 -0.1008
   32MOL0     C 4245   8.618   8.515   6.714  0.6455  0.1524  1.0449
   32MOL0     C 4246   8.753   8.450   6.750  0.2291 -0.8349  0.2788
   32MOL0     C 4247   8.776   8.315   6.685 -0.1657 -0.5418 -0.0212
   32MOL0     C 4248   8.845   8.329   6.549  0.5760 -0.2511  0.2644
   32MOL0     C 4249   8.988   8.354   6.570 -0.2928 -0.0479  0.1186
   32MOL0     C 4250   9.112   8.349   6.570 -0.8277  0.8916 -0.0398
   32MOL0     C 4251   8.698   8.876   6.613  0.5179  0.3215 -0.6459
   32MOL0     C 4252   8.726   8.998   6.667  0.0092 -0.2961 -0.5668
   32MOL0     H 4253   8.662   9.232   7.198  3.6077 -1.0727  2.1708
   32MOL0     H 4254   8.630   9.465   7.305 -0.6754 -0.3341 -1.0008
   32MOL0     H 4255   8.835   9.829   7.327 -0.3275 -2.0048  0.7431
   32MOL0     H 4256   8.930   9.748   7.203 -0.4032 -1.6562 -1.3164
   32MOL0     H 4257   8.762   9.835   7.030  1.2080  0.8542 -1.8695
   32MOL0     H 4258   8.665   9.914   7.157 -1.0973 -1.3952 -3.1407
   32MOL0     H 4259   8.884  10.039   7.211 -0.2719  2.3299 -1.5454
   32MOL0     H 4260   8.950   9.976   7.070  1.1922  1.9968  0.0995
   32MOL0     H 4261   8.877  10.190   7.003 -2.0271  2.5219 -2.2077
   32MOL0     H 4262   8.760  10.078   6.926  2.6913  0.0397 -0.9335
   32MOL0     H 4263   8.608  10.139   7.160  0.2300  3.1892  1.4657
   32MOL0     H 4264   8.714  10.269   7.172  0.3570 -0.7512  3.0128
   32MOL0     H 4265   8.633  10.351   6.930 -0.9558 -1.3640 -1.2629
   32MOL0     H 4266   8.531  10.205   6.940  0.4077 -1.8375  1.1404
   32MOL0     H 4267   8.412  10.286   7.134  1.4214 -1.8681 -1.3319
   32MOL0     H 4268   8.536  10.403   7.186 -0.6494 -2.1376  1.6733
   32MOL0     H 4269   8.506  10.536   6.985  1.9929 -5.0402 -2.1132
   32MOL0     H 4270   8.377  10.550   7.108 -1.0863 -3.1895  2.2608
   32MOL0     H 4271   8.199  10.289   6.986  0.0397 -2.1287 -2.6196
   32MOL0     H 4272   8.037  10.289   6.676  3.1258 -0.7205  0.0523
   32MOL0     H 4273   7.977  10.323   6.840 -1.0519  0.5788 -0.5853
   32MOL0     H 4274   7.990  10.534   6.624 -0.7214 -1.7646 -1.7634
   32MOL0     H 4275   7.967  10.570   6.796  0.5923  0.4830 -0.1372
   32MOL0     H 4276   7.796  10.468   6.590  5.1036  4.1561 -1.7723
   32MOL0     H 4277   7.760  10.578   6.722  1.1762 -0.1600 -1.1954
   32MOL0     H 4278   7.734  10.402   6.884  5.8389 -1.4142  0.0304
   32MOL0     H 4279   7.782  10.280   6.770  2.0436  1.4758 -0.6267
   32MOL0     H 4280   7.532  10.528   6.881 -0.3019  0.7806  0.3392
   32MOL0     H 4281   7.412  10.603   7.120 -1.3844  1.1366  0.3356
   32MOL0     H 4282   7.252  10.602   7.065 -1.9110 -0.4258  2.7008
   32MOL0     H 4283   7.303  10.478   7.186  1.5542 -0.7783 -0.1133
   32MOL0     H 4284   6.870  10.510   6.917  0.5761  0.7533 -0.0551
   32MOL0     H 4285   6.629  10.522   6.967 -0.1266  2.3537  2.1706
   32MOL0     H 4286   6.486  10.300   7.354  2.7329  2.5441  1.4425
   32MOL0     H 4287   6.479  10.478   7.368 -0.2340  1.2751  0.0220
   32MOL0     H 4288   6.234  10.446   7.352  1.2650  0.3114  1.4029
   32MOL0     H 4289   6.282  10.467   7.192 -2.9000  3.5147  3.2408
   32MOL0     H 4290   6.336  10.215   7.166 -0.5329  0.1554  0.5352
   32MOL0     H 4291   6.166  10.250   7.197 -0.3716  1.8856  0.7528
   32MOL0     H 4292   6.366  10.130   7.381  0.7907  2.1623 -0.8832
   32MOL0     H 4293   6.200  10.178   7.422 -0.2062  0.0597  0.0742
   32MOL0     H 4294   6.263   9.976   7.204 -0.1216  1.8645 -1.9189
   32MOL0     H 4295   6.104  10.003   7.261 -0.4816  1.0858  1.4574
   32MOL0     H 4296   6.339   9.904   7.428  1.1512  4.6283 -4.6351
   32MOL0     H 4297   6.171   9.945   7.488 -0.5571  2.8124 -1.2050
   32MOL0     H 4298   6.238   9.750   7.250 -0.3511 -1.1528  0.1675
   32MOL0     H 4299   6.084   9.771   7.321 -0.5528  2.3643  2.6032
   32MOL0     H 4300   6.185   9.560   7.405  0.0383 -1.5617  1.5883
   32MOL0     H 4301   6.204   9.677   7.539  2.7771 -1.7729  0.6991
   32MOL0     H 4302   6.717  10.307   7.342  1.9669  0.0491 -0.1482
   32MOL0     H 4303   6.950  10.336   7.292  0.9355 -0.3785 -1.7517
   32MOL0     H 4304   7.212  10.138   6.859  0.9763 -0.4786 -0.2371
   32MOL0     H 4305   7.431  10.161   6.712 -0.4750 -0.4564 -0.0085
   32MOL0     H 4306   8.909   9.619   7.026 -0.2048 -0.6516 -2.9760
   32MOL0     H 4307   8.918   9.414   6.913 -0.4327 -0.4106 -0.0777
   32MOL0     H 4308   8.760   8.924   6.993  1.0285  1.3024 -0.9733
   32MOL0     H 4309   8.696   8.699   6.904  0.1037 -1.4924 -1.4356
   32MOL0     H 4310   8.554   8.522   6.802  0.4663 -3.1760  1.2921
   32MOL0     H 4311   8.553   8.450   6.655 -0.1076  1.2524  0.6214
   32MOL0     H 4312   8.753   8.440   6.859  3.5158 -0.7403  0.3854
   32MOL0     H 4313   8.833   8.512   6.710 -2.1282  2.0688 -0.2615
   32MOL0     H 4314   8.676   8.270   6.683  0.5301 -2.1553 -2.7707
   32MOL0     H 4315   8.834   8.249   6.750 -1.0916 -0.8991  0.4740
   32MOL0     H 4316   8.801   8.417   6.501  1.1545  0.2484  0.6352
   32MOL0     H 4317   8.824   8.246   6.480 -0.2651 -2.8066  3.3855
   32MOL0     H 4318   9.219   8.355   6.567 -0.8981  2.4349 -2.8038
   32MOL0     H 4319   8.682   8.856   6.508 -0.4575  2.9830 -1.0880
   32MOL0     H 4320   8.713   9.084   6.602  3.5840  2.2663  1.6840
   33MOL0     O 4321   7.858   6.666  10.354  0.1193 -0.0028 -0.3424
   33MOL0     C 4322   7.944   6.611  10.420  0.5099  0.3419 -0.1374
   33MOL0     O 4323   8.077   6.650  10.427  0.3464 -0.7556 -0.0447
   33MOL0     C 4324   8.132   6.736  10.333  0.0096  0.0086  0.7202
   33MOL0     C 4325   8.256   6.778  10.361  1.7958  0.3920  0.0735
   33MOL0     C 4326   8.322   6.862  10.266  0.1518  0.6283 -0.0079
   33MOL0     C 4327   8.259   6.905  10.148 -0.2845  0.5006 -1.2041
   33MOL0     O 4328   8.319   7.005  10.080 -1.2491  0.1704 -0.0503
   33MOL0     C 4329   8.262   7.142  10.079  0.1363 -0.1626  0.1086
   33MOL0     C 4330   8.333   7.220  10.180 -0.1743 -0.2228 -0.4213
   33MOL0     C 4331   8.233   7.259  10.296 -0.7473  0.5609 -0.4765
   33MOL0     C 4332   8.286   7.360  10.399 -0.2095  0.7047 -0.4430
   33MOL0     C 4333   8.428   7.333  10.435  1.1700  0.4764 -0.4615
   33MOL0     C 4334   8.441   7.187  10.501 -0.0601 -0.0074  0.6108
   33MOL0     C 4335   8.582   7.160  10.532 -0.6171  0.7197  0.6018
   33MOL0     C 4336   8.610   7.051  10.641 -1.3249 -0.4366  0.4288
   33MOL0     N 4337   8.634   6.913  10.599  0.8124 -0.1278 -0.3412
   33MOL0     C 4338   8.552   6.812  10.611  0.7463  0.0392 -0.1618
   33MOL0     C 4339   8.613   6.715  10.541  1.1092  0.9672 -0.5760
   33MOL0     C 4340   8.532   6.589  10.531  0.0122  0.6161  0.9518
   33MOL0     C 4341   8.559   6.518  10.392  0.8980  0.0785  0.2815
   33MOL0     C 4342   8.461   6.401  10.373  0.6469 -0.0926  0.6954
   33MOL0     C 4343   8.459   6.353  10.233 -0.2956  0.2745 -0.0205
   33MOL0     O 4344   8.357   6.402  10.154  0.3499  0.0764  0.2502
   33MOL0     C 4345   8.222   6.364  10.154 -0.0744 -0.8217 -0.1001
   33MOL0     C 4346   8.169   6.250  10.214  0.0249 -1.3492 -0.4585
   33MOL0     C 4347   8.036   6.217  10.196 -0.2576 -0.0938  0.6586
   33MOL0     C 4348   7.980   6.090  10.256 -0.3756 -0.6296 -0.5399
   33MOL0     C 4349   7.950   6.302  10.132 -0.0273 -0.1514 -0.9295
   33MOL0     C 4350   7.806   6.272  10.117 -0.1894  0.7243 -0.8228
   33MOL0     O 4351   7.705   6.305  10.206 -0.0610  0.0582  0.0671
   33MOL0     C 4352   7.570   6.269  10.188  1.4272 -0.5552  0.3231
   33MOL0     C 4353   7.497   6.251  10.071 -0.4111 -0.5871 -0.2865
   33MOL0     C 4354   7.358   6.214  10.069 -0.3297 -0.3223  0.4908
   33MOL0     C 4355   7.290   6.186  10.192  1.0672  1.0728  0.5272
   33MOL0     O 4356   7.163   6.127  10.192 -0.4053  0.4123  0.4233
   33MOL0     C 4357   7.063   6.225  10.244  1.2178  0.4049 -0.7390
   33MOL0     C 4358   6.929   6.150  10.225 -0.3578 -0.9730  0.3294
   33MOL0     C 4359   6.917   6.034  10.317 -0.3269  0.5506 -0.1555
   33MOL0     C 4360   6.859   6.074  10.454  0.5846  0.3096 -0.4968
   33MOL0     C 4361   6.793   5.950  10.512  0.4792  0.5598 -0.1556
   33MOL0     C 4362   6.806   5.955  10.658  0.0251  0.4216 -0.4180
   33MOL0     C 4363   6.772   5.818  10.699 -0.0786 -0.3265 -0.5256
   33MOL0     C 4364   6.805   5.793  10.854  0.4536  0.1175 -0.0127
   33MOL0    Cl 4365   6.983   5.820  10.878  0.9393  0.0166 -0.5176
   33MOL0     C 4366   7.363   6.215  10.308 -0.2324 -0.4276  0.3330
   33MOL0     C 4367   7.496   6.267  10.308  0.2961 -0.4279 -0.0516
   33MOL0     O 4368   7.791   6.203  10.015  0.3494 -0.1748  0.8126
   33MOL0     C 4369   8.000   6.411  10.060  0.2614 -0.2441  0.0642
   33MOL0     C 4370   8.139   6.441  10.071 -0.6455  0.4855  0.4571
   33MOL0     N 4371   8.735   6.752  10.494  0.1254  0.3170 -0.8653
   33MOL0     N 4372   8.746   6.868  10.537 -0.6093  0.4971 -1.4647
   33MOL0     C 4373   8.130   6.864  10.124 -0.2042  0.6440  0.5271
   33MOL0     C 4374   8.072   6.770  10.209  0.6945 -0.5142  0.1568
   33MOL0     C 4375   7.897   6.490  10.508  0.6001 -0.3731  0.2205
   33MOL0     C 4376   7.765   6.477  10.555  0.3676  0.3116 -0.0281
   33MOL0     C 4377   7.739   6.383  10.662  0.0876 -0.1127  0.7087
   33MOL0     C 4378   7.838   6.294  10.702 -0.5555 -0.0357 -0.2647
   33MOL0     O 4379   7.810   6.209  10.802  0.8854  0.5529  0.8143
   33MOL0     C 4380   7.751   6.083  10.753 -0.7383 -0.1200  0.5057
   33MOL0     C 4381   7.599   6.071  10.770 -0.0937 -1.0249  0.7516
   33MOL0     C 4382   7.559   5.926  10.735 -0.3101 -0.5838  0.4170
   33MOL0     C 4383   7.418   5.888  10.772  0.2187  0.6920 -0.3181
   33MOL0     C 4384   7.331   5.936  10.668 -0.4395 -0.3574  0.4535
   33MOL0     C 4385   7.237   5.973  10.597 -0.2035 -0.0321  0.6246
   33MOL0     C 4386   7.962   6.304  10.655 -0.2515 -0.1641  0.0580
   33MOL0     C 4387   8.000   6.406  10.565 -0.2731  0.0702  0.1429
   33MOL0     H 4388   8.298   6.756  10.458 -0.3648 -1.2281  0.7262
   33MOL0     H 4389   8.424   6.888  10.293  0.0978 -0.5809  1.4551
   33MOL0     H 4390   8.305   7.184   9.988  3.1564 -1.0293  1.0114
   33MOL0     H 4391   8.154   7.153  10.090 -0.2030 -1.2134 -1.7857
   33MOL0     H 4392   8.425   7.177  10.220 -0.1133  1.8125  1.8835
   33MOL0     H 4393   8.360   7.314  10.132  2.0813 -2.3412 -3.7082
   33MOL0     H 4394   8.137   7.301  10.264 -2.2384 -3.4542 -1.8982
   33MOL0     H 4395   8.192   7.162  10.325 -5.4005  0.8017 -4.8274
   33MOL0     H 4396   8.284   7.460  10.356  3.1998  0.4484 -1.4598
   33MOL0     H 4397   8.221   7.377  10.486 -1.3503  0.9093 -1.3146
   33MOL0     H 4398   8.484   7.343  10.342 -1.4069  4.6484 -1.8107
   33MOL0     H 4399   8.463   7.407  10.507  1.9597 -1.7284  1.5530
   33MOL0     H 4400   8.383   7.176  10.593  1.9191 -0.3427  1.8816
   33MOL0     H 4401   8.426   7.113  10.422  2.1021 -2.3514  2.2138
   33MOL0     H 4402   8.642   7.133  10.445 -0.4798  0.3757  0.8003
   33MOL0     H 4403   8.621   7.252  10.575 -0.6532  0.5600  0.9884
   33MOL0     H 4404   8.532   7.061  10.717 -1.4699 -0.7955  0.3284
   33MOL0     H 4405   8.697   7.091  10.694 -0.8208 -0.1844 -0.5550
   33MOL0     H 4406   8.454   6.803  10.657  1.0851  1.5224  0.9197
   33MOL0     H 4407   8.575   6.536  10.617  0.4924 -2.6607 -1.1406
   33MOL0     H 4408   8.425   6.603  10.547  0.4714  1.2552  4.3265
   33MOL0     H 4409   8.663   6.488  10.376  0.6583 -0.9676  0.6595
   33MOL0     H 4410   8.536   6.591  10.314  3.8089  0.1009 -0.6892
   33MOL0     H 4411   8.363   6.441  10.400  0.5707  0.8321 -0.8626
   33MOL0     H 4412   8.490   6.319  10.440 -1.5453  0.8473  2.9549
   33MOL0     H 4413   8.476   6.245  10.230 -2.0022  0.0026 -1.8927
   33MOL0     H 4414   8.551   6.393  10.188 -0.5344  0.5160 -0.2997
   33MOL0     H 4415   8.241   6.197  10.275  1.7964  0.7151 -0.6572
   33MOL0     H 4416   7.935   6.119  10.351  0.6665  0.4820 -0.3598
   33MOL0     H 4417   7.920   6.042  10.178  2.1265 -0.7361 -2.5383
   33MOL0     H 4418   8.061   6.018  10.273  0.5769 -0.0337 -2.2626
   33MOL0     H 4419   7.543   6.267   9.974  0.8644  1.5543  0.6128
   33MOL0     H 4420   7.307   6.196   9.976  0.5637 -0.5713  0.0375
   33MOL0     H 4421   7.083   6.248  10.349 -0.6874 -0.1611 -0.2142
   33MOL0     H 4422   7.068   6.313  10.179  1.0557  2.6021  2.0237
   33MOL0     H 4423   6.845   6.220  10.215 -0.5210 -1.3959 -1.9351
   33MOL0     H 4424   6.925   6.109  10.124 -2.8324  0.3011 -0.1777
   33MOL0     H 4425   7.012   5.988  10.347 -1.8489 -1.4162  2.0360
   33MOL0     H 4426   6.856   5.953  10.277 -0.7032  1.2276 -0.9674
   33MOL0     H 4427   6.946   6.112  10.510 -0.6914  0.3408  1.5965
   33MOL0     H 4428   6.782   6.151  10.448 -0.2392 -0.5276 -0.7686
   33MOL0     H 4429   6.853   5.862  10.486 -0.9974 -1.2865  2.2400
   33MOL0     H 4430   6.688   5.953  10.480  0.4329  1.2758  0.0560
   33MOL0     H 4431   6.907   5.990  10.681 -0.7395  3.0856 -0.8595
   33MOL0     H 4432   6.737   6.020  10.713 -1.8981 -1.6145 -0.2831
   33MOL0     H 4433   6.813   5.734  10.643  2.6871 -1.6125  3.0964
   33MOL0     H 4434   6.662   5.817  10.698 -0.2160  0.8302  2.3932
   33MOL0     H 4435   6.781   5.688  10.874 -3.3344  0.8522 -0.0115
   33MOL0     H 4436   6.749   5.860  10.920  2.6948  2.4861 -0.3431
   33MOL0     H 4437   7.315   6.198  10.404  3.0017 -1.5037  1.9032
   33MOL0     H 4438   7.544   6.280  10.404  0.6767  2.9038 -0.5894
   33MOL0     H 4439   7.941   6.474   9.994 -0.2692 -0.3060  0.4768
   33MOL0     H 4440   8.170   6.537  10.031 -0.6479  0.3648  0.1613
   33MOL0     H 4441   8.081   6.891  10.031  0.5835  0.7562  0.1306
   33MOL0     H 4442   7.976   6.725  10.184  0.4524 -1.1048  1.9977
   33MOL0     H 4443   7.691   6.544  10.513 -1.3026 -0.2875  1.8219
   33MOL0     H 4444   7.646   6.378  10.718 -0.7952 -0.3029 -0.7229
   33MOL0     H 4445   7.791   6.051  10.656  0.8286  0.1743  1.0282
   33MOL0     H 4446   7.812   6.014  10.813  2.0293  1.7406  0.0548
   33MOL0     H 4447   7.549   6.146  10.706  2.3594 -0.6322 -0.8577
   33MOL0     H 4448   7.573   6.100  10.872 -3.5715 -0.4068 -0.1736
   33MOL0     H 4449   7.628   5.857  10.784 -1.0239 -1.3679  0.3340
   33MOL0     H 4450   7.568   5.910  10.627 -0.1082  0.9951  0.1621
   33MOL0     H 4451   7.384   5.943  10.860 -0.8163 -0.7748  0.2459
   33MOL0     H 4452   7.405   5.779  10.779 -0.6898  0.5963 -2.5827
   33MOL0     H 4453   7.166   6.013  10.528  1.1101  1.4727  0.0773
   33MOL0     H 4454   8.028   6.220  10.676 -0.4091 -0.3662 -0.2461
   33MOL0     H 4455   8.105   6.421  10.543 -0.7487  3.4674 -0.2713
   34MOL0     O 4456   7.644   5.674   4.762  0.3271 -0.0735  0.5567
   34MOL0     C 4457   7.559   5.665   4.668  0.8984 -0.2572 -0.1568
   34MOL0     O 4458   7.581   5.604   4.551  0.5668 -0.0317 -0.0765
   34MOL0     C 4459   7.694   5.534   4.548 -0.6433 -0.7890 -0.6468
   34MOL0     C 4460   7.701   5.394   4.579  0.6116  0.2713  0.7994
   34MOL0     C 4461   7.823   5.330   4.577 -0.3688 -0.0867 -0.0135
   34MOL0     C 4462   7.939   5.404   4.563  0.3050  0.9820 -0.5352
   34MOL0     O 4463   8.061   5.345   4.576  0.3021 -0.3902  0.2794
   34MOL0     C 4464   8.083   5.244   4.481  0.1347  0.3286  0.0269
   34MOL0     C 4465   8.192   5.154   4.529  0.3095 -0.2715  0.4512
   34MOL0     C 4466   8.227   5.039   4.430  0.2451  0.0882  0.5788
   34MOL0     C 4467   8.285   4.923   4.504 -0.7544 -0.3022  0.0267
   34MOL0     C 4468   8.167   4.839   4.566  0.2233 -0.3207 -1.2421
   34MOL0     C 4469   8.219   4.718   4.653  0.0503 -0.3547 -0.4156
   34MOL0     C 4470   8.325   4.756   4.746 -0.1762 -0.5761 -0.2083
   34MOL0     C 4471   8.340   4.653   4.856 -1.2040  0.1959 -0.5756
   34MOL0     N 4472   8.465   4.665   4.936  1.0753 -0.0455  0.0153
   34MOL0     C 4473   8.486   4.786   4.989  0.4539  0.1798 -0.4435
   34MOL0     C 4474   8.626   4.808   4.995  0.2165 -0.2979 -0.3020
   34MOL0     C 4475   8.700   4.935   5.051  0.1336  0.2916  0.3363
   34MOL0     C 4476   8.670   5.060   4.957  0.0219  0.5034 -0.7754
   34MOL0     C 4477   8.754   5.070   4.833 -0.3483 -0.8011  0.0081
   34MOL0     C 4478   8.896   5.119   4.882 -0.5313 -0.4960 -0.1294
   34MOL0     O 4479   8.962   5.176   4.768 -0.5305 -0.6878 -0.6943
   34MOL0     C 4480   9.086   5.234   4.783 -0.4298  0.1534 -0.5464
   34MOL0     C 4481   9.168   5.225   4.895  0.0702 -0.5353 -0.2662
   34MOL0     C 4482   9.289   5.290   4.900 -0.0457 -0.3139 -0.4107
   34MOL0     C 4483   9.352   5.299   5.036 -0.4427 -0.3643  0.6559
   34MOL0     C 4484   9.333   5.367   4.787  0.1434  0.5079  0.3605
   34MOL0     C 4485   9.448   5.452   4.792  0.1707  0.0917 -0.6548
   34MOL0     O 4486   9.557   5.406   4.865  0.6458 -0.0782  0.1120
   34MOL0     C 4487   9.677   5.462   4.852 -0.3268 -0.0366 -0.7099
   34MOL0     C 4488   9.724   5.533   4.959 -0.3403 -0.1449  0.9688
   34MOL0     C 4489   9.845   5.602   4.958  1.2507  0.2310  0.3217
   34MOL0     C 4490   9.934   5.579   4.849  0.3117 -0.1264 -0.0326
   34MOL0     O 4491  10.061   5.629   4.843  0.4884 -0.3691 -0.9411
   34MOL0     C 4492  10.111   5.710   4.949  0.3171  0.3005 -0.0188
   34MOL0     C 4493  10.230   5.792   4.896 -0.2314 -1.0680 -0.8327
   34MOL0     C 4494  10.228   5.852   4.757  0.6126 -0.3831  0.1519
   34MOL0     C 4495  10.363   5.916   4.711 -0.4386  0.7109 -0.4243
   34MOL0     C 4496  10.392   6.059   4.773 -0.4211  1.3354 -1.1543
   34MOL0     C 4497  10.284   6.165   4.734 -0.7518  0.9015 -0.7505
   34MOL0     C 4498  10.339   6.299   4.717 -0.3783  0.0312  0.9693
   34MOL0     C 4499  10.222   6.387   4.655  1.2942 -0.2217 -0.2913
   34MOL0    Cl 4500  10.274   6.570   4.619 -0.3105  0.2189 -0.1538
   34MOL0     C 4501   9.881   5.506   4.740 -0.9401  0.0347 -0.0171
   34MOL0     C 4502   9.756   5.448   4.739  0.2758  0.0779  0.2453
   34MOL0     O 4503   9.452   5.557   4.732 -0.1435  0.4791  0.2051
   34MOL0     C 4504   9.254   5.372   4.663 -0.7426  0.3548 -0.0489
   34MOL0     C 4505   9.134   5.307   4.669  0.5601 -0.1403 -0.2561
   34MOL0     N 4506   8.669   4.695   4.928  0.3076  1.0944 -0.0691
   34MOL0     N 4507   8.577   4.609   4.898 -0.2725  0.2068  0.0259
   34MOL0     C 4508   7.935   5.539   4.533 -0.0158 -0.2481  1.3300
   34MOL0     C 4509   7.813   5.613   4.530 -0.0855  0.7032  0.2665
   34MOL0     C 4510   7.437   5.737   4.674 -0.5438  0.0296  0.5013
   34MOL0     C 4511   7.334   5.735   4.570 -0.5918 -0.3893 -0.2662
   34MOL0     C 4512   7.211   5.807   4.581 -0.6510 -0.3284 -0.3273
   34MOL0     C 4513   7.188   5.892   4.695  0.7392  0.7683  0.2330
   34MOL0     O 4514   7.084   5.976   4.703 -0.2096  0.3030  0.4475
   34MOL0     C 4515   7.060   6.064   4.820  0.9386  0.7273 -0.5661
   34MOL0     C 4516   7.016   5.978   4.942  0.2095  0.0304 -0.0961
   34MOL0     C 4517   6.866   5.980   4.951 -0.6734  0.1419  0.7792
   34MOL0     C 4518   6.823   5.940   5.093  0.5455 -0.8264  0.2214
   34MOL0     C 4519   6.891   5.815   5.144 -0.1035 -0.0356 -0.6110
   34MOL0     C 4520   6.922   5.707   5.193  0.0326  0.4576 -0.2836
   34MOL0     C 4521   7.285   5.883   4.800  0.3215 -1.5615  0.4188
   34MOL0     C 4522   7.401   5.801   4.793 -0.1627  0.4188  0.3502
   34MOL0     H 4523   7.608   5.338   4.583  0.9396 -1.0468 -3.9008
   34MOL0     H 4524   7.814   5.222   4.586 -1.1310 -0.2601 -2.2964
   34MOL0     H 4525   7.989   5.192   4.462 -2.5989  3.4738  3.5949
   34MOL0     H 4526   8.128   5.292   4.393 -1.1812  1.1023 -0.2426
   34MOL0     H 4527   8.281   5.214   4.553 -1.4146  2.3222  0.7424
   34MOL0     H 4528   8.158   5.107   4.622  0.8285 -1.4184  0.0828
   34MOL0     H 4529   8.141   5.010   4.369  0.7218 -1.1417  0.4558
   34MOL0     H 4530   8.301   5.069   4.356 -0.1419 -0.6651 -0.1248
   34MOL0     H 4531   8.338   4.848   4.446 -0.5917 -0.0319 -0.1744
   34MOL0     H 4532   8.340   4.953   4.594 -2.6534  1.2269  0.7439
   34MOL0     H 4533   8.100   4.901   4.626  0.4380 -2.5091  1.4631
   34MOL0     H 4534   8.116   4.793   4.481 -2.1613 -1.4369  0.6567
   34MOL0     H 4535   8.142   4.674   4.717 -1.4621  1.8010 -0.6628
   34MOL0     H 4536   8.248   4.643   4.579 -2.3156 -3.4432  1.5272
   34MOL0     H 4537   8.417   4.758   4.686 -1.1156 -2.2745 -1.7902
   34MOL0     H 4538   8.296   4.855   4.782  0.6494  0.1481 -1.4673
   34MOL0     H 4539   8.329   4.551   4.817  1.1047 -0.6712  0.8002
   34MOL0     H 4540   8.256   4.661   4.925 -0.2353 -0.6232  0.7623
   34MOL0     H 4541   8.404   4.857   4.999 -1.5905 -1.8358 -2.0305
   34MOL0     H 4542   8.665   4.945   5.154  0.4158  1.6040  0.3154
   34MOL0     H 4543   8.806   4.910   5.061 -0.2145 -0.2808  4.1694
   34MOL0     H 4544   8.687   5.149   5.019 -3.0484  0.6177  0.0875
   34MOL0     H 4545   8.564   5.077   4.937 -0.6635  0.8289  2.5060
   34MOL0     H 4546   8.708   5.144   4.767 -0.3770 -1.9371 -1.2977
   34MOL0     H 4547   8.742   4.971   4.787  0.9147 -0.6266 -0.7440
   34MOL0     H 4548   8.953   5.038   4.929 -0.7071 -1.0189 -0.8003
   34MOL0     H 4549   8.886   5.196   4.960 -1.1993 -0.1708 -0.5333
   34MOL0     H 4550   9.142   5.172   4.986  1.5413  0.6232  0.8669
   34MOL0     H 4551   9.383   5.396   5.077  1.1337 -1.7348  2.9638
   34MOL0     H 4552   9.288   5.254   5.112 -0.8537 -1.4967 -0.3354
   34MOL0     H 4553   9.436   5.229   5.032  0.1325  0.1002  2.8316
   34MOL0     H 4554   9.651   5.545   5.038 -2.3566  1.8289 -1.0516
   34MOL0     H 4555   9.849   5.680   5.033 -1.5495  4.3902 -3.3496
   34MOL0     H 4556  10.038   5.781   4.988 -0.4601 -0.3039 -0.3356
   34MOL0     H 4557  10.162   5.659   5.030  2.3674  1.9409 -0.2027
   34MOL0     H 4558  10.261   5.865   4.971 -1.6511 -0.5471 -0.7214
   34MOL0     H 4559  10.309   5.717   4.900  0.8551  0.0717 -0.3896
   34MOL0     H 4560  10.143   5.918   4.737 -0.0248 -0.6193  1.8940
   34MOL0     H 4561  10.215   5.763   4.694 -1.8971  0.9094 -1.3426
   34MOL0     H 4562  10.443   5.852   4.750  0.1418  0.6794 -1.6208
   34MOL0     H 4563  10.386   5.901   4.605 -2.3357  2.4032 -1.1438
   34MOL0     H 4564  10.494   6.089   4.748  0.6316 -1.3980 -0.4294
   34MOL0     H 4565  10.386   6.053   4.882 -2.3786 -2.6273 -1.2876
   34MOL0     H 4566  10.233   6.127   4.645  1.5479  2.9630 -3.1555
   34MOL0     H 4567  10.210   6.170   4.814 -0.2009  2.3555 -0.2850
   34MOL0     H 4568  10.419   6.276   4.646 -1.9022 -1.9067 -0.2229
   34MOL0     H 4569  10.370   6.331   4.817  2.3620 -0.5138  0.3760
   34MOL0     H 4570  10.127   6.393   4.708  1.1938  0.6931 -0.5593
   34MOL0     H 4571  10.189   6.342   4.560 -0.2472 -3.1878  1.4984
   34MOL0     H 4572   9.949   5.482   4.659 -0.1376 -1.0734  0.9513
   34MOL0     H 4573   9.719   5.394   4.653 -1.0312 -1.5193  1.7353
   34MOL0     H 4574   9.292   5.422   4.574 -2.1704 -2.2180 -2.2908
   34MOL0     H 4575   9.075   5.310   4.578 -2.5577  2.7860  1.6180
   34MOL0     H 4576   8.026   5.597   4.534 -1.9538  3.0639  1.3171
   34MOL0     H 4577   7.804   5.720   4.514  0.5831  0.9447  1.4150
   34MOL0     H 4578   7.353   5.688   4.474  2.0712  1.5264 -0.8119
   34MOL0     H 4579   7.139   5.804   4.500 -2.2622  0.2529  1.0339
   34MOL0     H 4580   7.152   6.121   4.840  2.8665 -0.8229 -4.0733
   34MOL0     H 4581   6.990   6.143   4.793  3.1807  2.0340 -3.1251
   34MOL0     H 4582   7.046   6.018   5.039 -2.8237  2.5679 -0.0370
   34MOL0     H 4583   7.059   5.878   4.931  2.1367  0.5619  1.9732
   34MOL0     H 4584   6.826   5.915   4.873  1.5202  2.3076 -2.3517
   34MOL0     H 4585   6.826   6.080   4.933  1.9999  1.9010  3.5768
   34MOL0     H 4586   6.715   5.923   5.087  0.3650  0.1876  0.3550
   34MOL0     H 4587   6.839   6.028   5.157 -0.7554 -0.3401 -0.0911
   34MOL0     H 4588   6.923   5.602   5.215  1.5003 -0.0061 -2.2365
   34MOL0     H 4589   7.295   5.940   4.892  4.7783 -1.0959 -0.1478
   34MOL0     H 4590   7.478   5.802   4.868  1.3523 -0.5101 -1.1257
   35MOL0     O 4591   1.451   6.027   6.954  0.6869 -0.0562 -0.1023
   35MOL0     C 4592   1.446   6.093   6.843  0.7737 -0.4327 -0.0441
   35MOL0     O 4593   1.517   6.207   6.815 -0.1279  0.8854  0.1130
   35MOL0     C 4594   1.608   6.256   6.906 -0.1900  0.4678 -0.2613
   35MOL0     C 4595   1.568   6.292   7.029  0.5678  0.7203 -0.4156
   35MOL0     C 4596   1.660   6.337   7.119 -0.5640  0.9112 -0.8369
   35MOL0     C 4597   1.787   6.373   7.078  0.0895  0.1724 -0.4373
   35MOL0     O 4598   1.887   6.429   7.165 -0.3038 -0.5029 -0.3710
   35MOL0     C 4599   1.833   6.535   7.237 -0.4728 -0.3528  1.0017
   35MOL0     C 4600   1.938   6.637   7.253  0.5238 -0.3115 -0.3573
   35MOL0     C 4601   1.884   6.774   7.243  0.1315 -0.8000  0.4731
   35MOL0     C 4602   2.004   6.872   7.247 -0.6651 -0.1036  0.3717
   35MOL0     C 4603   2.069   6.902   7.113 -0.0472 -0.6978 -0.9635
   35MOL0     C 4604   2.185   6.994   7.120 -0.4209 -0.5426  0.1811
   35MOL0     C 4605   2.272   6.979   6.997 -0.0311  0.1405 -0.3787
   35MOL0     C 4606   2.252   7.071   6.875 -0.9159  0.2665 -0.3851
   35MOL0     N 4607   2.223   7.214   6.915 -0.6609 -0.0585  0.0390
   35MOL0     C 4608   2.311   7.311   6.910  0.3952 -0.6490 -0.0233
   35MOL0     C 4609   2.240   7.425   6.904  0.4385 -1.0424 -0.2988
   35MOL0     C 4610   2.294   7.565   6.888 -0.2113 -0.1450 -1.2107
   35MOL0     C 4611   2.416   7.575   6.972 -0.6663 -1.3691  0.4948
   35MOL0     C 4612   2.472   7.722   6.962  0.3593  0.3658  0.0917
   35MOL0     C 4613   2.507   7.756   6.816 -0.8823 -0.0258  0.8542
   35MOL0     O 4614   2.620   7.842   6.814  0.1430 -0.6701 -0.0901
   35MOL0     C 4615   2.733   7.830   6.748  0.0384 -0.6717 -0.5077
   35MOL0     C 4616   2.777   7.722   6.680  0.0194  0.4637 -0.2812
   35MOL0     C 4617   2.902   7.713   6.620  0.4735 -0.4850 -0.1653
   35MOL0     C 4618   2.942   7.583   6.540  0.1751 -0.3603 -0.2479
   35MOL0     C 4619   2.992   7.825   6.626 -0.4923 -0.5252 -0.0109
   35MOL0     C 4620   3.129   7.847   6.561  0.2680  0.4381 -0.5936
   35MOL0     O 4621   3.162   7.767   6.455  0.4109  0.2490  0.2725
   35MOL0     C 4622   3.279   7.781   6.389  0.4352 -0.2339  1.0804
   35MOL0     C 4623   3.360   7.675   6.356  0.6739 -1.4358 -0.9462
   35MOL0     C 4624   3.487   7.700   6.305 -0.1387 -0.0529  0.4253
   35MOL0     C 4625   3.533   7.837   6.278  0.3960 -0.7024  0.2630
   35MOL0     O 4626   3.663   7.866   6.241 -0.2051  0.1737 -0.2008
   35MOL0     C 4627   3.710   7.782   6.132 -0.6578  0.4438  0.8625
   35MOL0     C 4628   3.859   7.786   6.099 -0.0748  1.0147 -0.0700
   35MOL0     C 4629   3.950   7.763   6.219 -0.2199 -0.7494  0.0678
   35MOL0     C 4630   4.089   7.709   6.170 -0.7734 -0.0566 -0.8837
   35MOL0     C 4631   4.201   7.733   6.283  0.1807 -0.5539  0.0604
   35MOL0     C 4632   4.339   7.715   6.225  0.0681 -0.2800  0.8081
   35MOL0     C 4633   4.454   7.705   6.334  0.9700 -0.1637  0.2175
   35MOL0     C 4634   4.593   7.741   6.283 -0.7122 -0.1778  1.3970
   35MOL0    Cl 4635   4.620   7.678   6.113 -0.4377 -0.0799 -0.2311
   35MOL0     C 4636   3.448   7.941   6.295 -0.1489  0.4764 -0.3953
   35MOL0     C 4637   3.315   7.918   6.340 -1.1401  1.2932 -0.8631
   35MOL0     O 4638   3.192   7.940   6.604 -0.1579 -1.3421 -0.0113
   35MOL0     C 4639   2.937   7.945   6.688  0.0497  0.5771  0.0097
   35MOL0     C 4640   2.814   7.949   6.742 -0.8288  0.8262  0.4296
   35MOL0     N 4641   2.110   7.396   6.905 -0.3729  0.5872  0.3773
   35MOL0     N 4642   2.100   7.264   6.919  0.4859  0.4269 -1.2425
   35MOL0     C 4643   1.828   6.340   6.948  0.8812 -0.6052 -0.1782
   35MOL0     C 4644   1.732   6.284   6.861 -0.9284  0.1925  0.5258
   35MOL0     C 4645   1.339   6.063   6.736  0.5388  0.5256  0.6310
   35MOL0     C 4646   1.352   6.103   6.604 -0.0550  1.0019 -0.6974
   35MOL0     C 4647   1.252   6.077   6.511  0.4682  0.7753 -0.0071
   35MOL0     C 4648   1.150   5.985   6.541 -1.1726 -1.1511  0.6727
   35MOL0     O 4649   1.059   5.925   6.450 -0.2289 -0.3365  0.6823
   35MOL0     C 4650   1.076   5.971   6.310 -0.7331 -0.4637 -1.0377
   35MOL0     C 4651   1.010   6.107   6.291 -0.1164  0.6603  0.0584
   35MOL0     C 4652   0.865   6.108   6.348  0.1700 -0.4825 -0.5690
   35MOL0     C 4653   0.798   6.252   6.328 -0.0185 -0.2844 -0.4935
   35MOL0     C 4654   0.865   6.342   6.416 -0.2484  1.0150  0.7784
   35MOL0     C 4655   0.922   6.411   6.485 -0.8933  0.4102 -0.7076
   35MOL0     C 4656   1.132   5.939   6.667 -0.0241  0.5186  0.3101
   35MOL0     C 4657   1.226   5.984   6.765  0.3299  0.3911 -1.4260
   35MOL0     H 4658   1.468   6.262   7.057  0.1452 -0.1739 -2.6817
   35MOL0     H 4659   1.629   6.346   7.223 -0.1218 -0.9568 -0.5094
   35MOL0     H 4660   1.747   6.584   7.191  0.5016 -0.5098 -1.0822
   35MOL0     H 4661   1.794   6.497   7.332  1.3048  2.1009  2.8351
   35MOL0     H 4662   1.986   6.623   7.350 -0.5946  2.6342  0.7293
   35MOL0     H 4663   2.024   6.633   7.185 -0.5907 -0.0235 -1.8252
   35MOL0     H 4664   1.841   6.783   7.143  0.8687 -0.0676  0.2133
   35MOL0     H 4665   1.809   6.811   7.313  0.9802  2.2942 -0.1011
   35MOL0     H 4666   1.981   6.967   7.297  3.0163  1.4992 -0.5872
   35MOL0     H 4667   2.083   6.833   7.311 -0.6363 -1.6079 -0.5331
   35MOL0     H 4668   2.101   6.807   7.070  0.8191 -1.8098  1.9455
   35MOL0     H 4669   2.001   6.947   7.039  1.4401  2.2735 -0.6875
   35MOL0     H 4670   2.146   7.096   7.131  0.3485 -0.1436 -0.6886
   35MOL0     H 4671   2.250   6.972   7.205  0.7996  5.0315  1.0919
   35MOL0     H 4672   2.376   6.991   7.027 -0.1788  0.3793  0.0312
   35MOL0     H 4673   2.267   6.879   6.952  3.0456  0.1396 -0.9446
   35MOL0     H 4674   2.172   7.028   6.815 -0.9918  0.1825 -0.2229
   35MOL0     H 4675   2.348   7.074   6.821 -0.5919  0.3411  0.1949
   35MOL0     H 4676   2.419   7.320   6.898  0.1903  0.5303 -1.0796
   35MOL0     H 4677   2.299   7.583   6.781 -2.6833 -1.1964 -1.5608
   35MOL0     H 4678   2.215   7.635   6.918 -0.6284  0.2370 -3.1001
   35MOL0     H 4679   2.484   7.499   6.931 -2.7207 -2.8010 -0.4559
   35MOL0     H 4680   2.395   7.549   7.077  0.9325 -3.6880  0.3279
   35MOL0     H 4681   2.574   7.713   7.001  0.9075 -0.5241 -1.4440
   35MOL0     H 4682   2.399   7.795   6.999  0.2224  1.2525 -1.8269
   35MOL0     H 4683   2.426   7.814   6.770 -0.3865 -0.9030 -1.2283
   35MOL0     H 4684   2.521   7.663   6.761 -1.1688  1.0163 -1.0979
   35MOL0     H 4685   2.722   7.628   6.668  0.4823  0.2749 -1.0229
   35MOL0     H 4686   2.861   7.510   6.551  1.0386 -1.3418 -0.2034
   35MOL0     H 4687   2.973   7.596   6.436 -0.3829 -0.0241 -0.3742
   35MOL0     H 4688   3.030   7.540   6.589 -0.0738 -0.0614  0.4801
   35MOL0     H 4689   3.328   7.586   6.409 -1.5911  0.8037  1.7302
   35MOL0     H 4690   3.565   7.626   6.297  0.3691  0.5942 -0.9917
   35MOL0     H 4691   3.684   7.679   6.157 -0.9670  1.1199  3.6977
   35MOL0     H 4692   3.655   7.809   6.041  0.6417 -0.3401 -0.1863
   35MOL0     H 4693   3.892   7.718   6.019  0.3678 -0.0714  1.0112
   35MOL0     H 4694   3.871   7.888   6.061  2.6553 -0.0084 -2.3595
   35MOL0     H 4695   3.917   7.689   6.292  1.6144 -0.5424  1.1768
   35MOL0     H 4696   3.946   7.856   6.276 -0.5792 -1.2860  0.9578
   35MOL0     H 4697   4.075   7.602   6.157 -1.6419 -0.4099  2.1781
   35MOL0     H 4698   4.120   7.751   6.073 -1.4322  0.9630 -0.6714
   35MOL0     H 4699   4.198   7.662   6.366 -0.2315 -0.2837  0.2802
   35MOL0     H 4700   4.184   7.830   6.331  0.1482  0.1780 -1.3735
   35MOL0     H 4701   4.340   7.626   6.163  1.7637  1.0436 -1.2144
   35MOL0     H 4702   4.347   7.805   6.163 -0.5163 -0.5020  0.4054
   35MOL0     H 4703   4.446   7.612   6.391  0.6090  0.8696  1.9073
   35MOL0     H 4704   4.428   7.768   6.419  0.2015 -0.5060  0.2471
   35MOL0     H 4705   4.665   7.705   6.357  0.4409  0.6709  0.7053
   35MOL0     H 4706   4.602   7.850   6.285  1.8246 -0.3246  1.5559
   35MOL0     H 4707   3.472   8.039   6.255 -3.2153  1.1811 -0.8014
   35MOL0     H 4708   3.244   8.000   6.348  0.4807  2.8076 -1.4673
   35MOL0     H 4709   2.993   8.038   6.692 -1.2113  1.3341  0.7038
   35MOL0     H 4710   2.790   8.042   6.792  0.7432  0.7768  1.3311
   35MOL0     H 4711   1.931   6.365   6.925  1.6489 -1.0580  2.4221
   35MOL0     H 4712   1.757   6.273   6.756  1.8419  1.4981  0.9683
   35MOL0     H 4713   1.428   6.163   6.555 -1.4379 -0.2632 -4.8574
   35MOL0     H 4714   1.261   6.116   6.410  0.7350 -1.5367 -0.9282
   35MOL0     H 4715   1.177   5.993   6.275 -0.0819  0.9040  1.4455
   35MOL0     H 4716   1.044   5.885   6.251 -0.8433 -0.1839 -1.3945
   35MOL0     H 4717   1.010   6.136   6.185  1.0920 -0.1384 -0.1779
   35MOL0     H 4718   1.067   6.175   6.354  2.9872 -2.5202  0.9803
   35MOL0     H 4719   0.860   6.078   6.453 -1.7153 -0.0192 -0.4821
   35MOL0     H 4720   0.805   6.039   6.288  0.8313 -3.0285  1.5064
   35MOL0     H 4721   0.695   6.259   6.364  0.3055  0.3011  0.3378
   35MOL0     H 4722   0.799   6.276   6.222 -0.3714 -1.0180 -0.6756
   35MOL0     H 4723   0.966   6.469   6.564 -3.0339  0.5704  0.4416
   35MOL0     H 4724   1.043   5.878   6.675 -2.8975  3.8211 -3.0560
   35MOL0     H 4725   1.202   5.966   6.869 -1.8132  1.5159 -1.6736
   36MOL0     O 4726   2.982   6.567   6.166 -0.8938 -1.4040 -0.0264
   36MOL0     C 4727   3.098   6.523   6.153  0.0231 -0.1112 -0.0764
   36MOL0     O 4728   3.127   6.391   6.148 -0.5873 -0.2541 -0.7864
   36MOL0     C 4729   3.035   6.303   6.101 -0.1934 -0.3213 -0.0285
   36MOL0     C 4730   3.029   6.176   6.160 -0.1709 -1.7965 -0.6244
   36MOL0     C 4731   2.941   6.076   6.121  0.2031  0.0232  0.9872
   36MOL0     C 4732   2.858   6.097   6.011 -1.0482 -0.7068 -0.3147
   36MOL0     O 4733   2.760   6.003   5.974  0.0932 -0.2981  0.4427
   36MOL0     C 4734   2.700   5.919   6.073  0.5081  0.0574  0.6380
   36MOL0     C 4735   2.551   5.911   6.055 -0.4875  0.0905 -0.2215
   36MOL0     C 4736   2.512   5.797   5.956  0.4099  0.8076 -0.9415
   36MOL0     C 4737   2.368   5.812   5.915  0.9281 -0.4334  0.1580
   36MOL0     C 4738   2.329   5.732   5.799 -0.8352  0.7721 -0.2118
   36MOL0     C 4739   2.329   5.576   5.840 -1.0280 -0.3419 -0.5371
   36MOL0     C 4740   2.332   5.488   5.714 -0.2356 -0.5991  0.1396
   36MOL0     C 4741   2.323   5.342   5.753 -0.2361 -0.6531 -0.3193
   36MOL0     N 4742   2.188   5.287   5.767 -0.0671 -0.2408  0.2901
   36MOL0     C 4743   2.089   5.284   5.671  0.1014 -0.1605 -0.6258
   36MOL0     C 4744   1.977   5.244   5.735 -0.7439  0.2619 -0.0907
   36MOL0     C 4745   1.833   5.217   5.674 -0.3353 -0.5302 -0.9203
   36MOL0     C 4746   1.771   5.357   5.651 -0.6669 -0.2108  0.1273
   36MOL0     C 4747   1.623   5.360   5.623  0.7049 -0.1608 -0.0350
   36MOL0     C 4748   1.548   5.379   5.753  0.2395 -0.3404  0.0263
   36MOL0     O 4749   1.409   5.362   5.731  0.6128  0.0133  0.4428
   36MOL0     C 4750   1.324   5.403   5.831 -0.3038  0.6374  0.7063
   36MOL0     C 4751   1.196   5.435   5.785 -0.8967  0.2786 -0.2779
   36MOL0     C 4752   1.099   5.488   5.870  0.7497  0.1858 -0.3977
   36MOL0     C 4753   0.963   5.499   5.807  0.3259 -0.8640 -0.4853
   36MOL0     C 4754   1.131   5.493   6.014 -0.5534 -0.3431  0.6543
   36MOL0     C 4755   1.037   5.535   6.126  0.9285 -0.3458  0.1632
   36MOL0     O 4756   1.102   5.537   6.241  0.7513  0.5507 -0.0951
   36MOL0     C 4757   1.040   5.560   6.363  0.4897 -0.6299  0.2053
   36MOL0     C 4758   0.934   5.656   6.384  0.0149  0.0032  0.2344
   36MOL0     C 4759   0.887   5.685   6.514 -0.9282  0.6186  0.6311
   36MOL0     C 4760   0.950   5.630   6.629  0.3428 -0.0033  0.3858
   36MOL0     O 4761   0.907   5.678   6.750  0.4887  0.1924  0.6573
   36MOL0     C 4762   0.925   5.599   6.864  0.1013  0.5271  0.3571
   36MOL0     C 4763   0.880   5.679   6.980 -0.0919  0.4237  0.4332
   36MOL0     C 4764   0.868   5.819   6.966  1.7375 -0.0779  0.2698
   36MOL0     C 4765   0.859   5.892   7.102  0.1178  0.4826 -1.1043
   36MOL0     C 4766   0.836   6.051   7.070 -0.3295  0.5017  0.4881
   36MOL0     C 4767   0.954   6.143   7.023  1.0203  0.5092 -0.3625
   36MOL0     C 4768   0.898   6.276   6.956 -0.6318  0.0063 -0.4684
   36MOL0     C 4769   0.986   6.316   6.830 -0.4136 -0.0109  0.6267
   36MOL0    Cl 4770   1.145   6.353   6.884 -0.2895 -0.3986 -0.1097
   36MOL0     C 4771   1.047   5.535   6.613 -0.1468  1.3941  0.4199
   36MOL0     C 4772   1.089   5.494   6.484  0.9172 -0.2838  0.2984
   36MOL0     O 4773   0.921   5.575   6.109 -0.0811 -0.0258 -0.2773
   36MOL0     C 4774   1.263   5.453   6.050  0.2141  0.7990 -0.6119
   36MOL0     C 4775   1.356   5.405   5.962 -0.4145  0.5143 -0.6143
   36MOL0     N 4776   2.003   5.233   5.867 -0.8386 -0.9008  0.0543
   36MOL0     N 4777   2.134   5.247   5.881  0.7758  0.5617 -0.9239
   36MOL0     C 4778   2.867   6.217   5.946 -0.1415 -0.8579  0.6163
   36MOL0     C 4779   2.954   6.320   5.989 -0.6396  1.0452 -0.0333
   36MOL0     C 4780   3.209   6.619   6.145 -1.1272 -0.1112  0.9195
   36MOL0     C 4781   3.197   6.745   6.204 -0.2649  0.5868  1.0206
   36MOL0     C 4782   3.297   6.840   6.195 -0.7864  0.3621 -0.1049
   36MOL0     C 4783   3.423   6.810   6.149 -0.5062  0.6555  0.2378
   36MOL0     O 4784   3.520   6.908   6.133 -0.0250  0.0206  0.1080
   36MOL0     C 4785   3.660   6.886   6.113  0.9156  0.5803  0.6718
   36MOL0     C 4786   3.750   6.967   6.205 -0.3481  0.5822  0.5383
   36MOL0     C 4787   3.890   6.899   6.197 -0.4864  0.1276  0.0001
   36MOL0     C 4788   3.962   6.928   6.335  0.1261 -0.6765  1.2022
   36MOL0     C 4789   3.944   6.806   6.422 -1.0848  0.2869  0.5861
   36MOL0     C 4790   3.930   6.699   6.472 -0.4536  0.2115 -0.2631
   36MOL0     C 4791   3.444   6.680   6.095  0.4700  0.6682 -0.8554
   36MOL0     C 4792   3.333   6.588   6.084  0.5652  0.2784 -0.5731
   36MOL0     H 4793   3.096   6.158   6.244 -2.2611 -2.2098  1.0317
   36MOL0     H 4794   2.937   5.995   6.193  1.0422 -0.4254  0.5360
   36MOL0     H 4795   2.750   5.822   6.067  0.4712 -0.0992  2.3276
   36MOL0     H 4796   2.714   5.956   6.175  3.1832  1.1973 -0.0726
   36MOL0     H 4797   2.517   5.875   6.153 -0.2349  0.1138 -0.1232
   36MOL0     H 4798   2.505   6.009   6.048  1.0619  1.2713  3.5485
   36MOL0     H 4799   2.581   5.787   5.872 -2.0941  0.2241 -3.0269
   36MOL0     H 4800   2.518   5.699   6.006  1.7979  0.7643 -1.1410
   36MOL0     H 4801   2.304   5.789   6.000  0.4112  2.0136  0.4872
   36MOL0     H 4802   2.353   5.918   5.892 -0.2884 -0.8205 -0.9472
   36MOL0     H 4803   2.225   5.757   5.776 -1.1910  0.2304  0.7637
   36MOL0     H 4804   2.382   5.757   5.706 -0.5168 -0.2307 -0.3105
   36MOL0     H 4805   2.414   5.548   5.903 -1.5869 -0.0729  0.3558
   36MOL0     H 4806   2.238   5.557   5.897 -0.8946 -0.5121 -0.3787
   36MOL0     H 4807   2.255   5.520   5.644  0.2268  1.3060  0.4414
   36MOL0     H 4808   2.427   5.499   5.661 -0.7955 -0.6477 -0.8972
   36MOL0     H 4809   2.389   5.334   5.840 -1.5798 -0.1894  0.7784
   36MOL0     H 4810   2.369   5.281   5.674 -1.5617  0.1401 -1.7499
   36MOL0     H 4811   2.076   5.323   5.570 -1.0090 -0.0950 -0.4717
   36MOL0     H 4812   1.838   5.158   5.582 -2.8474 -1.5750 -0.4720
   36MOL0     H 4813   1.770   5.167   5.748 -1.5281  0.6316 -1.1004
   36MOL0     H 4814   1.821   5.392   5.560  0.4584 -0.1054  0.7557
   36MOL0     H 4815   1.815   5.433   5.717  0.4927  0.5655 -1.4738
   36MOL0     H 4816   1.582   5.269   5.577 -0.3242  0.2776 -0.0106
   36MOL0     H 4817   1.587   5.437   5.555  0.6160 -0.9301 -0.8788
   36MOL0     H 4818   1.568   5.482   5.781  3.4012 -0.6220 -0.8766
   36MOL0     H 4819   1.583   5.308   5.828  1.6988 -1.8982 -2.0075
   36MOL0     H 4820   1.186   5.418   5.679  2.0095 -0.2845 -0.5625
   36MOL0     H 4821   0.976   5.546   5.710  1.2561 -2.2683 -1.0772
   36MOL0     H 4822   0.912   5.403   5.790 -1.8392  0.2832 -0.8113
   36MOL0     H 4823   0.902   5.569   5.865 -0.3723  0.6123 -2.8944
   36MOL0     H 4824   0.892   5.716   6.304  2.5795  0.7328 -0.6645
   36MOL0     H 4825   0.821   5.772   6.513  0.1021  1.4841 -2.1152
   36MOL0     H 4826   0.883   5.500   6.847  1.3579 -0.2886  1.7700
   36MOL0     H 4827   1.033   5.582   6.872 -0.2529 -6.3123 -2.6450
   36MOL0     H 4828   0.785   5.646   7.023 -0.6937  1.4936 -0.0479
   36MOL0     H 4829   0.940   5.655   7.069 -0.7598  3.3547  1.8150
   36MOL0     H 4830   0.779   5.843   6.907  1.2301  4.5379  2.4833
   36MOL0     H 4831   0.960   5.849   6.915  0.0655  0.3789 -2.6917
   36MOL0     H 4832   0.777   5.844   7.157  1.3640 -3.5580 -2.4178
   36MOL0     H 4833   0.954   5.876   7.153  1.5411  3.8557 -2.4332
   36MOL0     H 4834   0.798   6.089   7.165  2.8441  0.3905  1.9088
   36MOL0     H 4835   0.762   6.047   6.989  0.8704 -1.8178 -0.5789
   36MOL0     H 4836   1.024   6.171   7.101 -1.5860 -0.4830  2.5364
   36MOL0     H 4837   1.016   6.089   6.951  1.1851 -0.0297  0.1729
   36MOL0     H 4838   0.893   6.349   7.038 -1.3904  0.4772 -0.9157
   36MOL0     H 4839   0.802   6.254   6.908 -0.6494 -1.3120  0.1356
   36MOL0     H 4840   0.950   6.402   6.774 -1.1875  0.8101  2.3273
   36MOL0     H 4841   0.981   6.236   6.756 -3.4127 -0.2671  1.0099
   36MOL0     H 4842   1.077   5.479   6.700  3.8087  1.1970 -0.8620
   36MOL0     H 4843   1.164   5.417   6.464  0.6839  0.0537 -2.2158
   36MOL0     H 4844   1.300   5.463   6.152 -3.6264 -1.6845  1.2885
   36MOL0     H 4845   1.457   5.395   5.999 -0.8912  0.8323  0.8506
   36MOL0     H 4846   2.792   6.227   5.868 -0.0218 -0.8174  0.5073
   36MOL0     H 4847   2.958   6.415   5.937  3.0529  0.1313 -1.7144
   36MOL0     H 4848   3.106   6.775   6.254  0.1045 -0.1532  2.1636
   36MOL0     H 4849   3.275   6.942   6.225 -1.9519 -0.4509  2.0868
   36MOL0     H 4850   3.683   6.782   6.137  0.6118  0.4078  0.2211
   36MOL0     H 4851   3.690   6.905   6.009  1.2257 -1.8540  0.2528
   36MOL0     H 4852   3.714   6.970   6.308  1.7950  0.2140  1.3427
   36MOL0     H 4853   3.762   7.070   6.168  4.9131  0.0258 -0.1611
   36MOL0     H 4854   3.955   6.940   6.119  0.1938  1.8696  1.4173
   36MOL0     H 4855   3.879   6.790   6.186  0.2527 -0.0074  0.5190
   36MOL0     H 4856   3.931   7.019   6.386 -0.6987 -0.9677  1.2365
   36MOL0     H 4857   4.069   6.935   6.314 -0.0744 -1.7092 -0.3355
   36MOL0     H 4858   3.892   6.606   6.510 -0.5774  0.2787 -0.2249
   36MOL0     H 4859   3.539   6.657   6.048  0.3409  0.9475 -1.2635
   36MOL0     H 4860   3.349   6.492   6.036 -1.4374 -0.0586 -0.6253
   37MOL0     O 4861   6.109   0.975  11.222 -0.6493  0.4345  0.7446
   37MOL0     C 4862   6.167   1.025  11.322  1.0413 -0.0873  0.8374
   37MOL0     O 4863   6.099   1.065  11.430 -0.1322  0.5432  0.2329
   37MOL0     C 4864   5.961   1.065  11.436  0.2496  0.2221 -0.2305
   37MOL0     C 4865   5.914   1.003  11.552 -1.6273  0.1803  0.4659
   37MOL0     C 4866   5.771   0.972  11.566 -0.1527 -0.0631  0.6102
   37MOL0     C 4867   5.689   1.022  11.462  0.3591  0.1344 -1.3018
   37MOL0     O 4868   5.554   1.007  11.468 -0.7935  1.0347  0.1027
   37MOL0     C 4869   5.490   0.974  11.598  0.1019 -0.1671  0.1869
   37MOL0     C 4870   5.336   0.941  11.578 -0.0766  0.1774 -0.1472
   37MOL0     C 4871   5.311   0.827  11.482 -0.0582 -0.4695  0.0371
   37MOL0     C 4872   5.178   0.764  11.524  0.3789 -0.0186  0.0220
   37MOL0     C 4873   5.115   0.679  11.408  0.1170 -0.3656 -0.0587
   37MOL0     C 4874   5.059   0.756  11.287  0.0324  0.7068 -0.4169
   37MOL0     C 4875   4.925   0.827  11.319 -0.3882 -0.2110  0.5342
   37MOL0     C 4876   4.861   0.888  11.190 -0.0860  0.7088 -0.2555
   37MOL0     N 4877   4.720   0.930  11.222  0.0953  0.1159 -0.0269
   37MOL0     C 4878   4.610   0.847  11.225 -0.3070  0.0423  0.0407
   37MOL0     C 4879   4.506   0.926  11.267 -0.2668  1.8537 -1.3660
   37MOL0     C 4880   4.372   0.869  11.288 -0.5179 -0.4299  0.3859
   37MOL0     C 4881   4.346   0.729  11.302  0.1470  0.9179 -0.0800
   37MOL0     C 4882   4.325   0.645  11.169 -0.7585  0.5175 -0.3562
   37MOL0     C 4883   4.306   0.496  11.205  0.1378 -0.7409  0.3065
   37MOL0     O 4884   4.426   0.428  11.244 -0.1512 -0.3318  0.9114
   37MOL0     C 4885   4.519   0.393  11.145  0.8526 -0.5526 -0.5554
   37MOL0     C 4886   4.645   0.365  11.193  0.1681  0.2180 -0.8006
   37MOL0     C 4887   4.745   0.324  11.109  0.1808 -0.2316 -0.4269
   37MOL0     C 4888   4.880   0.292  11.163 -0.4519 -0.6492  0.8366
   37MOL0     C 4889   4.729   0.345  10.970 -0.5377 -0.1104 -0.1154
   37MOL0     C 4890   4.842   0.348  10.866  0.8309  0.0647  0.2721
   37MOL0     O 4891   4.809   0.425  10.758  0.2601  0.3025  0.1647
   37MOL0     C 4892   4.895   0.413  10.654 -0.7335 -0.1835 -1.9387
   37MOL0     C 4893   4.891   0.319  10.552  0.4401  0.7082 -0.4032
   37MOL0     C 4894   4.956   0.327  10.428 -0.1841  0.0153 -0.0323
   37MOL0     C 4895   5.049   0.435  10.414  0.0136 -0.2872 -0.0553
   37MOL0     O 4896   5.118   0.475  10.306  0.5084 -0.2020  0.3941
   37MOL0     C 4897   5.094   0.416  10.181  0.1142  0.2322 -0.0750
   37MOL0     C 4898   5.104   0.527  10.074  0.5996 -0.1821  0.1306
   37MOL0     C 4899   4.972   0.610  10.060  0.3031 -0.1150 -0.5338
   37MOL0     C 4900   4.983   0.714   9.949 -0.1535  0.6037  0.0429
   37MOL0     C 4901   4.900   0.834   9.998  0.8962 -0.3354 -0.5015
   37MOL0     C 4902   4.898   0.931   9.879 -0.3295 -0.1668 -0.6555
   37MOL0     C 4903   4.831   1.065   9.926  0.5637  0.3184  0.3977
   37MOL0     C 4904   4.825   1.170   9.818 -0.1417 -0.1534 -0.4597
   37MOL0    Cl 4905   4.741   1.126   9.673 -0.2802  0.1542 -0.1919
   37MOL0     C 4906   5.076   0.521  10.523  0.5006 -0.4663  0.2514
   37MOL0     C 4907   4.990   0.519  10.637  0.8809  0.3776 -0.9905
   37MOL0     O 4908   4.944   0.283  10.874  0.6070  0.1611  0.2025
   37MOL0     C 4909   4.604   0.377  10.919  0.4139  0.4418 -0.2525
   37MOL0     C 4910   4.505   0.404  11.010  0.8137  0.4978  0.1598
   37MOL0     N 4911   4.559   1.055  11.299  0.3750  0.4472  0.0808
   37MOL0     N 4912   4.691   1.043  11.281 -0.8476 -0.2123 -0.8555
   37MOL0     C 4913   5.741   1.106  11.358 -0.3130 -0.7550 -0.2119
   37MOL0     C 4914   5.880   1.114  11.336  0.3299  1.0299  0.5066
   37MOL0     C 4915   6.308   0.998  11.334  0.0149 -0.1348 -0.1896
   37MOL0     C 4916   6.376   0.995  11.459 -1.3475  0.8070  0.6375
   37MOL0     C 4917   6.509   0.964  11.469 -0.9000 -0.0220 -0.6404
   37MOL0     C 4918   6.586   0.942  11.350  0.1499  0.3034 -0.4946
   37MOL0     O 4919   6.722   0.923  11.357 -0.1943 -1.1344  0.8575
   37MOL0     C 4920   6.764   0.844  11.467  0.5622 -0.7055  0.0242
   37MOL0     C 4921   6.714   0.698  11.451  0.1406 -0.1773  0.4860
   37MOL0     C 4922   6.754   0.631  11.313 -0.0036 -0.2285 -0.3895
   37MOL0     C 4923   6.901   0.586  11.320 -0.4571  0.6643 -0.5574
   37MOL0     C 4924   6.922   0.461  11.401  0.0426  0.2162  0.3241
   37MOL0     C 4925   6.930   0.364  11.479 -1.1220 -0.6449  0.4484
   37MOL0     C 4926   6.520   0.950  11.229 -0.3136  0.4552  0.6307
   37MOL0     C 4927   6.390   0.980  11.221 -0.1799 -0.0173  0.7958
   37MOL0     H 4928   5.978   0.973  11.634 -3.6557  0.6125  2.3156
   37MOL0     H 4929   5.733   0.910  11.647 -1.4757 -0.0766  0.0086
   37MOL0     H 4930   5.528   0.895  11.664 -1.8418  1.4974  3.5943
   37MOL0     H 4931   5.496   1.068  11.654 -0.3531  0.0621 -0.1404
   37MOL0     H 4932   5.301   0.925  11.681  0.7485  0.0393  0.1236
   37MOL0     H 4933   5.288   1.033  11.544 -3.8836 -2.2069 -1.9144
   37MOL0     H 4934   5.302   0.869  11.381  1.1333  0.5256  0.3153
   37MOL0     H 4935   5.401   0.766  11.488  1.1244  1.3222  1.9426
   37MOL0     H 4936   5.204   0.692  11.602  1.7674 -1.8886 -2.0392
   37MOL0     H 4937   5.098   0.834  11.547 -0.1035  0.0698 -1.7528
   37MOL0     H 4938   5.189   0.601  11.390  1.3461 -0.1037  3.1247
   37MOL0     H 4939   5.030   0.620  11.445 -0.6983  1.8534  1.7890
   37MOL0     H 4940   5.140   0.823  11.258  1.2362 -0.1741  0.8460
   37MOL0     H 4941   5.034   0.686  11.206  0.9981 -0.4504  0.2607
   37MOL0     H 4942   4.863   0.758  11.378  1.7462 -0.3525  2.7876
   37MOL0     H 4943   4.939   0.915  11.383 -1.6054 -0.8639  1.7578
   37MOL0     H 4944   4.865   0.828  11.099  1.0707  0.7129 -0.2254
   37MOL0     H 4945   4.913   0.981  11.162  1.5112  0.0696  0.4762
   37MOL0     H 4946   4.599   0.745  11.190  0.5101 -0.5149  1.3602
   37MOL0     H 4947   4.343   0.918  11.382  0.7711  0.3385  0.4006
   37MOL0     H 4948   4.315   0.917  11.208 -0.6949 -0.0365  0.7463
   37MOL0     H 4949   4.252   0.719  11.357 -1.2934 -1.3567 -2.6767
   37MOL0     H 4950   4.425   0.674  11.355  0.2865  1.1001 -0.0967
   37MOL0     H 4951   4.412   0.659  11.105  1.1030 -0.5678  1.8019
   37MOL0     H 4952   4.235   0.682  11.120  0.9710  4.7666 -0.7556
   37MOL0     H 4953   4.245   0.451  11.126  0.6335  1.2794 -1.3117
   37MOL0     H 4954   4.233   0.481  11.285 -0.2121 -0.9114 -0.0419
   37MOL0     H 4955   4.646   0.353  11.301 -0.9143  0.4883 -0.7483
   37MOL0     H 4956   4.955   0.366  11.133 -1.3922 -1.0262 -3.0207
   37MOL0     H 4957   4.887   0.282  11.271  2.2636  0.0542  0.8014
   37MOL0     H 4958   4.916   0.195  11.126  2.1579  0.7293 -0.5369
   37MOL0     H 4959   4.834   0.230  10.578  1.3540  0.0723 -0.5400
   37MOL0     H 4960   4.966   0.251  10.351  0.1071  1.8133 -1.8732
   37MOL0     H 4961   5.163   0.334  10.157  0.7968  0.3340  1.4720
   37MOL0     H 4962   4.994   0.372  10.182  0.4971 -0.6663  0.1910
   37MOL0     H 4963   5.187   0.588  10.111 -0.3514 -0.4083  2.8698
   37MOL0     H 4964   5.132   0.476   9.981  0.9301  0.8119 -0.3405
   37MOL0     H 4965   4.951   0.648  10.161 -2.9042 -0.3901 -0.9772
   37MOL0     H 4966   4.893   0.535  10.049  1.8761 -2.5157  2.6768
   37MOL0     H 4967   5.088   0.742   9.935  0.8198 -2.7791 -0.4464
   37MOL0     H 4968   4.942   0.673   9.856  0.0363 -1.6516  0.8792
   37MOL0     H 4969   4.945   0.870  10.091 -3.4788  2.2921  0.8624
   37MOL0     H 4970   4.795   0.810  10.014  0.6496  1.4902  0.9223
   37MOL0     H 4971   5.001   0.950   9.849 -0.2102  0.9081  0.3503
   37MOL0     H 4972   4.840   0.883   9.799 -0.9073  0.6868 -0.7593
   37MOL0     H 4973   4.885   1.099  10.014  0.7151 -0.0364  0.4432
   37MOL0     H 4974   4.728   1.039   9.953 -0.2834 -1.2852 -3.5799
   37MOL0     H 4975   4.929   1.192   9.792 -0.7258 -0.9557 -4.1286
   37MOL0     H 4976   4.784   1.259   9.865 -0.5600 -1.8437  2.6104
   37MOL0     H 4977   5.129   0.614  10.509 -3.4721  2.0172  0.2506
   37MOL0     H 4978   5.004   0.592  10.716 -0.5141  0.5453 -0.8778
   37MOL0     H 4979   4.602   0.379  10.811  1.2465  1.8167 -0.2587
   37MOL0     H 4980   4.411   0.430  10.963 -0.3694 -1.3034  1.4219
   37MOL0     H 4981   5.668   1.138  11.284 -2.4153 -3.0923  0.7009
   37MOL0     H 4982   5.921   1.172  11.254 -0.3987  1.9943  0.8019
   37MOL0     H 4983   6.311   1.018  11.543  0.7204 -1.7148  3.1232
   37MOL0     H 4984   6.559   0.979  11.564  1.0806 -0.4729 -1.5486
   37MOL0     H 4985   6.873   0.854  11.471  0.3986  1.9804 -0.2051
   37MOL0     H 4986   6.717   0.879  11.559  2.0103 -0.1161  0.5707
   37MOL0     H 4987   6.605   0.706  11.446  0.2260  0.4350 -3.7601
   37MOL0     H 4988   6.749   0.647  11.541  0.1663 -0.4069  0.3463
   37MOL0     H 4989   6.752   0.701  11.229  0.7615 -1.0976 -1.1677
   37MOL0     H 4990   6.693   0.547  11.279  0.3310 -0.1033 -1.3525
   37MOL0     H 4991   6.960   0.665  11.367 -3.4221  2.3022  0.6225
   37MOL0     H 4992   6.940   0.562  11.220 -1.7963 -3.2830 -0.2959
   37MOL0     H 4993   6.933   0.290  11.556  0.1277 -2.8621 -1.5906
   37MOL0     H 4994   6.592   0.916  11.155  1.8009 -1.3256  3.3062
   37MOL0     H 4995   6.332   0.969  11.130 -3.7237 -0.8181  2.9174
   38MOL0     O 4996  11.452   8.966   7.468  0.5633  0.6991 -0.4687
   38MOL0     C 4997  11.545   8.945   7.539 -0.3975 -0.4802 -0.0425
   38MOL0     O 4998  11.643   9.033   7.581 -0.1926 -0.1912 -0.4248
   38MOL0     C 4999  11.659   9.155   7.536 -0.1760 -0.4492 -0.4113
   38MOL0     C 5000  11.612   9.208   7.412  0.6587 -0.5994  0.9310
   38MOL0     C 5001  11.637   9.337   7.370  0.2130  0.0537 -0.2665
   38MOL0     C 5002  11.709   9.423   7.451 -1.6063  0.4908 -0.0143
   38MOL0     O 5003  11.736   9.545   7.414  0.5697  0.3133  0.9407
   38MOL0     C 5004  11.838   9.639   7.469  0.2260 -0.0435 -1.5646
   38MOL0     C 5005  11.850   9.761   7.362  0.2109  1.2604 -0.2408
   38MOL0     C 5006  11.905   9.877   7.441 -0.3753  0.2280 -0.4266
   38MOL0     C 5007  12.054   9.870   7.459  0.6892 -0.0798  0.2919
   38MOL0     C 5008  12.124   9.992   7.399  0.2403  0.4891  0.1119
   38MOL0     C 5009  12.082  10.128   7.442  0.0310 -0.2556 -0.4756
   38MOL0     C 5010  12.136  10.148   7.581 -0.4146  0.3086 -0.1885
   38MOL0     C 5011  12.133  10.295   7.624  0.6367  0.0698 -0.3998
   38MOL0     N 5012  12.177  10.305   7.772  0.4465  0.1271  0.3740
   38MOL0     C 5013  12.267  10.229   7.836 -0.8370  0.9400  0.5121
   38MOL0     C 5014  12.258  10.256   7.964 -0.0122  0.5392 -0.8243
   38MOL0     C 5015  12.326  10.179   8.077 -0.4651  1.3564  1.1470
   38MOL0     C 5016  12.469  10.207   8.070  0.6516 -0.8312 -0.3318
   38MOL0     C 5017  12.498  10.353   8.101  0.4552 -0.1862 -0.7950
   38MOL0     C 5018  12.641  10.389   8.126 -0.5776  0.2588 -0.1292
   38MOL0     O 5019  12.661  10.533   8.127  0.2416  0.4002  0.2414
   38MOL0     C 5020  12.738  10.596   8.225  0.5137 -0.4290  0.1636
   38MOL0     C 5021  12.701  10.711   8.293 -1.2146 -0.8279  0.0697
   38MOL0     C 5022  12.781  10.773   8.387  0.2538  0.4664  0.6573
   38MOL0     C 5023  12.722  10.898   8.450  0.1228  0.0568 -0.1436
   38MOL0     C 5024  12.913  10.733   8.409  0.2114 -0.1703  0.0035
   38MOL0     C 5025  13.003  10.788   8.510 -0.7052  0.7036  0.3569
   38MOL0     O 5026  13.046  10.703   8.609  0.4178 -0.2788 -0.4010
   38MOL0     C 5027  13.153  10.742   8.694  0.8467 -0.0909  0.4366
   38MOL0     C 5028  13.261  10.656   8.721  0.6208  0.2513  0.7345
   38MOL0     C 5029  13.357  10.694   8.819  0.3680 -0.6386  0.2464
   38MOL0     C 5030  13.337  10.802   8.900 -0.1339 -0.8004 -0.8706
   38MOL0     O 5031  13.416  10.823   9.011  0.4718 -0.0478  0.5927
   38MOL0     C 5032  13.462  10.710   9.076 -0.7143 -0.3639 -0.5434
   38MOL0     C 5033  13.618  10.704   9.083 -0.2828  0.3272  0.2263
   38MOL0     C 5034  13.679  10.635   9.197 -0.7591  0.7706 -0.6973
   38MOL0     C 5035  13.630  10.499   9.233 -0.0779 -0.2442  0.0347
   38MOL0     C 5036  13.716  10.446   9.349 -0.1291  0.1298 -0.3838
   38MOL0     C 5037  13.630  10.332   9.415 -0.6575  0.7272 -0.3912
   38MOL0     C 5038  13.713  10.255   9.523  0.9916  0.4188  0.2893
   38MOL0     C 5039  13.775  10.327   9.644 -0.3636  0.6451  0.0224
   38MOL0    Cl 5040  13.899  10.223   9.695  0.1156  0.3619 -0.2484
   38MOL0     C 5041  13.234  10.888   8.871 -0.2963  0.3988 -0.3833
   38MOL0     C 5042  13.136  10.868   8.769  0.7063 -0.8453 -0.6201
   38MOL0     O 5043  13.053  10.890   8.481  0.2086  0.3313  0.9071
   38MOL0     C 5044  12.956  10.617   8.330 -0.5487 -0.7503 -0.3814
   38MOL0     C 5045  12.872  10.557   8.238 -0.7184 -0.2445  0.0143
   38MOL0     N 5046  12.159  10.344   7.978  0.8709 -0.5986  0.0102
   38MOL0     N 5047  12.115  10.378   7.867  1.0886  0.5195 -0.9015
   38MOL0     C 5048  11.761   9.367   7.573  0.6011  0.4276 -0.3128
   38MOL0     C 5049  11.732   9.238   7.616  0.0317  0.4886  0.5615
   38MOL0     C 5050  11.550   8.826   7.617 -0.0107  1.1579 -0.1072
   38MOL0     C 5051  11.440   8.732   7.602  0.1790 -0.4598 -0.2973
   38MOL0     C 5052  11.444   8.619   7.677 -0.9119  0.5829  0.4118
   38MOL0     C 5053  11.533   8.584   7.775  0.2232 -0.0387  0.2630
   38MOL0     O 5054  11.537   8.456   7.831 -0.0732 -0.1623 -0.4900
   38MOL0     C 5055  11.551   8.456   7.972 -0.2369  0.4562 -0.3882
   38MOL0     C 5056  11.416   8.401   8.029 -0.5817  0.7107  0.5033
   38MOL0     C 5057  11.413   8.402   8.181 -0.9345 -0.5034  0.0705
   38MOL0     C 5058  11.515   8.310   8.252  0.1738 -0.2125  0.5343
   38MOL0     C 5059  11.494   8.173   8.201 -0.0925 -0.3620 -1.0246
   38MOL0     C 5060  11.469   8.057   8.175 -0.5360  0.2208 -0.1622
   38MOL0     C 5061  11.641   8.677   7.792  0.7938  1.5118  0.4984
   38MOL0     C 5062  11.644   8.799   7.719 -0.2005  0.1547  0.0434
   38MOL0     H 5063  11.537   9.160   7.350 -0.3086 -0.2106  1.7673
   38MOL0     H 5064  11.590   9.373   7.279  1.3062 -1.7688 -1.6095
   38MOL0     H 5065  11.797   9.672   7.565  2.4300 -2.0280  0.1937
   38MOL0     H 5066  11.936   9.594   7.491  1.9220  3.7208 -0.5636
   38MOL0     H 5067  11.914   9.745   7.275 -0.5223 -2.0337 -0.2911
   38MOL0     H 5068  11.745   9.779   7.338  0.0429 -0.8954 -1.3517
   38MOL0     H 5069  11.889   9.966   7.380 -1.5081 -0.3129 -0.9620
   38MOL0     H 5070  11.850   9.897   7.533  2.4676  1.5839  1.1009
   38MOL0     H 5071  12.085   9.844   7.561 -1.5346  0.2573  1.0931
   38MOL0     H 5072  12.084   9.778   7.406 -0.5888  0.1744 -0.9314
   38MOL0     H 5073  12.232   9.976   7.410 -0.0433 -0.5263  1.8011
   38MOL0     H 5074  12.110  10.001   7.291  2.6043  0.4174 -0.2600
   38MOL0     H 5075  12.116  10.201   7.369  2.6443 -1.0189 -0.1171
   38MOL0     H 5076  11.973  10.131   7.451 -0.3576 -0.7927 -3.8244
   38MOL0     H 5077  12.087  10.095   7.664  0.4705 -0.3643 -0.0771
   38MOL0     H 5078  12.241  10.117   7.573 -0.6316  0.0402 -3.6064
   38MOL0     H 5079  12.032  10.334   7.611  0.1494  0.2933  3.1540
   38MOL0     H 5080  12.203  10.350   7.560 -0.4621 -0.8598 -2.5115
   38MOL0     H 5081  12.335  10.153   7.797  0.4133 -1.3764  6.1992
   38MOL0     H 5082  12.303  10.225   8.174 -0.7324  2.0479  0.7664
   38MOL0     H 5083  12.308  10.071   8.078  0.0202  0.8860 -4.9402
   38MOL0     H 5084  12.512  10.169   7.977 -0.3179  0.5942 -1.3922
   38MOL0     H 5085  12.504  10.143   8.152  0.9509 -0.4786 -0.1811
   38MOL0     H 5086  12.440  10.389   8.186  2.5197  1.5100 -0.0083
   38MOL0     H 5087  12.457  10.410   8.017  0.8459  0.6972 -0.4022
   38MOL0     H 5088  12.700  10.336   8.050 -3.2165 -2.2037 -0.6251
   38MOL0     H 5089  12.678  10.344   8.218 -0.5607  0.2843 -0.1232
   38MOL0     H 5090  12.603  10.751   8.270 -1.2359 -1.7410 -1.4900
   38MOL0     H 5091  12.732  10.979   8.378  0.0594 -0.0061 -0.2221
   38MOL0     H 5092  12.620  10.883   8.488  1.1227 -3.0455  1.7243
   38MOL0     H 5093  12.780  10.917   8.541 -0.4800 -2.2050  0.7962
   38MOL0     H 5094  13.273  10.562   8.669 -0.0353  2.0950 -3.0743
   38MOL0     H 5095  13.435  10.618   8.818 -0.1895 -1.3110  2.2723
   38MOL0     H 5096  13.424  10.721   9.178 -2.3172  0.2958 -1.1789
   38MOL0     H 5097  13.424  10.609   9.056 -1.2873 -0.6310  1.6215
   38MOL0     H 5098  13.656  10.654   8.993  1.8292  0.3301  1.0538
   38MOL0     H 5099  13.640  10.811   9.077 -0.3209  0.2759 -1.3571
   38MOL0     H 5100  13.651  10.705   9.276 -0.1275  1.4264 -1.0481
   38MOL0     H 5101  13.787  10.632   9.182 -0.7482  1.5110 -0.8001
   38MOL0     H 5102  13.524  10.508   9.259  0.0810 -1.2244  1.1088
   38MOL0     H 5103  13.640  10.437   9.143  3.8748 -1.8915  1.3817
   38MOL0     H 5104  13.723  10.523   9.426 -0.3423  0.1644 -0.3998
   38MOL0     H 5105  13.814  10.414   9.314  0.1332 -1.2649  1.4975
   38MOL0     H 5106  13.534  10.366   9.453 -2.5305 -0.4702 -3.6746
   38MOL0     H 5107  13.613  10.259   9.335 -1.1538  0.6525 -0.2203
   38MOL0     H 5108  13.788  10.193   9.473 -1.0810 -2.9607  1.0646
   38MOL0     H 5109  13.643  10.186   9.571  1.9759 -1.3704 -0.7570
   38MOL0     H 5110  13.696  10.354   9.714 -0.0909  1.6086 -0.0215
   38MOL0     H 5111  13.836  10.414   9.616  3.7996 -1.6338  1.1790
   38MOL0     H 5112  13.227  10.975   8.936  0.0024 -1.7544  2.7864
   38MOL0     H 5113  13.049  10.931   8.752  1.8028  0.6132 -1.0657
   38MOL0     H 5114  13.058  10.583   8.348  0.0570  1.2967  0.2788
   38MOL0     H 5115  12.894  10.470   8.177 -2.9482  0.3342 -1.7088
   38MOL0     H 5116  11.819   9.432   7.637  0.7777  0.2028 -0.2452
   38MOL0     H 5117  11.768   9.211   7.714  0.3158 -1.5944 -0.0704
   38MOL0     H 5118  11.354   8.745   7.537  0.2352 -3.2252 -1.0563
   38MOL0     H 5119  11.375   8.537   7.657  0.1701 -0.6042  1.3504
   38MOL0     H 5120  11.636   8.388   7.986 -1.7490 -1.1678  1.5257
   38MOL0     H 5121  11.574   8.552   8.017  0.1476 -1.2716  3.5370
   38MOL0     H 5122  11.398   8.300   7.990  0.4857  0.3644  0.8524
   38MOL0     H 5123  11.334   8.461   7.989 -1.7612 -0.1310  1.5673
   38MOL0     H 5124  11.310   8.372   8.202 -1.0680 -0.9944 -1.1955
   38MOL0     H 5125  11.413   8.502   8.226 -0.2365  0.1423 -1.2914
   38MOL0     H 5126  11.515   8.316   8.361  1.1724  1.2527  0.4914
   38MOL0     H 5127  11.621   8.334   8.241  0.2875  0.8151  3.0518
   38MOL0     H 5128  11.437   7.957   8.155 -1.8051  0.4209  0.7039
   38MOL0     H 5129  11.712   8.667   7.873 -2.2283 -1.5600  3.0673
   38MOL0     H 5130  11.728   8.867   7.730  0.2943 -0.5123  0.4617
   39MOL0     O 5131   8.523   1.890  11.450 -0.1732  0.0614 -0.4050
   39MOL0     C 5132   8.578   1.841  11.356  0.7850 -0.1552 -0.2230
   39MOL0     O 5133   8.518   1.783  11.256  0.1669  0.2120  0.1377
   39MOL0     C 5134   8.388   1.739  11.248  0.0002  0.2216 -0.3080
   39MOL0     C 5135   8.350   1.688  11.122  0.1971  0.1236  0.1344
   39MOL0     C 5136   8.225   1.624  11.109 -0.9765 -0.4233 -1.2297
   39MOL0     C 5137   8.137   1.609  11.219 -0.8330 -0.0462  0.5132
   39MOL0     O 5138   8.011   1.567  11.199  0.5185  0.3878  0.5518
   39MOL0     C 5139   7.981   1.437  11.154 -0.6296  0.3660 -0.5401
   39MOL0     C 5140   7.830   1.416  11.145  0.2023  0.3452 -0.0193
   39MOL0     C 5141   7.758   1.495  11.033 -0.3602 -0.0758 -0.4225
   39MOL0     C 5142   7.648   1.400  10.978  0.6626 -0.3813 -0.0562
   39MOL0     C 5143   7.594   1.460  10.847  1.0701 -0.2992 -0.6037
   39MOL0     C 5144   7.498   1.581  10.867  0.7420 -1.2923 -0.3255
   39MOL0     C 5145   7.352   1.542  10.919 -0.4394 -0.0075  0.1845
   39MOL0     C 5146   7.247   1.657  10.939 -0.5337  0.3554  0.4071
   39MOL0     N 5147   7.231   1.722  10.808  0.0601  0.6674  0.2714
   39MOL0     C 5148   7.173   1.676  10.694  0.3153 -0.3101  0.2226
   39MOL0     C 5149   7.161   1.782  10.602 -1.4101 -0.7012 -0.6510
   39MOL0     C 5150   7.106   1.785  10.468 -0.3792  0.1875  0.6904
   39MOL0     C 5151   7.208   1.738  10.372 -0.8058  0.6633  0.4512
   39MOL0     C 5152   7.156   1.767  10.226 -0.7682 -0.0843 -0.1563
   39MOL0     C 5153   7.111   1.631  10.152 -0.2030  0.1078 -0.3945
   39MOL0     O 5154   6.996   1.572  10.206  1.3416  0.0902  0.6476
   39MOL0     C 5155   7.006   1.431  10.224 -0.9505  0.4928  0.2849
   39MOL0     C 5156   7.076   1.394  10.338  0.2467  0.2352 -0.1269
   39MOL0     C 5157   7.118   1.268  10.366  0.2219  0.5442  0.2830
   39MOL0     C 5158   7.217   1.239  10.482 -0.4970 -0.0409 -1.1370
   39MOL0     C 5159   7.085   1.166  10.271  0.1932 -0.0766  0.3370
   39MOL0     C 5160   7.105   1.026  10.306  0.2636  0.4266  0.1718
   39MOL0     O 5161   7.154   0.946  10.210  0.7095  0.2676 -0.1596
   39MOL0     C 5162   7.187   0.821  10.245 -0.1154 -1.1289 -0.0679
   39MOL0     C 5163   7.089   0.722  10.225 -0.1561 -0.1427 -0.5366
   39MOL0     C 5164   7.128   0.587  10.263  0.4963 -0.2819  0.0676
   39MOL0     C 5165   7.255   0.570  10.310  0.7337 -0.1156  0.6884
   39MOL0     O 5166   7.299   0.443  10.344 -0.4174  0.3149 -0.3030
   39MOL0     C 5167   7.199   0.339  10.367 -0.4226  0.8638 -0.4352
   39MOL0     C 5168   7.255   0.216  10.453 -0.6033 -0.2830  0.7198
   39MOL0     C 5169   7.392   0.163  10.396 -0.2514 -0.6431  0.0808
   39MOL0     C 5170   7.440   0.056  10.498 -0.0269 -0.3036  0.4231
   39MOL0     C 5171   7.570  -0.002  10.440 -0.1420 -0.5486  0.0415
   39MOL0     C 5172   7.651  -0.085  10.549  1.1403  0.4881 -0.8891
   39MOL0     C 5173   7.778  -0.135  10.496  0.0264  0.3033  0.5864
   39MOL0     C 5174   7.825  -0.257  10.552  0.1903 -0.0916  0.2104
   39MOL0    Cl 5175   7.891  -0.222  10.721 -0.4805  0.2969 -0.3151
   39MOL0     C 5176   7.344   0.669  10.332  0.2261  0.1763 -0.0353
   39MOL0     C 5177   7.312   0.800  10.291  0.0644 -0.0670  0.3693
   39MOL0     O 5178   7.091   0.987  10.421  0.0976 -0.5595 -0.0304
   39MOL0     C 5179   7.012   1.197  10.158 -1.0715 -1.3546 -0.7559
   39MOL0     C 5180   6.976   1.328  10.128  0.0652 -0.1788 -0.4658
   39MOL0     N 5181   7.245   1.877  10.658 -0.2354 -0.2752 -0.5594
   39MOL0     N 5182   7.273   1.851  10.782 -0.4626 -0.1843  0.2396
   39MOL0     C 5183   8.177   1.654  11.348  0.5313  0.3784  0.0584
   39MOL0     C 5184   8.300   1.712  11.358 -0.2113  0.5172 -0.7093
   39MOL0     C 5185   8.715   1.865  11.334  0.4018  0.3146  0.5074
   39MOL0     C 5186   8.800   1.808  11.240  0.3637  0.0628 -0.1717
   39MOL0     C 5187   8.936   1.828  11.234  0.0714  0.6741 -0.7944
   39MOL0     C 5188   8.997   1.921  11.306 -0.2909 -1.4225 -0.2817
   39MOL0     O 5189   9.135   1.941  11.290  0.1164  0.1748 -0.5584
   39MOL0     C 5190   9.212   2.028  11.381  0.1676 -0.3980 -0.4338
   39MOL0     C 5191   9.220   2.167  11.304 -0.1165 -0.1625 -0.0951
   39MOL0     C 5192   9.327   2.275  11.360  0.3434 -0.3154  0.6199
   39MOL0     C 5193   9.361   2.387  11.255  0.1045  0.6844 -0.8890
   39MOL0     C 5194   9.498   2.439  11.258 -0.0727 -0.5441 -0.4012
   39MOL0     C 5195   9.610   2.487  11.246  0.5335 -0.3528 -0.8793
   39MOL0     C 5196   8.920   1.984  11.405  1.1971  0.2049 -0.4963
   39MOL0     C 5197   8.790   1.945  11.427  1.0332  0.5321  1.0514
   39MOL0     H 5198   8.420   1.695  11.040  1.0297 -2.3388  0.5551
   39MOL0     H 5199   8.188   1.590  11.013  1.1157 -0.6389 -2.0241
   39MOL0     H 5200   8.033   1.412  11.061 -0.0085 -3.9185  0.7547
   39MOL0     H 5201   8.011   1.356  11.221 -1.9722  0.5935  0.3666
   39MOL0     H 5202   7.812   1.308  11.144  1.6190  0.0333  1.9859
   39MOL0     H 5203   7.785   1.451  11.238  0.2536 -2.1373  1.0189
   39MOL0     H 5204   7.727   1.594  11.069 -1.7629 -0.5246 -0.3487
   39MOL0     H 5205   7.834   1.519  10.958  1.5222  1.4775  1.8274
   39MOL0     H 5206   7.686   1.297  10.977  1.2310 -0.1719 -0.4298
   39MOL0     H 5207   7.577   1.391  11.061  1.1451 -0.6672  0.3356
   39MOL0     H 5208   7.667   1.499  10.776  2.0461  2.0587  1.5206
   39MOL0     H 5209   7.539   1.378  10.800  0.0650 -2.0457  3.2012
   39MOL0     H 5210   7.532   1.657  10.939  0.2351 -1.4051  0.0418
   39MOL0     H 5211   7.483   1.633  10.772 -0.0399 -0.5927  0.1604
   39MOL0     H 5212   7.305   1.458  10.867 -0.4236  0.1695 -0.1115
   39MOL0     H 5213   7.376   1.502  11.018 -1.3687 -1.3313 -0.0932
   39MOL0     H 5214   7.282   1.729  11.014  0.2932  0.2842  0.0956
   39MOL0     H 5215   7.159   1.603  10.976  1.7514 -3.4825  0.7169
   39MOL0     H 5216   7.133   1.576  10.687 -1.1456  0.3788 -2.5480
   39MOL0     H 5217   7.016   1.723  10.474  0.3548 -1.4803 -2.7767
   39MOL0     H 5218   7.062   1.883  10.448 -0.1011  0.2886  0.5665
   39MOL0     H 5219   7.238   1.633  10.374  2.1693  1.4475  1.0833
   39MOL0     H 5220   7.299   1.791  10.399  1.3958 -2.0559 -1.0427
   39MOL0     H 5221   7.250   1.808  10.186 -0.4176  2.0928  2.5908
   39MOL0     H 5222   7.076   1.839  10.207 -1.8174 -1.2441 -0.2121
   39MOL0     H 5223   7.200   1.568  10.160 -1.1428 -0.9752  2.5529
   39MOL0     H 5224   7.091   1.649  10.045 -0.3548 -1.9297 -0.7379
   39MOL0     H 5225   7.083   1.464  10.421 -2.2043  1.1798 -0.6524
   39MOL0     H 5226   7.257   1.333  10.522  2.0063 -0.4074 -2.6094
   39MOL0     H 5227   7.161   1.183  10.559 -1.0757  1.7744 -0.1794
   39MOL0     H 5228   7.313   1.200  10.447  0.0004  1.1093 -1.0812
   39MOL0     H 5229   6.990   0.743  10.185 -0.3947 -1.2865 -0.5816
   39MOL0     H 5230   7.058   0.507  10.242  0.7114 -0.1855 -1.0447
   39MOL0     H 5231   7.104   0.378  10.403 -2.9229 -2.9860 -2.2066
   39MOL0     H 5232   7.175   0.306  10.266  1.7964  0.9100 -1.0334
   39MOL0     H 5233   7.270   0.234  10.560  4.2790 -2.8247  0.7329
   39MOL0     H 5234   7.176   0.141  10.441  0.7191 -1.3188 -2.5478
   39MOL0     H 5235   7.458   0.250  10.395  0.2180 -0.9867 -1.6892
   39MOL0     H 5236   7.403   0.122  10.296  0.8849 -2.8059  1.0395
   39MOL0     H 5237   7.470   0.110  10.588 -1.5311  0.9501  0.2078
   39MOL0     H 5238   7.365  -0.023  10.504 -0.3399 -0.0796 -0.3311
   39MOL0     H 5239   7.638   0.081  10.418  0.5707 -1.2115 -0.3354
   39MOL0     H 5240   7.554  -0.055  10.346 -1.6903 -0.2471  0.1121
   39MOL0     H 5241   7.675  -0.019  10.633 -4.8535 -0.0527  1.7421
   39MOL0     H 5242   7.599  -0.162  10.606  2.3115 -1.0225 -1.7866
   39MOL0     H 5243   7.855  -0.057  10.491  1.6945 -1.3270 -0.4021
   39MOL0     H 5244   7.752  -0.160  10.393 -2.8385  0.6167  1.1500
   39MOL0     H 5245   7.899  -0.304  10.488  2.0848 -0.6254  2.6464
   39MOL0     H 5246   7.739  -0.324  10.563 -0.3320  0.4425 -0.5486
   39MOL0     H 5247   7.437   0.648  10.384 -0.7768 -0.7802  1.4604
   39MOL0     H 5248   7.374   0.888  10.303 -1.5511  1.5215 -2.0129
   39MOL0     H 5249   6.978   1.130  10.080 -3.9283 -1.2014  0.2369
   39MOL0     H 5250   6.929   1.354  10.035  1.3309  0.4896 -0.9389
   39MOL0     H 5251   8.103   1.655  11.427 -1.8389  0.5144 -1.9987
   39MOL0     H 5252   8.334   1.729  11.460  0.7842 -0.0742 -0.9207
   39MOL0     H 5253   8.764   1.729  11.174  1.0064 -0.2485 -0.1601
   39MOL0     H 5254   8.997   1.778  11.161  0.7653 -2.1556  1.5369
   39MOL0     H 5255   9.160   2.045  11.476  1.3254 -0.5820  0.2506
   39MOL0     H 5256   9.313   1.997  11.409  0.6242  1.7780  0.5460
   39MOL0     H 5257   9.120   2.208  11.291 -0.1580 -0.9519 -2.7620
   39MOL0     H 5258   9.254   2.149  11.202 -0.9864 -1.4364 -0.1824
   39MOL0     H 5259   9.415   2.223  11.398 -1.9047 -3.7755  1.5475
   39MOL0     H 5260   9.284   2.332  11.443  0.0477 -0.1504  0.3566
   39MOL0     H 5261   9.291   2.472  11.261  1.5756  2.3052 -4.1598
   39MOL0     H 5262   9.338   2.343  11.158 -3.3819  0.2909 -0.0322
   39MOL0     H 5263   9.710   2.526  11.236 -0.0619  0.5528 -5.3667
   39MOL0     H 5264   8.961   2.071  11.455 -0.2885  1.2154 -0.9877
   39MOL0     H 5265   8.732   1.999  11.501 -0.5338 -0.1128  0.3374
   40MOL0     O 5266   0.867   8.612   2.626 -0.1010  0.6006 -0.1668
   40MOL0     C 5267   0.965   8.663   2.683  0.7150  0.2578  0.3511
   40MOL0     O 5268   0.973   8.684   2.819 -0.1423 -0.6485  0.2127
   40MOL0     C 5269   0.864   8.660   2.899  0.2729 -0.0675  0.5923
   40MOL0     C 5270   0.739   8.728   2.882  0.1779  0.2809  0.0649
   40MOL0     C 5271   0.633   8.696   2.972  0.8966  0.4313  0.3674
   40MOL0     C 5272   0.636   8.610   3.081  0.0453  0.7033 -0.6868
   40MOL0     O 5273   0.524   8.577   3.157 -0.1266 -0.0860 -0.2927
   40MOL0     C 5274   0.538   8.545   3.296  0.5438 -1.1490  0.1911
   40MOL0     C 5275   0.416   8.471   3.335  0.8405 -0.0890  0.1102
   40MOL0     C 5276   0.423   8.328   3.308 -0.3649  0.8219  0.2406
   40MOL0     C 5277   0.289   8.264   3.290  0.0082  0.4177 -0.9453
   40MOL0     C 5278   0.299   8.122   3.238 -0.5946 -0.3869  0.5139
   40MOL0     C 5279   0.163   8.052   3.224 -0.1901  0.8554  0.1898
   40MOL0     C 5280   0.057   8.108   3.134 -1.2479 -0.9164  0.8761
   40MOL0     C 5281  -0.030   8.213   3.202  0.4295 -0.2266  0.3485
   40MOL0     N 5282  -0.172   8.199   3.174  0.7873  0.1276  0.3357
   40MOL0     C 5283  -0.263   8.100   3.225 -0.9090 -0.4458  0.5780
   40MOL0     C 5284  -0.371   8.134   3.154  0.4980 -0.8199  1.1649
   40MOL0     C 5285  -0.500   8.065   3.146 -0.4192  0.3603  0.5543
   40MOL0     C 5286  -0.526   7.947   3.250  0.5656 -1.3456 -0.7304
   40MOL0     C 5287  -0.651   7.868   3.217 -0.2511  0.6851  0.2990
   40MOL0     C 5288  -0.691   7.794   3.344 -0.2612  0.7442 -0.0935
   40MOL0     O 5289  -0.585   7.700   3.377 -0.8578 -0.9389 -0.2238
   40MOL0     C 5290  -0.609   7.590   3.452  0.3179  0.2033 -0.2097
   40MOL0     C 5291  -0.512   7.491   3.467  0.0894  0.0208  0.0193
   40MOL0     C 5292  -0.534   7.371   3.543  0.0577  0.4641 -1.1407
   40MOL0     C 5293  -0.406   7.281   3.547  0.0246 -0.3771  0.3663
   40MOL0     C 5294  -0.660   7.343   3.599 -0.5376 -0.1923 -0.1854
   40MOL0     C 5295  -0.703   7.226   3.684 -0.5352  0.9637 -0.9318
   40MOL0     O 5296  -0.828   7.208   3.725  0.3532  0.9084 -0.2049
   40MOL0     C 5297  -0.874   7.081   3.756 -0.3369  0.7193 -0.2892
   40MOL0     C 5298  -0.983   7.030   3.673 -0.5281 -0.3886 -0.8244
   40MOL0     C 5299  -1.031   6.904   3.702 -0.1801 -1.3177  0.4242
   40MOL0     C 5300  -0.998   6.832   3.815 -1.3611  0.1739 -0.7217
   40MOL0     O 5301  -1.058   6.710   3.827 -0.1512 -0.5958  0.6432
   40MOL0     C 5302  -0.965   6.596   3.811  0.0172 -0.3813  0.3100
   40MOL0     C 5303  -0.897   6.571   3.671 -0.8660 -0.4361  0.3610
   40MOL0     C 5304  -1.011   6.579   3.567  0.1018 -0.2479  0.2405
   40MOL0     C 5305  -0.954   6.529   3.435  1.3315 -0.0329 -0.0490
   40MOL0     C 5306  -1.050   6.547   3.320  1.2188  0.5625  0.5478
   40MOL0     C 5307  -0.974   6.513   3.182 -0.4099 -0.6434 -1.1208
   40MOL0     C 5308  -0.909   6.374   3.180 -0.0431 -0.0364  0.0159
   40MOL0     C 5309  -0.910   6.321   3.040  0.2777  0.5403  0.2798
   40MOL0    Cl 5310  -0.801   6.421   2.952  0.6062  0.3558  0.2835
   40MOL0     C 5311  -0.906   6.891   3.902 -1.1703 -0.2098  0.3154
   40MOL0     C 5312  -0.844   7.011   3.873  0.2254  0.0538 -0.6526
   40MOL0     O 5313  -0.609   7.150   3.715  0.3155 -0.3085  0.1040
   40MOL0     C 5314  -0.763   7.437   3.576  0.4542 -0.8451  0.6734
   40MOL0     C 5315  -0.736   7.551   3.497  0.6327  0.0432  0.0582
   40MOL0     N 5316  -0.349   8.236   3.065 -0.6689 -0.2653  0.0903
   40MOL0     N 5317  -0.228   8.273   3.073  0.6411  0.8200  0.4062
   40MOL0     C 5318   0.769   8.563   3.099  0.8632 -0.1622 -0.2437
   40MOL0     C 5319   0.870   8.572   3.010 -0.5738 -0.1146  0.3540
   40MOL0     C 5320   1.081   8.698   2.600 -0.1263 -0.2387 -0.3498
   40MOL0     C 5321   1.188   8.771   2.657 -0.2128  1.0417  0.1615
   40MOL0     C 5322   1.284   8.830   2.572 -0.1600 -0.1410 -0.1697
   40MOL0     C 5323   1.293   8.788   2.433  0.2857  0.5599  0.2851
   40MOL0     O 5324   1.408   8.815   2.360  0.5285  0.1414 -0.0810
   40MOL0     C 5325   1.489   8.700   2.343 -0.4510  0.6691  0.2256
   40MOL0     C 5326   1.603   8.717   2.238  0.0812  1.4106 -0.7172
   40MOL0     C 5327   1.551   8.765   2.103 -0.1226 -0.0124  0.3077
   40MOL0     C 5328   1.658   8.813   2.005  0.0053  0.4601 -0.5029
   40MOL0     C 5329   1.709   8.956   2.024 -0.4624  0.6993 -0.0914
   40MOL0     C 5330   1.747   9.071   2.031 -0.1360  0.6461  0.5612
   40MOL0     C 5331   1.189   8.721   2.376  0.1191 -0.6034 -0.0979
   40MOL0     C 5332   1.079   8.695   2.459 -0.4822  0.7448 -0.0404
   40MOL0     H 5333   0.743   8.801   2.802  1.7000  1.4778  1.1757
   40MOL0     H 5334   0.536   8.742   2.958  1.2901  1.8739  2.0896
   40MOL0     H 5335   0.623   8.476   3.304  2.3435  0.2243 -4.0154
   40MOL0     H 5336   0.562   8.639   3.345  2.0490 -0.0112 -2.4856
   40MOL0     H 5337   0.392   8.491   3.440 -0.4438  0.6073 -0.2993
   40MOL0     H 5338   0.324   8.506   3.286 -1.4875  0.4527  4.3405
   40MOL0     H 5339   0.481   8.318   3.216  0.9799  3.4837  0.7022
   40MOL0     H 5340   0.479   8.274   3.385  0.5818  1.1125 -0.2294
   40MOL0     H 5341   0.234   8.268   3.385  0.2636 -2.1090 -0.6297
   40MOL0     H 5342   0.229   8.329   3.225 -0.6193  2.7816  1.7966
   40MOL0     H 5343   0.367   8.113   3.153  0.4374  1.0897  1.1512
   40MOL0     H 5344   0.352   8.058   3.309 -1.7091  1.1309  2.8254
   40MOL0     H 5345   0.194   7.953   3.191 -2.2978 -0.0081  0.6646
   40MOL0     H 5346   0.127   8.043   3.327 -0.9743 -0.9663 -0.2210
   40MOL0     H 5347   0.097   8.141   3.038  0.5749 -2.1393  1.1714
   40MOL0     H 5348  -0.007   8.023   3.110 -1.2735 -0.7135  0.2169
   40MOL0     H 5349   0.004   8.314   3.178  0.3841  0.8186  4.0483
   40MOL0     H 5350  -0.012   8.197   3.309  3.6397  1.5404  0.1972
   40MOL0     H 5351  -0.235   8.026   3.299  2.2996  0.5177  0.4667
   40MOL0     H 5352  -0.586   8.133   3.151 -0.1635  1.0981 -2.8852
   40MOL0     H 5353  -0.488   8.006   3.055 -0.7600  1.6097 -0.3351
   40MOL0     H 5354  -0.538   7.997   3.346 -0.8573 -2.0011 -0.5399
   40MOL0     H 5355  -0.430   7.894   3.258  0.8759 -0.4656  3.8778
   40MOL0     H 5356  -0.622   7.784   3.153 -0.3467  0.1812  0.9048
   40MOL0     H 5357  -0.732   7.927   3.174  1.0301  0.0703 -3.2722
   40MOL0     H 5358  -0.780   7.736   3.320  0.4994 -0.6954  0.4130
   40MOL0     H 5359  -0.701   7.871   3.421  2.5225  0.8620  0.2615
   40MOL0     H 5360  -0.429   7.510   3.399 -1.8195 -0.0295 -2.4636
   40MOL0     H 5361  -0.320   7.349   3.547 -0.4210  0.1963  0.5188
   40MOL0     H 5362  -0.395   7.230   3.643  0.6573  0.8098  0.9557
   40MOL0     H 5363  -0.403   7.211   3.463  0.1821  3.0475 -2.7557
   40MOL0     H 5364  -1.027   7.089   3.593 -1.0464  0.9319  0.4078
   40MOL0     H 5365  -1.097   6.861   3.628  1.9455 -3.4910 -0.3138
   40MOL0     H 5366  -0.887   6.609   3.887  1.7473 -1.0142 -1.2765
   40MOL0     H 5367  -1.027   6.508   3.832 -1.8318  0.5524 -1.0467
   40MOL0     H 5368  -0.828   6.656   3.666  0.5980 -1.6491 -1.6142
   40MOL0     H 5369  -0.853   6.471   3.673 -3.0850 -1.6218 -2.5010
   40MOL0     H 5370  -1.060   6.677   3.559  3.1016  1.2302 -1.5329
   40MOL0     H 5371  -1.097   6.521   3.603  2.1697 -3.9341 -0.2511
   40MOL0     H 5372  -0.870   6.594   3.410  1.5873 -0.1566  0.4752
   40MOL0     H 5373  -0.927   6.424   3.447 -0.3088 -0.3294  1.4850
   40MOL0     H 5374  -1.079   6.652   3.315 -2.7121 -0.3227  1.4856
   40MOL0     H 5375  -1.148   6.499   3.330 -0.0392  3.0116  0.6738
   40MOL0     H 5376  -1.046   6.521   3.101 -0.5603 -1.3122 -1.0592
   40MOL0     H 5377  -0.912   6.601   3.161 -0.5085 -0.3174 -0.1074
   40MOL0     H 5378  -0.968   6.307   3.243  1.2773 -1.2086  0.0456
   40MOL0     H 5379  -0.807   6.371   3.218  1.1657  2.8693 -2.5308
   40MOL0     H 5380  -1.013   6.314   3.003  0.6793 -2.2399 -0.4954
   40MOL0     H 5381  -0.869   6.220   3.032  0.2968  0.5639  0.0570
   40MOL0     H 5382  -0.867   6.845   3.993 -3.0659  2.1496  2.4874
   40MOL0     H 5383  -0.763   7.043   3.937  3.1889 -2.7686 -2.6272
   40MOL0     H 5384  -0.866   7.424   3.608 -0.0628 -0.5592 -0.7582
   40MOL0     H 5385  -0.807   7.633   3.496  2.2257  1.4916  0.0429
   40MOL0     H 5386   0.790   8.496   3.182  0.2248 -0.4487 -0.3052
   40MOL0     H 5387   0.965   8.520   3.020 -0.2220  0.1271 -1.2952
   40MOL0     H 5388   1.186   8.783   2.765  0.0901  2.5666  0.0234
   40MOL0     H 5389   1.365   8.882   2.622 -0.4431 -0.7093  0.9026
   40MOL0     H 5390   1.534   8.685   2.441  0.3745  1.6114  0.0060
   40MOL0     H 5391   1.435   8.615   2.300 -1.7445  2.6102 -2.2774
   40MOL0     H 5392   1.653   8.620   2.229  2.5058  2.1096  2.7550
   40MOL0     H 5393   1.676   8.793   2.270  1.0799  0.6844 -1.2044
   40MOL0     H 5394   1.479   8.846   2.114  0.0520  0.5155 -2.0329
   40MOL0     H 5395   1.503   8.680   2.053  0.3545 -1.2221  1.8105
   40MOL0     H 5396   1.618   8.804   1.903  1.7460  1.1901 -1.2991
   40MOL0     H 5397   1.745   8.746   2.006  0.0308  0.4873  1.1785
   40MOL0     H 5398   1.779   9.172   2.044 -1.1548  0.9179  1.0416
   40MOL0     H 5399   1.184   8.716   2.268  1.1003 -0.4145 -0.1626
   40MOL0     H 5400   1.001   8.636   2.413  0.3619 -0.4638  0.0377
   41MOL0     O 5401   3.148  11.373   6.592  0.1768 -0.6099  0.0943
   41MOL0     C 5402   3.052  11.392   6.520 -0.3064  0.8417 -0.5600
   41MOL0     O 5403   3.051  11.368   6.394 -0.1091  0.1606  0.0093
   41MOL0     C 5404   3.152  11.298   6.340 -0.1495  0.3996 -0.4484
   41MOL0     C 5405   3.172  11.157   6.352  0.2670 -0.4778 -0.6056
   41MOL0     C 5406   3.264  11.082   6.284 -1.0094 -0.0436 -0.2837
   41MOL0     C 5407   3.357  11.159   6.201  0.4575  1.5017 -0.1697
   41MOL0     O 5408   3.464  11.084   6.137 -0.7315  0.1662  0.5091
   41MOL0     C 5409   3.504  11.127   6.011 -0.0947 -0.2571  0.6637
   41MOL0     C 5410   3.558  11.010   5.929  1.4429  0.3330  1.1549
   41MOL0     C 5411   3.475  10.880   5.955  0.0743 -1.1067 -0.5134
   41MOL0     C 5412   3.544  10.753   5.907  0.5022  0.1899  0.7711
   41MOL0     C 5413   3.460  10.617   5.920  0.3377  0.0092 -0.4633
   41MOL0     C 5414   3.549  10.493   5.882  0.7739 -0.4809 -0.2718
   41MOL0     C 5415   3.648  10.459   5.998 -0.1277 -0.7555  0.0050
   41MOL0     C 5416   3.709  10.324   5.964 -0.2415 -0.7060 -0.1202
   41MOL0     N 5417   3.619  10.224   6.032  0.0670 -0.4898  0.3003
   41MOL0     C 5418   3.606  10.185   6.171 -0.5811  0.0513  0.2100
   41MOL0     C 5419   3.508  10.087   6.169 -0.7941 -0.0248 -0.4019
   41MOL0     C 5420   3.474   9.974   6.267 -0.5361 -0.3571 -0.6487
   41MOL0     C 5421   3.571   9.859   6.229  0.0926 -0.6243 -0.7302
   41MOL0     C 5422   3.532   9.724   6.286  0.7982  0.1947 -0.6348
   41MOL0     C 5423   3.389   9.668   6.258  0.0687 -0.3847 -0.3261
   41MOL0     O 5424   3.389   9.537   6.300 -0.8223  0.0464  0.1426
   41MOL0     C 5425   3.267   9.469   6.275  0.8878  0.1391 -0.8615
   41MOL0     C 5426   3.152   9.539   6.311  1.4077 -0.5880 -0.5124
   41MOL0     C 5427   3.025   9.483   6.300  0.3373  0.6294  0.5273
   41MOL0     C 5428   2.903   9.567   6.349  0.2387  0.2487  0.5184
   41MOL0     C 5429   3.005   9.355   6.242 -0.5540  0.3599  0.0388
   41MOL0     C 5430   2.882   9.283   6.217 -0.5774 -0.0238 -0.2461
   41MOL0     O 5431   2.890   9.164   6.150 -0.1685 -0.0167 -0.1245
   41MOL0     C 5432   2.782   9.089   6.118 -0.0925 -0.5363 -0.0924
   41MOL0     C 5433   2.687   9.039   6.209  0.4888  0.1086 -0.2504
   41MOL0     C 5434   2.581   8.952   6.178 -0.1382 -0.5755  0.3548
   41MOL0     C 5435   2.568   8.914   6.038  1.3444  0.0351 -0.1908
   41MOL0     O 5436   2.465   8.833   5.997 -0.5028  0.3043  0.2614
   41MOL0     C 5437   2.440   8.718   6.061  0.4144  0.7064  1.0686
   41MOL0     C 5438   2.336   8.633   5.988  1.0382  0.5886 -0.0855
   41MOL0     C 5439   2.198   8.696   6.012 -0.3277  0.0224 -0.0050
   41MOL0     C 5440   2.156   8.783   5.894 -0.1683 -0.3783 -0.4483
   41MOL0     C 5441   2.017   8.840   5.925  0.5206  0.4007  0.7875
   41MOL0     C 5442   1.945   8.905   5.808  0.5819 -0.1921 -0.2685
   41MOL0     C 5443   1.806   8.955   5.861 -0.4094 -0.6373 -1.2864
   41MOL0     C 5444   1.823   9.110   5.848  0.0178 -0.3725 -0.8417
   41MOL0    Cl 5445   1.808   9.158   5.691 -0.2332  0.0655 -0.3486
   41MOL0     C 5446   2.662   8.963   5.941  0.4118 -0.7051 -0.5221
   41MOL0     C 5447   2.773   9.046   5.978 -0.3605 -0.0433  0.0306
   41MOL0     O 5448   2.781   9.318   6.275  0.3232  0.4622  0.0142
   41MOL0     C 5449   3.129   9.288   6.210 -0.1339  0.2407 -0.4350
   41MOL0     C 5450   3.257   9.342   6.226  0.2170  0.8272  1.4137
   41MOL0     N 5451   3.447  10.081   6.042  0.2080  0.0494 -0.2348
   41MOL0     N 5452   3.509  10.164   5.965  0.0949 -0.1257 -0.2091
   41MOL0     C 5453   3.325  11.295   6.178  1.5077 -0.3127  0.3825
   41MOL0     C 5454   3.230  11.371   6.255  0.0962  0.5168  0.2880
   41MOL0     C 5455   2.927  11.423   6.574 -0.8051  0.6313 -0.0309
   41MOL0     C 5456   2.812  11.428   6.496  1.2658 -0.2526 -0.7335
   41MOL0     C 5457   2.692  11.455   6.562  0.3652 -0.1979  0.3501
   41MOL0     C 5458   2.684  11.485   6.698 -0.8147  0.2596  0.5123
   41MOL0     O 5459   2.558  11.512   6.746  0.3313 -0.0597 -0.2750
   41MOL0     C 5460   2.546  11.561   6.879  0.0280  0.4655  0.1533
   41MOL0     C 5461   2.403  11.608   6.924 -0.6328 -0.2912 -0.2206
   41MOL0     C 5462   2.352  11.713   6.826  0.8130 -0.0561 -0.0422
   41MOL0     C 5463   2.224  11.772   6.875  0.3738  0.0685  0.2864
   41MOL0     C 5464   2.112  11.684   6.914 -0.5871 -0.2159  0.9218
   41MOL0     C 5465   2.018  11.608   6.923 -0.0187 -0.1038 -0.2112
   41MOL0     C 5466   2.803  11.476   6.772  0.4136  0.4892  0.1968
   41MOL0     C 5467   2.920  11.449   6.712 -0.0540 -1.0897 -0.3020
   41MOL0     H 5468   3.091  11.108   6.407 -1.1472  2.7032  0.3696
   41MOL0     H 5469   3.278  10.979   6.315 -1.3605  0.7353  2.8155
   41MOL0     H 5470   3.408  11.157   5.968 -0.3505 -0.4449  1.0888
   41MOL0     H 5471   3.570  11.214   6.012  0.1530 -0.4154 -0.6116
   41MOL0     H 5472   3.550  11.030   5.821  0.9676  0.6254  1.2382
   41MOL0     H 5473   3.664  11.016   5.953  1.4705  3.9589  0.7656
   41MOL0     H 5474   3.438  10.860   6.056  0.0328  1.8460  0.1617
   41MOL0     H 5475   3.390  10.901   5.890 -0.2466 -2.2600 -0.4873
   41MOL0     H 5476   3.566  10.769   5.802  0.0491  0.1622  0.6701
   41MOL0     H 5477   3.630  10.738   5.973 -0.5930 -1.0364  2.0107
   41MOL0     H 5478   3.432  10.614   6.026 -0.3090  3.4163 -0.4298
   41MOL0     H 5479   3.362  10.619   5.872  1.2874 -3.9733 -3.0309
   41MOL0     H 5480   3.482  10.406   5.874  0.5513 -0.2700 -0.7490
   41MOL0     H 5481   3.608  10.496   5.790  3.0321 -2.1163  1.0224
   41MOL0     H 5482   3.724  10.538   6.000 -0.5295 -0.3667  0.0500
   41MOL0     H 5483   3.599  10.472   6.095 -4.0370  2.4509 -2.1167
   41MOL0     H 5484   3.808  10.323   6.012  0.8742  1.1015 -2.1958
   41MOL0     H 5485   3.722  10.294   5.860 -2.0068  0.1229 -0.6112
   41MOL0     H 5486   3.675  10.218   6.248  2.7061 -0.8885 -2.1148
   41MOL0     H 5487   3.482  10.020   6.365 -2.7691  0.0556 -0.6213
   41MOL0     H 5488   3.373   9.936   6.252 -0.7008 -0.7098  1.1283
   41MOL0     H 5489   3.669   9.887   6.267  0.0135  1.1776 -1.7309
   41MOL0     H 5490   3.572   9.833   6.123 -2.3476 -2.5738 -0.3753
   41MOL0     H 5491   3.543   9.727   6.395  0.3781  0.9875 -0.6101
   41MOL0     H 5492   3.599   9.647   6.245 -0.4362  0.6836 -3.8217
   41MOL0     H 5493   3.366   9.682   6.152 -0.9454  3.5590  0.2517
   41MOL0     H 5494   3.312   9.729   6.307  1.4335  3.5857 -2.6662
   41MOL0     H 5495   3.139   9.640   6.351 -1.0027 -0.7475 -0.7494
   41MOL0     H 5496   2.921   9.675   6.350  0.9719  0.1803  3.1120
   41MOL0     H 5497   2.816   9.555   6.284  2.0559 -4.2273 -1.4639
   41MOL0     H 5498   2.875   9.536   6.451 -1.0298 -0.4732 -0.0312
   41MOL0     H 5499   2.694   9.076   6.310 -1.2633  2.4175 -0.8726
   41MOL0     H 5500   2.518   8.918   6.260 -0.8127 -0.7958 -0.2428
   41MOL0     H 5501   2.528   8.654   6.062 -1.2553 -1.8647  4.8083
   41MOL0     H 5502   2.415   8.735   6.166 -0.1300 -0.7953  1.1996
   41MOL0     H 5503   2.352   8.614   5.882  0.0882 -0.7309 -0.0236
   41MOL0     H 5504   2.335   8.535   6.036  0.7373  0.3081 -0.6615
   41MOL0     H 5505   2.193   8.749   6.108 -0.6349  2.6977 -1.3871
   41MOL0     H 5506   2.122   8.618   6.018 -0.7812  0.4647  0.1033
   41MOL0     H 5507   2.222   8.870   5.902 -1.0924  0.1414  2.2805
   41MOL0     H 5508   2.154   8.736   5.795  1.6366 -1.7063  0.0987
   41MOL0     H 5509   2.024   8.915   6.004 -3.5154 -0.8529  2.5751
   41MOL0     H 5510   1.950   8.759   5.956 -2.0063  1.8032 -0.7465
   41MOL0     H 5511   2.003   8.982   5.756  0.8243  0.2262  0.6183
   41MOL0     H 5512   1.929   8.832   5.727  2.8295 -0.8577 -0.1788
   41MOL0     H 5513   1.778   8.936   5.965  1.1051  1.0323 -0.5266
   41MOL0     H 5514   1.720   8.923   5.801  0.0058 -0.1452 -2.1625
   41MOL0     H 5515   1.915   9.141   5.899 -1.0754 -0.0749  1.0764
   41MOL0     H 5516   1.750   9.153   5.918 -0.2217 -1.8699 -0.1375
   41MOL0     H 5517   2.640   8.935   5.839  0.7467 -2.6534 -0.0891
   41MOL0     H 5518   2.849   9.072   5.904 -0.8160 -2.7950 -1.5677
   41MOL0     H 5519   3.125   9.186   6.175 -1.8934 -0.2162  0.9200
   41MOL0     H 5520   3.343   9.284   6.195 -2.0046 -0.7253 -2.5232
   41MOL0     H 5521   3.370  11.348   6.094 -2.6074  0.4490 -1.5638
   41MOL0     H 5522   3.207  11.477   6.250 -1.3332  0.2552  0.7646
   41MOL0     H 5523   2.798  11.389   6.395 -1.4723 -0.6842 -0.2741
   41MOL0     H 5524   2.600  11.447   6.504  1.8090  0.2599 -2.1378
   41MOL0     H 5525   2.579  11.485   6.949 -0.6111 -0.3219 -0.3843
   41MOL0     H 5526   2.607  11.652   6.880 -0.7240  1.2577 -4.4515
   41MOL0     H 5527   2.400  11.637   7.030 -3.1697  0.5920 -0.4727
   41MOL0     H 5528   2.340  11.519   6.919 -0.1918 -0.5385 -2.8222
   41MOL0     H 5529   2.332  11.669   6.728  1.5318  1.8358 -1.1026
   41MOL0     H 5530   2.438  11.780   6.826  1.8784 -1.3819  0.4788
   41MOL0     H 5531   2.186  11.841   6.799  0.6362 -2.4679 -2.3091
   41MOL0     H 5532   2.269  11.827   6.958  1.9064 -0.0228 -0.4666
   41MOL0     H 5533   1.944  11.532   6.905  0.1971  0.1260 -2.2296
   41MOL0     H 5534   2.787  11.475   6.880 -0.5869 -2.8049  0.1466
   41MOL0     H 5535   3.003  11.447   6.782  0.3176 -0.2803 -0.7043
   42MOL0     O 5536   2.539   8.648   4.420 -0.1968 -0.0804 -0.1276
   42MOL0     C 5537   2.438   8.674   4.488  0.3129  0.0200  0.2242
   42MOL0     O 5538   2.320   8.709   4.440  0.9335  0.8621  0.7770
   42MOL0     C 5539   2.289   8.712   4.306 -0.1642 -0.1242 -0.2368
   42MOL0     C 5540   2.363   8.676   4.188 -0.3146 -0.8255  0.0282
   42MOL0     C 5541   2.300   8.687   4.061 -0.0417  0.5490 -0.0664
   42MOL0     C 5542   2.166   8.730   4.052 -0.7557 -0.7354 -0.1285
   42MOL0     O 5543   2.096   8.734   3.933 -0.3072 -0.6240 -0.4967
   42MOL0     C 5544   2.141   8.649   3.830 -0.4018 -0.3089 -0.1810
   42MOL0     C 5545   2.039   8.653   3.716 -0.5049  0.8527 -0.6270
   42MOL0     C 5546   1.986   8.800   3.695 -0.2005  0.5632  0.4986
   42MOL0     C 5547   1.873   8.782   3.595 -0.0505  0.1032  0.2157
   42MOL0     C 5548   1.826   8.925   3.572  0.1446  0.8885 -0.5963
   42MOL0     C 5549   1.712   8.926   3.462 -0.4656 -0.3045  0.3700
   42MOL0     C 5550   1.687   9.077   3.425 -0.2138 -0.1577  1.1734
   42MOL0     C 5551   1.621   9.080   3.283  0.5170  0.3049 -0.6538
   42MOL0     N 5552   1.640   9.212   3.223 -0.3110 -0.8479 -0.2474
   42MOL0     C 5553   1.766   9.270   3.204 -0.7104 -0.4426  0.9740
   42MOL0     C 5554   1.744   9.407   3.207 -0.1958  0.6890  0.2568
   42MOL0     C 5555   1.832   9.528   3.189 -0.0313  0.4756  0.6336
   42MOL0     C 5556   1.879   9.535   3.045 -0.6336 -0.6355  0.2678
   42MOL0     C 5557   1.768   9.543   2.944  0.5845 -0.9298 -0.1875
   42MOL0     C 5558   1.835   9.564   2.811 -0.0971 -0.3538 -0.4367
   42MOL0     O 5559   1.743   9.550   2.698 -0.3301  0.0731  0.2614
   42MOL0     C 5560   1.780   9.612   2.578  0.4917 -0.5426  1.1624
   42MOL0     C 5561   1.685   9.606   2.472  0.0792 -0.1057 -0.6233
   42MOL0     C 5562   1.716   9.635   2.339 -0.1907  1.6030 -0.7353
   42MOL0     C 5563   1.608   9.616   2.235 -0.4667 -0.2015  0.4128
   42MOL0     C 5564   1.846   9.679   2.307  0.1660 -0.4321 -0.7876
   42MOL0     C 5565   1.900   9.702   2.171 -0.0204  0.0581  0.0557
   42MOL0     O 5566   1.815   9.717   2.067 -0.1438 -1.1632 -0.0180
   42MOL0     C 5567   1.857   9.755   1.948  0.3117  0.2606  0.0278
   42MOL0     C 5568   1.846   9.895   1.903  0.6886  1.1551  0.5875
   42MOL0     C 5569   1.892   9.938   1.779  1.1434  0.3700  0.7971
   42MOL0     C 5570   1.939   9.835   1.687 -0.3047  0.0126 -0.3395
   42MOL0     O 5571   1.972   9.872   1.561  0.5747 -0.1412  0.0468
   42MOL0     C 5572   2.066   9.796   1.490 -1.1645 -0.0820 -0.1064
   42MOL0     C 5573   2.113   9.876   1.374  0.9626 -0.0132 -0.1323
   42MOL0     C 5574   1.992   9.916   1.280  0.5695  0.3240  0.6825
   42MOL0     C 5575   2.040   9.946   1.135 -0.3689 -0.0729 -0.1181
   42MOL0     C 5576   1.952   9.911   1.020  1.0039 -0.5595  0.7076
   42MOL0     C 5577   1.935   9.755   0.991 -0.3351 -0.5457  0.2488
   42MOL0     C 5578   1.848   9.727   0.861 -0.0288  0.0048  0.3617
   42MOL0     C 5579   1.891   9.608   0.777 -0.5860  1.1404 -0.3982
   42MOL0    Cl 5580   1.955   9.468   0.884  0.4879  0.0674  0.0986
   42MOL0     C 5581   1.925   9.702   1.724  0.4751  0.7296  0.3532
   42MOL0     C 5582   1.889   9.660   1.850  0.5717 -0.5750 -1.2746
   42MOL0     O 5583   2.024   9.704   2.163  0.7619 -0.2851  0.1345
   42MOL0     C 5584   1.935   9.702   2.413  0.0582  0.1643  0.1881
   42MOL0     C 5585   1.905   9.662   2.548 -0.1187  0.3199 -0.8929
   42MOL0     N 5586   1.608   9.430   3.226  0.3603  0.6377  0.2917
   42MOL0     N 5587   1.554   9.314   3.236  0.2846 -0.7131  0.1841
   42MOL0     C 5588   2.101   8.759   4.170 -0.1855  0.4138 -0.0941
   42MOL0     C 5589   2.162   8.754   4.289 -0.3152 -0.8710  0.0440
   42MOL0     C 5590   2.455   8.666   4.634 -0.1225 -0.1473  0.1422
   42MOL0     C 5591   2.585   8.651   4.691 -0.0309 -0.2144 -0.3853
   42MOL0     C 5592   2.596   8.629   4.831 -0.1858  0.0417  0.8265
   42MOL0     C 5593   2.489   8.634   4.914  0.2629  0.5814 -0.6341
   42MOL0     O 5594   2.499   8.600   5.049 -0.2638  0.6677 -0.2010
   42MOL0     C 5595   2.386   8.560   5.132  0.6513 -0.8169  0.2298
   42MOL0     C 5596   2.419   8.464   5.244  0.7563  0.1957 -0.4923
   42MOL0     C 5597   2.545   8.395   5.214 -0.2702  0.1105  0.3195
   42MOL0     C 5598   2.598   8.302   5.324  0.1771 -0.7785 -0.4351
   42MOL0     C 5599   2.486   8.224   5.378 -0.1450 -0.8574  0.1935
   42MOL0     C 5600   2.398   8.158   5.435 -0.6141  0.8266 -0.5937
   42MOL0     C 5601   2.360   8.653   4.864 -0.6644  0.1049 -0.8495
   42MOL0     C 5602   2.351   8.676   4.723  0.4308 -0.5628  0.4909
   42MOL0     H 5603   2.464   8.639   4.199  0.0812  0.1945 -0.0696
   42MOL0     H 5604   2.355   8.654   3.974  1.3915 -1.5368  1.5397
   42MOL0     H 5605   2.246   8.661   3.800 -1.0698  0.1832 -2.5856
   42MOL0     H 5606   2.137   8.546   3.864  0.7118  0.3962  2.2760
   42MOL0     H 5607   2.085   8.615   3.625  1.3472  2.5149 -0.4483
   42MOL0     H 5608   1.957   8.584   3.742  0.7962 -0.5359 -0.0487
   42MOL0     H 5609   1.965   8.848   3.790  1.7398 -0.8710  1.7221
   42MOL0     H 5610   2.063   8.871   3.664 -0.4129  0.8788  0.6915
   42MOL0     H 5611   1.907   8.741   3.499 -0.5715  2.5600 -1.1006
   42MOL0     H 5612   1.792   8.722   3.638 -1.0418  0.3505 -1.2222
   42MOL0     H 5613   1.785   8.971   3.663  1.2634  2.4199 -0.8319
   42MOL0     H 5614   1.909   8.994   3.554  2.0600 -1.4563 -1.2849
   42MOL0     H 5615   1.756   8.876   3.375 -1.0247  1.2710 -0.8667
   42MOL0     H 5616   1.618   8.873   3.481  1.8880 -5.3443 -0.2830
   42MOL0     H 5617   1.628   9.128   3.502  0.5137  0.3396  1.4071
   42MOL0     H 5618   1.787   9.119   3.431  0.2856 -1.2945  1.0640
   42MOL0     H 5619   1.513   9.065   3.295 -0.2841  5.2850  0.3467
   42MOL0     H 5620   1.657   8.994   3.225  0.6302 -1.2795  1.6368
   42MOL0     H 5621   1.861   9.219   3.191 -0.8482 -0.3707 -0.4746
   42MOL0     H 5622   1.774   9.619   3.208  0.0802  1.2771 -2.4754
   42MOL0     H 5623   1.917   9.520   3.258  1.4411  0.0523 -1.1596
   42MOL0     H 5624   1.941   9.448   3.019 -2.5083 -1.2792 -2.3546
   42MOL0     H 5625   1.939   9.624   3.027  0.2624 -0.7395  2.3937
   42MOL0     H 5626   1.705   9.629   2.969  3.8785  1.7300 -0.3379
   42MOL0     H 5627   1.713   9.450   2.926  0.2883 -0.5522 -1.3331
   42MOL0     H 5628   1.920   9.495   2.803  1.7457  1.4639  1.9043
   42MOL0     H 5629   1.862   9.670   2.814 -3.2316  0.4990  0.8714
   42MOL0     H 5630   1.590   9.569   2.510  0.1670 -0.8176 -1.0738
   42MOL0     H 5631   1.635   9.538   2.163  0.9557 -0.6591  1.3973
   42MOL0     H 5632   1.518   9.584   2.289  1.4168 -3.9694  1.7195
   42MOL0     H 5633   1.598   9.707   2.176  1.3231  1.5048  2.5689
   42MOL0     H 5634   1.820   9.979   1.966  0.5374  2.1257 -0.7184
   42MOL0     H 5635   1.880  10.041   1.748 -2.2687  0.3594  1.6857
   42MOL0     H 5636   2.150   9.774   1.557 -1.6134  1.0459  0.8659
   42MOL0     H 5637   2.032   9.698   1.457 -0.1209  0.0427 -1.6143
   42MOL0     H 5638   2.171   9.965   1.400  1.9467 -0.6303 -0.1693
   42MOL0     H 5639   2.176   9.817   1.306  2.0331  3.5597 -2.5650
   42MOL0     H 5640   1.946  10.010   1.312 -2.7831  0.8172 -4.3769
   42MOL0     H 5641   1.912   9.842   1.288  1.0923 -0.5968 -1.6474
   42MOL0     H 5642   2.058  10.054   1.132 -0.5425  0.0159  1.3441
   42MOL0     H 5643   2.140   9.901   1.123  2.7947  5.8304  0.5805
   42MOL0     H 5644   1.992   9.976   0.942  1.7482 -0.9768  0.7294
   42MOL0     H 5645   1.850   9.948   1.033  1.2613  1.3696 -1.9152
   42MOL0     H 5646   2.032   9.710   0.968 -0.3901 -0.0180 -1.1352
   42MOL0     H 5647   1.898   9.706   1.081  3.6276 -2.2859  1.1470
   42MOL0     H 5648   1.836   9.811   0.792  2.1560  1.1725  1.2804
   42MOL0     H 5649   1.749   9.701   0.898 -0.8772 -0.8210 -2.2243
   42MOL0     H 5650   1.966   9.638   0.704 -0.9452  2.2628 -0.3143
   42MOL0     H 5651   1.810   9.575   0.711 -0.2067  0.1874 -0.4010
   42MOL0     H 5652   1.950   9.628   1.647  1.1809  1.7884 -0.4706
   42MOL0     H 5653   1.888   9.554   1.873 -0.8670 -0.8020 -2.2926
   42MOL0     H 5654   2.031   9.754   2.416 -1.3939  3.0284  2.8004
   42MOL0     H 5655   1.971   9.678   2.632 -1.6956  2.6196  0.0020
   42MOL0     H 5656   1.996   8.787   4.158 -0.5633 -1.5159 -1.8787
   42MOL0     H 5657   2.093   8.793   4.363 -0.1627  1.1530 -0.8080
   42MOL0     H 5658   2.677   8.653   4.634  0.4109  1.2085  0.3134
   42MOL0     H 5659   2.689   8.610   4.883 -2.6523 -0.1327  5.8571
   42MOL0     H 5660   2.333   8.639   5.186  0.2603  1.1142 -2.7366
   42MOL0     H 5661   2.308   8.510   5.074 -1.8330 -0.1676  2.7996
   42MOL0     H 5662   2.331   8.400   5.248 -0.9479  2.4810  1.7578
   42MOL0     H 5663   2.425   8.515   5.341 -2.3252  4.0166 -2.0644
   42MOL0     H 5664   2.628   8.466   5.210 -0.6789  0.7023  1.7334
   42MOL0     H 5665   2.535   8.344   5.118 -0.2973  0.7772 -0.0326
   42MOL0     H 5666   2.625   8.362   5.412 -3.0405 -1.8091  1.4651
   42MOL0     H 5667   2.682   8.247   5.283  0.5385  0.8159 -1.9848
   42MOL0     H 5668   2.311   8.108   5.472 -2.2711  2.7238 -1.7058
   42MOL0     H 5669   2.271   8.660   4.927 -1.3414 -0.0061 -1.7654
   42MOL0     H 5670   2.250   8.696   4.688  1.1973  0.5004 -1.2192
   43MOL0     O 5671   6.009   4.349   1.066  0.0805 -0.4253  0.9875
   43MOL0     C 5672   5.992   4.252   0.994 -0.0406 -0.1634  0.5396
   43MOL0     O 5673   6.028   4.245   0.858 -0.9720 -0.4761  0.2012
   43MOL0     C 5674   6.108   4.341   0.800 -0.9180  0.9648 -0.1859
   43MOL0     C 5675   6.188   4.291   0.696 -0.6319 -0.6112 -0.4170
   43MOL0     C 5676   6.272   4.364   0.623 -0.7839  0.4454 -0.0432
   43MOL0     C 5677   6.300   4.499   0.656  0.2083  0.3242 -0.2694
   43MOL0     O 5678   6.386   4.568   0.591  0.9081  0.2816  0.7502
   43MOL0     C 5679   6.379   4.710   0.583  0.3168  0.7541  0.3837
   43MOL0     C 5680   6.475   4.752   0.487 -0.6779 -0.9411  0.3063
   43MOL0     C 5681   6.556   4.880   0.518  0.6053 -0.1748  0.8804
   43MOL0     C 5682   6.647   4.915   0.394 -0.4965  0.4655  0.0219
   43MOL0     C 5683   6.765   5.004   0.444 -0.7498 -1.0595  0.4188
   43MOL0     C 5684   6.860   5.060   0.342 -0.5169  0.2868  0.2346
   43MOL0     C 5685   6.880   4.966   0.218 -0.7869 -0.2411 -0.4192
   43MOL0     C 5686   6.981   5.021   0.115  0.2784  0.0677 -0.9078
   43MOL0     N 5687   6.920   5.096   0.002  0.1261  0.4225 -0.3098
   43MOL0     C 5688   6.943   5.230  -0.000  1.1088 -0.9084  0.8683
   43MOL0     C 5689   6.913   5.278  -0.122 -0.2984  0.8789 -0.0965
   43MOL0     C 5690   6.919   5.417  -0.169  0.0048  0.6036 -0.7028
   43MOL0     C 5691   7.048   5.489  -0.127  0.9781 -0.1527 -0.4365
   43MOL0     C 5692   7.037   5.623  -0.059  0.8437 -0.7091  0.7638
   43MOL0     C 5693   7.161   5.710  -0.035  0.6456 -0.4141  0.1941
   43MOL0     O 5694   7.251   5.625   0.046  0.1155 -0.6910 -0.2321
   43MOL0     C 5695   7.346   5.682   0.128 -0.1032  0.2414  1.0481
   43MOL0     C 5696   7.474   5.630   0.141  0.9316 -0.0514 -0.3150
   43MOL0     C 5697   7.570   5.683   0.225 -0.1288  0.0385  0.1805
   43MOL0     C 5698   7.706   5.611   0.243  0.1186 -0.3122 -0.1576
   43MOL0     C 5699   7.541   5.801   0.291  0.2814 -0.8451 -0.1553
   43MOL0     C 5700   7.635   5.875   0.381 -0.4593  0.0389  0.0636
   43MOL0     O 5701   7.601   5.997   0.436  0.3057  0.0270 -0.4118
   43MOL0     C 5702   7.665   6.039   0.544  0.2869 -0.5468 -0.5528
   43MOL0     C 5703   7.773   6.128   0.536  0.9803 -0.5991  0.4591
   43MOL0     C 5704   7.837   6.164   0.649 -0.2512 -1.1912  0.0016
   43MOL0     C 5705   7.791   6.121   0.774 -0.3887  0.4183  0.3910
   43MOL0     O 5706   7.853   6.147   0.892 -0.1513  0.2576 -0.4101
   43MOL0     C 5707   7.995   6.180   0.895 -0.1256 -0.2025  0.4709
   43MOL0     C 5708   8.036   6.178   1.040 -0.2146 -0.9558 -0.5840
   43MOL0     C 5709   8.193   6.201   1.054  0.3266 -0.0235  0.2843
   43MOL0     C 5710   8.231   6.174   1.205 -0.4010  0.2606  0.0397
   43MOL0     C 5711   8.296   6.297   1.264 -0.3042 -0.0279  0.8346
   43MOL0     C 5712   8.386   6.268   1.386  0.7469 -0.1059 -0.5036
   43MOL0     C 5713   8.430   6.403   1.447  0.8042 -0.3837  0.6216
   43MOL0     C 5714   8.506   6.378   1.575  0.4118 -0.1487 -0.3178
   43MOL0    Cl 5715   8.623   6.501   1.612 -0.1327 -0.2965  0.1463
   43MOL0     C 5716   7.667   6.044   0.782 -0.5862 -0.0664 -0.4480
   43MOL0     C 5717   7.598   6.008   0.665  0.1720  0.3334  0.2449
   43MOL0     O 5718   7.742   5.825   0.404  0.6275 -0.0073  1.2500
   43MOL0     C 5719   7.410   5.851   0.276 -1.6506 -0.2692 -0.5362
   43MOL0     C 5720   7.320   5.799   0.194 -0.3527  0.4027  0.0109
   43MOL0     N 5721   6.888   5.157  -0.197  0.0407  0.4147 -0.8273
   43MOL0     N 5722   6.890   5.050  -0.123 -0.5985  0.6811  0.3666
   43MOL0     C 5723   6.230   4.552   0.767 -0.6343  0.5072  1.0800
   43MOL0     C 5724   6.141   4.475   0.843 -0.8227  0.1687  1.1323
   43MOL0     C 5725   5.900   4.151   1.043 -0.4672  1.5352 -1.0168
   43MOL0     C 5726   5.824   4.161   1.165 -0.8310  0.4587 -0.5148
   43MOL0     C 5727   5.753   4.058   1.216  0.3257 -0.0671  0.2341
   43MOL0     C 5728   5.722   3.948   1.138  0.5802 -0.3545  0.4113
   43MOL0     O 5729   5.673   3.837   1.203  0.2765 -0.6147 -0.3230
   43MOL0     C 5730   5.611   3.721   1.149 -0.5867 -0.2278  0.4698
   43MOL0     C 5731   5.472   3.752   1.122  0.8758 -0.6301  0.2383
   43MOL0     C 5732   5.404   3.655   1.032  0.0790 -0.4710 -0.5293
   43MOL0     C 5733   5.255   3.691   1.029  0.3974 -1.0073 -0.0799
   43MOL0     C 5734   5.187   3.600   0.947  0.2707  0.8385 -0.1049
   43MOL0     C 5735   5.125   3.524   0.880  0.1404 -0.1662  0.0838
   43MOL0     C 5736   5.788   3.932   1.015  0.4706  0.6873  0.4593
   43MOL0     C 5737   5.872   4.033   0.969  0.3288  0.2011 -0.6419
   43MOL0     H 5738   6.186   4.184   0.680  4.8261 -1.1821  0.6526
   43MOL0     H 5739   6.327   4.322   0.539  1.7612  2.2336  0.5859
   43MOL0     H 5740   6.276   4.747   0.577 -0.3279 -1.1725 -1.3971
   43MOL0     H 5741   6.415   4.736   0.683  0.8866 -4.3857  1.7720
   43MOL0     H 5742   6.553   4.677   0.469  0.7313  1.0894 -3.1144
   43MOL0     H 5743   6.433   4.767   0.387  1.0420 -1.8286 -0.6019
   43MOL0     H 5744   6.487   4.961   0.542 -1.6963 -1.7689  0.0007
   43MOL0     H 5745   6.624   4.882   0.604 -1.5941  0.8912  2.7143
   43MOL0     H 5746   6.688   4.823   0.351 -3.5482 -0.5569 -1.0050
   43MOL0     H 5747   6.588   4.965   0.316 -0.1261  0.4737 -0.2564
   43MOL0     H 5748   6.742   5.087   0.512  1.6885  1.3737 -1.4961
   43MOL0     H 5749   6.827   4.933   0.498  0.9614  0.1998  0.2126
   43MOL0     H 5750   6.828   5.159   0.309 -0.8004 -0.2875 -1.3173
   43MOL0     H 5751   6.959   5.087   0.382 -0.3777  1.1359 -0.6372
   43MOL0     H 5752   6.916   4.873   0.262 -1.5202  0.3094  1.4620
   43MOL0     H 5753   6.776   4.958   0.184 -2.6522 -0.0660  4.3478
   43MOL0     H 5754   7.039   4.943   0.066  1.6936  1.5361 -1.6682
   43MOL0     H 5755   7.057   5.082   0.165  0.9187 -0.9834 -0.5779
   43MOL0     H 5756   6.995   5.287   0.076  1.0210  1.9237 -1.0236
   43MOL0     H 5757   6.930   5.424  -0.277  0.7461 -0.1084 -0.6861
   43MOL0     H 5758   6.831   5.474  -0.137  1.7281  1.8285  2.3103
   43MOL0     H 5759   7.095   5.509  -0.224 -1.8972  0.6256 -1.7656
   43MOL0     H 5760   7.115   5.423  -0.070  0.0412  1.1495  2.3373
   43MOL0     H 5761   6.997   5.612   0.043 -1.3955  1.3688  0.1915
   43MOL0     H 5762   6.967   5.681  -0.120  3.3430  0.0520 -1.5620
   43MOL0     H 5763   7.117   5.797   0.014 -0.1053  0.7758 -2.4288
   43MOL0     H 5764   7.203   5.748  -0.128  0.7163 -0.8110  0.0638
   43MOL0     H 5765   7.506   5.537   0.097  1.2151 -1.1871  2.1361
   43MOL0     H 5766   7.714   5.586   0.349 -2.5800 -4.0771 -0.6220
   43MOL0     H 5767   7.706   5.525   0.176 -0.9978  0.4352 -1.1618
   43MOL0     H 5768   7.791   5.673   0.213  1.3371 -0.2125  3.0491
   43MOL0     H 5769   7.814   6.152   0.438  0.8341 -1.1891  0.2489
   43MOL0     H 5770   7.922   6.228   0.631 -0.1521 -0.8052  1.6489
   43MOL0     H 5771   8.054   6.103   0.844  2.0685  0.4787  1.8500
   43MOL0     H 5772   8.005   6.273   0.838 -0.6453 -2.4673 -3.7056
   43MOL0     H 5773   7.983   6.263   1.084  1.0760 -0.1499 -0.5423
   43MOL0     H 5774   7.993   6.091   1.090 -1.6618 -0.9345 -1.7012
   43MOL0     H 5775   8.225   6.300   1.020  2.3063 -0.9917 -0.8569
   43MOL0     H 5776   8.257   6.132   0.999  2.1412 -1.6009  4.0039
   43MOL0     H 5777   8.145   6.142   1.265  0.8172 -0.1738  1.6515
   43MOL0     H 5778   8.299   6.088   1.205 -0.3966  0.1921 -2.7320
   43MOL0     H 5779   8.222   6.377   1.280 -0.5607 -0.1065  0.0709
   43MOL0     H 5780   8.366   6.342   1.192 -2.2739  2.8914  0.5648
   43MOL0     H 5781   8.332   6.201   1.453 -0.9070  0.8840 -0.7878
   43MOL0     H 5782   8.471   6.208   1.352  0.3318 -0.4474 -0.9396
   43MOL0     H 5783   8.344   6.464   1.477  0.7741  0.3200 -0.7955
   43MOL0     H 5784   8.505   6.456   1.387 -0.2067  1.7232  1.1242
   43MOL0     H 5785   8.568   6.289   1.566 -1.0365 -1.0663 -1.6888
   43MOL0     H 5786   8.444   6.360   1.663  1.1310 -1.4603 -0.0623
   43MOL0     H 5787   7.635   6.020   0.883  3.1152 -1.3256  0.5753
   43MOL0     H 5788   7.512   5.942   0.663  0.6411 -0.3000  0.3143
   43MOL0     H 5789   7.385   5.932   0.345 -1.1221 -1.4646  1.1251
   43MOL0     H 5790   7.224   5.850   0.192 -0.4358  0.2279 -0.7737
   43MOL0     H 5791   6.250   4.657   0.786  0.1162  1.6929 -4.5378
   43MOL0     H 5792   6.097   4.529   0.926  1.0351  2.0044  1.0131
   43MOL0     H 5793   5.846   4.248   1.226  2.6846 -0.0394 -0.8879
   43MOL0     H 5794   5.709   4.073   1.314 -1.3328 -0.9823 -0.3336
   43MOL0     H 5795   5.660   3.680   1.061 -0.0994 -2.9447  1.8921
   43MOL0     H 5796   5.614   3.641   1.224  1.3978 -1.9552 -1.3069
   43MOL0     H 5797   5.468   3.846   1.066 -0.7935 -0.6158  0.3435
   43MOL0     H 5798   5.413   3.770   1.212 -1.0431  1.5016 -1.3045
   43MOL0     H 5799   5.433   3.552   1.054  2.8478  0.1006 -1.1760
   43MOL0     H 5800   5.443   3.687   0.935 -2.8245  1.5912 -1.1810
   43MOL0     H 5801   5.253   3.789   0.982  1.4295 -0.6373  0.6345
   43MOL0     H 5802   5.218   3.712   1.130 -3.5281 -2.0523 -1.0874
   43MOL0     H 5803   5.074   3.455   0.815  0.6568 -0.2960 -0.1933
   43MOL0     H 5804   5.781   3.842   0.954 -1.4369  2.2912 -1.8286
   43MOL0     H 5805   5.926   4.016   0.877 -0.9817  0.8357 -1.5550
   44MOL0     O 5806   6.244   3.526   3.916 -0.4175 -0.1156 -0.0090
   44MOL0     C 5807   6.222   3.453   3.821  0.2636  0.5924 -0.6844
   44MOL0     O 5808   6.150   3.472   3.712 -0.4999  0.0580  0.7130
   44MOL0     C 5809   6.096   3.585   3.663 -0.4866  0.2962  0.3692
   44MOL0     C 5810   6.073   3.701   3.743 -0.2610 -0.1346 -0.6381
   44MOL0     C 5811   6.024   3.810   3.673  0.8296 -0.0383 -0.5303
   44MOL0     C 5812   5.997   3.809   3.535 -0.3399  0.4666  0.0342
   44MOL0     O 5813   5.959   3.922   3.465  0.0554  0.5821  0.3263
   44MOL0     C 5814   5.869   4.011   3.527 -0.1670  0.1743 -0.1655
   44MOL0     C 5815   5.830   4.120   3.426 -0.2848  0.3352  0.7832
   44MOL0     C 5816   5.760   4.062   3.303 -0.0049 -0.1070  0.0202
   44MOL0     C 5817   5.618   4.053   3.339 -0.1699  0.0367  0.3017
   44MOL0     C 5818   5.539   3.997   3.223 -0.5271  1.1396  0.4748
   44MOL0     C 5819   5.447   4.093   3.161  0.0185 -0.4414 -0.1835
   44MOL0     C 5820   5.371   4.034   3.047  0.1405  0.0147  0.5221
   44MOL0     C 5821   5.279   4.142   2.992  0.8281 -0.2702  0.3555
   44MOL0     N 5822   5.168   4.184   3.092  0.4361 -0.2794  0.1929
   44MOL0     C 5823   5.172   4.300   3.165  0.0038 -0.4627  0.6807
   44MOL0     C 5824   5.057   4.299   3.240  0.9891 -0.0866  0.2674
   44MOL0     C 5825   5.028   4.392   3.348  0.0193 -0.0666  0.1388
   44MOL0     C 5826   5.081   4.349   3.492  0.8207 -0.1350 -0.6645
   44MOL0     C 5827   5.063   4.456   3.609 -0.2967  0.2383  0.2804
   44MOL0     C 5828   5.099   4.391   3.747  0.3190 -0.6594 -0.1373
   44MOL0     O 5829   5.219   4.312   3.743  0.5740  0.0796 -0.7800
   44MOL0     C 5830   5.339   4.367   3.731  0.0066  0.3441 -1.0886
   44MOL0     C 5831   5.379   4.477   3.812 -0.2163 -0.6255 -0.5074
   44MOL0     C 5832   5.504   4.544   3.805  0.3866 -0.2373 -0.7884
   44MOL0     C 5833   5.525   4.670   3.886  0.8847  0.1457  0.2466
   44MOL0     C 5834   5.600   4.496   3.718 -0.3263 -0.6866  0.3236
   44MOL0     C 5835   5.738   4.556   3.706 -0.1183 -0.1314 -0.2878
   44MOL0     O 5836   5.740   4.697   3.712  0.5003 -0.1440  0.5170
   44MOL0     C 5837   5.846   4.758   3.768  0.1339 -0.4991  0.1421
   44MOL0     C 5838   5.927   4.704   3.868 -0.1973  0.5729 -1.1454
   44MOL0     C 5839   6.040   4.776   3.918 -0.1058 -0.4976 -0.5394
   44MOL0     C 5840   6.063   4.905   3.873  0.5200 -0.9370 -0.2181
   44MOL0     O 5841   6.171   4.975   3.915  0.4675 -0.3842 -0.1078
   44MOL0     C 5842   6.201   4.964   4.057  0.0797 -0.3781  0.1955
   44MOL0     C 5843   6.302   5.073   4.106  0.4046 -0.3373  0.2246
   44MOL0     C 5844   6.238   5.211   4.067  0.5129  0.5401  0.7644
   44MOL0     C 5845   6.321   5.334   4.111  0.7238  1.4566  0.8417
   44MOL0     C 5846   6.231   5.450   4.154  0.4432  0.4063 -0.5905
   44MOL0     C 5847   6.333   5.552   4.210  0.3580 -0.4096 -0.4574
   44MOL0     C 5848   6.266   5.669   4.271  0.6458  0.1449 -0.3986
   44MOL0     C 5849   6.353   5.786   4.309  0.2002  0.5730  0.3836
   44MOL0    Cl 5850   6.436   5.762   4.472  0.2165 -0.1435 -0.5097
   44MOL0     C 5851   5.978   4.959   3.776 -0.4100 -0.8462  0.4766
   44MOL0     C 5852   5.881   4.886   3.717  1.7583 -0.8852  0.5343
   44MOL0     O 5853   5.833   4.487   3.679  0.0710  0.1440 -0.0818
   44MOL0     C 5854   5.569   4.383   3.639  0.2525 -0.1967 -0.7345
   44MOL0     C 5855   5.441   4.321   3.640  0.1667 -0.7986 -0.0357
   44MOL0     N 5856   4.983   4.195   3.207  1.2537  0.0274 -0.0736
   44MOL0     N 5857   5.050   4.120   3.113 -0.1934 -0.2807  0.4230
   44MOL0     C 5858   6.027   3.694   3.461  1.0469 -0.7608 -0.0926
   44MOL0     C 5859   6.079   3.580   3.524  0.6347 -0.4718 -0.7846
   44MOL0     C 5860   6.261   3.312   3.846  0.2592 -0.5828 -0.3142
   44MOL0     C 5861   6.272   3.260   3.972 -0.4171  0.8333  1.4043
   44MOL0     C 5862   6.317   3.125   3.990 -0.5648 -0.3205 -0.5841
   44MOL0     C 5863   6.344   3.048   3.873 -0.0517 -0.0895  0.0193
   44MOL0     O 5864   6.382   2.923   3.893  0.0637  0.4554 -1.0227
   44MOL0     C 5865   6.451   2.850   3.792 -0.1062 -0.2926 -0.4642
   44MOL0     C 5866   6.592   2.907   3.757  0.3974 -0.5403 -0.1480
   44MOL0     C 5867   6.679   2.848   3.646  0.3468  0.8237  0.1384
   44MOL0     C 5868   6.643   2.906   3.508 -0.4700  0.4156  0.4474
   44MOL0     C 5869   6.491   2.891   3.476 -0.0940  0.4572 -0.1811
   44MOL0     C 5870   6.375   2.866   3.444  0.5759 -0.8063  0.3368
   44MOL0     C 5871   6.333   3.110   3.744  0.2141 -0.1046  0.0955
   44MOL0     C 5872   6.293   3.236   3.727  0.3647 -0.6316  0.0159
   44MOL0     H 5873   6.099   3.710   3.848  0.5505 -2.1778 -0.6299
   44MOL0     H 5874   6.006   3.897   3.734 -2.0256 -1.2063  0.4394
   44MOL0     H 5875   5.778   3.960   3.559 -0.6708  1.2470  0.1678
   44MOL0     H 5876   5.902   4.066   3.615 -0.8151  0.0549  0.1573
   44MOL0     H 5877   5.766   4.196   3.474 -0.1737 -0.6762  2.6452
   44MOL0     H 5878   5.927   4.165   3.404  0.7530 -2.7930 -1.6447
   44MOL0     H 5879   5.772   4.129   3.217  0.9305 -0.2448  0.0372
   44MOL0     H 5880   5.798   3.964   3.275 -3.1013 -0.9843 -1.6005
   44MOL0     H 5881   5.608   3.980   3.420  0.3707  0.5843  0.8858
   44MOL0     H 5882   5.573   4.147   3.373 -0.3837 -0.4608  1.4422
   44MOL0     H 5883   5.606   3.963   3.143  1.3124  1.6714  1.7345
   44MOL0     H 5884   5.483   3.909   3.256  0.3324 -0.2138 -1.4576
   44MOL0     H 5885   5.375   4.115   3.241 -0.8648 -3.8134  0.1133
   44MOL0     H 5886   5.503   4.182   3.131 -0.3361 -1.0716 -2.9722
   44MOL0     H 5887   5.447   4.010   2.971  0.8506  1.3476  0.7733
   44MOL0     H 5888   5.322   3.940   3.074 -0.4154  0.1824  0.1165
   44MOL0     H 5889   5.222   4.110   2.904  0.4620 -0.4203  0.6449
   44MOL0     H 5890   5.332   4.227   2.949  3.8161 -2.0225  0.2385
   44MOL0     H 5891   5.249   4.376   3.170  0.9093 -1.3448  0.2883
   44MOL0     H 5892   5.063   4.485   3.302 -2.7417 -0.5902 -3.4357
   44MOL0     H 5893   4.920   4.391   3.365 -0.3442 -0.8802 -1.8871
   44MOL0     H 5894   5.189   4.335   3.481  0.8776 -0.4990  0.2889
   44MOL0     H 5895   5.029   4.254   3.504 -0.9256  0.3008 -3.6840
   44MOL0     H 5896   4.964   4.504   3.613 -2.4632 -3.7460 -0.2250
   44MOL0     H 5897   5.137   4.535   3.595  1.9927 -1.9250 -0.3369
   44MOL0     H 5898   5.019   4.339   3.801  1.3290  0.7416  2.9299
   44MOL0     H 5899   5.116   4.463   3.827  0.8784 -0.7376 -0.1856
   44MOL0     H 5900   5.308   4.501   3.890 -1.8322 -3.3108 -1.0028
   44MOL0     H 5901   5.620   4.681   3.939  1.3801 -0.4763 -0.4861
   44MOL0     H 5902   5.518   4.764   3.830  2.8353  0.8999  1.1801
   44MOL0     H 5903   5.450   4.668   3.966  2.3503  2.0597  1.7578
   44MOL0     H 5904   5.923   4.603   3.906  0.0869  0.6787 -0.8245
   44MOL0     H 5905   6.113   4.724   3.980  0.3571 -0.2768 -0.8927
   44MOL0     H 5906   6.108   4.979   4.113 -0.4256  2.7249 -1.2440
   44MOL0     H 5907   6.239   4.863   4.076  0.2930  0.2081  3.3134
   44MOL0     H 5908   6.316   5.078   4.214  0.8939  0.4174  0.1318
   44MOL0     H 5909   6.394   5.051   4.051 -0.7476 -1.4065 -1.3774
   44MOL0     H 5910   6.136   5.223   4.104  0.1704  0.7080 -0.2172
   44MOL0     H 5911   6.224   5.214   3.959  1.8673 -0.6174  0.5269
   44MOL0     H 5912   6.386   5.303   4.193 -1.0054 -3.2244  0.7747
   44MOL0     H 5913   6.385   5.364   4.027  0.1879  2.6161  0.8236
   44MOL0     H 5914   6.157   5.406   4.222  0.3588  0.6296 -0.5400
   44MOL0     H 5915   6.174   5.505   4.079 -0.4487  0.8495  0.3989
   44MOL0     H 5916   6.406   5.498   4.273 -1.9972 -3.0098  0.2671
   44MOL0     H 5917   6.388   5.599   4.129 -0.9924  2.1462  0.0250
   44MOL0     H 5918   6.209   5.638   4.360  1.3292  1.5891  0.5834
   44MOL0     H 5919   6.197   5.717   4.202  1.8972  6.1438  1.8899
   44MOL0     H 5920   6.292   5.876   4.321 -0.5746  0.6526 -3.0497
   44MOL0     H 5921   6.439   5.785   4.241  0.1668 -1.1962  0.3143
   44MOL0     H 5922   5.998   5.056   3.731  2.7160 -1.7859 -0.3733
   44MOL0     H 5923   5.818   4.938   3.646 -0.1317 -1.9933  1.3486
   44MOL0     H 5924   5.647   4.353   3.570  1.1185 -1.2006  0.6379
   44MOL0     H 5925   5.418   4.231   3.585  1.9023 -0.0021 -2.2005
   44MOL0     H 5926   6.001   3.703   3.356 -0.2190 -0.3853  0.2347
   44MOL0     H 5927   6.092   3.493   3.460 -1.2686 -1.5108  0.1713
   44MOL0     H 5928   6.247   3.321   4.058  2.1693  1.7436  1.5823
   44MOL0     H 5929   6.321   3.091   4.093 -1.9039  0.7570 -0.1539
   44MOL0     H 5930   6.474   2.748   3.824  2.5540 -0.4261 -2.4265
   44MOL0     H 5931   6.386   2.839   3.705  1.4530 -1.4424 -1.5301
   44MOL0     H 5932   6.653   2.897   3.847  0.9566 -2.0470 -0.6567
   44MOL0     H 5933   6.581   3.011   3.725 -1.3889 -1.6859 -3.7655
   44MOL0     H 5934   6.670   2.740   3.656 -1.1721  1.0782  1.9317
   44MOL0     H 5935   6.783   2.880   3.658  0.8252  1.2646 -3.7396
   44MOL0     H 5936   6.687   2.853   3.423  0.5071  1.3505  0.3506
   44MOL0     H 5937   6.690   3.004   3.507  0.8533 -0.1132  2.6520
   44MOL0     H 5938   6.274   2.851   3.410  1.7324 -4.3468 -2.1119
   44MOL0     H 5939   6.348   3.055   3.651  2.0722 -1.2419  1.0109
   44MOL0     H 5940   6.274   3.269   3.626  1.3797  2.1654  0.6565
   45MOL0     O 5941   7.820   2.024   6.385  0.0758  0.6160  0.8780
   45MOL0     C 5942   7.799   2.041   6.502 -1.6033  0.2146 -0.4276
   45MOL0     O 5943   7.892   2.102   6.588 -0.1223  0.6746  0.4697
   45MOL0     C 5944   8.025   2.116   6.553  0.7233 -1.4506 -0.2598
   45MOL0     C 5945   8.117   2.100   6.663  0.6459  0.2200 -0.3187
   45MOL0     C 5946   8.252   2.128   6.659 -0.4326 -0.3844 -0.5861
   45MOL0     C 5947   8.305   2.172   6.538 -0.2187  1.0106  0.2660
   45MOL0     O 5948   8.436   2.220   6.518 -0.7960  0.9503 -0.3618
   45MOL0     C 5949   8.541   2.172   6.594  0.1845  1.0142  1.1940
   45MOL0     C 5950   8.665   2.262   6.603  0.2179  0.6352  0.4431
   45MOL0     C 5951   8.769   2.163   6.665  0.1974  0.0050 -0.1167
   45MOL0     C 5952   8.877   2.121   6.563 -0.4151 -0.6152 -0.2641
   45MOL0     C 5953   8.994   2.035   6.615 -0.2670 -0.1912 -0.0418
   45MOL0     C 5954   9.091   2.018   6.498  0.3017 -0.7017 -0.5329
   45MOL0     C 5955   9.212   1.932   6.542  1.1270  0.3257  0.0477
   45MOL0     C 5956   9.318   1.925   6.428  0.2913 -0.1758  0.1549
   45MOL0     N 5957   9.367   2.061   6.406 -0.3662 -0.4378 -0.6721
   45MOL0     C 5958   9.429   2.131   6.512  0.3258  0.3734 -1.0625
   45MOL0     C 5959   9.439   2.256   6.451 -0.4728 -0.0616  0.0335
   45MOL0     C 5960   9.502   2.387   6.494 -0.4938  0.0938 -0.0117
   45MOL0     C 5961   9.391   2.457   6.574  0.9146  0.2198  0.1390
   45MOL0     C 5962   9.422   2.594   6.631  0.6555  0.6748 -0.0385
   45MOL0     C 5963   9.321   2.640   6.728  0.2153  0.3745 -0.2757
   45MOL0     O 5964   9.354   2.765   6.760 -0.9828 -0.4399  0.3240
   45MOL0     C 5965   9.436   2.801   6.867  0.0164  0.0568  0.2617
   45MOL0     C 5966   9.469   2.936   6.872 -0.7866  0.2141  0.6418
   45MOL0     C 5967   9.550   2.987   6.972  0.4929  0.4616 -0.2840
   45MOL0     C 5968   9.588   3.134   6.967  0.4764  0.9676 -1.0485
   45MOL0     C 5969   9.602   2.899   7.072  0.0481 -0.0024  0.2234
   45MOL0     C 5970   9.693   2.940   7.183  0.5918  1.3354  0.1854
   45MOL0     O 5971   9.766   2.829   7.238  0.7626  0.2186  0.9092
   45MOL0     C 5972   9.842   2.826   7.350  0.0763 -0.2234  0.1880
   45MOL0     C 5973   9.844   2.703   7.419 -0.5543  1.0450  0.0333
   45MOL0     C 5974   9.918   2.681   7.531  0.5151  0.0234 -0.3057
   45MOL0     C 5975   9.987   2.788   7.583 -0.2272 -0.1631  0.4769
   45MOL0     O 5976  10.057   2.795   7.703 -0.0775 -0.0470 -0.0012
   45MOL0     C 5977  10.083   2.669   7.758 -0.0195  0.2845  0.0177
   45MOL0     C 5978  10.183   2.670   7.873 -0.1450  0.6270  0.0128
   45MOL0     C 5979  10.170   2.559   7.974 -0.1305 -0.6244  0.0757
   45MOL0     C 5980  10.235   2.424   7.926  1.0090 -0.6873  0.7689
   45MOL0     C 5981  10.247   2.309   8.031 -0.7690  1.9204 -0.2535
   45MOL0     C 5982  10.336   2.193   7.987  0.1710  0.6804 -0.0456
   45MOL0     C 5983  10.374   2.110   8.112 -0.1047 -0.3049  0.2958
   45MOL0     C 5984  10.386   1.961   8.073 -0.3162 -0.2229  0.1753
   45MOL0    Cl 5985  10.428   1.868   8.214 -0.6153 -0.2617  0.1722
   45MOL0     C 5986   9.982   2.918   7.521 -0.7067  0.7640 -0.8251
   45MOL0     C 5987   9.905   2.940   7.403 -0.0098  0.1641 -0.1790
   45MOL0     O 5988   9.703   3.059   7.217 -0.1214  0.2982 -0.0691
   45MOL0     C 5989   9.565   2.759   7.056  0.0932  0.0492  1.0383
   45MOL0     C 5990   9.473   2.715   6.968 -0.5151 -0.1707  0.3810
   45MOL0     N 5991   9.390   2.239   6.317 -0.4951 -0.1339  0.0197
   45MOL0     N 5992   9.355   2.121   6.285 -0.4837 -0.3221 -0.1100
   45MOL0     C 5993   8.215   2.191   6.431  0.5698 -0.0764  0.3549
   45MOL0     C 5994   8.075   2.169   6.437 -0.1501  0.0980 -0.1688
   45MOL0     C 5995   7.668   1.986   6.566 -0.3887 -0.1036 -0.3770
   45MOL0     C 5996   7.562   1.921   6.497 -0.8937  0.2973  0.7333
   45MOL0     C 5997   7.468   1.849   6.567 -0.5156  0.3777 -0.0719
   45MOL0     C 5998   7.473   1.834   6.702 -0.0859  0.9580  0.0765
   45MOL0     O 5999   7.383   1.750   6.756 -0.9661  1.2486 -0.0083
   45MOL0     C 6000   7.354   1.746   6.897  0.8920 -0.4385  0.2173
   45MOL0     C 6001   7.209   1.766   6.914  0.8936 -0.7649  0.5468
   45MOL0     C 6002   7.162   1.899   6.870 -0.6650 -0.5344  0.5677
   45MOL0     C 6003   7.027   1.938   6.922 -0.1097  0.0100  0.1961
   45MOL0     C 6004   6.917   1.858   6.874  0.3883  0.6715  0.7874
   45MOL0     C 6005   6.813   1.811   6.823 -0.8883 -0.3140 -0.1690
   45MOL0     C 6006   7.570   1.916   6.771 -0.2710  0.5846 -0.8818
   45MOL0     C 6007   7.673   1.987   6.702 -0.1864  0.7530  1.1329
   45MOL0     H 6008   8.072   2.051   6.748  1.9419  0.5921  0.6070
   45MOL0     H 6009   8.302   2.113   6.754 -0.1332 -0.6791 -0.7848
   45MOL0     H 6010   8.506   2.151   6.696  0.0843  1.7914  1.3258
   45MOL0     H 6011   8.569   2.073   6.558  1.3587  2.2200 -1.5020
   45MOL0     H 6012   8.688   2.290   6.500 -0.3010  0.2539  0.2209
   45MOL0     H 6013   8.644   2.351   6.665 -0.0443  0.8494  0.0550
   45MOL0     H 6014   8.817   2.187   6.761  1.2177 -0.5571 -0.4721
   45MOL0     H 6015   8.716   2.071   6.694 -1.1392  1.2860  1.7943
   45MOL0     H 6016   8.830   2.068   6.480 -3.2511 -0.7507  1.3191
   45MOL0     H 6017   8.921   2.217   6.533  0.7055 -1.4796 -1.5726
   45MOL0     H 6018   9.048   2.093   6.691  2.9139  0.9790 -2.9487
   45MOL0     H 6019   8.957   1.939   6.652 -3.2169  1.2598  1.1174
   45MOL0     H 6020   9.032   1.981   6.414  0.1320 -0.0883 -0.6890
   45MOL0     H 6021   9.132   2.115   6.471 -0.4610 -1.0040 -3.0523
   45MOL0     H 6022   9.253   1.977   6.633  4.6280  0.9414 -1.6872
   45MOL0     H 6023   9.179   1.829   6.561  0.5067  0.7339  1.3407
   45MOL0     H 6024   9.274   1.878   6.339  1.7268  0.5722 -0.9981
   45MOL0     H 6025   9.407   1.865   6.451  1.1452  0.9523 -0.1059
   45MOL0     H 6026   9.449   2.095   6.612 -5.2930 -2.5141 -0.5969
   45MOL0     H 6027   9.588   2.373   6.561 -0.1575  1.1911 -0.2068
   45MOL0     H 6028   9.539   2.452   6.415 -0.8419  2.6115  1.7818
   45MOL0     H 6029   9.389   2.404   6.670  0.9249  1.8599  1.1027
   45MOL0     H 6030   9.303   2.461   6.510  0.3636  0.0885  0.8685
   45MOL0     H 6031   9.411   2.653   6.539 -1.6295 -1.9671 -1.5960
   45MOL0     H 6032   9.527   2.603   6.659  1.0470  1.9333 -1.7378
   45MOL0     H 6033   9.309   2.572   6.812 -0.9854  1.0325  0.1049
   45MOL0     H 6034   9.222   2.633   6.681 -1.5044 -0.9182  3.1883
   45MOL0     H 6035   9.436   3.005   6.795  0.4377  1.1930  0.9744
   45MOL0     H 6036   9.695   3.144   6.987  0.6207  0.7263 -1.6751
   45MOL0     H 6037   9.567   3.175   6.868  1.0261  1.8103 -0.8269
   45MOL0     H 6038   9.532   3.193   7.039  1.3713  2.1303 -1.2905
   45MOL0     H 6039   9.783   2.627   7.372 -5.7536  2.5579  3.5110
   45MOL0     H 6040   9.922   2.577   7.562 -3.5786 -0.7018 -1.6034
   45MOL0     H 6041   9.992   2.629   7.806  0.9127  0.1899  1.7915
   45MOL0     H 6042  10.120   2.603   7.679 -2.1147 -1.2865  0.2495
   45MOL0     H 6043  10.281   2.685   7.826 -0.5192  1.9859 -0.3705
   45MOL0     H 6044  10.164   2.757   7.936 -0.4500  0.3748  0.2721
   45MOL0     H 6045  10.066   2.530   7.989 -0.2844 -3.1198 -4.0265
   45MOL0     H 6046  10.204   2.583   8.075 -2.3796  0.8358  0.5625
   45MOL0     H 6047  10.176   2.387   7.841  0.3270 -0.6104  1.2032
   45MOL0     H 6048  10.332   2.448   7.882  1.9182 -4.2057  0.5438
   45MOL0     H 6049  10.146   2.269   8.043 -0.3851  0.6107 -1.2435
   45MOL0     H 6050  10.281   2.335   8.132 -0.8689 -2.8149  1.2652
   45MOL0     H 6051  10.298   2.136   7.901  1.2411  1.4147 -1.0401
   45MOL0     H 6052  10.429   2.229   7.942  0.1476 -2.8341 -3.5728
   45MOL0     H 6053  10.300   2.113   8.192  0.7029  0.2506  1.0375
   45MOL0     H 6054  10.468   2.147   8.153 -1.6904  3.4067  0.9184
   45MOL0     H 6055  10.477   1.958   8.012 -0.2801  0.4188  0.1881
   45MOL0     H 6056  10.302   1.922   8.014  1.9778 -4.2160 -0.8439
   45MOL0     H 6057  10.030   3.007   7.562 -3.0546  2.5401 -1.6883
   45MOL0     H 6058   9.890   3.039   7.360  0.2410  0.0940 -0.4313
   45MOL0     H 6059   9.596   2.694   7.137 -0.8487 -0.1415  1.2612
   45MOL0     H 6060   9.434   2.614   6.974 -1.7056  0.2507  0.0730
   45MOL0     H 6061   8.259   2.242   6.346  5.5417 -0.2749  2.4555
   45MOL0     H 6062   8.003   2.197   6.362 -1.1423 -1.8204  0.0002
   45MOL0     H 6063   7.566   1.915   6.389  0.4039 -0.3584  0.7874
   45MOL0     H 6064   7.393   1.786   6.521 -0.9651  1.6014 -1.0743
   45MOL0     H 6065   7.383   1.653   6.947 -0.0231  0.4870  2.5997
   45MOL0     H 6066   7.406   1.815   6.964 -3.4455  2.4541  1.0755
   45MOL0     H 6067   7.170   1.760   7.016 -3.0320 -0.4620 -0.7640
   45MOL0     H 6068   7.163   1.689   6.851  1.6618 -0.3139 -0.5936
   45MOL0     H 6069   7.146   1.897   6.762 -0.6397  2.2581  0.4348
   45MOL0     H 6070   7.228   1.980   6.903 -3.0697  2.0772 -0.5785
   45MOL0     H 6071   7.009   2.044   6.901  1.9470  0.4256  0.3120
   45MOL0     H 6072   7.032   1.925   7.030 -0.1917  2.5518  0.5760
   45MOL0     H 6073   6.722   1.779   6.777 -1.1752  2.3770 -1.7088
   45MOL0     H 6074   7.566   1.915   6.880 -1.1479 -1.9586 -0.8717
   45MOL0     H 6075   7.751   2.050   6.743  0.7015  0.9272 -0.7038
   46MOL0     O 6076  10.022   5.623   6.843 -0.3085 -0.7428  0.5358
   46MOL0     C 6077  10.059   5.613   6.958 -0.3520  0.7780  0.5235
   46MOL0     O 6078  10.120   5.715   7.032  0.1435 -0.3576  0.2926
   46MOL0     C 6079  10.185   5.827   6.979 -0.6500 -0.7593 -0.1012
   46MOL0     C 6080  10.180   5.881   6.853  0.7283 -0.0440 -0.4556
   46MOL0     C 6081  10.256   5.989   6.825 -1.3358  0.2297  1.0063
   46MOL0     C 6082  10.340   6.053   6.915  0.1512  0.0598 -0.5388
   46MOL0     O 6083  10.430   6.144   6.870 -0.1064 -0.5009  1.0728
   46MOL0     C 6084  10.369   6.243   6.783  0.0594 -0.4839 -0.3115
   46MOL0     C 6085  10.432   6.375   6.841  0.1880  0.1974  0.0394
   46MOL0     C 6086  10.360   6.435   6.967 -0.0700 -0.5264 -0.6973
   46MOL0     C 6087  10.450   6.523   7.062  0.0796  0.7271 -0.0816
   46MOL0     C 6088  10.490   6.650   6.992  0.3810 -0.9900 -1.1906
   46MOL0     C 6089  10.580   6.750   7.065  0.2165  0.1565 -0.3836
   46MOL0     C 6090  10.648   6.854   6.973 -0.8152 -0.5413  0.0055
   46MOL0     C 6091  10.697   6.975   7.057 -0.3605  0.0575  0.8201
   46MOL0     N 6092  10.753   7.077   6.974 -0.1669 -0.5394  1.1384
   46MOL0     C 6093  10.701   7.204   6.944  0.3353 -1.2105  0.7903
   46MOL0     C 6094  10.773   7.251   6.841  0.3128 -0.1180  0.5367
   46MOL0     C 6095  10.740   7.374   6.754 -0.2189 -0.7853  0.0222
   46MOL0     C 6096  10.602   7.360   6.680 -0.8639 -0.4755 -1.2213
   46MOL0     C 6097  10.534   7.485   6.642  0.2017 -0.4229  0.4043
   46MOL0     C 6098  10.480   7.566   6.761 -0.4797  0.6053  0.3932
   46MOL0     O 6099  10.355   7.620   6.719 -1.0151  0.1657  0.2311
   46MOL0     C 6100  10.284   7.681   6.814  0.9499 -0.5602 -0.3913
   46MOL0     C 6101  10.187   7.782   6.777 -0.6644  0.9880  0.3221
   46MOL0     C 6102  10.113   7.865   6.860 -0.9934 -0.1877  0.3822
   46MOL0     C 6103  10.029   7.968   6.793 -0.7102 -1.2615  0.2842
   46MOL0     C 6104  10.146   7.860   6.997  1.0784  0.3122 -1.1086
   46MOL0     C 6105  10.082   7.941   7.102 -0.4360 -0.0499 -0.3960
   46MOL0     O 6106  10.094   7.898   7.225 -0.1266 -0.3412 -0.4259
   46MOL0     C 6107  10.020   7.965   7.323  0.1752  0.6716 -0.5912
   46MOL0     C 6108  10.077   8.052   7.405  0.7339 -0.5066 -0.9033
   46MOL0     C 6109  10.008   8.113   7.501  0.2715 -0.1549 -1.1165
   46MOL0     C 6110   9.880   8.074   7.523 -0.4240  0.1654 -0.4373
   46MOL0     O 6111   9.810   8.143   7.619  0.9540  0.1843 -0.0220
   46MOL0     C 6112   9.702   8.242   7.576 -0.2565  0.3667  0.3768
   46MOL0     C 6113   9.753   8.367   7.645  0.0538  0.9463 -0.1803
   46MOL0     C 6114   9.714   8.364   7.793  0.5501  0.2704  0.0661
   46MOL0     C 6115   9.753   8.503   7.859  0.2787  0.2205  0.6031
   46MOL0     C 6116   9.702   8.526   7.999 -0.7846  0.8735  0.4527
   46MOL0     C 6117   9.547   8.503   8.022 -0.4722  0.1811 -0.5077
   46MOL0     C 6118   9.509   8.559   8.164 -0.7650 -0.6616  0.1755
   46MOL0     C 6119   9.581   8.484   8.280  0.1035  0.7295 -0.4202
   46MOL0    Cl 6120   9.562   8.301   8.259 -0.2560 -0.2789  0.1074
   46MOL0     C 6121   9.827   7.966   7.446  0.8087  0.2719 -0.6323
   46MOL0     C 6122   9.893   7.910   7.338  0.4959  0.2912  1.1496
   46MOL0     O 6123  10.022   8.045   7.073  0.2353  0.2495 -0.8035
   46MOL0     C 6124  10.248   7.770   7.042 -0.2087 -0.2032 -0.9060
   46MOL0     C 6125  10.308   7.679   6.954  0.1030 -0.9920  0.2170
   46MOL0     N 6126  10.871   7.164   6.818  0.6748  1.1947  0.5020
   46MOL0     N 6127  10.872   7.068   6.908 -0.6842 -0.5599 -0.2277
   46MOL0     C 6128  10.360   5.983   7.036 -1.0459 -0.1561  0.0504
   46MOL0     C 6129  10.286   5.876   7.068  0.3894  0.6547  0.8491
   46MOL0     C 6130  10.025   5.486   7.021  0.0213  0.6570 -0.1575
   46MOL0     C 6131   9.908   5.416   6.984  0.0633 -0.4287  0.8035
   46MOL0     C 6132   9.851   5.303   7.048 -0.2325 -0.4311 -0.1637
   46MOL0     C 6133   9.928   5.244   7.143 -0.5311 -0.1369  0.5541
   46MOL0     O 6134   9.874   5.130   7.194 -0.0756  1.2338 -0.6389
   46MOL0     C 6135   9.955   5.051   7.288  0.2804  0.1611  0.3615
   46MOL0     C 6136   9.892   4.917   7.324  0.2766 -0.2441  0.5623
   46MOL0     C 6137   9.841   4.831   7.209  0.4102  0.0661 -1.5500
   46MOL0     C 6138   9.740   4.722   7.268  1.0298 -0.2234  0.3423
   46MOL0     C 6139   9.739   4.602   7.190 -0.0469 -0.0347 -1.0231
   46MOL0     C 6140   9.740   4.490   7.150  0.1476 -0.0008  0.5477
   46MOL0     C 6141  10.054   5.304   7.184  0.5821 -0.5664 -0.8005
   46MOL0     C 6142  10.089   5.432   7.136 -0.0562  0.8822  0.7471
   46MOL0     H 6143  10.112   5.832   6.784 -0.7521 -1.4808  1.8666
   46MOL0     H 6144  10.239   6.033   6.727  1.8286 -0.2630  0.1313
   46MOL0     H 6145  10.410   6.234   6.682 -1.7712 -0.9512 -1.0351
   46MOL0     H 6146  10.261   6.252   6.792  0.1482  1.3388 -0.7415
   46MOL0     H 6147  10.540   6.362   6.853  0.6045  1.3960 -1.8938
   46MOL0     H 6148  10.406   6.444   6.760 -1.7801 -3.8321 -3.1611
   46MOL0     H 6149  10.271   6.487   6.929  0.0679 -0.4001 -0.8457
   46MOL0     H 6150  10.340   6.347   7.029  2.8108  0.5649  2.0351
   46MOL0     H 6151  10.407   6.546   7.160 -0.2262  0.3792 -0.1320
   46MOL0     H 6152  10.540   6.466   7.083 -0.4584  0.5464  1.9571
   46MOL0     H 6153  10.538   6.634   6.895 -0.8073 -1.9396 -1.6487
   46MOL0     H 6154  10.403   6.711   6.965  0.8891 -0.1520 -0.9857
   46MOL0     H 6155  10.523   6.804   7.141  1.1072 -0.2650  0.6174
   46MOL0     H 6156  10.661   6.688   7.106 -0.3703 -0.9049 -0.7807
   46MOL0     H 6157  10.729   6.813   6.912 -0.7993  0.6216 -0.7901
   46MOL0     H 6158  10.577   6.905   6.907  0.4315  3.0075  1.1754
   46MOL0     H 6159  10.759   6.950   7.143 -0.2703 -1.7677  0.2644
   46MOL0     H 6160  10.603   7.012   7.099 -1.8166  2.7710 -3.9417
   46MOL0     H 6161  10.611   7.252   6.980  0.8692  0.6344 -0.2138
   46MOL0     H 6162  10.739   7.462   6.819 -0.3709 -1.6731  1.2503
   46MOL0     H 6163  10.817   7.388   6.678  0.4276  1.3295  0.9877
   46MOL0     H 6164  10.541   7.303   6.750 -0.1951  0.5154  0.1925
   46MOL0     H 6165  10.632   7.304   6.590 -1.1323 -1.2804 -0.8242
   46MOL0     H 6166  10.450   7.466   6.575 -1.2702  0.5079  1.8998
   46MOL0     H 6167  10.601   7.535   6.572  0.8837 -2.2030 -0.2855
   46MOL0     H 6168  10.554   7.646   6.774 -0.7802  1.6548 -3.2566
   46MOL0     H 6169  10.470   7.498   6.846 -2.3522  0.1329 -0.1544
   46MOL0     H 6170  10.173   7.801   6.671  1.4729  0.0656 -0.1795
   46MOL0     H 6171   9.937   7.982   6.851 -1.0757 -0.0266 -0.5555
   46MOL0     H 6172  10.087   8.059   6.773 -2.6368  0.4336  1.9054
   46MOL0     H 6173   9.997   7.942   6.692  0.5777  1.2931 -0.8748
   46MOL0     H 6174  10.181   8.085   7.410  0.6994 -0.2789 -1.4856
   46MOL0     H 6175  10.058   8.195   7.551  2.7746 -2.8615  1.2836
   46MOL0     H 6176   9.693   8.253   7.468  2.6439  0.3343  0.0444
   46MOL0     H 6177   9.614   8.213   7.633 -0.1242  0.4414  0.6211
   46MOL0     H 6178   9.860   8.386   7.636  0.2780  0.7705  1.6226
   46MOL0     H 6179   9.706   8.455   7.601  0.8594  0.0264 -3.0837
   46MOL0     H 6180   9.764   8.278   7.838 -1.4424 -0.4535  1.0358
   46MOL0     H 6181   9.607   8.339   7.802  1.2452 -3.6852 -0.7697
   46MOL0     H 6182   9.862   8.508   7.856  0.2042  1.7655 -0.6312
   46MOL0     H 6183   9.708   8.586   7.804  0.6587 -0.6065 -1.0299
   46MOL0     H 6184   9.737   8.623   8.035 -2.2724  1.0269  1.5836
   46MOL0     H 6185   9.760   8.451   8.053  0.7639  1.4760 -0.3141
   46MOL0     H 6186   9.490   8.561   7.948 -0.3962 -2.0535 -2.4657
   46MOL0     H 6187   9.503   8.403   8.008 -1.5154  0.6666 -0.8430
   46MOL0     H 6188   9.403   8.557   8.188 -0.0165  1.0888  4.4166
   46MOL0     H 6189   9.548   8.661   8.164 -0.2504 -0.8122 -1.5731
   46MOL0     H 6190   9.541   8.514   8.377  2.7995 -0.5171  1.2041
   46MOL0     H 6191   9.688   8.504   8.288  0.3100  0.0696 -1.3180
   46MOL0     H 6192   9.720   7.954   7.463  0.4771  2.7127 -0.6731
   46MOL0     H 6193   9.850   7.833   7.275  0.3318 -0.1527  1.7833
   46MOL0     H 6194  10.272   7.759   7.147 -3.5257  1.5750  0.1822
   46MOL0     H 6195  10.374   7.604   6.996 -1.4369 -2.0840  0.7484
   46MOL0     H 6196  10.439   6.014   7.104  1.9675 -0.1139 -3.1586
   46MOL0     H 6197  10.300   5.830   7.165  1.4042  0.2267  0.5163
   46MOL0     H 6198   9.851   5.461   6.903 -0.7247 -1.2984  0.8678
   46MOL0     H 6199   9.747   5.281   7.027 -0.5365  1.8127 -1.3687
   46MOL0     H 6200  10.050   5.026   7.241  0.3398 -0.7042  0.9293
   46MOL0     H 6201   9.969   5.106   7.381 -2.1758 -2.3032  2.3396
   46MOL0     H 6202   9.811   4.928   7.396  3.0665  3.6133  3.6029
   46MOL0     H 6203   9.962   4.860   7.386 -1.3044 -1.1601  1.5708
   46MOL0     H 6204   9.929   4.774   7.175  0.6964 -1.3096  1.2071
   46MOL0     H 6205   9.801   4.905   7.140  1.0817  2.2550  0.2863
   46MOL0     H 6206   9.639   4.763   7.271  1.0691 -0.0039 -0.9033
   46MOL0     H 6207   9.770   4.707   7.372 -1.1248 -2.1472  0.7615
   46MOL0     H 6208   9.757   4.389   7.117  3.5270  1.8001 -4.4219
   46MOL0     H 6209  10.117   5.263   7.262 -0.0302 -1.2219 -0.6416
   46MOL0     H 6210  10.170   5.493   7.175  0.2324  1.9611 -1.3851
   47MOL0     O 6211   7.753  11.505   4.814  0.3374 -0.3854 -0.3630
   47MOL0     C 6212   7.792  11.515   4.695 -0.1619  0.7376  0.5173
   47MOL0     O 6213   7.708  11.537   4.592 -0.7251  0.2546  0.1299
   47MOL0     C 6214   7.603  11.618   4.626  0.7853 -0.3831 -0.2799
   47MOL0     C 6215   7.624  11.736   4.700  0.0573  0.0576  0.3690
   47MOL0     C 6216   7.525  11.829   4.711  0.3625  0.2765  0.1847
   47MOL0     C 6217   7.392  11.799   4.668 -0.6117 -1.8164  0.1184
   47MOL0     O 6218   7.294  11.893   4.694 -0.9120  0.5812 -0.6603
   47MOL0     C 6219   7.162  11.856   4.676  0.4080  0.5239  0.9173
   47MOL0     C 6220   7.116  11.757   4.785  0.2070  0.7142  0.0214
   47MOL0     C 6221   6.962  11.773   4.812 -0.3807  0.5562  0.0100
   47MOL0     C 6222   6.921  11.678   4.922 -0.7504 -0.7378  0.0098
   47MOL0     C 6223   6.776  11.711   4.962 -0.3219 -0.2224 -0.5620
   47MOL0     C 6224   6.671  11.689   4.854 -0.0282 -0.1642 -0.4103
   47MOL0     C 6225   6.534  11.720   4.922 -0.8392  0.6060  0.7851
   47MOL0     C 6226   6.447  11.824   4.848 -0.0507  0.2366 -0.6218
   47MOL0     N 6227   6.481  11.969   4.868  0.2234  0.6746 -0.0720
   47MOL0     C 6228   6.562  12.039   4.784  0.0846 -0.3390 -0.4490
   47MOL0     C 6229   6.606  12.148   4.849  0.4968 -0.1695  0.7048
   47MOL0     C 6230   6.693  12.256   4.804  0.3586  0.2362  0.0634
   47MOL0     C 6231   6.643  12.400   4.848 -0.7854  0.3470  0.0100
   47MOL0     C 6232   6.666  12.432   4.999 -0.5335 -0.2082 -0.3048
   47MOL0     C 6233   6.796  12.493   5.034 -0.8265  0.4716 -0.5784
   47MOL0     O 6234   6.792  12.493   5.174 -1.0393 -1.1306 -0.2476
   47MOL0     C 6235   6.926  12.517   5.226 -0.3445  0.1927  0.2927
   47MOL0     C 6236   7.025  12.598   5.168 -0.0780  0.1241  0.3862
   47MOL0     C 6237   7.142  12.643   5.241  0.2146  0.6708 -0.7991
   47MOL0     C 6238   7.231  12.744   5.166 -0.7446  0.0636  0.1062
   47MOL0     C 6239   7.173  12.582   5.374  0.0932  0.5236  0.2612
   47MOL0     C 6240   7.282  12.612   5.470  0.3813  0.4038 -0.4156
   47MOL0     O 6241   7.293  12.536   5.584 -1.3826  0.4268  0.9394
   47MOL0     C 6242   7.373  12.596   5.682 -0.2738 -0.6977  0.0748
   47MOL0     C 6243   7.485  12.528   5.741  0.2768 -0.3288  1.0631
   47MOL0     C 6244   7.577  12.595   5.817  0.1472  0.1945 -0.0616
   47MOL0     C 6245   7.570  12.732   5.847 -0.4453 -0.0456 -0.3351
   47MOL0     O 6246   7.666  12.798   5.921  0.4987  0.0329  0.5884
   47MOL0     C 6247   7.735  12.732   6.021 -1.0030  0.6738 -0.4009
   47MOL0     C 6248   7.835  12.816   6.105  0.2809 -0.7620 -0.9239
   47MOL0     C 6249   7.902  12.730   6.215  1.4606 -0.1073  0.5489
   47MOL0     C 6250   7.995  12.809   6.301  0.5419  1.2781  0.3350
   47MOL0     C 6251   8.085  12.708   6.366  0.0007  0.6585 -0.0865
   47MOL0     C 6252   8.190  12.782   6.461  0.1071  0.8045 -0.1218
   47MOL0     C 6253   8.274  12.660   6.522 -0.9021  0.3015 -0.2159
   47MOL0     C 6254   8.390  12.708   6.595  0.7678 -0.9412 -0.6308
   47MOL0    Cl 6255   8.330  12.793   6.744  0.3926 -0.3389 -0.1735
   47MOL0     C 6256   7.447  12.790   5.802 -1.1973 -1.0616  0.2349
   47MOL0     C 6257   7.349  12.733   5.721 -1.0679  0.0406  0.1231
   47MOL0     O 6258   7.357  12.705   5.443  0.1541  0.3295  0.6194
   47MOL0     C 6259   7.082  12.489   5.419  1.1681  0.6174  1.0635
   47MOL0     C 6260   6.956  12.460   5.350  0.4668 -0.7303 -0.0338
   47MOL0     N 6261   6.558  12.139   4.972  0.5785  0.0372 -0.2369
   47MOL0     N 6262   6.487  12.030   4.991  0.2411 -0.4618 -0.4164
   47MOL0     C 6263   7.375  11.685   4.583 -0.8689 -0.1846 -0.4656
   47MOL0     C 6264   7.480  11.595   4.566  1.3757  0.6932  0.7417
   47MOL0     C 6265   7.926  11.491   4.643 -0.1710 -0.4358  0.0542
   47MOL0     C 6266   8.030  11.528   4.731 -0.3155 -0.4140  0.4831
   47MOL0     C 6267   8.156  11.504   4.691 -0.1834  0.2897 -0.4358
   47MOL0     C 6268   8.191  11.431   4.574  0.0389 -0.8077 -1.2111
   47MOL0     O 6269   8.326  11.418   4.551 -0.6319 -0.2854  0.3314
   47MOL0     C 6270   8.362  11.367   4.425 -0.2811  0.6192  0.2047
   47MOL0     C 6271   8.507  11.373   4.418  0.3543  0.0063 -0.6342
   47MOL0     C 6272   8.551  11.522   4.410 -0.3464  0.2770 -0.9099
   47MOL0     C 6273   8.703  11.542   4.396 -0.2890 -0.2514 -0.9822
   47MOL0     C 6274   8.747  11.565   4.255 -0.3516 -0.6110  1.0891
   47MOL0     C 6275   8.802  11.595   4.153 -0.3238 -0.0043  0.4742
   47MOL0     C 6276   8.091  11.404   4.473  0.4352  0.8498 -0.2713
   47MOL0     C 6277   7.960  11.433   4.512  0.4747 -0.8533 -0.2082
   47MOL0     H 6278   7.724  11.762   4.736  0.2503 -0.2684  0.0670
   47MOL0     H 6279   7.540  11.917   4.773 -0.0540 -0.4723  1.3849
   47MOL0     H 6280   7.110  11.951   4.695 -0.5945 -0.4097  3.3651
   47MOL0     H 6281   7.148  11.827   4.572  0.6170  2.5179  0.2912
   47MOL0     H 6282   7.135  11.653   4.757  2.4746  0.9694  0.4560
   47MOL0     H 6283   7.171  11.774   4.878  3.0240  0.6188 -1.5219
   47MOL0     H 6284   6.928  11.875   4.834 -3.9432 -0.2490 -1.1375
   47MOL0     H 6285   6.907  11.741   4.723  0.3012  2.1685 -1.0344
   47MOL0     H 6286   6.936  11.574   4.893  2.1680 -0.7038  1.0391
   47MOL0     H 6287   6.990  11.684   5.007 -1.9893  2.0975  0.9547
   47MOL0     H 6288   6.739  11.666   5.054  0.0512  2.1569  0.8246
   47MOL0     H 6289   6.777  11.817   4.990 -0.6294 -0.0801 -1.0643
   47MOL0     H 6290   6.686  11.758   4.770  0.2995 -0.7960 -0.8812
   47MOL0     H 6291   6.682  11.590   4.809  0.6652 -0.3307  0.1180
   47MOL0     H 6292   6.487  11.621   4.922  1.1034 -0.3584  0.8157
   47MOL0     H 6293   6.544  11.744   5.028 -0.5849 -1.0329  1.1596
   47MOL0     H 6294   6.348  11.810   4.891  0.7313  0.7007  1.4970
   47MOL0     H 6295   6.450  11.801   4.741  2.8806  2.7545 -1.2455
   47MOL0     H 6296   6.594  12.016   4.683  0.8542 -0.9017 -0.0948
   47MOL0     H 6297   6.798  12.236   4.826  0.4359 -1.6817 -1.7536
   47MOL0     H 6298   6.700  12.255   4.695  0.0855  0.7028  0.0376
   47MOL0     H 6299   6.538  12.409   4.820 -0.4472  1.5950 -0.9610
   47MOL0     H 6300   6.692  12.469   4.779 -2.4337  1.5393 -0.0129
   47MOL0     H 6301   6.657  12.343   5.062  3.2936 -0.7148 -0.2112
   47MOL0     H 6302   6.590  12.500   5.038 -1.3804  0.1249 -2.4559
   47MOL0     H 6303   6.794  12.597   5.003  2.6301  1.3878  1.7469
   47MOL0     H 6304   6.885  12.447   4.991 -0.1322  1.2983 -0.0347
   47MOL0     H 6305   7.021  12.616   5.061 -3.2747 -1.8410  0.0509
   47MOL0     H 6306   7.179  12.840   5.158 -0.9022 -0.1489 -2.5565
   47MOL0     H 6307   7.330  12.757   5.210 -0.3912 -1.4644 -0.1902
   47MOL0     H 6308   7.262  12.716   5.065 -0.9445  0.9881 -0.2258
   47MOL0     H 6309   7.515  12.428   5.710 -1.7825 -0.4870 -0.5968
   47MOL0     H 6310   7.657  12.541   5.866  1.1762  1.6819 -0.0441
   47MOL0     H 6311   7.670  12.675   6.087 -1.6404 -0.9665 -2.3316
   47MOL0     H 6312   7.803  12.657   5.979 -2.8479 -1.3904  0.0853
   47MOL0     H 6313   7.905  12.874   6.044  1.2899 -0.3074  0.6154
   47MOL0     H 6314   7.777  12.896   6.152  3.7582  0.4529  1.7066
   47MOL0     H 6315   7.961  12.652   6.166 -0.8217 -1.0867 -0.7943
   47MOL0     H 6316   7.831  12.687   6.286  1.0913 -2.1650 -0.9933
   47MOL0     H 6317   8.047  12.872   6.228  0.2890  0.5919 -0.4447
   47MOL0     H 6318   7.944  12.879   6.368 -0.3718 -1.0181  2.1625
   47MOL0     H 6319   8.140  12.651   6.290  1.8637  2.5739 -0.2637
   47MOL0     H 6320   8.030  12.636   6.427 -0.7735 -0.2550 -1.7963
   47MOL0     H 6321   8.261  12.836   6.397 -0.9570  0.6365 -1.4817
   47MOL0     H 6322   8.160  12.838   6.549  2.2891  0.8602  0.6618
   47MOL0     H 6323   8.313  12.598   6.441 -2.2198  0.2547 -0.8374
   47MOL0     H 6324   8.215  12.606   6.597 -2.8740  4.2358  1.3671
   47MOL0     H 6325   8.429  12.787   6.530 -2.0574 -1.2652 -2.9229
   47MOL0     H 6326   8.459  12.628   6.622 -1.8562 -3.1687 -0.0914
   47MOL0     H 6327   7.438  12.893   5.835  3.7523  0.2577 -1.7103
   47MOL0     H 6328   7.269  12.791   5.675 -0.6862  0.4608 -0.0155
   47MOL0     H 6329   7.095  12.429   5.508  1.8743 -2.8125 -1.1607
   47MOL0     H 6330   6.894  12.377   5.385 -1.8572  0.8794 -0.0583
   47MOL0     H 6331   7.277  11.658   4.545 -0.8543  1.5241 -1.8480
   47MOL0     H 6332   7.465  11.520   4.489 -5.7016  1.4579  0.7380
   47MOL0     H 6333   8.018  11.576   4.828  0.2528 -4.2942  2.6509
   47MOL0     H 6334   8.225  11.550   4.760 -2.5499  0.1969  2.1701
   47MOL0     H 6335   8.326  11.265   4.409  1.4864  0.0318 -0.2353
   47MOL0     H 6336   8.320  11.424   4.342  1.1664  1.1786 -0.1704
   47MOL0     H 6337   8.545  11.307   4.340 -1.5957  2.0952 -3.5370
   47MOL0     H 6338   8.552  11.335   4.510  1.6213  1.4207 -0.6204
   47MOL0     H 6339   8.521  11.578   4.499 -0.7557 -5.6349  3.2448
   47MOL0     H 6340   8.501  11.575   4.328  2.0679  1.8986 -1.4418
   47MOL0     H 6341   8.773  11.476   4.448 -3.0773 -0.3745  3.1137
   47MOL0     H 6342   8.711  11.637   4.449  0.2910 -0.5490 -0.5221
   47MOL0     H 6343   8.863  11.629   4.071 -0.1036 -0.7499  0.3218
   47MOL0     H 6344   8.108  11.337   4.389 -3.0677 -3.0532  1.7353
   47MOL0     H 6345   7.882  11.377   4.462 -0.5337  0.6470 -0.3843
   48MOL0     O 6346   3.400   2.144  11.215 -0.9844  0.1232 -0.7565
   48MOL0     C 6347   3.385   2.266  11.210  0.2873  0.1040 -0.9820
   48MOL0     O 6348   3.462   2.352  11.288 -0.0791 -0.3444  0.1602
   48MOL0     C 6349   3.575   2.304  11.340  0.5807  0.5599  0.8581
   48MOL0     C 6350   3.573   2.212  11.447 -0.4790 -0.1692 -0.3142
   48MOL0     C 6351   3.698   2.164  11.497 -0.6862  0.9762  0.5435
   48MOL0     C 6352   3.817   2.179  11.429 -0.2929 -0.2952  0.6419
   48MOL0     O 6353   3.936   2.141  11.480 -0.0579 -0.0288  1.0234
   48MOL0     C 6354   4.047   2.233  11.476  0.1844 -0.5899 -0.3682
   48MOL0     C 6355   4.123   2.253  11.602 -0.4026  0.3968 -0.5658
   48MOL0     C 6356   4.033   2.261  11.724 -0.3093  0.4166 -0.3635
   48MOL0     C 6357   4.099   2.218  11.859 -1.1379 -0.8030  0.4423
   48MOL0     C 6358   4.209   2.322  11.891  0.0142 -0.3570  0.8912
   48MOL0     C 6359   4.256   2.320  12.040 -0.0463 -0.5357  0.4306
   48MOL0     C 6360   4.322   2.448  12.077  0.7792  0.3031 -0.0902
   48MOL0     C 6361   4.427   2.428  12.190  0.2158  0.2294 -0.5407
   48MOL0     N 6362   4.472   2.561  12.242  0.2757 -0.1580 -0.4679
   48MOL0     C 6363   4.587   2.616  12.209 -0.6566 -0.3600 -0.2765
   48MOL0     C 6364   4.580   2.747  12.233 -0.4529  1.5976 -0.5620
   48MOL0     C 6365   4.698   2.843  12.189  0.8255 -0.3128 -0.0705
   48MOL0     C 6366   4.647   2.993  12.193 -0.2905  0.3545 -0.4420
   48MOL0     C 6367   4.754   3.105  12.183 -0.1773  0.1820 -0.5022
   48MOL0     C 6368   4.695   3.233  12.238 -0.0743  0.0367  0.6911
   48MOL0     O 6369   4.639   3.229  12.373 -0.2271  0.2273 -0.5087
   48MOL0     C 6370   4.725   3.220  12.486 -0.4123  0.1716 -0.0478
   48MOL0     C 6371   4.685   3.171  12.608  0.4234  0.0205  0.0424
   48MOL0     C 6372   4.778   3.172  12.714 -0.0736 -0.3885  0.1759
   48MOL0     C 6373   4.717   3.129  12.850 -0.7563 -1.2222  1.1710
   48MOL0     C 6374   4.913   3.214  12.697  1.2883  0.0295 -0.1434
   48MOL0     C 6375   5.006   3.235  12.809  0.0853 -0.7307 -0.3985
   48MOL0     O 6376   5.137   3.248  12.772 -0.7605  0.2256 -0.4544
   48MOL0     C 6377   5.224   3.307  12.867 -0.3607 -0.2887 -0.1856
   48MOL0     C 6378   5.293   3.426  12.852 -0.3766 -0.5987 -0.1268
   48MOL0     C 6379   5.393   3.473  12.943  0.3429 -0.1557 -0.0907
   48MOL0     C 6380   5.429   3.397  13.056  0.7211  0.3274  0.2108
   48MOL0     O 6381   5.514   3.442  13.156  0.4439  0.6172  0.8469
   48MOL0     C 6382   5.546   3.582  13.157  0.3987  0.2629 -0.2369
   48MOL0     C 6383   5.632   3.613  13.281  0.8424 -0.7135  0.3224
   48MOL0     C 6384   5.784   3.622  13.268  0.2659  0.9213  0.4042
   48MOL0     C 6385   5.829   3.713  13.157  0.1926  0.2918  0.3274
   48MOL0     C 6386   5.986   3.721  13.149  0.4544  0.5241 -0.4003
   48MOL0     C 6387   6.050   3.583  13.100  0.1995 -0.1872  1.0401
   48MOL0     C 6388   6.201   3.600  13.105  0.0643  0.6211 -0.7433
   48MOL0     C 6389   6.292   3.472  13.108  0.4980  0.4626 -0.2103
   48MOL0    Cl 6390   6.301   3.419  13.280  0.1523 -0.3987  0.2397
   48MOL0     C 6391   5.369   3.269  13.065 -0.2239  0.3184  0.1976
   48MOL0     C 6392   5.273   3.225  12.969 -0.7983 -0.0540  0.2358
   48MOL0     O 6393   4.953   3.266  12.924 -0.6578 -0.6207  0.3316
   48MOL0     C 6394   4.943   3.264  12.575  0.7865  0.5485  1.2085
   48MOL0     C 6395   4.850   3.267  12.474 -0.3672 -0.0836  0.1427
   48MOL0     N 6396   4.466   2.764  12.297  1.1039 -0.3305  0.3353
   48MOL0     N 6397   4.398   2.657  12.313  0.4487 -0.2168  0.2762
   48MOL0     C 6398   3.818   2.274  11.318  0.6330 -0.3134  0.0034
   48MOL0     C 6399   3.696   2.328  11.273  0.9684 -0.2770  0.7342
   48MOL0     C 6400   3.279   2.327  11.138  0.7889  0.5832  0.0135
   48MOL0     C 6401   3.297   2.438  11.059 -0.0689 -0.5429  0.2843
   48MOL0     C 6402   3.179   2.496  11.011  0.3266  0.1828  0.2837
   48MOL0     C 6403   3.046   2.437  11.008 -1.0864 -0.1706 -0.7376
   48MOL0     O 6404   2.931   2.491  10.949  0.1286  0.7807 -0.3087
   48MOL0     C 6405   2.939   2.613  10.877 -0.3535  0.0450  0.8963
   48MOL0     C 6406   2.807   2.635  10.789 -0.4503 -1.0587 -0.3305
   48MOL0     C 6407   2.831   2.742  10.679 -0.1865  0.0337 -0.1075
   48MOL0     C 6408   2.711   2.749  10.598  1.0528  0.1984 -0.0304
   48MOL0     C 6409   2.604   2.824  10.674  0.6369 -1.3416  0.0639
   48MOL0     C 6410   2.517   2.887  10.733  0.3465 -0.1599  0.5312
   48MOL0     C 6411   3.034   2.318  11.085 -0.2372  0.2614  0.0765
   48MOL0     C 6412   3.145   2.268  11.147  0.1595  0.2146  0.4647
   48MOL0     H 6413   3.481   2.167  11.480 -1.7621  0.6062 -2.6169
   48MOL0     H 6414   3.702   2.080  11.566  1.7471 -1.6737 -2.4760
   48MOL0     H 6415   4.105   2.198  11.390 -0.2291  0.2412 -1.0021
   48MOL0     H 6416   4.016   2.337  11.459 -1.8237 -0.5991  2.4939
   48MOL0     H 6417   4.189   2.165  11.602  0.3574  0.9336  0.6392
   48MOL0     H 6418   4.180   2.345  11.590  1.6478 -0.2414  2.8225
   48MOL0     H 6419   3.994   2.362  11.735  2.1438  1.3921  0.0570
   48MOL0     H 6420   3.948   2.194  11.706  0.1328 -0.0393 -0.8091
   48MOL0     H 6421   4.027   2.215  11.942  1.3873  0.1098  2.8396
   48MOL0     H 6422   4.146   2.121  11.838  2.8838  1.5704 -3.0513
   48MOL0     H 6423   4.296   2.298  11.829 -1.4325  1.1108 -1.8686
   48MOL0     H 6424   4.187   2.426  11.866  0.9127 -1.0219 -3.3561
   48MOL0     H 6425   4.171   2.310  12.108 -0.7953 -3.7068 -0.7678
   48MOL0     H 6426   4.326   2.237  12.059  0.6820 -0.3711 -1.3322
   48MOL0     H 6427   4.376   2.489  11.991  2.8190  1.4393  1.6422
   48MOL0     H 6428   4.243   2.518  12.107  1.1495  0.7710 -0.1986
   48MOL0     H 6429   4.503   2.356  12.157 -0.5140 -0.2610 -1.1921
   48MOL0     H 6430   4.377   2.368  12.266  2.2241 -1.7161 -0.6492
   48MOL0     H 6431   4.665   2.580  12.143 -1.2323  2.4334 -2.7063
   48MOL0     H 6432   4.786   2.825  12.251  0.7730  2.1269  0.8079
   48MOL0     H 6433   4.720   2.821  12.084 -3.0629 -1.9536 -0.7214
   48MOL0     H 6434   4.607   3.004  12.295 -1.0563 -3.1025 -0.2680
   48MOL0     H 6435   4.577   3.007  12.110 -2.7615 -5.6522  0.1613
   48MOL0     H 6436   4.780   3.117  12.077  1.9096  0.8659  0.0543
   48MOL0     H 6437   4.843   3.070  12.236  1.4923  2.1387 -1.8795
   48MOL0     H 6438   4.613   3.258  12.170  0.2097 -2.4134 -0.6753
   48MOL0     H 6439   4.764   3.316  12.222  0.3667 -0.3859  0.3848
   48MOL0     H 6440   4.584   3.133  12.605 -0.7548  2.9017 -0.2991
   48MOL0     H 6441   4.687   3.220  12.904 -0.9740 -1.0147  0.7163
   48MOL0     H 6442   4.628   3.068  12.831 -0.1521 -2.4042  2.0734
   48MOL0     H 6443   4.795   3.074  12.902  0.1220 -2.4183 -1.2232
   48MOL0     H 6444   5.253   3.483  12.769  0.7006 -1.6172 -1.3931
   48MOL0     H 6445   5.442   3.569  12.928  2.0634 -0.8078  1.0197
   48MOL0     H 6446   5.597   3.603  13.062  0.3702  3.6965  0.3848
   48MOL0     H 6447   5.455   3.640  13.169  1.0418  0.8883  2.2635
   48MOL0     H 6448   5.608   3.717  13.305  4.5255  0.6843 -1.1678
   48MOL0     H 6449   5.610   3.558  13.372  0.7364  2.4346  2.3765
   48MOL0     H 6450   5.817   3.519  13.254 -0.9315 -0.0530  3.6987
   48MOL0     H 6451   5.823   3.656  13.364  1.5991  0.5693 -0.0005
   48MOL0     H 6452   5.791   3.675  13.062  1.5560 -1.6261  0.4938
   48MOL0     H 6453   5.790   3.814  13.175 -0.5500 -0.0610  0.7226
   48MOL0     H 6454   6.027   3.736  13.249 -0.7422 -1.4940  0.4714
   48MOL0     H 6455   6.022   3.792  13.075  0.7113 -1.1459 -1.9320
   48MOL0     H 6456   6.032   3.502  13.170 -2.8906 -1.8039 -1.3760
   48MOL0     H 6457   6.012   3.567  12.998  4.1068  1.7826 -0.9824
   48MOL0     H 6458   6.227   3.657  13.195  2.3984 -1.7047  0.1930
   48MOL0     H 6459   6.223   3.655  13.013  3.0538 -0.5619 -0.8552
   48MOL0     H 6460   6.389   3.498  13.067  1.3759 -0.2729  1.3035
   48MOL0     H 6461   6.246   3.395  13.046  0.4288 -2.2170  2.8824
   48MOL0     H 6462   5.386   3.200  13.147 -2.0142  2.0989  2.1573
   48MOL0     H 6463   5.219   3.132  12.984 -2.2863  0.8888  0.8898
   48MOL0     H 6464   5.037   3.316  12.564 -0.0793  1.5838 -2.5037
   48MOL0     H 6465   4.873   3.322  12.383 -0.5083 -2.2240 -1.2640
   48MOL0     H 6466   3.910   2.301  11.268  2.0596 -0.5911  2.2979
   48MOL0     H 6467   3.692   2.408  11.200  0.9221  1.0502  2.1357
   48MOL0     H 6468   3.390   2.494  11.065  0.4055 -1.4843  3.2984
   48MOL0     H 6469   3.193   2.584  10.949  2.0527  0.0819  0.4672
   48MOL0     H 6470   2.938   2.699  10.945 -3.3913  0.6571  0.2419
   48MOL0     H 6471   3.024   2.612  10.809 -2.4881 -0.9828 -1.9479
   48MOL0     H 6472   2.728   2.657  10.861 -1.1215 -3.7898 -0.1168
   48MOL0     H 6473   2.793   2.536  10.745  1.1118 -1.0441 -0.9395
   48MOL0     H 6474   2.916   2.737  10.611 -0.4398 -2.0461 -0.3423
   48MOL0     H 6475   2.842   2.834  10.736 -2.2777 -0.4959  1.2594
   48MOL0     H 6476   2.679   2.648  10.569 -1.0898  0.0378  2.5646
   48MOL0     H 6477   2.728   2.814  10.512  2.9043  1.5453  1.2904
   48MOL0     H 6478   2.433   2.912  10.796  0.9572  0.0141  1.2986
   48MOL0     H 6479   2.934   2.277  11.100 -0.5811  1.3378  0.8661
   48MOL0     H 6480   3.141   2.167  11.187  0.0741 -1.6767 -3.8301
   49MOL0     O 6481  10.818   0.947   3.182  0.5718  0.1176  0.0145
   49MOL0     C 6482  10.722   0.986   3.258  1.4053  0.6097  0.4870
   49MOL0     O 6483  10.600   0.932   3.251 -0.0796  0.4162 -0.6777
   49MOL0     C 6484  10.580   0.834   3.160  0.3329 -0.0035  0.1534
   49MOL0     C 6485  10.583   0.861   3.025 -0.3772 -0.7449  0.5060
   49MOL0     C 6486  10.566   0.762   2.930 -1.4223 -0.1783  0.6710
   49MOL0     C 6487  10.558   0.630   2.968 -0.5641  1.0239 -1.0774
   49MOL0     O 6488  10.550   0.519   2.881  0.6231  0.3322  0.2202
   49MOL0     C 6489  10.516   0.550   2.750  1.1224 -0.7944  0.5889
   49MOL0     C 6490  10.498   0.411   2.681 -0.1237 -0.8751  0.0642
   49MOL0     C 6491  10.415   0.418   2.550  0.2546  0.2280  0.4395
   49MOL0     C 6492  10.306   0.313   2.549  0.0274 -0.4886 -1.2396
   49MOL0     C 6493  10.231   0.317   2.420 -0.7796  0.5535 -0.4736
   49MOL0     C 6494  10.119   0.223   2.408 -0.4675  0.8522  0.2572
   49MOL0     C 6495  10.018   0.275   2.306  0.9216 -0.6887  0.4403
   49MOL0     C 6496  10.067   0.262   2.163  1.3305 -0.0785 -0.4559
   49MOL0     N 6497   9.955   0.275   2.057 -0.2991  0.3133  0.0165
   49MOL0     C 6498   9.913   0.388   1.999  0.1135  0.4847  0.1144
   49MOL0     C 6499   9.800   0.352   1.924  0.2228  0.1251  0.1395
   49MOL0     C 6500   9.725   0.444   1.822  0.4349 -0.0563 -0.0038
   49MOL0     C 6501   9.622   0.538   1.881 -0.7695 -0.0685  0.0200
   49MOL0     C 6502   9.519   0.464   1.968  0.3170  0.7165  0.3161
   49MOL0     C 6503   9.439   0.348   1.907  0.2678  0.1247  0.1546
   49MOL0     O 6504   9.353   0.409   1.811  0.1529  0.3555  0.2797
   49MOL0     C 6505   9.253   0.324   1.780  0.1223 -0.2018 -1.2500
   49MOL0     C 6506   9.148   0.307   1.873 -0.0982  0.7316  0.7273
   49MOL0     C 6507   9.040   0.223   1.834  0.1140 -1.2289 -0.2041
   49MOL0     C 6508   8.926   0.204   1.936 -1.1118  0.2197 -0.6427
   49MOL0     C 6509   9.044   0.150   1.710 -0.3791  0.2580 -0.3152
   49MOL0     C 6510   8.944   0.049   1.671 -1.0522  0.3225 -0.4643
   49MOL0     O 6511   9.001  -0.072   1.642 -0.0189  0.1783 -0.5433
   49MOL0     C 6512   8.925  -0.166   1.568 -0.2664  0.0588 -0.3759
   49MOL0     C 6513   8.994  -0.275   1.547 -0.3356  0.5531 -0.6938
   49MOL0     C 6514   8.965  -0.377   1.470  0.1013  0.1048  0.8881
   49MOL0     C 6515   8.856  -0.364   1.387 -0.0113  0.3479 -0.9141
   49MOL0     O 6516   8.808  -0.472   1.303  0.3942 -1.2599  0.2140
   49MOL0     C 6517   8.689  -0.457   1.229 -0.6598 -0.5438 -0.6291
   49MOL0     C 6518   8.648  -0.597   1.170 -1.4940 -0.9683  0.3887
   49MOL0     C 6519   8.758  -0.662   1.075  0.5035 -0.4659  0.8620
   49MOL0     C 6520   8.746  -0.601   0.935  0.6130 -0.1739  0.7186
   49MOL0     C 6521   8.874  -0.615   0.848 -0.6314 -0.4043  0.7754
   49MOL0     C 6522   8.975  -0.518   0.903  1.0384  0.0225 -0.1997
   49MOL0     C 6523   9.104  -0.510   0.827  0.0105  0.0862  0.8577
   49MOL0     C 6524   9.227  -0.455   0.911  0.7115 -0.0823  0.2530
   49MOL0    Cl 6525   9.206  -0.290   0.965 -0.2416  0.0684 -0.1031
   49MOL0     C 6526   8.785  -0.240   1.399 -0.2673  0.5829  1.2027
   49MOL0     C 6527   8.809  -0.139   1.493 -0.1028  0.7309 -0.0353
   49MOL0     O 6528   8.820   0.068   1.665  0.2159 -0.6833 -0.6135
   49MOL0     C 6529   9.149   0.169   1.618 -0.1234  0.2283  0.5049
   49MOL0     C 6530   9.247   0.259   1.664 -0.7671 -0.2249  0.1036
   49MOL0     N 6531   9.776   0.220   1.929 -0.1149 -0.7402 -0.7642
   49MOL0     N 6532   9.871   0.176   2.014  0.5267  0.0777  0.0686
   49MOL0     C 6533  10.529   0.602   3.103 -0.2297  0.0647 -0.5663
   49MOL0     C 6534  10.536   0.708   3.203 -0.1819 -0.4904 -0.4969
   49MOL0     C 6535  10.734   1.103   3.349  0.7646  0.2992  0.0270
   49MOL0     C 6536  10.618   1.159   3.404 -0.2314  0.0211 -0.7203
   49MOL0     C 6537  10.627   1.252   3.508  0.1052 -0.2891 -0.3200
   49MOL0     C 6538  10.757   1.295   3.551 -0.3824 -0.6100 -0.7534
   49MOL0     O 6539  10.780   1.399   3.637  0.5361  0.3714 -0.5787
   49MOL0     C 6540  10.738   1.374   3.770 -0.5604 -0.3490  1.3451
   49MOL0     C 6541  10.741   1.503   3.849 -0.2801 -0.3529  0.9498
   49MOL0     C 6542  10.856   1.516   3.953  0.3347  1.0172  0.3230
   49MOL0     C 6543  10.800   1.487   4.095 -0.3001  0.4083 -0.5510
   49MOL0     C 6544  10.702   1.591   4.134  0.6757 -0.4744 -0.7522
   49MOL0     C 6545  10.612   1.663   4.174  1.3355  0.2418  0.4605
   49MOL0     C 6546  10.867   1.248   3.480 -0.6016  0.3100  0.0285
   49MOL0     C 6547  10.854   1.142   3.395 -0.7119  0.7880 -0.2208
   49MOL0     H 6548  10.598   0.966   3.004 -2.8420 -0.1871  1.1174
   49MOL0     H 6549  10.582   0.799   2.829  0.2216  1.1129  1.3512
   49MOL0     H 6550  10.419   0.600   2.765  1.9840  0.6656  1.5181
   49MOL0     H 6551  10.593   0.611   2.703 -0.4975  0.2060 -0.9206
   49MOL0     H 6552  10.591   0.356   2.662 -0.9236 -2.8732  1.5128
   49MOL0     H 6553  10.444   0.351   2.755  3.1857 -2.0064  1.7764
   49MOL0     H 6554  10.372   0.518   2.536  2.7362  1.0006 -2.8387
   49MOL0     H 6555  10.482   0.405   2.465  0.0282 -1.1467  0.4477
   49MOL0     H 6556  10.353   0.214   2.557 -1.5589 -1.4201 -2.7450
   49MOL0     H 6557  10.230   0.314   2.627 -0.0360 -3.9508 -1.0733
   49MOL0     H 6558  10.206   0.423   2.411  1.4612  1.2582  0.7310
   49MOL0     H 6559  10.301   0.294   2.338 -2.7874  0.7967 -2.3466
   49MOL0     H 6560  10.146   0.117   2.395 -3.7157 -0.4542  2.7250
   49MOL0     H 6561  10.065   0.212   2.503 -1.4854 -2.1908 -0.5404
   49MOL0     H 6562   9.933   0.207   2.317  0.1861  0.1780  0.2155
   49MOL0     H 6563   9.983   0.376   2.331 -0.7936 -0.7070 -1.6662
   49MOL0     H 6564  10.105   0.160   2.153 -1.2266 -1.1742  0.3783
   49MOL0     H 6565  10.141   0.342   2.152  0.7146  0.6595  0.5723
   49MOL0     H 6566   9.957   0.487   2.011  0.9474  0.1131  0.1627
   49MOL0     H 6567   9.808   0.489   1.767  0.1462 -0.1247 -0.4975
   49MOL0     H 6568   9.676   0.382   1.746  0.2506 -1.0275  0.8782
   49MOL0     H 6569   9.582   0.592   1.795 -0.5698 -2.2455 -1.5096
   49MOL0     H 6570   9.665   0.621   1.937 -3.0154  0.5375  0.9675
   49MOL0     H 6571   9.447   0.541   1.998  0.2637  1.2964 -1.2410
   49MOL0     H 6572   9.555   0.414   2.058 -2.4648 -0.7421  0.7314
   49MOL0     H 6573   9.380   0.287   1.977 -1.1199  0.7853 -0.4087
   49MOL0     H 6574   9.503   0.286   1.844 -0.8912  1.2844 -2.2731
   49MOL0     H 6575   9.147   0.365   1.964  2.4041 -1.2099  2.1147
   49MOL0     H 6576   8.928   0.106   1.985 -0.2838  0.4631 -0.1638
   49MOL0     H 6577   8.937   0.278   2.016 -0.0903  1.7116 -2.1193
   49MOL0     H 6578   8.827   0.214   1.891 -0.8955 -2.6095 -2.0094
   49MOL0     H 6579   9.089  -0.289   1.598  0.3508  1.8517 -1.5419
   49MOL0     H 6580   9.017  -0.471   1.457  1.2623  1.0038 -1.5177
   49MOL0     H 6581   8.610  -0.425   1.297  2.2591 -0.0903  2.8688
   49MOL0     H 6582   8.707  -0.389   1.145 -0.5689 -0.3040 -0.4157
   49MOL0     H 6583   8.636  -0.655   1.262  2.7999 -1.2312  0.9901
   49MOL0     H 6584   8.552  -0.585   1.119 -0.5958  0.3916 -1.0928
   49MOL0     H 6585   8.742  -0.770   1.070  1.3982 -0.5669 -0.6782
   49MOL0     H 6586   8.861  -0.653   1.111  0.1802 -0.6186  1.8623
   49MOL0     H 6587   8.663  -0.657   0.889  0.8925 -1.7044  1.9968
   49MOL0     H 6588   8.698  -0.503   0.927 -2.7696 -1.7991 -1.5688
   49MOL0     H 6589   8.832  -0.578   0.753 -2.3407  2.0219  2.3512
   49MOL0     H 6590   8.913  -0.717   0.835  0.3470  0.2820 -2.5826
   49MOL0     H 6591   8.934  -0.421   0.875 -1.4575 -1.7643 -3.4396
   49MOL0     H 6592   8.990  -0.527   1.011 -4.2714  1.4270  0.9329
   49MOL0     H 6593   9.099  -0.447   0.738  2.2582 -0.1020  0.5490
   49MOL0     H 6594   9.126  -0.610   0.788 -2.8806  0.2982 -1.6532
   49MOL0     H 6595   9.313  -0.460   0.843  0.8862 -3.8744  0.5270
   49MOL0     H 6596   9.233  -0.512   1.005 -0.3391  0.3527  0.5943
   49MOL0     H 6597   8.703  -0.212   1.334  1.4709 -0.9959 -1.9258
   49MOL0     H 6598   8.738  -0.057   1.494  0.3622  1.1435  1.0711
   49MOL0     H 6599   9.158   0.122   1.521  0.6608  2.6857 -0.6950
   49MOL0     H 6600   9.335   0.267   1.600 -0.2704 -5.0302 -0.1528
   49MOL0     H 6601  10.495   0.503   3.133 -4.9192  1.2051 -1.2377
   49MOL0     H 6602  10.546   0.700   3.311  2.3288  1.1174 -0.5060
   49MOL0     H 6603  10.517   1.131   3.375  0.1227 -0.3172 -1.6497
   49MOL0     H 6604  10.536   1.296   3.546  0.3121 -0.7041  0.6666
   49MOL0     H 6605  10.637   1.331   3.772 -0.0105 -2.1227 -1.9004
   49MOL0     H 6606  10.804   1.299   3.815 -1.9864 -1.8697  1.0196
   49MOL0     H 6607  10.646   1.512   3.902  0.2919  0.1098  1.9235
   49MOL0     H 6608  10.752   1.587   3.780  0.1299 -0.2337  1.1581
   49MOL0     H 6609  10.902   1.615   3.952  0.9739  0.7415  1.4121
   49MOL0     H 6610  10.930   1.441   3.924  1.7817  3.1360 -1.8711
   49MOL0     H 6611  10.881   1.484   4.168  0.4589 -1.0849 -1.4034
   49MOL0     H 6612  10.762   1.385   4.100  2.3641 -0.7245 -1.6156
   49MOL0     H 6613  10.531   1.724   4.206 -0.5757 -1.5041 -0.8198
   49MOL0     H 6614  10.958   1.301   3.508 -2.0504  1.2187  3.6196
   49MOL0     H 6615  10.943   1.101   3.348 -1.6702 -2.4315  0.4548
   50MOL0     O 6616   7.393   6.637   5.309  0.1146 -0.0830 -0.3595
   50MOL0     C 6617   7.327   6.605   5.412 -0.4408  0.3536 -0.0601
   50MOL0     O 6618   7.227   6.511   5.416 -0.5784  0.1521 -0.0617
   50MOL0     C 6619   7.163   6.470   5.299 -0.3581 -0.7174 -0.4240
   50MOL0     C 6620   7.104   6.348   5.307  0.3745  0.8104 -0.1528
   50MOL0     C 6621   7.027   6.297   5.202  0.3733  0.0886  0.1338
   50MOL0     C 6622   7.001   6.383   5.091  0.7124 -0.3497  0.6822
   50MOL0     O 6623   6.928   6.330   4.986  0.7139  0.3597 -1.6537
   50MOL0     C 6624   6.791   6.368   4.954  0.0127 -0.1503 -0.9380
   50MOL0     C 6625   6.752   6.321   4.814 -0.1732  0.3078  1.1276
   50MOL0     C 6626   6.654   6.420   4.739 -0.4019  0.1196 -0.5318
   50MOL0     C 6627   6.610   6.367   4.595  0.2066 -0.0317 -0.0987
   50MOL0     C 6628   6.515   6.243   4.602  0.6663 -0.0493 -0.0647
   50MOL0     C 6629   6.383   6.284   4.682  0.0862  0.4677  0.5289
   50MOL0     C 6630   6.300   6.154   4.715  0.0687  0.3124 -0.4039
   50MOL0     C 6631   6.373   6.052   4.807 -0.0464 -0.4794  0.1430
   50MOL0     N 6632   6.421   6.118   4.938  0.3308 -0.0752 -0.3765
   50MOL0     C 6633   6.339   6.180   5.033 -0.3098 -1.8606 -0.1155
   50MOL0     C 6634   6.422   6.185   5.143  0.4418 -0.4475  1.1626
   50MOL0     C 6635   6.373   6.223   5.285 -0.0999  0.0149  0.1344
   50MOL0     C 6636   6.393   6.372   5.307 -0.3868  0.4598 -0.1073
   50MOL0     C 6637   6.354   6.408   5.449  0.9572 -0.8737  0.2892
   50MOL0     C 6638   6.199   6.411   5.461  0.3456  0.0989  0.4724
   50MOL0     O 6639   6.156   6.488   5.574 -0.0617  0.5136 -0.3968
   50MOL0     C 6640   6.132   6.441   5.694 -0.0195  0.4935 -0.0456
   50MOL0     C 6641   6.124   6.522   5.804 -0.4703 -0.3308  0.6716
   50MOL0     C 6642   6.097   6.483   5.939 -0.6070 -0.1550  0.7263
   50MOL0     C 6643   6.102   6.592   6.050  0.0731 -0.2815 -0.1806
   50MOL0     C 6644   6.085   6.340   5.957  0.9176  0.2201 -0.0197
   50MOL0     C 6645   6.056   6.286   6.084  0.9064  0.7145 -1.1768
   50MOL0     O 6646   6.049   6.362   6.195  0.8444  0.3011  0.1337
   50MOL0     C 6647   6.036   6.313   6.322  0.5480 -0.8146  0.0087
   50MOL0     C 6648   5.901   6.316   6.377 -0.4361 -0.3350 -0.3161
   50MOL0     C 6649   5.875   6.284   6.511 -0.6106 -0.4772  0.1593
   50MOL0     C 6650   5.986   6.221   6.574  0.1073 -0.2941 -0.2998
   50MOL0     O 6651   5.988   6.162   6.698  0.0548 -0.4500 -0.0351
   50MOL0     C 6652   5.873   6.164   6.776 -0.5367  0.4630 -0.4483
   50MOL0     C 6653   5.847   6.286   6.856  1.0377  0.0882 -0.4437
   50MOL0     C 6654   5.954   6.318   6.961  0.7764  0.6058  0.0224
   50MOL0     C 6655   5.975   6.217   7.069  0.6148 -0.5164  0.3477
   50MOL0     C 6656   6.070   6.274   7.164 -0.4386 -0.7970 -1.0225
   50MOL0     C 6657   6.215   6.292   7.105  0.2856 -0.0278 -0.7423
   50MOL0     C 6658   6.316   6.299   7.223  0.8035 -0.1420 -0.6309
   50MOL0     C 6659   6.454   6.299   7.166 -0.2863  0.0675 -0.1844
   50MOL0    Cl 6660   6.572   6.255   7.297  0.1993  0.4481 -0.1578
   50MOL0     C 6661   6.116   6.213   6.520  0.1300  0.5211 -0.2952
   50MOL0     C 6662   6.141   6.271   6.402 -0.0481 -0.7433  0.5431
   50MOL0     O 6663   6.032   6.162   6.084 -0.3833 -0.2397 -0.2821
   50MOL0     C 6664   6.088   6.260   5.845 -0.2065  0.3694 -0.4893
   50MOL0     C 6665   6.122   6.306   5.719 -1.0105  0.2040  1.2484
   50MOL0     N 6666   6.547   6.147   5.104  0.0158  0.7109  0.2215
   50MOL0     N 6667   6.546   6.103   4.989 -0.3075 -0.1845 -0.0569
   50MOL0     C 6668   7.045   6.515   5.091 -0.0410 -0.2314 -0.2396
   50MOL0     C 6669   7.134   6.550   5.191 -0.7898 -0.2682 -1.1410
   50MOL0     C 6670   7.370   6.675   5.531 -0.0092  0.4561  0.8434
   50MOL0     C 6671   7.307   6.638   5.655  0.6588  1.2358 -0.0293
   50MOL0     C 6672   7.346   6.702   5.771 -0.6530 -0.9357 -0.3646
   50MOL0     C 6673   7.458   6.788   5.766  0.6469 -0.0875 -0.7069
   50MOL0     O 6674   7.503   6.836   5.891 -0.2462  0.5251  0.1039
   50MOL0     C 6675   7.625   6.914   5.909 -0.1583  0.8517  0.2312
   50MOL0     C 6676   7.672   6.906   6.054  0.8885 -0.3506  0.0814
   50MOL0     C 6677   7.572   6.985   6.143  0.5374  0.0900  0.1536
   50MOL0     C 6678   7.629   6.987   6.285  0.4715  0.6706  0.2104
   50MOL0     C 6679   7.580   7.098   6.363 -0.2121 -0.7110 -0.8062
   50MOL0     C 6680   7.520   7.187   6.422  0.1889 -1.1428  0.9399
   50MOL0     C 6681   7.507   6.832   5.647  0.1877 -0.7874 -0.2225
   50MOL0     C 6682   7.464   6.776   5.530 -0.7178  0.4557 -1.2006
   50MOL0     H 6683   7.128   6.284   5.392  2.2253  0.6237 -0.7798
   50MOL0     H 6684   6.982   6.198   5.205  1.5238 -0.4308  1.3246
   50MOL0     H 6685   6.718   6.339   5.030  2.3644  0.9027  1.8934
   50MOL0     H 6686   6.785   6.477   4.953  1.8673  0.0597 -4.3321
   50MOL0     H 6687   6.843   6.312   4.755  0.8251  2.5910  2.1808
   50MOL0     H 6688   6.700   6.226   4.826  0.3374 -0.7342 -3.2953
   50MOL0     H 6689   6.570   6.431   4.808  1.8324  0.4763  2.3070
   50MOL0     H 6690   6.707   6.515   4.734  0.9734 -0.6648 -1.3725
   50MOL0     H 6691   6.556   6.447   4.544  2.0891  2.2415  1.2417
   50MOL0     H 6692   6.699   6.351   4.534 -0.2443 -0.9564 -0.5241
   50MOL0     H 6693   6.502   6.192   4.506  1.5475  0.4107 -0.4459
   50MOL0     H 6694   6.577   6.166   4.649  2.1536 -0.4461 -2.4674
   50MOL0     H 6695   6.401   6.337   4.776  0.5102 -1.7013  1.7253
   50MOL0     H 6696   6.332   6.352   4.612  0.0815  0.2945  0.3638
   50MOL0     H 6697   6.215   6.188   4.775  0.2882 -1.7655  1.1843
   50MOL0     H 6698   6.268   6.110   4.619  1.9968 -0.6304 -0.6617
   50MOL0     H 6699   6.444   6.005   4.738 -2.0793 -0.4037 -2.1208
   50MOL0     H 6700   6.314   5.978   4.862  1.0429  0.7076  3.1090
   50MOL0     H 6701   6.232   6.195   5.040 -0.1377 -1.5714  3.6398
   50MOL0     H 6702   6.266   6.203   5.293 -0.0454 -1.4768 -1.8925
   50MOL0     H 6703   6.427   6.170   5.364  0.4261  0.8202  0.3251
   50MOL0     H 6704   6.329   6.415   5.230  1.4015 -2.9715 -3.8418
   50MOL0     H 6705   6.495   6.407   5.288 -0.8741  2.7576  1.0299
   50MOL0     H 6706   6.392   6.510   5.461 -0.6618  0.0365 -1.7589
   50MOL0     H 6707   6.407   6.343   5.521  1.0217 -2.3564 -1.0456
   50MOL0     H 6708   6.171   6.306   5.464 -2.7386  0.7812 -0.8896
   50MOL0     H 6709   6.154   6.434   5.364  0.2332 -1.6734  0.0807
   50MOL0     H 6710   6.120   6.628   5.780 -0.9824 -0.9301 -2.2523
   50MOL0     H 6711   6.177   6.567   6.125 -1.2869 -1.4464  0.8527
   50MOL0     H 6712   6.122   6.685   5.997 -2.6157 -1.2603 -3.2664
   50MOL0     H 6713   6.009   6.617   6.102  0.0138 -0.7810 -0.0415
   50MOL0     H 6714   5.823   6.357   6.313 -0.7454  0.0045  0.2651
   50MOL0     H 6715   5.777   6.307   6.553 -0.2045  2.0781 -0.1613
   50MOL0     H 6716   5.791   6.127   6.714 -0.5516 -0.8682  0.3076
   50MOL0     H 6717   5.883   6.088   6.854  0.3687  2.4607  1.4842
   50MOL0     H 6718   5.821   6.371   6.792 -2.0080 -1.2102 -1.0900
   50MOL0     H 6719   5.757   6.268   6.914  0.8516 -1.8393 -1.2361
   50MOL0     H 6720   5.927   6.413   7.008  0.8484  1.2914 -1.2876
   50MOL0     H 6721   6.045   6.334   6.901 -0.9431  0.9650 -2.6460
   50MOL0     H 6722   5.878   6.202   7.115  0.3402 -0.9021 -0.3411
   50MOL0     H 6723   6.018   6.123   7.033  1.1515  0.9005 -3.1189
   50MOL0     H 6724   6.078   6.204   7.248 -2.1112 -0.5187 -0.6009
   50MOL0     H 6725   6.033   6.369   7.202  1.4277 -0.3575 -0.1678
   50MOL0     H 6726   6.248   6.213   7.036  1.2577  0.1562 -0.5002
   50MOL0     H 6727   6.221   6.386   7.048  0.2188 -0.8473 -2.1515
   50MOL0     H 6728   6.309   6.217   7.296 -2.7073  0.1559 -0.4532
   50MOL0     H 6729   6.299   6.395   7.272  0.5567 -1.4872  2.1020
   50MOL0     H 6730   6.473   6.400   7.129 -1.8650 -0.2966 -2.1944
   50MOL0     H 6731   6.455   6.229   7.081 -2.4828 -0.6792  0.3552
   50MOL0     H 6732   6.198   6.199   6.590 -0.1810  2.1147  0.4368
   50MOL0     H 6733   6.237   6.285   6.354 -1.5360  1.3702 -2.0793
   50MOL0     H 6734   6.057   6.156   5.848 -1.4720  0.7351  1.3670
   50MOL0     H 6735   6.105   6.237   5.637  3.4194 -0.8634  0.9652
   50MOL0     H 6736   7.026   6.584   5.010  0.6583 -0.3196 -0.4843
   50MOL0     H 6737   7.182   6.647   5.190 -0.9842 -0.1664 -0.6928
   50MOL0     H 6738   7.238   6.554   5.663 -0.3730  2.2118  1.8990
   50MOL0     H 6739   7.297   6.665   5.861 -1.0118 -0.9554 -0.5664
   50MOL0     H 6740   7.694   6.869   5.837 -2.5916 -0.9072 -1.1509
   50MOL0     H 6741   7.618   7.021   5.888 -0.1856  1.3905  2.6352
   50MOL0     H 6742   7.772   6.949   6.061  1.8055 -2.1182 -1.2788
   50MOL0     H 6743   7.661   6.799   6.070 -1.0303 -0.9625 -4.0298
   50MOL0     H 6744   7.478   6.929   6.142  0.5083  0.1305 -1.1767
   50MOL0     H 6745   7.563   7.087   6.103  0.5127 -0.1946 -0.5746
   50MOL0     H 6746   7.738   6.984   6.291  0.6583 -2.8975 -1.8230
   50MOL0     H 6747   7.581   6.904   6.338 -0.3281  1.6386  1.0610
   50MOL0     H 6748   7.478   7.270   6.475  2.7386  0.9663 -0.0991
   50MOL0     H 6749   7.584   6.908   5.640  0.4642 -1.1924 -2.4325
   50MOL0     H 6750   7.502   6.810   5.435 -2.4753 -1.0637 -2.5250
   51MOL0     O 6751   8.796   9.850   6.525 -0.4007  0.0581  0.5060
   51MOL0     C 6752   8.915   9.815   6.529  0.2602 -0.7826 -0.1909
   51MOL0     O 6753   8.969   9.695   6.475 -0.1077  0.1168 -0.3977
   51MOL0     C 6754   8.875   9.610   6.422 -0.3530 -0.3551  0.3101
   51MOL0     C 6755   8.837   9.641   6.298  0.7087  0.2356 -0.4017
   51MOL0     C 6756   8.754   9.556   6.228  0.3068  0.1744  1.1343
   51MOL0     C 6757   8.703   9.437   6.297 -0.7112 -0.3727 -0.3152
   51MOL0     O 6758   8.602   9.366   6.230  0.5658 -0.5639 -0.6571
   51MOL0     C 6759   8.555   9.242   6.288  0.6451  0.0803 -0.1619
   51MOL0     C 6760   8.468   9.156   6.206  0.1415  0.4902  0.1284
   51MOL0     C 6761   8.407   9.053   6.309  0.9226 -0.1594  0.1556
   51MOL0     C 6762   8.321   8.937   6.249 -1.2951  0.1789  0.8131
   51MOL0     C 6763   8.234   8.869   6.352  0.7130 -1.4951  0.2649
   51MOL0     C 6764   8.307   8.811   6.477 -0.2140 -0.2014 -0.6352
   51MOL0     C 6765   8.235   8.813   6.612 -0.0726  0.4999  0.0742
   51MOL0     C 6766   8.319   8.745   6.714  0.1367  0.2133  0.2761
   51MOL0     N 6767   8.260   8.767   6.852  0.0523  0.4382  0.4850
   51MOL0     C 6768   8.141   8.726   6.901  1.2504 -0.0239  1.3001
   51MOL0     C 6769   8.116   8.798   7.018 -0.0453  0.1397  0.5167
   51MOL0     C 6770   7.992   8.780   7.095  0.9017  0.1010  1.0051
   51MOL0     C 6771   8.000   8.696   7.215 -0.5556 -0.2563  0.3295
   51MOL0     C 6772   8.096   8.750   7.329  0.6324 -0.6292 -0.0049
   51MOL0     C 6773   8.035   8.721   7.470 -0.5476  0.4422 -0.0974
   51MOL0     O 6774   8.023   8.579   7.487  0.2425  0.0591 -0.0387
   51MOL0     C 6775   7.930   8.515   7.571 -0.2804  0.9259 -0.4332
   51MOL0     C 6776   7.958   8.379   7.596 -0.0410 -0.9088  0.3358
   51MOL0     C 6777   7.883   8.301   7.686 -0.3459  0.0394 -0.1530
   51MOL0     C 6778   7.937   8.152   7.702  0.4194 -0.7777 -0.3971
   51MOL0     C 6779   7.770   8.361   7.749  1.0720 -0.2740  0.2831
   51MOL0     C 6780   7.701   8.283   7.848  0.5729 -0.2897  0.9631
   51MOL0     O 6781   7.703   8.343   7.962 -0.8352  0.6879  0.1368
   51MOL0     C 6782   7.659   8.286   8.075  0.3192 -1.5307 -0.8918
   51MOL0     C 6783   7.714   8.165   8.130 -0.0576 -0.0633  0.0757
   51MOL0     C 6784   7.685   8.116   8.261  0.3624  0.4253  0.1633
   51MOL0     C 6785   7.605   8.197   8.331  0.5392 -0.9892  0.4117
   51MOL0     O 6786   7.571   8.172   8.455 -0.2941 -0.4330  0.8692
   51MOL0     C 6787   7.679   8.195   8.549  0.0310  0.5332  0.8324
   51MOL0     C 6788   7.644   8.168   8.691 -0.1593  0.4141  0.3515
   51MOL0     C 6789   7.554   8.281   8.745  0.1878 -0.1229  0.1930
   51MOL0     C 6790   7.517   8.298   8.899  0.1319 -0.0395  0.6715
   51MOL0     C 6791   7.472   8.444   8.914  0.0245  0.7521  0.3753
   51MOL0     C 6792   7.386   8.461   9.038 -0.6179  0.4019  1.0501
   51MOL0     C 6793   7.468   8.447   9.165  0.5473 -0.1895  0.4542
   51MOL0     C 6794   7.379   8.504   9.281  0.5319 -0.1414  0.7785
   51MOL0    Cl 6795   7.247   8.383   9.314  0.2369 -0.2139 -0.0302
   51MOL0     C 6796   7.540   8.308   8.283 -0.3106  0.1516 -0.6752
   51MOL0     C 6797   7.578   8.363   8.158 -0.2059  0.8519 -0.8101
   51MOL0     O 6798   7.670   8.167   7.823  0.0118 -0.4368 -0.8649
   51MOL0     C 6799   7.727   8.491   7.713  0.2237  0.0359  0.1817
   51MOL0     C 6800   7.807   8.559   7.622 -0.3435  0.3748  0.2985
   51MOL0     N 6801   8.209   8.897   7.031 -0.1497 -0.1058  0.0058
   51MOL0     N 6802   8.291   8.862   6.941 -0.6050 -0.3874  0.0325
   51MOL0     C 6803   8.744   9.418   6.428 -0.0850 -0.0479 -0.7815
   51MOL0     C 6804   8.825   9.505   6.493 -0.2652 -0.4913  0.0230
   51MOL0     C 6805   9.014   9.923   6.567 -0.3382  0.0510  0.5897
   51MOL0     C 6806   8.970  10.046   6.624  0.8389 -0.4823 -0.4055
   51MOL0     C 6807   9.061  10.153   6.644  0.4216  0.0005 -0.4534
   51MOL0     C 6808   9.192  10.145   6.598 -0.1682  0.0295 -0.1880
   51MOL0     O 6809   9.295  10.229   6.609  0.6603 -0.3673  0.1912
   51MOL0     C 6810   9.276  10.365   6.552 -0.4258 -0.3648  0.1211
   51MOL0     C 6811   9.327  10.473   6.635 -0.8600 -0.9809  0.5364
   51MOL0     C 6812   9.278  10.475   6.784 -0.0678 -0.1772  0.3027
   51MOL0     C 6813   9.344  10.602   6.858  0.0434  0.7274  0.4970
   51MOL0     C 6814   9.316  10.609   7.002 -0.0534  0.0409 -0.1817
   51MOL0     C 6815   9.288  10.617   7.119  0.0520  0.3232  0.3951
   51MOL0     C 6816   9.242  10.026   6.546  0.7751 -0.0055 -0.2166
   51MOL0     C 6817   9.153   9.921   6.526 -0.0868 -0.4524 -0.2297
   51MOL0     H 6818   8.877   9.732   6.254  0.9528 -0.0951 -0.8678
   51MOL0     H 6819   8.710   9.577   6.131  1.4526 -1.7744  0.1442
   51MOL0     H 6820   8.642   9.179   6.304  3.2181  3.9730  3.0679
   51MOL0     H 6821   8.502   9.258   6.382  0.2248 -1.6999 -0.0577
   51MOL0     H 6822   8.384   9.218   6.172 -1.3892 -2.0492 -1.0323
   51MOL0     H 6823   8.522   9.109   6.124  0.0104 -0.2060  0.4343
   51MOL0     H 6824   8.488   9.008   6.366 -0.8653 -0.7952  2.3145
   51MOL0     H 6825   8.331   9.100   6.373 -0.7772  1.7647 -3.0040
   51MOL0     H 6826   8.263   8.976   6.165 -2.0755 -0.4106  1.0732
   51MOL0     H 6827   8.387   8.863   6.203  1.5910  2.0235  1.6745
   51MOL0     H 6828   8.167   8.944   6.395  2.2331 -2.1434  4.1592
   51MOL0     H 6829   8.160   8.801   6.308  1.2217 -0.7382 -1.9248
   51MOL0     H 6830   8.332   8.706   6.461  0.1218 -0.1734 -0.3033
   51MOL0     H 6831   8.404   8.857   6.494 -0.8439  0.9051  0.0799
   51MOL0     H 6832   8.213   8.916   6.640  0.7221  1.1221 -1.4580
   51MOL0     H 6833   8.141   8.759   6.599 -0.2338  1.1451 -1.6484
   51MOL0     H 6834   8.420   8.784   6.701 -0.3607  2.0315  1.5189
   51MOL0     H 6835   8.326   8.639   6.688 -1.0983  0.2346 -0.2361
   51MOL0     H 6836   8.074   8.652   6.861  0.4903  1.0164  0.5877
   51MOL0     H 6837   7.949   8.871   7.137  2.2668  1.6980 -0.9347
   51MOL0     H 6838   7.919   8.734   7.028 -2.1358  1.1968  3.3304
   51MOL0     H 6839   8.044   8.603   7.179  0.6868  0.8427 -1.1531
   51MOL0     H 6840   7.903   8.667   7.256 -1.8336 -1.0796 -2.9520
   51MOL0     H 6841   8.103   8.858   7.319  0.2033 -0.6728 -0.9357
   51MOL0     H 6842   8.196   8.709   7.312  1.2379 -0.4508  2.6976
   51MOL0     H 6843   7.937   8.766   7.482 -2.5669 -3.0456 -1.8739
   51MOL0     H 6844   8.098   8.754   7.554 -0.5651  1.0816 -0.3290
   51MOL0     H 6845   8.045   8.343   7.542  1.2850  0.3742  1.5154
   51MOL0     H 6846   7.954   8.147   7.810  0.8954  1.2163 -0.3399
   51MOL0     H 6847   7.852   8.085   7.682  2.4762 -3.3420 -1.0449
   51MOL0     H 6848   8.032   8.128   7.654  0.5910  2.6383 -2.1216
   51MOL0     H 6849   7.774   8.109   8.060 -2.6079 -1.5633 -1.0492
   51MOL0     H 6850   7.704   8.019   8.307 -1.6265  0.1237  0.4304
   51MOL0     H 6851   7.748   8.116   8.519 -0.6637  0.5847 -1.0288
   51MOL0     H 6852   7.719   8.295   8.531  2.8136 -0.7681 -0.9263
   51MOL0     H 6853   7.587   8.076   8.706  0.4588 -0.1614 -0.6803
   51MOL0     H 6854   7.733   8.160   8.754 -0.4819  3.8723  1.4272
   51MOL0     H 6855   7.463   8.299   8.687 -0.5158 -1.2578  0.9103
   51MOL0     H 6856   7.625   8.363   8.731 -0.3817  0.9447  3.0155
   51MOL0     H 6857   7.432   8.234   8.925  2.9347 -4.0383  0.8694
   51MOL0     H 6858   7.602   8.275   8.963  2.1364 -1.3382 -2.2357
   51MOL0     H 6859   7.422   8.474   8.821  0.7835 -1.5558 -0.8679
   51MOL0     H 6860   7.560   8.502   8.940  1.0585 -2.0362  3.8718
   51MOL0     H 6861   7.340   8.560   9.031 -1.0263  0.0730 -1.8576
   51MOL0     H 6862   7.294   8.401   9.027  1.1544 -2.2116 -0.5737
   51MOL0     H 6863   7.562   8.503   9.167 -0.2615  1.3968  3.9994
   51MOL0     H 6864   7.490   8.342   9.184 -1.6341 -1.6411 -3.8504
   51MOL0     H 6865   7.327   8.593   9.244 -1.8957 -1.9894 -0.5747
   51MOL0     H 6866   7.435   8.533   9.370 -0.2116 -0.1386  1.2537
   51MOL0     H 6867   7.486   8.374   8.350  2.0778  5.5271 -3.4477
   51MOL0     H 6868   7.542   8.465   8.144  0.9492  1.5677  1.1355
   51MOL0     H 6869   7.633   8.530   7.751  1.0195  1.4718  0.7935
   51MOL0     H 6870   7.766   8.651   7.583  2.1167  1.3483 -0.1458
   51MOL0     H 6871   8.717   9.327   6.480 -1.4571  0.3193 -0.8055
   51MOL0     H 6872   8.856   9.493   6.597 -0.6994 -3.4669 -0.1095
   51MOL0     H 6873   8.868  10.067   6.656  1.3914 -1.4426  2.1869
   51MOL0     H 6874   9.019  10.234   6.704  0.6683 -1.4052  1.7302
   51MOL0     H 6875   9.325  10.379   6.455  1.5449  1.7187  1.3247
   51MOL0     H 6876   9.170  10.384   6.537 -1.1215 -4.0412 -0.6195
   51MOL0     H 6877   9.287  10.560   6.583  0.5516 -1.9347 -2.3552
   51MOL0     H 6878   9.436  10.478   6.635 -0.9137  1.6170  1.4002
   51MOL0     H 6879   9.307  10.386   6.840  2.6752  0.9550  0.8797
   51MOL0     H 6880   9.169  10.480   6.789 -0.3053 -1.3394 -2.3270
   51MOL0     H 6881   9.319  10.694   6.805  2.3059 -0.4411 -2.9486
   51MOL0     H 6882   9.454  10.600   6.853  0.0224 -0.2691  0.2198
   51MOL0     H 6883   9.246  10.615   7.217  1.7522  3.0442  1.2520
   51MOL0     H 6884   9.344  10.016   6.511  0.7994  2.2192 -0.9397
   51MOL0     H 6885   9.187   9.835   6.469  3.3700 -0.0478  0.9802
   52MOL0     O 6886   3.524   0.844  10.265 -0.3137 -0.5296  0.3753
   52MOL0     C 6887   3.443   0.775  10.202  0.4934 -0.1447 -0.3990
   52MOL0     O 6888   3.338   0.707  10.268 -0.0243  0.0524 -0.8284
   52MOL0     C 6889   3.348   0.681  10.400 -1.1656  0.2280  0.3552
   52MOL0     C 6890   3.232   0.695  10.481 -0.2269  1.0921  0.4210
   52MOL0     C 6891   3.242   0.666  10.619 -0.0979 -0.7510  0.3572
   52MOL0     C 6892   3.358   0.609  10.672 -0.1960 -0.7277 -0.1309
   52MOL0     O 6893   3.374   0.579  10.799 -0.1289 -0.7095  0.4938
   52MOL0     C 6894   3.326   0.670  10.899 -0.5137  0.4182 -0.8798
   52MOL0     C 6895   3.414   0.658  11.025 -0.1211 -0.0038 -0.5004
   52MOL0     C 6896   3.390   0.522  11.095 -0.3685 -0.5301  0.7756
   52MOL0     C 6897   3.506   0.422  11.087  0.6538 -0.4506 -0.6446
   52MOL0     C 6898   3.572   0.406  11.225 -0.0465  0.1858  0.6280
   52MOL0     C 6899   3.674   0.305  11.205 -0.1420 -0.1158  0.1377
   52MOL0     C 6900   3.756   0.285  11.339 -0.4078 -0.3669  0.5587
   52MOL0     C 6901   3.868   0.178  11.335 -0.8859  0.1073 -0.8110
   52MOL0     N 6902   3.927   0.165  11.204  0.0755  0.4009 -0.4500
   52MOL0     C 6903   3.939   0.044  11.143 -0.5695 -0.6166  1.1743
   52MOL0     C 6904   4.048   0.059  11.065 -0.2466 -1.2174 -0.1542
   52MOL0     C 6905   4.100  -0.049  10.972 -0.0028  0.1907 -0.4684
   52MOL0     C 6906   3.997  -0.097  10.865  0.1792  0.4002  0.4015
   52MOL0     C 6907   4.083  -0.178  10.766  0.4302 -0.1577  0.0581
   52MOL0     C 6908   3.991  -0.236  10.656  0.0956 -0.1821 -0.9784
   52MOL0     O 6909   3.931  -0.129  10.579 -0.2728 -0.1153 -0.4639
   52MOL0     C 6910   3.854  -0.155  10.471 -0.1858 -0.2289 -0.1166
   52MOL0     C 6911   3.798  -0.277  10.439 -0.1277 -0.0205 -0.8879
   52MOL0     C 6912   3.731  -0.311  10.322  0.2234 -0.1722 -0.4312
   52MOL0     C 6913   3.691  -0.450  10.304 -0.0488  0.6250 -0.2937
   52MOL0     C 6914   3.695  -0.208  10.239  1.2030 -0.0264  0.4717
   52MOL0     C 6915   3.630  -0.229  10.110  0.0168 -0.3269  0.3357
   52MOL0     O 6916   3.568  -0.115  10.062  0.0429  0.2577 -0.4375
   52MOL0     C 6917   3.517  -0.118   9.931 -1.1459  0.1506 -0.1875
   52MOL0     C 6918   3.383  -0.170   9.903 -0.0197 -0.1377  0.3991
   52MOL0     C 6919   3.332  -0.156   9.766 -0.6488 -0.1790  0.2719
   52MOL0     C 6920   3.410  -0.099   9.667 -0.0655 -0.0968  0.2734
   52MOL0     O 6921   3.376  -0.104   9.535  0.5238 -0.0102 -0.2493
   52MOL0     C 6922   3.379  -0.244   9.492  0.5179  0.4920 -0.2078
   52MOL0     C 6923   3.361  -0.252   9.343  0.0453  0.2454 -0.2451
   52MOL0     C 6924   3.227  -0.189   9.307  0.1988 -0.1415 -0.4082
   52MOL0     C 6925   3.174  -0.260   9.187  0.3103  0.2382  0.1533
   52MOL0     C 6926   3.045  -0.208   9.122  0.1410 -0.6031 -0.0675
   52MOL0     C 6927   3.044  -0.055   9.096  0.1672  0.0641  0.0437
   52MOL0     C 6928   3.134  -0.002   8.969 -0.0727 -0.5464  0.7955
   52MOL0     C 6929   3.120   0.149   8.934  0.6860 -0.9216 -0.0532
   52MOL0    Cl 6930   3.194   0.203   8.779 -0.2960  0.9132 -0.3538
   52MOL0     C 6931   3.536  -0.043   9.694 -0.0626  0.0263  0.0017
   52MOL0     C 6932   3.590  -0.053   9.822  1.0584  0.7374 -1.1283
   52MOL0     O 6933   3.622  -0.341  10.063  0.4610  0.1341 -0.2911
   52MOL0     C 6934   3.756  -0.084  10.261  0.5952 -0.8488 -0.0579
   52MOL0     C 6935   3.827  -0.056  10.384  0.9697 -0.1275 -0.4165
   52MOL0     N 6936   4.091   0.184  11.081 -0.0246  0.2238 -0.3393
   52MOL0     N 6937   4.025   0.245  11.164  0.0771 -0.3656  0.4072
   52MOL0     C 6938   3.472   0.603  10.599  1.0041  0.0946 -0.5358
   52MOL0     C 6939   3.469   0.637  10.465  0.1420 -0.8800 -0.1933
   52MOL0     C 6940   3.430   0.778  10.057 -0.0704 -0.5785  0.6544
   52MOL0     C 6941   3.346   0.684   9.994  0.0265 -0.0425  0.1884
   52MOL0     C 6942   3.324   0.694   9.850  0.0683  0.8227 -0.4325
   52MOL0     C 6943   3.401   0.778   9.764  0.6114  0.3087  0.2214
   52MOL0     O 6944   3.387   0.786   9.635  0.9254 -0.3619 -1.2905
   52MOL0     C 6945   3.264   0.866   9.606 -0.8268 -0.2770  1.2952
   52MOL0     C 6946   3.292   0.913   9.463  0.0540  0.5894  0.2587
   52MOL0     C 6947   3.407   1.005   9.451  0.6766  0.1851  0.1250
   52MOL0     C 6948   3.411   1.131   9.543 -0.0034 -0.7557  0.5694
   52MOL0     C 6949   3.538   1.192   9.494  0.4054  0.0705  0.1678
   52MOL0     C 6950   3.653   1.223   9.452 -0.7440 -0.3479  0.2157
   52MOL0     C 6951   3.495   0.857   9.828  0.7947 -0.8421  0.5157
   52MOL0     C 6952   3.497   0.877   9.971  0.2404  0.0072 -0.7663
   52MOL0     H 6953   3.143   0.734  10.434  1.5079  1.0661 -3.2106
   52MOL0     H 6954   3.152   0.679  10.678 -2.4295  2.4674 -3.4051
   52MOL0     H 6955   3.325   0.772  10.859  4.7361  0.3845 -1.8381
   52MOL0     H 6956   3.221   0.646  10.917 -0.4796  1.0398  0.2635
   52MOL0     H 6957   3.519   0.675  10.997  0.5832 -2.4456  0.4423
   52MOL0     H 6958   3.389   0.736  11.097  0.1253 -1.1077  0.8166
   52MOL0     H 6959   3.378   0.554  11.199  2.8923 -0.4055  1.2474
   52MOL0     H 6960   3.302   0.470  11.058  0.8601 -3.4077  1.6614
   52MOL0     H 6961   3.450   0.331  11.061 -3.2061  1.5288 -0.0699
   52MOL0     H 6962   3.575   0.449  11.007 -0.4687 -0.6269 -1.7040
   52MOL0     H 6963   3.622   0.497  11.257 -0.1814  1.0167 -1.3714
   52MOL0     H 6964   3.499   0.381  11.303  2.3936  2.1754  3.8207
   52MOL0     H 6965   3.623   0.211  11.182 -1.1420  0.6436 -0.8334
   52MOL0     H 6966   3.746   0.333  11.129 -3.0693  0.1308 -2.7684
   52MOL0     H 6967   3.814   0.378  11.344 -0.1069 -0.6129  2.0321
   52MOL0     H 6968   3.690   0.268  11.424 -5.4127  1.4594 -2.5507
   52MOL0     H 6969   3.819   0.083  11.360  1.0117 -0.2043  2.3475
   52MOL0     H 6970   3.940   0.195  11.415  1.4740 -1.1590 -2.5303
   52MOL0     H 6971   3.893  -0.050  11.172 -0.4673 -0.6665  1.1778
   52MOL0     H 6972   4.195  -0.017  10.927 -0.4558  2.1400 -0.1471
   52MOL0     H 6973   4.126  -0.122  11.048  1.6561  1.3607  0.1446
   52MOL0     H 6974   3.946  -0.019  10.808 -1.0334 -3.1200 -3.8538
   52MOL0     H 6975   3.927  -0.172  10.904  1.1445 -0.6290  0.1993
   52MOL0     H 6976   4.125  -0.264  10.820  3.0748  2.4868  2.6376
   52MOL0     H 6977   4.168  -0.128  10.718 -0.3052 -0.8952 -2.0993
   52MOL0     H 6978   3.917  -0.302  10.702 -0.8675  1.6406  0.1815
   52MOL0     H 6979   4.057  -0.294  10.591  1.8880  0.7793 -0.0907
   52MOL0     H 6980   3.843  -0.355  10.500  2.2618  0.9142 -1.3085
   52MOL0     H 6981   3.583  -0.461  10.310  0.0163 -2.5005 -2.3910
   52MOL0     H 6982   3.736  -0.487  10.211 -0.3562  1.1963 -0.6800
   52MOL0     H 6983   3.728  -0.505  10.391  2.7029  3.8308  0.8099
   52MOL0     H 6984   3.320  -0.220   9.975 -1.1889  3.0878  1.8411
   52MOL0     H 6985   3.235  -0.199   9.746 -1.0332  0.1170  1.4132
   52MOL0     H 6986   3.473  -0.292   9.519  0.3111 -0.4530 -1.1347
   52MOL0     H 6987   3.292  -0.292   9.538 -0.0472  2.0137  0.4057
   52MOL0     H 6988   3.441  -0.206   9.284  0.8133  0.3354  0.8380
   52MOL0     H 6989   3.360  -0.359   9.321  1.4767  0.0870  0.3472
   52MOL0     H 6990   3.233  -0.081   9.295 -0.4723  0.1043  1.2036
   52MOL0     H 6991   3.157  -0.219   9.386  0.8298 -1.1503 -0.2093
   52MOL0     H 6992   3.242  -0.252   9.101 -1.3053 -2.3750 -1.4949
   52MOL0     H 6993   3.164  -0.368   9.199  0.3521 -0.0465 -1.9872
   52MOL0     H 6994   2.966  -0.210   9.198  0.8021  1.8465  0.7673
   52MOL0     H 6995   3.018  -0.250   9.024  0.2098  0.4692 -0.5592
   52MOL0     H 6996   2.939  -0.036   9.070  0.4168  0.5249 -0.6669
   52MOL0     H 6997   3.065  -0.006   9.191 -0.1675 -0.0455  0.1730
   52MOL0     H 6998   3.112  -0.068   8.885  3.7708 -0.5478 -0.3909
   52MOL0     H 6999   3.238  -0.032   8.981 -0.0053 -0.2528  0.9658
   52MOL0     H 7000   3.172   0.204   9.013 -0.0006  0.5083 -0.5697
   52MOL0     H 7001   3.013   0.167   8.921  0.7450  0.8906  1.5650
   52MOL0     H 7002   3.595   0.014   9.623 -0.0391 -0.5056 -0.4132
   52MOL0     H 7003   3.688  -0.014   9.846  1.6153 -0.1139 -1.9554
   52MOL0     H 7004   3.722   0.004  10.206  0.9157 -1.1549 -0.7664
   52MOL0     H 7005   3.859   0.042  10.420 -0.7025 -0.5630  2.5345
   52MOL0     H 7006   3.563   0.580  10.653  0.0198 -0.5769  0.8813
   52MOL0     H 7007   3.567   0.641  10.419  0.0802  0.5467 -0.2269
   52MOL0     H 7008   3.281   0.621  10.054  3.0645 -0.7575  2.9934
   52MOL0     H 7009   3.246   0.624   9.820  0.7032 -0.4500  0.8038
   52MOL0     H 7010   3.169   0.812   9.607 -1.7280  1.1322 -1.1690
   52MOL0     H 7011   3.253   0.950   9.676 -2.3102  0.4093  0.2776
   52MOL0     H 7012   3.202   0.961   9.423 -0.5472  1.8340  2.8866
   52MOL0     H 7013   3.313   0.823   9.405  4.0286  0.0848  2.1166
   52MOL0     H 7014   3.401   1.043   9.348 -2.3383 -0.4236 -0.0221
   52MOL0     H 7015   3.499   0.949   9.471  0.0236 -0.9926 -0.0932
   52MOL0     H 7016   3.419   1.104   9.648  0.7073 -0.6910  0.5383
   52MOL0     H 7017   3.328   1.200   9.527 -1.6328 -2.5660  0.8416
   52MOL0     H 7018   3.744   1.265   9.414 -1.2365 -0.7088 -1.4452
   52MOL0     H 7019   3.547   0.939   9.779  0.7559 -0.3375  1.3086
   52MOL0     H 7020   3.559   0.956  10.010 -3.6176  2.2383  1.5128
   53MOL0     O 7021  11.387   3.269   8.974  0.0387 -0.0202  0.1520
   53MOL0     C 7022  11.485   3.330   8.935  0.2996  0.2207 -0.7500
   53MOL0     O 7023  11.547   3.312   8.810  0.0453  0.3523 -0.0376
   53MOL0     C 7024  11.500   3.203   8.731  0.8865 -0.4274  0.2066
   53MOL0     C 7025  11.363   3.175   8.694  0.8127 -0.2840  0.0153
   53MOL0     C 7026  11.340   3.078   8.589  0.8813 -0.2422 -0.9907
   53MOL0     C 7027  11.446   3.024   8.514  0.7602  0.1977 -0.2492
   53MOL0     O 7028  11.437   2.923   8.426  0.0175  0.2140 -0.1974
   53MOL0     C 7029  11.325   2.842   8.432  0.7138 -1.2179 -1.0795
   53MOL0     C 7030  11.367   2.722   8.352  0.4425  0.1104  0.7832
   53MOL0     C 7031  11.254   2.620   8.349 -0.2716  0.0024 -0.0317
   53MOL0     C 7032  11.210   2.566   8.488 -0.0713  0.1355  0.6045
   53MOL0     C 7033  11.101   2.456   8.464 -0.7671 -0.2240  0.2872
   53MOL0     C 7034  11.055   2.383   8.594 -0.1176 -0.8981 -0.5364
   53MOL0     C 7035  10.946   2.464   8.664 -0.2864  0.2772  0.6066
   53MOL0     C 7036  10.896   2.377   8.784 -0.1234  0.0003 -0.0053
   53MOL0     N 7037  10.803   2.457   8.857 -0.1118 -0.1032  0.6447
   53MOL0     C 7038  10.837   2.529   8.964 -0.3537 -0.7142  0.0309
   53MOL0     C 7039  10.723   2.590   9.003 -0.4286  0.0284 -1.4334
   53MOL0     C 7040  10.719   2.668   9.130  0.9166  0.6548 -0.7565
   53MOL0     C 7041  10.751   2.809   9.106  0.2080  0.0173  0.3398
   53MOL0     C 7042  10.649   2.888   9.028 -1.0684 -0.7900 -0.1659
   53MOL0     C 7043  10.689   3.039   9.002  0.1549  0.0078  0.0107
   53MOL0     O 7044  10.812   3.039   8.927  0.4048 -0.4029  0.2977
   53MOL0     C 7045  10.901   3.145   8.926 -0.3213 -0.0916 -0.4994
   53MOL0     C 7046  10.927   3.219   9.048 -0.2810  0.0555  0.2435
   53MOL0     C 7047  11.019   3.324   9.044 -0.0774 -0.0517 -1.3385
   53MOL0     C 7048  11.063   3.391   9.175 -0.8224  0.8736  0.1321
   53MOL0     C 7049  11.079   3.366   8.917  0.0876 -0.2478  0.0608
   53MOL0     C 7050  11.157   3.497   8.898  0.5319 -0.2578  0.1937
   53MOL0     O 7051  11.246   3.516   8.785 -0.2421 -0.1059 -0.4968
   53MOL0     C 7052  11.302   3.639   8.757 -0.8819 -0.1303  0.1256
   53MOL0     C 7053  11.244   3.770   8.775 -0.3943  0.0476  0.4098
   53MOL0     C 7054  11.300   3.893   8.752 -0.4286  0.0101  0.0457
   53MOL0     C 7055  11.428   3.900   8.697 -0.9102 -0.7454  0.0373
   53MOL0     O 7056  11.484   4.032   8.669  0.5222 -0.2746 -0.0854
   53MOL0     C 7057  11.562   4.053   8.549  0.5127  0.1494 -0.4188
   53MOL0     C 7058  11.482   4.082   8.422 -0.5288 -0.2927  0.1414
   53MOL0     C 7059  11.388   4.198   8.429  0.5015 -0.0551  0.1510
   53MOL0     C 7060  11.443   4.327   8.357 -0.5383 -0.2324 -0.5535
   53MOL0     C 7061  11.357   4.453   8.336  0.0352 -0.1458  0.1187
   53MOL0     C 7062  11.268   4.503   8.456 -0.5001  0.6395 -0.5130
   53MOL0     C 7063  11.183   4.628   8.413  0.5679  0.3497  0.9520
   53MOL0     C 7064  11.265   4.743   8.363  0.2577  0.1065 -0.0239
   53MOL0    Cl 7065  11.163   4.875   8.288  0.3299 -0.2840  0.0412
   53MOL0     C 7066  11.492   3.774   8.674 -0.0447 -0.9052 -0.2020
   53MOL0     C 7067  11.437   3.646   8.706 -0.0880 -0.5159  0.0474
   53MOL0     O 7068  11.142   3.575   8.991 -0.1827 -0.0893  0.1887
   53MOL0     C 7069  11.049   3.289   8.804 -0.2006 -0.0691  0.4223
   53MOL0     C 7070  10.956   3.190   8.807  0.2032  0.0645  0.3793
   53MOL0     N 7071  10.617   2.555   8.918 -0.4737  0.5710  0.1671
   53MOL0     N 7072  10.669   2.475   8.827 -0.4427 -0.7026  0.0885
   53MOL0     C 7073  11.574   3.040   8.562  0.6923  0.9093  1.4593
   53MOL0     C 7074  11.600   3.130   8.671 -0.1658  0.0226 -0.4494
   53MOL0     C 7075  11.545   3.434   9.016 -0.0596  0.4708 -0.1746
   53MOL0     C 7076  11.476   3.509   9.113 -1.2036  0.2137  0.7375
   53MOL0     C 7077  11.535   3.606   9.192 -0.4213  0.0120  0.0815
   53MOL0     C 7078  11.659   3.657   9.150  0.0135 -0.8616 -0.5883
   53MOL0     O 7079  11.715   3.753   9.233  0.4183 -0.4160 -0.0896
   53MOL0     C 7080  11.824   3.704   9.304  0.3203  0.0307  0.0421
   53MOL0     C 7081  11.950   3.793   9.310 -0.3359  0.1120  0.0822
   53MOL0     C 7082  12.021   3.805   9.170  0.3931 -0.3672  0.5716
   53MOL0     C 7083  12.156   3.871   9.175  0.8076 -0.2168 -0.4134
   53MOL0     C 7084  12.135   4.012   9.210 -0.1221  0.2847 -0.4875
   53MOL0     C 7085  12.125   4.133   9.225 -0.0202  0.5353 -0.0080
   53MOL0     C 7086  11.729   3.587   9.058 -0.1707 -0.5746  0.2147
   53MOL0     C 7087  11.673   3.477   8.995 -0.5011 -0.7295 -0.8892
   53MOL0     H 7088  11.279   3.216   8.750  1.8697  3.9500 -1.1696
   53MOL0     H 7089  11.240   3.042   8.570  0.3875  2.2752 -4.0606
   53MOL0     H 7090  11.309   2.801   8.532 -0.1779  2.4266  0.4424
   53MOL0     H 7091  11.241   2.888   8.378  1.6632 -0.4167 -1.9217
   53MOL0     H 7092  11.382   2.757   8.249 -1.6436 -2.4224 -0.5136
   53MOL0     H 7093  11.460   2.677   8.387  0.4122 -0.0103  0.7079
   53MOL0     H 7094  11.169   2.682   8.318  1.6154  3.1962  0.7462
   53MOL0     H 7095  11.279   2.550   8.269 -1.2184  1.3216 -1.5332
   53MOL0     H 7096  11.299   2.524   8.536 -0.1220  0.3832  0.9165
   53MOL0     H 7097  11.164   2.648   8.543 -4.0545 -0.6661 -1.1744
   53MOL0     H 7098  11.014   2.494   8.409  1.1498 -3.1802 -5.7175
   53MOL0     H 7099  11.147   2.380   8.400  0.1144  0.8376 -0.3814
   53MOL0     H 7100  11.032   2.280   8.569  2.0943 -2.4195  2.9303
   53MOL0     H 7101  11.142   2.375   8.660  1.3331  1.7321 -1.9227
   53MOL0     H 7102  10.974   2.567   8.686  1.3854 -0.0444  0.1021
   53MOL0     H 7103  10.862   2.470   8.595  0.2678  0.1343 -0.0898
   53MOL0     H 7104  10.969   2.341   8.857 -2.4898 -1.8346  1.5843
   53MOL0     H 7105  10.845   2.290   8.742 -2.0854  1.1238 -0.1057
   53MOL0     H 7106  10.938   2.528   9.005 -0.4247 -2.3775  0.2238
   53MOL0     H 7107  10.614   2.671   9.160  0.4337  0.4698 -2.3416
   53MOL0     H 7108  10.774   2.622   9.213 -3.0515 -1.4970  0.9584
   53MOL0     H 7109  10.844   2.813   9.049  0.6982  0.1330  1.1248
   53MOL0     H 7110  10.776   2.854   9.203  2.1498 -1.3447  0.5437
   53MOL0     H 7111  10.552   2.875   9.076  0.4642 -0.1967  3.3712
   53MOL0     H 7112  10.643   2.836   8.932  1.2430 -1.3451 -0.0566
   53MOL0     H 7113  10.694   3.096   9.095 -3.5418 -0.8513  0.8969
   53MOL0     H 7114  10.616   3.097   8.945  0.7791  1.5911  0.7910
   53MOL0     H 7115  10.874   3.184   9.136 -2.0177 -0.0109 -0.7968
   53MOL0     H 7116  11.036   3.321   9.255  1.1987 -1.2506 -0.9296
   53MOL0     H 7117  11.171   3.407   9.173 -0.4599 -0.9857  1.7910
   53MOL0     H 7118  11.015   3.487   9.191 -1.6538  1.1572 -3.2256
   53MOL0     H 7119  11.153   3.766   8.835  1.1073  0.3029  2.8816
   53MOL0     H 7120  11.252   3.978   8.797  1.5653  1.2212  0.0275
   53MOL0     H 7121  11.632   4.132   8.578  2.7102 -1.6324 -0.5900
   53MOL0     H 7122  11.634   3.971   8.537  1.9848  1.1094  1.2654
   53MOL0     H 7123  11.547   4.103   8.336  0.1823  3.1368  1.3387
   53MOL0     H 7124  11.423   3.993   8.403 -0.9582 -0.0169  0.1731
   53MOL0     H 7125  11.357   4.219   8.532  1.9630 -0.2280  0.6428
   53MOL0     H 7126  11.299   4.180   8.368  0.4981 -3.0229  0.8686
   53MOL0     H 7127  11.526   4.358   8.420  0.2981 -3.0501 -0.1522
   53MOL0     H 7128  11.473   4.297   8.256 -0.2709 -0.0187 -0.5383
   53MOL0     H 7129  11.285   4.434   8.255 -0.7833  0.4575  0.6918
   53MOL0     H 7130  11.428   4.528   8.300  1.0049 -0.2106  1.8097
   53MOL0     H 7131  11.197   4.425   8.484  0.3288  1.0953  3.4580
   53MOL0     H 7132  11.331   4.520   8.544  1.3202 -1.8015 -1.2212
   53MOL0     H 7133  11.121   4.669   8.493  2.4420 -0.1657  2.7560
   53MOL0     H 7134  11.128   4.594   8.325 -0.1558  0.0637  1.5087
   53MOL0     H 7135  11.336   4.702   8.291 -0.0871 -0.0433 -0.2802
   53MOL0     H 7136  11.308   4.789   8.452  1.7640 -0.2992 -0.5112
   53MOL0     H 7137  11.592   3.779   8.633 -0.2965  1.1086 -0.6736
   53MOL0     H 7138  11.510   3.570   8.679 -0.6616 -1.4322  0.9879
   53MOL0     H 7139  11.105   3.312   8.714 -1.3267  2.8245  0.3690
   53MOL0     H 7140  10.916   3.141   8.719  1.4174  1.3586 -0.9442
   53MOL0     H 7141  11.659   2.987   8.521  0.8969  1.3040  1.3639
   53MOL0     H 7142  11.704   3.152   8.695 -0.0798 -1.6757  0.9723
   53MOL0     H 7143  11.380   3.462   9.129 -1.1513 -1.5104 -2.9333
   53MOL0     H 7144  11.492   3.642   9.285  0.2525 -0.7803  0.7224
   53MOL0     H 7145  11.803   3.684   9.409  2.8396  0.7707  0.7388
   53MOL0     H 7146  11.869   3.611   9.269  0.5374  1.0415 -2.6014
   53MOL0     H 7147  12.030   3.748   9.370  0.5794  1.0788 -0.3636
   53MOL0     H 7148  11.922   3.890   9.352  1.1515 -0.3476  2.2693
   53MOL0     H 7149  11.952   3.847   9.096  1.2414 -0.1079 -0.0975
   53MOL0     H 7150  12.036   3.701   9.137 -2.7488 -1.4478  2.2295
   53MOL0     H 7151  12.202   3.852   9.078  3.3728 -0.9466  0.8553
   53MOL0     H 7152  12.218   3.833   9.257  0.8272  4.8173  2.3704
   53MOL0     H 7153  12.121   4.239   9.245 -1.3279  0.3727  0.7133
   53MOL0     H 7154  11.831   3.605   9.026 -0.8778 -0.9459 -2.4918
   53MOL0     H 7155  11.736   3.418   8.930  0.5936 -0.3263 -0.2156
   54MOL0     O 7156   7.024   3.016   6.162  0.4510 -0.0773 -0.6181
   54MOL0     C 7157   6.907   3.045   6.128 -0.1269  0.1890 -0.6915
   54MOL0     O 7158   6.815   2.955   6.089 -0.1998 -0.1483  0.2790
   54MOL0     C 7159   6.853   2.823   6.083  0.8598  0.4585 -0.7179
   54MOL0     C 7160   6.803   2.731   6.172 -0.5453 -0.5001 -0.3937
   54MOL0     C 7161   6.852   2.594   6.181 -0.4666 -0.4639 -0.4816
   54MOL0     C 7162   6.933   2.551   6.077 -0.0488 -0.9338  0.1421
   54MOL0     O 7163   6.968   2.418   6.088  0.2160  1.0652  0.5261
   54MOL0     C 7164   7.092   2.371   6.033  0.4700  0.0855 -0.8194
   54MOL0     C 7165   7.079   2.223   5.975 -0.1588 -0.0015 -0.2619
   54MOL0     C 7166   6.962   2.194   5.885 -0.1646 -0.2613  0.1505
   54MOL0     C 7167   6.965   2.047   5.866 -0.2306  0.2985  0.2030
   54MOL0     C 7168   6.850   2.013   5.767  0.5841  0.2152  0.2916
   54MOL0     C 7169   6.856   1.855   5.747 -0.5332  0.2798 -0.0868
   54MOL0     C 7170   6.727   1.805   5.671 -0.4874  0.0096 -0.1520
   54MOL0     C 7171   6.739   1.840   5.523 -0.4457  0.3365  0.1708
   54MOL0     N 7172   6.610   1.850   5.455  0.5934 -0.8007 -0.3346
   54MOL0     C 7173   6.571   1.962   5.382 -1.0331 -0.4348 -0.1232
   54MOL0     C 7174   6.480   1.924   5.301 -1.3673 -0.1532 -0.2938
   54MOL0     C 7175   6.433   1.999   5.176  0.5721 -0.4056  0.0092
   54MOL0     C 7176   6.287   1.963   5.148 -0.8721 -1.4051 -0.1514
   54MOL0     C 7177   6.264   2.020   5.003  0.6361 -0.4347 -0.4319
   54MOL0     C 7178   6.150   1.950   4.939  0.5680  0.0804  0.1128
   54MOL0     O 7179   6.035   1.941   5.034 -0.2518 -0.2292 -0.2348
   54MOL0     C 7180   5.920   1.903   4.983  0.0777  0.3753 -0.1574
   54MOL0     C 7181   5.826   1.901   5.086  0.2166  0.0302 -1.0914
   54MOL0     C 7182   5.693   1.863   5.061 -0.2222 -0.5967  0.5909
   54MOL0     C 7183   5.599   1.852   5.178  0.3368 -0.6326  0.6629
   54MOL0     C 7184   5.652   1.833   4.927 -0.4702 -0.2611  0.0200
   54MOL0     C 7185   5.515   1.807   4.878 -0.0760 -0.0334 -1.2829
   54MOL0     O 7186   5.490   1.817   4.745  0.0413 -0.2179 -0.2122
   54MOL0     C 7187   5.353   1.833   4.717 -0.2570  1.5471  0.2553
   54MOL0     C 7188   5.290   1.948   4.664  0.4229  0.3474 -0.8688
   54MOL0     C 7189   5.152   1.949   4.643  0.8258 -0.1435 -0.3770
   54MOL0     C 7190   5.068   1.843   4.655  0.3138  0.9825  0.3274
   54MOL0     O 7191   4.929   1.844   4.648  0.0156 -0.4554  0.0016
   54MOL0     C 7192   4.857   1.964   4.609 -0.4346  0.2839 -0.5870
   54MOL0     C 7193   4.821   2.058   4.722  0.2225 -0.2918  0.2238
   54MOL0     C 7194   4.722   2.174   4.670 -0.2787 -0.3098  0.5508
   54MOL0     C 7195   4.670   2.256   4.789  0.1161 -0.8976 -0.9342
   54MOL0     C 7196   4.767   2.337   4.866  0.1519  0.1150  0.2687
   54MOL0     C 7197   4.698   2.423   4.974  0.0611 -0.2168  0.1340
   54MOL0     C 7198   4.623   2.349   5.075  0.4291  0.4053  0.1996
   54MOL0     C 7199   4.601   2.461   5.183  0.9485  0.4736  0.2188
   54MOL0    Cl 7200   4.480   2.407   5.316 -0.1035  0.2384  0.0139
   54MOL0     C 7201   5.131   1.729   4.707  0.1954  0.8057  0.2045
   54MOL0     C 7202   5.265   1.722   4.735  0.4185  1.0395  0.5195
   54MOL0     O 7203   5.433   1.777   4.961 -0.0008 -0.3221 -0.5715
   54MOL0     C 7204   5.744   1.848   4.831 -0.5622  0.6488 -0.5060
   54MOL0     C 7205   5.876   1.870   4.856 -0.0417 -0.7284  0.1793
   54MOL0     N 7206   6.456   1.791   5.317 -0.4096  0.6927 -0.6309
   54MOL0     N 7207   6.544   1.747   5.397  0.7237 -0.6423  0.5513
   54MOL0     C 7208   6.984   2.637   5.986 -0.1511 -0.9490 -0.0203
   54MOL0     C 7209   6.943   2.772   5.980 -1.1708 -0.0621 -0.0220
   54MOL0     C 7210   6.856   3.185   6.132  0.6462  1.0530 -0.3151
   54MOL0     C 7211   6.718   3.212   6.153 -0.3779  0.6346 -0.2306
   54MOL0     C 7212   6.673   3.337   6.154  0.7366 -0.0627 -0.3965
   54MOL0     C 7213   6.754   3.451   6.122 -0.1362 -0.3025  0.3168
   54MOL0     O 7214   6.686   3.570   6.119 -0.5072 -0.1482 -0.8570
   54MOL0     C 7215   6.751   3.683   6.165 -0.8119 -0.7062  0.1031
   54MOL0     C 7216   6.797   3.779   6.052  0.0881 -0.8733 -0.4914
   54MOL0     C 7217   6.671   3.834   5.969  0.3495  0.2941 -0.5668
   54MOL0     C 7218   6.705   3.910   5.831 -1.3240  0.3328  0.7856
   54MOL0     C 7219   6.796   4.019   5.840  0.0117 -0.5278 -0.1219
   54MOL0     C 7220   6.872   4.114   5.859 -0.0025 -1.1452  0.7363
   54MOL0     C 7221   6.894   3.425   6.108 -0.9153  0.3880  0.4911
   54MOL0     C 7222   6.944   3.291   6.120 -0.1226  0.0109  0.2046
   54MOL0     H 7223   6.736   2.763   6.251  1.4236 -0.3509  1.2821
   54MOL0     H 7224   6.825   2.524   6.259  2.1918 -1.0062  0.0269
   54MOL0     H 7225   7.135   2.440   5.960  3.6908  0.3402  1.1192
   54MOL0     H 7226   7.168   2.373   6.111 -1.4010  0.6824  1.0741
   54MOL0     H 7227   7.165   2.203   5.911 -1.1722  2.0424 -2.4166
   54MOL0     H 7228   7.071   2.155   6.060 -5.4317  1.6933  0.9794
   54MOL0     H 7229   6.863   2.222   5.925 -1.2122  1.3029 -3.2102
   54MOL0     H 7230   6.970   2.244   5.788  2.3745  0.6137  0.7337
   54MOL0     H 7231   7.059   2.020   5.817 -1.6769 -0.6002 -2.2562
   54MOL0     H 7232   6.955   1.982   5.954 -3.3693 -1.0521 -1.0206
   54MOL0     H 7233   6.762   2.040   5.826  1.8501  0.9792  1.9414
   54MOL0     H 7234   6.843   2.081   5.681 -0.7558  1.9932  1.7092
   54MOL0     H 7235   6.955   1.822   5.713 -0.0991  0.1131  1.2662
   54MOL0     H 7236   6.855   1.822   5.851 -0.8511  2.0714  0.5097
   54MOL0     H 7237   6.696   1.701   5.686 -2.0025  0.1943 -1.7311
   54MOL0     H 7238   6.641   1.863   5.705 -2.0296 -2.0329 -0.4061
   54MOL0     H 7239   6.794   1.758   5.477 -2.3489 -1.7703  1.4421
   54MOL0     H 7240   6.799   1.931   5.519 -0.5531  0.4385  0.7514
   54MOL0     H 7241   6.614   2.061   5.370 -3.0223  0.1733 -3.6824
   54MOL0     H 7242   6.435   2.108   5.192 -0.3390 -0.3446 -0.2411
   54MOL0     H 7243   6.501   1.970   5.096 -0.2353 -1.5432 -0.2878
   54MOL0     H 7244   6.227   2.005   5.229 -2.3796  0.7826 -2.2590
   54MOL0     H 7245   6.280   1.854   5.147 -0.4408 -1.4360  0.0411
   54MOL0     H 7246   6.356   2.003   4.946  1.2103 -3.2937  1.1294
   54MOL0     H 7247   6.244   2.128   5.006  1.6427 -0.1347 -2.4465
   54MOL0     H 7248   6.174   1.846   4.914 -3.9071 -0.7730 -1.6044
   54MOL0     H 7249   6.121   1.991   4.842  0.1854 -2.4518 -0.9293
   54MOL0     H 7250   5.855   1.931   5.186  1.5846 -0.1622 -1.4052
   54MOL0     H 7251   5.512   1.916   5.164  0.1640 -1.0690 -0.3418
   54MOL0     H 7252   5.566   1.748   5.184 -2.1335  0.1680  3.1707
   54MOL0     H 7253   5.646   1.894   5.268  0.5952  2.0919 -0.6358
   54MOL0     H 7254   5.352   2.035   4.647 -0.2036  1.2450  1.1629
   54MOL0     H 7255   5.106   2.042   4.612 -1.9402 -2.5185 -4.3352
   54MOL0     H 7256   4.909   2.023   4.533 -2.0415  2.3800 -0.1662
   54MOL0     H 7257   4.760   1.931   4.570 -1.5607  1.0283  1.4173
   54MOL0     H 7258   4.770   1.998   4.798  1.0144 -1.9550 -0.5053
   54MOL0     H 7259   4.914   2.092   4.769  1.2061 -0.4250 -1.5425
   54MOL0     H 7260   4.634   2.152   4.609 -0.9807 -2.3864  2.2085
   54MOL0     H 7261   4.780   2.245   4.610 -1.2369 -0.7791 -1.0092
   54MOL0     H 7262   4.606   2.330   4.740 -0.1527 -3.2717 -4.5563
   54MOL0     H 7263   4.611   2.186   4.849  0.6833  0.4239  1.2569
   54MOL0     H 7264   4.824   2.391   4.790  1.3996 -3.5476 -1.6492
   54MOL0     H 7265   4.839   2.274   4.919  1.4659  1.0352 -0.3560
   54MOL0     H 7266   4.770   2.493   5.015 -1.6361  2.5230 -1.2869
   54MOL0     H 7267   4.622   2.484   4.925 -1.5273  0.8392  3.6333
   54MOL0     H 7268   4.687   2.265   5.102  2.1572  0.2435 -3.6823
   54MOL0     H 7269   4.528   2.314   5.034  0.7402  0.5212 -0.6463
   54MOL0     H 7270   4.558   2.553   5.142  3.3462  0.6749 -2.1200
   54MOL0     H 7271   4.696   2.485   5.233  2.1495 -5.0142  1.1942
   54MOL0     H 7272   5.061   1.647   4.718 -1.3409  1.9377 -0.8045
   54MOL0     H 7273   5.299   1.634   4.789 -3.4183 -1.5704 -0.9316
   54MOL0     H 7274   5.715   1.841   4.727 -2.0736  0.5074 -0.0982
   54MOL0     H 7275   5.943   1.876   4.771 -1.4690  3.3817 -0.8554
   54MOL0     H 7276   7.040   2.601   5.900 -0.5760  0.2198 -0.8197
   54MOL0     H 7277   6.996   2.838   5.913 -1.8926 -0.6167 -1.1560
   54MOL0     H 7278   6.650   3.132   6.182  0.4904  1.1985  4.0380
   54MOL0     H 7279   6.570   3.367   6.171  0.3040 -0.9963 -1.2541
   54MOL0     H 7280   6.683   3.726   6.240 -4.3396 -2.8636 -1.6109
   54MOL0     H 7281   6.831   3.661   6.236 -0.9759  3.0084  1.6817
   54MOL0     H 7282   6.868   3.724   5.990  0.3081 -3.5247  1.9049
   54MOL0     H 7283   6.843   3.866   6.099 -2.1697  0.1253  0.0071
   54MOL0     H 7284   6.607   3.891   6.036  0.2094 -0.7472  0.2027
   54MOL0     H 7285   6.608   3.748   5.947 -0.3204  0.9075 -1.0924
   54MOL0     H 7286   6.616   3.938   5.773 -3.3227  0.0154  3.5073
   54MOL0     H 7287   6.750   3.834   5.766  0.3528 -0.7582  3.0824
   54MOL0     H 7288   6.946   4.190   5.871 -0.3962  0.2440 -3.8532
   54MOL0     H 7289   6.968   3.503   6.101 -1.4893  1.0331  1.3214
   54MOL0     H 7290   7.051   3.285   6.104 -0.1341 -1.9923  0.6157
   55MOL0     O 7291  10.377   8.272  11.023 -0.4949  0.4860 -0.2216
   55MOL0     C 7292  10.345   8.316  10.915 -0.6492  0.1675  0.3824
   55MOL0     O 7293  10.388   8.271  10.790  0.1324  0.6998  0.0482
   55MOL0     C 7294  10.465   8.155  10.802  0.4977 -0.7859 -0.2684
   55MOL0     C 7295  10.604   8.186  10.784 -0.7836  0.5480  0.2212
   55MOL0     C 7296  10.694   8.077  10.813  0.1229  1.0548 -0.3432
   55MOL0     C 7297  10.661   7.952  10.857  0.2182 -0.0843 -0.6753
   55MOL0     O 7298  10.745   7.839  10.864 -0.3890 -0.3938  0.1649
   55MOL0     C 7299  10.873   7.848  10.915 -0.2722  0.9655  0.2048
   55MOL0     C 7300  10.959   7.824  10.795 -0.1707 -0.9226  0.3397
   55MOL0     C 7301  11.111   7.810  10.827  0.3109  0.8962  0.6763
   55MOL0     C 7302  11.132   7.721  10.952 -0.2812  0.6178  0.7596
   55MOL0     C 7303  11.288   7.693  10.969  0.6319 -0.0282 -0.1488
   55MOL0     C 7304  11.355   7.793  11.062  0.3921  0.1050  0.0180
   55MOL0     C 7305  11.508   7.790  11.077  0.7201 -0.3557 -0.3211
   55MOL0     C 7306  11.555   7.668  11.153 -0.2979  0.2053 -0.2960
   55MOL0     N 7307  11.706   7.641  11.133  1.1721  0.1137  0.5131
   55MOL0     C 7308  11.806   7.706  11.198  0.4647  0.5782  0.6729
   55MOL0     C 7309  11.915   7.666  11.124  0.2135 -0.4365 -0.2830
   55MOL0     C 7310  12.051   7.733  11.137 -0.1473  0.0812 -0.7878
   55MOL0     C 7311  12.065   7.813  11.268  0.1810  0.6303  0.3063
   55MOL0     C 7312  12.202   7.865  11.289 -0.2196 -0.1900  0.0452
   55MOL0     C 7313  12.303   7.749  11.310 -0.3321  0.3839 -0.0209
   55MOL0     O 7314  12.436   7.810  11.343  0.2470 -0.0130  1.0204
   55MOL0     C 7315  12.515   7.838  11.236  0.8551 -0.1989 -0.4851
   55MOL0     C 7316  12.475   7.838  11.097  0.1649 -0.1830  0.3823
   55MOL0     C 7317  12.571   7.864  10.994 -0.7092 -0.1143 -0.3626
   55MOL0     C 7318  12.529   7.865  10.857  0.2588  0.1254 -0.8427
   55MOL0     C 7319  12.711   7.887  11.032 -0.2754 -0.2496 -0.9757
   55MOL0     C 7320  12.818   7.895  10.928  0.0294  0.1466 -0.4051
   55MOL0     O 7321  12.805   7.848  10.800  0.1786 -0.3524  0.4401
   55MOL0     C 7322  12.919   7.843  10.732  0.4750  0.3292  0.9097
   55MOL0     C 7323  13.004   7.731  10.724  0.2104  0.2240  0.2782
   55MOL0     C 7324  13.125   7.732  10.661 -0.4662 -0.8678 -0.5692
   55MOL0     C 7325  13.161   7.843  10.580 -0.2074  0.0402  0.5595
   55MOL0     O 7326  13.281   7.844  10.524 -0.1498  0.0525 -0.5016
   55MOL0     C 7327  13.303   7.737  10.430 -0.2167 -0.1853  0.5136
   55MOL0     C 7328  13.284   7.787  10.286 -0.3530 -0.7027  0.4599
   55MOL0     C 7329  13.361   7.926  10.286  0.1035  0.0029 -0.9185
   55MOL0     C 7330  13.393   7.962  10.145  0.0306  0.0958  0.1071
   55MOL0     C 7331  13.421   8.108  10.126  0.3127 -0.7840 -0.2133
   55MOL0     C 7332  13.454   8.138   9.977  0.9315  0.4413  0.0550
   55MOL0     C 7333  13.398   8.274   9.940 -0.2030 -0.3480  1.4708
   55MOL0     C 7334  13.449   8.285   9.792  0.6652  0.9518 -0.0021
   55MOL0    Cl 7335  13.434   8.468   9.752 -0.2893  0.4972  0.8919
   55MOL0     C 7336  13.075   7.952  10.583  0.9115 -1.3977  0.5175
   55MOL0     C 7337  12.951   7.956  10.654 -0.4295  0.2274 -0.6821
   55MOL0     O 7338  12.914   7.956  10.968  0.4404  0.8995  0.1747
   55MOL0     C 7339  12.740   7.878  11.165 -0.2012  0.4480  0.2163
   55MOL0     C 7340  12.645   7.863  11.270 -0.3143 -1.4382  0.0743
   55MOL0     N 7341  11.878   7.567  11.021  0.9928 -0.3424 -0.6056
   55MOL0     N 7342  11.747   7.561  11.035 -0.2850  0.2790 -0.4906
   55MOL0     C 7343  10.527   7.931  10.885  0.5890 -0.0334  0.0317
   55MOL0     C 7344  10.426   8.030  10.860 -0.5226  0.5609  0.4401
   55MOL0     C 7345  10.287   8.446  10.893 -1.0264  0.1674 -0.7304
   55MOL0     C 7346  10.173   8.490  10.955  0.0819 -0.0295  0.2870
   55MOL0     C 7347  10.118   8.617  10.917 -0.4794  0.0236 -0.7147
   55MOL0     C 7348  10.190   8.700  10.827 -0.4043 -0.0372 -0.3836
   55MOL0     O 7349  10.145   8.815  10.775  0.3198 -0.0584 -0.2431
   55MOL0     C 7350  10.035   8.881  10.840  0.2548 -0.0643 -0.9085
   55MOL0     C 7351  10.084   8.963  10.961 -0.4115  0.5273 -0.3430
   55MOL0     C 7352   9.976   9.013  11.056  0.6325 -0.1168  0.0570
   55MOL0     C 7353   9.940   8.892  11.140 -0.9635 -0.1697 -0.1608
   55MOL0     C 7354   9.859   8.927  11.249 -0.2878  0.0136 -0.3349
   55MOL0     C 7355   9.795   8.963  11.352 -0.0957  0.2356 -0.2846
   55MOL0     C 7356  10.316   8.658  10.783  0.4385  0.8318 -0.1742
   55MOL0     C 7357  10.358   8.530  10.806 -0.3212  0.3427  0.2211
   55MOL0     H 7358  10.654   8.281  10.771 -0.0599 -0.0564 -1.6530
   55MOL0     H 7359  10.798   8.101  10.796  0.9215 -0.4661  1.9922
   55MOL0     H 7360  10.897   7.939  10.972  1.5609  0.0321  1.0089
   55MOL0     H 7361  10.886   7.766  10.986 -1.2126  3.8645  4.0382
   55MOL0     H 7362  10.921   7.731  10.754  0.7118 -2.3366  2.5165
   55MOL0     H 7363  10.941   7.907  10.726  0.4640 -0.1174  1.1067
   55MOL0     H 7364  11.157   7.763  10.740  0.9316  1.0104  0.9312
   55MOL0     H 7365  11.162   7.906  10.842  1.7228  0.0619  1.5437
   55MOL0     H 7366  11.095   7.770  11.042  0.0416  1.2828  0.5402
   55MOL0     H 7367  11.076   7.629  10.936  2.3300 -1.3040  2.0026
   55MOL0     H 7368  11.298   7.599  11.024  2.2606 -1.0755 -2.0773
   55MOL0     H 7369  11.343   7.691  10.874  4.9157 -0.0514  2.1054
   55MOL0     H 7370  11.334   7.887  11.010 -0.6830  0.0713  0.3855
   55MOL0     H 7371  11.309   7.780  11.160  1.5313  0.6110  0.6416
   55MOL0     H 7372  11.553   7.797  10.977  2.2814  0.9692  0.4371
   55MOL0     H 7373  11.557   7.873  11.127  1.8737 -1.3750  0.2770
   55MOL0     H 7374  11.490   7.583  11.128 -3.1633  0.4815  4.8898
   55MOL0     H 7375  11.542   7.678  11.261  1.7587 -1.5602  0.1921
   55MOL0     H 7376  11.799   7.792  11.264  4.0377  1.1566  0.5221
   55MOL0     H 7377  12.111   7.641  11.132  0.4457  0.4355 -0.3339
   55MOL0     H 7378  12.063   7.791  11.045 -2.6438  1.0889 -0.5414
   55MOL0     H 7379  12.036   7.754  11.355 -2.8071  0.4143 -0.7165
   55MOL0     H 7380  11.995   7.897  11.274 -1.8214 -0.6439 -2.6499
   55MOL0     H 7381  12.198   7.928  11.378 -0.5933 -0.6815  0.3810
   55MOL0     H 7382  12.246   7.935  11.217 -0.3242  0.0493  0.2106
   55MOL0     H 7383  12.313   7.683  11.224  0.8049  0.3878  0.0823
   55MOL0     H 7384  12.273   7.690  11.397  0.3446 -1.2654 -0.8667
   55MOL0     H 7385  12.376   7.820  11.058  0.6274 -1.0287 -0.4334
   55MOL0     H 7386  12.428   7.907  10.847 -0.4224 -1.6455 -1.9196
   55MOL0     H 7387  12.592   7.928  10.793  2.2157  0.3821  1.2512
   55MOL0     H 7388  12.511   7.769  10.807 -2.8660  1.1716 -2.0345
   55MOL0     H 7389  12.985   7.647  10.789  0.1862 -0.4339 -0.5650
   55MOL0     H 7390  13.182   7.640  10.663 -2.8528 -2.4446  0.5877
   55MOL0     H 7391  13.401   7.689  10.443 -0.2320 -0.5537 -0.6401
   55MOL0     H 7392  13.232   7.654  10.433  0.6178 -0.9311  0.3642
   55MOL0     H 7393  13.324   7.718  10.212  0.4237 -0.8382  0.9918
   55MOL0     H 7394  13.182   7.819  10.262 -0.3242 -1.0109 -0.0918
   55MOL0     H 7395  13.456   7.939  10.340 -0.4200  2.5874 -0.4847
   55MOL0     H 7396  13.293   7.994  10.339 -1.4426 -2.5412  0.5361
   55MOL0     H 7397  13.477   7.895  10.121 -2.2599 -3.0643  0.3319
   55MOL0     H 7398  13.307   7.936  10.084 -0.3580  0.4492  0.5003
   55MOL0     H 7399  13.497   8.146  10.195 -1.7016 -1.1069  2.3539
   55MOL0     H 7400  13.327   8.161  10.148 -1.0555 -3.7299  1.6250
   55MOL0     H 7401  13.562   8.126   9.964  0.5015 -1.7253 -2.3554
   55MOL0     H 7402  13.394   8.070   9.915  1.4279 -0.0277  0.0833
   55MOL0     H 7403  13.445   8.343  10.011 -0.8504  1.8445 -0.1128
   55MOL0     H 7404  13.290   8.292   9.936 -0.1661 -0.3281 -0.4152
   55MOL0     H 7405  13.388   8.227   9.722  2.8580 -0.3093 -0.9537
   55MOL0     H 7406  13.556   8.268   9.782  0.1766 -1.2215 -2.6932
   55MOL0     H 7407  13.107   8.041  10.529 -0.4894 -0.7092  0.7664
   55MOL0     H 7408  12.895   8.049  10.650  2.0896  1.8413 -1.2071
   55MOL0     H 7409  12.844   7.882  11.198 -0.0793 -1.4371  0.2152
   55MOL0     H 7410  12.679   7.860  11.373  0.8518 -0.0121 -0.2370
   55MOL0     H 7411  10.492   7.834  10.918 -4.0818  2.6220  4.3692
   55MOL0     H 7412  10.321   8.029  10.884 -0.7542  2.5397 -0.3067
   55MOL0     H 7413  10.117   8.427  11.024  0.0362 -0.1244  0.1642
   55MOL0     H 7414  10.022   8.647  10.959 -0.2712  2.3647 -1.7853
   55MOL0     H 7415  10.002   8.964  10.777 -0.2800  3.9430  4.0002
   55MOL0     H 7416   9.950   8.816  10.864  0.3647 -0.8271 -2.4781
   55MOL0     H 7417  10.139   9.053  10.932 -0.9630  1.0641  0.2301
   55MOL0     H 7418  10.161   8.899  11.005 -1.2755 -1.3870 -1.5211
   55MOL0     H 7419   9.894   9.050  10.993 -1.0933 -2.5742  0.7012
   55MOL0     H 7420  10.016   9.093  11.118  0.1384 -0.3699  0.7089
   55MOL0     H 7421  10.039   8.855  11.168 -1.0974 -2.4848 -2.3284
   55MOL0     H 7422   9.877   8.815  11.094 -3.6589  0.8644  1.5122
   55MOL0     H 7423   9.759   8.980  11.451 -0.8415 -0.1950 -0.4772
   55MOL0     H 7424  10.371   8.717  10.711  1.1920  0.1363 -0.1752
   55MOL0     H 7425  10.455   8.501  10.765 -1.3261 -0.5624 -1.6473
   56MOL0     O 7426   7.122   3.535   9.379  0.1618 -0.5566 -0.9642
   56MOL0     C 7427   7.104   3.416   9.383 -0.9156 -0.4332 -1.1964
   56MOL0     O 7428   7.074   3.335   9.487 -0.9764  0.2711 -0.9933
   56MOL0     C 7429   7.104   3.386   9.610  0.0550 -0.4504  0.0780
   56MOL0     C 7430   7.171   3.309   9.702 -0.2961 -0.0234  0.0205
   56MOL0     C 7431   7.182   3.346   9.836  0.1658 -0.0998  0.6493
   56MOL0     C 7432   7.142   3.463   9.888  0.8248  0.1265  0.4978
   56MOL0     O 7433   7.142   3.481  10.024  0.7476 -0.6584 -0.1542
   56MOL0     C 7434   7.188   3.604  10.076 -1.1166  0.0461  0.3564
   56MOL0     C 7435   7.152   3.630  10.214  0.6382  0.3006 -0.2735
   56MOL0     C 7436   7.245   3.557  10.318  0.7838  0.9748  0.6547
   56MOL0     C 7437   7.167   3.475  10.424  0.1562 -0.6611  0.0143
   56MOL0     C 7438   7.257   3.396  10.525 -1.0417  0.8716 -0.1384
   56MOL0     C 7439   7.318   3.273  10.451  0.5762  0.5471  0.3529
   56MOL0     C 7440   7.340   3.148  10.526 -0.2762 -0.1655  0.4483
   56MOL0     C 7441   7.445   3.161  10.642  0.0447  1.0993  0.8236
   56MOL0     N 7442   7.438   3.040  10.722  0.0977  0.5328  0.5839
   56MOL0     C 7443   7.535   3.008  10.810  0.1838 -0.7992 -1.1201
   56MOL0     C 7444   7.495   2.919  10.894 -0.7403 -0.5226 -0.4868
   56MOL0     C 7445   7.572   2.833  10.998 -0.1384 -0.3950  0.1452
   56MOL0     C 7446   7.676   2.907  11.090 -0.7054 -0.3707  0.8629
   56MOL0     C 7447   7.818   2.913  11.017  0.2200  1.3701  0.3822
   56MOL0     C 7448   7.900   3.037  11.061  0.0400 -0.0317  0.2673
   56MOL0     O 7449   7.850   3.153  10.988  0.1308 -0.1527 -0.9546
   56MOL0     C 7450   7.859   3.275  11.055  0.8777 -0.1757  1.2321
   56MOL0     C 7451   7.761   3.372  11.036 -0.2222  0.5455  0.8720
   56MOL0     C 7452   7.782   3.507  11.074  0.2891  0.1124  0.0225
   56MOL0     C 7453   7.669   3.595  11.057  1.1618  0.0378 -1.0304
   56MOL0     C 7454   7.899   3.536  11.145  1.1845 -0.1971 -0.4386
   56MOL0     C 7455   7.924   3.668  11.198  1.4298 -1.0533  0.6208
   56MOL0     O 7456   7.948   3.781  11.115  1.3843  0.8287 -0.1790
   56MOL0     C 7457   7.946   3.764  10.976 -0.1683  0.3298 -0.6537
   56MOL0     C 7458   8.040   3.682  10.920  0.3004  0.8818  0.1015
   56MOL0     C 7459   8.071   3.696  10.784  0.5799 -0.6871  0.3039
   56MOL0     C 7460   7.998   3.786  10.712 -0.2054 -0.5894 -0.0453
   56MOL0     O 7461   8.016   3.790  10.575 -0.0070 -0.3146 -0.6947
   56MOL0     C 7462   8.123   3.868  10.520  0.2474  0.3207 -0.7277
   56MOL0     C 7463   8.099   4.018  10.533 -0.2730  0.2341  0.0252
   56MOL0     C 7464   8.031   4.051  10.402  0.7359 -1.1987 -0.0538
   56MOL0     C 7465   7.968   4.195  10.405  0.0913  0.2011 -0.5861
   56MOL0     C 7466   7.877   4.223  10.290  0.4392  1.2235 -0.8376
   56MOL0     C 7467   7.812   4.351  10.318  0.4025  1.0609 -0.3329
   56MOL0     C 7468   7.725   4.405  10.201 -0.7709 -0.8298  0.3929
   56MOL0     C 7469   7.601   4.320  10.155 -0.6585  0.3195  0.1117
   56MOL0    Cl 7470   7.459   4.348  10.274  0.0362 -0.3875  0.5300
   56MOL0     C 7471   7.902   3.862  10.766  0.7416  0.5843 -0.2578
   56MOL0     C 7472   7.873   3.847  10.898 -0.6911 -0.6726  0.7243
   56MOL0     O 7473   7.918   3.674  11.321 -0.3251 -0.5932  0.1032
   56MOL0     C 7474   7.995   3.433  11.170  0.4643  0.0384 -0.1567
   56MOL0     C 7475   7.978   3.296  11.124 -0.4269 -1.0630  0.2090
   56MOL0     N 7476   7.364   2.901  10.870  0.5505  0.4381 -0.1612
   56MOL0     N 7477   7.330   2.971  10.766  0.2620 -0.0358 -0.9464
   56MOL0     C 7478   7.081   3.546   9.799  0.2345  0.4779 -0.8573
   56MOL0     C 7479   7.060   3.509   9.666  0.5821 -0.3777 -0.5553
   56MOL0     C 7480   7.077   3.362   9.246  1.2944 -0.1748 -0.1631
   56MOL0     C 7481   7.121   3.430   9.128  0.2318  0.8294  1.1374
   56MOL0     C 7482   7.090   3.386   8.994  0.0381  0.2824 -1.0778
   56MOL0     C 7483   7.029   3.264   8.976  0.0356  0.6724  0.0755
   56MOL0     O 7484   7.007   3.227   8.848  0.5795  0.0689 -0.3503
   56MOL0     C 7485   6.947   3.107   8.815 -0.3884  0.4230 -0.5606
   56MOL0     C 7486   6.800   3.110   8.843  0.3337  0.1567 -0.0621
   56MOL0     C 7487   6.730   3.213   8.752 -0.2376  0.1650 -0.1532
   56MOL0     C 7488   6.576   3.229   8.780  1.0935  0.2749  0.0168
   56MOL0     C 7489   6.501   3.124   8.709  0.1265  0.7080  0.5971
   56MOL0     C 7490   6.435   3.044   8.639 -0.7436  0.1125 -0.8378
   56MOL0     C 7491   6.981   3.195   9.091 -0.6633  0.3237 -0.8286
   56MOL0     C 7492   6.999   3.244   9.228  0.0233  1.0423 -0.4367
   56MOL0     H 7493   7.194   3.206   9.675  2.6460  0.3267  0.8478
   56MOL0     H 7494   7.227   3.277   9.907 -2.1662  0.0529  2.4209
   56MOL0     H 7495   7.296   3.593  10.066 -0.7875  1.1714  2.2409
   56MOL0     H 7496   7.146   3.680  10.008 -1.1048 -0.6270 -0.4172
   56MOL0     H 7497   7.171   3.736  10.231 -0.4951  0.6818 -1.3282
   56MOL0     H 7498   7.047   3.609  10.236 -0.2404  2.4320 -2.0488
   56MOL0     H 7499   7.301   3.479  10.267 -1.3896 -0.2933  0.0605
   56MOL0     H 7500   7.315   3.628  10.362  2.2493 -1.0402  1.7199
   56MOL0     H 7501   7.111   3.542  10.491 -1.9270 -1.5005 -0.8114
   56MOL0     H 7502   7.091   3.415  10.373 -1.8274 -1.5553  3.6441
   56MOL0     H 7503   7.339   3.458  10.562  0.5574 -0.8695 -0.6021
   56MOL0     H 7504   7.207   3.360  10.615  4.4651 -3.6889  1.7804
   56MOL0     H 7505   7.240   3.256  10.376  0.2239  3.3825 -0.0440
   56MOL0     H 7506   7.406   3.303  10.394  1.7379 -0.8753  1.3429
   56MOL0     H 7507   7.240   3.115  10.555 -0.6187 -1.5840 -2.0358
   56MOL0     H 7508   7.371   3.065  10.462 -0.4340  1.5742 -2.0420
   56MOL0     H 7509   7.421   3.253  10.697 -0.3338  0.3274  1.9754
   56MOL0     H 7510   7.546   3.163  10.600  0.2761  1.6203  1.4030
   56MOL0     H 7511   7.636   3.048  10.808  0.4589 -1.4395 -0.3426
   56MOL0     H 7512   7.504   2.797  11.075 -2.2525  1.5279 -0.7377
   56MOL0     H 7513   7.604   2.742  10.945 -2.6342 -0.8474 -0.7042
   56MOL0     H 7514   7.695   2.861  11.187 -1.2701 -2.0017  0.2360
   56MOL0     H 7515   7.641   3.008  11.109 -2.0913 -0.6893  0.1121
   56MOL0     H 7516   7.804   2.908  10.909  1.3722 -1.4191  0.2927
   56MOL0     H 7517   7.877   2.826  11.048 -2.8356 -0.0643  2.7320
   56MOL0     H 7518   8.007   3.030  11.037  0.2954  2.1629  0.5276
   56MOL0     H 7519   7.887   3.043  11.169 -0.4165 -0.4195  0.2362
   56MOL0     H 7520   7.679   3.331  10.979  1.0794 -1.1299  0.1366
   56MOL0     H 7521   7.674   3.693  11.009 -0.5712 -0.2721 -1.9225
   56MOL0     H 7522   7.592   3.536  11.008 -1.1192  1.6006  0.4589
   56MOL0     H 7523   7.622   3.603  11.156  0.7394  0.4435 -1.2607
   56MOL0     H 7524   8.100   3.616  10.982  0.5955  3.5813  2.9096
   56MOL0     H 7525   8.149   3.643  10.730  1.5468  3.9420 -3.5467
   56MOL0     H 7526   8.216   3.840  10.570 -0.8648 -2.2298  0.0797
   56MOL0     H 7527   8.131   3.832  10.417  0.5924  0.1254 -0.6340
   56MOL0     H 7528   8.025   4.053  10.606 -1.7725 -0.6831 -1.0030
   56MOL0     H 7529   8.184   4.081  10.561 -1.4613  1.2275  1.5382
   56MOL0     H 7530   7.946   3.983  10.394 -1.2802  1.0884  0.9485
   56MOL0     H 7531   8.094   4.039  10.313  1.8873  4.2856 -0.3532
   56MOL0     H 7532   7.902   4.198  10.492 -1.3348 -0.7307 -1.5849
   56MOL0     H 7533   8.056   4.260  10.411  0.2396 -0.1081  1.6836
   56MOL0     H 7534   7.811   4.140  10.263 -1.9688  2.9463 -0.5793
   56MOL0     H 7535   7.936   4.242  10.200 -1.3162  1.7341 -1.9178
   56MOL0     H 7536   7.746   4.326  10.401  0.8980 -1.2877 -0.5602
   56MOL0     H 7537   7.870   4.433  10.360 -0.9041 -0.2565  4.6811
   56MOL0     H 7538   7.789   4.432  10.117  0.3811 -0.7674  1.2622
   56MOL0     H 7539   7.685   4.501  10.235 -2.5832 -1.3475 -0.1777
   56MOL0     H 7540   7.622   4.213  10.144 -2.0518  0.1813 -1.7248
   56MOL0     H 7541   7.575   4.352  10.053 -3.1519 -2.3686 -0.2355
   56MOL0     H 7542   7.834   3.924  10.709 -1.6359  0.3286  2.1369
   56MOL0     H 7543   7.802   3.913  10.946  0.7674  2.4138 -1.1116
   56MOL0     H 7544   8.081   3.475  11.221  1.4869 -0.6481 -1.2385
   56MOL0     H 7545   8.060   3.225  11.121  1.5569  1.1055 -3.0948
   56MOL0     H 7546   7.028   3.636   9.829 -0.6306 -0.1105 -0.5734
   56MOL0     H 7547   6.991   3.568   9.608 -1.6981 -1.9708  0.3704
   56MOL0     H 7548   7.178   3.521   9.146 -0.1633  0.9440  1.8938
   56MOL0     H 7549   7.111   3.447   8.907 -1.6632 -0.1897 -1.8599
   56MOL0     H 7550   6.958   3.086   8.709 -1.5305  0.6376 -0.7346
   56MOL0     H 7551   7.000   3.028   8.870 -0.9945 -0.5750 -1.3766
   56MOL0     H 7552   6.773   3.128   8.947 -0.2809  1.0674 -0.3615
   56MOL0     H 7553   6.761   3.011   8.817 -1.5245  1.3855 -2.3887
   56MOL0     H 7554   6.739   3.180   8.648  1.4688  0.6873 -0.1918
   56MOL0     H 7555   6.783   3.307   8.767 -0.2487  0.3352 -1.1053
   56MOL0     H 7556   6.548   3.331   8.751 -0.7269  0.3265  1.7871
   56MOL0     H 7557   6.552   3.225   8.886  2.3272 -0.3750  0.2881
   56MOL0     H 7558   6.409   2.954   8.589 -2.4682  1.5026 -2.5764
   56MOL0     H 7559   6.939   3.095   9.089 -0.3298  0.1906 -1.2174
   56MOL0     H 7560   6.954   3.182   9.305 -0.1533  0.1265 -1.2567
   57MOL0     O 7561   1.079   1.370   5.752 -0.7324  0.2465 -0.3341
   57MOL0     C 7562   1.022   1.285   5.819  0.4094  0.5805 -0.1513
   57MOL0     O 7563   0.888   1.274   5.816  0.6493  0.0925  0.1885
   57MOL0     C 7564   0.799   1.378   5.769 -1.2465 -0.2112 -0.6629
   57MOL0     C 7565   0.785   1.425   5.628 -0.5722 -0.0163  0.2627
   57MOL0     C 7566   0.694   1.523   5.604 -0.0224  0.2074  0.3202
   57MOL0     C 7567   0.594   1.553   5.696  0.0381  0.6938  0.2580
   57MOL0     O 7568   0.484   1.621   5.667 -0.4785  0.3555 -0.6075
   57MOL0     C 7569   0.381   1.550   5.597 -1.1944  0.0328 -0.4224
   57MOL0     C 7570   0.281   1.646   5.543  0.9447 -0.5804  0.3828
   57MOL0     C 7571   0.185   1.581   5.434  0.1440 -0.5685  0.3819
   57MOL0     C 7572   0.104   1.702   5.372 -1.5178 -0.1509  0.7462
   57MOL0     C 7573  -0.023   1.637   5.306 -1.0862 -0.3327  0.1613
   57MOL0     C 7574  -0.128   1.738   5.248 -0.1489  0.2639 -0.2020
   57MOL0     C 7575  -0.251   1.657   5.204 -0.1232 -0.1204 -0.6715
   57MOL0     C 7576  -0.345   1.736   5.116  1.5390  0.1549  0.0802
   57MOL0     N 7577  -0.471   1.667   5.080  0.0073 -0.6937  0.8298
   57MOL0     C 7578  -0.511   1.531   5.102 -0.3528 -0.8401 -0.2075
   57MOL0     C 7579  -0.620   1.529   5.030  0.2979  0.6274  0.5922
   57MOL0     C 7580  -0.720   1.416   5.024 -0.7101 -0.1664 -0.0887
   57MOL0     C 7581  -0.688   1.311   4.915 -0.6962  0.1840 -0.3111
   57MOL0     C 7582  -0.754   1.364   4.785 -0.8484 -0.2020  0.1478
   57MOL0     C 7583  -0.731   1.295   4.647  0.1597 -0.0175  0.4852
   57MOL0     O 7584  -0.755   1.149   4.647 -0.5211  0.2960  0.3896
   57MOL0     C 7585  -0.861   1.103   4.571  0.4576  0.0693 -0.3981
   57MOL0     C 7586  -0.886   0.963   4.575  0.0714 -0.0308  0.4787
   57MOL0     C 7587  -1.005   0.904   4.515 -0.7475  0.8241 -0.5182
   57MOL0     C 7588  -1.027   0.754   4.531 -0.2775  0.2935  0.2041
   57MOL0     C 7589  -1.096   0.992   4.444  0.4526  0.3661 -0.5570
   57MOL0     C 7590  -1.222   0.941   4.380  0.3502 -0.3625  0.2318
   57MOL0     O 7591  -1.231   0.983   4.255  0.2590  0.0002 -0.0309
   57MOL0     C 7592  -1.330   0.960   4.169  0.4112 -0.2380  0.5582
   57MOL0     C 7593  -1.398   0.839   4.150  1.1092  1.4288 -0.1563
   57MOL0     C 7594  -1.498   0.822   4.053 -0.1963 -0.6730 -0.3338
   57MOL0     C 7595  -1.530   0.933   3.969 -0.2632 -0.3413 -0.0965
   57MOL0     O 7596  -1.625   0.910   3.874  0.5651  0.0068  0.0539
   57MOL0     C 7597  -1.618   0.993   3.766 -0.1853  0.9715 -0.1309
   57MOL0     C 7598  -1.704   0.938   3.650  1.7144 -0.1415 -0.7243
   57MOL0     C 7599  -1.734   1.060   3.559  0.2251 -0.8962  0.4130
   57MOL0     C 7600  -1.786   1.027   3.426  0.4502  0.2685  1.1185
   57MOL0     C 7601  -1.769   1.152   3.326 -0.1096  0.1205 -1.0976
   57MOL0     C 7602  -1.758   1.105   3.177  0.4560 -0.2976 -0.3549
   57MOL0     C 7603  -1.704   1.217   3.092 -1.4490 -0.4318  1.1500
   57MOL0     C 7604  -1.559   1.195   3.036  0.2850  0.2626  0.0714
   57MOL0    Cl 7605  -1.571   1.097   2.887 -0.4249 -0.2629 -0.2000
   57MOL0     C 7606  -1.473   1.062   3.999  0.6917 -0.9784  0.4030
   57MOL0     C 7607  -1.364   1.066   4.086  0.0016  0.1094 -0.3396
   57MOL0     O 7608  -1.299   0.862   4.436  0.6122  0.3020 -0.2070
   57MOL0     C 7609  -1.071   1.132   4.454 -0.3508 -0.2259  0.3526
   57MOL0     C 7610  -0.956   1.186   4.508 -0.2591 -0.5222 -1.2311
   57MOL0     N 7611  -0.641   1.645   4.961 -0.4813 -0.1103 -0.0507
   57MOL0     N 7612  -0.556   1.732   4.993 -0.4130 -0.0452  0.1529
   57MOL0     C 7613   0.601   1.505   5.828 -1.0158 -0.0608  0.3912
   57MOL0     C 7614   0.713   1.429   5.863 -0.0794 -0.2774  1.7381
   57MOL0     C 7615   1.083   1.164   5.874  0.4744 -0.0082  0.2174
   57MOL0     C 7616   1.221   1.162   5.889 -0.5790  0.3421 -1.2113
   57MOL0     C 7617   1.282   1.050   5.946  0.2005  0.0407  0.2717
   57MOL0     C 7618   1.223   0.941   6.005 -0.3006  0.1074 -0.2480
   57MOL0     O 7619   1.290   0.849   6.093  0.8803  0.8106  0.2919
   57MOL0     C 7620   1.219   0.765   6.188  0.9617  0.4106  0.3173
   57MOL0     C 7621   1.313   0.681   6.277  0.3388  0.4530 -0.5220
   57MOL0     C 7622   1.376   0.763   6.395 -0.2237  0.0690 -0.3915
   57MOL0     C 7623   1.396   0.667   6.514  0.3074  0.8159 -0.4099
   57MOL0     C 7624   1.502   0.703   6.608  0.2477  0.7129  0.0359
   57MOL0     C 7625   1.584   0.722   6.695 -0.2477 -0.5767 -0.3565
   57MOL0     C 7626   1.083   0.949   5.993  0.9093  0.0288 -0.3379
   57MOL0     C 7627   1.018   1.054   5.927 -0.0963 -1.2740  1.2944
   57MOL0     H 7628   0.828   1.368   5.546 -1.8354 -0.4261 -0.1304
   57MOL0     H 7629   0.689   1.568   5.506  2.8125  0.6483  0.3107
   57MOL0     H 7630   0.415   1.495   5.508  0.5063  0.0260  0.2067
   57MOL0     H 7631   0.345   1.481   5.674 -1.6071 -1.4677 -1.9030
   57MOL0     H 7632   0.220   1.683   5.626  0.0839 -0.9024 -0.0907
   57MOL0     H 7633   0.328   1.729   5.489  0.4196 -3.3637 -5.0058
   57MOL0     H 7634   0.236   1.537   5.347  0.5644  2.6742 -1.1747
   57MOL0     H 7635   0.117   1.508   5.478  1.2568 -0.7905  1.7986
   57MOL0     H 7636   0.087   1.785   5.441 -3.6276  2.4710 -2.6445
   57MOL0     H 7637   0.172   1.743   5.297 -0.3563  0.5242  2.1196
   57MOL0     H 7638   0.007   1.568   5.225  0.2745  1.5134 -0.9886
   57MOL0     H 7639  -0.063   1.568   5.381  1.6671  0.8452  2.9267
   57MOL0     H 7640  -0.161   1.812   5.321 -2.3860  0.7253 -1.5960
   57MOL0     H 7641  -0.077   1.790   5.167 -0.0642  1.8319  0.8111
   57MOL0     H 7642  -0.211   1.568   5.154  4.0285  0.8173  0.5729
   57MOL0     H 7643  -0.308   1.620   5.289 -1.5361  2.3638 -0.4365
   57MOL0     H 7644  -0.301   1.764   5.021  0.4805 -3.8720 -1.8198
   57MOL0     H 7645  -0.367   1.831   5.167  0.1286  1.2065 -2.3220
   57MOL0     H 7646  -0.470   1.456   5.169 -1.1403  2.3536  4.2920
   57MOL0     H 7647  -0.727   1.352   5.112 -1.0768 -0.2673 -0.1871
   57MOL0     H 7648  -0.824   1.449   5.013 -0.7456  0.5273  1.9594
   57MOL0     H 7649  -0.739   1.218   4.939  1.8499 -1.0693  0.6088
   57MOL0     H 7650  -0.580   1.302   4.900 -0.2472  1.6679  1.5802
   57MOL0     H 7651  -0.712   1.464   4.770 -1.5097 -0.2163 -2.3407
   57MOL0     H 7652  -0.860   1.365   4.813 -0.4481  1.0625  1.7816
   57MOL0     H 7653  -0.626   1.323   4.637 -0.3322  2.3942  1.3726
   57MOL0     H 7654  -0.778   1.344   4.561  0.2835 -4.2785 -2.2937
   57MOL0     H 7655  -0.817   0.906   4.636 -0.4789  0.9466  2.0620
   57MOL0     H 7656  -1.084   0.711   4.448  1.4585  2.8075 -2.5054
   57MOL0     H 7657  -0.930   0.703   4.530 -0.0497  0.7091 -1.2799
   57MOL0     H 7658  -1.086   0.736   4.622  0.4972  1.1096  0.8863
   57MOL0     H 7659  -1.361   0.751   4.203  0.1029  0.8738 -0.3503
   57MOL0     H 7660  -1.542   0.723   4.051 -0.3634 -0.6035 -0.1460
   57MOL0     H 7661  -1.648   1.094   3.795  0.2968  0.1233  3.9397
   57MOL0     H 7662  -1.517   0.997   3.724  0.5351 -4.0512  0.4670
   57MOL0     H 7663  -1.665   0.853   3.593  0.2829 -0.7519 -0.8252
   57MOL0     H 7664  -1.802   0.906   3.687  1.2781  0.5076 -1.3096
   57MOL0     H 7665  -1.634   1.103   3.543 -0.1722  0.6942  1.9282
   57MOL0     H 7666  -1.795   1.136   3.607  0.4778 -3.1521  4.7294
   57MOL0     H 7667  -1.723   0.941   3.399  0.4733 -0.4279  3.2052
   57MOL0     H 7668  -1.893   1.006   3.416  0.5035  0.9782 -2.3591
   57MOL0     H 7669  -1.669   1.194   3.339 -0.6337  0.7539  1.4103
   57MOL0     H 7670  -1.845   1.227   3.350  0.4924  0.6692 -0.8939
   57MOL0     H 7671  -1.709   1.009   3.158 -0.2220 -0.8087  0.3788
   57MOL0     H 7672  -1.861   1.096   3.141 -0.1353 -0.0688  1.1665
   57MOL0     H 7673  -1.696   1.315   3.139  1.3144 -0.3890  0.7708
   57MOL0     H 7674  -1.771   1.222   3.006 -0.9083 -2.1421  0.5892
   57MOL0     H 7675  -1.492   1.155   3.112  1.1548  1.3243 -0.1075
   57MOL0     H 7676  -1.516   1.293   3.012  0.4332  0.4383  1.0231
   57MOL0     H 7677  -1.500   1.154   3.948  1.7551  0.1337  1.7594
   57MOL0     H 7678  -1.314   1.163   4.088 -2.0195  1.2094 -0.9664
   57MOL0     H 7679  -1.146   1.206   4.427  0.3780  1.4338  2.5361
   57MOL0     H 7680  -0.946   1.293   4.491 -3.3918 -0.3917 -2.9602
   57MOL0     H 7681   0.538   1.553   5.902 -0.3995  1.0248  0.2404
   57MOL0     H 7682   0.722   1.395   5.966  2.7100  0.2276  1.7348
   57MOL0     H 7683   1.276   1.252   5.861 -0.0300 -0.4420 -2.7732
   57MOL0     H 7684   1.390   1.042   5.962  0.2909 -0.1942 -0.4027
   57MOL0     H 7685   1.147   0.828   6.241  0.6314  0.1555  0.1752
   57MOL0     H 7686   1.157   0.701   6.123  0.2634 -0.8949  2.1921
   57MOL0     H 7687   1.392   0.633   6.218 -1.2682 -0.2948 -2.1368
   57MOL0     H 7688   1.251   0.604   6.323 -2.6054  0.3675 -4.1857
   57MOL0     H 7689   1.308   0.843   6.426 -0.8579  0.1069 -1.7932
   57MOL0     H 7690   1.472   0.808   6.369 -0.5300  0.6814 -0.4997
   57MOL0     H 7691   1.426   0.569   6.476  5.6215  1.2607  1.8098
   57MOL0     H 7692   1.302   0.645   6.565 -0.0857 -0.8686 -1.7455
   57MOL0     H 7693   1.649   0.769   6.766  0.2638 -0.7456 -0.7084
   57MOL0     H 7694   1.023   0.866   6.028  0.7721  0.9363  1.6947
   57MOL0     H 7695   0.913   1.033   5.908 -0.2502  1.6494 -2.4655
   58MOL0     O 7696   0.886   6.224   2.907  0.2180 -0.2152  0.6069
   58MOL0     C 7697   0.939   6.294   2.821 -0.7669 -0.7010 -0.4932
   58MOL0     O 7698   1.076   6.328   2.812 -0.2363  0.2579 -0.2626
   58MOL0     C 7699   1.160   6.252   2.891 -0.4109  0.1596  0.7457
   58MOL0     C 7700   1.183   6.271   3.030  0.0838  0.9740  0.1082
   58MOL0     C 7701   1.272   6.178   3.095  0.0080 -0.3876  0.6676
   58MOL0     C 7702   1.335   6.080   3.018  0.0208 -0.8607  0.4614
   58MOL0     O 7703   1.442   6.005   3.061  0.3667  0.8221  0.4675
   58MOL0     C 7704   1.526   6.045   3.170 -0.6492  0.9624  0.0781
   58MOL0     C 7705   1.644   5.951   3.182 -1.8004  0.1111  0.3000
   58MOL0     C 7706   1.750   5.968   3.065  0.6570 -0.8212 -1.4074
   58MOL0     C 7707   1.853   5.858   3.049  0.0715 -0.2745  0.4102
   58MOL0     C 7708   1.947   5.873   2.930 -0.8222 -0.2517 -0.2729
   58MOL0     C 7709   2.038   5.993   2.940 -0.3708 -0.0940  0.8314
   58MOL0     C 7710   2.127   6.016   2.807  0.5596  0.8088  0.6492
   58MOL0     C 7711   2.241   6.109   2.839 -0.3017 -0.3203  0.2159
   58MOL0     N 7712   2.184   6.249   2.846  0.5781 -0.1083  0.2630
   58MOL0     C 7713   2.130   6.302   2.962 -0.1308 -0.3015  0.0183
   58MOL0     C 7714   2.086   6.429   2.921 -0.0898 -0.1845  0.3870
   58MOL0     C 7715   2.038   6.540   3.007  0.0714 -0.0633 -0.3173
   58MOL0     C 7716   2.098   6.526   3.142  0.1712  0.0131 -0.1509
   58MOL0     C 7717   2.033   6.614   3.249 -1.3395 -0.6067 -0.2319
   58MOL0     C 7718   2.060   6.761   3.222 -0.1062 -0.3642 -0.1892
   58MOL0     O 7719   2.198   6.776   3.181 -1.4359  0.0566 -0.3723
   58MOL0     C 7720   2.254   6.902   3.204 -0.5569 -0.2717  0.5078
   58MOL0     C 7721   2.395   6.914   3.199 -0.0315  0.9703  0.1437
   58MOL0     C 7722   2.447   7.042   3.216  0.0168  1.0591 -0.0207
   58MOL0     C 7723   2.608   7.046   3.201  0.2506 -0.3968 -0.5742
   58MOL0     C 7724   2.371   7.160   3.240 -0.2181 -0.6035 -0.0508
   58MOL0     C 7725   2.431   7.298   3.261 -0.1870 -0.4557  0.2771
   58MOL0     O 7726   2.331   7.383   3.305 -0.0285 -0.5950 -1.1233
   58MOL0     C 7727   2.359   7.513   3.319 -0.1049  0.1068  0.5106
   58MOL0     C 7728   2.476   7.565   3.386  0.4911 -0.9541  0.0683
   58MOL0     C 7729   2.500   7.704   3.397  0.2079 -0.6450 -1.0351
   58MOL0     C 7730   2.420   7.798   3.336  0.1818 -0.7557  0.0406
   58MOL0     O 7731   2.453   7.929   3.360  0.0223 -0.8004  0.4339
   58MOL0     C 7732   2.586   7.960   3.340  0.6700 -0.3541 -0.2274
   58MOL0     C 7733   2.632   7.991   3.191  0.9209 -0.4347  0.9438
   58MOL0     C 7734   2.771   8.047   3.167  0.1103  0.2965  0.2568
   58MOL0     C 7735   2.825   8.034   3.022 -0.0166 -0.7606  0.5433
   58MOL0     C 7736   2.782   8.167   2.953 -0.3362 -0.0697  0.4704
   58MOL0     C 7737   2.794   8.157   2.800 -0.7659  0.2521  0.0452
   58MOL0     C 7738   2.749   8.278   2.725 -0.1295 -0.1218 -0.5862
   58MOL0     C 7739   2.873   8.377   2.707  0.4224  0.5844 -1.1341
   58MOL0    Cl 7740   2.986   8.329   2.574  0.1965  0.1794  0.4623
   58MOL0     C 7741   2.303   7.751   3.268 -0.2557  0.7139  0.6137
   58MOL0     C 7742   2.279   7.609   3.254  0.2566  0.5202  0.1695
   58MOL0     O 7743   2.540   7.332   3.217  0.4225  0.9836  0.2189
   58MOL0     C 7744   2.234   7.145   3.234  0.4900 -0.0257  0.5122
   58MOL0     C 7745   2.176   7.016   3.218  0.3315 -0.4964 -0.6752
   58MOL0     N 7746   2.106   6.448   2.789  0.2107  0.2776 -0.0425
   58MOL0     N 7747   2.162   6.338   2.739  0.6677 -1.2794 -0.1852
   58MOL0     C 7748   1.309   6.069   2.880  1.1917  0.3127 -0.3098
   58MOL0     C 7749   1.217   6.148   2.816  0.7122 -0.5118 -0.1935
   58MOL0     C 7750   0.856   6.358   2.723  0.3038  0.2542 -0.2825
   58MOL0     C 7751   0.911   6.434   2.612  0.9096  0.9167 -0.0843
   58MOL0     C 7752   0.818   6.504   2.528 -0.3176  0.1981 -0.1499
   58MOL0     C 7753   0.683   6.503   2.542  0.9002 -0.4418  0.5303
   58MOL0     O 7754   0.611   6.584   2.467  0.0064 -0.0724  0.2185
   58MOL0     C 7755   0.482   6.543   2.423 -0.0762 -0.4217 -0.1345
   58MOL0     C 7756   0.460   6.392   2.387 -0.3269  0.1252 -0.5832
   58MOL0     C 7757   0.544   6.332   2.280 -0.3665 -0.1544 -0.1694
   58MOL0     C 7758   0.518   6.195   2.239  0.4020 -0.2160 -0.5793
   58MOL0     C 7759   0.636   6.132   2.175 -0.0003  0.6198  0.4760
   58MOL0     C 7760   0.727   6.076   2.119 -0.0188  0.4701 -0.3288
   58MOL0     C 7761   0.630   6.436   2.651  0.8744 -0.4945  0.6580
   58MOL0     C 7762   0.713   6.360   2.731 -0.1577  0.9170  0.7313
   58MOL0     H 7763   1.153   6.358   3.086  0.9616 -0.3437  2.8044
   58MOL0     H 7764   1.320   6.196   3.191  0.3408  0.1249  0.4115
   58MOL0     H 7765   1.568   6.145   3.155  0.6321  1.2400  4.2106
   58MOL0     H 7766   1.468   6.030   3.261 -1.1365 -2.5536 -0.6438
   58MOL0     H 7767   1.692   5.971   3.278 -1.3882 -0.7847  0.2907
   58MOL0     H 7768   1.605   5.849   3.178 -0.6568 -0.4522  2.2332
   58MOL0     H 7769   1.697   5.980   2.970 -3.3764  0.0364  0.6926
   58MOL0     H 7770   1.795   6.067   3.079  1.5988 -1.3999 -0.1205
   58MOL0     H 7771   1.907   5.836   3.142  1.6766 -0.4304 -0.5269
   58MOL0     H 7772   1.805   5.765   3.017  2.8993 -1.2596 -1.3443
   58MOL0     H 7773   2.013   5.786   2.918 -2.9230 -2.1882  1.3591
   58MOL0     H 7774   1.884   5.878   2.840 -0.8261 -2.9094 -0.4993
   58MOL0     H 7775   1.991   6.088   2.967  2.8044  0.9663  3.1519
   58MOL0     H 7776   2.111   5.972   3.018  0.3312  0.2486  0.2740
   58MOL0     H 7777   2.156   5.919   2.765 -3.8266  0.7779 -3.2317
   58MOL0     H 7778   2.065   6.047   2.722 -0.7084 -1.1736  0.7980
   58MOL0     H 7779   2.311   6.113   2.756 -0.5786  1.0738  0.0312
   58MOL0     H 7780   2.302   6.083   2.926  0.0066  0.7586  0.3328
   58MOL0     H 7781   2.140   6.267   3.064  0.3026  1.5644  0.6576
   58MOL0     H 7782   2.066   6.633   2.959 -0.0288 -0.8394 -1.9614
   58MOL0     H 7783   1.928   6.537   3.009  0.0354  0.5981 -0.9160
   58MOL0     H 7784   2.206   6.537   3.136  0.2001  2.3509  2.4146
   58MOL0     H 7785   2.084   6.428   3.189  1.4794  0.8980  2.2833
   58MOL0     H 7786   2.080   6.582   3.342 -1.1148  3.9495  1.5121
   58MOL0     H 7787   1.924   6.601   3.252 -1.9745  2.9880 -1.7234
   58MOL0     H 7788   2.019   6.829   3.297  1.2175 -0.1518  0.3611
   58MOL0     H 7789   2.009   6.785   3.128  2.8395  2.7746 -1.2033
   58MOL0     H 7790   2.460   6.827   3.190 -1.0735  0.0795  0.9063
   58MOL0     H 7791   2.656   6.953   3.230 -0.8986  0.0656  3.3306
   58MOL0     H 7792   2.633   7.061   3.095  0.2128 -0.4070 -0.5850
   58MOL0     H 7793   2.651   7.124   3.265 -0.3065 -0.7753  0.2726
   58MOL0     H 7794   2.537   7.488   3.434  0.1830 -1.2462 -0.0007
   58MOL0     H 7795   2.580   7.732   3.465  0.4367  1.9285 -2.2660
   58MOL0     H 7796   2.603   8.055   3.392  2.0909 -1.9508  2.3858
   58MOL0     H 7797   2.656   7.891   3.387  2.3614  0.7989 -0.9081
   58MOL0     H 7798   2.628   7.898   3.133  2.1844  0.8531 -1.3592
   58MOL0     H 7799   2.569   8.067   3.146 -0.1053 -0.0256  2.9764
   58MOL0     H 7800   2.829   8.005   3.249 -0.9155  1.1012  1.4253
   58MOL0     H 7801   2.779   8.154   3.189 -0.3518  0.5087 -0.5708
   58MOL0     H 7802   2.934   8.034   3.030  0.3756  3.0249 -2.1079
   58MOL0     H 7803   2.797   7.946   2.963 -1.3772  0.2935 -0.4562
   58MOL0     H 7804   2.850   8.242   2.994  2.5106 -2.8462  1.2120
   58MOL0     H 7805   2.681   8.194   2.987 -0.3838  1.3878 -0.7586
   58MOL0     H 7806   2.897   8.135   2.773 -0.9621 -1.5615  0.6252
   58MOL0     H 7807   2.724   8.074   2.785 -1.2477  0.7697 -0.6294
   58MOL0     H 7808   2.659   8.323   2.766 -0.1497  0.6853 -1.4895
   58MOL0     H 7809   2.714   8.236   2.631 -2.3750  0.5538 -0.1045
   58MOL0     H 7810   2.924   8.378   2.803  1.8077 -3.3994 -1.6232
   58MOL0     H 7811   2.839   8.477   2.679  0.8397  0.9325 -0.3995
   58MOL0     H 7812   2.237   7.825   3.224 -2.5223 -1.2005  0.6175
   58MOL0     H 7813   2.193   7.567   3.203 -0.1193 -0.1614  1.3383
   58MOL0     H 7814   2.171   7.233   3.246 -0.5082 -0.5199 -0.8953
   58MOL0     H 7815   2.069   7.021   3.205 -0.2538 -1.2136  3.0185
   58MOL0     H 7816   1.356   5.989   2.824 -1.9269 -2.4883  0.7237
   58MOL0     H 7817   1.195   6.122   2.713  0.3028 -0.5891 -0.0890
   58MOL0     H 7818   1.017   6.439   2.590  1.3716 -1.7815  1.1123
   58MOL0     H 7819   0.854   6.569   2.449 -1.7438  1.2115 -0.0151
   58MOL0     H 7820   0.403   6.581   2.488 -0.3884  0.1346 -0.8165
   58MOL0     H 7821   0.472   6.580   2.320  2.0257 -3.6756 -1.6671
   58MOL0     H 7822   0.358   6.387   2.349 -0.7243 -0.4630  0.5107
   58MOL0     H 7823   0.450   6.321   2.470 -1.9346 -1.5411 -2.1281
   58MOL0     H 7824   0.648   6.347   2.311 -0.3945 -2.0712  1.0346
   58MOL0     H 7825   0.529   6.392   2.190  0.3468  0.9541  0.4301
   58MOL0     H 7826   0.436   6.200   2.167  1.1580 -1.3989 -1.5632
   58MOL0     H 7827   0.484   6.134   2.324  0.1112  0.9579  0.1651
   58MOL0     H 7828   0.807   6.013   2.086  0.4277  1.2755 -0.8252
   58MOL0     H 7829   0.523   6.443   2.668  0.7060 -0.0153 -0.5063
   58MOL0     H 7830   0.686   6.302   2.818 -1.0926 -2.5654 -1.6880
   59MOL0     O 7831   1.964   2.967  10.698  0.5738  0.5553 -0.2004
   59MOL0     C 7832   1.964   3.004  10.581 -0.1309 -0.7230 -0.3678
   59MOL0     O 7833   1.859   3.058  10.510 -0.3826 -0.7549  0.3624
   59MOL0     C 7834   1.733   3.053  10.558  0.6068 -0.2625  0.6689
   59MOL0     C 7835   1.630   3.071  10.460  0.7052 -0.1678 -0.5874
   59MOL0     C 7836   1.492   3.034  10.485  0.9420  0.4708 -0.6407
   59MOL0     C 7837   1.461   2.993  10.617 -0.0669  0.0789  1.0126
   59MOL0     O 7838   1.328   2.979  10.638  0.5701  0.2139  0.7933
   59MOL0     C 7839   1.291   2.864  10.721 -0.3102 -0.6136  0.0344
   59MOL0     C 7840   1.140   2.873  10.735  0.3705  0.5614  0.8971
   59MOL0     C 7841   1.102   2.981  10.841 -0.4498 -0.3509  0.0037
   59MOL0     C 7842   0.952   2.982  10.865 -0.2254 -0.4394  0.5193
   59MOL0     C 7843   0.903   3.117  10.920  0.4490 -1.2773  0.8149
   59MOL0     C 7844   0.757   3.098  10.949  0.3529  0.7039 -0.3037
   59MOL0     C 7845   0.696   3.236  10.989  0.9452 -0.1266 -0.1555
   59MOL0     C 7846   0.552   3.217  11.046 -0.5358  0.0148  0.6475
   59MOL0     N 7847   0.542   3.160  11.181  0.1603  0.4286 -0.9513
   59MOL0     C 7848   0.613   3.214  11.284  0.1122  0.1317  0.4822
   59MOL0     C 7849   0.632   3.131  11.386 -0.2714  0.7173 -0.2181
   59MOL0     C 7850   0.707   3.150  11.513  0.1310 -0.0054 -0.3094
   59MOL0     C 7851   0.853   3.136  11.503 -0.8388  0.1246  0.0210
   59MOL0     C 7852   0.898   3.004  11.455 -0.4180 -0.3986  0.2605
   59MOL0     C 7853   1.049   3.006  11.458  1.0464  0.2122  0.4665
   59MOL0     O 7854   1.107   3.089  11.363  1.1464 -0.3046 -0.0169
   59MOL0     C 7855   1.237   3.084  11.333 -0.7993  0.0519  1.1667
   59MOL0     C 7856   1.283   3.146  11.217  0.4270 -0.5637  0.0231
   59MOL0     C 7857   1.421   3.160  11.178  1.3375  0.8578 -0.5110
   59MOL0     C 7858   1.455   3.252  11.060  1.4132 -0.0081 -0.5569
   59MOL0     C 7859   1.519   3.110  11.273  0.2843 -0.2139 -0.7536
   59MOL0     C 7860   1.662   3.142  11.261 -0.0844  0.1061  0.6293
   59MOL0     O 7861   1.702   3.185  11.143  0.3646  0.3884 -0.1072
   59MOL0     C 7862   1.834   3.186  11.119 -0.5075  0.3363 -0.1328
   59MOL0     C 7863   1.893   3.085  11.047 -0.0144  1.0443 -0.4857
   59MOL0     C 7864   2.024   3.068  11.036 -0.3963  0.5206 -0.1911
   59MOL0     C 7865   2.112   3.165  11.094  0.1483  0.0547  0.7971
   59MOL0     O 7866   2.247   3.162  11.077  0.5179 -0.4960 -0.0158
   59MOL0     C 7867   2.319   3.059  11.122 -0.7764  0.2358 -0.5339
   59MOL0     C 7868   2.464   3.108  11.142 -0.3413 -0.0529 -0.4613
   59MOL0     C 7869   2.578   3.001  11.162  0.4413 -0.6136 -0.0402
   59MOL0     C 7870   2.734   3.052  11.166  0.3750  0.6521 -0.0021
   59MOL0     C 7871   2.827   2.947  11.219  0.1193  0.1297 -0.6528
   59MOL0     C 7872   2.970   2.963  11.181  0.4710 -0.2357 -0.4761
   59MOL0     C 7873   3.063   2.857  11.252  0.0703  0.2185 -0.0418
   59MOL0     C 7874   3.204   2.842  11.201  1.1148 -0.1571 -0.9121
   59MOL0    Cl 7875   3.221   2.865  11.023 -0.3644 -0.0649 -0.2388
   59MOL0     C 7876   2.058   3.277  11.162  0.5208 -0.1813 -0.1387
   59MOL0     C 7877   1.915   3.286  11.181 -0.0927 -0.4520 -0.0111
   59MOL0     O 7878   1.725   3.124  11.364 -0.4726  0.6312 -0.6717
   59MOL0     C 7879   1.473   3.052  11.390 -0.5125 -0.3082  0.4483
   59MOL0     C 7880   1.338   3.046  11.419  0.0519  0.0562  0.1401
   59MOL0     N 7881   0.587   3.009  11.341  0.2920 -0.8128  0.5786
   59MOL0     N 7882   0.546   3.021  11.216  0.4794  0.3703 -0.0881
   59MOL0     C 7883   1.561   2.992  10.722 -0.3183 -0.3401  0.2411
   59MOL0     C 7884   1.688   3.014  10.686  0.1686 -0.1439  1.4821
   59MOL0     C 7885   2.071   2.986  10.494  0.4855 -0.4461 -0.0305
   59MOL0     C 7886   2.178   2.911  10.544 -0.5689 -0.8932  0.1605
   59MOL0     C 7887   2.288   2.898  10.466 -0.8643 -0.1545  0.3306
   59MOL0     C 7888   2.303   2.972  10.348  0.4438  0.8887  0.1105
   59MOL0     O 7889   2.407   2.946  10.264  0.0653 -0.4846  0.6767
   59MOL0     C 7890   2.535   2.948  10.328  0.2440 -0.4574 -0.6022
   59MOL0     C 7891   2.657   2.994  10.245  0.3256 -1.0387  0.3734
   59MOL0     C 7892   2.636   3.138  10.183 -0.0667  0.0221  0.0720
   59MOL0     C 7893   2.702   3.151  10.052 -0.7222 -0.0125  0.1924
   59MOL0     C 7894   2.849   3.149  10.046  0.4803 -0.2372  0.7808
   59MOL0     C 7895   2.966   3.179  10.060 -0.1809  0.3811 -0.5315
   59MOL0     C 7896   2.199   3.052  10.299 -0.1754 -0.2073  0.7833
   59MOL0     C 7897   2.084   3.061  10.377  0.3348  0.3303  0.9034
   59MOL0     H 7898   1.661   3.106  10.362  1.8074  0.5089 -0.0286
   59MOL0     H 7899   1.411   3.052  10.415  0.9214 -0.6100 -0.9190
   59MOL0     H 7900   1.323   2.766  10.685  0.6684 -0.7765  1.2678
   59MOL0     H 7901   1.326   2.862  10.825 -2.5243  0.0941  0.8671
   59MOL0     H 7902   1.086   2.874  10.640  1.5156 -0.5340  0.2097
   59MOL0     H 7903   1.108   2.777  10.776 -2.0242  0.9388  0.0714
   59MOL0     H 7904   1.150   2.955  10.936 -0.9923  0.1437  0.4314
   59MOL0     H 7905   1.155   3.075  10.821 -1.2516  0.7165  2.4223
   59MOL0     H 7906   0.889   2.955  10.780 -2.1784  0.0569  1.7412
   59MOL0     H 7907   0.912   2.900  10.926  0.7069 -1.3190 -0.0227
   59MOL0     H 7908   0.966   3.137  11.008  0.1098 -2.9178  1.4625
   59MOL0     H 7909   0.904   3.192  10.840 -0.9991 -3.4963 -1.4180
   59MOL0     H 7910   0.693   3.055  10.872  1.0059  1.9365 -1.5738
   59MOL0     H 7911   0.741   3.029  11.033 -2.2750  2.4182  0.6958
   59MOL0     H 7912   0.768   3.281  11.057 -1.3748  0.2458  2.1815
   59MOL0     H 7913   0.698   3.298  10.898  0.5432  0.2083  0.0663
   59MOL0     H 7914   0.497   3.141  10.991  0.8346 -0.9505  0.5485
   59MOL0     H 7915   0.511   3.319  11.044 -0.5469  0.0029  0.0339
   59MOL0     H 7916   0.656   3.314  11.278  1.6437 -0.5551 -1.0131
   59MOL0     H 7917   0.681   3.247  11.557  2.1002  0.5729 -0.3400
   59MOL0     H 7918   0.674   3.075  11.586 -0.0136  1.5513  1.3004
   59MOL0     H 7919   0.891   3.165  11.602 -0.8929  2.6180 -0.6153
   59MOL0     H 7920   0.876   3.219  11.435  3.4490 -1.3513 -0.6754
   59MOL0     H 7921   0.861   2.985  11.353 -0.9567  1.1333  0.1544
   59MOL0     H 7922   0.872   2.922  11.522  1.1213 -1.8078 -0.7797
   59MOL0     H 7923   1.090   2.907  11.436  2.5270  0.5000  1.7604
   59MOL0     H 7924   1.091   3.035  11.555 -1.0206  0.7029  1.2517
   59MOL0     H 7925   1.213   3.203  11.158  0.6406 -3.5330 -3.4065
   59MOL0     H 7926   1.368   3.285  11.004  1.1001 -2.9419 -1.9760
   59MOL0     H 7927   1.514   3.334  11.103  2.3897 -1.7920  1.7093
   59MOL0     H 7928   1.507   3.203  10.977 -1.0084  4.0514 -5.0178
   59MOL0     H 7929   1.835   3.003  11.006  2.6158  0.0322 -2.4528
   59MOL0     H 7930   2.068   2.993  10.971  0.1691  0.7983 -0.1316
   59MOL0     H 7931   2.282   3.019  11.217  0.9408 -2.6831 -0.9634
   59MOL0     H 7932   2.319   2.964  11.068  1.3585  0.2089 -0.5642
   59MOL0     H 7933   2.497   3.166  11.056  2.8749 -2.5330 -1.1287
   59MOL0     H 7934   2.462   3.176  11.228  1.7813  0.0026 -0.3946
   59MOL0     H 7935   2.564   2.933  11.077 -1.0299 -0.8297  0.3460
   59MOL0     H 7936   2.566   2.952  11.258  2.7016  2.2076  1.8476
   59MOL0     H 7937   2.768   3.072  11.064  0.7836 -1.2043 -0.2664
   59MOL0     H 7938   2.726   3.143  11.226 -0.3967 -1.9512  4.2873
   59MOL0     H 7939   2.793   2.846  11.196 -2.0278  0.2847  1.4455
   59MOL0     H 7940   2.826   2.956  11.328 -1.8353  2.0390 -0.7735
   59MOL0     H 7941   2.966   2.949  11.072 -2.8149  1.3135 -0.6760
   59MOL0     H 7942   3.011   3.063  11.193  0.9565 -0.6826  2.3491
   59MOL0     H 7943   3.023   2.756  11.245  1.4370 -0.4909  1.6561
   59MOL0     H 7944   3.055   2.881  11.359 -0.4219 -3.5413  0.9029
   59MOL0     H 7945   3.218   2.736  11.225 -4.1308 -0.5778  1.6167
   59MOL0     H 7946   3.267   2.910  11.259 -1.0087 -0.6704  2.2694
   59MOL0     H 7947   2.107   3.359  11.213 -0.1150 -2.7115  5.1922
   59MOL0     H 7948   1.861   3.365  11.231  0.6185  0.4806 -0.6753
   59MOL0     H 7949   1.547   3.027  11.465 -0.0449  1.0472  0.4674
   59MOL0     H 7950   1.312   2.999  11.513  0.8179 -0.9247 -0.1191
   59MOL0     H 7951   1.540   2.959  10.823  3.1724 -0.7656  0.9546
   59MOL0     H 7952   1.758   3.011  10.768  2.4374  0.2248 -0.3498
   59MOL0     H 7953   2.193   2.862  10.639  4.2262 -0.0951  0.0347
   59MOL0     H 7954   2.369   2.830  10.490 -2.4742 -2.7715 -1.2073
   59MOL0     H 7955   2.535   3.030  10.401  4.9514  0.6268 -1.4651
   59MOL0     H 7956   2.551   2.855  10.383  0.2886 -0.6533 -0.9458
   59MOL0     H 7957   2.683   2.925  10.164 -3.4542 -0.9556 -1.1293
   59MOL0     H 7958   2.745   2.983  10.308  0.8072  0.4870  0.0209
   59MOL0     H 7959   2.682   3.201  10.259 -2.3421  1.1286  0.6164
   59MOL0     H 7960   2.532   3.170  10.188 -1.0858 -2.9469 -0.2088
   59MOL0     H 7961   2.672   3.249  10.013 -0.6690 -0.8013 -1.9624
   59MOL0     H 7962   2.685   3.073   9.977  5.1595 -1.2552 -0.3465
   59MOL0     H 7963   3.068   3.211  10.065 -0.4657  1.0673  2.4724
   59MOL0     H 7964   2.210   3.093  10.199  1.9641 -3.3870 -0.4519
   59MOL0     H 7965   2.009   3.123  10.329  0.5531 -0.9954 -1.2891
   60MOL0     O 7966   5.726   6.687  10.638  0.4291  0.4708  0.7911
   60MOL0     C 7967   5.646   6.755  10.700  0.6462 -1.0764 -0.0529
   60MOL0     O 7968   5.676   6.841  10.791 -0.2366 -0.1624 -0.1674
   60MOL0     C 7969   5.804   6.883  10.798  0.0755  0.9929 -0.1141
   60MOL0     C 7970   5.877   6.925  10.687 -0.6286  0.4850 -0.1840
   60MOL0     C 7971   6.018   6.954  10.704 -0.2911  0.9558  0.9536
   60MOL0     C 7972   6.080   6.945  10.832  0.3307 -0.7172 -0.2923
   60MOL0     O 7973   6.209   6.985  10.833 -0.6135 -0.0482 -0.3898
   60MOL0     C 7974   6.290   6.973  10.952 -0.5256  0.8525  0.1032
   60MOL0     C 7975   6.419   7.059  10.949  0.7938  0.4558 -0.5843
   60MOL0     C 7976   6.533   6.986  10.879 -0.1819 -0.3900 -0.7755
   60MOL0     C 7977   6.639   6.927  10.974 -0.7207 -1.1046 -0.1013
   60MOL0     C 7978   6.774   6.930  10.888  0.7038  0.1423  0.4745
   60MOL0     C 7979   6.882   6.840  10.953  0.6339 -0.4374 -0.3580
   60MOL0     C 7980   7.015   6.862  10.874  0.0413 -0.7446  0.7707
   60MOL0     C 7981   7.136   6.765  10.905 -0.0254 -0.7224  0.1623
   60MOL0     N 7982   7.119   6.617  10.898  0.2343  0.1446 -0.1717
   60MOL0     C 7983   7.035   6.542  10.974 -0.0703  0.1886  0.2771
   60MOL0     C 7984   7.027   6.416  10.919 -0.5948  0.2405 -0.9475
   60MOL0     C 7985   6.959   6.296  10.981  0.7671  0.1820 -0.0939
   60MOL0     C 7986   6.823   6.354  11.025 -0.0048  0.0513 -0.7552
   60MOL0     C 7987   6.718   6.333  10.914  0.1725  0.1149  0.1096
   60MOL0     C 7988   6.576   6.367  10.950 -0.1864 -0.1948  0.5320
   60MOL0     O 7989   6.479   6.353  10.847 -1.0568 -0.1957 -0.5980
   60MOL0     C 7990   6.356   6.370  10.901 -0.1050  0.1777 -0.1128
   60MOL0     C 7991   6.284   6.260  10.946 -0.4164  0.3003 -0.5496
   60MOL0     C 7992   6.157   6.270  11.009  0.6110  0.0030 -0.2937
   60MOL0     C 7993   6.079   6.149  11.041 -0.3274 -0.1382 -0.0376
   60MOL0     C 7994   6.096   6.404  11.027  0.4296 -0.5737  0.4904
   60MOL0     C 7995   5.969   6.437  11.095  0.1865  0.5909 -0.2952
   60MOL0     O 7996   5.931   6.569  11.093  0.1268  0.9299 -0.0327
   60MOL0     C 7997   5.796   6.591  11.118  0.6482  0.1520 -0.2685
   60MOL0     C 7998   5.700   6.578  11.020  1.0056  0.3345 -0.3143
   60MOL0     C 7999   5.559   6.604  11.040 -0.2759  0.0138  0.2385
   60MOL0     C 8000   5.511   6.639  11.164 -1.0321  0.8031 -0.2800
   60MOL0     O 8001   5.376   6.661  11.193 -0.2879 -1.0003 -0.1314
   60MOL0     C 8002   5.275   6.660  11.088 -0.8825  0.4388 -0.4202
   60MOL0     C 8003   5.228   6.513  11.084  0.1767  0.2242 -0.0694
   60MOL0     C 8004   5.148   6.477  10.954  0.2113  0.5140  0.2654
   60MOL0     C 8005   5.081   6.342  10.943  0.0886  0.0176  0.1547
   60MOL0     C 8006   4.972   6.358  10.839  0.1392 -0.9326 -1.3321
   60MOL0     C 8007   4.908   6.214  10.813 -0.6973 -0.1087  0.0431
   60MOL0     C 8008   4.972   6.122  10.714  0.5398 -0.4297 -0.0175
   60MOL0     C 8009   4.881   6.004  10.685 -0.5677  0.2207 -0.3344
   60MOL0    Cl 8010   4.945   5.925  10.541 -0.4747 -0.0372 -0.1749
   60MOL0     C 8011   5.616   6.658  11.263  0.8455 -0.1631  0.2749
   60MOL0     C 8012   5.750   6.637  11.241 -0.1135 -0.2514  0.2798
   60MOL0     O 8013   5.900   6.344  11.134  0.5462 -0.0946  0.0153
   60MOL0     C 8014   6.180   6.513  10.987 -0.0954  0.1805 -0.5513
   60MOL0     C 8015   6.308   6.494  10.930  0.8102  0.2959  0.3047
   60MOL0     N 8016   7.117   6.423  10.818 -0.4687  0.9651 -0.6608
   60MOL0     N 8017   7.155   6.539  10.794  0.4461 -0.2100  0.5026
   60MOL0     C 8018   6.004   6.895  10.946 -0.3566  0.4929 -0.0317
   60MOL0     C 8019   5.867   6.873  10.921 -0.0517 -0.6533 -0.2344
   60MOL0     C 8020   5.495   6.738  10.668  0.0837 -0.0731  0.0239
   60MOL0     C 8021   5.409   6.831  10.725 -0.1415 -0.3565 -0.8134
   60MOL0     C 8022   5.271   6.837  10.702 -0.1369  0.3409  0.5140
   60MOL0     C 8023   5.224   6.729  10.628 -0.2383 -0.0972 -0.1509
   60MOL0     O 8024   5.087   6.733  10.617 -0.1619  0.7842  0.2586
   60MOL0     C 8025   5.029   6.641  10.520 -0.1016  0.2737 -0.7067
   60MOL0     C 8026   4.881   6.638  10.544 -0.2060  0.4632 -1.1136
   60MOL0     C 8027   4.808   6.508  10.495  0.2771 -2.5073 -0.5519
   60MOL0     C 8028   4.657   6.517  10.503 -0.6235  0.3798  0.3238
   60MOL0     C 8029   4.588   6.548  10.630  0.0375 -0.3224 -0.2889
   60MOL0     C 8030   4.537   6.563  10.740 -0.4647  0.1332 -0.6084
   60MOL0     C 8031   5.309   6.638  10.560 -0.4812  0.3151 -0.1973
   60MOL0     C 8032   5.446   6.650  10.569 -0.4865 -0.0356 -1.1391
   60MOL0     H 8033   5.837   6.938  10.587 -0.4438  2.4015 -0.0582
   60MOL0     H 8034   6.081   6.989  10.623  1.2529 -1.1403  1.1432
   60MOL0     H 8035   6.233   7.013  11.036  0.5116  1.6254  0.4533
   60MOL0     H 8036   6.321   6.872  10.983 -0.0771  0.6726 -0.9084
   60MOL0     H 8037   6.400   7.144  10.884  0.0417  1.1470  0.5013
   60MOL0     H 8038   6.453   7.108  11.041 -0.2571 -0.6379  0.4499
   60MOL0     H 8039   6.488   6.916  10.808 -2.0889  2.7508 -2.9547
   60MOL0     H 8040   6.588   7.053  10.813 -1.3554  0.0945 -1.3024
   60MOL0     H 8041   6.663   6.994  11.056 -0.4903 -0.3554 -0.7645
   60MOL0     H 8042   6.596   6.831  11.004 -2.0764 -0.7977 -0.9724
   60MOL0     H 8043   6.751   6.882  10.793  1.2753 -0.3796  0.5923
   60MOL0     H 8044   6.803   7.035  10.881 -0.4732  0.5616  1.5622
   60MOL0     H 8045   6.901   6.857  11.060 -1.6016 -1.3652  0.2580
   60MOL0     H 8046   6.836   6.741  10.944 -2.2598  0.8496 -0.8941
   60MOL0     H 8047   6.997   6.834  10.770  1.1515 -0.7486  0.5710
   60MOL0     H 8048   7.045   6.967  10.882 -3.9463  0.4257  3.4882
   60MOL0     H 8049   7.167   6.787  11.008  1.0020  2.0203 -0.6294
   60MOL0     H 8050   7.218   6.777  10.833  1.4969 -3.5474  1.2376
   60MOL0     H 8051   6.979   6.576  11.060 -0.2191 -3.1983  1.6686
   60MOL0     H 8052   6.925   6.217  10.914  0.6908 -0.3362  0.5516
   60MOL0     H 8053   7.022   6.248  11.056  2.3152  1.8859 -0.2092
   60MOL0     H 8054   6.821   6.457  11.062 -1.4220 -0.2807  0.1775
   60MOL0     H 8055   6.784   6.291  11.105 -3.2260 -0.2283 -2.3670
   60MOL0     H 8056   6.731   6.230  10.880 -0.5189  0.1063 -0.1357
   60MOL0     H 8057   6.749   6.397  10.831  1.2952  0.1417  0.5314
   60MOL0     H 8058   6.578   6.467  10.995  1.5215  1.0403 -2.0540
   60MOL0     H 8059   6.539   6.297  11.026 -2.3758  2.3265  1.9801
   60MOL0     H 8060   6.323   6.163  10.916 -2.2852 -0.1063 -1.8521
   60MOL0     H 8061   6.035   6.148  11.141  1.5704 -1.2883  0.8409
   60MOL0     H 8062   6.002   6.148  10.963  1.5858  1.9899 -2.1603
   60MOL0     H 8063   6.146   6.064  11.025  1.4224  1.2269 -0.3232
   60MOL0     H 8064   5.737   6.546  10.923  1.7903 -0.2017  0.1513
   60MOL0     H 8065   5.488   6.593  10.959 -1.5521  2.0459  1.0081
   60MOL0     H 8066   5.186   6.718  11.114 -1.4076 -0.5069 -0.0389
   60MOL0     H 8067   5.315   6.699  10.995  2.0174 -0.5410  0.2993
   60MOL0     H 8068   5.306   6.438  11.099 -1.0846 -0.6454  2.8795
   60MOL0     H 8069   5.175   6.493  11.177  0.7213 -0.2546  0.1472
   60MOL0     H 8070   5.209   6.497  10.865  0.6636  1.5606  0.7893
   60MOL0     H 8071   5.073   6.554  10.931  2.2586  2.0564 -1.7592
   60MOL0     H 8072   5.152   6.261  10.922 -0.1169 -0.1597  0.1357
   60MOL0     H 8073   5.039   6.305  11.037 -1.0712  1.6018  0.2943
   60MOL0     H 8074   5.009   6.403  10.746  1.3104  2.6678  0.6507
   60MOL0     H 8075   4.900   6.422  10.891  0.5856 -3.2024  2.3465
   60MOL0     H 8076   4.887   6.167  10.909 -2.4761  0.9318  0.2085
   60MOL0     H 8077   4.811   6.251  10.779 -0.4100  0.7393  0.1084
   60MOL0     H 8078   5.069   6.076  10.737  2.5114  1.7579 -3.2296
   60MOL0     H 8079   4.977   6.182  10.623 -1.9054 -1.2813 -0.8056
   60MOL0     H 8080   4.777   6.035  10.672 -0.5175  1.5916  1.9600
   60MOL0     H 8081   4.882   5.935  10.770  1.1967 -0.4258 -0.8413
   60MOL0     H 8082   5.572   6.694  11.355 -0.8382 -0.1950 -0.4800
   60MOL0     H 8083   5.821   6.652  11.322  0.6588  1.1238 -0.6189
   60MOL0     H 8084   6.150   6.616  10.971  5.4498  1.7116 -4.0613
   60MOL0     H 8085   6.355   6.577  10.878  1.7594 -0.1436  0.4395
   60MOL0     H 8086   6.051   6.871  11.041 -1.2076 -1.7015 -0.0974
   60MOL0     H 8087   5.808   6.832  11.002 -0.1038  0.9105  0.5571
   60MOL0     H 8088   5.444   6.904  10.798  0.8657 -0.7542 -0.8804
   60MOL0     H 8089   5.193   6.893  10.754 -1.9816 -1.3343 -0.3462
   60MOL0     H 8090   5.046   6.684  10.421  1.7406  1.5015  0.0968
   60MOL0     H 8091   5.071   6.541  10.533  2.7822  1.8285  4.7335
   60MOL0     H 8092   4.839   6.721  10.487 -0.0050 -0.0720 -2.0500
   60MOL0     H 8093   4.846   6.655  10.646  0.6687 -1.7471 -0.3730
   60MOL0     H 8094   4.838   6.425  10.561  0.4426 -0.1300  2.6328
   60MOL0     H 8095   4.845   6.504  10.392 -0.4017  0.8904 -1.0242
   60MOL0     H 8096   4.618   6.418  10.475  2.4496 -0.8861  0.1681
   60MOL0     H 8097   4.626   6.584  10.422  0.1372  1.6541  1.0601
   60MOL0     H 8098   4.478   6.594  10.824 -0.1181  0.0719 -0.3389
   60MOL0     H 8099   5.259   6.579  10.484  0.5664  1.7659 -2.0875
   60MOL0     H 8100   5.508   6.586  10.508 -1.0157 -0.8154 -0.8796
   61MOL0     O 8101   0.804   0.909   6.162  0.0082 -0.2681  0.0259
   61MOL0     C 8102   0.717   0.830   6.120  0.0002  0.0612  0.0141
   61MOL0     O 8103   0.699   0.704   6.165 -0.4755  0.1403  0.5096
   61MOL0     C 8104   0.756   0.664   6.285 -0.2918  1.4174 -0.0174
   61MOL0     C 8105   0.811   0.531   6.287 -1.1301 -0.3846 -0.4616
   61MOL0     C 8106   0.884   0.492   6.405  0.0344  0.8029  0.0212
   61MOL0     C 8107   0.894   0.573   6.517  0.2169  0.2466 -0.3312
   61MOL0     O 8108   0.969   0.546   6.634  0.8854 -0.1486  0.2417
   61MOL0     C 8109   1.007   0.401   6.663  0.3748 -0.5072  0.8262
   61MOL0     C 8110   0.876   0.313   6.661 -0.0668 -0.2021 -1.0438
   61MOL0     C 8111   0.889   0.186   6.746  0.0917 -1.0433  0.5891
   61MOL0     C 8112   0.774   0.090   6.716 -0.2349  1.1444  0.9217
   61MOL0     C 8113   0.628   0.144   6.708 -0.0107  0.4582 -0.7498
   61MOL0     C 8114   0.534   0.033   6.756 -0.4162 -0.9969  0.3965
   61MOL0     C 8115   0.526   0.008   6.908 -0.1074 -0.4562  0.6255
   61MOL0     C 8116   0.374  -0.028   6.944  0.4379  1.2686 -0.1137
   61MOL0     N 8117   0.299  -0.122   6.861 -0.0933  0.1823  0.1669
   61MOL0     C 8118   0.332  -0.250   6.839 -0.3993  1.2245 -0.0331
   61MOL0     C 8119   0.277  -0.290   6.723 -0.3289 -0.1404  0.0526
   61MOL0     C 8120   0.293  -0.435   6.664 -0.7719  0.7648  0.8888
   61MOL0     C 8121   0.234  -0.537   6.763 -0.2825 -0.1106 -0.2308
   61MOL0     C 8122   0.223  -0.680   6.716  0.1067 -0.7842 -0.2361
   61MOL0     C 8123   0.167  -0.763   6.829  1.0268 -0.3874 -0.1439
   61MOL0     O 8124   0.023  -0.734   6.855 -0.3538 -0.3307  0.1170
   61MOL0     C 8125  -0.036  -0.786   6.969  0.1774  0.0968 -1.4018
   61MOL0     C 8126  -0.147  -0.719   7.030 -1.3506  0.2744  1.1104
   61MOL0     C 8127  -0.205  -0.751   7.143 -0.0686 -0.1802  0.8120
   61MOL0     C 8128  -0.318  -0.662   7.189 -0.1364 -0.3303 -0.2941
   61MOL0     C 8129  -0.161  -0.866   7.208  0.6655  0.6508  0.1129
   61MOL0     C 8130  -0.217  -0.909   7.350  0.3191  0.0111  1.0894
   61MOL0     O 8131  -0.134  -1.000   7.412 -0.1062  0.3843 -0.1358
   61MOL0     C 8132  -0.175  -1.049   7.528  0.4634 -0.1775 -0.7312
   61MOL0     C 8133  -0.202  -1.185   7.543  0.5245  0.0623 -0.1930
   61MOL0     C 8134  -0.274  -1.232   7.655 -1.2965  0.1849 -0.0097
   61MOL0     C 8135  -0.301  -1.148   7.763  0.5460  0.0795 -0.3074
   61MOL0     O 8136  -0.363  -1.194   7.880  0.1686 -0.7494 -0.1826
   61MOL0     C 8137  -0.355  -1.340   7.905 -0.7176 -0.9389  0.1150
   61MOL0     C 8138  -0.482  -1.420   7.874 -0.6254  0.1071 -0.1228
   61MOL0     C 8139  -0.448  -1.571   7.885  0.5374 -0.2365  0.1550
   61MOL0     C 8140  -0.578  -1.641   7.896  0.2415  0.8951 -1.3199
   61MOL0     C 8141  -0.564  -1.785   7.936 -0.9566  0.4911  0.0034
   61MOL0     C 8142  -0.707  -1.851   7.956  0.7843  1.1326 -0.8332
   61MOL0     C 8143  -0.708  -1.978   8.043 -0.2509 -0.1471 -0.4546
   61MOL0     C 8144  -0.627  -2.094   7.993 -0.6633  0.8355 -1.2246
   61MOL0    Cl 8145  -0.653  -2.253   8.058  0.4211 -0.5027 -0.2453
   61MOL0     C 8146  -0.266  -1.013   7.759 -0.6953 -0.2873 -0.6533
   61MOL0     C 8147  -0.195  -0.966   7.643  0.1773 -0.5627 -0.2008
   61MOL0     O 8148  -0.320  -0.862   7.391  0.3803  0.3678 -1.2161
   61MOL0     C 8149  -0.062  -0.949   7.148  0.1061  1.2975  0.4052
   61MOL0     C 8150  -0.001  -0.914   7.027  0.0230 -0.6780 -0.2390
   61MOL0     N 8151   0.201  -0.190   6.671  0.1837 -0.2142 -0.4694
   61MOL0     N 8152   0.218  -0.087   6.751 -0.3007  0.7854  0.6546
   61MOL0     C 8153   0.822   0.698   6.523 -0.7161  0.1059 -0.6525
   61MOL0     C 8154   0.760   0.746   6.400  0.0855 -0.1182 -0.3070
   61MOL0     C 8155   0.616   0.871   6.034 -0.8093 -0.1559 -0.0836
   61MOL0     C 8156   0.516   0.781   5.993 -0.0208  0.5886 -0.1509
   61MOL0     C 8157   0.425   0.811   5.893  0.8463  0.3030  0.4800
   61MOL0     C 8158   0.426   0.940   5.842  0.8978  0.2415  0.5787
   61MOL0     O 8159   0.343   0.982   5.737 -0.8858 -0.4187 -0.3759
   61MOL0     C 8160   0.216   0.907   5.732  0.4268  0.0321  0.0805
   61MOL0     C 8161   0.123   0.990   5.647 -0.2619  0.2346  0.3993
   61MOL0     C 8162  -0.008   0.917   5.606 -0.5883  0.2117  0.0383
   61MOL0     C 8163  -0.105   1.012   5.542  0.2807  1.6182 -0.6681
   61MOL0     C 8164  -0.229   0.928   5.513  0.3249 -0.5897 -0.1844
   61MOL0     C 8165  -0.328   0.857   5.499 -0.0055 -0.2230  0.9354
   61MOL0     C 8166   0.516   1.036   5.887  0.5329  1.3451 -0.0240
   61MOL0     C 8167   0.611   1.001   5.982 -0.1083 -0.7742  0.8159
   61MOL0     H 8168   0.802   0.465   6.201 -2.1415 -3.2560  1.6820
   61MOL0     H 8169   0.931   0.395   6.402  0.6219  1.1039 -2.2660
   61MOL0     H 8170   1.082   0.364   6.593 -3.1530 -1.4636 -2.7906
   61MOL0     H 8171   1.062   0.402   6.758  3.1960 -0.1397 -0.7289
   61MOL0     H 8172   0.800   0.373   6.713  1.6749 -0.7867  2.4677
   61MOL0     H 8173   0.839   0.298   6.559 -0.3571  2.3015 -1.3724
   61MOL0     H 8174   0.985   0.137   6.732 -0.3103 -2.0890  1.3425
   61MOL0     H 8175   0.892   0.219   6.850  2.1639  0.3651  0.1317
   61MOL0     H 8176   0.793   0.042   6.620 -0.5575  0.7530  1.0506
   61MOL0     H 8177   0.780   0.001   6.778  2.7035 -0.4367 -1.3996
   61MOL0     H 8178   0.613   0.229   6.774  1.2525  2.3355 -2.7132
   61MOL0     H 8179   0.603   0.163   6.603 -2.3728  0.7780 -0.1805
   61MOL0     H 8180   0.443   0.069   6.706  0.5644  3.5623  1.4544
   61MOL0     H 8181   0.556  -0.059   6.701 -0.3184 -0.4771 -0.4527
   61MOL0     H 8182   0.597  -0.072   6.931 -1.3172 -1.8234 -0.2058
   61MOL0     H 8183   0.559   0.086   6.977  2.5085  0.6529 -1.7003
   61MOL0     H 8184   0.314   0.063   6.945  1.1114  1.7297  0.9161
   61MOL0     H 8185   0.384  -0.069   7.046 -3.0196 -1.0229 -0.5289
   61MOL0     H 8186   0.403  -0.309   6.897  0.5156  0.1784 -2.1189
   61MOL0     H 8187   0.246  -0.444   6.566  3.0085  0.6156 -1.0405
   61MOL0     H 8188   0.400  -0.449   6.649 -0.0831  0.9899  4.5311
   61MOL0     H 8189   0.132  -0.507   6.790 -0.3372  1.1903 -1.7476
   61MOL0     H 8190   0.296  -0.523   6.852 -1.1505  2.1644  0.0865
   61MOL0     H 8191   0.323  -0.719   6.694  1.3135  1.7336  0.3927
   61MOL0     H 8192   0.150  -0.675   6.634 -2.0858  1.7248  1.7046
   61MOL0     H 8193   0.237  -0.734   6.908  0.2014  1.9733 -0.1988
   61MOL0     H 8194   0.182  -0.867   6.801 -0.5723 -0.0883 -2.3556
   61MOL0     H 8195  -0.171  -0.623   6.984 -2.5126 -0.6589 -0.3303
   61MOL0     H 8196  -0.341  -0.574   7.129 -1.7722 -2.3529 -2.8963
   61MOL0     H 8197  -0.409  -0.723   7.198 -0.1689 -0.1437  0.7650
   61MOL0     H 8198  -0.294  -0.642   7.294  0.3374  1.3256 -0.6978
   61MOL0     H 8199  -0.171  -1.241   7.456 -0.7406 -0.4419 -0.3485
   61MOL0     H 8200  -0.303  -1.336   7.644  1.1513 -0.5685  0.0001
   61MOL0     H 8201  -0.277  -1.399   7.855 -1.4618 -0.6926 -1.4141
   61MOL0     H 8202  -0.330  -1.351   8.011  0.7817  1.8252  0.1406
   61MOL0     H 8203  -0.550  -1.396   7.955 -0.4681  1.0706 -0.2673
   61MOL0     H 8204  -0.531  -1.398   7.779 -0.1103  1.6720 -0.0464
   61MOL0     H 8205  -0.385  -1.592   7.972  0.2481 -2.5082 -0.1073
   61MOL0     H 8206  -0.396  -1.618   7.801 -0.3995 -1.5315  0.2719
   61MOL0     H 8207  -0.639  -1.600   7.978  0.1550  0.8551 -1.3648
   61MOL0     H 8208  -0.631  -1.631   7.802 -1.9282  0.2004 -0.2503
   61MOL0     H 8209  -0.516  -1.798   8.034 -3.8184 -0.1517  1.4072
   61MOL0     H 8210  -0.498  -1.842   7.870 -2.7513 -0.3548 -1.1287
   61MOL0     H 8211  -0.767  -1.774   8.005  1.5175  0.7316  0.7533
   61MOL0     H 8212  -0.757  -1.892   7.868  3.8980  2.2203 -3.3069
   61MOL0     H 8213  -0.811  -2.015   8.041 -0.1677 -0.3719 -2.0708
   61MOL0     H 8214  -0.683  -1.949   8.145 -1.0073 -0.3978 -0.1926
   61MOL0     H 8215  -0.521  -2.066   7.987 -0.6946  1.5214  0.6534
   61MOL0     H 8216  -0.664  -2.101   7.890  0.4314  0.7294 -1.6228
   61MOL0     H 8217  -0.303  -0.946   7.836 -2.7737 -3.2763  1.1924
   61MOL0     H 8218  -0.191  -0.858   7.636 -3.1245 -0.3116  0.2544
   61MOL0     H 8219  -0.040  -1.043   7.198 -2.0464  1.4548  1.7662
   61MOL0     H 8220   0.088  -0.965   6.991  0.7880  0.7100 -0.3627
   61MOL0     H 8221   0.820   0.736   6.625 -0.8487 -0.5979 -0.3847
   61MOL0     H 8222   0.701   0.837   6.404  0.8593  0.3393  2.1064
   61MOL0     H 8223   0.512   0.677   6.025  0.0164 -0.4656 -3.2252
   61MOL0     H 8224   0.371   0.728   5.848  0.9971  1.8421 -2.8522
   61MOL0     H 8225   0.241   0.814   5.680  1.3197  1.2136 -1.6872
   61MOL0     H 8226   0.164   0.907   5.829 -2.8073  1.6258 -1.5066
   61MOL0     H 8227   0.184   1.009   5.559 -0.1592 -0.3610  0.3377
   61MOL0     H 8228   0.097   1.085   5.696 -0.1074 -0.4161  1.8022
   61MOL0     H 8229  -0.043   0.874   5.700  1.5844 -0.3234  0.6458
   61MOL0     H 8230   0.018   0.839   5.534  0.7544  1.0864 -0.4704
   61MOL0     H 8231  -0.063   1.051   5.449  2.5880 -0.9723 -0.8364
   61MOL0     H 8232  -0.116   1.096   5.612  1.9502 -0.0476  1.7614
   61MOL0     H 8233  -0.410   0.797   5.468  0.3129 -1.2751  2.0597
   61MOL0     H 8234   0.496   1.139   5.860  0.1887  1.1247 -0.6432
   61MOL0     H 8235   0.663   1.090   6.017 -0.8579 -0.5320  1.3410
   62MOL0     O 8236   8.003   1.726   7.047  0.1559  0.1292  0.3482
   62MOL0     C 8237   7.940   1.625   7.020  0.1035  0.9926 -0.1740
   62MOL0     O 8238   7.913   1.526   7.104 -0.1850 -0.2091 -0.2471
   62MOL0     C 8239   7.932   1.535   7.240  0.0252 -0.0750 -0.5563
   62MOL0     C 8240   7.994   1.639   7.323 -0.8758 -0.3507  0.0040
   62MOL0     C 8241   7.981   1.634   7.459  0.4868  0.4496  0.2675
   62MOL0     C 8242   7.932   1.521   7.526  1.2261 -1.0450  0.7776
   62MOL0     O 8243   7.937   1.515   7.661  0.7182  0.5254  0.1894
   62MOL0     C 8244   7.915   1.620   7.756 -0.1206 -0.1120  0.1755
   62MOL0     C 8245   7.768   1.645   7.795 -0.1216  0.1541  0.7486
   62MOL0     C 8246   7.702   1.742   7.690 -0.2398 -0.2632  1.1524
   62MOL0     C 8247   7.555   1.759   7.716 -0.1838 -0.0976 -0.6889
   62MOL0     C 8248   7.507   1.870   7.617  0.1435 -0.6676  1.1815
   62MOL0     C 8249   7.349   1.885   7.595 -0.2574 -0.5049  0.6757
   62MOL0     C 8250   7.309   1.954   7.467  0.4577 -0.5041  0.0665
   62MOL0     C 8251   7.182   1.895   7.411 -0.7601  0.5781  0.4848
   62MOL0     N 8252   7.066   1.954   7.475 -0.5987 -0.7789 -0.2355
   62MOL0     C 8253   7.017   1.905   7.590  0.6759  0.1102 -1.0218
   62MOL0     C 8254   6.934   2.006   7.635 -0.8061 -0.2574  0.3961
   62MOL0     C 8255   6.880   2.011   7.774 -0.2921  0.1700  0.3334
   62MOL0     C 8256   6.778   1.908   7.797 -0.0780  0.3362 -0.2192
   62MOL0     C 8257   6.680   1.943   7.909  0.5396 -0.2217  0.6694
   62MOL0     C 8258   6.557   1.852   7.906  0.4347 -0.7163 -0.3317
   62MOL0     O 8259   6.478   1.817   7.787 -0.9877 -0.9727  0.0383
   62MOL0     C 8260   6.348   1.767   7.789 -0.3585 -0.1264  0.2765
   62MOL0     C 8261   6.311   1.710   7.670 -0.9182 -0.4328  0.0159
   62MOL0     C 8262   6.183   1.670   7.635  0.0111 -0.2037 -0.3051
   62MOL0     C 8263   6.171   1.619   7.503 -0.8875 -0.4414  0.2127
   62MOL0     C 8264   6.084   1.678   7.736  0.2169  0.5124 -0.1834
   62MOL0     C 8265   5.938   1.636   7.714 -0.4538  0.4108  0.2341
   62MOL0     O 8266   5.909   1.605   7.589  0.1125 -0.5253  0.2036
   62MOL0     C 8267   5.776   1.611   7.542  0.3327 -0.1674 -0.9025
   62MOL0     C 8268   5.736   1.527   7.435  0.5726 -0.3180  0.7620
   62MOL0     C 8269   5.598   1.518   7.396  1.2989 -0.7921 -0.8736
   62MOL0     C 8270   5.500   1.591   7.466  0.0106  0.7184  0.4938
   62MOL0     O 8271   5.368   1.568   7.463  0.4579  0.1640  1.2764
   62MOL0     C 8272   5.318   1.442   7.419 -0.2840 -0.4691  0.4838
   62MOL0     C 8273   5.164   1.464   7.455  0.3045 -0.9885 -0.9558
   62MOL0     C 8274   5.111   1.375   7.567  0.1434 -0.5644  0.2163
   62MOL0     C 8275   4.960   1.374   7.583 -0.1110 -0.6294  0.2730
   62MOL0     C 8276   4.884   1.510   7.604  0.5783  0.1112  0.0382
   62MOL0     C 8277   4.744   1.479   7.662 -0.3937 -0.0204  1.0853
   62MOL0     C 8278   4.672   1.622   7.679  0.4822 -0.0955 -0.0946
   62MOL0     C 8279   4.605   1.666   7.550  0.9197 -0.4283 -0.3139
   62MOL0    Cl 8280   4.453   1.569   7.541 -0.4953  0.4417  0.4486
   62MOL0     C 8281   5.544   1.683   7.562  0.2895 -0.3509 -0.0297
   62MOL0     C 8282   5.680   1.693   7.606  1.3564  0.0514 -0.0045
   62MOL0     O 8283   5.865   1.613   7.810 -0.8845 -0.4897  0.4964
   62MOL0     C 8284   6.119   1.729   7.862 -1.4763 -0.0910  0.3085
   62MOL0     C 8285   6.251   1.777   7.888  0.9146 -0.6156 -0.4092
   62MOL0     N 8286   6.954   2.122   7.549 -0.5519 -0.0403 -0.7826
   62MOL0     N 8287   7.023   2.075   7.450  0.1421 -0.1437 -0.1829
   62MOL0     C 8288   7.879   1.410   7.448 -0.3059 -0.1593  0.6808
   62MOL0     C 8289   7.877   1.422   7.306  0.2191  0.2183 -0.8844
   62MOL0     C 8290   7.874   1.617   6.884 -0.3107 -0.5454 -0.5066
   62MOL0     C 8291   7.763   1.541   6.851 -0.6379  0.0708 -0.3817
   62MOL0     C 8292   7.702   1.551   6.725  0.3207 -0.2564 -0.1484
   62MOL0     C 8293   7.761   1.610   6.617 -0.9075  0.2495 -0.0541
   62MOL0     O 8294   7.735   1.603   6.488  0.7936  0.7764  0.5947
   62MOL0     C 8295   7.653   1.496   6.455  0.6009 -0.0775 -0.0893
   62MOL0     C 8296   7.516   1.553   6.405  0.5482  0.8815 -0.4528
   62MOL0     C 8297   7.408   1.458   6.342  0.6025 -0.4308  0.0595
   62MOL0     C 8298   7.473   1.372   6.229 -0.9881 -0.4652 -0.9797
   62MOL0     C 8299   7.378   1.301   6.154 -0.3449 -0.5541  0.3156
   62MOL0     C 8300   7.291   1.232   6.104 -0.1957  0.5699  0.4225
   62MOL0     C 8301   7.865   1.701   6.646  0.5028 -0.7261 -1.4036
   62MOL0     C 8302   7.922   1.703   6.776  0.5244  1.2979 -0.5064
   62MOL0     H 8303   8.052   1.725   7.291  0.4978 -0.2836  2.4104
   62MOL0     H 8304   8.044   1.708   7.508 -0.2839  1.8730 -0.7799
   62MOL0     H 8305   7.975   1.586   7.841  1.0062 -3.4885 -1.7479
   62MOL0     H 8306   7.972   1.701   7.711 -0.7742  0.1573 -0.1822
   62MOL0     H 8307   7.709   1.552   7.796 -0.4336  0.2524 -1.8988
   62MOL0     H 8308   7.774   1.703   7.888  1.6226 -1.2678  1.5972
   62MOL0     H 8309   7.753   1.838   7.694  1.8601 -1.1347 -1.5143
   62MOL0     H 8310   7.708   1.699   7.590  1.3566  3.5598 -0.5761
   62MOL0     H 8311   7.496   1.669   7.695 -0.7126  0.4625 -1.6492
   62MOL0     H 8312   7.541   1.796   7.818 -0.4171  2.5112 -1.6050
   62MOL0     H 8313   7.548   1.968   7.646  0.6405  0.3875 -2.5935
   62MOL0     H 8314   7.548   1.839   7.521  0.9136 -2.1168  1.9430
   62MOL0     H 8315   7.308   1.784   7.593 -1.1823 -0.2041 -3.6123
   62MOL0     H 8316   7.308   1.937   7.682 -0.5633  1.6683 -0.6891
   62MOL0     H 8317   7.287   2.061   7.475 -0.2706 -0.7232  1.1335
   62MOL0     H 8318   7.391   1.937   7.396  0.6018  1.9880 -0.4552
   62MOL0     H 8319   7.183   1.786   7.409  2.1844  0.5113 -0.6598
   62MOL0     H 8320   7.176   1.926   7.306  3.4214  0.1380 -0.0846
   62MOL0     H 8321   7.018   1.811   7.644  1.9201  0.2698 -0.7389
   62MOL0     H 8322   6.970   1.987   7.831  0.0024 -2.5490 -1.1101
   62MOL0     H 8323   6.842   2.112   7.794 -2.1348  0.4625 -3.7060
   62MOL0     H 8324   6.820   1.808   7.813 -0.9676 -0.3191 -1.7858
   62MOL0     H 8325   6.715   1.892   7.709 -0.4431  0.2113  0.0602
   62MOL0     H 8326   6.636   2.042   7.902 -0.9082 -0.7086  2.1882
   62MOL0     H 8327   6.728   1.937   8.007  2.1194  0.5864 -0.0175
   62MOL0     H 8328   6.488   1.904   7.972  1.0871  1.9942 -1.6128
   62MOL0     H 8329   6.580   1.760   7.961 -0.9038  1.2793  3.9752
   62MOL0     H 8330   6.391   1.699   7.598 -0.8648  2.4198 -0.4790
   62MOL0     H 8331   6.138   1.515   7.507 -4.9508  0.5622 -1.6791
   62MOL0     H 8332   6.101   1.680   7.446 -0.1662  0.2993  0.0997
   62MOL0     H 8333   6.267   1.622   7.451  0.7464 -0.7547  3.0219
   62MOL0     H 8334   5.805   1.461   7.384  1.4495  1.7318 -0.8529
   62MOL0     H 8335   5.561   1.453   7.318  0.6037  1.7664 -2.8258
   62MOL0     H 8336   5.352   1.431   7.316 -0.9027 -0.4387  0.2753
   62MOL0     H 8337   5.358   1.350   7.463  0.8555 -0.5821 -0.7119
   62MOL0     H 8338   5.156   1.569   7.486 -3.4754 -1.7785  1.4725
   62MOL0     H 8339   5.101   1.452   7.367 -2.3325  0.9062  0.5154
   62MOL0     H 8340   5.147   1.404   7.666 -2.3295  0.4327  0.9020
   62MOL0     H 8341   5.141   1.270   7.557  1.3046 -0.2653  0.3710
   62MOL0     H 8342   4.924   1.327   7.491 -3.9096  2.3452 -0.0229
   62MOL0     H 8343   4.939   1.306   7.665  1.2802 -3.7379 -1.7739
   62MOL0     H 8344   4.886   1.577   7.518  0.0148 -1.8707 -1.6016
   62MOL0     H 8345   4.947   1.558   7.680  1.0507  3.1298 -2.0853
   62MOL0     H 8346   4.692   1.404   7.601  2.0559 -2.5373  1.8415
   62MOL0     H 8347   4.749   1.445   7.766 -2.4685  0.3473  1.3425
   62MOL0     H 8348   4.743   1.699   7.710 -1.2110  1.0962  0.9759
   62MOL0     H 8349   4.603   1.618   7.765  0.5122  3.3165  0.2255
   62MOL0     H 8350   4.671   1.661   7.463  1.4820  1.0133  0.0010
   62MOL0     H 8351   4.578   1.772   7.557  2.7104  0.1471 -1.3868
   62MOL0     H 8352   5.476   1.741   7.623 -0.2701 -1.0583  0.0344
   62MOL0     H 8353   5.705   1.760   7.687 -1.8501  1.1439  0.2453
   62MOL0     H 8354   6.045   1.738   7.942 -2.2004 -0.1789 -0.3352
   62MOL0     H 8355   6.265   1.825   7.984 -0.7470  0.4551 -0.6572
   62MOL0     H 8356   7.844   1.324   7.503 -0.9201 -0.2597  0.1464
   62MOL0     H 8357   7.835   1.338   7.251  2.1591 -0.5652 -1.2260
   62MOL0     H 8358   7.728   1.473   6.928  1.2463 -1.6914 -0.9965
   62MOL0     H 8359   7.608   1.499   6.708  0.8379 -0.5934 -2.2518
   62MOL0     H 8360   7.712   1.459   6.370  0.7429  1.6216 -0.7669
   62MOL0     H 8361   7.633   1.410   6.520  1.5838 -0.5206 -0.3528
   62MOL0     H 8362   7.541   1.639   6.343  1.2797  2.8491  2.3933
   62MOL0     H 8363   7.458   1.584   6.493  0.6786 -2.9409  1.2261
   62MOL0     H 8364   7.335   1.523   6.292  3.2175  2.4654 -0.2607
   62MOL0     H 8365   7.357   1.391   6.412 -1.9726  1.5678  0.2538
   62MOL0     H 8366   7.549   1.310   6.278 -1.1783  0.1403  0.1117
   62MOL0     H 8367   7.525   1.433   6.155 -2.4971  2.3146  0.0795
   62MOL0     H 8368   7.216   1.179   6.049 -0.2824  1.7048 -0.5876
   62MOL0     H 8369   7.898   1.765   6.565  1.6230 -0.8319 -1.0461
   62MOL0     H 8370   8.002   1.773   6.797  0.2328  2.1802 -2.1437
   63MOL0     O 8371   7.039   9.713   8.817 -0.1986 -0.1118  0.3967
   63MOL0     C 8372   7.078   9.824   8.846 -0.5237 -0.4177  0.1109
   63MOL0     O 8373   7.209   9.863   8.841  0.2274 -0.1845 -0.4686
   63MOL0     C 8374   7.293   9.773   8.791 -0.0945 -0.1848 -0.3896
   63MOL0     C 8375   7.355   9.684   8.889 -0.1139 -0.9092 -0.0228
   63MOL0     C 8376   7.462   9.599   8.846  0.4903 -0.1971 -0.5953
   63MOL0     C 8377   7.486   9.595   8.710  0.1693  0.8096  0.5935
   63MOL0     O 8378   7.597   9.532   8.662  0.2937  0.8884  0.4090
   63MOL0     C 8379   7.560   9.440   8.554  0.2302 -0.4497  0.7274
   63MOL0     C 8380   7.681   9.349   8.514  0.1423  0.9107  0.3179
   63MOL0     C 8381   7.630   9.218   8.464  0.6723 -0.7224  0.2711
   63MOL0     C 8382   7.607   9.226   8.306  0.1580 -0.0846 -1.4869
   63MOL0     C 8383   7.534   9.113   8.239  0.2233  0.7858 -0.8628
   63MOL0     C 8384   7.521   9.121   8.082 -0.8146  0.0233  0.1793
   63MOL0     C 8385   7.647   9.071   8.012 -1.3116  0.0226  0.4542
   63MOL0     C 8386   7.643   9.091   7.856  0.3576 -0.2007  0.1080
   63MOL0     N 8387   7.772   9.050   7.793 -0.6117 -1.2536 -0.4395
   63MOL0     C 8388   7.885   9.123   7.781 -0.4994  0.1511  0.0787
   63MOL0     C 8389   7.961   9.028   7.717 -0.1730  0.5181 -0.4656
   63MOL0     C 8390   8.110   9.055   7.679  0.6482 -0.6773  1.0670
   63MOL0     C 8391   8.203   8.969   7.758  0.6254  0.3880  0.9694
   63MOL0     C 8392   8.184   8.975   7.901  0.4867 -0.3078 -1.2821
   63MOL0     C 8393   8.282   8.884   7.964  0.5684  0.1612  0.6820
   63MOL0     O 8394   8.258   8.879   8.102 -0.7628  0.7582 -0.3630
   63MOL0     C 8395   8.311   8.966   8.192  0.2816  0.4119 -0.0159
   63MOL0     C 8396   8.346   9.096   8.169  0.7071 -0.9081 -0.4613
   63MOL0     C 8397   8.387   9.181   8.275 -0.5178  0.0342 -0.5701
   63MOL0     C 8398   8.463   9.308   8.238 -1.1350  0.0390 -1.5043
   63MOL0     C 8399   8.387   9.130   8.405 -0.2985  0.0562  0.1462
   63MOL0     C 8400   8.439   9.211   8.521 -0.5366 -0.5741  1.3445
   63MOL0     O 8401   8.470   9.142   8.623 -0.0382 -0.2391  0.3189
   63MOL0     C 8402   8.516   9.202   8.738 -0.3226 -0.7427  0.0084
   63MOL0     C 8403   8.473   9.153   8.859 -0.5518  0.5068 -0.4109
   63MOL0     C 8404   8.521   9.203   8.984  0.1628  0.8278 -0.1162
   63MOL0     C 8405   8.621   9.301   8.986  0.9603  0.6809 -0.1494
   63MOL0     O 8406   8.653   9.360   9.107  0.5993 -0.0739  0.1531
   63MOL0     C 8407   8.581   9.318   9.227 -0.2545  0.2403  0.7771
   63MOL0     C 8408   8.599   9.422   9.334 -0.6437 -0.0413 -0.4719
   63MOL0     C 8409   8.544   9.374   9.469 -0.2251  0.7659  0.4224
   63MOL0     C 8410   8.615   9.245   9.515 -0.0354  0.1756 -0.0048
   63MOL0     C 8411   8.599   9.215   9.663 -0.1653  0.1555  0.5219
   63MOL0     C 8412   8.730   9.138   9.718  0.5486 -0.1112 -0.5269
   63MOL0     C 8413   8.823   9.251   9.764 -0.4672 -0.2180 -0.4541
   63MOL0     C 8414   8.826   9.253   9.916  0.5025  0.3951 -0.7759
   63MOL0    Cl 8415   8.681   9.264  10.004  0.0753 -0.6475 -0.4892
   63MOL0     C 8416   8.671   9.354   8.862 -0.4247  0.7214 -0.5391
   63MOL0     C 8417   8.624   9.300   8.738  1.2105 -0.0414 -1.9016
   63MOL0     O 8418   8.428   9.332   8.512  0.3857 -0.5104 -0.4286
   63MOL0     C 8419   8.347   8.998   8.427 -0.0338  0.4144 -0.7296
   63MOL0     C 8420   8.319   8.914   8.319 -1.1735  0.5981 -0.5377
   63MOL0     N 8421   7.902   8.902   7.713 -1.1715 -0.6939  0.2134
   63MOL0     N 8422   7.786   8.918   7.755 -0.0776 -0.0835  0.3922
   63MOL0     C 8423   7.428   9.682   8.618  0.1661 -0.7855  0.0607
   63MOL0     C 8424   7.335   9.775   8.652  0.1647 -1.2186 -1.1389
   63MOL0     C 8425   6.975   9.912   8.900 -0.7871  0.1286 -0.8564
   63MOL0     C 8426   6.869   9.863   8.975 -0.3373  0.9922  0.3718
   63MOL0     C 8427   6.768   9.934   9.030 -0.2388  0.3040  0.0329
   63MOL0     C 8428   6.783  10.071   9.017 -1.0818  0.1545  0.3008
   63MOL0     O 8429   6.671  10.131   9.084  0.7039  0.0922  0.1010
   63MOL0     C 8430   6.661  10.270   9.107  0.0492  1.0850  0.2489
   63MOL0     C 8431   6.542  10.331   9.036 -0.3650  0.6452  0.1593
   63MOL0     C 8432   6.419  10.256   9.089  0.3738  0.5246  0.2210
   63MOL0     C 8433   6.306  10.279   8.993  0.3042  0.2255  0.3496
   63MOL0     C 8434   6.309  10.193   8.871 -0.5261  0.2951  0.2033
   63MOL0     C 8435   6.334  10.108   8.776 -0.3928  0.9148  0.3298
   63MOL0     C 8436   6.890  10.135   8.953 -0.0091 -0.6337 -0.5099
   63MOL0     C 8437   6.990  10.056   8.899 -0.3708  0.4782  0.2351
   63MOL0     H 8438   7.325   9.672   8.993 -1.5789  1.8085 -0.0387
   63MOL0     H 8439   7.490   9.521   8.917 -1.5807  0.1587  0.6910
   63MOL0     H 8440   7.471   9.381   8.574 -1.3089  1.4407 -0.1684
   63MOL0     H 8441   7.534   9.495   8.463  2.5364  2.2040  1.5017
   63MOL0     H 8442   7.743   9.389   8.434  3.2284  2.6123  3.3120
   63MOL0     H 8443   7.751   9.330   8.595 -0.9957 -0.3651  1.0562
   63MOL0     H 8444   7.701   9.137   8.485 -1.6838 -3.4236 -1.3361
   63MOL0     H 8445   7.539   9.182   8.514 -0.5147  3.9831  1.9832
   63MOL0     H 8446   7.550   9.316   8.284 -0.0399  0.6237  1.4812
   63MOL0     H 8447   7.706   9.226   8.259  1.3800 -0.3674  0.8806
   63MOL0     H 8448   7.581   9.018   8.266  1.3046  2.1814  2.5991
   63MOL0     H 8449   7.431   9.109   8.277  0.1015 -3.1804 -1.1849
   63MOL0     H 8450   7.436   9.061   8.051  0.3312 -2.7521  2.0244
   63MOL0     H 8451   7.497   9.223   8.049 -2.1834  0.6380  2.8011
   63MOL0     H 8452   7.731   9.131   8.048 -2.2805  1.2694  0.6912
   63MOL0     H 8453   7.668   8.967   8.036  0.5806  0.0172 -0.9992
   63MOL0     H 8454   7.620   9.193   7.824  1.7061  0.0973  0.0335
   63MOL0     H 8455   7.567   9.020   7.823  0.5894 -0.2036 -0.4257
   63MOL0     H 8456   7.909   9.229   7.783  2.1851 -0.3691 -0.6583
   63MOL0     H 8457   8.113   9.015   7.577 -1.8164 -0.0164  0.6585
   63MOL0     H 8458   8.133   9.162   7.678  0.4544 -0.5797 -1.5255
   63MOL0     H 8459   8.308   8.982   7.732  0.6425 -1.0090  0.2506
   63MOL0     H 8460   8.178   8.869   7.722  0.7313  0.2100  1.3763
   63MOL0     H 8461   8.091   8.934   7.940  2.5719 -3.7382  0.6081
   63MOL0     H 8462   8.192   9.081   7.927 -1.1831 -0.5493  0.4049
   63MOL0     H 8463   8.387   8.913   7.957  0.3376  0.7697 -0.5594
   63MOL0     H 8464   8.277   8.783   7.923  3.7448  0.6274 -1.2262
   63MOL0     H 8465   8.335   9.145   8.073 -0.0425  1.0044  0.5418
   63MOL0     H 8466   8.549   9.322   8.304 -1.0406 -0.5256 -1.5016
   63MOL0     H 8467   8.504   9.290   8.138  0.4275 -0.1886 -0.8544
   63MOL0     H 8468   8.400   9.397   8.231  0.1194  0.8243 -4.2019
   63MOL0     H 8469   8.406   9.068   8.858 -0.2273  0.2183 -2.3814
   63MOL0     H 8470   8.468   9.153   9.064 -2.4345  3.1451 -0.2547
   63MOL0     H 8471   8.475   9.295   9.210 -0.1671 -1.6254  2.4789
   63MOL0     H 8472   8.637   9.227   9.246  0.5943  0.3582 -0.9887
   63MOL0     H 8473   8.704   9.450   9.343 -0.7237  0.8554 -1.9369
   63MOL0     H 8474   8.549   9.515   9.304  0.3749  1.0034  0.9142
   63MOL0     H 8475   8.437   9.356   9.459 -0.3275  1.7117 -0.3256
   63MOL0     H 8476   8.550   9.445   9.551 -1.1424  0.9388  0.3444
   63MOL0     H 8477   8.584   9.163   9.450  1.1565 -0.1125 -0.2380
   63MOL0     H 8478   8.724   9.249   9.502  0.1301 -1.7076  0.5382
   63MOL0     H 8479   8.508   9.153   9.660 -1.7093  2.3154  0.4404
   63MOL0     H 8480   8.579   9.302   9.726 -1.2207 -0.9313  1.7775
   63MOL0     H 8481   8.695   9.079   9.803 -0.3544  0.4854 -0.4645
   63MOL0     H 8482   8.760   9.079   9.631 -0.2430 -0.4753 -0.5625
   63MOL0     H 8483   8.790   9.351   9.734  0.6073  0.1527 -0.4385
   63MOL0     H 8484   8.929   9.244   9.735  0.4944  0.3388  2.6300
   63MOL0     H 8485   8.893   9.325   9.964 -0.5223  1.2766 -0.6257
   63MOL0     H 8486   8.872   9.157   9.944  3.5112  1.3869 -1.9239
   63MOL0     H 8487   8.745   9.431   8.843 -0.1554  0.4918 -0.4069
   63MOL0     H 8488   8.658   9.343   8.645  1.4863  1.0902 -1.2905
   63MOL0     H 8489   8.350   8.954   8.527 -0.4122  1.4953 -0.2328
   63MOL0     H 8490   8.296   8.810   8.336 -0.3331  0.5784  0.6015
   63MOL0     H 8491   7.467   9.702   8.519 -0.0776 -0.9466 -0.0683
   63MOL0     H 8492   7.293   9.853   8.589 -1.8694 -0.0655  1.4615
   63MOL0     H 8493   6.856   9.755   8.981  1.2749  0.8104  1.3931
   63MOL0     H 8494   6.685   9.903   9.093 -1.2076  0.3538 -1.1817
   63MOL0     H 8495   6.653  10.283   9.215  1.1329 -1.2638  0.6705
   63MOL0     H 8496   6.751  10.322   9.072 -0.2840  0.4659 -1.6449
   63MOL0     H 8497   6.554  10.342   8.928  3.1432  2.7463  0.6225
   63MOL0     H 8498   6.527  10.437   9.059 -0.5344  0.9638 -1.3272
   63MOL0     H 8499   6.388  10.303   9.183 -0.4394  1.9710 -0.7237
   63MOL0     H 8500   6.433  10.148   9.093 -0.3888  0.3634 -0.8181
   63MOL0     H 8501   6.275  10.380   8.964 -1.7043 -0.6719 -0.8327
   63MOL0     H 8502   6.221  10.243   9.052  0.2373  3.4585  2.5380
   63MOL0     H 8503   6.365  10.041   8.699 -3.8494 -0.1494 -0.2652
   63MOL0     H 8504   6.902  10.242   8.936 -3.3414 -0.0434  0.0197
   63MOL0     H 8505   7.086  10.093   8.865 -0.4339  0.4310  0.0092
   64MOL0     O 8506   2.185   9.619   6.282 -0.0154 -0.4667  0.5464
   64MOL0     C 8507   2.290   9.604   6.333  0.0633  0.2747  0.3980
   64MOL0     O 8508   2.406   9.555   6.275  0.5649 -0.1228  0.1534
   64MOL0     C 8509   2.465   9.636   6.177 -0.2787 -0.1931  0.3789
   64MOL0     C 8510   2.571   9.581   6.094 -0.1210 -0.2949 -0.0908
   64MOL0     C 8511   2.622   9.657   5.988  0.0089  0.4141 -0.4012
   64MOL0     C 8512   2.577   9.786   5.966 -0.6484 -0.0518 -0.0292
   64MOL0     O 8513   2.625   9.857   5.859 -0.4330  1.1671  0.0352
   64MOL0     C 8514   2.612   9.804   5.726 -0.5381 -0.8823 -0.1902
   64MOL0     C 8515   2.680   9.923   5.647  0.1419 -0.0859 -1.0217
   64MOL0     C 8516   2.676   9.908   5.490 -0.6694  0.6302 -0.6937
   64MOL0     C 8517   2.748  10.025   5.425  0.1223 -0.3297  0.1082
   64MOL0     C 8518   2.791   9.982   5.278  0.4454  0.3450 -0.4679
   64MOL0     C 8519   2.673  10.017   5.191 -0.5588  0.2763 -0.0711
   64MOL0     C 8520   2.719  10.028   5.054  0.5493  0.0551  0.5102
   64MOL0     C 8521   2.807  10.152   5.025  0.4627 -0.3687 -0.6515
   64MOL0     N 8522   2.823  10.193   4.878 -0.0977  0.4728 -0.1098
   64MOL0     C 8523   2.740  10.290   4.816 -0.0777  0.7039  0.6825
   64MOL0     C 8524   2.786  10.304   4.689  0.4401 -0.0687 -1.8732
   64MOL0     C 8525   2.726  10.387   4.579  0.1833  0.0645 -0.7823
   64MOL0     C 8526   2.698  10.305   4.452 -0.2712  1.1428  0.4023
   64MOL0     C 8527   2.619  10.388   4.353  0.3139 -0.5234  0.8432
   64MOL0     C 8528   2.579  10.303   4.234 -1.5455 -0.2939  0.7413
   64MOL0     O 8529   2.502  10.192   4.276 -0.2562 -0.0743  0.6945
   64MOL0     C 8530   2.366  10.196   4.256 -0.6360 -0.1543  0.0639
   64MOL0     C 8531   2.293  10.138   4.355 -0.5088 -0.8087 -0.7551
   64MOL0     C 8532   2.154  10.129   4.362  0.7304 -0.1844 -0.3179
   64MOL0     C 8533   2.090  10.077   4.492  0.2458 -0.0073 -0.0415
   64MOL0     C 8534   2.081  10.190   4.247  0.5745 -0.1246  0.2548
   64MOL0     C 8535   1.926  10.179   4.246 -0.0085  0.0748  1.9996
   64MOL0     O 8536   1.865  10.111   4.339 -0.1091  0.4161 -0.2308
   64MOL0     C 8537   1.737  10.063   4.312  0.5860 -0.0594  0.2537
   64MOL0     C 8538   1.707  10.005   4.183  0.0619 -0.0054 -0.1847
   64MOL0     C 8539   1.585   9.949   4.149  0.8007  0.3120  0.9600
   64MOL0     C 8540   1.485   9.940   4.249  0.3144 -0.6163  0.3347
   64MOL0     O 8541   1.371   9.866   4.228 -0.0212 -0.0151  0.0219
   64MOL0     C 8542   1.380   9.744   4.146 -0.1286 -0.5657 -0.2219
   64MOL0     C 8543   1.316   9.781   4.011 -0.9953 -0.3238  0.4598
   64MOL0     C 8544   1.320   9.654   3.912 -0.5508  0.3743  0.6246
   64MOL0     C 8545   1.465   9.590   3.914 -0.6828 -0.5595  0.6894
   64MOL0     C 8546   1.489   9.510   3.779 -1.2196  0.2521 -0.4199
   64MOL0     C 8547   1.632   9.490   3.729 -0.0533  0.2534  0.2358
   64MOL0     C 8548   1.667   9.545   3.590  0.1742 -0.0288 -0.6040
   64MOL0     C 8549   1.655   9.702   3.578  0.4938  0.0826 -0.3128
   64MOL0    Cl 8550   1.739   9.795   3.718  0.2364 -0.0732 -0.4844
   64MOL0     C 8551   1.509   9.995   4.374  0.2458 -0.1316 -0.0303
   64MOL0     C 8552   1.634  10.062   4.403 -0.2063  0.1161  0.2895
   64MOL0     O 8553   1.873  10.246   4.159 -0.1698  0.4010  0.3741
   64MOL0     C 8554   2.157  10.254   4.146  0.1790 -0.0364  0.9490
   64MOL0     C 8555   2.298  10.262   4.155 -0.0701  0.6322 -0.0984
   64MOL0     N 8556   2.881  10.206   4.674 -0.1567 -0.4271 -0.3929
   64MOL0     N 8557   2.910  10.153   4.788 -0.1611  0.1675  0.3864
   64MOL0     C 8558   2.483   9.847   6.043 -0.2712  0.1374 -0.9454
   64MOL0     C 8559   2.425   9.772   6.142 -0.6891  0.6022 -0.1386
   64MOL0     C 8560   2.291   9.597   6.484 -0.3727 -0.8317  1.7649
   64MOL0     C 8561   2.170   9.619   6.553 -0.3293  0.1088  1.1165
   64MOL0     C 8562   2.180   9.620   6.692 -0.0353 -0.1579 -0.3418
   64MOL0     C 8563   2.296   9.589   6.767  0.0947 -0.1945 -0.2726
   64MOL0     O 8564   2.292   9.601   6.904 -0.3826  0.2888  0.1272
   64MOL0     C 8565   2.324   9.485   6.967  0.0267  0.3521 -0.6858
   64MOL0     C 8566   2.259   9.467   7.106 -0.0681 -0.6396 -1.3681
   64MOL0     C 8567   2.284   9.594   7.193 -0.3827  0.8846  0.4683
   64MOL0     C 8568   2.229   9.582   7.328  0.7170  0.7471 -0.1449
   64MOL0     C 8569   2.273   9.688   7.412  0.4276 -0.1258 -0.8053
   64MOL0     C 8570   2.308   9.782   7.471 -0.0896 -0.1092 -0.3137
   64MOL0     C 8571   2.408   9.558   6.699  0.2459 -0.8698  0.2316
   64MOL0     C 8572   2.405   9.563   6.554  0.7421 -0.3622 -0.9115
   64MOL0     H 8573   2.598   9.476   6.097 -1.0500 -0.5854 -1.4121
   64MOL0     H 8574   2.695   9.616   5.919  0.1201  1.0671 -0.6774
   64MOL0     H 8575   2.673   9.717   5.701  1.3187  0.5163 -0.7360
   64MOL0     H 8576   2.509   9.789   5.693 -0.9932  1.0842  0.2077
   64MOL0     H 8577   2.612  10.000   5.684 -1.1268 -1.5839 -0.1345
   64MOL0     H 8578   2.783   9.930   5.685 -0.0378  1.0576 -0.7193
   64MOL0     H 8579   2.703   9.810   5.451 -2.9547 -0.5176  0.3938
   64MOL0     H 8580   2.570   9.908   5.461 -0.0915 -0.2158 -3.1197
   64MOL0     H 8581   2.680  10.110   5.418 -0.4571 -0.8592 -0.9158
   64MOL0     H 8582   2.835  10.040   5.489 -1.0513 -0.6133  1.8506
   64MOL0     H 8583   2.882  10.033   5.245  0.3236 -0.9209 -2.9280
   64MOL0     H 8584   2.817   9.877   5.267  0.8254 -0.2016  3.8696
   64MOL0     H 8585   2.590   9.947   5.197 -0.4598  0.1444 -0.2592
   64MOL0     H 8586   2.627  10.113   5.215 -0.5641  0.0487  0.9024
   64MOL0     H 8587   2.780   9.942   5.025  2.9101  1.1572  1.9681
   64MOL0     H 8588   2.635  10.029   4.983 -0.7981  0.8813  2.0535
   64MOL0     H 8589   2.904  10.133   5.072  0.4161 -3.2037 -1.5005
   64MOL0     H 8590   2.764  10.237   5.079  0.3546 -0.4398 -0.6237
   64MOL0     H 8591   2.658  10.347   4.858 -0.6234  0.1804  0.3508
   64MOL0     H 8592   2.634  10.423   4.626  0.8878  1.2274 -0.2430
   64MOL0     H 8593   2.786  10.474   4.551 -1.1727  1.3589  0.1706
   64MOL0     H 8594   2.652  10.211   4.486  1.5298  0.5239  1.2643
   64MOL0     H 8595   2.784  10.261   4.401 -1.1462 -1.4699  0.9857
   64MOL0     H 8596   2.681  10.466   4.308 -1.3445  0.0617 -0.5123
   64MOL0     H 8597   2.529  10.428   4.400  0.7224  2.9521 -1.0534
   64MOL0     H 8598   2.669  10.284   4.176 -1.6076 -1.1566  0.9095
   64MOL0     H 8599   2.535  10.376   4.166  2.1317 -0.3295 -1.9738
   64MOL0     H 8600   2.344  10.108   4.446 -0.3904  0.5549 -0.3528
   64MOL0     H 8601   2.008  10.135   4.535 -0.4401 -0.3828 -0.8053
   64MOL0     H 8602   2.046   9.979   4.468 -1.7111  0.5932  0.9290
   64MOL0     H 8603   2.169  10.059   4.565 -0.4798  1.2994  1.0926
   64MOL0     H 8604   1.787  10.018   4.111  3.7413 -1.6978  3.2567
   64MOL0     H 8605   1.573   9.905   4.050 -1.0356  2.1564  0.2956
   64MOL0     H 8606   1.483   9.712   4.132  0.5708  2.0158 -1.5079
   64MOL0     H 8607   1.322   9.667   4.199 -0.9114  0.5163  0.5289
   64MOL0     H 8608   1.213   9.816   4.013 -1.8724 -2.6534 -0.1911
   64MOL0     H 8609   1.384   9.856   3.969  0.1088 -1.0194  0.9577
   64MOL0     H 8610   1.288   9.691   3.815 -0.3933  1.6476  1.0353
   64MOL0     H 8611   1.236   9.588   3.934 -0.8397 -0.0986 -1.6456
   64MOL0     H 8612   1.532   9.674   3.935 -1.1683 -0.2301  0.9457
   64MOL0     H 8613   1.476   9.529   4.003  0.6080  0.2207  1.0880
   64MOL0     H 8614   1.439   9.572   3.704  0.3084  3.5238  1.0612
   64MOL0     H 8615   1.439   9.413   3.782  2.0286 -1.6036 -1.2955
   64MOL0     H 8616   1.700   9.524   3.808 -1.4756  0.7751  1.2885
   64MOL0     H 8617   1.655   9.384   3.718  1.1866  0.0571  3.4620
   64MOL0     H 8618   1.592   9.503   3.523 -2.5671  4.4635 -0.7345
   64MOL0     H 8619   1.770   9.508   3.582  0.1093 -0.3836  0.1132
   64MOL0     H 8620   1.548   9.719   3.561  0.8654 -0.8002 -4.9839
   64MOL0     H 8621   1.710   9.724   3.486  0.2801  3.9110  0.3048
   64MOL0     H 8622   1.423  10.001   4.441  1.5965  2.5511  1.6777
   64MOL0     H 8623   1.655  10.099   4.502  0.8995 -0.6472  0.3659
   64MOL0     H 8624   2.105  10.302   4.064 -2.1117 -2.4555  0.8513
   64MOL0     H 8625   2.356  10.300   4.072 -1.9325  0.6505 -1.4421
   64MOL0     H 8626   2.470   9.952   6.017  2.4778  0.4008 -1.5397
   64MOL0     H 8627   2.356   9.818   6.212 -0.6513  0.1302  0.2077
   64MOL0     H 8628   2.076   9.627   6.499 -0.0972 -0.5068  0.6200
   64MOL0     H 8629   2.089   9.651   6.741 -2.1788 -1.3998 -3.2785
   64MOL0     H 8630   2.283   9.408   6.901 -0.8281 -0.2434  0.4827
   64MOL0     H 8631   2.432   9.469   6.972  0.5447  3.3111 -0.5340
   64MOL0     H 8632   2.305   9.381   7.156 -3.1795  0.4773  4.2618
   64MOL0     H 8633   2.151   9.460   7.087 -0.4219 -1.7378  0.7687
   64MOL0     H 8634   2.254   9.691   7.151  2.5894  1.4855 -0.4732
   64MOL0     H 8635   2.393   9.600   7.199 -0.3414 -0.4815  1.4226
   64MOL0     H 8636   2.272   9.488   7.362  2.3762  0.9610 -1.5381
   64MOL0     H 8637   2.120   9.571   7.324  0.8175 -0.2850 -0.1855
   64MOL0     H 8638   2.329   9.876   7.518  1.1089 -1.1375  1.3436
   64MOL0     H 8639   2.507   9.560   6.744 -0.3519  1.1230  1.6098
   64MOL0     H 8640   2.496   9.531   6.504  1.8696  0.4589  0.5540
   65MOL0     O 8641   7.190   6.058   9.414 -0.3162  0.0194  0.5154
   65MOL0     C 8642   7.122   6.043   9.515  0.3775 -0.8278  0.2155
   65MOL0     O 8643   7.060   6.141   9.579  0.0460  0.4283 -0.5178
   65MOL0     C 8644   7.061   6.262   9.520  0.1523 -0.4753 -0.1348
   65MOL0     C 8645   7.000   6.278   9.399 -0.3285 -1.1920 -0.4925
   65MOL0     C 8646   6.981   6.410   9.345  0.7065 -0.2702 -0.1658
   65MOL0     C 8647   7.032   6.529   9.407  0.7820  1.2928 -0.1733
   65MOL0     O 8648   7.010   6.649   9.343 -0.2788 -0.4798  0.6484
   65MOL0     C 8649   6.995   6.773   9.403 -0.5549 -0.1597  0.1540
   65MOL0     C 8650   7.119   6.851   9.373  0.7212 -0.0064  0.2560
   65MOL0     C 8651   7.114   6.998   9.427 -0.4426 -0.3891  0.3920
   65MOL0     C 8652   7.076   7.030   9.574 -0.3070 -0.0433 -0.1558
   65MOL0     C 8653   7.147   6.951   9.680  0.1711 -0.9100  0.6457
   65MOL0     C 8654   7.070   6.976   9.807 -0.0580  0.3324  0.0038
   65MOL0     C 8655   7.137   6.906   9.924 -1.0384  0.5297  0.3254
   65MOL0     C 8656   7.057   6.953  10.051  0.4151 -0.3188  0.2114
   65MOL0     N 8657   7.115   7.069  10.106  0.8845 -0.0234  0.0876
   65MOL0     C 8658   7.209   7.086  10.206 -1.1355 -0.3991  0.7480
   65MOL0     C 8659   7.228   7.219  10.226 -1.4204 -0.3975  0.4330
   65MOL0     C 8660   7.322   7.297  10.318  0.1165 -0.4993 -0.7124
   65MOL0     C 8661   7.385   7.202  10.431  0.0442  0.8554 -0.2689
   65MOL0     C 8662   7.505   7.271  10.499  1.1188  0.3116  0.2422
   65MOL0     C 8663   7.604   7.173  10.564 -0.8759  0.4318 -0.8643
   65MOL0     O 8664   7.728   7.240  10.611  0.5578 -0.2508 -0.4273
   65MOL0     C 8665   7.818   7.155  10.661 -0.8130  0.5641  0.1207
   65MOL0     C 8666   7.800   7.011  10.696  0.6429 -0.3944 -0.7046
   65MOL0     C 8667   7.903   6.932  10.743  0.2238  0.1916  0.0683
   65MOL0     C 8668   7.866   6.780  10.757 -0.1538 -0.1404  0.4059
   65MOL0     C 8669   8.029   6.989  10.764 -0.6495  0.0949  0.2989
   65MOL0     C 8670   8.144   6.914  10.814  0.0646  0.2753 -0.4263
   65MOL0     O 8671   8.121   6.812  10.908 -0.2688 -0.0283 -0.0475
   65MOL0     C 8672   8.216   6.725  10.936  0.5235 -1.1975  0.0158
   65MOL0     C 8673   8.300   6.734  11.046  0.6888 -0.3376 -1.0833
   65MOL0     C 8674   8.408   6.653  11.064  0.7937  0.2305  1.0005
   65MOL0     C 8675   8.443   6.561  10.965 -0.6746 -0.1777  0.0128
   65MOL0     O 8676   8.560   6.492  11.000  0.3718  1.6967  0.0529
   65MOL0     C 8677   8.629   6.416  10.900  0.3617 -0.0473 -0.2288
   65MOL0     C 8678   8.747   6.339  10.973  0.6745 -0.6346  0.1152
   65MOL0     C 8679   8.814   6.237  10.892 -0.3382 -0.1683 -0.6288
   65MOL0     C 8680   8.938   6.174  10.982  0.4470  0.3677 -0.7300
   65MOL0     C 8681   9.005   6.039  10.925 -0.5478 -0.4555 -0.4976
   65MOL0     C 8682   9.053   6.055  10.771  0.5120  0.6578 -0.0935
   65MOL0     C 8683   9.147   5.935  10.728 -0.1090 -1.5827 -0.4630
   65MOL0     C 8684   9.299   5.928  10.763  0.8460  0.4182 -0.2481
   65MOL0    Cl 8685   9.364   5.775  10.747  0.4825  0.3177 -0.4068
   65MOL0     C 8686   8.358   6.552  10.848 -0.3389  0.2212 -1.0617
   65MOL0     C 8687   8.240   6.627  10.840 -0.4213 -0.5527  0.0803
   65MOL0     O 8688   8.250   6.933  10.759  0.0582  0.5543  0.0902
   65MOL0     C 8689   8.048   7.121  10.732 -0.0445  0.0757 -0.3194
   65MOL0     C 8690   7.944   7.202  10.679 -0.2930 -0.9557  0.5486
   65MOL0     N 8691   7.161   7.282  10.115 -0.1345  0.0285 -0.1304
   65MOL0     N 8692   7.088   7.191  10.050  0.6632 -0.5942  0.3861
   65MOL0     C 8693   7.084   6.511   9.538  0.1483  0.3224 -0.3211
   65MOL0     C 8694   7.100   6.375   9.594  0.1392 -0.5849 -0.3266
   65MOL0     C 8695   7.088   5.905   9.545 -1.4570 -1.1917  0.9439
   65MOL0     C 8696   7.150   5.801   9.462 -0.1872  0.5673  0.0420
   65MOL0     C 8697   7.109   5.668   9.470 -0.1047  0.4356  0.9950
   65MOL0     C 8698   7.001   5.637   9.553 -0.8357  0.1073  0.0256
   65MOL0     O 8699   6.943   5.514   9.560 -0.3227 -0.1733  0.1563
   65MOL0     C 8700   7.009   5.429   9.657 -1.0688 -0.1857  0.4268
   65MOL0     C 8701   6.921   5.311   9.703 -0.6126 -0.2320  0.4380
   65MOL0     C 8702   6.786   5.345   9.779 -0.3548  0.1275 -1.1942
   65MOL0     C 8703   6.800   5.354   9.934  0.7235 -0.6756 -0.1196
   65MOL0     C 8704   6.789   5.236  10.017  0.7068  0.3771  0.3499
   65MOL0     C 8705   6.801   5.141  10.088  0.2755  0.1875  0.2861
   65MOL0     C 8706   6.939   5.741   9.631 -0.4183  0.2632 -0.4525
   65MOL0     C 8707   6.981   5.873   9.629 -0.1646 -0.6056 -0.2923
   65MOL0     H 8708   6.963   6.199   9.335  1.1179 -0.2617 -2.6096
   65MOL0     H 8709   6.923   6.402   9.254 -0.7932  0.3594  0.7051
   65MOL0     H 8710   6.905   6.825   9.369 -1.2718 -1.0439  0.6756
   65MOL0     H 8711   6.986   6.763   9.512  1.9881  0.3791  0.4953
   65MOL0     H 8712   7.199   6.796   9.424 -0.8811 -1.3566  1.4420
   65MOL0     H 8713   7.142   6.854   9.267  0.6732  0.1603  0.2501
   65MOL0     H 8714   7.214   7.038   9.406  0.3951 -3.2396 -1.7949
   65MOL0     H 8715   7.040   7.050   9.366 -0.6501  2.2105  2.6650
   65MOL0     H 8716   7.090   7.137   9.589 -0.0248  0.1351 -1.5246
   65MOL0     H 8717   6.968   7.015   9.573 -0.6862  2.1855 -1.9991
   65MOL0     H 8718   7.143   6.844   9.661 -0.5169 -0.6797 -0.6617
   65MOL0     H 8719   7.247   6.995   9.693 -0.5544  0.9238  0.4050
   65MOL0     H 8720   7.060   7.081   9.834 -1.0769 -0.7738  4.6869
   65MOL0     H 8721   6.970   6.934   9.793  0.7581 -1.0922 -1.9615
   65MOL0     H 8722   7.140   6.798   9.906  2.4380  0.6974 -0.9585
   65MOL0     H 8723   7.239   6.943   9.942  0.4302 -2.3873 -1.1759
   65MOL0     H 8724   7.072   6.880  10.132 -0.5265  0.2141  0.8846
   65MOL0     H 8725   6.952   6.965  10.022  1.6449  0.5784 -4.6199
   65MOL0     H 8726   7.244   6.996  10.255 -1.6165 -2.4883 -2.4499
   65MOL0     H 8727   7.395   7.331  10.244 -2.0832 -2.5803 -4.1311
   65MOL0     H 8728   7.267   7.380  10.363 -1.7551 -2.5001  0.9095
   65MOL0     H 8729   7.422   7.112  10.381  2.5347  2.1495 -0.8915
   65MOL0     H 8730   7.309   7.164  10.500 -0.0787  0.8452 -0.4083
   65MOL0     H 8731   7.466   7.329  10.583 -0.0678 -0.8716  0.5502
   65MOL0     H 8732   7.559   7.331  10.425  1.1601 -1.5157 -1.2868
   65MOL0     H 8733   7.633   7.094  10.493  0.1276  0.9632 -1.0602
   65MOL0     H 8734   7.565   7.120  10.652  3.1554 -0.1100  0.8298
   65MOL0     H 8735   7.697   6.978  10.704  0.0548  1.4834  0.0849
   65MOL0     H 8736   7.945   6.713  10.721  0.5199  0.1449  1.3121
   65MOL0     H 8737   7.844   6.746  10.858  0.6302 -0.6829  0.4026
   65MOL0     H 8738   7.773   6.764  10.702  1.6643 -2.0378 -2.3550
   65MOL0     H 8739   8.287   6.812  11.120  1.4691  1.5302 -2.8234
   65MOL0     H 8740   8.472   6.666  11.151 -0.1543  0.2384  1.7165
   65MOL0     H 8741   8.564   6.338  10.860 -0.4513 -1.2457  3.1261
   65MOL0     H 8742   8.663   6.479  10.817  1.7684  1.4060  1.3719
   65MOL0     H 8743   8.815   6.406  11.026 -0.0348 -0.3758  0.7173
   65MOL0     H 8744   8.699   6.282  11.053 -0.1398  0.2468  0.2706
   65MOL0     H 8745   8.863   6.282  10.805  3.1416  0.2290  1.3513
   65MOL0     H 8746   8.746   6.156  10.864 -0.3464 -0.5971  0.5752
   65MOL0     H 8747   9.015   6.249  11.007 -0.2731  0.1645  2.5752
   65MOL0     H 8748   8.904   6.154  11.084  1.0775  0.1138 -0.5675
   65MOL0     H 8749   8.949   5.949  10.949 -1.2055 -0.0831 -0.6228
   65MOL0     H 8750   9.093   6.022  10.988 -1.6272 -3.7256  0.2931
   65MOL0     H 8751   8.965   6.043  10.707 -1.3386 -1.1225  2.5538
   65MOL0     H 8752   9.098   6.155  10.760  2.5882 -0.2935 -0.6997
   65MOL0     H 8753   9.139   5.935  10.619 -2.1238 -0.2698 -0.3615
   65MOL0     H 8754   9.092   5.847  10.762  1.2066 -2.7973 -1.3468
   65MOL0     H 8755   9.317   5.956  10.868 -0.2367  0.7254 -0.1326
   65MOL0     H 8756   9.353   5.994  10.695 -1.0266  1.2440 -1.0060
   65MOL0     H 8757   8.387   6.480  10.772  0.1235  1.9116 -2.5307
   65MOL0     H 8758   8.183   6.595  10.753 -1.7645 -2.5463  1.5821
   65MOL0     H 8759   8.150   7.158  10.727  0.4746 -1.3138 -0.6394
   65MOL0     H 8760   7.970   7.306  10.663  3.1245 -1.3594  2.4843
   65MOL0     H 8761   7.095   6.594   9.606  0.0144 -0.1680  0.3170
   65MOL0     H 8762   7.140   6.367   9.695  1.6669 -3.1193 -1.0373
   65MOL0     H 8763   7.248   5.814   9.418 -0.7943 -2.4080 -2.6301
   65MOL0     H 8764   7.174   5.590   9.430  1.6557  2.8881 -1.3202
   65MOL0     H 8765   7.110   5.400   9.626 -0.1567  2.7622  0.3492
   65MOL0     H 8766   7.036   5.487   9.746  0.5440 -0.0710 -0.1012
   65MOL0     H 8767   6.976   5.246   9.770 -0.0826 -0.5238 -0.2730
   65MOL0     H 8768   6.901   5.246   9.617  0.5928 -0.0682  0.0158
   65MOL0     H 8769   6.723   5.256   9.767 -2.3541  1.4708 -1.2158
   65MOL0     H 8770   6.746   5.436   9.733  2.4334  2.5548  0.8202
   65MOL0     H 8771   6.721   5.422   9.969  0.7255 -0.9575  0.4401
   65MOL0     H 8772   6.894   5.404   9.957 -0.5159  1.0817  1.5040
   65MOL0     H 8773   6.799   5.043  10.131  3.7489  0.1741  0.6615
   65MOL0     H 8774   6.857   5.714   9.696  1.0629 -0.1102  1.3174
   65MOL0     H 8775   6.929   5.954   9.678  2.0159  1.4009 -1.0806
   66MOL0     O 8776   9.006   3.375   3.129 -0.3872 -0.2196  0.0690
   66MOL0     C 8777   8.899   3.346   3.176 -0.4371 -0.1561  0.4843
   66MOL0     O 8778   8.872   3.322   3.308  0.3675 -0.4423 -0.3504
   66MOL0     C 8779   8.976   3.320   3.404 -0.3558  0.8184 -0.3112
   66MOL0     C 8780   8.993   3.416   3.504 -0.9074 -0.6612 -0.3564
   66MOL0     C 8781   9.101   3.411   3.594 -0.1823 -1.0942  0.5656
   66MOL0     C 8782   9.194   3.309   3.583 -0.1769  0.5727  0.7324
   66MOL0     O 8783   9.302   3.281   3.658 -0.0636  0.0432  0.6859
   66MOL0     C 8784   9.296   3.177   3.758 -0.1745 -0.4430 -0.3802
   66MOL0     C 8785   9.377   3.224   3.881  0.0231 -0.1013  0.3177
   66MOL0     C 8786   9.338   3.362   3.948 -0.8675 -0.9826  0.1127
   66MOL0     C 8787   9.404   3.366   4.088  0.0093 -0.3197  0.6517
   66MOL0     C 8788   9.540   3.417   4.067 -0.4909 -0.7926 -0.0271
   66MOL0     C 8789   9.606   3.439   4.203  0.3457  1.0137 -0.0142
   66MOL0     C 8790   9.755   3.464   4.178 -0.0695 -0.4667  1.0361
   66MOL0     C 8791   9.823   3.513   4.309  0.9269  0.1987  0.4302
   66MOL0     N 8792   9.972   3.502   4.295  0.7447 -0.3123  0.2531
   66MOL0     C 8793  10.047   3.612   4.327 -0.8068  0.2101 -0.7044
   66MOL0     C 8794  10.162   3.599   4.258 -0.3263 -0.9113 -0.8537
   66MOL0     C 8795  10.283   3.698   4.256  0.0625  0.3212  0.1282
   66MOL0     C 8796  10.422   3.647   4.324  0.3991 -1.2557  0.3989
   66MOL0     C 8797  10.509   3.549   4.242 -0.3706  0.2194 -0.2930
   66MOL0     C 8798  10.516   3.571   4.089  0.8111  0.2254  1.3589
   66MOL0     O 8799  10.617   3.503   4.019 -0.1835  0.8679  0.6019
   66MOL0     C 8800  10.596   3.372   3.972  1.0359  0.1067 -0.6979
   66MOL0     C 8801  10.487   3.291   3.998  0.0686  0.2104 -0.6204
   66MOL0     C 8802  10.475   3.161   3.939  1.4769  0.9765  0.0067
   66MOL0     C 8803  10.346   3.082   3.977  0.0375  0.1201 -0.3013
   66MOL0     C 8804  10.578   3.115   3.854  0.3545 -0.3647 -1.0491
   66MOL0     C 8805  10.582   2.980   3.799 -1.2446 -0.9790  0.2038
   66MOL0     O 8806  10.686   2.957   3.715  0.2869  0.1712 -0.2769
   66MOL0     C 8807  10.694   2.834   3.653 -0.6887  0.5708  0.1568
   66MOL0     C 8808  10.633   2.814   3.531 -1.4010  0.4393 -0.2660
   66MOL0     C 8809  10.625   2.683   3.481  0.0878 -1.8792  0.5427
   66MOL0     C 8810  10.665   2.572   3.554  0.1236  0.7109  0.3311
   66MOL0     O 8811  10.655   2.439   3.518  0.3851  0.0139  0.9663
   66MOL0     C 8812  10.634   2.405   3.381 -1.4715 -0.2501 -0.0994
   66MOL0     C 8813  10.635   2.256   3.363 -0.1822 -0.8557  0.4427
   66MOL0     C 8814  10.521   2.193   3.440 -0.2274  0.0233 -0.5795
   66MOL0     C 8815  10.510   2.048   3.410 -0.2346  0.0645 -0.5727
   66MOL0     C 8816  10.414   1.990   3.507 -0.7638 -0.9192 -0.4016
   66MOL0     C 8817  10.398   1.846   3.488  0.1179  0.2583  0.1804
   66MOL0     C 8818  10.284   1.786   3.578  0.3198 -0.7966  0.8364
   66MOL0     C 8819  10.326   1.767   3.722 -0.8003  0.0593 -0.3921
   66MOL0    Cl 8820  10.416   1.605   3.728  0.5779 -0.1420  0.6526
   66MOL0     C 8821  10.728   2.599   3.677  0.8688  0.3447 -0.2238
   66MOL0     C 8822  10.743   2.723   3.725  0.4089  0.6608  0.4455
   66MOL0     O 8823  10.496   2.898   3.832 -0.0036  0.4931 -0.2295
   66MOL0     C 8824  10.690   3.201   3.832  0.4242  0.0204  0.0820
   66MOL0     C 8825  10.699   3.322   3.889 -0.0219 -0.1068  0.3661
   66MOL0     N 8826  10.157   3.483   4.182 -0.6470 -1.0322 -0.6471
   66MOL0     N 8827  10.040   3.435   4.199 -0.4880  0.3677  0.3075
   66MOL0     C 8828   9.175   3.205   3.493 -0.1276 -0.3340 -0.0270
   66MOL0     C 8829   9.067   3.209   3.397 -0.3656 -0.4267  0.0664
   66MOL0     C 8830   8.810   3.305   3.068 -0.4022  0.7689  0.2979
   66MOL0     C 8831   8.852   3.303   2.931  0.7568 -0.3242  0.2947
   66MOL0     C 8832   8.776   3.280   2.823  0.3890 -0.4253 -0.5703
   66MOL0     C 8833   8.644   3.244   2.845  0.4654  0.9423  0.2038
   66MOL0     O 8834   8.570   3.223   2.730 -0.6339  0.7692  0.2064
   66MOL0     C 8835   8.429   3.204   2.736  0.6431 -0.2321  0.3786
   66MOL0     C 8836   8.369   3.232   2.597  0.4749  0.6000  0.3705
   66MOL0     C 8837   8.219   3.267   2.594 -0.7786  0.6681 -0.0855
   66MOL0     C 8838   8.171   3.313   2.458 -0.1853 -0.2120 -1.2403
   66MOL0     C 8839   8.193   3.220   2.341 -0.1267 -0.0072  0.2344
   66MOL0     C 8840   8.222   3.151   2.246  0.1896  0.0101  0.1359
   66MOL0     C 8841   8.598   3.220   2.984 -0.6767  0.6610 -0.2647
   66MOL0     C 8842   8.685   3.263   3.089 -0.0242  0.9575  0.0971
   66MOL0     H 8843   8.915   3.490   3.522 -1.0304 -1.2351  1.8479
   66MOL0     H 8844   9.100   3.485   3.672  0.6053  1.0773 -1.3623
   66MOL0     H 8845   9.190   3.165   3.783  0.0797  1.5658  1.9926
   66MOL0     H 8846   9.336   3.080   3.728 -2.3083 -1.8847  1.2117
   66MOL0     H 8847   9.372   3.143   3.954 -0.5491 -0.6908 -0.3769
   66MOL0     H 8848   9.480   3.233   3.844  0.2688  0.9291  1.1782
   66MOL0     H 8849   9.380   3.444   3.888  2.3244 -3.2708 -1.0281
   66MOL0     H 8850   9.233   3.374   3.976 -0.1781  3.6352  1.7327
   66MOL0     H 8851   9.341   3.426   4.153  0.8195  1.4459 -0.1276
   66MOL0     H 8852   9.414   3.272   4.143 -3.6434  0.5251  3.0963
   66MOL0     H 8853   9.602   3.349   4.007 -2.7334 -1.9290 -1.1511
   66MOL0     H 8854   9.547   3.509   4.007  3.1554 -2.4808 -2.5700
   66MOL0     H 8855   9.570   3.531   4.249 -2.7619  1.0501 -2.2256
   66MOL0     H 8856   9.586   3.355   4.271 -0.4755  1.6432  0.5433
   66MOL0     H 8857   9.798   3.371   4.140 -2.7011 -0.8058 -1.5453
   66MOL0     H 8858   9.761   3.540   4.099  1.2012 -0.8818  0.7138
   66MOL0     H 8859   9.773   3.460   4.391 -0.6526 -0.1066 -0.6839
   66MOL0     H 8860   9.791   3.614   4.336  0.1927 -0.4575  2.2299
   66MOL0     H 8861  10.014   3.684   4.401 -0.9503  1.8716 -2.3209
   66MOL0     H 8862  10.302   3.743   4.158  2.0542  1.4824  0.9669
   66MOL0     H 8863  10.254   3.782   4.320  0.2930 -0.2591  1.0256
   66MOL0     H 8864  10.412   3.608   4.426  3.8152  0.9639  1.7538
   66MOL0     H 8865  10.478   3.740   4.340 -3.0610  0.8655  1.4808
   66MOL0     H 8866  10.477   3.446   4.258  1.1720 -0.6181 -2.1244
   66MOL0     H 8867  10.610   3.538   4.282 -1.4362 -1.5991  2.1141
   66MOL0     H 8868  10.560   3.670   4.078  1.2649 -0.0675  0.4466
   66MOL0     H 8869  10.420   3.560   4.039  1.5259  1.9234 -0.5000
   66MOL0     H 8870  10.405   3.325   4.060 -0.6060 -0.0865 -1.3192
   66MOL0     H 8871  10.390   3.006   4.043  2.2716  1.5857 -0.0179
   66MOL0     H 8872  10.277   3.147   4.031  2.6032  2.4057  0.4253
   66MOL0     H 8873  10.282   3.040   3.898  0.1450  2.0099 -1.4420
   66MOL0     H 8874  10.598   2.905   3.484  0.8112 -0.0543 -3.1887
   66MOL0     H 8875  10.569   2.670   3.389 -2.0945  0.0840  1.4763
   66MOL0     H 8876  10.546   2.459   3.347  1.1173  2.3886 -3.3521
   66MOL0     H 8877  10.716   2.445   3.320 -1.3163 -0.7166 -0.2000
   66MOL0     H 8878  10.631   2.227   3.258  0.4800 -0.8424  0.4103
   66MOL0     H 8879  10.728   2.209   3.398  0.0755 -1.0627 -0.4799
   66MOL0     H 8880  10.425   2.242   3.422 -0.1832  0.0761 -0.6697
   66MOL0     H 8881  10.553   2.210   3.544  2.6430  0.1041 -1.4031
   66MOL0     H 8882  10.465   2.040   3.310  2.0456 -1.7700 -1.5511
   66MOL0     H 8883  10.610   2.006   3.402 -1.5864 -3.3433 -1.0246
   66MOL0     H 8884  10.322   2.045   3.483 -0.4323 -1.7673 -4.3902
   66MOL0     H 8885  10.444   2.011   3.610 -0.4739  0.8836 -0.8156
   66MOL0     H 8886  10.380   1.817   3.384  0.0925  1.1871 -0.0815
   66MOL0     H 8887  10.491   1.796   3.516  1.1193  0.0535 -3.1060
   66MOL0     H 8888  10.257   1.694   3.525  0.3559 -0.1014 -0.4149
   66MOL0     H 8889  10.200   1.856   3.570  1.0285 -0.0608 -0.5799
   66MOL0     H 8890  10.242   1.749   3.789  0.5693 -2.3107  0.8398
   66MOL0     H 8891  10.387   1.848   3.763 -1.1480 -1.5396  3.7642
   66MOL0     H 8892  10.783   2.515   3.718  1.3455  1.0174  0.5391
   66MOL0     H 8893  10.782   2.744   3.824  0.6062  1.0199  0.2917
   66MOL0     H 8894  10.775   3.167   3.774  0.7512 -0.2136  0.6905
   66MOL0     H 8895  10.785   3.384   3.865  0.5946 -2.0608 -3.1045
   66MOL0     H 8896   9.230   3.112   3.486 -1.0171 -0.9838  1.3098
   66MOL0     H 8897   9.047   3.134   3.321 -2.3035  0.4613 -0.3637
   66MOL0     H 8898   8.953   3.337   2.910 -0.0396 -0.0835 -4.0124
   66MOL0     H 8899   8.825   3.281   2.726 -2.2272 -2.1205 -2.0386
   66MOL0     H 8900   8.417   3.096   2.750 -1.9068 -0.1102 -0.4248
   66MOL0     H 8901   8.385   3.280   2.802  0.4780  1.2518 -1.3515
   66MOL0     H 8902   8.404   3.170   2.514  3.0347  0.9945  1.0814
   66MOL0     H 8903   8.426   3.324   2.580  1.6621  0.2112  1.9775
   66MOL0     H 8904   8.194   3.350   2.661 -1.1530  0.2878  0.2487
   66MOL0     H 8905   8.163   3.180   2.627 -3.0930  1.2277 -2.2018
   66MOL0     H 8906   8.215   3.412   2.441  1.5229 -1.0263 -1.7039
   66MOL0     H 8907   8.062   3.321   2.454 -0.1977  0.7616  0.1375
   66MOL0     H 8908   8.254   3.090   2.164 -0.8344 -1.2800  0.6597
   66MOL0     H 8909   8.497   3.185   2.998  0.1588 -1.2111  1.7027
   66MOL0     H 8910   8.653   3.260   3.193 -0.0093 -2.3506  0.1028
   67MOL0     O 8911   8.527   9.411  10.685 -0.2603  0.5509 -0.0204
   67MOL0     C 8912   8.521   9.534  10.691 -0.6674 -1.0023  0.0329
   67MOL0     O 8913   8.453   9.614  10.603 -0.0570  0.7467 -0.3281
   67MOL0     C 8914   8.420   9.567  10.476 -0.4965  0.3160  0.0549
   67MOL0     C 8915   8.485   9.460  10.406 -0.3502  0.2554 -0.4537
   67MOL0     C 8916   8.442   9.430  10.280  1.1068  0.6766  0.6954
   67MOL0     C 8917   8.325   9.477  10.222  0.5802 -0.0996 -0.0179
   67MOL0     O 8918   8.261   9.434  10.111 -0.0955  0.5151  0.5815
   67MOL0     C 8919   8.350   9.404  10.008 -0.2519 -1.1923  0.1845
   67MOL0     C 8920   8.278   9.389   9.875 -0.0823  0.0613  0.3516
   67MOL0     C 8921   8.192   9.512   9.835 -1.1480  0.0376  0.4004
   67MOL0     C 8922   8.191   9.523   9.686 -0.8823 -0.6070  0.1589
   67MOL0     C 8923   8.098   9.642   9.647  0.2915  0.7144  0.7010
   67MOL0     C 8924   8.110   9.692   9.505 -0.1473  0.1089  0.4188
   67MOL0     C 8925   8.039   9.825   9.478  1.6299  0.8071  0.1919
   67MOL0     C 8926   7.886   9.821   9.510  0.7585  0.2602 -0.2878
   67MOL0     N 8927   7.813   9.710   9.436 -0.2413 -0.3813 -0.2459
   67MOL0     C 8928   7.804   9.703   9.297 -0.2390  0.6965  0.0847
   67MOL0     C 8929   7.706   9.620   9.276 -0.1362  0.2871 -0.5277
   67MOL0     C 8930   7.655   9.561   9.146 -0.3938 -0.1054 -0.8480
   67MOL0     C 8931   7.740   9.431   9.116  0.8078  0.1421  0.0642
   67MOL0     C 8932   7.882   9.459   9.062  0.2818 -0.4350  0.2358
   67MOL0     C 8933   7.889   9.508   8.916  0.5723 -0.0710 -0.0138
   67MOL0     O 8934   8.021   9.492   8.863 -0.0143  0.4572 -0.2154
   67MOL0     C 8935   8.015   9.494   8.727  0.0272  0.7973 -0.6307
   67MOL0     C 8936   7.927   9.574   8.648  0.4118  0.4769  0.5413
   67MOL0     C 8937   7.934   9.574   8.508  0.2955 -0.3359  0.4221
   67MOL0     C 8938   7.843   9.666   8.437 -0.4612 -0.0725  0.2713
   67MOL0     C 8939   8.020   9.485   8.432  0.2272  0.6783 -1.7248
   67MOL0     C 8940   8.024   9.475   8.283 -0.3696  1.0429 -0.4627
   67MOL0     O 8941   8.121   9.554   8.221  0.5019  0.4822 -0.1058
   67MOL0     C 8942   8.142   9.547   8.086 -0.0459 -0.6539 -1.0335
   67MOL0     C 8943   8.191   9.663   8.030  1.7269 -0.3562 -0.1288
   67MOL0     C 8944   8.213   9.666   7.898 -0.5586 -0.4067 -0.0080
   67MOL0     C 8945   8.197   9.554   7.804 -0.0992 -0.8527  0.0367
   67MOL0     O 8946   8.238   9.562   7.668 -0.5140 -0.7499 -0.4960
   67MOL0     C 8947   8.323   9.670   7.631  0.0528 -0.6400  0.5449
   67MOL0     C 8948   8.389   9.639   7.492 -0.4501 -0.6036  0.3493
   67MOL0     C 8949   8.451   9.771   7.449  0.4434  0.1245 -0.7581
   67MOL0     C 8950   8.579   9.813   7.533  0.0060  0.0099  0.1604
   67MOL0     C 8951   8.599   9.960   7.506 -0.1149 -1.0541  0.0481
   67MOL0     C 8952   8.726  10.012   7.554 -0.1056 -0.1275  0.0980
   67MOL0     C 8953   8.759   9.953   7.689 -0.0032  0.6945  0.2482
   67MOL0     C 8954   8.871  10.023   7.760  0.2087 -0.9812  0.2803
   67MOL0    Cl 8955   9.025  10.037   7.649 -0.1308  0.4999 -0.3530
   67MOL0     C 8956   8.171   9.434   7.865 -0.8796 -0.5778 -0.7286
   67MOL0     C 8957   8.151   9.428   8.003  0.4066 -0.6783  0.5027
   67MOL0     O 8958   7.941   9.415   8.222 -0.5784  0.9839  0.3347
   67MOL0     C 8959   8.106   9.410   8.512  1.4710 -0.6139  0.8326
   67MOL0     C 8960   8.108   9.407   8.651  0.6474 -0.2490 -0.7954
   67MOL0     N 8961   7.654   9.583   9.400  0.9564  0.0256 -0.7613
   67MOL0     N 8962   7.716   9.638   9.501  0.9992 -1.0627  0.1842
   67MOL0     C 8963   8.265   9.578  10.286  0.0400 -0.3511 -0.3157
   67MOL0     C 8964   8.312   9.624  10.411 -0.4956 -0.2161  0.3408
   67MOL0     C 8965   8.598   9.604  10.812 -0.0300  0.0728 -0.1789
   67MOL0     C 8966   8.663   9.720  10.771  0.5539 -0.9393  0.5102
   67MOL0     C 8967   8.735   9.798  10.857 -0.6163 -0.2606  0.3480
   67MOL0     C 8968   8.745   9.754  10.990 -0.1710  0.3125  0.8653
   67MOL0     O 8969   8.833   9.827  11.058 -1.2722  0.1877 -0.3638
   67MOL0     C 8970   8.932   9.753  11.146 -0.1718  0.5052 -0.9308
   67MOL0     C 8971   9.027   9.664  11.063  0.2745  0.5450  1.2271
   67MOL0     C 8972   9.131   9.598  11.148  0.1145 -1.7139 -0.0689
   67MOL0     C 8973   9.170   9.462  11.106 -0.1554 -0.1379  0.5632
   67MOL0     C 8974   9.262   9.475  10.991  0.1940 -0.2980  0.5197
   67MOL0     C 8975   9.324   9.481  10.891  0.5564  0.2468  0.0125
   67MOL0     C 8976   8.684   9.636  11.038 -1.1445  0.3914  0.1746
   67MOL0     C 8977   8.614   9.561  10.943  0.0849 -0.2208 -0.2015
   67MOL0     H 8978   8.577   9.408  10.433 -0.4499 -0.7277 -1.8542
   67MOL0     H 8979   8.500   9.361  10.219 -2.0307 -0.7354 -0.9279
   67MOL0     H 8980   8.424   9.484   9.999 -0.6730 -0.5570  1.8990
   67MOL0     H 8981   8.406   9.312  10.020 -1.5997 -2.1245 -0.3851
   67MOL0     H 8982   8.349   9.374   9.794 -0.1819  2.9649 -0.3890
   67MOL0     H 8983   8.213   9.302   9.883 -0.3269  0.2161  0.0440
   67MOL0     H 8984   8.094   9.506   9.882 -2.3275  3.0317 -1.4223
   67MOL0     H 8985   8.240   9.603   9.872  0.2688 -1.0073  1.2180
   67MOL0     H 8986   8.287   9.544   9.638 -1.3213 -1.8408 -1.3107
   67MOL0     H 8987   8.141   9.430   9.656  0.8727 -1.8007  0.7742
   67MOL0     H 8988   7.996   9.616   9.678  0.7277  0.2046  1.8044
   67MOL0     H 8989   8.126   9.726   9.711  0.3605  2.6361 -1.7374
   67MOL0     H 8990   8.218   9.708   9.496 -0.0078  0.0135  1.7765
   67MOL0     H 8991   8.086   9.609   9.438 -0.1411 -1.2584  2.0589
   67MOL0     H 8992   8.091   9.887   9.551  4.5406 -3.6674  2.4343
   67MOL0     H 8993   8.062   9.851   9.375  0.5114 -1.8967 -0.8434
   67MOL0     H 8994   7.837   9.917   9.491  0.7389  0.1103 -1.0539
   67MOL0     H 8995   7.872   9.802   9.616  0.4403  1.1796 -0.1626
   67MOL0     H 8996   7.873   9.746   9.225  2.7234 -3.0533  0.3673
   67MOL0     H 8997   7.550   9.531   9.153 -0.1483 -1.0804 -1.0750
   67MOL0     H 8998   7.668   9.628   9.061 -1.0916 -0.7735 -1.5038
   67MOL0     H 8999   7.679   9.393   9.034 -0.3572 -0.5093  1.2017
   67MOL0     H 9000   7.745   9.366   9.204  0.5052 -2.7465 -1.9297
   67MOL0     H 9001   7.929   9.360   9.068  0.2234 -0.4195  1.0594
   67MOL0     H 9002   7.934   9.514   9.142 -0.5754 -1.6559  1.6908
   67MOL0     H 9003   7.860   9.614   8.918  1.6520  0.2658 -0.9707
   67MOL0     H 9004   7.816   9.454   8.855  4.1522 -2.0173 -2.9738
   67MOL0     H 9005   7.862   9.643   8.700 -1.1959 -1.0039  0.5700
   67MOL0     H 9006   7.758   9.683   8.504  1.1136  0.4859  2.2255
   67MOL0     H 9007   7.879   9.767   8.417 -0.4058 -0.1766 -0.1545
   67MOL0     H 9008   7.822   9.621   8.339  0.5514  1.3030 -0.5994
   67MOL0     H 9009   8.205   9.753   8.089 -0.1565 -0.9995  1.4388
   67MOL0     H 9010   8.250   9.763   7.865  1.6942 -1.2570 -0.1694
   67MOL0     H 9011   8.256   9.756   7.626  0.1842 -0.5357  0.5695
   67MOL0     H 9012   8.396   9.678   7.712 -0.7540 -0.4371  1.2694
   67MOL0     H 9013   8.470   9.568   7.481  2.9384  3.2508 -3.4951
   67MOL0     H 9014   8.321   9.603   7.413  5.7207 -1.2978 -5.6033
   67MOL0     H 9015   8.377   9.851   7.448  0.3282  0.0543 -2.8476
   67MOL0     H 9016   8.474   9.769   7.342  0.8083 -4.4951 -0.7652
   67MOL0     H 9017   8.566   9.775   7.634 -0.1858 -1.1177 -0.2691
   67MOL0     H 9018   8.665   9.755   7.499  0.3927 -0.0565  1.2441
   67MOL0     H 9019   8.529  10.011   7.573  1.5892  2.9470 -0.9413
   67MOL0     H 9020   8.591   9.995   7.403  3.6452  2.3502  0.6594
   67MOL0     H 9021   8.810   9.994   7.486  1.6356 -0.9916  2.3243
   67MOL0     H 9022   8.717  10.120   7.570 -2.0082 -0.2885  0.3737
   67MOL0     H 9023   8.805   9.856   7.667 -1.8024 -0.0480 -0.5283
   67MOL0     H 9024   8.671   9.956   7.754  0.0683  2.2140  0.3194
   67MOL0     H 9025   8.883   9.978   7.859  1.2906 -2.5843 -0.5273
   67MOL0     H 9026   8.834  10.124   7.780  0.5358 -1.0812  1.4651
   67MOL0     H 9027   8.180   9.344   7.805  1.0238 -0.4197 -0.7444
   67MOL0     H 9028   8.121   9.338   8.055 -2.6989  0.7297  1.3918
   67MOL0     H 9029   8.175   9.359   8.446  1.3281  1.4555 -1.0318
   67MOL0     H 9030   8.170   9.338   8.707  1.6875 -0.9133 -2.6650
   67MOL0     H 9031   8.184   9.635  10.242 -2.3517 -1.8142  1.9011
   67MOL0     H 9032   8.280   9.720  10.449 -0.7818 -1.3610  3.2253
   67MOL0     H 9033   8.670   9.745  10.665 -1.4792 -1.8945  0.1130
   67MOL0     H 9034   8.797   9.880  10.823  0.3938 -2.1719 -2.8573
   67MOL0     H 9035   8.994   9.826  11.198  1.3073  0.8818 -3.1001
   67MOL0     H 9036   8.881   9.696  11.224  0.3660  3.6350  1.9294
   67MOL0     H 9037   9.081   9.731  10.996 -1.7511  2.5962  1.5044
   67MOL0     H 9038   8.964   9.586  11.018 -0.1161  1.8572 -0.5898
   67MOL0     H 9039   9.099   9.581  11.252  2.2946 -2.2992  0.5787
   67MOL0     H 9040   9.218   9.664  11.156 -1.0106 -0.4037  2.6466
   67MOL0     H 9041   9.088   9.392  11.093 -1.7298  1.5305  1.0408
   67MOL0     H 9042   9.228   9.410  11.183 -1.2660 -0.8732  0.9223
   67MOL0     H 9043   9.380   9.512  10.804 -1.4649  4.6590 -0.0079
   67MOL0     H 9044   8.688   9.603  11.141 -0.2735 -1.0181 -0.2790
   67MOL0     H 9045   8.565   9.471  10.980  1.1817 -0.5219  0.5752
   68MOL0     O 9046   7.062   6.664   3.126 -0.2707 -0.0448  0.7905
   68MOL0     C 9047   7.051   6.771   3.184 -0.6165 -0.5697 -0.1804
   68MOL0     O 9048   7.143   6.872   3.183 -0.1099 -1.1610  0.0225
   68MOL0     C 9049   7.270   6.846   3.144  0.1118  1.0768  0.0614
   68MOL0     C 9050   7.341   6.731   3.180 -0.3399  1.4110  0.4643
   68MOL0     C 9051   7.472   6.711   3.163 -0.5812 -0.1202  0.8241
   68MOL0     C 9052   7.552   6.820   3.107  1.1331 -0.4623 -0.2807
   68MOL0     O 9053   7.690   6.821   3.100 -0.0873  0.3593  0.1028
   68MOL0     C 9054   7.757   6.854   2.977  0.3485 -1.0966 -0.5362
   68MOL0     C 9055   7.796   6.730   2.896 -0.1953 -0.1635  0.4704
   68MOL0     C 9056   7.676   6.642   2.851 -0.3036 -0.4972  0.3363
   68MOL0     C 9057   7.735   6.519   2.783  0.7283  0.2971 -0.2938
   68MOL0     C 9058   7.646   6.389   2.794 -0.4134  0.2099  0.1235
   68MOL0     C 9059   7.516   6.409   2.724 -1.2114 -0.5046 -1.0003
   68MOL0     C 9060   7.413   6.296   2.747  0.3292  0.8453 -0.0822
   68MOL0     C 9061   7.465   6.150   2.727  0.3212 -0.1014 -0.7514
   68MOL0     N 9062   7.367   6.054   2.770  1.1452 -0.1549 -0.0878
   68MOL0     C 9063   7.289   5.967   2.686  0.0598 -0.7358  0.3775
   68MOL0     C 9064   7.233   5.887   2.776  0.5799  0.2593 -1.0404
   68MOL0     C 9065   7.151   5.772   2.721  0.4589 -0.0764  1.0581
   68MOL0     C 9066   7.244   5.661   2.659 -0.0949 -0.2464  0.2200
   68MOL0     C 9067   7.185   5.533   2.694  0.4753 -0.1173 -0.4922
   68MOL0     C 9068   7.271   5.416   2.630  0.0388  0.0144 -0.4766
   68MOL0     O 9069   7.251   5.425   2.481  0.0333  0.2145 -0.0979
   68MOL0     C 9070   7.144   5.363   2.423 -0.6523  0.3528  0.3016
   68MOL0     C 9071   7.095   5.423   2.313  0.2386 -0.4836  0.6830
   68MOL0     C 9072   6.979   5.378   2.237  0.3263 -0.0634 -0.0010
   68MOL0     C 9073   6.926   5.443   2.111  0.0833 -0.3500  1.1021
   68MOL0     C 9074   6.923   5.265   2.280  0.8292 -0.1680  0.1035
   68MOL0     C 9075   6.816   5.189   2.206 -0.1785  0.8385  0.5512
   68MOL0     O 9076   6.814   5.056   2.223 -0.0698 -0.0232  0.1394
   68MOL0     C 9077   6.711   4.976   2.181  0.5733 -0.0411  0.3293
   68MOL0     C 9078   6.711   4.944   2.048 -0.1134 -0.2845  0.7255
   68MOL0     C 9079   6.620   4.857   1.986 -0.1476  0.0674  0.0150
   68MOL0     C 9080   6.524   4.800   2.071  0.3910  0.5454 -0.4114
   68MOL0     O 9081   6.434   4.708   2.014 -0.0746 -0.7328 -0.6704
   68MOL0     C 9082   6.494   4.575   2.018  0.5149 -0.0646 -0.8990
   68MOL0     C 9083   6.474   4.470   2.138 -0.0487 -0.3263 -0.9056
   68MOL0     C 9084   6.524   4.334   2.107 -0.0578 -0.8115  0.3218
   68MOL0     C 9085   6.565   4.244   2.227 -0.4683 -0.3230  0.6375
   68MOL0     C 9086   6.461   4.239   2.346  0.2604  0.2261  0.0820
   68MOL0     C 9087   6.327   4.183   2.298 -0.2851  1.1292 -0.4368
   68MOL0     C 9088   6.205   4.270   2.354 -0.0695  0.3633  0.1065
   68MOL0     C 9089   6.058   4.219   2.337 -0.3097 -0.3391  0.9099
   68MOL0    Cl 9090   6.017   4.075   2.424  0.1831 -0.1963  0.5387
   68MOL0     C 9091   6.513   4.841   2.212 -0.8220 -0.5015 -0.4919
   68MOL0     C 9092   6.609   4.935   2.262 -0.0659  0.2845 -0.0211
   68MOL0     O 9093   6.723   5.245   2.152 -0.8507  0.3711 -0.2727
   68MOL0     C 9094   6.973   5.204   2.403 -1.7555  0.7792 -0.8299
   68MOL0     C 9095   7.088   5.249   2.470  0.4629 -0.5007 -0.3792
   68MOL0     N 9096   7.271   5.913   2.907  0.2194 -0.1127 -0.3226
   68MOL0     N 9097   7.346   6.017   2.899  0.3393  0.4171  0.8391
   68MOL0     C 9098   7.476   6.934   3.065 -0.5085  0.2410  0.3349
   68MOL0     C 9099   7.338   6.945   3.085  0.0428  0.3707 -0.2928
   68MOL0     C 9100   6.924   6.803   3.252  0.1090  0.7819  0.2232
   68MOL0     C 9101   6.920   6.908   3.337  0.2472  0.6818  0.5875
   68MOL0     C 9102   6.813   6.913   3.423  0.3449  0.0191 -0.1377
   68MOL0     C 9103   6.700   6.831   3.418 -0.1028  0.5764 -0.2583
   68MOL0     O 9104   6.595   6.859   3.502  0.0251 -0.0777  0.1297
   68MOL0     C 9105   6.489   6.947   3.464  0.6482  0.5731  0.0943
   68MOL0     C 9106   6.389   6.860   3.378 -0.2504 -0.5766 -0.0569
   68MOL0     C 9107   6.354   6.725   3.439  1.1207  0.0171  0.3927
   68MOL0     C 9108   6.267   6.631   3.363 -0.0895  0.3380  0.2675
   68MOL0     C 9109   6.133   6.679   3.360  1.2158 -0.2734 -0.3874
   68MOL0     C 9110   6.015   6.714   3.358 -0.4402 -0.2732  0.8587
   68MOL0     C 9111   6.705   6.731   3.322 -0.1169 -0.4586  0.6763
   68MOL0     C 9112   6.816   6.708   3.245  0.1900  0.2018 -0.4479
   68MOL0     H 9113   7.283   6.645   3.213  1.3207  0.8651  2.1228
   68MOL0     H 9114   7.516   6.617   3.194 -4.8063 -2.1948  1.1589
   68MOL0     H 9115   7.694   6.926   2.923  0.9601  1.4041  1.8643
   68MOL0     H 9116   7.848   6.904   3.011  0.0949 -1.0142  0.0508
   68MOL0     H 9117   7.843   6.771   2.806  1.8802 -0.9218  1.1679
   68MOL0     H 9118   7.864   6.661   2.946 -0.5266 -0.7722  0.1034
   68MOL0     H 9119   7.628   6.608   2.943  0.3834 -1.8925  0.1967
   68MOL0     H 9120   7.609   6.690   2.779  2.6213 -0.1787 -2.4376
   68MOL0     H 9121   7.748   6.547   2.678  0.2474  0.1232 -0.4014
   68MOL0     H 9122   7.835   6.510   2.826 -0.0687  0.0655  1.6327
   68MOL0     H 9123   7.697   6.308   2.741  0.5343  0.7053  0.2486
   68MOL0     H 9124   7.625   6.362   2.898  1.3094  1.1166  0.7486
   68MOL0     H 9125   7.472   6.498   2.770  1.9048  0.0202  1.2498
   68MOL0     H 9126   7.532   6.430   2.618 -0.4010  1.1947 -0.5675
   68MOL0     H 9127   7.376   6.295   2.850 -0.2805 -1.0017 -0.2838
   68MOL0     H 9128   7.336   6.330   2.677  0.9451  1.4693 -0.4754
   68MOL0     H 9129   7.550   6.137   2.795  0.0477  3.2800  0.4406
   68MOL0     H 9130   7.502   6.129   2.627 -2.8671 -2.1390 -1.6332
   68MOL0     H 9131   7.277   5.967   2.578  2.8754 -1.4969 -0.0056
   68MOL0     H 9132   7.102   5.739   2.813 -2.1039  1.0149  0.1815
   68MOL0     H 9133   7.074   5.796   2.647 -0.2605  0.7078  2.0351
   68MOL0     H 9134   7.338   5.671   2.713  0.1258 -1.2287  0.0250
   68MOL0     H 9135   7.252   5.667   2.550  0.7128  0.9366  0.3273
   68MOL0     H 9136   7.083   5.521   2.655  0.0645 -3.2740  1.2707
   68MOL0     H 9137   7.174   5.534   2.802 -1.5598  1.8702 -0.6342
   68MOL0     H 9138   7.234   5.321   2.668 -2.9251  0.8192 -1.0762
   68MOL0     H 9139   7.377   5.417   2.658  0.0145 -0.2452 -0.3754
   68MOL0     H 9140   7.144   5.513   2.276 -1.2326  0.6785  1.4358
   68MOL0     H 9141   6.834   5.500   2.120 -0.8608 -1.4619 -0.9220
   68MOL0     H 9142   7.001   5.516   2.080 -1.3916  2.5492  3.8427
   68MOL0     H 9143   6.912   5.370   2.030 -0.9286  2.8992 -1.8609
   68MOL0     H 9144   6.787   4.979   1.978 -0.4521  0.6165  0.8005
   68MOL0     H 9145   6.607   4.846   1.879  2.3403 -2.0552 -0.1789
   68MOL0     H 9146   6.447   4.525   1.933 -1.4621 -2.2620  1.3526
   68MOL0     H 9147   6.603   4.582   2.007  0.3414  2.2942 -1.7557
   68MOL0     H 9148   6.528   4.504   2.226 -2.1055 -0.3994  0.4640
   68MOL0     H 9149   6.372   4.451   2.173 -0.0311  0.0112 -0.6628
   68MOL0     H 9150   6.621   4.349   2.059 -0.5324  0.2437 -0.3411
   68MOL0     H 9151   6.457   4.288   2.034  0.0581 -0.6750  0.1285
   68MOL0     H 9152   6.576   4.141   2.194  0.8626 -0.1830  0.5751
   68MOL0     H 9153   6.660   4.282   2.266 -0.6365 -0.0409  0.7733
   68MOL0     H 9154   6.444   4.345   2.369  3.0939  0.9984 -0.9496
   68MOL0     H 9155   6.511   4.189   2.429  2.2203  0.8466 -0.6482
   68MOL0     H 9156   6.315   4.195   2.190 -1.6555  0.0766 -0.4349
   68MOL0     H 9157   6.325   4.075   2.316 -1.9238  0.2812 -4.5930
   68MOL0     H 9158   6.214   4.363   2.297  0.9735 -0.1394 -0.5676
   68MOL0     H 9159   6.221   4.299   2.459  2.0502 -0.0811 -0.0614
   68MOL0     H 9160   6.037   4.209   2.230  2.0835  2.3872  0.0772
   68MOL0     H 9161   6.009   4.315   2.356  1.4397  2.4812 -5.8781
   68MOL0     H 9162   6.439   4.804   2.283 -0.4309  1.0487  0.7948
   68MOL0     H 9163   6.604   4.970   2.364 -1.7602  1.6755 -0.5342
   68MOL0     H 9164   6.932   5.112   2.443  4.0648 -1.5137  0.8345
   68MOL0     H 9165   7.133   5.187   2.546  0.1896 -1.1055 -0.7015
   68MOL0     H 9166   7.539   7.018   3.038 -0.1568 -0.1175  0.0066
   68MOL0     H 9167   7.291   7.039   3.060  1.4768  0.7444 -1.7510
   68MOL0     H 9168   7.007   6.972   3.352  1.2253  0.4770 -3.1481
   68MOL0     H 9169   6.833   6.982   3.504  2.0801  0.2354 -0.6964
   68MOL0     H 9170   6.435   6.969   3.556  0.3109  0.3691 -0.0528
   68MOL0     H 9171   6.518   7.043   3.420  1.6687 -0.6363 -2.0542
   68MOL0     H 9172   6.432   6.846   3.278  2.2500 -1.8616  1.0902
   68MOL0     H 9173   6.300   6.922   3.371 -0.8034 -1.4575 -1.0452
   68MOL0     H 9174   6.292   6.747   3.526  0.9551 -0.2213  0.3351
   68MOL0     H 9175   6.439   6.670   3.482 -0.8117 -2.0866  1.7444
   68MOL0     H 9176   6.276   6.539   3.422 -1.2570  1.0335  1.5664
   68MOL0     H 9177   6.312   6.607   3.266  3.4653 -1.7357  2.1891
   68MOL0     H 9178   5.909   6.732   3.360 -0.0406  2.9274  0.2485
   68MOL0     H 9179   6.622   6.661   3.313 -1.0287  0.5392  1.0747
   68MOL0     H 9180   6.809   6.619   3.183 -5.6325  0.4417 -0.7053
   69MOL0     O 9181   9.465   7.619   5.169 -0.5764  0.5351 -0.4074
   69MOL0     C 9182   9.379   7.635   5.258 -0.6098 -0.1177  1.4173
   69MOL0     O 9183   9.274   7.548   5.281  1.1636  0.1091 -0.1414
   69MOL0     C 9184   9.271   7.440   5.204  0.0101  0.6027  0.0046
   69MOL0     C 9185   9.152   7.392   5.151 -0.0991  0.2888  0.0441
   69MOL0     C 9186   9.144   7.274   5.085  0.2489  0.4227  0.3959
   69MOL0     C 9187   9.253   7.184   5.093 -0.3303 -0.0200  0.7621
   69MOL0     O 9188   9.245   7.066   5.026  0.7899 -0.0052 -0.2830
   69MOL0     C 9189   9.222   6.948   5.108 -0.2576 -0.7436  0.4591
   69MOL0     C 9190   9.358   6.903   5.178 -0.6843 -0.5993 -0.0329
   69MOL0     C 9191   9.451   6.853   5.070  0.0748 -0.0971 -0.0719
   69MOL0     C 9192   9.540   6.739   5.129 -0.2295  0.0532  0.4094
   69MOL0     C 9193   9.655   6.684   5.029  0.3745 -0.1297 -0.2349
   69MOL0     C 9194   9.792   6.753   5.022 -0.7007  0.0192 -0.2312
   69MOL0     C 9195   9.907   6.673   4.951 -0.5714  0.2599 -0.3828
   69MOL0     C 9196  10.047   6.751   4.967  0.5115 -0.4535  0.4538
   69MOL0     N 9197  10.156   6.651   4.985 -0.4913 -0.1685 -0.9258
   69MOL0     C 9198  10.284   6.668   4.939 -0.6654 -0.3223  0.1325
   69MOL0     C 9199  10.363   6.589   5.003 -0.2543 -0.1584  0.0551
   69MOL0     C 9200  10.514   6.601   4.968 -0.2595 -0.5705 -0.2451
   69MOL0     C 9201  10.586   6.489   5.043  0.5323 -0.1780  0.1536
   69MOL0     C 9202  10.731   6.476   5.003  0.0505 -0.5435  0.5522
   69MOL0     C 9203  10.804   6.394   5.110  1.0303 -0.0581  0.5736
   69MOL0     O 9204  10.731   6.270   5.138 -0.2248  0.2285 -0.6821
   69MOL0     C 9205  10.810   6.185   5.214 -0.6486  0.7004  0.3401
   69MOL0     C 9206  10.911   6.227   5.298 -0.8541  0.0469  0.1932
   69MOL0     C 9207  11.000   6.130   5.352  0.1814 -0.1815 -0.3284
   69MOL0     C 9208  11.100   6.188   5.449  0.6512 -0.1359  0.6027
   69MOL0     C 9209  10.992   5.998   5.314 -0.5594  1.3444  0.4275
   69MOL0     C 9210  11.089   5.891   5.362  0.0383  1.0734 -1.2113
   69MOL0     O 9211  11.030   5.765   5.372  0.0323  0.0311  0.0132
   69MOL0     C 9212  11.113   5.658   5.403  0.7896 -0.9283 -0.1689
   69MOL0     C 9213  11.078   5.596   5.520  0.6013  1.0758 -0.2971
   69MOL0     C 9214  11.171   5.497   5.574  0.0436  0.3578 -0.0074
   69MOL0     C 9215  11.284   5.456   5.496  0.2109 -0.2272 -1.8333
   69MOL0     O 9216  11.358   5.356   5.550  0.1015  0.2717 -0.3901
   69MOL0     C 9217  11.481   5.301   5.502  0.2994  0.1103 -0.9269
   69MOL0     C 9218  11.603   5.366   5.575  0.1609 -0.6618  0.5453
   69MOL0     C 9219  11.678   5.267   5.666  0.2083  0.0716  1.1947
   69MOL0     C 9220  11.754   5.340   5.773 -1.0861  0.1272 -0.2209
   69MOL0     C 9221  11.897   5.256   5.801 -0.9383 -0.6374  0.0850
   69MOL0     C 9222  11.963   5.346   5.903 -0.4272  0.0501  0.9868
   69MOL0     C 9223  12.093   5.288   5.960  0.0394 -0.4934  1.1762
   69MOL0     C 9224  12.064   5.165   6.043  0.0299  0.5577  0.1416
   69MOL0    Cl 9225  11.916   5.187   6.150  0.3851  0.1308  0.3382
   69MOL0     C 9226  11.326   5.531   5.382 -0.3987  0.1100 -0.1050
   69MOL0     C 9227  11.241   5.639   5.336 -1.8234 -0.4658  0.0018
   69MOL0     O 9228  11.206   5.912   5.382 -0.8721  0.6419  0.5020
   69MOL0     C 9229  10.892   5.959   5.228 -0.2466  0.1338 -0.0297
   69MOL0     C 9230  10.791   6.051   5.192 -0.3251  0.7657 -0.0818
   69MOL0     N 9231  10.292   6.529   5.112  0.1272 -0.1013 -0.4339
   69MOL0     N 9232  10.163   6.576   5.098 -0.8523 -0.4492  0.6391
   69MOL0     C 9233   9.373   7.229   5.146 -0.7580 -0.2031  0.3350
   69MOL0     C 9234   9.378   7.353   5.201  0.8169  0.3079  0.4674
   69MOL0     C 9235   9.393   7.753   5.334  0.8584 -0.0640  0.3971
   69MOL0     C 9236   9.329   7.766   5.467  0.4598  0.1164 -0.6810
   69MOL0     C 9237   9.352   7.878   5.549  0.2299  0.2575 -0.9506
   69MOL0     C 9238   9.455   7.976   5.504 -0.0876  0.5066 -0.2742
   69MOL0     O 9239   9.500   8.081   5.581 -0.7508 -0.0737  0.4468
   69MOL0     C 9240   9.453   8.098   5.720  0.0083  0.5846  0.0299
   69MOL0     C 9241   9.526   8.009   5.816 -0.2057  0.5719 -0.4763
   69MOL0     C 9242   9.478   8.041   5.957  0.2326  0.7382 -0.1216
   69MOL0     C 9243   9.507   7.932   6.063  1.7142 -0.0493  0.2853
   69MOL0     C 9244   9.645   7.943   6.102  0.1291  0.1686 -0.3852
   69MOL0     C 9245   9.757   7.980   6.128 -0.0864  0.7848  0.7050
   69MOL0     C 9246   9.513   7.957   5.372 -0.5088  0.0342  0.1500
   69MOL0     C 9247   9.477   7.854   5.292 -0.7611  0.4656 -1.2090
   69MOL0     H 9248   9.071   7.465   5.154 -1.7925 -1.4919  3.8321
   69MOL0     H 9249   9.058   7.243   5.026  3.3554 -1.1910 -3.8095
   69MOL0     H 9250   9.158   6.958   5.197 -0.1568 -1.8698  0.6682
   69MOL0     H 9251   9.177   6.866   5.052  3.0945 -3.4521  1.4126
   69MOL0     H 9252   9.392   6.995   5.227 -0.1904  1.6655 -4.1560
   69MOL0     H 9253   9.336   6.838   5.263 -0.9325  1.2920  1.3973
   69MOL0     H 9254   9.394   6.808   4.989 -0.9724 -0.9791  1.1248
   69MOL0     H 9255   9.511   6.935   5.028  0.5763  1.4265  3.2616
   69MOL0     H 9256   9.596   6.767   5.219  2.2192 -3.9848  0.3617
   69MOL0     H 9257   9.469   6.660   5.156 -2.4530  2.4354  2.1050
   69MOL0     H 9258   9.677   6.581   5.056  0.8778  0.1569  0.4493
   69MOL0     H 9259   9.617   6.692   4.926  0.8035  2.9370 -0.2666
   69MOL0     H 9260   9.796   6.855   4.983  1.9624  0.2125  0.3607
   69MOL0     H 9261   9.830   6.758   5.124  2.3662 -0.4909 -1.2493
   69MOL0     H 9262   9.912   6.569   4.986 -0.4700  0.5819  0.6045
   69MOL0     H 9263   9.879   6.679   4.845  1.2540  1.9856 -0.8147
   69MOL0     H 9264  10.050   6.814   5.056 -0.0575 -0.6417  0.6040
   69MOL0     H 9265  10.058   6.819   4.882 -0.4847  1.3999  1.7460
   69MOL0     H 9266  10.324   6.729   4.858 -0.7790  1.2750  1.2207
   69MOL0     H 9267  10.528   6.588   4.860 -0.2623  2.4160 -0.6797
   69MOL0     H 9268  10.553   6.696   5.005 -0.1690 -0.2806 -1.0608
   69MOL0     H 9269  10.537   6.395   5.016 -0.1199  0.9621 -3.0819
   69MOL0     H 9270  10.575   6.504   5.151 -1.5553  4.6177 -0.4676
   69MOL0     H 9271  10.776   6.575   5.004 -1.0847  0.0475 -1.2162
   69MOL0     H 9272  10.738   6.432   4.903  0.1646  0.3199  0.1722
   69MOL0     H 9273  10.789   6.464   5.192 -1.9849  0.5756 -0.4070
   69MOL0     H 9274  10.904   6.372   5.071  0.5101 -2.2017  0.3126
   69MOL0     H 9275  10.928   6.331   5.325 -0.4303 -0.0352  0.2585
   69MOL0     H 9276  11.038   6.248   5.517 -2.0125 -1.5307 -0.4551
   69MOL0     H 9277  11.153   6.110   5.506  3.0318  1.5424  0.8430
   69MOL0     H 9278  11.177   6.249   5.401  2.8577 -2.5820  0.7569
   69MOL0     H 9279  10.987   5.626   5.571  0.6301  1.9074 -0.7077
   69MOL0     H 9280  11.154   5.459   5.673 -2.4920  4.1150  1.2374
   69MOL0     H 9281  11.491   5.195   5.528  1.4175  0.8323  1.9632
   69MOL0     H 9282  11.491   5.314   5.394 -2.9868  1.2621 -1.2024
   69MOL0     H 9283  11.684   5.387   5.504 -1.4801  0.1575 -1.1507
   69MOL0     H 9284  11.558   5.454   5.622 -0.8720 -1.4272  1.0225
   69MOL0     H 9285  11.743   5.196   5.614 -0.1818 -0.8194  1.8832
   69MOL0     H 9286  11.607   5.210   5.728 -0.0450  0.3293  1.1410
   69MOL0     H 9287  11.781   5.444   5.750 -3.6258  0.5723 -1.5614
   69MOL0     H 9288  11.702   5.332   5.868 -1.9701  0.3619 -0.6785
   69MOL0     H 9289  11.961   5.251   5.712 -0.4233  0.6682  0.3647
   69MOL0     H 9290  11.879   5.153   5.832 -4.0954 -0.0356  0.6010
   69MOL0     H 9291  11.979   5.435   5.843 -0.4424 -2.4379 -3.1130
   69MOL0     H 9292  11.899   5.382   5.984  0.5285  1.9986  0.9242
   69MOL0     H 9293  12.129   5.371   6.022 -1.8274  2.1922 -1.0610
   69MOL0     H 9294  12.166   5.278   5.879  0.7747  3.6941  1.1132
   69MOL0     H 9295  12.148   5.139   6.108  0.3991 -0.3892 -0.6856
   69MOL0     H 9296  12.043   5.081   5.977 -0.5308  1.1312 -0.4252
   69MOL0     H 9297  11.414   5.517   5.320  0.1222  2.7173 -0.0620
   69MOL0     H 9298  11.286   5.690   5.251 -1.4445 -0.8768 -0.0499
   69MOL0     H 9299  10.876   5.856   5.197  0.0098 -1.7506  5.0556
   69MOL0     H 9300  10.708   6.038   5.122 -1.8778  1.0249  1.6274
   69MOL0     H 9301   9.463   7.168   5.144 -0.7460 -0.2644  1.7790
   69MOL0     H 9302   9.464   7.378   5.262  0.0299 -1.6481  2.5437
   69MOL0     H 9303   9.249   7.706   5.509  0.9724 -0.7519 -0.9259
   69MOL0     H 9304   9.304   7.873   5.646  0.4948 -3.0835 -0.8716
   69MOL0     H 9305   9.484   8.198   5.749  1.3329  0.7179 -1.6657
   69MOL0     H 9306   9.344   8.099   5.723  0.0149  1.6173  0.0212
   69MOL0     H 9307   9.633   8.031   5.812  0.3946 -1.7891  0.6427
   69MOL0     H 9308   9.501   7.905   5.792 -0.2120  0.2646  0.7840
   69MOL0     H 9309   9.370   8.059   5.953  0.1570  0.1800 -0.7706
   69MOL0     H 9310   9.523   8.132   5.996  0.4391 -0.2115  2.0119
   69MOL0     H 9311   9.500   7.832   6.017 -1.9589  0.3556 -0.3384
   69MOL0     H 9312   9.436   7.946   6.145 -0.1036  4.1903 -1.7312
   69MOL0     H 9313   9.848   8.030   6.156  3.3789 -4.7732  0.8843
   69MOL0     H 9314   9.563   8.041   5.324 -0.0340  0.1307  0.7966
   69MOL0     H 9315   9.526   7.844   5.196  1.4466  1.3169 -0.2240
   70MOL0     O 9316  11.350   3.358   9.722 -0.1430  0.6259 -0.0744
   70MOL0     C 9317  11.234   3.395   9.707 -0.6212 -0.3177  0.4303
   70MOL0     O 9318  11.141   3.348   9.616 -0.0132  0.0555 -0.1459
   70MOL0     C 9319  11.180   3.263   9.519  0.6353  0.5781  0.8159
   70MOL0     C 9320  11.108   3.141   9.506 -0.6928 -0.2402 -0.1488
   70MOL0     C 9321  11.133   3.062   9.394 -0.3372  1.5844 -0.7568
   70MOL0     C 9322  11.254   3.084   9.320 -0.4657 -0.2303  0.5646
   70MOL0     O 9323  11.296   3.012   9.209 -0.0371  0.3695 -0.3665
   70MOL0     C 9324  11.188   2.991   9.105 -0.4627 -0.0508  0.5461
   70MOL0     C 9325  11.227   2.908   8.989  0.0616 -0.4576 -0.1486
   70MOL0     C 9326  11.248   2.760   9.026  0.0486  0.2300  0.4598
   70MOL0     C 9327  11.312   2.694   8.906  0.1959 -0.3269 -1.1807
   70MOL0     C 9328  11.309   2.539   8.897  0.2443 -0.2037 -0.1464
   70MOL0     C 9329  11.419   2.493   8.989 -0.3370 -0.6790  0.0372
   70MOL0     C 9330  11.441   2.339   8.982 -0.6788 -0.0430  0.3790
   70MOL0     C 9331  11.501   2.301   8.847  0.3000  0.0787  0.2971
   70MOL0     N 9332  11.509   2.151   8.823 -0.7262 -0.1301 -0.1476
   70MOL0     C 9333  11.541   2.048   8.909  0.0832  0.2497 -0.5989
   70MOL0     C 9334  11.559   1.939   8.833 -0.1165 -0.5706 -0.6464
   70MOL0     C 9335  11.589   1.794   8.869 -0.3771 -0.4498 -0.2659
   70MOL0     C 9336  11.500   1.725   8.976  0.6057  0.4484 -0.7166
   70MOL0     C 9337  11.352   1.718   8.938 -0.8226 -0.8594  0.6149
   70MOL0     C 9338  11.281   1.670   9.060  0.8972 -0.0021  0.2539
   70MOL0     O 9339  11.147   1.658   9.009 -0.9014  0.6351  0.2976
   70MOL0     C 9340  11.065   1.545   9.035 -0.0537  1.4201  0.2427
   70MOL0     C 9341  11.102   1.418   9.100 -1.0061  1.5995  0.1192
   70MOL0     C 9342  11.020   1.311   9.116  0.4822 -0.5023  0.3454
   70MOL0     C 9343  11.071   1.171   9.140  1.0799  0.5229  0.1325
   70MOL0     C 9344  10.880   1.327   9.077  0.1193  1.0281  0.8036
   70MOL0     C 9345  10.782   1.211   9.082 -1.0300 -0.3976  0.1758
   70MOL0     O 9346  10.665   1.248   9.133 -0.1303  0.0766 -0.1228
   70MOL0     C 9347  10.542   1.179   9.108 -0.2388  0.0568  0.5130
   70MOL0     C 9348  10.422   1.228   9.173 -0.6025 -0.4045  0.4548
   70MOL0     C 9349  10.289   1.194   9.139 -0.9178 -0.5447 -0.0144
   70MOL0     C 9350  10.263   1.109   9.032  0.5957  0.1169 -0.0524
   70MOL0     O 9351  10.130   1.055   9.014  0.0546  0.6409 -0.6716
   70MOL0     C 9352  10.078   0.983   9.132 -0.8541 -0.5963  1.0311
   70MOL0     C 9353   9.930   0.944   9.110 -0.4910  0.0893  0.0708
   70MOL0     C 9354   9.822   1.050   9.141 -0.0517 -0.1133 -1.0735
   70MOL0     C 9355   9.796   1.060   9.295 -0.5947 -0.4505 -0.9385
   70MOL0     C 9356   9.670   1.141   9.334  0.2079  0.7178 -0.9601
   70MOL0     C 9357   9.660   1.125   9.489  1.0632 -0.3720  0.8120
   70MOL0     C 9358   9.549   1.225   9.522  0.1158  0.1727  0.3934
   70MOL0     C 9359   9.485   1.225   9.660 -0.8488  0.4815 -0.3407
   70MOL0    Cl 9360   9.370   1.364   9.687  0.0396  0.2431 -0.0323
   70MOL0     C 9361  10.380   1.048   8.969 -0.0361 -0.6760  0.3179
   70MOL0     C 9362  10.510   1.085   9.010  0.0610 -0.1726  0.3540
   70MOL0     O 9363  10.808   1.095   9.034 -1.0206  0.3066 -0.5782
   70MOL0     C 9364  10.833   1.444   9.015  0.2901 -0.3198 -0.1558
   70MOL0     C 9365  10.921   1.557   9.002 -0.7019 -0.7690 -0.0102
   70MOL0     N 9366  11.547   1.975   8.700  0.3356 -0.3091  0.2489
   70MOL0     N 9367  11.518   2.105   8.700  0.4359 -0.6633  1.0117
   70MOL0     C 9368  11.325   3.207   9.335  0.8045 -0.1291  0.6671
   70MOL0     C 9369  11.281   3.296   9.429  0.3401 -0.6840 -0.2394
   70MOL0     C 9370  11.191   3.524   9.769  0.0028  0.1429  0.9622
   70MOL0     C 9371  11.260   3.578   9.876  1.4335  0.8415  0.5924
   70MOL0     C 9372  11.235   3.713   9.914  0.2409 -0.0859  1.1472
   70MOL0     C 9373  11.112   3.778   9.872  0.3668 -0.2543  0.3673
   70MOL0     O 9374  11.067   3.908   9.902  0.2484 -0.3659 -0.2784
   70MOL0     C 9375  11.140   3.987  10.002  0.1802  0.0549 -0.1998
   70MOL0     C 9376  11.277   4.030   9.966  0.5631 -0.2909  0.9085
   70MOL0     C 9377  11.373   4.077  10.077 -0.4817 -0.3625  0.0369
   70MOL0     C 9378  11.314   4.188  10.164  0.5103 -0.7659  0.2986
   70MOL0     C 9379  11.419   4.248  10.254  0.0768  0.5383 -0.0697
   70MOL0     C 9380  11.510   4.273  10.333  0.6811 -0.3880 -0.2006
   70MOL0     C 9381  11.026   3.707   9.787 -0.5719  0.0920  0.0316
   70MOL0     C 9382  11.072   3.586   9.729  1.0959  0.1957 -0.2168
   70MOL0     H 9383  11.029   3.131   9.579 -0.2586  1.3289  0.5792
   70MOL0     H 9384  11.081   2.968   9.383  4.8229 -1.6553 -0.4815
   70MOL0     H 9385  11.096   2.952   9.148 -0.6241 -1.5256 -1.0481
   70MOL0     H 9386  11.169   3.086   9.053  1.0837 -1.0419 -2.0005
   70MOL0     H 9387  11.140   2.913   8.923 -0.6991  2.3168  0.9185
   70MOL0     H 9388  11.299   2.956   8.922 -2.1436 -0.3322 -2.5895
   70MOL0     H 9389  11.297   2.738   9.121  1.4319 -2.0967 -0.7008
   70MOL0     H 9390  11.150   2.712   9.036 -1.6116  3.5209  1.3830
   70MOL0     H 9391  11.267   2.712   8.808  4.0876  1.7488 -2.7630
   70MOL0     H 9392  11.414   2.729   8.888  0.3890 -1.4595 -2.4412
   70MOL0     H 9393  11.209   2.506   8.926 -0.4858 -1.4047 -3.5279
   70MOL0     H 9394  11.330   2.512   8.793  1.5734 -0.4608  0.1634
   70MOL0     H 9395  11.513   2.539   8.956  0.4375 -0.2574  2.6294
   70MOL0     H 9396  11.418   2.525   9.093  0.2366  1.2058 -0.4995
   70MOL0     H 9397  11.507   2.310   9.065  2.5791  2.2202 -1.1994
   70MOL0     H 9398  11.341   2.295   8.986  0.4326 -2.8212 -0.2044
   70MOL0     H 9399  11.598   2.349   8.835 -0.1988  1.1251  0.3700
   70MOL0     H 9400  11.451   2.340   8.757  0.2841  1.4071  0.8612
   70MOL0     H 9401  11.553   2.060   9.016  1.7250 -0.7147 -0.6424
   70MOL0     H 9402  11.568   1.739   8.777 -1.0261  0.3974 -0.6332
   70MOL0     H 9403  11.696   1.787   8.891 -0.6337 -0.5982  1.0163
   70MOL0     H 9404  11.508   1.781   9.070 -2.9683  1.7527 -1.0142
   70MOL0     H 9405  11.539   1.626   9.000 -2.0215 -0.1609  1.6680
   70MOL0     H 9406  11.339   1.657   8.848  0.7577 -0.5075  0.1273
   70MOL0     H 9407  11.318   1.817   8.905  0.2936  0.1941  2.4944
   70MOL0     H 9408  11.275   1.741   9.142 -0.6020 -1.7621  1.7635
   70MOL0     H 9409  11.320   1.577   9.104 -2.8952 -1.3401  1.1503
   70MOL0     H 9410  11.206   1.405   9.128 -1.6414 -1.0994  1.6866
   70MOL0     H 9411  11.179   1.168   9.153  1.1450  1.2027 -0.1629
   70MOL0     H 9412  11.015   1.126   9.223  0.2242 -5.7659 -3.2904
   70MOL0     H 9413  11.044   1.110   9.054 -0.0120 -1.9731  2.1365
   70MOL0     H 9414  10.438   1.295   9.257  0.0136  0.9611 -0.7212
   70MOL0     H 9415  10.210   1.236   9.200 -0.3704 -1.7790  1.6076
   70MOL0     H 9416  10.135   0.890   9.139  1.7579  0.8568  0.6179
   70MOL0     H 9417  10.081   1.046   9.221 -2.6693  0.9391  0.0759
   70MOL0     H 9418   9.925   0.924   9.003  1.1195  2.5614 -0.5299
   70MOL0     H 9419   9.917   0.846   9.159  4.0348 -0.4059  0.7742
   70MOL0     H 9420   9.725   1.020   9.100  0.9703 -2.1856 -2.1055
   70MOL0     H 9421   9.846   1.153   9.113 -3.5435  1.3524  0.7082
   70MOL0     H 9422   9.791   0.952   9.316 -1.5153 -0.3724 -0.7225
   70MOL0     H 9423   9.885   1.095   9.348 -1.9819 -3.2342  3.8651
   70MOL0     H 9424   9.579   1.098   9.291  1.3979 -1.8011 -1.1705
   70MOL0     H 9425   9.673   1.244   9.298  4.2936 -0.4277 -4.9780
   70MOL0     H 9426   9.630   1.023   9.517 -0.9135 -0.5030 -1.4900
   70MOL0     H 9427   9.755   1.141   9.541  1.7362 -0.2448 -0.4282
   70MOL0     H 9428   9.466   1.220   9.451 -0.3610 -0.9709  0.9996
   70MOL0     H 9429   9.596   1.322   9.506 -1.3996  0.6267 -1.6695
   70MOL0     H 9430   9.564   1.229   9.735 -2.1880 -0.5891  1.2012
   70MOL0     H 9431   9.437   1.127   9.666 -0.5690  0.4125  0.8140
   70MOL0     H 9432  10.362   0.961   8.906  0.0146 -1.9050  1.9462
   70MOL0     H 9433  10.585   1.028   8.956 -0.5060  1.2983 -2.1400
   70MOL0     H 9434  10.728   1.446   8.987 -0.3003 -1.3204  1.7861
   70MOL0     H 9435  10.891   1.651   8.956  3.2009  1.8064  2.2397
   70MOL0     H 9436  11.410   3.223   9.269  0.3521 -2.2797 -0.5155
   70MOL0     H 9437  11.345   3.381   9.450  0.4199 -1.0378  1.0365
   70MOL0     H 9438  11.337   3.516   9.920  1.8365  0.9529  0.0502
   70MOL0     H 9439  11.296   3.770   9.983  0.4243  2.6900 -1.0999
   70MOL0     H 9440  11.074   4.068  10.033 -1.3418 -1.9684  2.2453
   70MOL0     H 9441  11.147   3.921  10.089 -1.6287  1.0724  0.7507
   70MOL0     H 9442  11.282   4.121   9.906 -0.3179  0.1993  1.5507
   70MOL0     H 9443  11.329   3.950   9.913  0.4933 -1.3252  2.3353
   70MOL0     H 9444  11.470   4.108  10.038  0.6738 -0.4877  2.6330
   70MOL0     H 9445  11.394   3.984  10.132  0.4188 -1.1302 -1.5253
   70MOL0     H 9446  11.243   4.143  10.234  1.5173  0.1266  1.9376
   70MOL0     H 9447  11.274   4.259  10.090  1.7927 -1.2406 -0.9020
   70MOL0     H 9448  11.595   4.280  10.397  1.7564  0.3811 -1.6478
   70MOL0     H 9449  10.933   3.758   9.763  0.9437  3.2213  0.3213
   70MOL0     H 9450  10.987   3.540   9.679 -1.5658  0.1388  3.8599
   71MOL0     O 9451   8.422  11.102   5.552  0.3222 -0.4154  0.1633
   71MOL0     C 9452   8.366  11.013   5.612 -0.6646  0.2529  0.6850
   71MOL0     O 9453   8.270  10.924   5.561 -0.7577 -0.5385  0.1774
   71MOL0     C 9454   8.219  10.951   5.437 -0.4647 -0.1873 -0.8433
   71MOL0     C 9455   8.295  10.948   5.316 -0.3165 -0.3235  0.7828
   71MOL0     C 9456   8.251  10.998   5.191  0.1733  0.1267 -0.3384
   71MOL0     C 9457   8.114  11.023   5.181 -0.4566  0.4439 -0.1464
   71MOL0     O 9458   8.047  11.028   5.062 -0.5307  0.0235 -0.3226
   71MOL0     C 9459   8.121  11.104   4.963 -0.5439  1.3681 -0.0597
   71MOL0     C 9460   8.046  11.131   4.831 -0.1068 -0.0632  0.0746
   71MOL0     C 9461   7.909  11.189   4.846  0.2765 -0.5440 -1.3800
   71MOL0     C 9462   7.806  11.098   4.914  0.7317 -1.2804  0.2570
   71MOL0     C 9463   7.651  11.150   4.905  0.0425  0.5115 -0.0016
   71MOL0     C 9464   7.603  11.093   4.769 -0.1232 -0.3283 -0.5853
   71MOL0     C 9465   7.454  11.132   4.738  1.2529  0.6288  0.8809
   71MOL0     C 9466   7.397  11.065   4.614  0.4371 -0.0746  0.0163
   71MOL0     N 9467   7.356  10.925   4.642 -0.3290 -0.7455  0.2970
   71MOL0     C 9468   7.435  10.808   4.633  0.8612 -0.0140  0.5803
   71MOL0     C 9469   7.356  10.704   4.654 -0.2298 -0.4117  0.0309
   71MOL0     C 9470   7.398  10.555   4.645  0.5606  0.2375  0.4967
   71MOL0     C 9471   7.537  10.532   4.719  0.1748 -0.3125  0.7236
   71MOL0     C 9472   7.518  10.549   4.864  0.8239 -0.3941 -0.4221
   71MOL0     C 9473   7.603  10.672   4.909  0.1292  0.0806 -0.9417
   71MOL0     O 9474   7.560  10.717   5.039  0.5272 -0.2776 -0.0824
   71MOL0     C 9475   7.609  10.679   5.154  0.1302  0.4275  0.2149
   71MOL0     C 9476   7.613  10.781   5.254  1.1061 -0.2835 -0.7157
   71MOL0     C 9477   7.660  10.748   5.383  0.0426  0.8696  0.1110
   71MOL0     C 9478   7.683  10.869   5.470  0.5890 -0.1388 -0.5144
   71MOL0     C 9479   7.693  10.614   5.413 -0.4510 -0.4793 -0.7300
   71MOL0     C 9480   7.734  10.566   5.546  0.0149 -0.1684  0.5992
   71MOL0     O 9481   7.712  10.647   5.658  0.0714 -0.2906 -0.0345
   71MOL0     C 9482   7.769  10.605   5.776 -0.6765  0.3225  0.9566
   71MOL0     C 9483   7.696  10.527   5.861 -0.0584  0.7665 -0.0544
   71MOL0     C 9484   7.757  10.490   5.986 -0.0653 -0.3766  0.6294
   71MOL0     C 9485   7.891  10.536   6.011 -0.3491 -0.6891  0.6907
   71MOL0     O 9486   7.953  10.506   6.132 -0.3911  0.2138 -0.1218
   71MOL0     C 9487   7.904  10.407   6.224  0.1261 -0.3390 -0.4532
   71MOL0     C 9488   7.993  10.404   6.352  0.1028  0.8990 -0.0366
   71MOL0     C 9489   8.148  10.404   6.330 -0.6206 -0.1867 -0.2296
   71MOL0     C 9490   8.189  10.311   6.221 -0.5160  0.2061  0.2203
   71MOL0     C 9491   8.346  10.311   6.197  0.2048  0.9052 -0.5285
   71MOL0     C 9492   8.391  10.437   6.123  0.0804  0.1811  0.0530
   71MOL0     C 9493   8.544  10.433   6.109  0.2484  0.7402 -0.0099
   71MOL0     C 9494   8.596  10.542   6.014  0.2774  0.1366  0.6380
   71MOL0    Cl 9495   8.507  10.565   5.869 -0.0788 -0.0664  0.0891
   71MOL0     C 9496   7.957  10.611   5.920 -0.4951  0.6301 -0.3322
   71MOL0     C 9497   7.891  10.654   5.810  0.1053  0.6910  0.5261
   71MOL0     O 9498   7.789  10.454   5.548 -0.0093 -0.3049  0.0229
   71MOL0     C 9499   7.695  10.521   5.310  0.6328  0.6722  0.1812
   71MOL0     C 9500   7.657  10.548   5.180  0.4309 -0.5188  0.3717
   71MOL0     N 9501   7.232  10.758   4.681  0.3962  0.2310 -0.0158
   71MOL0     N 9502   7.233  10.881   4.678 -0.3261 -0.1697  0.5235
   71MOL0     C 9503   8.035  10.999   5.299 -0.3802  0.6164  0.0361
   71MOL0     C 9504   8.080  10.961   5.427  1.0510  0.5820  0.3430
   71MOL0     C 9505   8.393  10.995   5.750  1.3542  1.0846 -0.2277
   71MOL0     C 9506   8.463  11.098   5.822 -0.4670 -0.5359 -0.4870
   71MOL0     C 9507   8.474  11.080   5.955 -0.6382  0.1639 -0.0237
   71MOL0     C 9508   8.445  10.963   6.019  0.0349 -0.1212  0.0334
   71MOL0     O 9509   8.484  10.946   6.150 -0.3567 -0.3231  0.3290
   71MOL0     C 9510   8.624  10.947   6.183  0.5506 -0.0135  0.0233
   71MOL0     C 9511   8.659  10.851   6.289  0.4988 -0.3820  0.6935
   71MOL0     C 9512   8.809  10.840   6.324 -0.1199 -0.3407 -0.2289
   71MOL0     C 9513   8.821  10.899   6.463 -0.4968  0.7175 -0.1388
   71MOL0     C 9514   8.954  10.863   6.510 -0.0022 -0.6296 -0.5255
   71MOL0     C 9515   9.068  10.836   6.537 -0.4167  0.6510  0.5334
   71MOL0     C 9516   8.370  10.863   5.957 -0.3497  0.1497 -1.2248
   71MOL0     C 9517   8.350  10.877   5.819  0.7663  0.1410  0.3975
   71MOL0     H 9518   8.398  10.912   5.315 -0.2004 -0.3361  3.8145
   71MOL0     H 9519   8.313  10.999   5.102  0.7690 -0.6820  0.0488
   71MOL0     H 9520   8.145  11.198   5.014  0.1499  0.3763  1.5498
   71MOL0     H 9521   8.212  11.051   4.935 -0.1422 -0.5494  4.0886
   71MOL0     H 9522   8.105  11.206   4.778 -0.3501  1.0292  1.2964
   71MOL0     H 9523   8.034  11.044   4.765 -2.3294  0.3088 -0.1049
   71MOL0     H 9524   7.907  11.291   4.886  0.1493 -0.7560 -0.8469
   71MOL0     H 9525   7.867  11.201   4.746 -2.8890 -0.3007 -0.1232
   71MOL0     H 9526   7.807  10.995   4.877 -2.7953 -1.5206  0.4736
   71MOL0     H 9527   7.820  11.085   5.022 -0.7180  0.1089  0.6632
   71MOL0     H 9528   7.596  11.108   4.991  1.9384 -0.8948  0.5879
   71MOL0     H 9529   7.645  11.259   4.915 -3.0983  0.4164  0.1743
   71MOL0     H 9530   7.664  11.145   4.695  0.6373  0.0260  0.2706
   71MOL0     H 9531   7.622  10.986   4.776  0.3168 -0.1436  3.4253
   71MOL0     H 9532   7.407  11.085   4.825  3.9180  1.4147  2.8738
   71MOL0     H 9533   7.441  11.240   4.743  1.5656  0.7722 -0.9141
   71MOL0     H 9534   7.458  11.072   4.523  1.0708  0.9636  0.5066
   71MOL0     H 9535   7.302  11.111   4.585 -0.7003 -0.3615  2.9215
   71MOL0     H 9536   7.534  10.797   4.589  0.9073 -1.1737  0.9517
   71MOL0     H 9537   7.323  10.490   4.691  0.6969 -2.2214 -2.4745
   71MOL0     H 9538   7.411  10.510   4.546  1.8696  1.9855 -0.1955
   71MOL0     H 9539   7.620  10.593   4.683 -0.2528 -1.2835 -2.1989
   71MOL0     H 9540   7.558  10.427   4.695  3.3280  0.7314 -1.7288
   71MOL0     H 9541   7.546  10.463   4.926 -0.2250  1.7799  3.3842
   71MOL0     H 9542   7.417  10.569   4.900  1.9562 -0.6005  3.2468
   71MOL0     H 9543   7.597  10.757   4.840 -1.9023  0.8009  0.0613
   71MOL0     H 9544   7.707  10.637   4.909 -0.1604 -0.7920 -0.6832
   71MOL0     H 9545   7.587  10.879   5.216  2.8958 -0.4638 -2.5274
   71MOL0     H 9546   7.756  10.864   5.552  0.0148  0.0859  0.0230
   71MOL0     H 9547   7.722  10.950   5.407  0.5631  1.4535  1.4108
   71MOL0     H 9548   7.584  10.898   5.507  0.8440 -0.2622  0.2963
   71MOL0     H 9549   7.595  10.510   5.825 -1.1088  1.3828  2.3781
   71MOL0     H 9550   7.689  10.446   6.058  0.9805  0.8537  2.4270
   71MOL0     H 9551   7.797  10.428   6.234 -0.1145 -1.2556 -0.9491
   71MOL0     H 9552   7.914  10.308   6.179  2.7281  0.1643 -1.1173
   71MOL0     H 9553   7.982  10.501   6.402  0.8320  0.8478  0.2353
   71MOL0     H 9554   7.950  10.325   6.414  2.0747 -0.7613 -0.7050
   71MOL0     H 9555   8.202  10.376   6.422 -0.0398  2.4356  0.3009
   71MOL0     H 9556   8.180  10.507   6.313 -0.3457 -0.1813  0.2857
   71MOL0     H 9557   8.155  10.213   6.256 -2.1306  0.2226 -1.1543
   71MOL0     H 9558   8.149  10.324   6.120  3.5994 -2.6457 -2.0493
   71MOL0     H 9559   8.365  10.215   6.149  1.1756 -0.9068  3.1335
   71MOL0     H 9560   8.399  10.301   6.292 -1.7757 -0.6372  0.5099
   71MOL0     H 9561   8.350  10.440   6.022  0.4124 -2.8408 -0.2552
   71MOL0     H 9562   8.361  10.529   6.175  0.8405  1.0575 -1.0091
   71MOL0     H 9563   8.574  10.336   6.068  0.5037  0.5996  0.4969
   71MOL0     H 9564   8.581  10.456   6.209 -2.7126  0.5930  1.2207
   71MOL0     H 9565   8.704  10.541   5.998  0.2516  4.3958 -1.1957
   71MOL0     H 9566   8.566  10.630   6.072 -1.1701 -0.6824  1.1836
   71MOL0     H 9567   8.055  10.649   5.947 -0.1230 -1.5598  1.7034
   71MOL0     H 9568   7.944  10.722   5.744 -1.3705  0.4673 -0.9654
   71MOL0     H 9569   7.721  10.418   5.331 -0.0012  0.6507  0.9000
   71MOL0     H 9570   7.661  10.471   5.103 -1.2857 -0.8095  0.5323
   71MOL0     H 9571   7.927  10.998   5.286 -0.4502 -2.1250  0.1469
   71MOL0     H 9572   8.007  10.936   5.503 -1.4415 -1.0989 -2.4026
   71MOL0     H 9573   8.484  11.196   5.781 -2.2255 -0.9735 -2.6103
   71MOL0     H 9574   8.517  11.156   6.020  2.4681  1.0169 -2.7948
   71MOL0     H 9575   8.680  10.913   6.096  0.5173  1.6161 -0.6654
   71MOL0     H 9576   8.648  11.052   6.204  2.1169 -0.5332  0.9665
   71MOL0     H 9577   8.623  10.750   6.270 -0.9757  0.3340 -0.5416
   71MOL0     H 9578   8.600  10.892   6.372 -0.4612  1.3865 -0.7902
   71MOL0     H 9579   8.875  10.897   6.258 -2.1359 -1.8756 -3.8913
   71MOL0     H 9580   8.838  10.735   6.316  0.5961 -0.2855  1.2689
   71MOL0     H 9581   8.748  10.861   6.535 -2.7325  0.9322 -2.1879
   71MOL0     H 9582   8.821  11.008   6.465 -0.6086  0.7166  1.2423
   71MOL0     H 9583   9.168  10.815   6.569 -0.9217 -0.6890  1.2932
   71MOL0     H 9584   8.335  10.790   6.028  0.4314  2.2714  1.5129
   71MOL0     H 9585   8.294  10.800   5.768 -1.1116  0.3235  2.0629
   72MOL0     O 9586   3.937   0.428   3.715 -0.9235 -0.0534  0.1816
   72MOL0     C 9587   3.851   0.357   3.672  0.5847 -0.3865 -0.2939
   72MOL0     O 9588   3.727   0.396   3.629 -0.2781 -0.3877 -0.6649
   72MOL0     C 9589   3.687   0.526   3.652  0.4291  0.1895 -0.2789
   72MOL0     C 9590   3.687   0.592   3.775 -0.1574 -0.1515 -0.0195
   72MOL0     C 9591   3.632   0.722   3.782 -0.3706  0.1049  0.3100
   72MOL0     C 9592   3.562   0.784   3.676 -0.6628 -1.3438 -0.7955
   72MOL0     O 9593   3.505   0.906   3.716  0.5776 -0.3730  0.0807
   72MOL0     C 9594   3.403   0.950   3.632  0.1882 -0.3685  0.2733
   72MOL0     C 9595   3.309   1.064   3.673  0.4704 -0.4945  0.5725
   72MOL0     C 9596   3.225   1.111   3.566 -0.0935  0.4028  0.6314
   72MOL0     C 9597   3.293   1.226   3.468 -0.6727 -0.5248 -0.3070
   72MOL0     C 9598   3.344   1.353   3.539  0.3137 -0.7921 -0.2936
   72MOL0     C 9599   3.230   1.422   3.631 -0.3430  0.6260  0.3008
   72MOL0     C 9600   3.091   1.455   3.572  0.2950  0.2631 -0.6722
   72MOL0     C 9601   3.096   1.579   3.490  0.4828  0.2075  0.5960
   72MOL0     N 9602   2.964   1.633   3.447  0.3721  0.0309 -0.3781
   72MOL0     C 9603   2.846   1.609   3.509  0.3912 -0.4000  1.2138
   72MOL0     C 9604   2.754   1.669   3.434  0.3391 -0.3820  0.0366
   72MOL0     C 9605   2.607   1.670   3.437 -0.3550 -0.1913 -0.4286
   72MOL0     C 9606   2.551   1.560   3.346 -0.0048  0.1253  0.7655
   72MOL0     C 9607   2.401   1.577   3.311  0.7952 -0.6795  0.5184
   72MOL0     C 9608   2.361   1.488   3.188  0.1311 -0.2553  0.4286
   72MOL0     O 9609   2.392   1.355   3.208 -0.0432 -0.5229  0.0556
   72MOL0     C 9610   2.317   1.284   3.305 -0.1644 -0.7263 -0.2285
   72MOL0     C 9611   2.190   1.335   3.352 -0.0663 -0.4233 -0.5968
   72MOL0     C 9612   2.123   1.267   3.462  0.0496 -0.1730 -0.0126
   72MOL0     C 9613   1.985   1.330   3.494 -0.0728 -0.0043  0.1512
   72MOL0     C 9614   2.169   1.145   3.518  0.1123  0.4295  1.0119
   72MOL0     C 9615   2.090   1.068   3.626 -0.3901  0.2199 -0.4390
   72MOL0     O 9616   2.149   0.947   3.658 -0.0897 -0.3763 -0.7395
   72MOL0     C 9617   2.069   0.868   3.735 -0.7273  0.3783 -0.2732
   72MOL0     C 9618   2.055   0.886   3.878 -0.8075 -0.0830  0.0419
   72MOL0     C 9619   1.968   0.805   3.952 -0.0617  0.3335  0.0277
   72MOL0     C 9620   1.877   0.718   3.880 -0.1599 -0.3799  0.0025
   72MOL0     O 9621   1.800   0.649   3.959  0.5416  0.2745  0.1469
   72MOL0     C 9622   1.726   0.546   3.900  0.6921 -1.2609  0.5613
   72MOL0     C 9623   1.643   0.475   4.003 -0.8789 -0.5954 -0.3134
   72MOL0     C 9624   1.741   0.402   4.096  0.3938 -0.5630  0.4668
   72MOL0     C 9625   1.776   0.477   4.222  0.2238  0.7278 -0.1980
   72MOL0     C 9626   1.666   0.450   4.325  0.3086 -1.8509 -0.0127
   72MOL0     C 9627   1.687   0.534   4.451  0.6506 -0.3008  0.9793
   72MOL0     C 9628   1.587   0.505   4.566  0.3651 -1.3716 -0.0056
   72MOL0     C 9629   1.442   0.560   4.542 -0.3097  0.4230  0.4790
   72MOL0    Cl 9630   1.308   0.468   4.606  0.0815 -0.1090 -0.4330
   72MOL0     C 9631   1.892   0.701   3.740  0.3351 -0.6882  0.4044
   72MOL0     C 9632   1.989   0.776   3.666 -0.1981 -0.8514 -1.1787
   72MOL0     O 9633   2.003   1.118   3.692  0.5440  0.1074  0.1748
   72MOL0     C 9634   2.292   1.092   3.464  0.5479  0.3821  0.9527
   72MOL0     C 9635   2.362   1.161   3.359  0.0682  0.0052 -0.7315
   72MOL0     N 9636   2.815   1.732   3.324  0.1866 -0.3542  0.1197
   72MOL0     N 9637   2.943   1.714   3.342 -0.0623  0.7994 -0.1918
   72MOL0     C 9638   3.571   0.719   3.551  0.3609 -1.0028 -0.6690
   72MOL0     C 9639   3.625   0.592   3.547 -0.5943  0.7393  0.8352
   72MOL0     C 9640   3.907   0.221   3.656  0.0359 -0.7674 -0.2941
   72MOL0     C 9641   4.006   0.170   3.740 -0.2809 -0.5777  0.7923
   72MOL0     C 9642   4.035   0.038   3.733 -0.1757  0.1101  0.3443
   72MOL0     C 9643   3.977  -0.059   3.648  0.6463 -0.1250  1.0970
   72MOL0     O 9644   4.018  -0.188   3.656 -0.1856 -0.0472 -0.1822
   72MOL0     C 9645   3.939  -0.285   3.589 -0.0514  1.4699 -0.3683
   72MOL0     C 9646   4.008  -0.323   3.449 -0.8357  0.2205 -0.6932
   72MOL0     C 9647   4.006  -0.209   3.343 -0.1559  0.2206 -1.0015
   72MOL0     C 9648   4.094  -0.231   3.218 -0.4099  0.3308 -0.1377
   72MOL0     C 9649   4.230  -0.281   3.245  0.6444  0.7126  0.4362
   72MOL0     C 9650   4.337  -0.334   3.272 -1.0691 -0.6000 -0.0844
   72MOL0     C 9651   3.871  -0.001   3.568 -0.5816  0.0182 -0.7459
   72MOL0     C 9652   3.844   0.138   3.562  0.2807  0.7680 -0.2375
   72MOL0     H 9653   3.723   0.537   3.862  0.4306  0.1612 -0.0649
   72MOL0     H 9654   3.630   0.768   3.880 -0.1777  3.5727 -1.1686
   72MOL0     H 9655   3.459   0.978   3.542  0.6060 -3.1080 -0.4399
   72MOL0     H 9656   3.346   0.860   3.606  1.0436 -0.8299 -0.0524
   72MOL0     H 9657   3.247   1.010   3.745  1.3815 -2.7217 -0.2419
   72MOL0     H 9658   3.356   1.145   3.729 -0.4985  0.8096 -0.4316
   72MOL0     H 9659   3.177   1.042   3.496 -3.1501  1.5285  1.4763
   72MOL0     H 9660   3.138   1.164   3.606 -0.4932 -0.6127  1.1412
   72MOL0     H 9661   3.383   1.189   3.418 -0.4466 -2.2778  1.2430
   72MOL0     H 9662   3.220   1.261   3.395  2.1630  2.2714 -2.0629
   72MOL0     H 9663   3.426   1.328   3.608  0.6835 -0.7428 -0.7089
   72MOL0     H 9664   3.378   1.413   3.454 -1.1964  2.9114  1.4868
   72MOL0     H 9665   3.215   1.351   3.712 -2.3181 -1.4904 -1.7632
   72MOL0     H 9666   3.268   1.511   3.682  0.3907 -1.5007  3.7513
   72MOL0     H 9667   3.058   1.371   3.509  1.7026  0.5959 -1.9105
   72MOL0     H 9668   3.020   1.471   3.653  0.0851 -1.9634 -0.3413
   72MOL0     H 9669   3.155   1.557   3.401 -2.0757 -1.5750 -0.7791
   72MOL0     H 9670   3.135   1.656   3.558 -1.2592 -1.1016  3.2668
   72MOL0     H 9671   2.820   1.555   3.600  0.4161 -1.3602  0.6713
   72MOL0     H 9672   2.591   1.634   3.539  2.6739  1.1423  0.6353
   72MOL0     H 9673   2.564   1.771   3.431 -2.6020 -0.9716  1.2540
   72MOL0     H 9674   2.565   1.464   3.397  0.7545 -1.8779 -2.9200
   72MOL0     H 9675   2.611   1.553   3.255 -0.1164 -1.2156  0.7705
   72MOL0     H 9676   2.361   1.676   3.292  0.0167 -1.1681 -0.4693
   72MOL0     H 9677   2.340   1.540   3.394  0.4000  1.8268  1.4070
   72MOL0     H 9678   2.410   1.533   3.101  0.1333  1.8215  1.4419
   72MOL0     H 9679   2.253   1.495   3.172 -0.2224 -2.3335  1.4948
   72MOL0     H 9680   2.147   1.428   3.315 -0.2125 -0.4735 -0.5529
   72MOL0     H 9681   1.910   1.252   3.513  1.4499 -1.8501 -1.0114
   72MOL0     H 9682   1.983   1.405   3.573 -0.9543  0.6657 -0.4990
   72MOL0     H 9683   1.945   1.388   3.410  2.4439  0.5546 -0.7458
   72MOL0     H 9684   2.120   0.964   3.917  0.3953 -0.6385 -0.7617
   72MOL0     H 9685   1.961   0.826   4.058 -0.7984  1.1133 -0.1635
   72MOL0     H 9686   1.659   0.591   3.826  0.6388 -0.8178  0.8767
   72MOL0     H 9687   1.794   0.480   3.844  4.4426  2.7736 -0.2049
   72MOL0     H 9688   1.584   0.549   4.058 -3.1382 -1.7257 -1.1050
   72MOL0     H 9689   1.581   0.401   3.951 -1.1379 -1.0350  0.5948
   72MOL0     H 9690   1.827   0.378   4.033  0.2836 -1.7284  0.7338
   72MOL0     H 9691   1.686   0.314   4.131 -1.7261  1.2344  1.9251
   72MOL0     H 9692   1.864   0.439   4.273 -1.4441 -1.5355  1.1870
   72MOL0     H 9693   1.790   0.585   4.207  0.3940  0.7746  0.2907
   72MOL0     H 9694   1.668   0.342   4.341  0.5931 -1.7450  0.6927
   72MOL0     H 9695   1.569   0.479   4.282  0.9386 -1.9286 -1.5221
   72MOL0     H 9696   1.794   0.536   4.477  1.5274  4.1287 -1.7538
   72MOL0     H 9697   1.679   0.643   4.445 -0.6321 -0.4621 -1.9550
   72MOL0     H 9698   1.630   0.544   4.659  1.1486 -3.4753  0.5656
   72MOL0     H 9699   1.583   0.396   4.571  0.4888 -1.3429  0.9819
   72MOL0     H 9700   1.427   0.557   4.434 -1.5238  1.9910  0.5695
   72MOL0     H 9701   1.421   0.663   4.570 -1.4730 -0.1432  1.8230
   72MOL0     H 9702   1.837   0.620   3.695  0.3062 -2.2380  3.0085
   72MOL0     H 9703   2.012   0.754   3.562 -1.0235  1.3450 -1.8864
   72MOL0     H 9704   2.331   1.002   3.512 -3.6474 -2.5972 -0.5853
   72MOL0     H 9705   2.452   1.113   3.321  0.2765 -0.2145  0.0237
   72MOL0     H 9706   3.529   0.772   3.466 -0.0853 -0.4480 -0.1119
   72MOL0     H 9707   3.614   0.542   3.451 -2.9612 -1.3065  2.0660
   72MOL0     H 9708   4.059   0.227   3.815  1.9241 -1.9795  0.3952
   72MOL0     H 9709   4.105  -0.017   3.796  1.6050  0.5810 -1.1650
   72MOL0     H 9710   3.931  -0.366   3.663 -0.2475  2.3802  0.6197
   72MOL0     H 9711   3.837  -0.247   3.582 -0.0998  1.1651 -1.5877
   72MOL0     H 9712   3.950  -0.405   3.406 -2.5349  1.3003 -0.5546
   72MOL0     H 9713   4.107  -0.362   3.472 -0.9620 -1.0727 -2.1932
   72MOL0     H 9714   4.027  -0.110   3.385  2.0989 -0.6791  0.1347
   72MOL0     H 9715   3.905  -0.217   3.302 -0.3694 -1.8845 -0.2094
   72MOL0     H 9716   4.108  -0.126   3.193 -0.9721  0.3233 -0.4824
   72MOL0     H 9717   4.044  -0.299   3.149  0.8821  1.1849 -2.0189
   72MOL0     H 9718   4.422  -0.394   3.295  0.2365  1.5097  0.9439
   72MOL0     H 9719   3.805  -0.056   3.503 -2.4657  2.6474 -1.2005
   72MOL0     H 9720   3.763   0.172   3.500 -1.2685  2.0953  2.3521
   73MOL0     O 9721   8.093   9.108   3.345  0.2820 -0.1156  0.0750
   73MOL0     C 9722   7.970   9.120   3.346  1.0262  0.0219  0.6424
   73MOL0     O 9723   7.902   9.142   3.464 -0.3015  0.5085  0.1988
   73MOL0     C 9724   7.983   9.168   3.574 -0.8193  1.0727 -0.2419
   73MOL0     C 9725   8.047   9.059   3.632  0.1836 -0.6416 -0.2486
   73MOL0     C 9726   8.119   9.083   3.748 -0.5889 -0.5409  0.0815
   73MOL0     C 9727   8.150   9.219   3.779  0.4186 -0.0733  0.5095
   73MOL0     O 9728   8.236   9.237   3.884 -1.0883 -0.7408 -0.4030
   73MOL0     C 9729   8.331   9.344   3.872  0.7783  0.0710 -0.3640
   73MOL0     C 9730   8.454   9.325   3.960  0.7130 -0.0319 -0.4417
   73MOL0     C 9731   8.537   9.203   3.934 -1.1870  0.5518  0.2253
   73MOL0     C 9732   8.679   9.218   3.986  0.6052  0.1649  0.4124
   73MOL0     C 9733   8.770   9.093   3.964 -0.2315  0.3610 -0.7108
   73MOL0     C 9734   8.910   9.128   4.015 -0.6827  0.1836 -0.9160
   73MOL0     C 9735   8.992   9.006   4.062 -0.8736 -0.1685 -0.1437
   73MOL0     C 9736   9.059   8.907   3.967 -0.3359  0.0349 -1.2298
   73MOL0     N 9737   9.152   8.971   3.879 -0.6403  0.2782 -0.0810
   73MOL0     C 9738   9.271   9.034   3.918 -0.5963  0.1248  0.1616
   73MOL0     C 9739   9.307   9.104   3.809 -0.5821 -0.2502 -0.5660
   73MOL0     C 9740   9.431   9.187   3.803 -0.8381  0.2850 -0.3321
   73MOL0     C 9741   9.560   9.103   3.799 -0.4910  0.0113 -0.4887
   73MOL0     C 9742   9.587   9.053   3.666  0.1576  0.2410  0.4190
   73MOL0     C 9743   9.708   8.953   3.637  0.0810  0.0174 -0.2720
   73MOL0     O 9744   9.660   8.820   3.658  0.3537  0.1492  0.1764
   73MOL0     C 9745   9.617   8.762   3.543 -0.6006  0.2676  0.1432
   73MOL0     C 9746   9.572   8.829   3.437  0.4454 -0.5095  0.9832
   73MOL0     C 9747   9.542   8.766   3.312  0.0634  1.7225 -0.1778
   73MOL0     C 9748   9.479   8.858   3.210 -0.2874 -0.3580 -0.3589
   73MOL0     C 9749   9.556   8.625   3.303 -1.3020  0.5551  0.3417
   73MOL0     C 9750   9.535   8.550   3.175 -0.0465  0.7366 -0.5605
   73MOL0     O 9751   9.589   8.427   3.169  0.3570 -0.7847 -0.1055
   73MOL0     C 9752   9.565   8.351   3.062 -0.0166  0.1842  0.6759
   73MOL0     C 9753   9.622   8.383   2.934 -0.6152  0.1048 -0.2863
   73MOL0     C 9754   9.616   8.282   2.830  0.3959  0.3965  0.4916
   73MOL0     C 9755   9.549   8.158   2.846 -0.0329  0.1285  0.1926
   73MOL0     O 9756   9.553   8.060   2.753 -0.5293  0.5611  0.5384
   73MOL0     C 9757   9.542   8.106   2.617 -0.6008  0.1609  0.7373
   73MOL0     C 9758   9.409   8.144   2.564  0.5185 -0.2495  0.9739
   73MOL0     C 9759   9.306   8.039   2.602  0.2059  0.4796  0.1786
   73MOL0     C 9760   9.192   8.035   2.502  0.0512 -0.5643  0.1039
   73MOL0     C 9761   9.086   8.141   2.534 -0.2180  0.2764 -0.3821
   73MOL0     C 9762   8.951   8.104   2.462  0.1831 -0.1752 -0.3348
   73MOL0     C 9763   8.837   8.206   2.478 -0.0942  0.4410  0.3391
   73MOL0     C 9764   8.818   8.253   2.628  0.1386  0.0445  0.3513
   73MOL0    Cl 9765   8.657   8.330   2.645 -0.0639  0.5717  0.1022
   73MOL0     C 9766   9.488   8.135   2.971  0.1125 -0.5391  0.1368
   73MOL0     C 9767   9.492   8.233   3.073 -0.3155  0.1632 -0.0678
   73MOL0     O 9768   9.466   8.604   3.088  0.1097  0.0687  0.4213
   73MOL0     C 9769   9.610   8.563   3.420  0.3741  0.4894  0.4369
   73MOL0     C 9770   9.634   8.627   3.539 -0.0813  0.7863  0.1196
   73MOL0     N 9771   9.225   9.071   3.708 -0.6207 -0.1119  0.1966
   73MOL0     N 9772   9.125   8.990   3.750 -0.9221  0.3883  0.3401
   73MOL0     C 9773   8.076   9.328   3.724 -0.1892 -0.6151  0.8629
   73MOL0     C 9774   8.004   9.300   3.611  0.8130  1.1364  0.6001
   73MOL0     C 9775   7.892   9.146   3.220 -0.3794  0.4115  1.0078
   73MOL0     C 9776   7.758   9.189   3.227 -0.1317 -0.4200 -0.1240
   73MOL0     C 9777   7.685   9.234   3.116 -0.4264  1.1257 -0.6599
   73MOL0     C 9778   7.747   9.233   2.988 -0.2169  0.1559  0.4452
   73MOL0     O 9779   7.668   9.293   2.886 -0.7552 -0.4321 -1.0834
   73MOL0     C 9780   7.737   9.348   2.772  0.2069  0.5242  0.2423
   73MOL0     C 9781   7.644   9.467   2.722  0.5910  0.5214 -0.5119
   73MOL0     C 9782   7.668   9.592   2.812 -0.2780 -0.5696 -0.2130
   73MOL0     C 9783   7.599   9.717   2.760  0.7158  0.2826 -0.2686
   73MOL0     C 9784   7.652   9.844   2.812 -0.4878 -0.5138 -0.0694
   73MOL0     C 9785   7.694   9.948   2.856  0.0494 -0.1460 -0.8095
   73MOL0     C 9786   7.881   9.186   2.978 -0.2599 -0.1460  0.6889
   73MOL0     C 9787   7.950   9.138   3.085 -0.0861 -0.3598  0.5489
   73MOL0     H 9788   8.040   8.958   3.592 -0.4908 -0.6581 -0.1152
   73MOL0     H 9789   8.178   9.003   3.792 -0.4338  0.5334  1.9021
   73MOL0     H 9790   8.348   9.344   3.764 -1.5203 -1.0944 -0.7991
   73MOL0     H 9791   8.276   9.433   3.907 -1.0835  0.6137 -4.0949
   73MOL0     H 9792   8.511   9.409   3.919 -1.7078  0.5138 -3.0054
   73MOL0     H 9793   8.424   9.334   4.065  0.7345 -1.0811 -0.3287
   73MOL0     H 9794   8.491   9.118   3.985  0.2735  1.0546  2.5586
   73MOL0     H 9795   8.540   9.184   3.826 -2.0384 -0.0919  0.3090
   73MOL0     H 9796   8.717   9.318   3.962 -0.2748  0.9611  2.1747
   73MOL0     H 9797   8.679   9.234   4.094 -0.1599  2.3055  0.1256
   73MOL0     H 9798   8.734   9.019   4.036  0.3410  1.3964  0.7056
   73MOL0     H 9799   8.769   9.047   3.865 -0.0758 -1.0725 -0.0722
   73MOL0     H 9800   8.960   9.184   3.935 -3.5205  4.4066 -0.0643
   73MOL0     H 9801   8.903   9.188   4.106  3.0508  1.2061 -1.1488
   73MOL0     H 9802   9.076   9.044   4.121 -1.7416  0.5552  0.6515
   73MOL0     H 9803   8.933   8.954   4.138  2.0960 -1.8936  1.1726
   73MOL0     H 9804   8.993   8.843   3.908 -0.6206 -0.7901 -0.0716
   73MOL0     H 9805   9.125   8.840   4.023 -2.1996  0.6696  2.0114
   73MOL0     H 9806   9.311   9.032   4.019 -2.1903 -0.5678  0.8112
   73MOL0     H 9807   9.438   9.261   3.723  2.7679  3.9156  2.8996
   73MOL0     H 9808   9.427   9.237   3.900 -0.0582 -2.4763  1.2273
   73MOL0     H 9809   9.551   9.023   3.873  1.2851 -0.0044 -0.2537
   73MOL0     H 9810   9.646   9.162   3.832 -0.7006  0.8006 -1.3156
   73MOL0     H 9811   9.615   9.143   3.610 -2.1430 -0.0164 -1.2547
   73MOL0     H 9812   9.492   9.017   3.627 -0.3507  3.1956 -1.3831
   73MOL0     H 9813   9.788   8.970   3.710 -2.1180  1.3436  2.0140
   73MOL0     H 9814   9.753   8.971   3.539  0.3973 -0.1333 -0.1546
   73MOL0     H 9815   9.553   8.935   3.445 -1.3900 -0.9512  3.2839
   73MOL0     H 9816   9.541   8.844   3.121  2.0443  1.7915  0.7788
   73MOL0     H 9817   9.371   8.857   3.196 -0.9389  2.7461  2.6846
   73MOL0     H 9818   9.498   8.965   3.222 -1.2336 -0.0827 -1.1529
   73MOL0     H 9819   9.670   8.480   2.923 -0.7892  0.4087  1.3651
   73MOL0     H 9820   9.666   8.301   2.735  1.9945  0.4723  1.3070
   73MOL0     H 9821   9.612   8.182   2.583  0.7165 -3.3262 -6.0106
   73MOL0     H 9822   9.568   8.020   2.555 -0.2104  0.1778  0.8798
   73MOL0     H 9823   9.389   8.243   2.607  1.3262  0.1805  0.3962
   73MOL0     H 9824   9.423   8.149   2.456  0.0083 -2.8141  0.7426
   73MOL0     H 9825   9.260   8.057   2.700 -1.4505  1.0076 -0.6474
   73MOL0     H 9826   9.355   7.942   2.599  3.2135  1.9143 -0.8678
   73MOL0     H 9827   9.219   8.040   2.396  1.0328  0.5586  0.3820
   73MOL0     H 9828   9.142   7.939   2.518  0.6836 -0.7423  1.1336
   73MOL0     H 9829   9.126   8.236   2.499  3.1929 -1.0800 -0.5944
   73MOL0     H 9830   9.073   8.153   2.642 -0.7683  0.2494 -0.4446
   73MOL0     H 9831   8.983   8.106   2.358 -1.5829 -1.8800 -0.9821
   73MOL0     H 9832   8.913   8.003   2.483  1.3950 -0.4325  0.7521
   73MOL0     H 9833   8.741   8.165   2.444  0.5880 -1.2790  0.4042
   73MOL0     H 9834   8.850   8.296   2.416  1.4071 -0.6017 -0.9279
   73MOL0     H 9835   8.900   8.324   2.636 -0.4010  0.6440  0.6811
   73MOL0     H 9836   8.825   8.176   2.705 -2.2666  0.9768  1.6212
   73MOL0     H 9837   9.451   8.034   2.983 -2.2604 -0.0160 -1.9134
   73MOL0     H 9838   9.453   8.209   3.171 -0.9373 -2.7687 -0.9390
   73MOL0     H 9839   9.618   8.455   3.428  2.1746  0.4164 -1.5551
   73MOL0     H 9840   9.659   8.577   3.632  0.8352 -0.3328 -0.7046
   73MOL0     H 9841   8.082   9.423   3.776 -2.7478 -0.0362  0.2318
   73MOL0     H 9842   7.944   9.373   3.559  0.4594  0.3251 -0.1384
   73MOL0     H 9843   7.708   9.187   3.324  1.0774 -2.1474  0.5150
   73MOL0     H 9844   7.587   9.278   3.130 -1.0961  0.1847 -2.0869
   73MOL0     H 9845   7.839   9.382   2.789  0.4023  0.3757 -0.5888
   73MOL0     H 9846   7.744   9.263   2.703 -2.8867  1.1624 -1.0647
   73MOL0     H 9847   7.536   9.447   2.727  0.3029  1.5491 -1.8948
   73MOL0     H 9848   7.682   9.492   2.623  0.4152  2.8382 -0.0554
   73MOL0     H 9849   7.777   9.605   2.809 -0.1650 -0.8302 -4.7022
   73MOL0     H 9850   7.633   9.564   2.912  0.8966 -3.8571 -0.5879
   73MOL0     H 9851   7.496   9.721   2.796  1.7347  1.6703  2.8966
   73MOL0     H 9852   7.595   9.723   2.651  0.3832 -0.8285 -0.3307
   73MOL0     H 9853   7.743  10.034   2.897  0.3152  0.0208 -1.4588
   73MOL0     H 9854   7.935   9.186   2.883  0.2850 -0.1733  0.9934
   73MOL0     H 9855   8.056   9.117   3.078  0.8732  3.2894  2.0112
   74MOL0     O 9856   3.849   5.922  10.620  0.2948 -0.6721  0.0273
   74MOL0     C 9857   3.727   5.905  10.616 -0.8517  0.8358 -0.2702
   74MOL0     O 9858   3.632   5.985  10.553 -0.0414  0.8012 -0.8839
   74MOL0     C 9859   3.677   6.093  10.479  0.5594 -0.1541  0.6842
   74MOL0     C 9860   3.778   6.081  10.381 -0.3894  0.7342 -0.9013
   74MOL0     C 9861   3.821   6.191  10.313 -0.1738 -1.1289 -0.2544
   74MOL0     C 9862   3.749   6.311  10.320 -0.7212 -0.1404  0.7233
   74MOL0     O 9863   3.788   6.412  10.232 -0.0783  0.1770 -0.1167
   74MOL0     C 9864   3.704   6.516  10.181 -0.2002 -0.2127 -0.0866
   74MOL0     C 9865   3.596   6.484  10.075  0.2230 -0.1757 -0.4806
   74MOL0     C 9866   3.538   6.606   9.995 -0.1232  0.7734 -1.1149
   74MOL0     C 9867   3.477   6.695  10.114  0.6316  0.7299 -0.8170
   74MOL0     C 9868   3.401   6.816  10.064  0.1345 -0.6696  0.7421
   74MOL0     C 9869   3.269   6.775   9.994  0.8825  0.0918  0.4237
   74MOL0     C 9870   3.168   6.893   9.993 -0.3218  0.4636 -0.2771
   74MOL0     C 9871   3.082   6.894  10.130 -0.3070 -0.4194  0.2594
   74MOL0     N 9872   2.947   6.839  10.096 -0.4565  0.5511 -0.2387
   74MOL0     C 9873   2.919   6.710  10.061  0.0116 -0.4612  0.3321
   74MOL0     C 9874   2.786   6.705  10.055 -0.0232 -1.2049  0.3935
   74MOL0     C 9875   2.706   6.586  10.014 -0.2070 -0.8797  0.6193
   74MOL0     C 9876   2.744   6.526   9.882  0.8122 -0.3670 -0.4679
   74MOL0     C 9877   2.648   6.412   9.828  0.6769  0.7289  0.8655
   74MOL0     C 9878   2.501   6.455   9.824  0.1117 -0.6833  0.3249
   74MOL0     O 9879   2.452   6.366   9.719  0.1341 -0.3986  0.3785
   74MOL0     C 9880   2.415   6.415   9.591  0.6324 -0.5014 -0.1577
   74MOL0     C 9881   2.281   6.402   9.557  0.1759 -0.1819  0.3796
   74MOL0     C 9882   2.227   6.451   9.437 -0.0351  0.2539  0.1829
   74MOL0     C 9883   2.092   6.423   9.405  0.1381 -0.7547 -0.3741
   74MOL0     C 9884   2.301   6.535   9.351 -0.3953  0.1619 -0.1955
   74MOL0     C 9885   2.259   6.598   9.223  0.4851  0.3656  0.4097
   74MOL0     O 9886   2.360   6.663   9.155 -0.0634  0.0716 -0.7536
   74MOL0     C 9887   2.328   6.720   9.041  0.0133 -0.3824  0.4562
   74MOL0     C 9888   2.313   6.651   8.925 -0.1250  0.7709 -0.1439
   74MOL0     C 9889   2.290   6.701   8.799 -0.4554  0.2270 -0.5647
   74MOL0     C 9890   2.287   6.841   8.782  0.7165  0.5866 -0.8104
   74MOL0     O 9891   2.281   6.888   8.652 -0.0016 -0.3669  0.2222
   74MOL0     C 9892   2.153   6.869   8.598  0.5106  0.3281  0.9410
   74MOL0     C 9893   2.159   6.872   8.444  0.6888  0.4826  0.1627
   74MOL0     C 9894   2.191   7.005   8.375  0.4450  0.3639  0.4175
   74MOL0     C 9895   2.284   6.975   8.251 -0.0805 -1.1660  0.6741
   74MOL0     C 9896   2.327   7.109   8.199 -0.7804  0.0369 -0.2321
   74MOL0     C 9897   2.228   7.201   8.129  1.2262  0.0824  0.0154
   74MOL0     C 9898   2.285   7.323   8.062 -0.5845  0.2631 -0.1081
   74MOL0     C 9899   2.305   7.324   7.912  0.5090 -0.7999  0.5598
   74MOL0    Cl 9900   2.444   7.215   7.877 -0.5138  0.3717 -0.2566
   74MOL0     C 9901   2.290   6.921   8.904 -0.1487 -0.5006  0.4790
   74MOL0     C 9902   2.304   6.860   9.028  0.0534  0.0084  0.9319
   74MOL0     O 9903   2.147   6.576   9.181  0.3153 -0.6933 -0.0269
   74MOL0     C 9904   2.434   6.541   9.394  0.0137  0.1619  0.1619
   74MOL0     C 9905   2.491   6.496   9.515 -0.6069 -0.8975 -0.2029
   74MOL0     N 9906   2.731   6.835  10.075  0.3010  0.5924  0.7938
   74MOL0     N 9907   2.837   6.911  10.095 -0.3350  0.4707  0.1546
   74MOL0     C 9908   3.654   6.322  10.415  0.3729 -0.3521  0.8813
   74MOL0     C 9909   3.611   6.219  10.505 -0.3302  0.5191  0.2146
   74MOL0     C 9910   3.682   5.776  10.678 -0.0085 -0.4709  0.5092
   74MOL0     C 9911   3.554   5.768  10.728  1.2582 -0.8040  0.0527
   74MOL0     C 9912   3.503   5.661  10.802  0.4123 -0.2918  0.1397
   74MOL0     C 9913   3.586   5.540  10.813  0.2018  0.8826 -0.1026
   74MOL0     O 9914   3.560   5.421  10.882  0.5102 -0.8748 -0.0124
   74MOL0     C 9915   3.431   5.414  10.948  0.3435 -0.4185  0.1361
   74MOL0     C 9916   3.407   5.277  10.989  0.2528 -0.4287  0.6914
   74MOL0     C 9917   3.514   5.228  11.097  0.5363  0.0448 -0.4114
   74MOL0     C 9918   3.524   5.321  11.217 -0.1422  0.3953  1.1133
   74MOL0     C 9919   3.398   5.361  11.267  0.7210  0.0399  0.9107
   74MOL0     C 9920   3.291   5.384  11.324 -0.0381  0.7647 -0.9875
   74MOL0     C 9921   3.717   5.544  10.763  0.4234  0.0944 -0.7689
   74MOL0     C 9922   3.760   5.662  10.688 -0.6224 -0.1017 -1.5836
   74MOL0     H 9923   3.811   5.981  10.355 -1.8291 -0.2589  0.8884
   74MOL0     H 9924   3.895   6.172  10.237  0.7472 -0.7948  0.5412
   74MOL0     H 9925   3.656   6.567  10.265 -1.7020 -2.2821  0.3984
   74MOL0     H 9926   3.771   6.591  10.137  0.1899  0.5300  1.6626
   74MOL0     H 9927   3.641   6.416  10.002 -3.1100 -3.4207  0.1909
   74MOL0     H 9928   3.511   6.426  10.113 -1.3791  2.7691  0.7523
   74MOL0     H 9929   3.613   6.641   9.925  1.8583  1.5391  1.2448
   74MOL0     H 9930   3.455   6.560   9.941 -2.1792 -2.5506  4.0714
   74MOL0     H 9931   3.428   6.629  10.186  0.5772  1.0059 -0.6014
   74MOL0     H 9932   3.563   6.734  10.168 -0.7030 -0.0374  2.0865
   74MOL0     H 9933   3.390   6.879  10.153 -0.9528 -1.3125  1.0876
   74MOL0     H 9934   3.453   6.881   9.993 -2.5806  3.8619  2.4586
   74MOL0     H 9935   3.293   6.731   9.896  0.4106 -2.3829  1.3493
   74MOL0     H 9936   3.223   6.691  10.046  0.6429 -1.4133 -2.0526
   74MOL0     H 9937   3.222   6.986   9.975  2.7033 -1.6301 -3.0518
   74MOL0     H 9938   3.098   6.880   9.909  0.0804 -0.8759 -0.4256
   74MOL0     H 9939   3.073   6.994  10.173  0.4280 -0.4479  0.4940
   74MOL0     H 9940   3.122   6.833  10.212 -1.4640 -2.5764 -0.7168
   74MOL0     H 9941   2.983   6.632  10.023  0.7291  0.2574  0.0354
   74MOL0     H 9942   2.720   6.509  10.090 -1.4290 -0.9744  0.7729
   74MOL0     H 9943   2.600   6.610  10.026  0.4636  1.8035  2.0214
   74MOL0     H 9944   2.848   6.491   9.883  0.9500 -0.2283 -2.9088
   74MOL0     H 9945   2.737   6.601   9.803  0.3088 -0.1689 -0.2402
   74MOL0     H 9946   2.658   6.320   9.886  3.4604  1.9063  2.4308
   74MOL0     H 9947   2.688   6.393   9.728 -0.2210  2.1827  0.1962
   74MOL0     H 9948   2.488   6.562   9.805  0.0187 -0.1924  2.8286
   74MOL0     H 9949   2.455   6.425   9.919  0.7371 -0.4392  0.7083
   74MOL0     H 9950   2.220   6.343   9.625 -2.6859  3.3154  1.1305
   74MOL0     H 9951   2.039   6.377   9.489 -0.8781  0.6935 -0.1883
   74MOL0     H 9952   2.025   6.509   9.401  2.1078  0.8342 -0.6117
   74MOL0     H 9953   2.084   6.351   9.323  2.7064 -1.6963  0.0887
   74MOL0     H 9954   2.306   6.544   8.939  3.2526  0.6208  1.2390
   74MOL0     H 9955   2.300   6.651   8.703  0.0133  2.4713 -1.7545
   74MOL0     H 9956   2.108   6.773   8.625  2.0920 -0.8687 -0.4500
   74MOL0     H 9957   2.078   6.940   8.634  0.7873 -0.8746  4.1702
   74MOL0     H 9958   2.234   6.800   8.409 -1.0138  0.3453 -3.7714
   74MOL0     H 9959   2.066   6.834   8.400  0.5072  0.7550  0.3065
   74MOL0     H 9960   2.229   7.078   8.447 -0.2717 -0.4638  1.6754
   74MOL0     H 9961   2.095   7.046   8.341  0.3006  0.3686  0.8267
   74MOL0     H 9962   2.376   6.930   8.291 -0.2980 -0.2529  2.3178
   74MOL0     H 9963   2.231   6.897   8.196 -2.2880 -1.1627  2.6067
   74MOL0     H 9964   2.403   7.099   8.121 -0.0170 -0.4001  0.5589
   74MOL0     H 9965   2.377   7.162   8.280  0.2313  1.8809 -1.9379
   74MOL0     H 9966   2.158   7.145   8.066 -0.3181  1.5084  0.3745
   74MOL0     H 9967   2.163   7.239   8.209 -1.6360 -4.0144 -0.0161
   74MOL0     H 9968   2.382   7.343   8.110 -1.0472 -1.9221  1.9017
   74MOL0     H 9969   2.218   7.409   8.079 -0.1679  0.9331 -1.6986
   74MOL0     H 9970   2.328   7.424   7.874  0.5614 -0.3522  1.7233
   74MOL0     H 9971   2.216   7.277   7.869 -1.9283  1.2058  3.0506
   74MOL0     H 9972   2.289   7.030   8.904 -0.8952 -0.4907 -0.1762
   74MOL0     H 9973   2.314   6.908   9.125  1.7505 -1.5065  1.5694
   74MOL0     H 9974   2.515   6.588   9.340  0.5832  0.0183  0.8783
   74MOL0     H 9975   2.594   6.524   9.535 -1.4902  1.3023  1.7793
   74MOL0     H 9976   3.606   6.419  10.428  0.3830  0.2672 -2.6500
   74MOL0     H 9977   3.540   6.229  10.587 -1.0205  1.3345 -0.4632
   74MOL0     H 9978   3.493   5.857  10.718  0.4511 -1.5183 -1.8112
   74MOL0     H 9979   3.404   5.670  10.846  0.7689  5.6009  0.5522
   74MOL0     H 9980   3.435   5.487  11.029 -2.4873 -0.5296  0.4842
   74MOL0     H 9981   3.344   5.440  10.887 -0.2635 -2.1321  0.2105
   74MOL0     H 9982   3.423   5.214  10.901  2.3996 -1.5391  1.7980
   74MOL0     H 9983   3.304   5.262  11.023 -1.0869 -0.2901 -2.8515
   74MOL0     H 9984   3.616   5.220  11.060 -0.2051 -2.9028 -2.1417
   74MOL0     H 9985   3.483   5.130  11.134 -2.5375  1.1587  0.3291
   74MOL0     H 9986   3.591   5.401  11.183 -0.0496 -0.4693 -0.8358
   74MOL0     H 9987   3.577   5.268  11.297  0.1286  1.3604  1.5908
   74MOL0     H 9988   3.196   5.397  11.373 -1.3695 -2.6952 -2.3851
   74MOL0     H 9989   3.791   5.465  10.775  0.6918  0.5817  1.2482
   74MOL0     H 9990   3.863   5.652  10.656 -1.4974 -2.6857 -4.0602
   75MOL0     O 9991   2.568  10.107   0.139  0.2518  0.5295 -0.1684
   75MOL0     C 9992   2.607  10.218   0.108  0.5722 -0.7288 -0.3454
   75MOL0     O 9993   2.525  10.316   0.071  0.1659  0.0281 -0.0795
   75MOL0     C 9994   2.401  10.298   0.034 -1.1098  0.2989  0.2413
   75MOL0     C 9995   2.296  10.339   0.117  0.2809 -0.3070 -1.0070
   75MOL0     C 9996   2.168  10.339   0.069  0.9131  0.1677  0.1509
   75MOL0     C 9997   2.134  10.295  -0.060 -1.0445 -0.8297  0.7073
   75MOL0     O 9998   2.014  10.297  -0.118  0.1705  0.2730 -1.0272
   75MOL0     C 9999   1.922  10.393  -0.072  0.1979  0.4687 -0.0065
   75MOL0     C10000   1.801  10.386  -0.169  0.2796  0.7033 -0.3651
   75MOL0     C10001   1.666  10.372  -0.094 -0.5641 -0.7549  0.0400
   75MOL0     C10002   1.546  10.387  -0.185 -0.7144  0.0611  0.3548
   75MOL0     C10003   1.420  10.408  -0.108  0.3624 -0.2478 -0.3853
   75MOL0     C10004   1.304  10.352  -0.175  1.1521  0.6565  0.4130
   75MOL0     C10005   1.184  10.340  -0.065  0.3606  0.1070  0.7111
   75MOL0     C10006   1.054  10.335  -0.146 -0.3976 -1.0910  1.0852
   75MOL0     N10007   0.941  10.318  -0.051 -0.3687 -0.2528  0.1747
   75MOL0     C10008   0.944  10.206   0.037  0.9476 -0.1344  0.0826
   75MOL0     C10009   0.830  10.231   0.110 -0.6574  0.5284  0.0062
   75MOL0     C10010   0.798  10.139   0.224  0.2589 -0.8070  0.4235
   75MOL0     C10011   0.706  10.030   0.181  0.2745 -0.8770  0.6208
   75MOL0     C10012   0.704   9.894   0.254 -0.7443  0.8071 -0.9378
   75MOL0     C10013   0.691   9.910   0.409  0.6857 -0.2778  0.1661
   75MOL0     O10014   0.562   9.954   0.445  0.3710 -0.3440 -0.6991
   75MOL0     C10015   0.543  10.006   0.574  0.6830  0.4756  0.0284
   75MOL0     C10016   0.609   9.954   0.689 -0.6472  0.2054 -0.1110
   75MOL0     C10017   0.575  10.003   0.815 -0.2190  0.8930  0.8676
   75MOL0     C10018   0.649   9.937   0.921  0.3440  0.0862 -0.5441
   75MOL0     C10019   0.472  10.098   0.828  0.2498 -1.2507 -0.8110
   75MOL0     C10020   0.424  10.145   0.964  0.5237 -0.0349 -0.2214
   75MOL0     O10021   0.453  10.069   1.061  0.0150  0.8969 -0.2290
   75MOL0     C10022   0.446  10.096   1.193 -0.1824 -1.0327 -0.4685
   75MOL0     C10023   0.476   9.993   1.281  0.5289 -0.3214  0.6682
   75MOL0     C10024   0.491  10.015   1.424  0.3643  0.2782 -0.3485
   75MOL0     C10025   0.468  10.144   1.474 -0.4691  0.3663  0.4464
   75MOL0     O10026   0.444  10.171   1.613 -0.4466 -0.3583  1.2520
   75MOL0     C10027   0.455  10.058   1.700 -0.1280  0.1622 -0.1888
   75MOL0     C10028   0.471  10.101   1.843 -0.0387 -0.1124 -0.2512
   75MOL0     C10029   0.352  10.173   1.891 -0.6229  0.4498 -0.9042
   75MOL0     C10030   0.366  10.205   2.043  0.2570 -0.2095 -0.0619
   75MOL0     C10031   0.241  10.281   2.093  0.7845 -0.0425  0.6047
   75MOL0     C10032   0.237  10.285   2.251 -0.4358  0.5304 -0.2919
   75MOL0     C10033   0.324  10.400   2.299  0.0962 -1.2791 -0.3138
   75MOL0     C10034   0.315  10.441   2.445 -0.6737  0.7200 -0.3249
   75MOL0    Cl10035   0.154  10.462   2.501 -0.0086 -0.1912 -0.2115
   75MOL0     C10036   0.426  10.243   1.390 -0.1925 -0.1042  1.1497
   75MOL0     C10037   0.410  10.218   1.251  0.4596  0.0741 -0.3752
   75MOL0     O10038   0.350  10.242   0.969  0.5534  0.9154  0.3168
   75MOL0     C10039   0.404  10.145   0.716 -0.3308 -0.2676 -0.0630
   75MOL0     C10040   0.442  10.095   0.587  0.0358 -0.3773  0.3971
   75MOL0     N10041   0.764  10.343   0.057 -0.4972 -0.5329 -0.8510
   75MOL0     N10042   0.831  10.395  -0.040 -0.1202  0.0606  1.2287
   75MOL0     C10043   2.245  10.259  -0.143 -0.0692  0.5350  0.5404
   75MOL0     C10044   2.373  10.265  -0.100 -0.1089 -0.1727  0.4194
   75MOL0     C10045   2.741  10.253   0.129 -0.4026 -0.0237 -0.3269
   75MOL0     C10046   2.801  10.388   0.124  0.7688  0.3808  0.4054
   75MOL0     C10047   2.941  10.408   0.150 -0.0504  0.0185 -0.4786
   75MOL0     C10048   3.021  10.290   0.182  0.4495  0.2829 -0.4043
   75MOL0     O10049   3.146  10.295   0.214  0.1487 -0.4770  0.7736
   75MOL0     C10050   3.223  10.389   0.142 -0.0640  0.1752  0.1073
   75MOL0     C10051   3.271  10.338   0.006  0.2917  0.2542  0.2161
   75MOL0     C10052   3.392  10.242   0.004  0.7239  0.5202  0.1040
   75MOL0     C10053   3.411  10.178  -0.131  0.3618  1.3206  1.0541
   75MOL0     C10054   3.472  10.271  -0.231  0.0412  0.6469 -0.6086
   75MOL0     C10055   3.511  10.361  -0.292  0.5628 -0.7599 -0.7621
   75MOL0     C10056   2.963  10.165   0.191 -1.2559  0.4271  0.2531
   75MOL0     C10057   2.829  10.152   0.182 -0.0187 -0.4140  0.3513
   75MOL0     H10058   2.332  10.366   0.216  2.0372 -3.5476 -0.6297
   75MOL0     H10059   2.095  10.385   0.135  1.6614  0.9389  0.4471
   75MOL0     H10060   1.886  10.365   0.028 -1.4682 -1.8282 -1.1687
   75MOL0     H10061   1.970  10.491  -0.075  0.6339  0.3309  1.3431
   75MOL0     H10062   1.793  10.479  -0.228  0.6724  1.1446  0.2672
   75MOL0     H10063   1.813  10.306  -0.242 -1.2199  1.9118 -2.0633
   75MOL0     H10064   1.669  10.273  -0.047  1.0292 -0.6834  0.1408
   75MOL0     H10065   1.654  10.456  -0.025 -2.7634  1.6071 -2.9178
   75MOL0     H10066   1.558  10.476  -0.248  0.4105 -0.5324 -0.2856
   75MOL0     H10067   1.539  10.287  -0.229  0.1503 -0.2985  1.0116
   75MOL0     H10068   1.439  10.355  -0.014  1.0289 -0.2587 -0.5159
   75MOL0     H10069   1.392  10.512  -0.091 -1.6824 -0.8770  0.3884
   75MOL0     H10070   1.272  10.425  -0.250  0.2989  1.2670  1.3433
   75MOL0     H10071   1.313  10.254  -0.222 -1.5520  0.8223 -0.6032
   75MOL0     H10072   1.208  10.252  -0.006 -2.2931  1.3537  3.9480
   75MOL0     H10073   1.182  10.424   0.006  1.3960 -1.9820  3.4031
   75MOL0     H10074   1.049  10.255  -0.220 -2.2118 -2.0169  2.1225
   75MOL0     H10075   1.058  10.433  -0.193  0.0547 -1.0888  1.1240
   75MOL0     H10076   1.025  10.136   0.055  1.9166  0.9521  0.0689
   75MOL0     H10077   0.886  10.085   0.260  1.1918 -1.0469 -2.0396
   75MOL0     H10078   0.752  10.186   0.312  2.9867  0.1302  1.4464
   75MOL0     H10079   0.712  10.016   0.073  0.7197  3.1574 -0.0603
   75MOL0     H10080   0.604  10.069   0.186  0.9530  0.8047  3.2175
   75MOL0     H10081   0.803   9.848   0.242 -1.4469 -1.4937  1.2426
   75MOL0     H10082   0.636   9.822   0.207  1.0233  0.4007 -3.0496
   75MOL0     H10083   0.769   9.979   0.442 -0.3865  0.2609  1.7015
   75MOL0     H10084   0.699   9.823   0.475 -1.0992 -0.4534  0.2060
   75MOL0     H10085   0.687   9.880   0.672 -0.7350 -0.0250  0.4504
   75MOL0     H10086   0.715   9.855   0.890  0.0657 -1.9439  3.5388
   75MOL0     H10087   0.701  10.007   0.987 -1.1377  1.6388 -0.9453
   75MOL0     H10088   0.579   9.883   0.985  3.6204 -0.3008  3.0612
   75MOL0     H10089   0.502   9.898   1.235  0.6673  0.0059  0.0477
   75MOL0     H10090   0.515   9.937   1.495 -2.6078  0.9992  1.6351
   75MOL0     H10091   0.372   9.991   1.675  0.9290 -0.7134 -1.5464
   75MOL0     H10092   0.546   9.999   1.686 -1.1076 -1.6472  0.7650
   75MOL0     H10093   0.472  10.002   1.891  0.7340  1.2478  2.8120
   75MOL0     H10094   0.562  10.155   1.868  0.1238  0.8404 -2.6799
   75MOL0     H10095   0.264  10.115   1.863 -0.8797 -1.4183  3.1106
   75MOL0     H10096   0.360  10.269   1.838  2.4183 -1.3251 -4.0375
   75MOL0     H10097   0.388  10.114   2.098  1.2384 -0.1277 -0.3002
   75MOL0     H10098   0.447  10.277   2.060  1.5869 -2.2935  3.2498
   75MOL0     H10099   0.152  10.234   2.051  0.4827  1.1488 -0.1533
   75MOL0     H10100   0.220  10.380   2.052  0.4084 -0.0359  0.8112
   75MOL0     H10101   0.131  10.291   2.280 -0.7345 -0.3968 -1.1366
   75MOL0     H10102   0.278  10.193   2.295 -2.6144 -0.5911 -0.4175
   75MOL0     H10103   0.311  10.490   2.238  1.1276 -1.9787 -1.6129
   75MOL0     H10104   0.428  10.367   2.297 -0.4745 -3.4464  1.5520
   75MOL0     H10105   0.361  10.538   2.463  1.9532 -0.8183  1.8346
   75MOL0     H10106   0.369  10.370   2.508 -0.7891  0.3134 -0.6770
   75MOL0     H10107   0.401  10.342   1.427  0.5374  0.6935 -0.4014
   75MOL0     H10108   0.370  10.299   1.191 -1.2148 -0.1708  0.3642
   75MOL0     H10109   0.320  10.211   0.733 -0.6516 -1.3082  2.9436
   75MOL0     H10110   0.384  10.127   0.501  2.2622 -3.7240 -2.6533
   75MOL0     H10111   2.224  10.222  -0.243  0.5082  3.3720 -0.7344
   75MOL0     H10112   2.458  10.245  -0.165  0.5642 -0.4868  1.3695
   75MOL0     H10113   2.746  10.474   0.087 -0.4841  0.7937  2.9998
   75MOL0     H10114   2.966  10.513   0.142  0.5328 -0.0953 -0.2021
   75MOL0     H10115   3.167  10.481   0.121  0.4053  0.5884  0.6354
   75MOL0     H10116   3.296  10.426   0.215 -0.5225  2.5368 -0.5292
   75MOL0     H10117   3.297  10.428  -0.050  1.4352  0.1471  0.5359
   75MOL0     H10118   3.185  10.291  -0.042 -1.1320 -0.3503  3.0939
   75MOL0     H10119   3.382  10.159   0.075  1.9415  0.4406  0.2140
   75MOL0     H10120   3.487  10.291   0.031  2.5346 -2.4035 -0.5361
   75MOL0     H10121   3.314  10.160  -0.179  0.9287  3.5506 -1.1622
   75MOL0     H10122   3.473  10.092  -0.105  0.5419  0.7491 -1.1103
   75MOL0     H10123   3.543  10.446  -0.349 -0.6010 -1.0267 -1.8521
   75MOL0     H10124   3.031  10.089   0.227 -1.2665 -1.1761 -2.7729
   75MOL0     H10125   2.794  10.049   0.190 -0.5392 -0.5174 -2.1985
   76MOL0     O10126   9.867   6.183   0.227  0.0997  0.7961  0.7801
   76MOL0     C10127   9.884   6.290   0.169 -1.1873 -0.1531  0.0459
   76MOL0     O10128   9.988   6.384   0.193 -0.3963 -0.0099 -0.3684
   76MOL0     C10129  10.069   6.364   0.299  0.9752 -0.8481 -0.0626
   76MOL0     C10130  10.027   6.407   0.425  0.3973  1.1333  0.2000
   76MOL0     C10131  10.102   6.361   0.536 -0.2064  0.5846  0.2888
   76MOL0     C10132  10.221   6.278   0.515 -0.5154 -0.4633 -0.3859
   76MOL0     O10133  10.310   6.233   0.614  0.1596  0.2791  0.0818
   76MOL0     C10134  10.265   6.229   0.753  1.4454  0.4852  0.0109
   76MOL0     C10135  10.204   6.094   0.789  0.6140  0.1366  0.1186
   76MOL0     C10136  10.186   6.081   0.940  0.1799 -0.5206  0.5400
   76MOL0     C10137  10.060   6.154   0.990 -0.2429 -0.2636 -0.2577
   76MOL0     C10138  10.030   6.107   1.126 -0.0662 -0.4587  1.6701
   76MOL0     C10139   9.901   6.036   1.137  0.5823  0.4902  0.3951
   76MOL0     C10140   9.896   5.902   1.056  0.2004  0.0368  1.0744
   76MOL0     C10141   9.757   5.861   0.996  0.6617  0.6578 -0.3229
   76MOL0     N10142   9.655   5.819   1.097 -0.0803  0.0160 -0.0879
   76MOL0     C10143   9.642   5.706   1.172  0.2855 -0.7985 -1.1207
   76MOL0     C10144   9.534   5.728   1.256  0.2289 -0.4110  0.1681
   76MOL0     C10145   9.482   5.629   1.350 -0.7451 -0.4655 -0.0894
   76MOL0     C10146   9.536   5.653   1.493  0.8025  0.1854 -0.7355
   76MOL0     C10147   9.488   5.555   1.600  0.0216 -0.7142  0.4396
   76MOL0     C10148   9.385   5.623   1.681  0.4006 -0.0582 -1.1856
   76MOL0     O10149   9.324   5.541   1.779 -0.1006 -0.1557 -0.2024
   76MOL0     C10150   9.219   5.458   1.749 -0.4417  0.6982  0.6625
   76MOL0     C10151   9.088   5.500   1.785  1.3179 -0.1245  0.3789
   76MOL0     C10152   8.977   5.411   1.759  0.5698 -0.0353  0.3189
   76MOL0     C10153   8.852   5.438   1.827  0.6848  0.0317 -0.0944
   76MOL0     C10154   8.997   5.278   1.711 -0.2320  0.2633 -0.4842
   76MOL0     C10155   8.895   5.170   1.713  0.3983  0.2832  0.0727
   76MOL0     O10156   8.759   5.194   1.717 -0.7573 -0.0052  0.1409
   76MOL0     C10157   8.684   5.082   1.694  0.4723 -0.7898  0.2740
   76MOL0     C10158   8.640   5.036   1.566 -0.0464 -0.5020  0.1850
   76MOL0     C10159   8.549   4.933   1.563 -0.4137 -0.1729 -1.0279
   76MOL0     C10160   8.502   4.868   1.675 -0.5422 -0.0990 -0.9660
   76MOL0     O10161   8.406   4.773   1.676 -0.3494 -0.9252  0.2283
   76MOL0     C10162   8.370   4.685   1.570 -1.1862  0.7534  0.1788
   76MOL0     C10163   8.337   4.550   1.608  0.4041 -0.3661  0.5884
   76MOL0     C10164   8.465   4.474   1.627 -0.0791  0.0799 -0.2333
   76MOL0     C10165   8.451   4.343   1.717 -0.2186 -1.4342  1.1761
   76MOL0     C10166   8.567   4.246   1.692 -0.9459  0.6176 -0.7422
   76MOL0     C10167   8.553   4.130   1.791 -0.4821 -0.1268 -0.4398
   76MOL0     C10168   8.680   4.040   1.801  0.6345  0.0335 -0.4082
   76MOL0     C10169   8.652   3.916   1.886 -0.4974 -0.8745  0.5116
   76MOL0    Cl10170   8.554   3.937   2.038  0.1016  0.1206 -0.2258
   76MOL0     C10171   8.550   4.914   1.805 -0.6685 -0.9033  1.1703
   76MOL0     C10172   8.643   5.018   1.806  0.4927  0.0890 -0.5237
   76MOL0     O10173   8.944   5.056   1.699 -0.1327 -0.3229  0.2877
   76MOL0     C10174   9.125   5.239   1.677 -0.4663  0.4887  0.5111
   76MOL0     C10175   9.235   5.335   1.684 -0.1672 -0.7926  1.5729
   76MOL0     N10176   9.474   5.848   1.224  0.2994 -0.4074  0.3764
   76MOL0     N10177   9.554   5.907   1.143 -0.1942 -0.1252 -0.3845
   76MOL0     C10178  10.269   6.259   0.390  0.3467 -0.3800 -0.6798
   76MOL0     C10179  10.184   6.297   0.278 -0.0709  0.2161 -0.5072
   76MOL0     C10180   9.794   6.332   0.056 -1.2602 -0.2006  0.2587
   76MOL0     C10181   9.689   6.252   0.021 -0.5191  0.2428  0.3238
   76MOL0     C10182   9.613   6.287  -0.090 -0.9141 -0.0147 -0.4057
   76MOL0     C10183   9.647   6.399  -0.166  0.4401  0.0170 -0.0093
   76MOL0     O10184   9.565   6.429  -0.274 -0.0847  0.3698 -0.6667
   76MOL0     C10185   9.644   6.443  -0.397  0.3004 -0.4955 -0.6899
   76MOL0     C10186   9.548   6.476  -0.509 -0.2064 -0.2681  0.4636
   76MOL0     C10187   9.469   6.606  -0.487 -0.4168 -0.5542  0.3061
   76MOL0     C10188   9.403   6.643  -0.615  0.2727 -0.8095 -0.5027
   76MOL0     C10189   9.298   6.548  -0.638  0.0331  1.2532 -0.2001
   76MOL0     C10190   9.198   6.478  -0.642 -0.4227  0.4632 -0.2917
   76MOL0     C10191   9.751   6.483  -0.123  0.2686  0.2516 -0.5749
   76MOL0     C10192   9.820   6.448  -0.013  0.1505 -0.0214  0.6169
   76MOL0     H10193   9.938   6.467   0.441 -1.5757 -0.8180 -2.4272
   76MOL0     H10194  10.067   6.366   0.638 -3.4581 -2.2541 -0.5186
   76MOL0     H10195  10.356   6.247   0.811  1.6125  1.5244 -0.5452
   76MOL0     H10196  10.189   6.297   0.793 -0.9633 -3.1605  2.2743
   76MOL0     H10197  10.112   6.080   0.732  2.4217 -4.9040 -2.1489
   76MOL0     H10198  10.260   6.009   0.750 -1.2018 -0.9045 -0.3224
   76MOL0     H10199  10.191   5.976   0.973 -1.9080 -0.1457  2.2744
   76MOL0     H10200  10.278   6.124   0.982  1.6093  2.7795 -5.0642
   76MOL0     H10201  10.081   6.261   0.995 -0.1513 -0.2484 -0.8896
   76MOL0     H10202   9.975   6.139   0.924 -1.3686 -0.0862  1.0968
   76MOL0     H10203  10.114   6.069   1.184  1.4133 -0.6263 -0.4755
   76MOL0     H10204  10.015   6.199   1.184  2.9420  1.2000  0.0859
   76MOL0     H10205   9.878   6.009   1.240 -3.2983 -1.5682 -0.7984
   76MOL0     H10206   9.817   6.096   1.100  0.8133 -0.5280 -1.9861
   76MOL0     H10207   9.964   5.915   0.971 -1.3270 -0.7410 -0.3352
   76MOL0     H10208   9.913   5.822   1.128 -3.4120 -1.7335  0.1884
   76MOL0     H10209   9.770   5.776   0.928  1.7773  0.3827  0.1973
   76MOL0     H10210   9.720   5.946   0.939  1.2846 -0.3422 -2.3054
   76MOL0     H10211   9.699   5.614   1.163 -0.2212 -1.2408  0.0205
   76MOL0     H10212   9.372   5.627   1.348 -0.8067 -0.7069  1.5490
   76MOL0     H10213   9.522   5.530   1.327  1.0306  0.7339 -2.6349
   76MOL0     H10214   9.534   5.755   1.531 -1.8256 -0.1225  0.1237
   76MOL0     H10215   9.640   5.624   1.472  1.0098  2.1868 -2.7967
   76MOL0     H10216   9.566   5.535   1.674 -0.8367 -2.5906  0.8920
   76MOL0     H10217   9.450   5.465   1.551  0.0129  1.0164 -2.9673
   76MOL0     H10218   9.299   5.661   1.626 -0.7703 -1.3641 -0.3339
   76MOL0     H10219   9.415   5.708   1.743  0.0618 -0.2743 -0.7162
   76MOL0     H10220   9.076   5.597   1.830 -1.3948  0.4361 -1.3081
   76MOL0     H10221   8.774   5.467   1.756 -2.4943 -0.1043  3.0872
   76MOL0     H10222   8.809   5.352   1.880 -1.9657  1.9971  1.1349
   76MOL0     H10223   8.864   5.525   1.891  4.2306  0.0668 -0.6166
   76MOL0     H10224   8.673   5.074   1.470  2.6421 -1.8210  0.4908
   76MOL0     H10225   8.504   4.892   1.473 -1.4107 -1.6147  0.0742
   76MOL0     H10226   8.290   4.731   1.512  0.6226  1.2170 -2.1167
   76MOL0     H10227   8.450   4.670   1.497 -0.8252 -0.4673  0.7950
   76MOL0     H10228   8.289   4.537   1.706 -0.0642  2.9278  0.9040
   76MOL0     H10229   8.266   4.520   1.531 -0.8307  0.6635  1.2723
   76MOL0     H10230   8.540   4.530   1.684 -1.0432  0.9644  0.2258
   76MOL0     H10231   8.503   4.453   1.527  2.0710  2.4366 -0.0191
   76MOL0     H10232   8.450   4.367   1.823  1.1129 -3.1925  1.6261
   76MOL0     H10233   8.349   4.307   1.697 -1.0415  0.9711  0.6083
   76MOL0     H10234   8.660   4.301   1.705  0.3603 -1.6352  0.0299
   76MOL0     H10235   8.568   4.194   1.596  1.6137  3.0164 -2.1537
   76MOL0     H10236   8.529   4.165   1.892 -0.9216 -0.1457 -0.5364
   76MOL0     H10237   8.469   4.066   1.762 -1.5515  0.5658  0.9999
   76MOL0     H10238   8.755   4.110   1.840  0.3845  0.8298 -1.3050
   76MOL0     H10239   8.722   4.016   1.703  2.5225  3.2050 -0.5141
   76MOL0     H10240   8.753   3.881   1.909  0.6921  0.3162 -2.4812
   76MOL0     H10241   8.599   3.845   1.822 -1.7985 -0.0036  0.5903
   76MOL0     H10242   8.535   4.872   1.904 -1.2500 -2.8934  0.2970
   76MOL0     H10243   8.677   5.041   1.907  0.3813 -2.7638  0.2634
   76MOL0     H10244   9.151   5.140   1.642 -2.0869 -0.8730  2.8840
   76MOL0     H10245   9.334   5.306   1.650 -1.9588 -4.0679 -1.5596
   76MOL0     H10246  10.360   6.202   0.373  3.5124  4.5083 -1.9030
   76MOL0     H10247  10.196   6.250   0.181  0.9629 -0.6479  0.0209
   76MOL0     H10248   9.665   6.161   0.075 -2.7240 -1.5837 -3.3020
   76MOL0     H10249   9.527   6.232  -0.127 -0.3322 -1.1767 -0.0720
   76MOL0     H10250   9.725   6.515  -0.386  0.1846 -0.3149 -0.9922
   76MOL0     H10251   9.683   6.344  -0.423 -1.7119 -1.6931  0.5634
   76MOL0     H10252   9.480   6.391  -0.520  0.9862 -1.3568  1.1270
   76MOL0     H10253   9.603   6.483  -0.603 -0.6122 -1.9678  0.0670
   76MOL0     H10254   9.543   6.685  -0.476 -1.1902  0.1335  0.6225
   76MOL0     H10255   9.403   6.599  -0.399  0.1210 -2.5184  0.6072
   76MOL0     H10256   9.479   6.659  -0.692  0.8747 -0.0009  0.2395
   76MOL0     H10257   9.357   6.742  -0.605  1.6933  0.0606 -2.1282
   76MOL0     H10258   9.110   6.418  -0.648 -0.6259  0.6672  0.5543
   76MOL0     H10259   9.777   6.574  -0.177 -0.1574  2.8936  3.2350
   76MOL0     H10260   9.901   6.514   0.015  0.7230 -0.3177 -0.3085
   77MOL0     O10261   8.806  11.392   2.672 -0.9188  0.0636 -0.0296
   77MOL0     C10262   8.871  11.337   2.586 -0.3207 -0.2771 -0.1407
   77MOL0     O10263   8.997  11.285   2.596 -0.2288  0.5295  0.0601
   77MOL0     C10264   9.061  11.289   2.725 -0.0672 -0.1978  0.2927
   77MOL0     C10265   9.025  11.195   2.827  0.1521 -0.3586  0.6155
   77MOL0     C10266   9.100  11.190   2.945  0.1976 -0.9967  0.7029
   77MOL0     C10267   9.214  11.262   2.962 -0.2036  0.0182  0.0061
   77MOL0     O10268   9.272  11.236   3.080  0.6543 -0.4097 -0.1080
   77MOL0     C10269   9.414  11.244   3.076  0.2516  0.5156 -0.5022
   77MOL0     C10270   9.468  11.186   3.208 -0.2125  0.1189 -0.1227
   77MOL0     C10271   9.620  11.187   3.207 -1.6934  0.8967 -0.3023
   77MOL0     C10272   9.687  11.166   3.344  0.6563  0.9470  0.0408
   77MOL0     C10273   9.842  11.141   3.344  0.1268 -0.6969  1.1617
   77MOL0     C10274   9.887  11.098   3.483  0.0195  0.1880  0.3528
   77MOL0     C10275  10.036  11.082   3.505 -0.3376  0.0410 -0.2879
   77MOL0     C10276  10.072  11.081   3.660 -0.0547  0.3593 -0.4914
   77MOL0     N10277  10.211  11.148   3.671  0.5321  0.2041  0.3072
   77MOL0     C10278  10.272  11.147   3.790 -0.3620  0.4318  0.7221
   77MOL0     C10279  10.365  11.239   3.770 -1.0108  0.2925  0.0782
   77MOL0     C10280  10.451  11.295   3.881  0.9773 -0.4623 -0.4167
   77MOL0     C10281  10.543  11.409   3.835  0.6143 -0.5647  0.4402
   77MOL0     C10282  10.675  11.364   3.772  0.4540  0.5155  0.0267
   77MOL0     C10283  10.738  11.476   3.694  0.2493 -0.1406  0.2132
   77MOL0     O10284  10.854  11.430   3.627  0.3310 -0.0002  0.2524
   77MOL0     C10285  10.857  11.405   3.494  0.2776 -0.3817  0.0229
   77MOL0     C10286  10.741  11.357   3.434 -0.2389  0.4800  0.9383
   77MOL0     C10287  10.737  11.316   3.300 -0.4985 -0.3129  0.4712
   77MOL0     C10288  10.600  11.260   3.258 -0.4057  0.6259  0.2419
   77MOL0     C10289  10.849  11.340   3.219 -0.0188 -1.1519 -0.1297
   77MOL0     C10290  10.871  11.284   3.086 -0.4410 -0.0835 -0.0826
   77MOL0     O10291  10.967  11.325   3.004 -0.0065  0.4471  0.0110
   77MOL0     C10292  10.980  11.277   2.874 -0.6007  0.1630  0.3564
   77MOL0     C10293  11.107  11.228   2.842 -0.0392  1.8436  0.5834
   77MOL0     C10294  11.136  11.173   2.714 -0.5948 -0.5345  0.4344
   77MOL0     C10295  11.042  11.185   2.617  0.0874 -0.0851  0.0377
   77MOL0     O10296  11.081  11.144   2.499  0.8082  0.0910  0.4734
   77MOL0     C10297  11.051  11.243   2.396  0.2055  0.0555  1.0518
   77MOL0     C10298  11.108  11.185   2.267 -0.3577  0.7439  0.3584
   77MOL0     C10299  11.261  11.179   2.257 -0.1135  0.7149  0.0296
   77MOL0     C10300  11.312  11.097   2.137  0.0573 -0.3275  1.0659
   77MOL0     C10301  11.467  11.073   2.144  0.5108  0.5556 -0.2679
   77MOL0     C10302  11.503  11.006   2.020 -0.4447 -0.0979 -0.7848
   77MOL0     C10303  11.647  10.957   2.031 -0.4623 -0.3787  0.5847
   77MOL0     C10304  11.658  10.827   1.955 -0.0993  0.1604 -0.3560
   77MOL0    Cl10305  11.586  10.716   2.068 -0.2102  0.3897  0.3424
   77MOL0     C10306  10.923  11.244   2.642 -0.5804  0.0768 -0.2291
   77MOL0     C10307  10.885  11.281   2.775  0.2695  0.0413 -0.7762
   77MOL0     O10308  10.784  11.206   3.052 -0.6607 -0.0167  0.1162
   77MOL0     C10309  10.966  11.390   3.288  0.0479  0.4979  0.6051
   77MOL0     C10310  10.967  11.427   3.417  0.6264 -0.3545  0.3368
   77MOL0     N10311  10.374  11.277   3.633 -0.4209  0.0544 -0.3783
   77MOL0     N10312  10.282  11.210   3.572  0.1376 -0.8333 -0.3387
   77MOL0     C10313   9.262  11.344   2.857  1.0680 -1.6641  1.2006
   77MOL0     C10314   9.183  11.352   2.739  0.3821 -0.3663 -0.1097
   77MOL0     C10315   8.818  11.351   2.442 -0.1930 -1.2488  0.1590
   77MOL0     C10316   8.894  11.313   2.322 -0.2313 -0.0511  1.0424
   77MOL0     C10317   8.839  11.335   2.194 -0.0690  0.3973 -0.2070
   77MOL0     C10318   8.717  11.395   2.175 -0.2937 -0.4479 -1.4862
   77MOL0     O10319   8.665  11.413   2.055 -0.2794  0.3991  0.2945
   77MOL0     C10320   8.734  11.408   1.924 -0.1385 -0.1341 -0.0816
   77MOL0     C10321   8.680  11.304   1.833 -0.2177  0.6999 -0.4245
   77MOL0     C10322   8.754  11.168   1.843  0.5959 -0.1648 -0.3150
   77MOL0     C10323   8.699  11.073   1.730 -1.7079 -0.4040  0.7577
   77MOL0     C10324   8.570  11.010   1.761 -0.0180 -0.1064 -0.3421
   77MOL0     C10325   8.465  10.948   1.784  0.3320 -0.1663 -0.5038
   77MOL0     C10326   8.653  11.435   2.286 -0.8256  0.6291 -0.4588
   77MOL0     C10327   8.695  11.417   2.422  0.5258  0.1563 -0.9971
   77MOL0     H10328   8.928  11.148   2.816  0.4454 -0.8631  0.1222
   77MOL0     H10329   9.046  11.131   3.018 -2.7786 -2.8200 -2.6258
   77MOL0     H10330   9.458  11.177   3.001  0.5153 -0.3389  0.3966
   77MOL0     H10331   9.446  11.346   3.055 -0.6115  0.5929 -1.5234
   77MOL0     H10332   9.432  11.251   3.289 -0.1834 -1.1406  0.9294
   77MOL0     H10333   9.426  11.088   3.229 -2.5329  1.6395  3.2169
   77MOL0     H10334   9.660  11.111   3.139  0.4372  0.3508  1.4179
   77MOL0     H10335   9.656  11.283   3.167 -0.2806  0.9211  0.9024
   77MOL0     H10336   9.663  11.251   3.409 -3.0919 -1.4622  2.2131
   77MOL0     H10337   9.639  11.083   3.397 -0.2303  1.4023 -0.0229
   77MOL0     H10338   9.855  11.057   3.276  1.8411  0.2193  0.2884
   77MOL0     H10339   9.906  11.222   3.307 -0.6783 -1.1738 -1.5157
   77MOL0     H10340   9.842  11.175   3.547  2.9429  2.4032 -0.0629
   77MOL0     H10341   9.849  11.002   3.521  2.2246 -1.9538 -2.3777
   77MOL0     H10342  10.074  10.989   3.462 -1.8641  0.2741 -2.2811
   77MOL0     H10343  10.092  11.164   3.460  2.9060 -1.4576  0.6723
   77MOL0     H10344  10.073  10.982   3.707  2.3282 -0.1762 -1.5592
   77MOL0     H10345  10.000  11.133   3.725 -0.4797 -2.4259  1.4309
   77MOL0     H10346  10.243  11.102   3.885 -3.7582  0.5665 -0.1291
   77MOL0     H10347  10.379  11.353   3.940  0.3430  1.5593 -2.9766
   77MOL0     H10348  10.503  11.224   3.945 -0.7991  0.5401  2.3207
   77MOL0     H10349  10.579  11.472   3.917  1.7784 -0.0057 -0.4636
   77MOL0     H10350  10.498  11.477   3.763  0.7596 -0.3538  0.5490
   77MOL0     H10351  10.650  11.277   3.710  1.5447 -1.0193  1.6491
   77MOL0     H10352  10.730  11.308   3.848  0.7373 -1.2384 -1.4049
   77MOL0     H10353  10.762  11.556   3.764 -1.6684 -1.7974  2.9266
   77MOL0     H10354  10.663  11.513   3.623 -0.8495 -2.3713  0.1311
   77MOL0     H10355  10.660  11.324   3.499 -0.9116  0.4253  0.0867
   77MOL0     H10356  10.605  11.151   3.255 -0.0342  0.6261  0.7235
   77MOL0     H10357  10.533  11.296   3.336  1.7573  1.0780  2.0057
   77MOL0     H10358  10.567  11.309   3.166 -0.3432  1.3253  0.5811
   77MOL0     H10359  11.190  11.219   2.912  0.6710 -4.9564 -0.4312
   77MOL0     H10360  11.233  11.127   2.697 -0.6609 -0.9639  1.1967
   77MOL0     H10361  10.942  11.251   2.383  0.2204 -0.6661  0.4112
   77MOL0     H10362  11.103  11.338   2.403 -1.8314  1.3428 -0.2285
   77MOL0     H10363  11.063  11.086   2.260  0.5944  0.1574  1.9362
   77MOL0     H10364  11.084  11.240   2.175  2.0916  1.0434 -0.1927
   77MOL0     H10365  11.301  11.130   2.346  1.1873  0.3687 -0.7129
   77MOL0     H10366  11.306  11.279   2.257  3.9601 -0.8878 -0.6753
   77MOL0     H10367  11.254  11.005   2.127 -0.2421  0.0974 -2.0945
   77MOL0     H10368  11.303  11.156   2.045  1.1054 -1.8489 -0.0675
   77MOL0     H10369  11.501  11.037   2.241  0.1587  3.7787  1.2120
   77MOL0     H10370  11.509  11.174   2.146  0.2619  0.6453  1.6744
   77MOL0     H10371  11.433  10.931   1.981 -0.5926  0.4460 -1.5968
   77MOL0     H10372  11.516  11.084   1.944  3.0334  0.9727  0.7370
   77MOL0     H10373  11.686  10.940   2.132 -1.2092  0.8081  1.0949
   77MOL0     H10374  11.708  11.032   1.980 -1.0455  1.0938  1.9473
   77MOL0     H10375  11.761  10.805   1.926  0.0759 -1.1925  1.1494
   77MOL0     H10376  11.590  10.824   1.870  0.9197 -2.2509 -1.1633
   77MOL0     H10377  10.845  11.242   2.565 -0.8020  0.5826 -0.0246
   77MOL0     H10378  10.784  11.317   2.792 -0.3627 -0.2724 -3.3301
   77MOL0     H10379  11.054  11.410   3.227 -1.8914 -0.4199 -2.8054
   77MOL0     H10380  11.054  11.455   3.475  1.1236  1.0803 -1.0135
   77MOL0     H10381   9.359  11.392   2.861 -0.0950  0.8066  1.3826
   77MOL0     H10382   9.204  11.425   2.663 -1.8988  1.6925  1.1015
   77MOL0     H10383   8.997  11.282   2.332  0.6715  1.5594 -1.9360
   77MOL0     H10384   8.892  11.299   2.106 -0.6173 -1.2151  0.0952
   77MOL0     H10385   8.707  11.504   1.879  1.1325  0.0945 -0.3776
   77MOL0     H10386   8.842  11.413   1.937 -0.5395  1.7741  3.8488
   77MOL0     H10387   8.684  11.349   1.733 -0.5168 -0.5177 -0.9941
   77MOL0     H10388   8.574  11.287   1.856 -0.8123 -1.5415 -3.9596
   77MOL0     H10389   8.747  11.124   1.943 -0.7454 -1.6570 -1.0245
   77MOL0     H10390   8.861  11.181   1.824  0.5577 -1.4584 -1.4936
   77MOL0     H10391   8.774  10.998   1.702  1.1607  1.6865  2.2503
   77MOL0     H10392   8.686  11.133   1.640 -3.6826  2.4467  2.7838
   77MOL0     H10393   8.374  10.899   1.810 -0.0552  0.0970 -1.3605
   77MOL0     H10394   8.565  11.498   2.299  0.6690  2.5852  0.5833
   77MOL0     H10395   8.636  11.466   2.498 -1.7468 -0.0679 -2.5223
   78MOL0     O10396   2.222   9.832   9.290  0.7689 -0.7796 -0.0979
   78MOL0     C10397   2.229   9.708   9.279 -0.5364  1.4816  0.3549
   78MOL0     O10398   2.125   9.621   9.278 -0.2453 -0.7806  0.0559
   78MOL0     C10399   2.002   9.675   9.313 -0.5768  0.1850  0.1190
   78MOL0     C10400   1.908   9.687   9.212 -0.4190 -0.4758 -0.5695
   78MOL0     C10401   1.784   9.764   9.241  0.3718  0.6377  0.4315
   78MOL0     C10402   1.757   9.815   9.364 -0.8190 -0.5701  0.3288
   78MOL0     O10403   1.653   9.888   9.409  0.0686 -0.0330 -0.1472
   78MOL0     C10404   1.560   9.949   9.320 -0.7308 -0.2469 -0.4329
   78MOL0     C10405   1.455   9.838   9.276 -0.2459 -0.1622 -0.3033
   78MOL0     C10406   1.384   9.881   9.147  0.4848  0.6503  0.2902
   78MOL0     C10407   1.279   9.991   9.165 -0.1057  0.3610  0.3449
   78MOL0     C10408   1.240  10.043   9.025  0.5991 -0.1601  0.2878
   78MOL0     C10409   1.337  10.141   8.964 -0.5585 -0.5596  0.1401
   78MOL0     C10410   1.379  10.260   9.044  0.2547  0.1885 -0.7057
   78MOL0     C10411   1.273  10.362   9.098  0.6833  0.5641  0.3286
   78MOL0     N10412   1.350  10.467   9.169 -0.1640 -0.4132 -0.5872
   78MOL0     C10413   1.403  10.457   9.297 -1.3708  0.0791  0.2718
   78MOL0     C10414   1.434  10.580   9.327  0.3804 -0.1422 -1.0774
   78MOL0     C10415   1.507  10.623   9.447 -1.0774 -0.1594  0.9757
   78MOL0     C10416   1.417  10.648   9.575  0.0811 -0.3644  0.1390
   78MOL0     C10417   1.372  10.791   9.593 -0.3850  0.0863  0.7155
   78MOL0     C10418   1.251  10.829   9.680 -0.0371  0.0656  0.3956
   78MOL0     O10419   1.152  10.728   9.686 -0.3510  0.1806 -0.5066
   78MOL0     C10420   1.069  10.704   9.578 -1.2891  0.6565 -0.1965
   78MOL0     C10421   0.955  10.627   9.611 -0.3099  0.2795  0.5640
   78MOL0     C10422   0.846  10.595   9.529 -0.6164 -0.3541 -0.1900
   78MOL0     C10423   0.732  10.525   9.585 -0.3679  0.0023  0.4651
   78MOL0     C10424   0.862  10.640   9.392  0.6301 -0.4623  0.7999
   78MOL0     C10425   0.758  10.600   9.283  0.9571 -0.4479 -0.3498
   78MOL0     O10426   0.664  10.501   9.299  0.3073 -0.1600 -0.6772
   78MOL0     C10427   0.570  10.477   9.205  0.2489 -1.0304  0.3380
   78MOL0     C10428   0.480  10.585   9.182 -0.0835  1.3903  0.0076
   78MOL0     C10429   0.379  10.572   9.085 -0.0204 -0.5483  0.2712
   78MOL0     C10430   0.386  10.475   8.992  0.3726 -0.7805 -0.1740
   78MOL0     O10431   0.294  10.463   8.885  0.0459 -0.3730  0.4220
   78MOL0     C10432   0.199  10.560   8.844 -0.5548 -0.2638  0.1271
   78MOL0     C10433   0.057  10.525   8.896  0.4290  0.6842  0.0072
   78MOL0     C10434  -0.017  10.410   8.838 -0.1573 -0.5073  0.1680
   78MOL0     C10435  -0.145  10.396   8.922 -0.3766 -0.3201  0.4929
   78MOL0     C10436  -0.235  10.302   8.835  0.4341 -0.0403  0.0681
   78MOL0     C10437  -0.293  10.343   8.698 -0.3137  0.7204 -0.3744
   78MOL0     C10438  -0.404  10.253   8.659  0.0024  0.7024 -0.2681
   78MOL0     C10439  -0.368  10.102   8.652  0.7508  0.9004  0.0715
   78MOL0    Cl10440  -0.474  10.037   8.530  0.3367 -0.0893  0.2099
   78MOL0     C10441   0.492  10.394   8.999 -0.6370  0.5100  0.0763
   78MOL0     C10442   0.584  10.384   9.105  0.3238 -0.0167 -0.1860
   78MOL0     O10443   0.767  10.660   9.173 -0.0168 -0.6681 -0.9088
   78MOL0     C10444   0.974  10.717   9.355 -0.8699  0.7666  0.2387
   78MOL0     C10445   1.080  10.738   9.439  0.5538  0.7599 -0.8935
   78MOL0     N10446   1.403  10.672   9.227  0.7360 -0.0722  0.0481
   78MOL0     N10447   1.336  10.602   9.144  0.4259 -1.3890 -0.1113
   78MOL0     C10448   1.861   9.801   9.466 -0.4723  0.7121  0.1330
   78MOL0     C10449   1.979   9.728   9.437  0.4415 -1.1659  0.1442
   78MOL0     C10450   2.364   9.648   9.289  0.5135 -0.1986 -0.0867
   78MOL0     C10451   2.381   9.515   9.241 -0.0324  0.0241 -0.2874
   78MOL0     C10452   2.516   9.475   9.231  0.4064 -0.2637 -0.1722
   78MOL0     C10453   2.628   9.546   9.282  0.2408 -0.8554 -0.2123
   78MOL0     O10454   2.754   9.502   9.284  0.2929  0.0583 -0.4377
   78MOL0     C10455   2.786   9.370   9.244  0.2670 -0.5833 -0.3973
   78MOL0     C10456   2.896   9.318   9.333 -0.3695  0.8635 -0.0697
   78MOL0     C10457   3.016   9.422   9.341 -1.0085  0.3218 -0.7835
   78MOL0     C10458   3.136   9.347   9.401  0.4233 -0.0074 -0.5578
   78MOL0     C10459   3.083   9.297   9.525 -0.7320 -0.3452 -0.7498
   78MOL0     C10460   3.057   9.243   9.632  0.1721  0.1318 -0.9299
   78MOL0     C10461   2.601   9.664   9.349  0.7438  0.2062  0.1674
   78MOL0     C10462   2.474   9.714   9.341 -0.0342 -0.3330  1.0325
   78MOL0     H10463   1.924   9.653   9.111 -1.3119 -2.7399 -0.0167
   78MOL0     H10464   1.718   9.790   9.159  0.6103  3.0756  0.9535
   78MOL0     H10465   1.520  10.041   9.362  0.6963  1.7594 -3.1338
   78MOL0     H10466   1.614   9.988   9.233  1.9112 -1.8893  0.3374
   78MOL0     H10467   1.511   9.753   9.235 -0.0981  0.8385 -2.2855
   78MOL0     H10468   1.393   9.810   9.361 -0.2944 -0.5426 -0.4585
   78MOL0     H10469   1.469   9.917   9.089  1.0430  2.1259  1.9062
   78MOL0     H10470   1.338   9.794   9.100 -3.4698  1.3673  2.3798
   78MOL0     H10471   1.197   9.938   9.214  1.9126 -1.9645  1.3753
   78MOL0     H10472   1.308  10.075   9.228 -0.1817 -1.3425  2.7798
   78MOL0     H10473   1.235   9.957   8.956  2.5689  0.7423 -1.0556
   78MOL0     H10474   1.145  10.094   9.041  0.8536  0.0670  1.0964
   78MOL0     H10475   1.425  10.075   8.961 -0.6882 -0.7407 -3.1026
   78MOL0     H10476   1.323  10.177   8.862 -0.2243 -0.0002  0.2888
   78MOL0     H10477   1.433  10.219   9.130 -1.7532 -2.6222 -0.6439
   78MOL0     H10478   1.451  10.309   8.977 -1.4063  1.6544 -1.5030
   78MOL0     H10479   1.209  10.305   9.165 -2.7210  0.9874 -2.2547
   78MOL0     H10480   1.203  10.381   9.015  1.1922  2.2388  0.2348
   78MOL0     H10481   1.409  10.367   9.358  2.5508  0.6849  1.0473
   78MOL0     H10482   1.572  10.538   9.472 -0.6152  0.0611  0.5301
   78MOL0     H10483   1.562  10.717   9.436 -0.6867 -0.2590  1.9899
   78MOL0     H10484   1.482  10.618   9.658  0.3055  0.4396  0.2593
   78MOL0     H10485   1.330  10.582   9.567  0.7793 -1.2642 -0.2808
   78MOL0     H10486   1.345  10.823   9.492 -2.9101 -0.1327  1.2478
   78MOL0     H10487   1.452  10.854   9.632 -1.7414  1.4252  1.4521
   78MOL0     H10488   1.206  10.925   9.651 -0.4975  0.0058  0.9128
   78MOL0     H10489   1.300  10.846   9.776  2.5231 -0.9974 -0.6285
   78MOL0     H10490   0.943  10.583   9.710 -1.8720 -1.4726 -0.3315
   78MOL0     H10491   0.752  10.489   9.687 -1.9765  2.3539  1.7048
   78MOL0     H10492   0.645  10.590   9.599 -1.0917 -1.3487  2.8316
   78MOL0     H10493   0.705  10.445   9.516  1.7230 -2.3893  2.1959
   78MOL0     H10494   0.481  10.664   9.256 -0.5635  0.6666  0.8140
   78MOL0     H10495   0.313  10.657   9.095 -0.3830 -0.9099  1.0065
   78MOL0     H10496   0.223  10.655   8.893  1.4926  0.3193 -1.8271
   78MOL0     H10497   0.194  10.565   8.734  2.0904  3.3047 -0.0014
   78MOL0     H10498   0.067  10.500   9.002 -0.3472  3.4912  0.8284
   78MOL0     H10499  -0.015  10.607   8.884 -0.4585 -0.1138 -0.3381
   78MOL0     H10500   0.044  10.320   8.851  0.2120 -0.1615  0.9254
   78MOL0     H10501  -0.043  10.432   8.734  2.3363  1.4623 -0.1432
   78MOL0     H10502  -0.125  10.352   9.020 -0.6644  0.8321  1.0796
   78MOL0     H10503  -0.195  10.489   8.950 -0.6180 -0.2641 -0.0957
   78MOL0     H10504  -0.325  10.289   8.895 -0.4503  1.1954 -0.9431
   78MOL0     H10505  -0.179  10.209   8.820  1.8082  1.0376 -2.0818
   78MOL0     H10506  -0.334  10.443   8.690  1.6013  1.5255 -0.6648
   78MOL0     H10507  -0.215  10.338   8.621  1.7181 -1.1406  1.6302
   78MOL0     H10508  -0.438  10.276   8.558  0.6938  2.0796 -0.2199
   78MOL0     H10509  -0.488  10.265   8.727 -1.3541 -1.3699 -1.4909
   78MOL0     H10510  -0.397  10.053   8.745  0.0455  5.3311  2.4757
   78MOL0     H10511  -0.262  10.095   8.625  0.5450 -0.9129 -0.3976
   78MOL0     H10512   0.515  10.322   8.921  2.1540  2.1159 -0.7210
   78MOL0     H10513   0.664  10.311   9.092 -0.2429 -0.9658  1.4479
   78MOL0     H10514   0.976  10.765   9.257  1.2241 -1.0985 -0.7314
   78MOL0     H10515   1.169  10.793   9.408  0.1766  4.0578  3.0712
   78MOL0     H10516   1.841   9.863   9.553  2.6630  0.7728  0.9278
   78MOL0     H10517   2.063   9.738   9.505 -0.2751  1.9014  0.7255
   78MOL0     H10518   2.306   9.456   9.190 -0.2381  0.1842 -0.1760
   78MOL0     H10519   2.542   9.380   9.186  0.9319 -0.1749 -0.0595
   78MOL0     H10520   2.711   9.299   9.279  0.3365  0.9295  3.3515
   78MOL0     H10521   2.799   9.370   9.135  1.8104  1.1827 -0.2612
   78MOL0     H10522   2.942   9.234   9.281 -0.6680 -0.0512  1.1177
   78MOL0     H10523   2.859   9.298   9.434  2.2821  2.8236  1.4214
   78MOL0     H10524   3.006   9.517   9.394 -2.0468 -1.6171  2.8778
   78MOL0     H10525   3.048   9.446   9.239  2.0658  0.9816  0.2150
   78MOL0     H10526   3.215   9.415   9.434  2.1764 -1.8925 -0.7317
   78MOL0     H10527   3.183   9.275   9.334 -1.5736 -1.5309 -0.4298
   78MOL0     H10528   3.028   9.200   9.726 -0.3955 -0.9735 -1.6005
   78MOL0     H10529   2.672   9.725   9.405  0.8682  1.2107 -1.0351
   78MOL0     H10530   2.457   9.812   9.383  2.8563  0.9347 -0.4984
   79MOL0     O10531   7.311   8.021   1.813 -0.0685 -1.1174 -0.2371
   79MOL0     C10532   7.254   8.016   1.708 -1.2746  0.1064  0.3778
   79MOL0     O10533   7.281   8.099   1.602  0.2920  0.1948  0.1418
   79MOL0     C10534   7.384   8.187   1.600 -0.3161 -1.0591  0.0052
   79MOL0     C10535   7.391   8.315   1.667 -0.3075 -0.0251  0.7808
   79MOL0     C10536   7.507   8.402   1.659  0.2546  0.0404  0.0015
   79MOL0     C10537   7.616   8.369   1.588 -0.3484  0.0709  0.4472
   79MOL0     O10538   7.735   8.440   1.566 -0.0605  0.0583  0.4495
   79MOL0     C10539   7.762   8.545   1.649  0.0952  0.4825 -0.3943
   79MOL0     C10540   7.916   8.580   1.660  0.3010 -0.5460 -0.1956
   79MOL0     C10541   7.986   8.452   1.705  0.1318  0.1653  1.5056
   79MOL0     C10542   8.133   8.481   1.743  0.3111  0.0024 -0.2601
   79MOL0     C10543   8.213   8.359   1.786  0.2516 -0.1386 -0.5317
   79MOL0     C10544   8.190   8.314   1.930 -0.5457 -0.3464  0.1568
   79MOL0     C10545   8.270   8.186   1.965 -0.2383 -0.3527 -1.1584
   79MOL0     C10546   8.233   8.125   2.098  0.3539  0.7361  0.0087
   79MOL0     N10547   8.307   8.000   2.128  0.2382  0.1854 -0.2692
   79MOL0     C10548   8.248   7.872   2.141 -0.4916 -0.3427 -0.2827
   79MOL0     C10549   8.349   7.796   2.180  0.6045  0.6651  0.0713
   79MOL0     C10550   8.346   7.645   2.183  0.0414  0.2903 -0.5992
   79MOL0     C10551   8.459   7.592   2.275 -0.1471 -0.5273 -0.2135
   79MOL0     C10552   8.502   7.457   2.259 -0.4786  0.0108 -0.7253
   79MOL0     C10553   8.417   7.345   2.195 -0.5095  0.1765  0.3808
   79MOL0     O10554   8.315   7.329   2.293 -0.1933 -0.2655  1.3537
   79MOL0     C10555   8.231   7.219   2.262 -0.3601 -0.5724 -0.3774
   79MOL0     C10556   8.124   7.219   2.165  0.1154 -1.1326  0.1364
   79MOL0     C10557   8.036   7.111   2.150  0.3129  0.8894 -0.2443
   79MOL0     C10558   7.918   7.127   2.057  0.1889 -0.8428 -0.0710
   79MOL0     C10559   8.053   6.995   2.243 -0.2563  0.1099  0.3437
   79MOL0     C10560   7.961   6.874   2.224  0.1543  0.0056  0.8730
   79MOL0     O10561   7.999   6.786   2.132 -0.4974 -0.2610  0.6438
   79MOL0     C10562   7.936   6.673   2.095  0.4144  0.4717  1.1941
   79MOL0     C10563   7.998   6.551   2.118  0.3605 -0.7499  0.4894
   79MOL0     C10564   7.940   6.439   2.064  0.1567 -0.5136 -0.9561
   79MOL0     C10565   7.808   6.435   2.008  0.4370 -0.0913  1.1775
   79MOL0     O10566   7.755   6.327   1.937 -0.4682  0.2480 -0.1693
   79MOL0     C10567   7.836   6.207   1.921 -0.0495  1.0747 -0.4833
   79MOL0     C10568   7.765   6.097   1.833 -0.3416  0.2055 -0.0352
   79MOL0     C10569   7.642   6.040   1.889 -0.4219 -0.6654 -0.6408
   79MOL0     C10570   7.597   5.903   1.829 -0.0386 -0.6707 -0.1833
   79MOL0     C10571   7.587   5.918   1.668 -0.1979  0.8596  0.2886
   79MOL0     C10572   7.531   5.789   1.595 -0.3402  0.5627 -0.2357
   79MOL0     C10573   7.382   5.747   1.642  0.0178  0.2346 -0.5997
   79MOL0     C10574   7.324   5.636   1.558  0.3086  0.2146 -0.1794
   79MOL0    Cl10575   7.301   5.705   1.390 -0.1272 -0.5090  0.5869
   79MOL0     C10576   7.749   6.561   1.981 -0.0475  0.3280 -0.7010
   79MOL0     C10577   7.815   6.680   2.023  0.1183  1.0222  0.3242
   79MOL0     O10578   7.869   6.866   2.297 -0.5977 -0.2223  0.7294
   79MOL0     C10579   8.169   6.997   2.331 -0.9317  0.4625 -0.1176
   79MOL0     C10580   8.258   7.109   2.330  0.7640  0.6111  0.0609
   79MOL0     N10581   8.466   7.881   2.189  0.1066  0.2501 -0.3000
   79MOL0     N10582   8.433   7.994   2.157 -0.1190 -0.0103  0.6662
   79MOL0     C10583   7.604   8.250   1.527 -0.2940  0.5282  0.5136
   79MOL0     C10584   7.488   8.164   1.519  0.7260 -0.4271  0.6435
   79MOL0     C10585   7.167   7.904   1.684  0.8182  0.4749  0.6045
   79MOL0     C10586   7.055   7.921   1.599  0.3341  0.5388  0.2536
   79MOL0     C10587   6.969   7.813   1.562 -0.8427  0.1293 -0.4157
   79MOL0     C10588   6.991   7.684   1.617  0.0698 -0.5819 -0.1454
   79MOL0     O10589   6.905   7.584   1.580 -0.0261 -0.4167  0.2653
   79MOL0     C10590   6.907   7.461   1.654  0.0049 -0.1833 -0.5033
   79MOL0     C10591   6.784   7.374   1.609  0.1187 -0.0376  0.9229
   79MOL0     C10592   6.809   7.224   1.610 -0.3631 -0.4050  0.4282
   79MOL0     C10593   6.745   7.142   1.497  0.2764 -0.2691 -0.3525
   79MOL0     C10594   6.688   7.017   1.557 -0.4507  0.0777  0.0743
   79MOL0     C10595   6.636   6.924   1.604  0.3376 -0.1774 -0.2827
   79MOL0     C10596   7.108   7.666   1.707  0.2189 -0.1175  0.4271
   79MOL0     C10597   7.194   7.772   1.734  0.2515 -0.0477 -0.5751
   79MOL0     H10598   7.299   8.339   1.719  0.1703 -0.6697  1.9650
   79MOL0     H10599   7.497   8.494   1.717 -3.6908 -1.7944  2.7015
   79MOL0     H10600   7.724   8.639   1.608  2.0683  1.9990  1.0392
   79MOL0     H10601   7.727   8.534   1.753  0.6470 -1.5656 -0.3862
   79MOL0     H10602   7.944   8.613   1.560 -1.7741  1.5112 -0.1515
   79MOL0     H10603   7.943   8.666   1.722  1.5874  1.0964 -2.8837
   79MOL0     H10604   7.942   8.405   1.794  1.8453 -3.0431  0.8296
   79MOL0     H10605   7.981   8.385   1.619  0.1918  0.7464  1.0479
   79MOL0     H10606   8.189   8.518   1.656 -2.0092  0.3054 -1.7367
   79MOL0     H10607   8.134   8.561   1.817  0.4653  0.3174 -0.5976
   79MOL0     H10608   8.187   8.274   1.722  0.1866  0.7283 -1.6944
   79MOL0     H10609   8.318   8.384   1.766  1.0436 -0.1998  2.9951
   79MOL0     H10610   8.221   8.398   1.994 -5.3019  2.2039 -0.4076
   79MOL0     H10611   8.083   8.295   1.942 -0.4366 -0.6004  0.7620
   79MOL0     H10612   8.259   8.110   1.887  0.6842  0.4299 -2.0738
   79MOL0     H10613   8.377   8.205   1.970  0.0984 -2.1103 -0.9507
   79MOL0     H10614   8.124   8.117   2.105  0.4514  0.0145  1.0527
   79MOL0     H10615   8.273   8.187   2.179  0.3549  1.7757 -0.7698
   79MOL0     H10616   8.146   7.835   2.132 -0.0391 -1.4729 -1.0722
   79MOL0     H10617   8.251   7.600   2.212 -0.1169  1.2102  0.3745
   79MOL0     H10618   8.383   7.611   2.085  1.2652  1.7456 -0.6858
   79MOL0     H10619   8.441   7.606   2.382  1.1782 -2.7983  0.3887
   79MOL0     H10620   8.555   7.640   2.251 -0.7571  1.3825  0.9662
   79MOL0     H10621   8.533   7.439   2.362 -1.8869 -1.0523 -0.4550
   79MOL0     H10622   8.597   7.461   2.204  0.8069  0.6127  1.4288
   79MOL0     H10623   8.465   7.254   2.157  0.9490  1.3340 -0.6760
   79MOL0     H10624   8.381   7.382   2.099 -2.1408 -2.5403 -0.1670
   79MOL0     H10625   8.119   7.304   2.098  4.9342 -0.8903 -0.2657
   79MOL0     H10626   7.868   7.223   2.077  0.9263 -0.5415  0.3564
   79MOL0     H10627   7.957   7.124   1.955 -2.4135 -0.2082 -1.1736
   79MOL0     H10628   7.837   7.053   2.062 -0.3743 -0.4909 -2.5313
   79MOL0     H10629   8.097   6.547   2.163  0.0354  2.1295  1.7255
   79MOL0     H10630   8.000   6.349   2.073  1.3286  0.4818  3.2541
   79MOL0     H10631   7.930   6.240   1.874  0.8795 -2.3764 -1.3106
   79MOL0     H10632   7.864   6.165   2.018  0.0724  2.9521  0.3458
   79MOL0     H10633   7.760   6.144   1.734  2.2378 -1.7227 -1.1975
   79MOL0     H10634   7.844   6.022   1.825  0.7579  1.4242 -1.2221
   79MOL0     H10635   7.568   6.119   1.876 -0.2437 -0.4343 -0.2892
   79MOL0     H10636   7.652   6.031   1.998 -0.0031  1.0845 -0.5000
   79MOL0     H10637   7.658   5.815   1.852 -2.3596 -1.3609  4.3941
   79MOL0     H10638   7.499   5.882   1.872  0.5075 -0.2830  1.2985
   79MOL0     H10639   7.691   5.936   1.639 -0.5567  2.1118 -0.2961
   79MOL0     H10640   7.520   5.998   1.637  0.6632  0.7524 -2.0179
   79MOL0     H10641   7.534   5.802   1.486 -0.3994  0.3510 -0.2618
   79MOL0     H10642   7.594   5.701   1.610 -0.7347  0.3575  0.2523
   79MOL0     H10643   7.312   5.829   1.659 -0.4085 -0.0864 -0.7882
   79MOL0     H10644   7.392   5.703   1.742  2.9043  2.6866  0.3285
   79MOL0     H10645   7.224   5.611   1.594  1.0877 -1.2425  1.0885
   79MOL0     H10646   7.384   5.545   1.559  0.4040  0.2730  0.6062
   79MOL0     H10647   7.662   6.578   1.918 -1.1875  2.1307  1.1793
   79MOL0     H10648   7.774   6.777   1.998  1.4162  1.6772  0.6887
   79MOL0     H10649   8.188   6.906   2.387  0.6038 -1.2450 -3.1840
   79MOL0     H10650   8.338   7.121   2.403 -0.7661 -1.1515  2.1399
   79MOL0     H10651   7.671   8.205   1.456 -3.2760 -4.8112  0.5917
   79MOL0     H10652   7.488   8.074   1.458  3.3556 -1.3802  1.9233
   79MOL0     H10653   7.044   8.019   1.554 -0.6699 -1.5592 -4.6774
   79MOL0     H10654   6.884   7.815   1.495 -2.0611  2.4300  1.0548
   79MOL0     H10655   7.001   7.407   1.641 -0.7340 -1.7373  0.3413
   79MOL0     H10656   6.880   7.485   1.757 -0.4083 -2.0727 -0.1393
   79MOL0     H10657   6.760   7.398   1.506  1.6469  1.4521  0.8683
   79MOL0     H10658   6.709   7.408   1.682  0.5368 -1.4561  2.0748
   79MOL0     H10659   6.775   7.181   1.705 -0.5393  0.2666  0.6716
   79MOL0     H10660   6.913   7.191   1.600 -0.2411 -1.4659  3.8665
   79MOL0     H10661   6.823   7.110   1.428 -0.5271 -0.5325 -1.1650
   79MOL0     H10662   6.672   7.197   1.436  0.5561 -2.1236 -2.4842
   79MOL0     H10663   6.610   6.834   1.655  0.9040 -0.1333  0.0926
   79MOL0     H10664   7.129   7.564   1.737 -0.6782 -0.3280  0.3707
   79MOL0     H10665   7.279   7.753   1.799 -2.3823 -1.6750  2.6795
   80MOL0     O10666   6.065   4.402   8.539 -0.0703  0.1422  0.6569
   80MOL0     C10667   6.000   4.320   8.468 -1.0527 -0.1281 -0.8510
   80MOL0     O10668   5.986   4.312   8.337  0.1428 -0.9136 -0.2940
   80MOL0     C10669   6.069   4.383   8.256  0.7280 -0.4146  0.4057
   80MOL0     C10670   6.004   4.451   8.155 -0.1554  0.3739  0.1818
   80MOL0     C10671   6.084   4.530   8.071  0.1694 -0.0133 -0.1864
   80MOL0     C10672   6.222   4.522   8.083  1.5599  0.4465  0.1307
   80MOL0     O10673   6.286   4.604   7.992  0.0946  0.3972 -0.2438
   80MOL0     C10674   6.420   4.656   8.033  1.2190  0.2243 -0.1547
   80MOL0     C10675   6.472   4.758   7.932 -0.3193  0.8481 -0.5723
   80MOL0     C10676   6.410   4.894   7.969 -0.1686 -0.0962  0.2138
   80MOL0     C10677   6.481   4.997   7.885  0.2052  0.3406  0.5913
   80MOL0     C10678   6.416   5.133   7.888  0.0110  0.3580  0.4284
   80MOL0     C10679   6.478   5.208   7.763 -0.0879  0.1443  0.5770
   80MOL0     C10680   6.625   5.265   7.777  0.4070 -0.2037  0.4559
   80MOL0     C10681   6.683   5.258   7.631  0.5234  0.6573 -0.2644
   80MOL0     N10682   6.728   5.120   7.597 -0.7391 -1.3027 -0.4892
   80MOL0     C10683   6.838   5.063   7.654 -0.4594 -0.8581  0.8845
   80MOL0     C10684   6.815   4.937   7.624 -0.3603  0.2187  1.2271
   80MOL0     C10685   6.902   4.807   7.652  0.1760 -0.4906  0.6082
   80MOL0     C10686   6.813   4.692   7.716 -0.5981  0.3083  1.4083
   80MOL0     C10687   6.900   4.559   7.734  0.6811 -0.6203 -0.0832
   80MOL0     C10688   6.818   4.447   7.816 -0.4691 -0.7006  0.8704
   80MOL0     O10689   6.783   4.478   7.953  0.5772 -0.1442 -0.5463
   80MOL0     C10690   6.721   4.373   8.024 -0.7473 -0.3782 -0.9978
   80MOL0     C10691   6.698   4.246   7.990  0.2904 -0.2436 -0.6532
   80MOL0     C10692   6.625   4.153   8.080 -0.1096 -0.3822  0.3451
   80MOL0     C10693   6.590   4.017   8.014  0.5584  0.3471 -0.6084
   80MOL0     C10694   6.591   4.200   8.212 -0.3341 -0.9123  0.5575
   80MOL0     C10695   6.534   4.120   8.320 -0.1211 -0.0230 -0.3955
   80MOL0     O10696   6.458   4.185   8.414  0.1848 -0.2510  0.3806
   80MOL0     C10697   6.448   4.123   8.535  0.6419 -0.3421  0.0538
   80MOL0     C10698   6.357   4.021   8.553 -0.3546 -1.3590 -0.6005
   80MOL0     C10699   6.352   3.959   8.674 -0.4708 -0.5306  0.9341
   80MOL0     C10700   6.433   3.998   8.781  0.9108 -0.3925 -0.3383
   80MOL0     O10701   6.427   3.941   8.895  0.1400  0.3767 -0.5709
   80MOL0     C10702   6.342   3.836   8.938 -0.2579 -0.2785  0.4772
   80MOL0     C10703   6.385   3.793   9.077 -0.1734 -0.2216  0.6070
   80MOL0     C10704   6.296   3.686   9.142 -0.2139 -0.0207 -0.2314
   80MOL0     C10705   6.389   3.588   9.225 -0.1898 -0.1519 -0.2656
   80MOL0     C10706   6.308   3.469   9.287 -0.0164  0.4321 -0.4317
   80MOL0     C10707   6.260   3.365   9.178  0.7577 -0.3331  0.7616
   80MOL0     C10708   6.221   3.239   9.254  0.2586  0.8246 -0.4193
   80MOL0     C10709   6.164   3.129   9.166  0.3644 -0.8448  0.8381
   80MOL0    Cl10710   6.269   3.089   9.021  0.5027 -0.3255 -0.6327
   80MOL0     C10711   6.520   4.106   8.766 -0.0130  1.0758  0.2560
   80MOL0     C10712   6.527   4.165   8.639 -0.9996 -0.3541  0.0712
   80MOL0     O10713   6.566   4.000   8.328  0.3800 -0.0267 -0.3676
   80MOL0     C10714   6.619   4.331   8.239 -0.2006 -0.1278  0.3266
   80MOL0     C10715   6.681   4.420   8.147 -0.8058 -0.0657  0.8080
   80MOL0     N10716   6.714   4.932   7.524 -0.2982  0.4503 -0.2219
   80MOL0     N10717   6.669   5.041   7.507  0.4496 -0.9669 -0.4014
   80MOL0     C10718   6.290   4.445   8.178  0.0212 -0.2609  0.1342
   80MOL0     C10719   6.211   4.381   8.274 -0.5125  0.2670  0.3465
   80MOL0     C10720   5.951   4.206   8.546 -0.3073  0.0827 -0.1654
   80MOL0     C10721   6.030   4.157   8.651 -0.2757 -0.1094 -0.7987
   80MOL0     C10722   5.984   4.047   8.739  0.0951  0.9742  0.3195
   80MOL0     C10723   5.855   3.989   8.709 -0.4842 -0.5064  0.6847
   80MOL0     O10724   5.804   3.878   8.772 -0.2032  0.3886 -0.4354
   80MOL0     C10725   5.876   3.829   8.882 -0.9372 -0.1163 -0.2116
   80MOL0     C10726   5.806   3.720   8.937 -0.3184  0.1727 -0.4901
   80MOL0     C10727   5.887   3.647   9.040 -0.8890 -0.2113  0.0754
   80MOL0     C10728   5.814   3.547   9.124  0.2190 -0.1134 -0.3617
   80MOL0     C10729   5.880   3.506   9.248  0.5774  0.5870  0.2881
   80MOL0     C10730   5.941   3.472   9.345  0.6927 -0.0718  0.4083
   80MOL0     C10731   5.782   4.045   8.607  0.2060 -0.5837  0.5709
   80MOL0     C10732   5.827   4.146   8.528  0.0569 -0.6416 -0.2509
   80MOL0     H10733   5.898   4.464   8.135 -0.9001 -1.1486  2.7486
   80MOL0     H10734   6.036   4.590   7.994  0.4360  2.1715  1.2667
   80MOL0     H10735   6.412   4.706   8.130 -1.4817  2.5635 -1.4370
   80MOL0     H10736   6.495   4.576   8.029  3.0921  1.9303 -3.2554
   80MOL0     H10737   6.581   4.750   7.936 -0.4361 -0.6901  0.3164
   80MOL0     H10738   6.446   4.726   7.831  1.5537  0.1592 -0.8744
   80MOL0     H10739   6.306   4.881   7.937  0.4937 -6.2581 -0.7700
   80MOL0     H10740   6.424   4.918   8.075  1.0078  0.6440 -0.0888
   80MOL0     H10741   6.588   4.993   7.904  1.6715 -1.3715 -5.6547
   80MOL0     H10742   6.466   4.963   7.782 -0.6881  0.3583  0.7072
   80MOL0     H10743   6.309   5.140   7.867  0.1205  1.8456  0.2710
   80MOL0     H10744   6.426   5.182   7.985 -0.3473  1.6572 -0.1714
   80MOL0     H10745   6.474   5.153   7.669 -1.9768  1.0734  0.0721
   80MOL0     H10746   6.406   5.290   7.750  1.3664  1.1821 -1.2805
   80MOL0     H10747   6.625   5.366   7.820  1.5026  0.0557 -0.1102
   80MOL0     H10748   6.677   5.201   7.849 -3.1197 -1.1321  2.4236
   80MOL0     H10749   6.776   5.312   7.612  1.0473 -0.8471 -2.3299
   80MOL0     H10750   6.609   5.296   7.560  0.7120 -1.0864 -1.4743
   80MOL0     H10751   6.919   5.108   7.709  0.5487 -1.4970 -0.0336
   80MOL0     H10752   6.952   4.780   7.559 -0.0710 -2.8067  1.0941
   80MOL0     H10753   6.971   4.839   7.731 -0.2322 -0.6555  1.0419
   80MOL0     H10754   6.746   4.679   7.631  0.9072  2.8438 -0.2968
   80MOL0     H10755   6.765   4.726   7.808 -2.0344 -1.9471  1.5730
   80MOL0     H10756   6.984   4.601   7.789 -2.8622  4.2353  2.4974
   80MOL0     H10757   6.923   4.510   7.639 -1.1582 -2.1664  0.2027
   80MOL0     H10758   6.881   4.358   7.806  0.8235  0.1797  0.9382
   80MOL0     H10759   6.727   4.448   7.756  1.7511  1.0551 -2.8265
   80MOL0     H10760   6.724   4.221   7.887  0.6535  0.7349 -0.8138
   80MOL0     H10761   6.481   4.008   8.004  0.5307  0.4279 -0.3810
   80MOL0     H10762   6.622   4.007   7.910  3.0978 -3.3342  0.3518
   80MOL0     H10763   6.641   3.933   8.062 -0.4474  0.1997  0.2545
   80MOL0     H10764   6.303   3.971   8.473  2.5508 -0.9843 -2.9965
   80MOL0     H10765   6.287   3.874   8.691  0.9188 -1.6401  0.9562
   80MOL0     H10766   6.237   3.869   8.945  0.0396  1.0294 -0.5991
   80MOL0     H10767   6.339   3.751   8.870  0.1506  1.3772 -1.7341
   80MOL0     H10768   6.485   3.749   9.068  0.5278  0.8869  2.4964
   80MOL0     H10769   6.401   3.872   9.151 -1.8458 -0.8771  1.7225
   80MOL0     H10770   6.230   3.638   9.069 -1.5971  0.7762  0.4563
   80MOL0     H10771   6.219   3.739   9.198 -0.3212  0.8726 -1.2062
   80MOL0     H10772   6.478   3.552   9.173  2.7260  2.3074  2.6237
   80MOL0     H10773   6.443   3.639   9.305  0.5849 -0.2505 -0.7119
   80MOL0     H10774   6.221   3.502   9.345  0.1138  0.7463 -0.4149
   80MOL0     H10775   6.371   3.412   9.356 -0.3420  0.5842 -0.0012
   80MOL0     H10776   6.170   3.403   9.127 -1.4309 -2.0821  3.0743
   80MOL0     H10777   6.336   3.351   9.100 -1.1865  1.6622 -1.6995
   80MOL0     H10778   6.143   3.266   9.326  1.1063  2.2892 -0.0124
   80MOL0     H10779   6.308   3.201   9.309  1.5878  2.9519 -0.9298
   80MOL0     H10780   6.064   3.158   9.133  1.7673  0.6229 -2.6781
   80MOL0     H10781   6.150   3.039   9.227  1.3690 -0.9333  0.9459
   80MOL0     H10782   6.588   4.135   8.846  1.5119  0.1625 -0.6569
   80MOL0     H10783   6.609   4.232   8.614 -1.6934  0.1149 -1.0370
   80MOL0     H10784   6.617   4.374   8.338 -1.3216  1.3462 -0.3159
   80MOL0     H10785   6.687   4.528   8.157  0.0611 -0.1302  1.0142
   80MOL0     H10786   6.398   4.437   8.176 -0.0271 -0.7814 -1.1509
   80MOL0     H10787   6.259   4.334   8.359 -1.4364  1.5458  1.6313
   80MOL0     H10788   6.123   4.205   8.678 -1.8039  1.9950  1.1055
   80MOL0     H10789   6.046   4.017   8.823 -2.6086 -1.6760  1.5730
   80MOL0     H10790   5.980   3.801   8.864 -0.0395  1.5413  1.9339
   80MOL0     H10791   5.886   3.902   8.963 -1.3258  0.2149 -0.4594
   80MOL0     H10792   5.776   3.653   8.856  0.5684 -0.5515 -0.2390
   80MOL0     H10793   5.714   3.767   8.972 -0.0684  1.2434 -1.2106
   80MOL0     H10794   5.926   3.726   9.104 -1.3532 -0.0917  0.2198
   80MOL0     H10795   5.968   3.604   8.981 -0.4921  1.7726 -0.9302
   80MOL0     H10796   5.798   3.458   9.063 -1.7954  1.8313 -2.9390
   80MOL0     H10797   5.723   3.600   9.155 -0.1962 -0.4200 -1.0291
   80MOL0     H10798   5.987   3.442   9.437  1.5148  1.8359  0.6647
   80MOL0     H10799   5.681   4.010   8.585  0.2311 -0.9923  1.0885
   80MOL0     H10800   5.753   4.170   8.452  1.3651 -1.9801 -2.0433
   81MOL0     O10801   6.987   6.883   5.055  0.2266 -0.4573  0.0216
   81MOL0     C10802   7.107   6.928   5.036 -0.4492  0.3803  0.2087
   81MOL0     O10803   7.173   6.938   4.917  0.1501  0.1206 -0.0627
   81MOL0     C10804   7.125   6.878   4.801 -0.5044 -0.5575  1.1262
   81MOL0     C10805   7.021   6.795   4.783 -0.6751  0.0919 -0.4906
   81MOL0     C10806   6.971   6.760   4.662  1.2913  0.2001  0.6508
   81MOL0     C10807   7.038   6.796   4.548 -0.1057 -0.5685  0.0993
   81MOL0     O10808   6.989   6.748   4.429 -0.8248  0.1421  0.4012
   81MOL0     C10809   7.057   6.765   4.307 -0.4623  0.4423 -0.1534
   81MOL0     C10810   6.946   6.747   4.207  0.4388 -0.1808 -0.0176
   81MOL0     C10811   6.861   6.618   4.221 -0.1303  0.0581 -0.3413
   81MOL0     C10812   6.756   6.612   4.113  0.5395 -0.5356 -0.3142
   81MOL0     C10813   6.641   6.503   4.127 -0.1960 -0.5967  1.4497
   81MOL0     C10814   6.686   6.366   4.067  0.1591  0.2881 -0.4236
   81MOL0     C10815   6.578   6.249   4.076 -0.1140 -0.4307  0.5094
   81MOL0     C10816   6.451   6.301   4.005 -0.8140 -0.3242 -0.3762
   81MOL0     N10817   6.343   6.202   3.988 -0.8857 -0.3630  0.4797
   81MOL0     C10818   6.214   6.239   3.969 -0.0451  0.4565  0.8188
   81MOL0     C10819   6.159   6.123   3.941  0.4372  0.0107  0.5857
   81MOL0     C10820   6.023   6.099   3.886  0.6621 -0.5228 -0.2083
   81MOL0     C10821   5.920   6.077   4.000 -0.4445 -0.7522 -0.3955
   81MOL0     C10822   5.785   6.052   3.957  0.4193 -1.1147  0.6880
   81MOL0     C10823   5.726   6.169   3.875 -0.3925 -0.0417 -0.3182
   81MOL0     O10824   5.752   6.294   3.936  0.2425 -0.3266 -0.4339
   81MOL0     C10825   5.658   6.352   4.018 -0.4047 -0.6623  0.6664
   81MOL0     C10826   5.539   6.296   4.054 -0.4459  0.1394  0.2643
   81MOL0     C10827   5.444   6.368   4.128 -0.0337 -0.2945 -0.2817
   81MOL0     C10828   5.306   6.314   4.139 -0.5497 -0.3588  0.5047
   81MOL0     C10829   5.480   6.496   4.184 -0.5067  1.0101  0.5227
   81MOL0     C10830   5.411   6.585   4.288  0.8749  0.4179  1.4292
   81MOL0     O10831   5.280   6.552   4.314  0.5022 -0.0026 -0.4200
   81MOL0     C10832   5.212   6.636   4.398 -0.3796  0.3481 -0.3812
   81MOL0     C10833   5.134   6.737   4.343  0.6029  0.0709  0.4144
   81MOL0     C10834   5.044   6.815   4.427  0.2788  0.3077  0.4103
   81MOL0     C10835   5.034   6.793   4.557  0.2688  0.4465  0.2015
   81MOL0     O10836   4.956   6.875   4.634  0.0025 -0.1585 -0.6771
   81MOL0     C10837   4.979   6.866   4.777 -0.3361  0.2074 -0.0163
   81MOL0     C10838   4.882   6.953   4.855 -0.7508 -0.5497  0.7782
   81MOL0     C10839   4.885   7.101   4.807  0.7847  0.3518 -0.5427
   81MOL0     C10840   4.986   7.188   4.878  0.6863  0.0395  0.2332
   81MOL0     C10841   4.952   7.336   4.853  0.1773  0.4773  0.1613
   81MOL0     C10842   4.992   7.409   4.723  0.3916  0.1642 -0.9164
   81MOL0     C10843   5.129   7.384   4.675 -1.1251 -0.3538 -0.3767
   81MOL0     C10844   5.161   7.465   4.550  0.1996  0.4726  0.3354
   81MOL0    Cl10845   5.332   7.414   4.499 -0.1289  0.0848  0.0512
   81MOL0     C10846   5.121   6.694   4.617  0.1607 -0.8152  0.0556
   81MOL0     C10847   5.216   6.627   4.542 -0.3919  0.5175  0.4800
   81MOL0     O10848   5.470   6.684   4.334 -0.4983 -0.3159 -0.0637
   81MOL0     C10849   5.604   6.545   4.141 -0.4260 -0.3417 -0.7967
   81MOL0     C10850   5.693   6.476   4.058  0.7366 -0.1589  0.4080
   81MOL0     N10851   6.244   6.013   3.962 -0.0124 -0.4235  0.1837
   81MOL0     N10852   6.366   6.069   3.973  0.6717  0.5594  0.2761
   81MOL0     C10853   7.143   6.883   4.559  0.7174  0.0719  0.1637
   81MOL0     C10854   7.182   6.933   4.686 -0.0365  1.0009  0.8495
   81MOL0     C10855   7.178   6.979   5.152  0.1238 -0.3006  0.0591
   81MOL0     C10856   7.121   7.003   5.273  0.6770  0.5734  0.2556
   81MOL0     C10857   7.199   7.052   5.387  0.8835 -0.7706 -0.0156
   81MOL0     C10858   7.339   7.068   5.378  0.2989  0.4831 -0.4918
   81MOL0     O10859   7.411   7.105   5.490 -1.0155  0.2744 -0.2498
   81MOL0     C10860   7.345   7.138   5.607 -0.5937 -0.4044 -0.0114
   81MOL0     C10861   7.430   7.221   5.686 -1.0668 -0.8359 -0.5641
   81MOL0     C10862   7.348   7.273   5.807  0.4843  0.8247  0.2351
   81MOL0     C10863   7.297   7.165   5.906 -0.1460 -0.1955  0.2700
   81MOL0     C10864   7.278   7.226   6.032  0.2224  0.1203 -0.1336
   81MOL0     C10865   7.289   7.280   6.140 -0.4574  0.4482 -0.4035
   81MOL0     C10866   7.394   7.043   5.252 -1.2598  1.5780 -0.1273
   81MOL0     C10867   7.315   6.995   5.148 -1.4221  0.5579  1.0390
   81MOL0     H10868   6.976   6.754   4.873  3.7523 -0.6526  1.6269
   81MOL0     H10869   6.888   6.692   4.648  1.4638 -0.2354  1.6442
   81MOL0     H10870   7.093   6.868   4.307 -3.2655  1.4931  1.0459
   81MOL0     H10871   7.139   6.692   4.300 -1.0509 -0.0805 -2.0512
   81MOL0     H10872   6.886   6.839   4.214 -1.1386 -0.9188 -2.3984
   81MOL0     H10873   6.998   6.728   4.113  0.1892 -0.0657 -0.1819
   81MOL0     H10874   6.924   6.529   4.213  2.1049  1.5005  0.3610
   81MOL0     H10875   6.818   6.626   4.321  1.1122  2.8348  0.0744
   81MOL0     H10876   6.704   6.709   4.104  0.3942 -0.7624 -2.2895
   81MOL0     H10877   6.809   6.599   4.019  1.7320 -2.8677  0.6288
   81MOL0     H10878   6.618   6.484   4.232 -3.0453 -2.3355  0.6274
   81MOL0     H10879   6.551   6.538   4.074  1.2534  1.4308  0.1691
   81MOL0     H10880   6.705   6.381   3.960 -3.9389  0.6645 -1.2659
   81MOL0     H10881   6.777   6.345   4.123 -1.3778  2.1718  3.0396
   81MOL0     H10882   6.623   6.160   4.030 -0.7170  1.5240 -4.4657
   81MOL0     H10883   6.561   6.217   4.180  1.1901 -2.1425  0.2387
   81MOL0     H10884   6.469   6.357   3.913 -1.2628  0.7673  0.1728
   81MOL0     H10885   6.410   6.377   4.073  1.8605 -1.8560  3.3230
   81MOL0     H10886   6.183   6.343   3.973 -0.0820  0.4226  1.4830
   81MOL0     H10887   5.991   6.179   3.818  0.2793 -1.1322 -0.7634
   81MOL0     H10888   6.046   6.011   3.825  3.2875 -0.1724  0.1561
   81MOL0     H10889   5.907   6.169   4.058  0.2751  0.7545 -2.4932
   81MOL0     H10890   5.963   5.991   4.053  1.5828 -1.0326 -2.3444
   81MOL0     H10891   5.702   6.033   4.025 -1.9117 -0.2435 -1.7059
   81MOL0     H10892   5.783   5.965   3.891  2.0999 -1.2351  0.7581
   81MOL0     H10893   5.621   6.156   3.849 -0.3977 -1.3803  0.2942
   81MOL0     H10894   5.769   6.165   3.774 -1.4700  1.1589 -0.8559
   81MOL0     H10895   5.503   6.196   4.033 -0.5103 -0.3768  2.5391
   81MOL0     H10896   5.285   6.309   4.246  2.8564  0.3282  1.3234
   81MOL0     H10897   5.246   6.381   4.076  3.2319 -0.2060 -3.3880
   81MOL0     H10898   5.294   6.215   4.094 -2.5489 -0.6037  1.4306
   81MOL0     H10899   5.135   6.746   4.235  3.2826 -2.9079  0.0461
   81MOL0     H10900   4.975   6.883   4.377 -0.5077  0.5307  1.7308
   81MOL0     H10901   4.974   6.763   4.814 -1.0435 -0.5558 -2.0899
   81MOL0     H10902   5.074   6.912   4.805 -1.5318  3.8591 -1.3844
   81MOL0     H10903   4.778   6.923   4.841 -3.0150  5.2135  2.2735
   81MOL0     H10904   4.901   6.936   4.962  1.1215 -3.6538  0.0784
   81MOL0     H10905   4.784   7.143   4.813 -0.0723 -1.7729  1.0839
   81MOL0     H10906   4.921   7.091   4.704 -1.2416 -0.2368 -1.2577
   81MOL0     H10907   4.993   7.172   4.986 -0.8228  1.5616  0.6049
   81MOL0     H10908   5.086   7.161   4.842  1.2647  0.3247  1.5730
   81MOL0     H10909   5.004   7.389   4.934 -0.2798  3.5787 -1.4335
   81MOL0     H10910   4.844   7.347   4.867  0.3887  0.3344  2.2982
   81MOL0     H10911   4.926   7.375   4.643 -2.9145 -2.2957  2.4963
   81MOL0     H10912   4.990   7.518   4.736 -0.1821 -0.0301  0.9290
   81MOL0     H10913   5.141   7.279   4.649 -0.1724 -1.0333  2.4251
   81MOL0     H10914   5.195   7.408   4.759 -3.7135 -3.2769  2.8157
   81MOL0     H10915   5.154   7.572   4.574  3.0105  0.7073  0.3590
   81MOL0     H10916   5.087   7.442   4.472 -2.4928  2.2676  2.1901
   81MOL0     H10917   5.124   6.669   4.722  1.5057  0.2043  0.2960
   81MOL0     H10918   5.301   6.568   4.573 -0.8961 -0.6558 -0.3025
   81MOL0     H10919   5.622   6.646   4.175 -2.0136 -0.7508  1.5062
   81MOL0     H10920   5.779   6.522   4.012  0.4466 -0.0837 -0.0628
   81MOL0     H10921   7.192   6.924   4.471  0.0876 -0.7836 -0.6101
   81MOL0     H10922   7.255   7.012   4.701  0.5200  0.5631  0.4660
   81MOL0     H10923   7.016   6.980   5.280  0.7519 -1.1574 -2.6735
   81MOL0     H10924   7.147   7.048   5.481  2.0758 -1.2133  0.6462
   81MOL0     H10925   7.252   7.189   5.581  0.1884  0.4886 -1.2218
   81MOL0     H10926   7.319   7.055   5.673 -0.4187 -0.5096 -0.0728
   81MOL0     H10927   7.476   7.298   5.624  0.2269 -0.8543  0.3387
   81MOL0     H10928   7.513   7.160   5.723 -0.7368  0.4509  0.9140
   81MOL0     H10929   7.266   7.341   5.782  2.1641  3.3182  1.0412
   81MOL0     H10930   7.423   7.329   5.864  0.8684 -1.0578  1.6637
   81MOL0     H10931   7.363   7.078   5.915  0.0372  0.1277  2.8937
   81MOL0     H10932   7.198   7.127   5.876  0.0886 -1.9779  1.5984
   81MOL0     H10933   7.291   7.320   6.240 -1.5019  0.2562 -0.2887
   81MOL0     H10934   7.502   7.047   5.252 -0.8206 -3.6584  0.9608
   81MOL0     H10935   7.381   6.965   5.067 -2.1384 -0.6719  0.8793
   82MOL0     O10936   2.109  10.168  11.051 -0.9401  0.4604  0.2794
   82MOL0     C10937   2.041  10.140  10.951  0.1366  1.8142 -0.4776
   82MOL0     O10938   2.075  10.141  10.819 -0.9150 -0.2583  0.2854
   82MOL0     C10939   2.191  10.193  10.776  0.1060  0.0941  0.1616
   82MOL0     C10940   2.183  10.290  10.680 -0.2392 -0.6900  0.6082
   82MOL0     C10941   2.302  10.344  10.629  0.2438  1.1720  0.6952
   82MOL0     C10942   2.426  10.296  10.663 -0.9888  0.5472  0.1604
   82MOL0     O10943   2.533  10.358  10.595 -1.1509  0.1673 -0.0493
   82MOL0     C10944   2.668  10.327  10.642  0.5743  0.6760  0.1647
   82MOL0     C10945   2.766  10.425  10.581  1.1307 -0.1640  0.1852
   82MOL0     C10946   2.918  10.384  10.613  0.5590  0.3438 -0.4952
   82MOL0     C10947   3.001  10.505  10.608 -0.2662 -0.7511 -0.0115
   82MOL0     C10948   3.143  10.491  10.651  0.0731 -0.7917  0.6312
   82MOL0     C10949   3.153  10.431  10.797  0.0171  0.2323  0.0814
   82MOL0     C10950   3.297  10.436  10.839  0.0159  0.3565 -0.1880
   82MOL0     C10951   3.350  10.581  10.860 -0.7528  0.7208 -0.4352
   82MOL0     N10952   3.499  10.568  10.867  0.2346  0.0107 -0.3286
   82MOL0     C10953   3.580  10.554  10.759  0.0163 -0.2110  0.0976
   82MOL0     C10954   3.693  10.607  10.803 -0.1212 -0.4480 -0.2263
   82MOL0     C10955   3.816  10.629  10.729 -0.1471  0.7577  0.2066
   82MOL0     C10956   3.818  10.744  10.625  0.4026  0.1698  0.1669
   82MOL0     C10957   3.964  10.772  10.574  0.2873  0.4076  0.8268
   82MOL0     C10958   3.960  10.855  10.449  0.4907 -0.3171 -0.2143
   82MOL0     O10959   4.092  10.884  10.419  0.0306  0.2951 -0.7679
   82MOL0     C10960   4.104  11.003  10.354 -0.1524  0.2771  0.0104
   82MOL0     C10961   4.184  11.098  10.404  0.4039 -0.2442  0.1868
   82MOL0     C10962   4.193  11.229  10.351  0.5258  0.3510  0.7258
   82MOL0     C10963   4.285  11.324  10.418  0.0333 -0.1621 -0.0492
   82MOL0     C10964   4.105  11.264  10.242 -0.1733 -0.8252 -0.1898
   82MOL0     C10965   4.090  11.410  10.197  0.7573  0.1553  0.1281
   82MOL0     O10966   4.124  11.508  10.278 -0.4895 -0.3815  0.0238
   82MOL0     C10967   4.141  11.620  10.203  0.3513 -0.5485  0.4112
   82MOL0     C10968   4.263  11.653  10.150 -0.9792 -0.2680 -0.5726
   82MOL0     C10969   4.273  11.774  10.072  0.1748  0.5263  0.5125
   82MOL0     C10970   4.168  11.863  10.063 -0.1987 -0.2654 -0.2615
   82MOL0     O10971   4.176  11.978   9.991 -0.4713  0.0326 -0.2275
   82MOL0     C10972   4.235  11.969   9.860  0.0389 -0.1798 -0.0107
   82MOL0     C10973   4.203  12.087   9.784  0.9313 -1.0474  0.7363
   82MOL0     C10974   4.264  12.068   9.642 -0.2341 -0.0763 -0.0565
   82MOL0     C10975   4.177  11.978   9.540 -1.2654  0.2298  0.8719
   82MOL0     C10976   4.251  11.954   9.404 -0.7356 -0.1488  1.4562
   82MOL0     C10977   4.365  11.859   9.437 -0.4131  0.7201  0.0668
   82MOL0     C10978   4.416  11.812   9.299 -0.2036  0.2477  0.0789
   82MOL0     C10979   4.551  11.750   9.302 -0.0415  0.2537 -0.4868
   82MOL0    Cl10980   4.627  11.740   9.139 -0.5014 -0.1048  0.5410
   82MOL0     C10981   4.059  11.840  10.135  0.3519 -0.0935  1.1549
   82MOL0     C10982   4.042  11.725  10.213  0.0061 -0.8951  0.2084
   82MOL0     O10983   4.035  11.416  10.088  0.1839 -0.4447  0.0190
   82MOL0     C10984   4.031  11.164  10.185 -0.8624 -0.2530 -0.5414
   82MOL0     C10985   4.024  11.036  10.238 -0.7929  0.1902 -1.2648
   82MOL0     N10986   3.669  10.665  10.927 -0.2227  0.2324  0.6432
   82MOL0     N10987   3.557  10.634  10.969 -1.2941  0.2842  0.3827
   82MOL0     C10988   2.431  10.193  10.763  0.4517  0.3132 -0.0245
   82MOL0     C10989   2.311  10.145  10.822 -0.7250  0.1255  0.1546
   82MOL0     C10990   1.909  10.070  10.976  0.6664  0.0028 -1.3089
   82MOL0     C10991   1.816  10.017  10.881  0.2411  0.3322 -0.6131
   82MOL0     C10992   1.696   9.963  10.911  0.1452 -0.6725 -0.1762
   82MOL0     C10993   1.651   9.961  11.046  0.0113 -0.4283  0.2132
   82MOL0     O10994   1.523   9.913  11.075  0.1605 -0.3931 -0.1633
   82MOL0     C10995   1.459   9.990  11.173  0.2079  0.0690  0.7157
   82MOL0     C10996   1.335   9.903  11.217 -0.1397  0.4930  0.3209
   82MOL0     C10997   1.234   9.986  11.290  0.4902  1.1715 -0.7408
   82MOL0     C10998   1.121   9.897  11.343 -0.4606  0.5105 -0.5143
   82MOL0     C10999   1.003   9.876  11.249  0.7943  0.2942 -0.0006
   82MOL0     C11000   0.916   9.835  11.169 -0.1618  0.1332 -0.3369
   82MOL0     C11001   1.741  10.008  11.140  0.8234 -0.2256  0.2729
   82MOL0     C11002   1.875  10.046  11.112  0.2689  0.7161  0.0805
   82MOL0     H11003   2.083  10.322  10.653  0.7077  2.3332  0.4111
   82MOL0     H11004   2.301  10.419  10.550  1.3011  1.0010  0.5103
   82MOL0     H11005   2.676  10.337  10.750  1.6338  1.3003  0.0451
   82MOL0     H11006   2.692  10.226  10.607 -1.1588  0.8782 -1.7785
   82MOL0     H11007   2.755  10.447  10.475  0.8099 -0.4373  0.1607
   82MOL0     H11008   2.738  10.515  10.637  0.4953 -1.6255  2.3798
   82MOL0     H11009   2.922  10.335  10.710 -2.8368 -1.7965 -1.2564
   82MOL0     H11010   2.953  10.322  10.530  1.3968  0.1864 -0.0383
   82MOL0     H11011   2.992  10.541  10.505 -0.1543  0.1379  0.2845
   82MOL0     H11012   2.952  10.579  10.672  0.8853 -1.3002  1.5417
   82MOL0     H11013   3.198  10.427  10.582 -1.4824 -0.6492 -0.8097
   82MOL0     H11014   3.196  10.586  10.648 -0.3444 -0.5208  1.4838
   82MOL0     H11015   3.098  10.483  10.877  1.3250 -1.5645  2.2631
   82MOL0     H11016   3.124  10.326  10.798  0.8339 -0.0033  1.0024
   82MOL0     H11017   3.300  10.372  10.928 -3.6618  1.5709  1.0083
   82MOL0     H11018   3.354  10.386  10.760 -1.0327 -0.5261 -0.4041
   82MOL0     H11019   3.301  10.631  10.944  2.2466  2.2937  0.5314
   82MOL0     H11020   3.339  10.643  10.770  2.7661 -0.2987 -1.7698
   82MOL0     H11021   3.568  10.513  10.659  0.0578  0.4196 -0.1720
   82MOL0     H11022   3.894  10.650  10.804  0.5360 -2.2575  0.4805
   82MOL0     H11023   3.840  10.534  10.681 -0.6797  0.5909  0.2688
   82MOL0     H11024   3.780  10.836  10.671  0.6806 -0.0831  0.9238
   82MOL0     H11025   3.753  10.717  10.541 -0.3331  0.3414  0.6693
   82MOL0     H11026   4.011  10.677  10.546 -0.2860  0.6275 -1.0257
   82MOL0     H11027   4.009  10.829  10.656 -1.5674  0.2565  1.9998
   82MOL0     H11028   3.905  10.943  10.482 -0.0667  0.4717 -3.0191
   82MOL0     H11029   3.906  10.816  10.362 -1.9147 -2.3921  1.9989
   82MOL0     H11030   4.227  11.066  10.499 -0.7842 -3.7771 -0.3049
   82MOL0     H11031   4.357  11.267  10.477 -0.7330 -1.1084 -0.0109
   82MOL0     H11032   4.338  11.385  10.344 -0.9723  0.4197 -0.3227
   82MOL0     H11033   4.239  11.402  10.480  1.9288  1.8324 -1.0233
   82MOL0     H11034   4.353  11.596  10.170 -1.2034 -1.9669 -3.7825
   82MOL0     H11035   4.364  11.788  10.016 -0.1613  2.3799  0.3791
   82MOL0     H11036   4.344  11.960   9.856 -0.0986 -2.2683 -0.0283
   82MOL0     H11037   4.187  11.885   9.809 -3.3639  1.7292 -0.2656
   82MOL0     H11038   4.097  12.113   9.770  1.3081  0.0078 -0.3388
   82MOL0     H11039   4.239  12.181   9.828  0.3063  0.5024 -1.8187
   82MOL0     H11040   4.365  12.031   9.659 -0.3528  0.5194  2.2453
   82MOL0     H11041   4.266  12.166   9.593  0.5238 -0.4577 -0.8123
   82MOL0     H11042   4.168  11.883   9.593  0.6239 -1.3826 -1.4607
   82MOL0     H11043   4.078  12.018   9.518 -1.0279  0.4653  0.1946
   82MOL0     H11044   4.286  12.051   9.367  3.5644 -1.4600  1.5229
   82MOL0     H11045   4.181  11.920   9.328  0.8337  3.0297 -1.7049
   82MOL0     H11046   4.441  11.922   9.484 -1.7881  0.5260  2.7545
   82MOL0     H11047   4.325  11.777   9.498 -0.7077 -0.2191 -1.3455
   82MOL0     H11048   4.427  11.903   9.240  0.9187 -0.9196 -1.6246
   82MOL0     H11049   4.353  11.740   9.246  0.8315  0.0804 -0.9714
   82MOL0     H11050   4.544  11.649   9.342  1.8968  0.0679 -0.4941
   82MOL0     H11051   4.622  11.802   9.368 -0.6661  0.1707  0.2638
   82MOL0     H11052   3.978  11.911  10.124 -1.4483 -2.3833 -2.5365
   82MOL0     H11053   3.952  11.707  10.272 -1.2611  0.0760 -1.3594
   82MOL0     H11054   3.962  11.178  10.103 -2.1739  1.8113  0.8359
   82MOL0     H11055   3.966  10.958  10.189 -0.6596 -1.9541  1.6797
   82MOL0     H11056   2.515  10.146  10.812 -1.1604 -1.5619  1.0916
   82MOL0     H11057   2.309  10.066  10.897 -2.5895  1.1146  1.2333
   82MOL0     H11058   1.846  10.025  10.777 -2.5078  0.9070 -1.4429
   82MOL0     H11059   1.639   9.929  10.825  1.0518 -3.0588  0.0836
   82MOL0     H11060   1.515  10.008  11.265  0.5578 -1.4188  0.8167
   82MOL0     H11061   1.408  10.078  11.134 -1.0452  0.8320  3.8348
   82MOL0     H11062   1.384   9.828  11.279  1.9541  0.7801 -0.8619
   82MOL0     H11063   1.293   9.864  11.124  1.2583  1.0222 -0.5712
   82MOL0     H11064   1.192  10.068  11.232 -5.3270 -2.0124 -1.8852
   82MOL0     H11065   1.286  10.015  11.382 -0.4637 -1.4902  0.7520
   82MOL0     H11066   1.084   9.938  11.438  0.6953 -1.5692  0.9386
   82MOL0     H11067   1.160   9.796  11.363 -1.0494  0.5039  0.7372
   82MOL0     H11068   0.844   9.795  11.101 -0.7053  0.4145  0.0556
   82MOL0     H11069   1.722  10.016  11.247 -3.3976  0.3419 -0.3723
   82MOL0     H11070   1.947  10.070  11.189 -0.3462  1.1668  0.5299
   83MOL0     O11071   7.522  10.106   9.245  0.3009  0.0461 -0.0659
   83MOL0     C11072   7.560  10.005   9.183  0.8118  0.6991 -0.3322
   83MOL0     O11073   7.489   9.896   9.151 -0.0065  0.3180 -0.1153
   83MOL0     C11074   7.353   9.909   9.175 -0.1815  1.4831  0.1270
   83MOL0     C11075   7.295   9.792   9.238  0.3465  0.4605 -0.2125
   83MOL0     C11076   7.160   9.790   9.276  0.4204 -0.0862 -0.7385
   83MOL0     C11077   7.074   9.899   9.258  0.1746  0.5686  0.4052
   83MOL0     O11078   6.941   9.882   9.296 -0.1627 -0.1905 -0.5456
   83MOL0     C11079   6.924   9.866   9.440  0.3913  0.3975 -0.2387
   83MOL0     C11080   6.772   9.890   9.478 -0.0389  0.1027 -0.0336
   83MOL0     C11081   6.719  10.037   9.466 -0.6644 -0.7530 -0.5698
   83MOL0     C11082   6.560  10.054   9.478 -0.8470 -0.5279 -0.8689
   83MOL0     C11083   6.531  10.100   9.624  0.1776 -0.4279  0.8223
   83MOL0     C11084   6.602  10.051   9.745 -0.6532 -0.4039  0.4537
   83MOL0     C11085   6.539  10.095   9.876  0.4163 -0.3796  0.3771
   83MOL0     C11086   6.550  10.250   9.888 -0.0209  0.0205 -0.2469
   83MOL0     N11087   6.502  10.288  10.025  0.6219 -0.2720 -0.9660
   83MOL0     C11088   6.383  10.342  10.071  0.5839 -0.7976  0.2344
   83MOL0     C11089   6.399  10.354  10.206 -0.0185  0.3451  0.0803
   83MOL0     C11090   6.300  10.405  10.298 -0.2620 -0.1532  0.8736
   83MOL0     C11091   6.181  10.310  10.295  1.1383  0.5455  0.3106
   83MOL0     C11092   6.071  10.343  10.405 -0.3469 -0.1301 -1.0050
   83MOL0     C11093   6.113  10.327  10.557  0.4223  0.1475 -0.3101
   83MOL0     O11094   6.004  10.373  10.643 -0.2042  0.3129  0.3645
   83MOL0     C11095   5.913  10.287  10.694 -0.2758  0.5608  0.5648
   83MOL0     C11096   5.883  10.152  10.650  0.5461  0.4712  0.4540
   83MOL0     C11097   5.803  10.063  10.719  0.8173  0.9247  0.5144
   83MOL0     C11098   5.775   9.927  10.647  0.8701  0.1692 -0.3480
   83MOL0     C11099   5.737  10.100  10.830 -0.3049  0.2604  0.9185
   83MOL0     C11100   5.652  10.013  10.917 -0.7773  0.1070  0.4513
   83MOL0     O11101   5.612  10.067  11.033 -0.6936  0.0316  0.4493
   83MOL0     C11102   5.545   9.978  11.111  0.3468 -0.0759 -1.3461
   83MOL0     C11103   5.412   9.941  11.105 -0.1655  0.5428  1.3323
   83MOL0     C11104   5.364   9.828  11.163  0.7989  0.1278 -0.9473
   83MOL0     C11105   5.446   9.756  11.255  0.3098  0.3698  0.3477
   83MOL0     O11106   5.376   9.654  11.323 -0.6109 -0.7749 -0.1009
   83MOL0     C11107   5.442   9.577  11.421 -0.3572 -0.0969 -0.4647
   83MOL0     C11108   5.529   9.465  11.352 -0.6654  0.1729  0.2451
   83MOL0     C11109   5.450   9.378  11.263  0.6430  0.3066 -0.1085
   83MOL0     C11110   5.369   9.289  11.355  0.2828  0.3387 -0.2084
   83MOL0     C11111   5.312   9.178  11.258 -0.1396 -0.0993  0.2822
   83MOL0     C11112   5.176   9.118  11.308 -0.7041 -0.6893  0.3617
   83MOL0     C11113   5.102   9.013  11.211 -0.1207 -0.5370 -0.3769
   83MOL0     C11114   5.182   8.888  11.204  0.8153 -0.2552 -0.1057
   83MOL0    Cl11115   5.077   8.789  11.115 -0.4113  0.6694  0.2715
   83MOL0     C11116   5.575   9.808  11.278  0.1512 -0.8723  0.3951
   83MOL0     C11117   5.626   9.923  11.215 -0.5632 -0.3616 -0.3533
   83MOL0     O11118   5.640   9.895  10.887 -0.2066  0.0213  0.2892
   83MOL0     C11119   5.757  10.234  10.868 -1.0694 -0.4920  0.8435
   83MOL0     C11120   5.842  10.328  10.800  0.4885  0.7825  0.1820
   83MOL0     N11121   6.529  10.323  10.238  0.2248 -0.8409  0.1157
   83MOL0     N11122   6.592  10.287  10.132  0.4483 -0.0556  0.2734
   83MOL0     C11123   7.123  10.015   9.184 -0.0616  0.5835 -0.9930
   83MOL0     C11124   7.264  10.013   9.138  0.1345  0.4599 -0.0005
   83MOL0     C11125   7.700   9.994   9.123 -0.6115  0.0754 -0.4937
   83MOL0     C11126   7.741   9.919   9.010  0.4288 -0.3723 -0.8429
   83MOL0     C11127   7.880   9.902   8.980  0.4425  0.1766 -0.2223
   83MOL0     C11128   7.982   9.980   9.042  0.0110  0.1625 -0.1041
   83MOL0     O11129   8.110   9.991   9.005 -0.3454 -0.2915  0.5587
   83MOL0     C11130   8.171   9.897   8.911  0.2529 -0.5512 -0.3604
   83MOL0     C11131   8.216   9.769   8.974 -0.2338 -0.1348 -0.6195
   83MOL0     C11132   8.310   9.802   9.094 -0.8183 -0.1332  0.6329
   83MOL0     C11133   8.380   9.681   9.145 -0.1537 -0.0219  0.0959
   83MOL0     C11134   8.296   9.560   9.157  0.0037  0.1582  0.3230
   83MOL0     C11135   8.225   9.465   9.140 -0.1168 -1.2236 -1.0317
   83MOL0     C11136   7.936  10.060   9.153  0.5162 -0.2289  0.0971
   83MOL0     C11137   7.799  10.068   9.188 -0.5181 -0.0709 -0.8951
   83MOL0     H11138   7.356   9.703   9.256  0.1995  0.1435 -1.2280
   83MOL0     H11139   7.127   9.691   9.305 -1.7902  1.1937  1.4483
   83MOL0     H11140   6.977   9.781   9.484  2.4158  2.3197  1.2369
   83MOL0     H11141   6.983   9.940   9.494  1.9060 -0.7450 -0.2653
   83MOL0     H11142   6.715   9.834   9.403 -0.3643  1.3032 -0.7250
   83MOL0     H11143   6.759   9.841   9.575  1.9189 -0.2767  0.0816
   83MOL0     H11144   6.771  10.107   9.532 -0.3433  0.1910 -1.7873
   83MOL0     H11145   6.753  10.073   9.369 -2.7325 -0.8583 -1.3849
   83MOL0     H11146   6.525  10.126   9.404 -0.9467 -0.2560 -0.5594
   83MOL0     H11147   6.505   9.963   9.453  1.3348 -1.7768 -1.3976
   83MOL0     H11148   6.528  10.209   9.629 -5.0142 -0.1705 -1.6698
   83MOL0     H11149   6.427  10.065   9.626  0.1962 -1.2884 -3.5164
   83MOL0     H11150   6.598   9.942   9.742 -1.3465 -0.3587 -0.7261
   83MOL0     H11151   6.708  10.078   9.751 -1.0102  1.0060  0.6762
   83MOL0     H11152   6.435  10.062   9.877  0.7780 -1.5838  0.8763
   83MOL0     H11153   6.605  10.050   9.951  1.0586 -2.4595 -1.3088
   83MOL0     H11154   6.506  10.316   9.813  4.3258  0.0329 -3.1265
   83MOL0     H11155   6.651  10.290   9.884 -1.1411  2.9672 -1.7369
   83MOL0     H11156   6.291  10.373  10.022  0.6065  0.3452  0.8773
   83MOL0     H11157   6.343  10.411  10.399  1.1097  0.2784  0.2918
   83MOL0     H11158   6.271  10.504  10.261  0.7155 -0.1103  0.1787
   83MOL0     H11159   6.224  10.209  10.300  2.9783  1.0967 -2.1715
   83MOL0     H11160   6.127  10.317  10.200  0.5949 -1.1639  0.4488
   83MOL0     H11161   5.983  10.283  10.379  1.1577 -1.4884 -3.3618
   83MOL0     H11162   6.044  10.447  10.388  0.8749 -0.0483 -2.6370
   83MOL0     H11163   6.193  10.400  10.569  2.0300 -1.8999  2.3722
   83MOL0     H11164   6.142  10.222  10.566 -2.1183 -0.5932 -0.0747
   83MOL0     H11165   5.929  10.107  10.563 -1.9629  1.0283 -1.2773
   83MOL0     H11166   5.684   9.935  10.587  0.2725  1.0928  0.6477
   83MOL0     H11167   5.850   9.899  10.573  0.9902  1.6120 -0.8007
   83MOL0     H11168   5.774   9.840  10.714 -3.3147 -0.0659 -0.4481
   83MOL0     H11169   5.348   9.998  11.038  1.4042  1.6476  0.7400
   83MOL0     H11170   5.264   9.786  11.161  1.1416 -0.7490 -0.4458
   83MOL0     H11171   5.513   9.636  11.479  1.1778  1.7040 -3.8488
   83MOL0     H11172   5.365   9.529  11.482 -0.5584 -0.9466 -1.3659
   83MOL0     H11173   5.605   9.509  11.287  0.2592  1.6235  2.1957
   83MOL0     H11174   5.584   9.401  11.423  0.1151  2.0464  1.3984
   83MOL0     H11175   5.519   9.316  11.205  1.3595 -0.9148  1.9694
   83MOL0     H11176   5.389   9.436  11.192 -0.4368 -2.7839 -1.8818
   83MOL0     H11177   5.434   9.240  11.428  0.0321  1.2803  0.6617
   83MOL0     H11178   5.289   9.341  11.408  0.2677  2.5613 -2.2688
   83MOL0     H11179   5.375   9.090  11.275 -0.3710 -0.1458  0.9218
   83MOL0     H11180   5.314   9.206  11.153  1.3981  0.4803  0.4349
   83MOL0     H11181   5.190   9.088  11.412 -0.3940  4.6404  2.1430
   83MOL0     H11182   5.107   9.203  11.304 -1.3167 -1.2030 -0.3483
   83MOL0     H11183   5.103   9.056  11.110 -1.4750  0.7893  0.1273
   83MOL0     H11184   5.000   8.991  11.244  0.3344 -1.9751  0.1311
   83MOL0     H11185   5.193   8.835  11.299 -0.7155 -1.4039 -0.5333
   83MOL0     H11186   5.283   8.905  11.165  0.6640  1.3812  0.1454
   83MOL0     H11187   5.629   9.754  11.355 -1.6305 -1.0422  1.5704
   83MOL0     H11188   5.733   9.939  11.226 -0.3314 -0.2777 -2.3724
   83MOL0     H11189   5.706  10.280  10.952 -0.1281  1.1085  0.5833
   83MOL0     H11190   5.867  10.428  10.836 -0.4859  1.5206 -1.1291
   83MOL0     H11191   7.066  10.106   9.167 -0.0490  0.3215 -2.6886
   83MOL0     H11192   7.317  10.091   9.084  2.2942  0.9530  2.6022
   83MOL0     H11193   7.662   9.868   8.955 -2.5990  0.0714  2.6774
   83MOL0     H11194   7.911   9.848   8.892  1.3162  1.6376 -0.8319
   83MOL0     H11195   8.113   9.885   8.819  2.7552 -0.2646 -2.1026
   83MOL0     H11196   8.257   9.957   8.879  1.0277 -1.1959  0.4545
   83MOL0     H11197   8.258   9.708   8.894  0.2199 -1.8622  0.8648
   83MOL0     H11198   8.128   9.717   9.014 -0.6345  2.0973  1.7160
   83MOL0     H11199   8.261   9.857   9.175  1.7982  2.0860  0.8390
   83MOL0     H11200   8.387   9.871   9.060 -2.9748  2.2565  0.3000
   83MOL0     H11201   8.422   9.704   9.244 -1.2256  0.2332  0.5014
   83MOL0     H11202   8.460   9.674   9.070  0.4601 -0.2666  0.7597
   83MOL0     H11203   8.150   9.393   9.113 -2.8376  0.9457  0.1703
   83MOL0     H11204   7.989  10.141   9.202  0.0766  1.3853 -1.9198
   83MOL0     H11205   7.779  10.148   9.258  1.8878 -1.0750  1.1027
   84MOL0     O11206   3.418  10.875   9.509  0.2106 -0.3647 -0.3371
   84MOL0     C11207   3.386  10.759   9.525  0.2794 -0.4203 -1.2691
   84MOL0     O11208   3.308  10.704   9.627  0.2937  0.4134  0.3765
   84MOL0     C11209   3.269  10.788   9.727  0.3664 -0.8624  0.1424
   84MOL0     C11210   3.365  10.845   9.813 -1.3334 -0.1309  1.6156
   84MOL0     C11211   3.337  10.936   9.909  0.1357 -0.0052 -1.2258
   84MOL0     C11212   3.202  10.975   9.921 -0.6382  0.4765 -0.3114
   84MOL0     O11213   3.183  11.072  10.011 -0.4455 -0.0473  0.3121
   84MOL0     C11214   3.073  11.069  10.108  0.0227 -0.6041 -0.4842
   84MOL0     C11215   3.087  10.946  10.204  0.0321 -0.4908  0.3290
   84MOL0     C11216   2.986  10.960  10.318  0.3229 -0.4428  0.4251
   84MOL0     C11217   2.847  11.015  10.283 -0.8742 -0.1015  0.2554
   84MOL0     C11218   2.745  10.999  10.392 -0.4668  0.9186  0.8220
   84MOL0     C11219   2.694  10.853  10.386 -0.5072  0.0630 -0.0917
   84MOL0     C11220   2.566  10.844  10.474 -0.6703 -0.4479 -0.2121
   84MOL0     C11221   2.443  10.893  10.406  0.1799  0.0415  0.8314
   84MOL0     N11222   2.417  10.839  10.271 -0.2787 -0.1894 -0.0521
   84MOL0     C11223   2.403  10.708  10.255 -0.0711  0.0764 -0.3745
   84MOL0     C11224   2.380  10.696  10.118  0.8181  0.2762  0.1311
   84MOL0     C11225   2.395  10.563  10.048 -0.5366  0.0987 -0.6674
   84MOL0     C11226   2.531  10.494  10.058 -0.3086 -0.1454 -1.0718
   84MOL0     C11227   2.643  10.570   9.977  0.0487 -0.2579 -0.2354
   84MOL0     C11228   2.665  10.540   9.836 -0.0028  0.1659  0.6864
   84MOL0     O11229   2.717  10.405   9.815 -0.0063 -0.3909 -0.5949
   84MOL0     C11230   2.701  10.361   9.688  0.4058  0.2468  0.3715
   84MOL0     C11231   2.713  10.231   9.659  0.2564  0.6687 -0.3401
   84MOL0     C11232   2.669  10.178   9.535  0.0758 -0.5361 -0.6983
   84MOL0     C11233   2.663  10.037   9.528  1.2604  0.4680  0.3308
   84MOL0     C11234   2.622  10.260   9.429 -1.2453  1.0658 -0.1277
   84MOL0     C11235   2.572  10.203   9.298  0.4745  0.9310  0.2756
   84MOL0     O11236   2.500  10.291   9.223  0.3020  0.1589 -0.2918
   84MOL0     C11237   2.443  10.248   9.112 -0.9618 -0.3639 -0.4015
   84MOL0     C11238   2.455  10.340   9.013 -0.1404 -0.4028  0.2612
   84MOL0     C11239   2.398  10.316   8.884  0.4273  0.0065  0.2299
   84MOL0     C11240   2.323  10.196   8.866 -0.3438 -0.8086  0.3157
   84MOL0     O11241   2.243  10.164   8.755  0.0200 -0.3559 -0.4862
   84MOL0     C11242   2.316  10.142   8.634  0.0648 -0.7476  0.4190
   84MOL0     C11243   2.289  10.000   8.604 -0.0050  0.7819  0.7272
   84MOL0     C11244   2.347   9.958   8.474  0.2708 -0.1970  0.0236
   84MOL0     C11245   2.329   9.806   8.457 -0.1223  0.9029 -0.4192
   84MOL0     C11246   2.431   9.757   8.346  0.3401  0.8048  0.7768
   84MOL0     C11247   2.552   9.705   8.414  0.1438  0.5063 -0.4131
   84MOL0     C11248   2.656   9.631   8.317 -0.3930  0.6309  0.7010
   84MOL0     C11249   2.685   9.683   8.172  0.5441 -0.1597  0.5523
   84MOL0    Cl11250   2.720   9.850   8.162 -0.1909 -0.4382 -0.1455
   84MOL0     C11251   2.306  10.104   8.969  0.7555 -0.0939 -0.2182
   84MOL0     C11252   2.370  10.130   9.093  0.5560  0.1512  0.2236
   84MOL0     O11253   2.598  10.082   9.270  0.5928 -0.8000  0.4107
   84MOL0     C11254   2.642  10.396   9.453  0.6959 -0.2538  0.3253
   84MOL0     C11255   2.674  10.443   9.582  0.0964 -0.2999  0.2684
   84MOL0     N11256   2.367  10.818  10.064  0.3736 -0.2737  0.3105
   84MOL0     N11257   2.393  10.906  10.156  0.0364  0.5104 -0.4600
   84MOL0     C11258   3.096  10.918   9.849 -0.3286 -0.8725  0.2151
   84MOL0     C11259   3.136  10.825   9.753 -0.6782  0.6070  0.1697
   84MOL0     C11260   3.415  10.657   9.422  0.6743  0.1365 -0.5694
   84MOL0     C11261   3.455  10.687   9.293  0.2521 -0.0694 -0.1803
   84MOL0     C11262   3.476  10.584   9.204 -0.0674 -0.3883 -0.0547
   84MOL0     C11263   3.474  10.450   9.233  0.3038  0.1104 -0.4968
   84MOL0     O11264   3.506  10.369   9.131 -0.2198  0.3859 -0.1645
   84MOL0     C11265   3.477  10.229   9.156 -0.4274  0.0909  0.3063
   84MOL0     C11266   3.512  10.155   9.028 -0.1788  0.0886 -1.0827
   84MOL0     C11267   3.440  10.180   8.900  0.4601  0.3542  0.1353
   84MOL0     C11268   3.298  10.225   8.927  0.5711 -0.7405 -0.6904
   84MOL0     C11269   3.210  10.233   8.813 -0.0918  0.2522 -0.8138
   84MOL0     C11270   3.151  10.226   8.709  0.6946 -0.6465  0.3551
   84MOL0     C11271   3.452  10.418   9.366 -0.1180 -0.0878 -0.4354
   84MOL0     C11272   3.427  10.522   9.462  0.4932 -0.7090 -0.4963
   84MOL0     H11273   3.473  10.839   9.806 -1.4603 -2.6311  0.8721
   84MOL0     H11274   3.413  10.976   9.975 -3.5154  1.9262  2.2271
   84MOL0     H11275   3.081  11.167  10.156  1.1647 -0.8287 -0.2031
   84MOL0     H11276   2.980  11.058  10.052 -0.5441  1.6027 -0.0660
   84MOL0     H11277   3.071  10.854  10.147  0.2348  1.3751 -3.0171
   84MOL0     H11278   3.185  10.943  10.252 -0.8424 -0.0428  2.2317
   84MOL0     H11279   2.966  10.860  10.356  0.4711 -0.2868  0.9250
   84MOL0     H11280   3.028  11.022  10.398  0.4583 -0.7334  0.5804
   84MOL0     H11281   2.874  11.120  10.285 -0.2847 -0.2267  3.2396
   84MOL0     H11282   2.811  10.980  10.185  2.8755 -1.9922 -0.6348
   84MOL0     H11283   2.773  11.029  10.494  0.2812  3.4151 -0.0451
   84MOL0     H11284   2.671  11.076  10.366  0.2692  1.4040  0.1390
   84MOL0     H11285   2.667  10.829  10.283  1.3369  0.0651 -0.6090
   84MOL0     H11286   2.765  10.785  10.435 -0.4956 -0.9575 -1.4645
   84MOL0     H11287   2.537  10.744  10.505 -0.2846 -0.0795  1.4031
   84MOL0     H11288   2.584  10.913  10.556  2.7405  0.5487 -1.5766
   84MOL0     H11289   2.433  11.002  10.405  0.8425  0.1095 -0.2463
   84MOL0     H11290   2.358  10.861  10.467 -2.6823  0.3163 -2.6878
   84MOL0     H11291   2.440  10.635  10.327  0.8935  0.1437 -0.7949
   84MOL0     H11292   2.328  10.489  10.093  0.9571 -3.1433 -3.3366
   84MOL0     H11293   2.376  10.577   9.942 -1.1949 -0.4256 -0.6302
   84MOL0     H11294   2.526  10.387  10.034  1.5068 -0.6243  0.4654
   84MOL0     H11295   2.571  10.493  10.160 -1.5320 -1.4588 -0.5624
   84MOL0     H11296   2.730  10.539  10.036 -1.5179 -1.2311  1.6753
   84MOL0     H11297   2.626  10.677   9.986  1.7711  0.1545 -1.3318
   84MOL0     H11298   2.744  10.605   9.797  0.2473  0.4527  1.6382
   84MOL0     H11299   2.565  10.540   9.793  0.1068 -6.0961 -0.4465
   84MOL0     H11300   2.730  10.167   9.745  0.8237  0.2724 -0.7377
   84MOL0     H11301   2.683   9.983   9.621 -2.3015  0.8602  1.4448
   84MOL0     H11302   2.561  10.003   9.507  1.4062  0.9914 -1.4578
   84MOL0     H11303   2.716   9.989   9.444 -0.7317 -0.7018 -0.3453
   84MOL0     H11304   2.518  10.428   9.009 -0.9012  0.1901  0.9238
   84MOL0     H11305   2.428  10.380   8.802  2.3105 -3.1914 -1.7986
   84MOL0     H11306   2.262  10.196   8.556  0.4939 -1.8013 -0.6463
   84MOL0     H11307   2.422  10.168   8.639 -0.4149  1.3620  0.5187
   84MOL0     H11308   2.338   9.944   8.684 -0.9814  0.4128  1.0883
   84MOL0     H11309   2.180   9.992   8.609 -0.1702  2.2548  0.0826
   84MOL0     H11310   2.453   9.982   8.485  0.7793 -2.7220  1.6961
   84MOL0     H11311   2.307  10.022   8.395  4.6538 -1.2588 -3.4571
   84MOL0     H11312   2.330   9.753   8.552 -1.5547  2.0634  0.2918
   84MOL0     H11313   2.228   9.785   8.420 -1.9257  4.4084  1.9301
   84MOL0     H11314   2.455   9.843   8.283  1.3508 -0.1316 -0.1463
   84MOL0     H11315   2.393   9.684   8.275  1.2024  3.2516 -2.4072
   84MOL0     H11316   2.603   9.790   8.461 -0.0910 -1.1846  3.3058
   84MOL0     H11317   2.520   9.634   8.491 -1.7406  0.4678 -1.1648
   84MOL0     H11318   2.623   9.531   8.289  2.6720 -0.6112  1.1421
   84MOL0     H11319   2.751   9.625   8.372  0.1116  1.4471 -0.0582
   84MOL0     H11320   2.604   9.647   8.108  0.6316 -0.1485  0.4360
   84MOL0     H11321   2.773   9.634   8.130  0.2887 -0.1411 -0.0219
   84MOL0     H11322   2.238  10.020   8.961  2.0152 -0.9593 -3.2551
   84MOL0     H11323   2.368  10.046   9.161  1.3942 -0.8320 -0.9181
   84MOL0     H11324   2.626  10.460   9.367  1.1829 -0.9577 -0.2984
   84MOL0     H11325   2.664  10.551   9.587  0.6526 -0.2341  0.0297
   84MOL0     H11326   2.991  10.929   9.876 -0.6099 -2.9000  0.0814
   84MOL0     H11327   3.058  10.778   9.694  0.3350  0.6421 -1.2485
   84MOL0     H11328   3.469  10.789   9.257 -0.3020  0.4859  1.0718
   84MOL0     H11329   3.495  10.612   9.101 -3.8331  1.8448 -0.3376
   84MOL0     H11330   3.527  10.183   9.242  0.9149 -2.9004 -1.9095
   84MOL0     H11331   3.372  10.213   9.184 -0.9403 -1.3187 -2.0889
   84MOL0     H11332   3.476  10.052   9.036 -1.6966  0.6288 -0.5651
   84MOL0     H11333   3.620  10.148   9.011  0.0204  1.1424 -0.3769
   84MOL0     H11334   3.438  10.099   8.827 -1.4421 -1.1681  1.7515
   84MOL0     H11335   3.485  10.264   8.847  1.9387  1.0271  2.3297
   84MOL0     H11336   3.301  10.325   8.970 -1.2013 -0.9923  0.1143
   84MOL0     H11337   3.258  10.156   9.002  0.5881 -1.5738 -1.4330
   84MOL0     H11338   3.088  10.238   8.624  2.9663  0.2860 -1.3184
   84MOL0     H11339   3.460  10.318   9.406  2.1644  1.0857  2.4718
   84MOL0     H11340   3.403  10.497   9.565 -0.6588 -1.3308 -0.8831
   85MOL0     O11341   0.540   9.731  10.954  0.2873 -0.3242 -0.3133
   85MOL0     C11342   0.542   9.843  10.989  0.5855 -0.3230 -0.4136
   85MOL0     O11343   0.516   9.899  11.110 -1.2184  0.0959 -0.7385
   85MOL0     C11344   0.488   9.835  11.223 -0.0431  0.1063 -0.9724
   85MOL0     C11345   0.452   9.696  11.236  0.9134 -0.5281  1.1486
   85MOL0     C11346   0.408   9.651  11.361 -0.4337  0.3086  0.5164
   85MOL0     C11347   0.417   9.736  11.475  0.5104 -0.4143  0.2683
   85MOL0     O11348   0.413   9.688  11.604 -0.3037 -0.4581 -0.4241
   85MOL0     C11349   0.454   9.544  11.632 -0.1071 -0.3068  0.4652
   85MOL0     C11350   0.510   9.536  11.780 -0.5192 -0.1624  0.0534
   85MOL0     C11351   0.406   9.579  11.890 -0.8845 -0.5094  0.3813
   85MOL0     C11352   0.471   9.581  12.028  0.1779 -1.5466 -1.3027
   85MOL0     C11353   0.380   9.649  12.134 -0.1087 -0.6939  0.5162
   85MOL0     C11354   0.430   9.633  12.272 -0.6247  0.5040  0.1539
   85MOL0     C11355   0.326   9.704  12.369  0.4692  0.3180 -0.6873
   85MOL0     C11356   0.179   9.653  12.394 -0.5556 -0.1781  0.6952
   85MOL0     N11357   0.100   9.666  12.271 -0.5279  0.4275  0.6160
   85MOL0     C11358   0.066   9.778  12.203 -0.5204  0.8577 -0.7668
   85MOL0     C11359  -0.012   9.735  12.096 -0.1105 -0.1185  0.0556
   85MOL0     C11360  -0.090   9.802  11.985  0.1431 -0.5429  0.1646
   85MOL0     C11361  -0.017   9.909  11.912 -0.6509  0.7030  0.5275
   85MOL0     C11362   0.116   9.851  11.840  0.9628 -0.6918  0.6088
   85MOL0     C11363   0.214   9.953  11.784 -0.5033 -0.3856 -0.7823
   85MOL0     O11364   0.144  10.040  11.692  0.1950  0.3093  0.5471
   85MOL0     C11365   0.199  10.133  11.617  0.7175  0.4983  0.4790
   85MOL0     C11366   0.113  10.203  11.528 -0.1563  1.0194  0.3216
   85MOL0     C11367   0.172  10.294  11.436 -0.2147  0.4374 -0.5997
   85MOL0     C11368   0.073  10.366  11.344  1.1709 -0.0226 -0.3772
   85MOL0     C11369   0.303  10.338  11.447 -0.7953 -0.5960 -0.4438
   85MOL0     C11370   0.367  10.442  11.364  0.4402 -1.1199 -0.7458
   85MOL0     O11371   0.428  10.541  11.428 -1.1429 -0.1418 -0.4743
   85MOL0     C11372   0.483  10.643  11.365 -0.7066 -0.4073 -0.0014
   85MOL0     C11373   0.608  10.694  11.409  1.3535 -0.3687  0.5918
   85MOL0     C11374   0.662  10.811  11.361  0.0047  0.5964  0.9691
   85MOL0     C11375   0.597  10.884  11.262  0.1019  0.0106 -0.2827
   85MOL0     O11376   0.631  11.006  11.213  0.6513 -0.3153  0.2911
   85MOL0     C11377   0.772  11.019  11.187  0.0631  0.5058 -0.1165
   85MOL0     C11378   0.816  11.161  11.137 -0.4636  1.0040  0.2814
   85MOL0     C11379   0.757  11.179  10.996  0.0474 -0.2478  0.6637
   85MOL0     C11380   0.797  11.317  10.931 -0.3031  0.0355 -0.1213
   85MOL0     C11381   0.738  11.338  10.794 -0.9240  0.3034 -0.1303
   85MOL0     C11382   0.805  11.458  10.745 -0.1183 -0.5058  0.8459
   85MOL0     C11383   0.767  11.487  10.592  0.1114  0.4647  0.5855
   85MOL0     C11384   0.830  11.618  10.553  0.4154  0.4733 -0.0931
   85MOL0    Cl11385   1.000  11.604  10.498  0.0656 -0.2273  0.0123
   85MOL0     C11386   0.475  10.832  11.210 -0.3470 -0.0854  0.7320
   85MOL0     C11387   0.418  10.710  11.257  0.7387  0.0864 -0.2244
   85MOL0     O11388   0.355  10.425  11.245  0.4938 -0.4302  0.0059
   85MOL0     C11389   0.383  10.276  11.554  0.4332 -0.5134  0.5937
   85MOL0     C11390   0.336  10.175  11.632  0.1171  0.2139 -0.2963
   85MOL0     N11391  -0.030   9.595  12.105  0.3825 -0.3609 -0.1868
   85MOL0     N11392   0.040   9.561  12.211 -0.1890  0.4183 -0.2568
   85MOL0     C11393   0.438   9.868  11.461 -0.6756  0.5979  1.0428
   85MOL0     C11394   0.475   9.920  11.335 -0.0577  0.0721 -0.5273
   85MOL0     C11395   0.565   9.949  10.893 -0.0130 -0.3310  0.0691
   85MOL0     C11396   0.607   9.925  10.762  0.4495  0.0487  0.5964
   85MOL0     C11397   0.622  10.021  10.661 -0.2391 -0.4022 -0.6016
   85MOL0     C11398   0.600  10.154  10.689 -0.6337 -1.1485 -0.5532
   85MOL0     O11399   0.618  10.230  10.570 -1.0012  0.0761 -0.1848
   85MOL0     C11400   0.589  10.372  10.571  0.2185  0.6189  0.1813
   85MOL0     C11401   0.711  10.459  10.566  0.6555  0.1709  0.4216
   85MOL0     C11402   0.789  10.419  10.433  0.3356 -0.2440 -0.6187
   85MOL0     C11403   0.929  10.479  10.430 -0.4477 -0.8490 -0.0978
   85MOL0     C11404   1.025  10.406  10.514  0.1158  0.7869 -0.0353
   85MOL0     C11405   1.108  10.356  10.594 -0.2325  0.2730  0.6150
   85MOL0     C11406   0.563  10.184  10.821 -0.9621  0.0071  0.1918
   85MOL0     C11407   0.540  10.081  10.924 -0.4738 -0.6794  1.2003
   85MOL0     H11408   0.443   9.634  11.147 -0.3153 -1.3640  1.8241
   85MOL0     H11409   0.373   9.549  11.375 -1.4302  0.6376  0.4798
   85MOL0     H11410   0.367   9.478  11.624  0.6210 -1.4752  1.5424
   85MOL0     H11411   0.530   9.505  11.565  1.4803 -0.2327  2.1345
   85MOL0     H11412   0.538   9.434  11.809  0.2298  0.3893  1.3224
   85MOL0     H11413   0.604   9.591  11.792 -1.7649  1.4920  3.3313
   85MOL0     H11414   0.369   9.678  11.859 -0.1958 -0.2185  0.4815
   85MOL0     H11415   0.320   9.512  11.890 -0.5825 -0.9245 -1.0343
   85MOL0     H11416   0.503   9.484  12.066  0.6152 -1.1597 -0.6462
   85MOL0     H11417   0.560   9.645  12.024 -0.2491 -0.8166  0.1765
   85MOL0     H11418   0.362   9.756  12.115 -2.2826 -1.0544  0.2263
   85MOL0     H11419   0.282   9.602  12.120  1.2734 -3.2273 -1.5176
   85MOL0     H11420   0.424   9.525  12.286 -2.6189  0.1299 -2.7893
   85MOL0     H11421   0.535   9.659  12.292 -0.2836  0.3383 -1.2991
   85MOL0     H11422   0.360   9.698  12.473 -1.4875 -0.8863 -0.0684
   85MOL0     H11423   0.317   9.808  12.337 -1.8358  0.3389 -0.1671
   85MOL0     H11424   0.138   9.695  12.487 -0.7182  1.2307  0.0102
   85MOL0     H11425   0.189   9.545  12.413  2.1164 -0.3044 -0.9077
   85MOL0     H11426   0.101   9.879  12.221  1.1207  0.0412  0.9650
   85MOL0     H11427  -0.114   9.729  11.907 -2.3367  0.4729 -0.1055
   85MOL0     H11428  -0.182   9.840  12.028  0.1583 -0.0169 -0.2611
   85MOL0     H11429   0.001   9.991  11.982 -0.5260 -0.1164  1.4767
   85MOL0     H11430  -0.075   9.941  11.824  1.2272 -0.3815 -1.2044
   85MOL0     H11431   0.090   9.791  11.752 -0.8211  0.1844  0.5077
   85MOL0     H11432   0.169   9.789  11.914  1.4486 -0.7522  0.2178
   85MOL0     H11433   0.288   9.895  11.727 -0.8880 -0.8737 -0.7907
   85MOL0     H11434   0.255  10.005  11.870  0.3879 -0.6531 -1.0326
   85MOL0     H11435   0.010  10.171  11.523  0.4232 -0.8041 -2.9939
   85MOL0     H11436   0.096  10.341  11.241  1.0111 -3.3446  0.2791
   85MOL0     H11437  -0.026  10.325  11.364  0.2531  2.1461 -0.1604
   85MOL0     H11438   0.068  10.473  11.365  0.3985  0.1624 -1.4773
   85MOL0     H11439   0.657  10.631  11.483  0.3754 -2.2548 -0.2957
   85MOL0     H11440   0.758  10.832  11.406  1.0216 -0.8345 -0.4175
   85MOL0     H11441   0.820  11.015  11.285  2.5754  2.0168 -1.1971
   85MOL0     H11442   0.790  10.934  11.120 -4.0082 -1.1540  0.5689
   85MOL0     H11443   0.785  11.237  11.209 -0.5073  0.4555  0.8592
   85MOL0     H11444   0.925  11.158  11.130 -0.3548 -3.9563  0.1274
   85MOL0     H11445   0.648  11.175  10.991 -0.0764  1.1018  1.5901
   85MOL0     H11446   0.796  11.104  10.926 -2.7664  0.5602 -1.9945
   85MOL0     H11447   0.766  11.400  10.995  1.3175  0.2257  0.4497
   85MOL0     H11448   0.906  11.319  10.932 -0.2704 -1.1568  0.1689
   85MOL0     H11449   0.630  11.347  10.810 -0.6460  0.3853  2.0753
   85MOL0     H11450   0.756  11.251  10.731  0.4986 -0.9353  1.8584
   85MOL0     H11451   0.768  11.545  10.801 -2.6336 -0.3321 -0.9040
   85MOL0     H11452   0.913  11.443  10.746 -0.0931 -0.5024 -0.4796
   85MOL0     H11453   0.658  11.498  10.588  0.2936  2.0159 -1.6869
   85MOL0     H11454   0.804  11.407  10.527 -0.0747  1.0272 -0.2319
   85MOL0     H11455   0.833  11.697  10.628  4.2466 -0.3988  0.8439
   85MOL0     H11456   0.778  11.663  10.467  1.2000  1.6239  0.0158
   85MOL0     H11457   0.431  10.891  11.130 -2.0836  0.3594  1.9451
   85MOL0     H11458   0.321  10.665  11.236 -0.8237  2.1647  1.9629
   85MOL0     H11459   0.489  10.296  11.560  0.3280 -0.2633  3.6011
   85MOL0     H11460   0.400  10.110  11.690 -1.5545 -0.6161  0.6766
   85MOL0     H11461   0.448   9.924  11.553 -1.8196  0.9670  0.9527
   85MOL0     H11462   0.510  10.022  11.329  3.4388 -1.0044 -0.5362
   85MOL0     H11463   0.625   9.824  10.727  1.7906  0.3766  0.2826
   85MOL0     H11464   0.655   9.975  10.569  0.4436  2.8807 -2.1244
   85MOL0     H11465   0.521  10.391  10.488  0.8839  1.6144 -0.1446
   85MOL0     H11466   0.534  10.407  10.659  0.7389  2.4529 -0.1956
   85MOL0     H11467   0.771  10.451  10.657 -1.7707  1.6003  2.2683
   85MOL0     H11468   0.669  10.560  10.561 -1.5629 -0.7807 -2.6590
   85MOL0     H11469   0.735  10.458  10.346 -1.8482 -0.3891  0.6047
   85MOL0     H11470   0.787  10.310  10.425 -2.1480 -0.3139  0.1590
   85MOL0     H11471   0.907  10.581  10.462 -2.2400 -1.4299  0.6458
   85MOL0     H11472   0.974  10.482  10.330  0.0986  0.1259  0.1697
   85MOL0     H11473   1.150  10.339  10.690 -1.7013  1.7539  1.5887
   85MOL0     H11474   0.562  10.291  10.836  2.5040  0.3707 -1.3206
   85MOL0     H11475   0.493  10.119  11.014 -1.9186  0.3056  0.0744
   86MOL0     O11476   9.532   0.722   5.508  0.1892  0.2733 -0.6155
   86MOL0     C11477   9.556   0.702   5.390  0.6387 -0.3986  0.4920
   86MOL0     O11478   9.659   0.754   5.319 -0.0758  0.0965  0.1808
   86MOL0     C11479   9.734   0.857   5.370  0.1401  1.2086 -0.2771
   86MOL0     C11480   9.864   0.842   5.419 -0.1080 -0.2281  0.1867
   86MOL0     C11481   9.939   0.949   5.454 -0.0737  0.4772 -0.2272
   86MOL0     C11482   9.886   1.078   5.433 -0.5025 -0.3407 -0.0918
   86MOL0     O11483   9.968   1.184   5.461  0.3771  0.5031 -0.5188
   86MOL0     C11484   9.935   1.316   5.423  0.0211 -0.3922 -0.0121
   86MOL0     C11485  10.049   1.410   5.469 -0.3957  0.3535 -0.9064
   86MOL0     C11486  10.141   1.444   5.347  0.3454 -0.5106  0.4799
   86MOL0     C11487  10.246   1.346   5.303  0.5065 -0.1173  1.1636
   86MOL0     C11488  10.356   1.400   5.219  0.9484  0.3979  0.1069
   86MOL0     C11489  10.289   1.471   5.097  0.1986 -0.3933 -0.1947
   86MOL0     C11490  10.399   1.488   4.981 -0.1112 -0.0747 -0.2603
   86MOL0     C11491  10.341   1.575   4.876 -0.4362 -1.0986  0.9934
   86MOL0     N11492  10.432   1.614   4.760  0.7668  0.3706  0.3120
   86MOL0     C11493  10.559   1.674   4.778 -1.0385  0.1839 -0.5774
   86MOL0     C11494  10.621   1.659   4.655 -0.0719  0.6456  0.3163
   86MOL0     C11495  10.756   1.715   4.607  0.2417 -0.0387  0.1636
   86MOL0     C11496  10.805   1.660   4.479  0.4863 -0.3536  0.9388
   86MOL0     C11497  10.941   1.716   4.452  0.1236  0.4658  0.4598
   86MOL0     C11498  11.052   1.664   4.542  0.6477  0.4049  0.0170
   86MOL0     O11499  11.040   1.525   4.570 -0.2475  0.2042  0.8268
   86MOL0     C11500  11.137   1.467   4.642 -0.3928  0.2847  0.1854
   86MOL0     C11501  11.187   1.344   4.604 -0.3883  0.5481 -0.5276
   86MOL0     C11502  11.278   1.276   4.685 -0.7284  0.5865  0.2633
   86MOL0     C11503  11.313   1.142   4.635 -0.4663 -0.9709  0.2706
   86MOL0     C11504  11.330   1.330   4.807 -0.1914  0.4928  0.1611
   86MOL0     C11505  11.424   1.260   4.899  0.1214  0.9475 -0.4377
   86MOL0     O11506  11.442   1.311   5.017 -0.3068  0.5244  0.6452
   86MOL0     C11507  11.536   1.274   5.104 -0.0397  0.1300  0.0805
   86MOL0     C11508  11.669   1.238   5.072 -0.9906  0.5987  0.3989
   86MOL0     C11509  11.763   1.210   5.172  0.1394 -0.2476  0.2403
   86MOL0     C11510  11.737   1.223   5.302  0.4961  0.1430  0.2309
   86MOL0     O11511  11.819   1.204   5.414  0.4783 -0.7866 -0.0384
   86MOL0     C11512  11.963   1.203   5.376 -0.3009 -0.3876  0.9674
   86MOL0     C11513  12.062   1.202   5.489  0.1083  1.0577 -0.1755
   86MOL0     C11514  12.140   1.076   5.535 -0.7778 -0.4307  0.2152
   86MOL0     C11515  12.233   0.998   5.442  0.0528  0.1923 -0.0247
   86MOL0     C11516  12.269   1.052   5.308  0.1823 -0.0815  1.4706
   86MOL0     C11517  12.290   0.957   5.192  0.2107  0.5895  0.1737
   86MOL0     C11518  12.302   1.020   5.057 -1.0521  0.0436 -0.2681
   86MOL0     C11519  12.218   0.929   4.963 -0.4313 -0.0175  0.2708
   86MOL0    Cl11520  12.042   0.977   4.999 -0.1302 -0.2212  0.4146
   86MOL0     C11521  11.604   1.248   5.330  0.4275 -0.1002  0.0286
   86MOL0     C11522  11.500   1.280   5.239  0.3076  0.2412  0.4191
   86MOL0     O11523  11.468   1.148   4.867 -0.2140  0.7053 -0.2479
   86MOL0     C11524  11.282   1.463   4.837 -0.0290  0.1412 -0.0623
   86MOL0     C11525  11.181   1.527   4.765 -0.3948  1.1775 -0.2332
   86MOL0     N11526  10.536   1.579   4.571  0.1821  0.6501 -0.1189
   86MOL0     N11527  10.428   1.553   4.636  0.8924 -0.6800  0.7020
   86MOL0     C11528   9.754   1.096   5.389  0.0556 -0.5803 -0.7753
   86MOL0     C11529   9.680   0.987   5.364  0.1977  0.6146  0.2890
   86MOL0     C11530   9.460   0.619   5.325 -0.6393 -0.0811 -0.9269
   86MOL0     C11531   9.461   0.616   5.188 -0.3996  0.1483  0.2069
   86MOL0     C11532   9.395   0.511   5.121 -0.4597  0.1257 -0.4041
   86MOL0     C11533   9.306   0.435   5.187 -0.5081 -0.6257  0.0736
   86MOL0     O11534   9.230   0.361   5.099  0.0587  0.1664 -0.8772
   86MOL0     C11535   9.127   0.275   5.145 -1.0257 -0.0094  0.6971
   86MOL0     C11536   9.049   0.243   5.023 -0.2486 -0.2183 -0.0783
   86MOL0     C11537   9.138   0.182   4.911 -0.7258  0.5472 -0.0980
   86MOL0     C11538   9.061   0.098   4.804  0.7798 -0.8458  0.3042
   86MOL0     C11539   9.045  -0.031   4.864  0.4342  0.5089 -0.4702
   86MOL0     C11540   9.034  -0.131   4.917 -0.6009 -0.3584  0.0797
   86MOL0     C11541   9.291   0.441   5.328 -1.4164 -0.0980 -1.0297
   86MOL0     C11542   9.369   0.528   5.402 -0.9996 -0.6448  0.2569
   86MOL0     H11543   9.903   0.742   5.437 -1.4634 -0.8495 -0.1790
   86MOL0     H11544  10.041   0.942   5.490 -0.1633  0.1625 -0.0365
   86MOL0     H11545   9.914   1.332   5.317  4.2237 -0.1637 -0.9956
   86MOL0     H11546   9.845   1.342   5.479  1.1637  1.9113  0.9087
   86MOL0     H11547  10.016   1.496   5.526 -0.7590  1.1339 -2.2422
   86MOL0     H11548  10.117   1.363   5.540 -3.1092  0.9321  2.2821
   86MOL0     H11549  10.087   1.473   5.256  1.7819 -1.6341 -0.8050
   86MOL0     H11550  10.187   1.538   5.377 -0.3138 -1.0458  3.4819
   86MOL0     H11551  10.295   1.312   5.394 -0.7702  0.4343  2.0789
   86MOL0     H11552  10.202   1.253   5.265  1.3553 -0.2854  0.5494
   86MOL0     H11553  10.405   1.475   5.281 -0.7398 -0.0988  2.1712
   86MOL0     H11554  10.434   1.336   5.176  2.3161  1.4526  0.9612
   86MOL0     H11555  10.205   1.415   5.054 -0.4039  1.5546 -1.7232
   86MOL0     H11556  10.251   1.569   5.126  2.0652 -0.1012  1.4701
   86MOL0     H11557  10.491   1.530   5.024 -0.7417 -0.8780  1.9858
   86MOL0     H11558  10.420   1.386   4.950  2.2956 -2.0532  6.2461
   86MOL0     H11559  10.314   1.670   4.923 -1.6286 -1.0470  0.2292
   86MOL0     H11560  10.254   1.518   4.842  0.7198 -1.8248 -0.9199
   86MOL0     H11561  10.603   1.732   4.858  0.3301 -3.0777  1.1953
   86MOL0     H11562  10.753   1.825   4.608 -1.4617 -0.0437 -0.7221
   86MOL0     H11563  10.814   1.676   4.692  1.0410 -1.2783 -0.9148
   86MOL0     H11564  10.738   1.696   4.400  0.6504  0.4424  1.1608
   86MOL0     H11565  10.810   1.552   4.497  0.0418 -0.4531  0.4991
   86MOL0     H11566  10.940   1.826   4.445  0.8396  0.3498 -3.4489
   86MOL0     H11567  10.961   1.693   4.347  0.5310  3.2563 -0.1705
   86MOL0     H11568  11.068   1.721   4.634  0.0386  2.3147 -1.0188
   86MOL0     H11569  11.152   1.673   4.500  0.1166 -1.4038 -1.8040
   86MOL0     H11570  11.154   1.301   4.510 -0.8335  1.3364 -0.7376
   86MOL0     H11571  11.245   1.114   4.554 -2.3809  1.5205  0.9013
   86MOL0     H11572  11.413   1.145   4.591 -0.3063  2.6538  0.6180
   86MOL0     H11573  11.306   1.067   4.714 -1.1615  0.8054  1.9478
   86MOL0     H11574  11.709   1.226   4.972  0.3338  0.7119  0.8920
   86MOL0     H11575  11.864   1.194   5.136  0.1977  0.1470  0.2216
   86MOL0     H11576  11.988   1.121   5.308 -1.7493 -0.8841  0.9972
   86MOL0     H11577  11.967   1.303   5.331 -1.1596 -0.2205  1.2368
   86MOL0     H11578  12.137   1.278   5.463  2.8471 -1.8956 -1.5247
   86MOL0     H11579  11.992   1.235   5.566 -1.0765 -3.4341  0.9521
   86MOL0     H11580  12.070   1.003   5.576  0.3905 -2.5091 -1.2714
   86MOL0     H11581  12.198   1.097   5.625 -0.8084 -2.0043  0.6330
   86MOL0     H11582  12.332   0.974   5.481  1.2504 -0.8378 -3.3845
   86MOL0     H11583  12.186   0.903   5.416 -2.2748  1.9568 -2.9165
   86MOL0     H11584  12.354   1.122   5.314 -0.4787  0.9432 -0.3545
   86MOL0     H11585  12.190   1.118   5.273  0.6338  1.3425  2.9903
   86MOL0     H11586  12.379   0.899   5.218 -1.3367 -4.2652 -3.7341
   86MOL0     H11587  12.202   0.892   5.197  1.0484 -0.8923 -2.3540
   86MOL0     H11588  12.406   1.038   5.027 -0.3079 -1.0304  1.4975
   86MOL0     H11589  12.267   1.123   5.053  1.5128  0.9784 -1.1377
   86MOL0     H11590  12.223   0.822   4.981 -1.0323 -0.4347 -1.7524
   86MOL0     H11591  12.253   0.962   4.865 -0.6780 -1.9578 -0.5054
   86MOL0     H11592  11.572   1.242   5.434 -3.1400 -1.6591 -1.0040
   86MOL0     H11593  11.402   1.312   5.275  0.7604  0.1230  1.8015
   86MOL0     H11594  11.325   1.514   4.923  0.3637  0.1705 -0.2733
   86MOL0     H11595  11.165   1.629   4.797  0.7397  0.7232  1.9731
   86MOL0     H11596   9.699   1.189   5.376 -0.2978 -0.8194 -1.0109
   86MOL0     H11597   9.575   0.993   5.335  0.3425 -2.8836 -1.4941
   86MOL0     H11598   9.502   0.707   5.146 -0.8544  0.8021  1.1409
   86MOL0     H11599   9.416   0.505   5.015 -2.6094 -0.5776 -0.8262
   86MOL0     H11600   9.171   0.186   5.193  0.6069  1.0398  1.2208
   86MOL0     H11601   9.057   0.316   5.219 -2.2974 -2.6264  1.0678
   86MOL0     H11602   8.984   0.318   4.977  1.0749 -0.1955 -2.0521
   86MOL0     H11603   8.977   0.171   5.063  0.2760 -1.3201 -1.0516
   86MOL0     H11604   9.205   0.110   4.957 -1.3933 -2.4096 -3.2944
   86MOL0     H11605   9.183   0.264   4.854 -0.1212  0.8617  0.8243
   86MOL0     H11606   9.119   0.088   4.711 -0.6185  0.2812 -0.7467
   86MOL0     H11607   8.962   0.145   4.795 -0.2635 -2.9346  0.2663
   86MOL0     H11608   9.033  -0.221   4.974  0.8348 -1.6743 -1.8412
   86MOL0     H11609   9.229   0.363   5.371 -0.3173 -0.6348 -0.3725
   86MOL0     H11610   9.362   0.544   5.509 -0.4635 -0.1180  0.2208
   87MOL0     O11611  11.351  10.138   6.817 -0.0882 -0.2008  0.4655
   87MOL0     C11612  11.400  10.243   6.814  0.2082 -1.2494 -0.1455
   87MOL0     O11613  11.528  10.267   6.848  0.0425  0.4819  0.8450
   87MOL0     C11614  11.640  10.181   6.842 -0.4701  1.2305  0.0369
   87MOL0     C11615  11.640  10.040   6.852  0.5900  0.2055 -0.6214
   87MOL0     C11616  11.749   9.959   6.872 -0.9213  0.2571 -0.2360
   87MOL0     C11617  11.880  10.022   6.884  0.8347  0.5305 -0.0342
   87MOL0     O11618  12.003   9.959   6.891  0.6047  0.0232  0.7976
   87MOL0     C11619  12.014   9.818   6.848 -0.1165 -0.0840  0.3599
   87MOL0     C11620  12.090   9.803   6.723  0.1156  0.1162  0.3307
   87MOL0     C11621  12.224   9.873   6.730 -0.6914 -0.3839 -0.5149
   87MOL0     C11622  12.314   9.839   6.609  0.7107  0.1368 -0.9158
   87MOL0     C11623  12.442   9.903   6.630 -0.3564 -0.5849 -0.0798
   87MOL0     C11624  12.531   9.904   6.513  0.6916  0.7970 -0.2638
   87MOL0     C11625  12.481  10.007   6.405 -0.1487  0.1110 -0.2868
   87MOL0     C11626  12.581  10.114   6.369 -0.6228  0.0540  0.0590
   87MOL0     N11627  12.589  10.217   6.467 -0.2858  0.2063 -1.0788
   87MOL0     C11628  12.702  10.295   6.496 -0.5728 -0.3961  0.3826
   87MOL0     C11629  12.653  10.397   6.574  0.4184  0.2466 -0.2957
   87MOL0     C11630  12.712  10.518   6.638 -0.1789  0.3299 -0.0767
   87MOL0     C11631  12.846  10.485   6.708 -0.9223  0.0287 -0.1812
   87MOL0     C11632  12.896  10.603   6.792  0.6115  0.2930 -1.1162
   87MOL0     C11633  13.017  10.570   6.878 -0.4466  0.3720  0.8653
   87MOL0     O11634  13.038  10.682   6.954  0.3317  0.1660 -0.8289
   87MOL0     C11635  13.129  10.687   7.053  0.7475  0.4022  0.1974
   87MOL0     C11636  13.199  10.574   7.101  0.1859 -0.0315 -1.2862
   87MOL0     C11637  13.310  10.586   7.195  0.4732  0.0882  0.4952
   87MOL0     C11638  13.366  10.459   7.252  0.0703 -0.0816 -0.1777
   87MOL0     C11639  13.336  10.709   7.251  0.0209  0.0408  0.3579
   87MOL0     C11640  13.441  10.740   7.345  0.2869  0.4033  0.6998
   87MOL0     O11641  13.420  10.840   7.436  0.1467 -0.5217  0.3721
   87MOL0     C11642  13.534  10.899   7.474  0.3551 -0.7917 -0.8728
   87MOL0     C11643  13.554  10.893   7.615 -0.1532 -0.4048 -0.6691
   87MOL0     C11644  13.669  10.954   7.666 -1.0185 -0.0124  0.3523
   87MOL0     C11645  13.759  11.022   7.580 -0.6247 -0.3188 -0.1105
   87MOL0     O11646  13.855  11.105   7.639 -0.1485 -0.0475  0.0471
   87MOL0     C11647  13.985  11.069   7.610 -0.4083 -0.1280 -0.4697
   87MOL0     C11648  14.057  11.043   7.742 -0.4243  0.3061 -0.3469
   87MOL0     C11649  14.107  11.165   7.835 -0.2442 -0.0628  0.1006
   87MOL0     C11650  14.175  11.283   7.760 -0.0374  0.0219 -0.0289
   87MOL0     C11651  14.299  11.230   7.675 -0.2927 -0.0112 -0.8199
   87MOL0     C11652  14.365  11.341   7.589 -0.5684 -0.7696  0.8988
   87MOL0     C11653  14.265  11.403   7.499 -0.4180 -0.1658  0.4703
   87MOL0     C11654  14.320  11.457   7.367 -0.3481 -0.1179 -0.0623
   87MOL0    Cl11655  14.207  11.574   7.290 -0.0659 -0.0478 -0.0517
   87MOL0     C11656  13.741  11.031   7.443  0.4037 -0.7707  0.0711
   87MOL0     C11657  13.641  10.951   7.390  0.7842  0.9152 -0.2499
   87MOL0     O11658  13.544  10.671   7.344 -0.0970 -0.1182 -0.1840
   87MOL0     C11659  13.274  10.816   7.190 -0.5931 -0.5310 -0.9617
   87MOL0     C11660  13.172  10.810   7.092 -0.1904  0.3598  0.2763
   87MOL0     N11661  12.521  10.368   6.590 -0.2784  0.0519 -0.1521
   87MOL0     N11662  12.485  10.264   6.536 -0.0189 -0.0106  0.2695
   87MOL0     C11663  11.884  10.158   6.874  0.2664 -0.6508  0.4350
   87MOL0     C11664  11.768  10.238   6.839  0.2899 -0.1406  1.2435
   87MOL0     C11665  11.318  10.353   6.770  0.3744 -0.6338 -0.3145
   87MOL0     C11666  11.180  10.353   6.772  0.1797  0.3614  0.3181
   87MOL0     C11667  11.094  10.459   6.736  0.4411 -1.4751 -0.9457
   87MOL0     C11668  11.152  10.581   6.710 -0.3967  0.0792 -0.6729
   87MOL0     O11669  11.069  10.685   6.689 -0.7332  0.4670 -0.4977
   87MOL0     C11670  11.108  10.775   6.584  0.0465  0.7736 -0.0305
   87MOL0     C11671  10.995  10.843   6.507 -0.2345  1.2389 -0.2455
   87MOL0     C11672  11.039  10.918   6.388 -0.0218 -0.0172  0.2167
   87MOL0     C11673  10.950  11.027   6.331  0.2557  0.7147 -0.9594
   87MOL0     C11674  10.818  10.976   6.263  0.9027 -0.4300  1.2555
   87MOL0     C11675  10.720  10.921   6.213 -0.3843  0.4014  0.2944
   87MOL0     C11676  11.295  10.597   6.713  0.5317 -0.9096  0.1500
   87MOL0     C11677  11.374  10.481   6.744  0.4989 -0.0371 -0.3687
   87MOL0     H11678  11.547   9.985   6.846  1.9191 -2.0004 -2.9407
   87MOL0     H11679  11.737   9.853   6.891 -2.9309  0.5193  0.1546
   87MOL0     H11680  12.053   9.748   6.922  3.0554  0.8615 -0.2896
   87MOL0     H11681  11.916   9.781   6.815 -0.5914  2.4990 -1.4225
   87MOL0     H11682  12.097   9.694   6.713 -1.3049  0.1544 -1.8150
   87MOL0     H11683  12.029   9.844   6.641  1.5728  1.4564 -0.1331
   87MOL0     H11684  12.214   9.981   6.744  3.1487 -0.0724  0.8875
   87MOL0     H11685  12.259   9.848   6.831 -0.4720  2.3873  0.1822
   87MOL0     H11686  12.339   9.733   6.598  3.5321  0.6203  0.1151
   87MOL0     H11687  12.268   9.877   6.518  0.1448 -1.2227 -1.2267
   87MOL0     H11688  12.425  10.006   6.663 -3.9276 -0.5994 -1.4065
   87MOL0     H11689  12.497   9.859   6.713 -0.3620  0.0564  0.2699
   87MOL0     H11690  12.633   9.933   6.540  0.5163 -0.2888  1.7252
   87MOL0     H11691  12.526   9.802   6.475 -4.3634  0.4320  0.6749
   87MOL0     H11692  12.441   9.950   6.322  1.1525 -2.2528  0.6158
   87MOL0     H11693  12.387  10.053   6.438 -1.4270 -2.5677  0.0466
   87MOL0     H11694  12.546  10.151   6.272 -0.7713 -1.5834 -0.5517
   87MOL0     H11695  12.684  10.080   6.353  1.9154  5.2293  2.9641
   87MOL0     H11696  12.808  10.274   6.486  0.6341  1.8915  5.1789
   87MOL0     H11697  12.724  10.599   6.565  2.3513 -0.0321 -0.1584
   87MOL0     H11698  12.640  10.548   6.715  1.0085  1.6869  0.5436
   87MOL0     H11699  12.920  10.475   6.628  1.7476  0.9999  2.0399
   87MOL0     H11700  12.836  10.403   6.779  1.6199  1.6195  2.2153
   87MOL0     H11701  12.820  10.633   6.865  1.8568 -1.6059  1.0951
   87MOL0     H11702  12.913  10.696   6.737 -0.8276  2.4932  1.8499
   87MOL0     H11703  13.105  10.543   6.819 -0.8530  0.6558  0.1131
   87MOL0     H11704  12.994  10.488   6.947  1.8050 -1.0458  0.0741
   87MOL0     H11705  13.180  10.475   7.060 -2.7640 -2.1112  4.1829
   87MOL0     H11706  13.336  10.461   7.357 -1.8177  1.0171 -0.6987
   87MOL0     H11707  13.327  10.371   7.200  2.6748 -1.9453  0.7867
   87MOL0     H11708  13.473  10.437   7.247  0.1261  0.3987 -1.5289
   87MOL0     H11709  13.490  10.852   7.692 -0.6254 -0.1034 -0.8986
   87MOL0     H11710  13.698  10.964   7.770  0.5398  2.4524 -0.2604
   87MOL0     H11711  13.987  10.981   7.545  2.4259 -0.7084  0.2429
   87MOL0     H11712  14.031  11.151   7.555 -3.4339  0.4140 -2.4286
   87MOL0     H11713  13.984  10.989   7.803 -1.5300 -0.1491 -2.0197
   87MOL0     H11714  14.140  10.978   7.714 -1.2317 -0.9542  0.1420
   87MOL0     H11715  14.170  11.124   7.914  1.8711  1.6934 -0.5645
   87MOL0     H11716  14.016  11.204   7.881  0.4297  1.6876  0.0306
   87MOL0     H11717  14.112  11.327   7.681  0.1639  0.9007  0.2814
   87MOL0     H11718  14.206  11.362   7.830  0.7318  1.7598 -2.2036
   87MOL0     H11719  14.282  11.143   7.613  0.1762 -1.7837  1.3929
   87MOL0     H11720  14.382  11.205   7.742  0.4402  2.8616 -0.4901
   87MOL0     H11721  14.397  11.423   7.653 -4.6327  1.9750 -0.1629
   87MOL0     H11722  14.443  11.294   7.529 -1.9794 -1.9781 -0.0852
   87MOL0     H11723  14.233  11.488   7.559  1.4882  1.8455 -1.2067
   87MOL0     H11724  14.181  11.339   7.471 -0.3166  0.8933 -2.6441
   87MOL0     H11725  14.335  11.371   7.301 -0.5499  0.2661 -0.6162
   87MOL0     H11726  14.423  11.493   7.378  0.0710 -0.9992 -0.9454
   87MOL0     H11727  13.809  11.092   7.384  1.4044 -0.7081  1.2641
   87MOL0     H11728  13.638  10.938   7.282 -2.1042 -1.7266 -0.0048
   87MOL0     H11729  13.278  10.919   7.224 -0.2984 -0.2426 -1.8548
   87MOL0     H11730  13.134  10.904   7.054 -0.0436 -0.5328 -2.2778
   87MOL0     H11731  11.968  10.227   6.888 -1.8519  2.7419 -2.0813
   87MOL0     H11732  11.753  10.345   6.833  0.5961 -0.1684 -0.5647
   87MOL0     H11733  11.134  10.260   6.806 -1.0317  0.4656 -0.9485
   87MOL0     H11734  10.986  10.457   6.738  0.4247 -1.9331 -1.7910
   87MOL0     H11735  11.166  10.857   6.626  1.1536 -0.2722  0.5293
   87MOL0     H11736  11.162  10.713   6.512 -2.2083 -1.6788  0.2550
   87MOL0     H11737  10.952  10.910   6.582 -0.6761  1.0676 -0.3448
   87MOL0     H11738  10.908  10.782   6.482 -0.4989  0.7533  1.7701
   87MOL0     H11739  11.062  10.849   6.306  2.4059  1.6638 -0.6075
   87MOL0     H11740  11.136  10.965   6.406 -0.4304  1.4704 -1.2709
   87MOL0     H11741  11.010  11.088   6.262  0.7481 -0.4821 -1.6112
   87MOL0     H11742  10.925  11.078   6.425  1.9031 -3.5648  2.1488
   87MOL0     H11743  10.622  10.887   6.187 -0.5856  1.7230 -0.7301
   87MOL0     H11744  11.332  10.698   6.698 -2.3195  0.0608 -1.2005
   87MOL0     H11745  11.481  10.493   6.751  0.8483 -3.2319  1.7519
   88MOL0     O11746  11.334   3.503   1.737  0.5515 -0.0843  0.0229
   88MOL0     C11747  11.377   3.392   1.773  0.4532  0.1900 -0.1376
   88MOL0     O11748  11.306   3.275   1.762  0.1515  0.8412 -0.0310
   88MOL0     C11749  11.185   3.278   1.689 -0.0026  0.5520  0.4288
   88MOL0     C11750  11.080   3.369   1.717 -0.4180  0.1851  0.5419
   88MOL0     C11751  10.960   3.363   1.640  0.5586  0.0869  0.1751
   88MOL0     C11752  10.941   3.263   1.543 -0.6571  0.3109 -0.0393
   88MOL0     O11753  10.825   3.239   1.466  0.1633  0.1126 -0.2852
   88MOL0     C11754  10.710   3.323   1.482  0.0083 -0.8492 -0.0444
   88MOL0     C11755  10.617   3.270   1.600 -0.3130 -0.7626  0.2004
   88MOL0     C11756  10.553   3.129   1.580 -0.3036 -0.5808  0.1659
   88MOL0     C11757  10.450   3.094   1.693 -0.5981 -0.4582 -0.0415
   88MOL0     C11758  10.412   2.946   1.669 -0.0448  0.6474  0.0599
   88MOL0     C11759  10.336   2.882   1.781 -0.3788 -0.9526  1.1241
   88MOL0     C11760  10.291   2.737   1.733  0.7726  0.1643 -0.7153
   88MOL0     C11761  10.408   2.643   1.695  0.4690 -0.2860 -0.8139
   88MOL0     N11762  10.490   2.613   1.815 -0.8753  0.6447 -0.2313
   88MOL0     C11763  10.508   2.489   1.872  0.5599  0.1690  0.6216
   88MOL0     C11764  10.627   2.503   1.935  0.2143 -0.7907 -0.0159
   88MOL0     C11765  10.696   2.390   2.010  0.2444  0.0711 -0.1338
   88MOL0     C11766  10.704   2.259   1.921  0.2002  0.5975 -0.4087
   88MOL0     C11767  10.765   2.277   1.785 -0.4559 -0.9076  1.5016
   88MOL0     C11768  10.877   2.375   1.768 -0.7378  0.0857  0.3745
   88MOL0     O11769  10.873   2.424   1.629 -0.8087  0.3788  0.7556
   88MOL0     C11770  10.945   2.371   1.529 -0.0982 -0.2354  0.9523
   88MOL0     C11771  10.868   2.340   1.412  0.1443 -0.4557 -0.8485
   88MOL0     C11772  10.921   2.281   1.299 -0.9340 -0.5217  0.9390
   88MOL0     C11773  10.823   2.271   1.173  0.8315 -0.1038  0.5476
   88MOL0     C11774  11.060   2.228   1.302  1.4899 -0.2514  0.4295
   88MOL0     C11775  11.119   2.136   1.200  0.1524  0.6020  0.2531
   88MOL0     O11776  11.241   2.081   1.225 -0.4345 -0.1617 -0.1000
   88MOL0     C11777  11.300   1.985   1.143 -0.3990 -0.3839  0.4222
   88MOL0     C11778  11.248   1.856   1.140 -0.8764 -1.4663 -0.0404
   88MOL0     C11779  11.306   1.740   1.079 -0.0405  1.2205 -0.2063
   88MOL0     C11780  11.422   1.762   1.004  0.0163  0.7052  0.3852
   88MOL0     O11781  11.478   1.669   0.916 -0.0222  0.4601  0.3092
   88MOL0     C11782  11.503   1.541   0.978 -0.2005 -0.6725 -0.2245
   88MOL0     C11783  11.614   1.474   0.905 -0.2165 -0.4043 -0.5032
   88MOL0     C11784  11.642   1.327   0.963 -0.0966 -0.2609 -0.5438
   88MOL0     C11785  11.776   1.268   0.922 -0.1913 -0.2494 -0.6273
   88MOL0     C11786  11.824   1.265   0.780 -0.6825  0.1495 -0.2532
   88MOL0     C11787  11.975   1.223   0.778 -0.4387  0.0591  0.4743
   88MOL0     C11788  11.997   1.068   0.794 -0.3360  0.1732 -0.0273
   88MOL0     C11789  12.108   0.989   0.712 -0.8943  0.7753  0.4894
   88MOL0    Cl11790  12.258   1.032   0.788 -0.2160  0.1035 -0.4290
   88MOL0     C11791  11.480   1.891   1.008 -0.7736 -0.5279  0.3761
   88MOL0     C11792  11.427   1.997   1.084  0.4776 -0.0557 -0.7640
   88MOL0     O11793  11.045   2.108   1.107  0.1139 -0.3360  0.4430
   88MOL0     C11794  11.131   2.268   1.415 -0.3718 -0.5587 -0.5036
   88MOL0     C11795  11.077   2.340   1.524 -0.4562 -0.2921  0.4498
   88MOL0     N11796  10.674   2.634   1.923  0.3652  0.6518 -0.0994
   88MOL0     N11797  10.575   2.701   1.861  0.1646  0.1058 -0.2828
   88MOL0     C11798  11.039   3.159   1.534 -0.0222 -0.3546 -0.1467
   88MOL0     C11799  11.161   3.168   1.608 -0.4883 -0.3001  0.7905
   88MOL0     C11800  11.517   3.388   1.824 -0.0141 -0.3065 -0.8696
   88MOL0     C11801  11.586   3.507   1.839 -0.3640  0.5256  0.6423
   88MOL0     C11802  11.713   3.504   1.902  0.3778  0.6315 -0.5408
   88MOL0     C11803  11.772   3.391   1.957  0.0816 -0.0824 -0.5773
   88MOL0     O11804  11.902   3.379   2.003 -1.2575  1.1592 -0.1628
   88MOL0     C11805  11.992   3.489   2.036 -0.0721 -0.4452  0.8228
   88MOL0     C11806  12.127   3.467   1.969  0.0568 -1.2877 -0.6083
   88MOL0     C11807  12.120   3.465   1.813  0.1233 -0.3050 -0.0185
   88MOL0     C11808  12.118   3.332   1.738 -0.3440  0.0857  0.1502
   88MOL0     C11809  12.243   3.258   1.722 -0.0636 -0.3135 -0.4492
   88MOL0     C11810  12.342   3.195   1.696 -0.1223  0.2269 -0.6613
   88MOL0     C11811  11.698   3.273   1.931  0.0630  0.4267  0.5689
   88MOL0     C11812  11.577   3.269   1.870 -0.8546  0.2354 -0.7083
   88MOL0     H11813  11.086   3.441   1.798 -0.6227  4.0127 -2.5633
   88MOL0     H11814  10.884   3.437   1.661  0.7869  1.7199 -4.0137
   88MOL0     H11815  10.722   3.430   1.502 -3.4175 -0.6884  2.0164
   88MOL0     H11816  10.657   3.307   1.388  0.6731 -2.3823 -0.1721
   88MOL0     H11817  10.665   3.265   1.698 -0.7824  0.6841  0.5273
   88MOL0     H11818  10.536   3.344   1.600 -0.7963 -1.2240  2.0743
   88MOL0     H11819  10.495   3.126   1.487  0.5124  1.5721 -0.4623
   88MOL0     H11820  10.633   3.055   1.579  0.6720  0.4379  1.2019
   88MOL0     H11821  10.504   3.099   1.788  1.2171 -0.3683 -1.0149
   88MOL0     H11822  10.372   3.170   1.692 -0.5799 -0.4201 -1.6266
   88MOL0     H11823  10.346   2.955   1.582 -1.9649 -2.2186  1.0801
   88MOL0     H11824  10.498   2.880   1.655  0.1951  0.2304  2.9389
   88MOL0     H11825  10.396   2.870   1.871 -0.7386 -2.3575  1.2003
   88MOL0     H11826  10.249   2.938   1.816  0.1716 -0.4442  1.6923
   88MOL0     H11827  10.229   2.699   1.815  2.2924  1.4934  1.1168
   88MOL0     H11828  10.221   2.745   1.649 -1.9808  1.6894  1.5258
   88MOL0     H11829  10.464   2.691   1.614 -3.6366  2.1305 -2.5213
   88MOL0     H11830  10.362   2.551   1.659 -2.3714  1.9195 -3.3278
   88MOL0     H11831  10.448   2.399   1.861 -0.7634  0.8624  1.8232
   88MOL0     H11832  10.797   2.411   2.043  1.2451 -2.9773 -0.8977
   88MOL0     H11833  10.632   2.373   2.097 -0.4484  3.7007  0.2159
   88MOL0     H11834  10.601   2.222   1.924  0.8892 -1.3855  2.1592
   88MOL0     H11835  10.763   2.182   1.971  0.6069  0.1694 -1.5342
   88MOL0     H11836  10.681   2.319   1.729  1.3794  2.0593  0.7620
   88MOL0     H11837  10.791   2.180   1.740  0.1626 -0.6205  1.2375
   88MOL0     H11838  10.971   2.319   1.780 -0.4182 -0.3214 -2.9452
   88MOL0     H11839  10.872   2.461   1.835  3.6435 -1.2959  2.8899
   88MOL0     H11840  10.763   2.362   1.401 -0.0377 -1.2408 -0.7407
   88MOL0     H11841  10.804   2.163   1.161  0.7933 -0.2320  1.6417
   88MOL0     H11842  10.727   2.320   1.194 -1.2531 -3.8874  0.9295
   88MOL0     H11843  10.868   2.301   1.078  1.9284 -1.0104  0.7647
   88MOL0     H11844  11.154   1.846   1.193 -0.6251  0.7142  0.8834
   88MOL0     H11845  11.254   1.645   1.067 -1.5339  1.5700  2.7233
   88MOL0     H11846  11.540   1.540   1.081  1.5282 -0.7513 -0.8078
   88MOL0     H11847  11.409   1.487   0.965 -0.8982  0.6354 -0.7571
   88MOL0     H11848  11.585   1.458   0.800 -1.5339 -2.5461  0.1225
   88MOL0     H11849  11.707   1.532   0.902  0.3332 -1.1721  0.9714
   88MOL0     H11850  11.563   1.257   0.935 -1.2796  0.3696  1.0598
   88MOL0     H11851  11.632   1.325   1.072 -0.9407 -0.3932 -0.6165
   88MOL0     H11852  11.844   1.327   0.984 -2.7823  0.7670  1.4997
   88MOL0     H11853  11.779   1.170   0.971  3.8621  1.2176  2.7195
   88MOL0     H11854  11.816   1.369   0.745 -1.6226  0.4369  0.7883
   88MOL0     H11855  11.755   1.211   0.714 -1.6025  1.9486 -0.8287
   88MOL0     H11856  12.002   1.259   0.678 -2.0485  1.9085  0.6379
   88MOL0     H11857  12.042   1.289   0.833  1.3721 -0.6196 -0.8188
   88MOL0     H11858  11.902   1.015   0.783  0.7773 -1.9089 -0.1047
   88MOL0     H11859  12.017   1.048   0.900 -0.7991  4.0876  0.9738
   88MOL0     H11860  12.099   1.014   0.606 -1.3858 -2.5378 -0.3547
   88MOL0     H11861  12.089   0.882   0.721  0.0596  0.4865 -0.7759
   88MOL0     H11862  11.576   1.907   0.960  2.0518 -2.2553  4.8160
   88MOL0     H11863  11.467   2.097   1.093 -0.5708  0.3023 -0.0235
   88MOL0     H11864  11.231   2.227   1.417  0.6164  1.7328  1.8790
   88MOL0     H11865  11.148   2.359   1.604  1.4986 -4.5855  0.0225
   88MOL0     H11866  11.026   3.086   1.456  0.2933  1.7291 -2.2697
   88MOL0     H11867  11.251   3.110   1.588  0.1050  0.7988  0.1863
   88MOL0     H11868  11.545   3.598   1.796 -2.2393 -0.9367 -0.8542
   88MOL0     H11869  11.753   3.604   1.912  2.2782  0.0025 -1.3818
   88MOL0     H11870  11.950   3.585   2.006  0.5016  0.1326  1.8172
   88MOL0     H11871  12.012   3.504   2.142 -0.9940 -0.5597  1.0185
   88MOL0     H11872  12.158   3.364   1.991  2.4548 -0.4600  0.2155
   88MOL0     H11873  12.207   3.537   1.992 -0.0161 -0.7340 -1.9295
   88MOL0     H11874  12.187   3.527   1.753 -0.7224 -0.0893 -0.7426
   88MOL0     H11875  12.028   3.519   1.793  0.4386  1.0930  1.9375
   88MOL0     H11876  12.089   3.352   1.634 -0.9082  1.7267  0.5939
   88MOL0     H11877  12.053   3.265   1.795  0.7180 -1.8326 -0.8328
   88MOL0     H11878  12.432   3.138   1.679 -0.5180 -0.7131  0.2899
   88MOL0     H11879  11.753   3.184   1.957 -2.7662 -1.4514  0.5694
   88MOL0     H11880  11.520   3.178   1.854 -1.2979  0.5343 -0.8688
   89MOL0     O11881  11.476   9.088   6.613 -0.3792 -0.0793 -0.1995
   89MOL0     C11882  11.426   8.975   6.609  0.0846 -0.1336 -0.3445
   89MOL0     O11883  11.346   8.929   6.511 -0.1457  0.5805  0.0628
   89MOL0     C11884  11.327   8.993   6.397  0.7081 -0.3355  0.0119
   89MOL0     C11885  11.202   9.060   6.378  0.3361  0.8483  0.0151
   89MOL0     C11886  11.181   9.120   6.256  0.5731  0.1181  0.0550
   89MOL0     C11887  11.273   9.098   6.147 -0.2532 -1.0000  0.3925
   89MOL0     O11888  11.240   9.147   6.022 -0.0225 -0.1162  0.5493
   89MOL0     C11889  11.256   9.289   6.025 -0.1548 -0.2857 -0.1295
   89MOL0     C11890  11.134   9.345   5.946  0.2786 -0.1349 -0.4141
   89MOL0     C11891  11.164   9.341   5.800  0.4757 -0.3644  0.0252
   89MOL0     C11892  11.045   9.364   5.710  0.0790 -0.0366 -0.4678
   89MOL0     C11893  11.070   9.336   5.564  0.2678 -0.3649  0.3036
   89MOL0     C11894  10.942   9.343   5.481 -0.2666 -0.4588  0.4421
   89MOL0     C11895  10.830   9.248   5.543  0.3055 -0.3424  0.1876
   89MOL0     C11896  10.721   9.232   5.442  1.6576  0.8115 -0.0847
   89MOL0     N11897  10.768   9.158   5.330 -0.8571  0.1232 -0.3097
   89MOL0     C11898  10.832   9.030   5.340  0.1788 -0.3011  0.8272
   89MOL0     C11899  10.865   9.018   5.212  0.5323 -0.6378  0.3354
   89MOL0     C11900  10.949   8.908   5.167 -0.1003  0.9615  0.3767
   89MOL0     C11901  10.868   8.774   5.136  0.4115  0.1413 -0.6319
   89MOL0     C11902  10.945   8.639   5.110  0.5013  0.3821 -0.3868
   89MOL0     C11903  11.036   8.640   4.990  0.4473  0.7410 -0.2643
   89MOL0     O11904  11.116   8.514   4.998 -1.3074 -0.8258  0.2024
   89MOL0     C11905  11.229   8.491   4.916  0.3517 -0.4596  0.3466
   89MOL0     C11906  11.286   8.367   4.921 -0.5864  0.3041 -0.3038
   89MOL0     C11907  11.382   8.321   4.831  0.0338 -0.8707 -0.5869
   89MOL0     C11908  11.397   8.172   4.841  0.1420 -0.0302  0.4016
   89MOL0     C11909  11.438   8.410   4.734  1.0300 -0.3546 -0.0230
   89MOL0     C11910  11.548   8.373   4.639  0.3906 -0.0549 -0.0021
   89MOL0     O11911  11.571   8.454   4.530 -0.1856 -0.0179 -0.1993
   89MOL0     C11912  11.679   8.423   4.460 -0.8553 -0.6374 -0.3632
   89MOL0     C11913  11.795   8.505   4.450  0.5514 -0.7019  0.2340
   89MOL0     C11914  11.908   8.468   4.369  0.0228  0.3747 -0.4043
   89MOL0     C11915  11.903   8.349   4.295 -1.2352 -0.7145  0.5494
   89MOL0     O11916  12.007   8.334   4.208  0.1929  0.6464  0.2766
   89MOL0     C11917  11.987   8.243   4.097  0.3053 -1.0440 -0.5476
   89MOL0     C11918  12.100   8.263   3.990 -0.5064  0.8629 -0.8754
   89MOL0     C11919  12.243   8.207   4.032  0.2103 -0.5466  0.8528
   89MOL0     C11920  12.231   8.088   4.124  0.2738 -0.7777  0.5610
   89MOL0     C11921  12.370   8.046   4.185 -0.2519 -0.0628 -0.4153
   89MOL0     C11922  12.359   7.934   4.280 -0.7004  0.5077  0.2476
   89MOL0     C11923  12.497   7.914   4.343 -0.2329  0.2238  0.2945
   89MOL0     C11924  12.496   7.792   4.429  0.5116 -0.2950  0.3862
   89MOL0    Cl11925  12.659   7.782   4.492  0.1010  0.4214 -0.3005
   89MOL0     C11926  11.789   8.266   4.310 -0.1434 -0.0639  0.4493
   89MOL0     C11927  11.679   8.300   4.392  0.9971 -0.2850  0.4219
   89MOL0     O11928  11.614   8.272   4.665 -0.4115 -0.4797 -0.3697
   89MOL0     C11929  11.391   8.542   4.726 -0.6739  0.3213  0.3341
   89MOL0     C11930  11.291   8.581   4.818  0.6974  0.1189  0.5809
   89MOL0     N11931  10.833   9.133   5.138  1.1533  0.5925 -0.3658
   89MOL0     N11932  10.759   9.209   5.206  0.1173  0.4703 -0.1911
   89MOL0     C11933  11.382   9.017   6.156  0.5145 -0.0032 -0.0084
   89MOL0     C11934  11.412   8.967   6.279  0.3790  0.4743 -0.9183
   89MOL0     C11935  11.447   8.897   6.733  0.5547 -0.3451 -0.5119
   89MOL0     C11936  11.395   8.771   6.740  0.3894 -1.2861  0.5782
   89MOL0     C11937  11.401   8.694   6.857 -0.4246  0.0774  0.6826
   89MOL0     C11938  11.483   8.728   6.966  1.3117 -0.0282  0.5936
   89MOL0     O11939  11.494   8.643   7.071 -0.0086 -0.1748 -0.3372
   89MOL0     C11940  11.462   8.674   7.203 -0.2855 -0.6113 -1.1113
   89MOL0     C11941  11.316   8.712   7.224 -0.0091 -0.0348  0.2762
   89MOL0     C11942  11.213   8.598   7.178  0.1941  0.3556 -0.4734
   89MOL0     C11943  11.087   8.598   7.261 -0.4100  0.9024 -0.2552
   89MOL0     C11944  11.102   8.529   7.387 -1.1179 -1.0052 -0.0301
   89MOL0     C11945  11.135   8.477   7.489  0.7900  0.3123  0.2720
   89MOL0     C11946  11.521   8.861   6.970  0.0012  0.3153  0.1563
   89MOL0     C11947  11.512   8.944   6.849  0.0241  0.6976 -0.9683
   89MOL0     H11948  11.127   9.063   6.456 -1.2430  1.0485 -1.4449
   89MOL0     H11949  11.097   9.185   6.234  0.1312  0.0456  1.4075
   89MOL0     H11950  11.240   9.330   6.126  1.2732  0.0866 -0.0331
   89MOL0     H11951  11.351   9.333   5.994 -0.6698 -0.4393 -2.0040
   89MOL0     H11952  11.042   9.295   5.980  0.0354 -0.2862 -1.2599
   89MOL0     H11953  11.143   9.449   5.979 -0.4698  0.0750 -0.8331
   89MOL0     H11954  11.254   9.394   5.768  1.4349 -3.3106 -2.5665
   89MOL0     H11955  11.197   9.242   5.769  0.3663 -0.0862 -1.0342
   89MOL0     H11956  10.979   9.289   5.754  1.3822 -0.7432  0.3423
   89MOL0     H11957  10.991   9.459   5.716 -0.6371 -0.2616 -2.5200
   89MOL0     H11958  11.132   9.415   5.520 -1.6924  0.9453 -0.2435
   89MOL0     H11959  11.111   9.237   5.544  1.5740  0.9301 -4.7984
   89MOL0     H11960  10.917   9.449   5.485  3.1629  0.4911 -0.4845
   89MOL0     H11961  10.968   9.326   5.376  0.2620  1.0947  0.3052
   89MOL0     H11962  10.865   9.147   5.565 -1.4229 -1.4698 -1.9165
   89MOL0     H11963  10.796   9.293   5.637 -0.5052 -0.9738  0.2079
   89MOL0     H11964  10.689   9.329   5.403  0.2360 -0.2778 -1.8132
   89MOL0     H11965  10.632   9.189   5.488  0.4822  2.3537 -0.8227
   89MOL0     H11966  10.859   8.965   5.422 -1.2897 -1.2977  0.5596
   89MOL0     H11967  11.003   8.930   5.075 -2.3254 -0.2305 -1.3049
   89MOL0     H11968  11.011   8.885   5.254 -1.2867 -0.8386  0.8008
   89MOL0     H11969  10.792   8.776   5.057 -0.6682  0.4388  0.3864
   89MOL0     H11970  10.814   8.754   5.229 -1.0534 -0.6048 -1.6064
   89MOL0     H11971  10.883   8.549   5.103 -0.1807  0.8879 -1.0841
   89MOL0     H11972  10.994   8.617   5.205 -0.2326  0.1119 -0.0611
   89MOL0     H11973  11.112   8.719   4.995  0.1158  1.0270  0.4289
   89MOL0     H11974  10.980   8.647   4.897 -0.7523 -2.3709  0.1033
   89MOL0     H11975  11.253   8.295   4.995 -2.3354  0.1679 -1.1704
   89MOL0     H11976  11.315   8.129   4.900  0.2684  0.5953  1.0468
   89MOL0     H11977  11.419   8.131   4.742  1.1061 -0.5651  0.8332
   89MOL0     H11978  11.489   8.174   4.900  0.0829  1.3860  0.4857
   89MOL0     H11979  11.806   8.604   4.493  1.9644 -1.9875  3.1463
   89MOL0     H11980  11.992   8.533   4.348  2.2214 -1.8892  0.8679
   89MOL0     H11981  11.976   8.137   4.123  2.9795 -0.5400  3.5538
   89MOL0     H11982  11.899   8.286   4.048  1.2849 -0.5775 -1.9729
   89MOL0     H11983  12.063   8.210   3.902 -0.1813 -1.0563  0.0886
   89MOL0     H11984  12.110   8.368   3.958  0.7336  0.2642 -2.5767
   89MOL0     H11985  12.293   8.287   4.088 -0.3015 -0.9699  1.9462
   89MOL0     H11986  12.311   8.197   3.947  0.6506  1.2654  0.9463
   89MOL0     H11987  12.165   8.109   4.208  2.3551 -0.5111  2.2193
   89MOL0     H11988  12.206   8.006   4.056  0.5747  0.8994 -1.6737
   89MOL0     H11989  12.423   8.135   4.219  1.6327 -0.7086 -1.5514
   89MOL0     H11990  12.425   8.015   4.096  2.9884 -0.5098  1.5760
   89MOL0     H11991  12.293   7.961   4.363 -1.1858  0.8456 -0.2441
   89MOL0     H11992  12.328   7.841   4.232  2.3526 -1.4749  1.7414
   89MOL0     H11993  12.544   8.004   4.385  2.6620 -2.1548  2.5544
   89MOL0     H11994  12.568   7.897   4.261 -1.8257  1.5996 -1.4619
   89MOL0     H11995  12.461   7.703   4.375  1.3971 -0.0932 -0.5494
   89MOL0     H11996  12.424   7.789   4.511 -0.8862  1.1867 -0.7088
   89MOL0     H11997  11.794   8.169   4.260  2.1799 -1.4478  3.0267
   89MOL0     H11998  11.590   8.239   4.397 -0.3285  1.3479 -1.4085
   89MOL0     H11999  11.420   8.617   4.652  2.4285 -0.3265  0.7284
   89MOL0     H12000  11.238   8.675   4.807  0.8818  0.2368  0.7168
   89MOL0     H12001  11.445   8.989   6.072 -1.5988 -2.0761 -1.0339
   89MOL0     H12002  11.487   8.894   6.306  1.4822  1.5539 -0.9656
   89MOL0     H12003  11.360   8.738   6.643 -2.4646 -1.3398  1.5528
   89MOL0     H12004  11.354   8.597   6.868  0.3042 -0.2162  1.2446
   89MOL0     H12005  11.476   8.598   7.281 -0.0153  2.5026  2.1053
   89MOL0     H12006  11.523   8.758   7.238  0.7135 -1.1394 -1.5526
   89MOL0     H12007  11.303   8.814   7.187  2.7835 -0.1658 -1.2613
   89MOL0     H12008  11.301   8.723   7.332 -2.1682  2.2187 -0.1358
   89MOL0     H12009  11.253   8.496   7.187 -2.4032 -0.7250 -0.4723
   89MOL0     H12010  11.197   8.618   7.072 -0.5122 -2.2446 -0.9264
   89MOL0     H12011  11.008   8.544   7.208  0.6833  1.6749 -2.8233
   89MOL0     H12012  11.055   8.702   7.277 -1.2645  0.6882 -0.5350
   89MOL0     H12013  11.158   8.420   7.577 -1.9119  0.5875  1.2394
   89MOL0     H12014  11.551   8.910   7.062 -1.3262 -0.4049  1.0100
   89MOL0     H12015  11.538   9.049   6.847 -3.2457  1.6170 -1.8269
   90MOL0     O12016  11.289   2.446   4.797 -0.5200  0.1649 -0.4466
   90MOL0     C12017  11.363   2.536   4.768 -0.0887 -0.4165  0.5278
   90MOL0     O12018  11.489   2.521   4.729 -0.3685  0.1006 -0.6580
   90MOL0     C12019  11.537   2.395   4.713 -0.1239 -0.4490 -0.5422
   90MOL0     C12020  11.659   2.380   4.780 -0.6106  0.0163  0.4371
   90MOL0     C12021  11.727   2.262   4.770  0.2030  1.3554 -0.0864
   90MOL0     C12022  11.683   2.160   4.692  0.5117 -0.6997 -0.3794
   90MOL0     O12023  11.743   2.043   4.669 -0.3122  0.1371 -0.1961
   90MOL0     C12024  11.876   2.025   4.738 -1.5596 -0.5096 -0.7813
   90MOL0     C12025  11.947   1.890   4.705 -1.1798  0.0673 -0.6396
   90MOL0     C12026  11.995   1.886   4.564 -0.5796 -0.0093  0.0589
   90MOL0     C12027  11.974   1.752   4.494 -0.4300  0.4719 -0.0548
   90MOL0     C12028  12.049   1.738   4.356  0.2842  0.0354 -0.0221
   90MOL0     C12029  12.012   1.612   4.277 -0.0940 -0.2508 -1.0088
   90MOL0     C12030  12.100   1.606   4.153  0.3883 -0.4915  0.9011
   90MOL0     C12031  12.098   1.471   4.082  0.2041 -0.2624  0.2839
   90MOL0     N12032  12.214   1.438   4.001 -0.3626 -0.5467 -0.4473
   90MOL0     C12033  12.217   1.422   3.863  0.2499 -0.3712 -0.2449
   90MOL0     C12034  12.350   1.409   3.825 -0.1776 -0.4453  0.4684
   90MOL0     C12035  12.406   1.397   3.692  0.0651  0.6070  0.5894
   90MOL0     C12036  12.374   1.262   3.623 -0.6059 -0.3012  0.3900
   90MOL0     C12037  12.477   1.226   3.511 -0.6880 -0.2639  0.0648
   90MOL0     C12038  12.473   1.073   3.498 -0.3317 -0.0470  0.1113
   90MOL0     O12039  12.583   1.028   3.412  0.0477 -0.5090  0.3727
   90MOL0     C12040  12.614   0.894   3.430  0.0272 -0.2644 -0.6424
   90MOL0     C12041  12.558   0.785   3.360  0.2042  0.9991  0.9836
   90MOL0     C12042  12.596   0.657   3.378 -0.2189 -0.2615 -0.1408
   90MOL0     C12043  12.529   0.549   3.297  0.3670 -0.5050 -0.1227
   90MOL0     C12044  12.683   0.631   3.485 -0.7202  0.0081 -0.3240
   90MOL0     C12045  12.732   0.490   3.524 -1.0654 -0.8128  0.0776
   90MOL0     O12046  12.845   0.465   3.607  0.0822  0.1305 -0.2303
   90MOL0     C12047  12.837   0.366   3.709 -1.0659  0.1131  0.6912
   90MOL0     C12048  12.832   0.400   3.845 -0.5127  0.5873 -0.0531
   90MOL0     C12049  12.821   0.305   3.942 -0.1135  0.0137 -0.2233
   90MOL0     C12050  12.822   0.165   3.907  0.4819 -1.1504  0.7296
   90MOL0     O12051  12.810   0.087   4.015  0.1220 -0.1056  0.1665
   90MOL0     C12052  12.683   0.010   4.000 -0.1744 -0.3837  0.2858
   90MOL0     C12053  12.669  -0.102   4.091 -0.3084  0.2557 -0.2673
   90MOL0     C12054  12.675  -0.072   4.247  0.4944 -0.9507  0.1653
   90MOL0     C12055  12.718   0.070   4.293 -0.5104  0.6350  0.2493
   90MOL0     C12056  12.714   0.096   4.439 -0.5629  0.8928 -0.5634
   90MOL0     C12057  12.828   0.065   4.527 -0.4597 -0.3882  0.0641
   90MOL0     C12058  12.944   0.171   4.494  0.0855 -1.2777 -0.5185
   90MOL0     C12059  13.071   0.086   4.484  0.0199 -0.1425  0.0903
   90MOL0    Cl12060  13.066   0.014   4.322 -0.5174 -0.8023 -0.0738
   90MOL0     C12061  12.832   0.134   3.773 -0.7426  0.3246 -0.5911
   90MOL0     C12062  12.840   0.226   3.678  0.5193 -0.0924  0.6133
   90MOL0     O12063  12.652   0.404   3.487 -0.1739 -0.1341 -1.0946
   90MOL0     C12064  12.746   0.734   3.554 -0.1768 -1.0460  0.0192
   90MOL0     C12065  12.707   0.863   3.531 -1.2356  0.2693  0.8608
   90MOL0     N12066  12.416   1.418   3.945 -0.0647  0.4480 -0.3420
   90MOL0     N12067  12.341   1.442   4.042 -0.0444 -0.8175 -0.0397
   90MOL0     C12068  11.565   2.171   4.623  1.4567 -0.2725 -0.0603
   90MOL0     C12069  11.484   2.289   4.640 -0.6400  0.4085  0.3872
   90MOL0     C12070  11.301   2.670   4.761 -0.0003  0.0516 -0.2072
   90MOL0     C12071  11.170   2.701   4.817 -0.4209 -0.1654 -0.1704
   90MOL0     C12072  11.123   2.840   4.825  0.5750  0.0799  0.2831
   90MOL0     C12073  11.209   2.942   4.777 -0.0228  0.0879  0.8715
   90MOL0     O12074  11.153   3.069   4.764 -0.8260  0.4192 -0.5245
   90MOL0     C12075  11.215   3.166   4.680 -1.0598 -0.0657 -1.0997
   90MOL0     C12076  11.138   3.305   4.684 -0.2375 -0.3807 -0.4042
   90MOL0     C12077  11.168   3.383   4.811 -0.2445 -0.1257 -0.0370
   90MOL0     C12078  11.143   3.541   4.812 -0.2436  0.4146  0.0574
   90MOL0     C12079  11.235   3.628   4.739  0.2023  0.7342  0.5359
   90MOL0     C12080  11.315   3.704   4.689  0.1975 -0.0086  0.2535
   90MOL0     C12081  11.329   2.912   4.714  0.6418  0.1651  0.6101
   90MOL0     C12082  11.374   2.779   4.704 -0.0321  0.0007  0.7691
   90MOL0     H12083  11.707   2.464   4.829 -2.5433  0.7319  1.2126
   90MOL0     H12084  11.820   2.250   4.825 -0.4753 -0.0889  0.7952
   90MOL0     H12085  11.945   2.108   4.723  1.6360 -3.0351 -1.1154
   90MOL0     H12086  11.866   2.005   4.845 -1.5773 -0.2940 -0.7423
   90MOL0     H12087  12.037   1.871   4.765 -1.0769 -0.5955 -1.0043
   90MOL0     H12088  11.865   1.819   4.716 -0.9167 -0.1450 -0.0059
   90MOL0     H12089  11.939   1.959   4.505 -1.1872 -1.7389 -1.5840
   90MOL0     H12090  12.100   1.917   4.561  0.3024 -2.7363 -0.2156
   90MOL0     H12091  12.006   1.669   4.559 -0.2241  0.9001  0.3999
   90MOL0     H12092  11.869   1.733   4.467  0.0181 -0.4433 -1.1990
   90MOL0     H12093  12.027   1.819   4.286 -2.0443 -1.7151 -1.4772
   90MOL0     H12094  12.157   1.733   4.372  0.4694 -2.5670 -1.5346
   90MOL0     H12095  12.015   1.527   4.345 -1.9578  0.6556  0.2774
   90MOL0     H12096  11.905   1.610   4.258 -0.5147 -2.1544  1.1964
   90MOL0     H12097  12.065   1.685   4.087 -1.7092 -2.1829 -0.1292
   90MOL0     H12098  12.203   1.627   4.183  0.0762 -0.2651  1.8440
   90MOL0     H12099  12.004   1.465   4.027  1.0640  1.9063 -1.5755
   90MOL0     H12100  12.091   1.401   4.166 -3.2164  1.8401  2.0131
   90MOL0     H12101  12.126   1.416   3.804 -1.0102 -0.9545  1.6462
   90MOL0     H12102  12.372   1.478   3.627  2.3346  0.7751 -0.5176
   90MOL0     H12103  12.513   1.414   3.709 -0.2380  1.1242  2.0878
   90MOL0     H12104  12.272   1.269   3.584 -0.9471  0.2786  1.3657
   90MOL0     H12105  12.380   1.188   3.703 -0.5671  0.3629  1.0052
   90MOL0     H12106  12.577   1.257   3.543 -0.4635  0.3648 -1.1777
   90MOL0     H12107  12.452   1.269   3.413  1.4852 -0.8178 -0.7960
   90MOL0     H12108  12.378   1.054   3.448 -0.2164  0.2381 -0.2196
   90MOL0     H12109  12.477   1.034   3.600 -1.3135 -0.7165 -0.0922
   90MOL0     H12110  12.479   0.794   3.286  0.6945 -1.0572  0.1496
   90MOL0     H12111  12.448   0.568   3.227  0.8773 -0.9018 -0.8310
   90MOL0     H12112  12.603   0.505   3.230  0.4350 -0.7111  0.0858
   90MOL0     H12113  12.478   0.475   3.360  0.9495 -3.0145 -2.4351
   90MOL0     H12114  12.833   0.501   3.883 -1.7652 -0.7586  4.0266
   90MOL0     H12115  12.810   0.334   4.046  1.9299  0.0578  0.0276
   90MOL0     H12116  12.595   0.074   4.012 -0.5154 -1.0312  1.4309
   90MOL0     H12117  12.682  -0.040   3.903  0.5966  1.6286 -0.8048
   90MOL0     H12118  12.581  -0.166   4.082  2.1660 -3.3539 -1.1227
   90MOL0     H12119  12.749  -0.175   4.074  1.8385  0.6628  5.6345
   90MOL0     H12120  12.754  -0.139   4.283  2.7161  1.8030  0.7632
   90MOL0     H12121  12.585  -0.099   4.303  0.6204 -0.7676  0.4586
   90MOL0     H12122  12.822   0.088   4.265 -0.0649  0.3263  1.6603
   90MOL0     H12123  12.651   0.145   4.250 -0.0493  2.6371  2.7705
   90MOL0     H12124  12.624   0.044   4.475 -1.4850  2.1584 -0.9710
   90MOL0     H12125  12.698   0.204   4.454 -1.0357  0.6938  0.5196
   90MOL0     H12126  12.788   0.067   4.629  0.3907 -0.8460  0.4226
   90MOL0     H12127  12.858  -0.038   4.502 -0.4330  0.0659 -1.9635
   90MOL0     H12128  12.941   0.240   4.579  0.9455 -2.9426  0.9479
   90MOL0     H12129  12.929   0.230   4.403  1.0567  1.1183  0.8010
   90MOL0     H12130  13.070   0.026   4.576 -4.4280 -0.4035  0.0963
   90MOL0     H12131  13.163   0.144   4.487  1.0201 -1.6905  0.5167
   90MOL0     H12132  12.852   0.038   3.726 -0.6386  0.7866 -1.5067
   90MOL0     H12133  12.840   0.199   3.573 -1.1857  1.0997  0.2661
   90MOL0     H12134  12.820   0.714   3.630 -0.1666  0.0546  0.3159
   90MOL0     H12135  12.736   0.944   3.597  2.8364 -1.5835  1.6447
   90MOL0     H12136  11.539   2.081   4.568  3.2235  0.7412 -2.7566
   90MOL0     H12137  11.393   2.285   4.581 -0.7507  1.8981  0.4231
   90MOL0     H12138  11.100   2.628   4.857  0.8305 -1.3685 -0.1261
   90MOL0     H12139  11.022   2.876   4.845  0.3717 -1.5262  2.4734
   90MOL0     H12140  11.313   3.187   4.722 -3.4155  4.1036  3.3934
   90MOL0     H12141  11.218   3.124   4.579  0.6619  0.6032 -1.3529
   90MOL0     H12142  11.030   3.302   4.663 -0.3209  0.6140 -0.1403
   90MOL0     H12143  11.184   3.352   4.596  0.0694 -1.6417 -0.9469
   90MOL0     H12144  11.272   3.359   4.834 -0.7656 -0.9900  1.5918
   90MOL0     H12145  11.103   3.335   4.886 -1.2616  1.4026  0.1168
   90MOL0     H12146  11.152   3.557   4.919 -3.1640 -0.8024  0.5692
   90MOL0     H12147  11.040   3.564   4.784  0.0457  1.7921  0.0523
   90MOL0     H12148  11.385   3.776   4.651 -1.6566  1.0043 -1.4024
   90MOL0     H12149  11.399   2.990   4.686  0.5375  0.8266  2.1029
   90MOL0     H12150  11.477   2.763   4.671  0.0640  2.1565 -0.1255
   91MOL0     O12151  10.266   2.077   3.847  0.5331 -0.7832 -0.3266
   91MOL0     C12152  10.344   2.159   3.796 -0.0206 -0.0124 -0.0090
   91MOL0     O12153  10.307   2.256   3.718 -0.8272 -0.1920  0.3070
   91MOL0     C12154  10.180   2.272   3.664  0.4370  0.0245  0.0466
   91MOL0     C12155  10.078   2.175   3.663 -0.3370  0.3186  0.8809
   91MOL0     C12156   9.950   2.204   3.607  0.4630  0.7602 -0.5194
   91MOL0     C12157   9.922   2.328   3.549 -0.0022 -0.1967  0.5269
   91MOL0     O12158   9.803   2.361   3.490 -0.0286 -0.4566 -0.6794
   91MOL0     C12159   9.755   2.254   3.401 -0.8858  0.1789  0.4149
   91MOL0     C12160   9.636   2.308   3.347  0.0417  0.2682  0.6791
   91MOL0     C12161   9.561   2.203   3.263 -0.3996  0.1239 -0.6991
   91MOL0     C12162   9.441   2.250   3.181 -0.2775  0.2962 -0.0103
   91MOL0     C12163   9.345   2.129   3.177  0.7880 -0.0746 -0.0203
   91MOL0     C12164   9.237   2.162   3.088 -0.7481 -0.9900 -0.0913
   91MOL0     C12165   9.119   2.062   3.082 -0.3503 -0.2047  0.9338
   91MOL0     C12166   9.051   2.028   2.936 -0.1676  0.2581  0.5306
   91MOL0     N12167   8.973   2.136   2.884 -0.1389  0.2996 -0.4296
   91MOL0     C12168   8.913   2.136   2.758  0.6408 -0.3023 -0.5076
   91MOL0     C12169   8.867   2.266   2.736 -0.1288 -0.2038  0.2346
   91MOL0     C12170   8.787   2.333   2.633 -0.2552 -0.0821  0.6258
   91MOL0     C12171   8.743   2.234   2.530 -0.3735 -1.1960 -0.8816
   91MOL0     C12172   8.643   2.299   2.433 -0.3636  0.6070 -1.0122
   91MOL0     C12173   8.705   2.363   2.308  0.5483 -0.3753  0.0797
   91MOL0     O12174   8.624   2.470   2.255  0.4209  0.0584 -0.0732
   91MOL0     C12175   8.517   2.421   2.181  0.2400  0.5311 -0.3189
   91MOL0     C12176   8.419   2.317   2.202 -1.8042  0.0365 -0.7201
   91MOL0     C12177   8.307   2.318   2.119 -0.6926 -0.6818 -0.4161
   91MOL0     C12178   8.199   2.231   2.164 -0.5606 -0.1122  0.3734
   91MOL0     C12179   8.297   2.397   2.005  0.2333 -0.2054  0.7087
   91MOL0     C12180   8.180   2.397   1.907  0.1950  0.1474  0.2450
   91MOL0     O12181   8.124   2.275   1.872 -0.1205  0.1668  1.0821
   91MOL0     C12182   8.042   2.274   1.756 -1.4957  0.3373 -0.5329
   91MOL0     C12183   8.097   2.291   1.627  0.6510 -0.3132  0.4665
   91MOL0     C12184   8.012   2.276   1.516  0.2687 -0.0188  0.0725
   91MOL0     C12185   7.883   2.235   1.536  0.7181 -0.8511  1.0692
   91MOL0     O12186   7.799   2.208   1.421 -0.1616  0.5139  0.2246
   91MOL0     C12187   7.707   2.099   1.417  0.0298 -0.5077 -0.3676
   91MOL0     C12188   7.661   2.080   1.278 -0.5548 -0.6823  0.0304
   91MOL0     C12189   7.613   1.938   1.255  0.1134 -0.0312 -0.5946
   91MOL0     C12190   7.519   1.914   1.132 -0.4067  0.5710 -0.0910
   91MOL0     C12191   7.454   1.780   1.129  0.0149  0.0119 -0.3627
   91MOL0     C12192   7.552   1.661   1.144 -0.3541 -0.4134 -0.6427
   91MOL0     C12193   7.464   1.529   1.152  0.3263  0.6716 -0.2434
   91MOL0     C12194   7.511   1.428   1.264 -0.5463 -0.3590  1.3365
   91MOL0    Cl12195   7.659   1.338   1.201  0.0231  0.3677  0.0103
   91MOL0     C12196   7.830   2.219   1.666 -0.3415  0.3121  0.6540
   91MOL0     C12197   7.911   2.231   1.775  0.8474  0.0644  0.7854
   91MOL0     O12198   8.155   2.503   1.842 -0.3419  1.0536 -0.6577
   91MOL0     C12199   8.403   2.487   1.980  0.7041  0.7692 -0.5182
   91MOL0     C12200   8.517   2.504   2.071 -0.0953 -0.0259  0.4143
   91MOL0     N12201   8.894   2.336   2.849  0.8730 -0.0423 -0.3037
   91MOL0     N12202   8.947   2.253   2.943 -0.4010  0.1552 -0.3943
   91MOL0     C12203  10.024   2.421   3.553 -0.0122 -0.0765  0.1396
   91MOL0     C12204  10.146   2.388   3.598  0.0870 -0.6168 -0.1243
   91MOL0     C12205  10.477   2.162   3.859  0.1317 -0.2759 -0.1588
   91MOL0     C12206  10.570   2.263   3.830 -0.1552  0.6799  1.1929
   91MOL0     C12207  10.700   2.264   3.886  1.0474  0.0868  0.0943
   91MOL0     C12208  10.742   2.174   3.972 -0.6495 -0.4403 -0.1968
   91MOL0     O12209  10.876   2.175   4.026  0.5230  0.5785 -0.4148
   91MOL0     C12210  10.903   2.271   4.130  0.4322  0.8033  0.1891
   91MOL0     C12211  10.975   2.399   4.084  0.0954 -0.1844  0.2115
   91MOL0     C12212  10.938   2.509   4.179 -0.5479  0.2369 -0.1320
   91MOL0     C12213  11.000   2.645   4.133 -0.0954  0.4411 -0.7279
   91MOL0     C12214  11.010   2.672   3.993  0.2831 -0.0565 -0.4502
   91MOL0     C12215  11.036   2.701   3.880 -0.4165  0.8803 -0.0039
   91MOL0     C12216  10.645   2.076   4.017 -0.5254  0.5137 -0.6144
   91MOL0     C12217  10.514   2.066   3.960 -1.0178  0.2400  1.1049
   91MOL0     H12218  10.093   2.070   3.690 -3.2002 -0.7989 -1.3217
   91MOL0     H12219   9.874   2.128   3.618  1.6013 -0.1627  1.5251
   91MOL0     H12220   9.817   2.230   3.314 -0.2152  2.6104  0.1720
   91MOL0     H12221   9.736   2.158   3.451  1.2235 -0.4001  0.2050
   91MOL0     H12222   9.568   2.334   3.429  1.0206 -1.1315  1.9854
   91MOL0     H12223   9.658   2.399   3.290  0.1767 -0.2134 -0.0582
   91MOL0     H12224   9.633   2.155   3.196 -1.8653  0.7011 -2.8074
   91MOL0     H12225   9.527   2.127   3.335 -0.7028 -0.9309 -1.9102
   91MOL0     H12226   9.405   2.339   3.234 -0.3512 -0.1959  0.7909
   91MOL0     H12227   9.467   2.292   3.084 -1.7394  3.4814  0.8337
   91MOL0     H12228   9.396   2.045   3.129 -0.7701 -1.6309  0.9078
   91MOL0     H12229   9.312   2.104   3.279  1.6074 -0.7872  0.0869
   91MOL0     H12230   9.184   2.251   3.125 -0.1667 -0.8518  0.4248
   91MOL0     H12231   9.273   2.177   2.986  0.4784 -3.9210 -0.1880
   91MOL0     H12232   9.150   1.961   3.110  1.2140 -0.7710 -2.3805
   91MOL0     H12233   9.041   2.098   3.150  0.8442 -0.4829  2.4995
   91MOL0     H12234   8.988   1.941   2.957  0.7601 -1.4175 -2.8966
   91MOL0     H12235   9.121   1.987   2.862 -2.0934 -2.4288  0.0261
   91MOL0     H12236   8.902   2.047   2.698  2.1464 -1.7842  1.2784
   91MOL0     H12237   8.691   2.355   2.681  0.5357 -0.2732  2.3577
   91MOL0     H12238   8.830   2.425   2.593  0.7884 -2.0307 -3.2044
   91MOL0     H12239   8.692   2.143   2.563  1.0432 -1.8738 -0.4444
   91MOL0     H12240   8.830   2.199   2.472 -0.6342 -2.6545 -0.4407
   91MOL0     H12241   8.587   2.380   2.481 -2.9411 -2.1803  1.0455
   91MOL0     H12242   8.567   2.227   2.401 -1.1462  1.6208 -1.5241
   91MOL0     H12243   8.727   2.290   2.230  0.1905  1.0041 -1.3518
   91MOL0     H12244   8.801   2.404   2.341  2.7414 -2.0619 -3.5324
   91MOL0     H12245   8.414   2.261   2.295  1.2550 -0.0670 -0.4975
   91MOL0     H12246   8.224   2.183   2.259 -0.9336  1.4355  1.2797
   91MOL0     H12247   8.103   2.282   2.180 -0.3597  0.7890 -1.0939
   91MOL0     H12248   8.191   2.157   2.084  1.7483  2.4130 -2.4459
   91MOL0     H12249   8.199   2.321   1.606  0.8551 -0.5308  1.1161
   91MOL0     H12250   8.059   2.290   1.420 -1.9132 -0.4286 -1.1157
   91MOL0     H12251   7.757   2.005   1.441  1.2960  0.2456  0.0204
   91MOL0     H12252   7.627   2.130   1.486  1.0092 -0.3855  0.7498
   91MOL0     H12253   7.582   2.152   1.260  2.4776  3.2059  0.8143
   91MOL0     H12254   7.743   2.095   1.206  0.5609  2.2181  1.7211
   91MOL0     H12255   7.561   1.908   1.347 -0.4562  1.3886 -0.4363
   91MOL0     H12256   7.700   1.872   1.248  0.6720  0.4369  1.2313
   91MOL0     H12257   7.449   1.997   1.142  1.3657  1.9539  1.7459
   91MOL0     H12258   7.574   1.923   1.038  2.0003  2.9462  1.3944
   91MOL0     H12259   7.397   1.766   1.037 -0.4904 -2.6763  0.2769
   91MOL0     H12260   7.388   1.785   1.216  1.2614  1.1643  0.5570
   91MOL0     H12261   7.628   1.659   1.065  0.1672  0.6114 -0.1866
   91MOL0     H12262   7.608   1.665   1.239 -2.8755  4.0075  0.9625
   91MOL0     H12263   7.455   1.488   1.051 -0.8120 -1.1552  0.5602
   91MOL0     H12264   7.357   1.542   1.172  0.0060 -1.2015 -0.5309
   91MOL0     H12265   7.434   1.353   1.288 -1.0679  0.2695  1.6453
   91MOL0     H12266   7.530   1.485   1.356 -0.7553  0.4707  0.8667
   91MOL0     H12267   7.730   2.185   1.692  0.5332 -0.8975  2.6756
   91MOL0     H12268   7.878   2.219   1.878  2.2713 -3.0221  1.0146
   91MOL0     H12269   8.412   2.548   1.891  2.7199 -0.1457 -0.9929
   91MOL0     H12270   8.587   2.585   2.055 -0.0648  0.3245  2.1121
   91MOL0     H12271  10.002   2.514   3.500  1.8367 -0.9229 -2.2811
   91MOL0     H12272  10.220   2.464   3.576 -0.3199 -0.4685 -1.0070
   91MOL0     H12273  10.554   2.346   3.762  1.3570  0.4686  0.5317
   91MOL0     H12274  10.762   2.341   3.841  0.1221  0.2308 -0.9770
   91MOL0     H12275  10.811   2.301   4.181  0.2714  0.2326  0.2462
   91MOL0     H12276  10.954   2.199   4.195 -2.3569 -0.6380  0.9684
   91MOL0     H12277  10.941   2.423   3.983  2.7832  1.8242 -0.3157
   91MOL0     H12278  11.084   2.389   4.081  0.1318 -0.4201  1.7014
   91MOL0     H12279  10.967   2.491   4.283  0.2059  0.0697 -0.3697
   91MOL0     H12280  10.831   2.528   4.166 -0.6463  1.3159  1.9083
   91MOL0     H12281  11.101   2.654   4.174  0.4571 -3.5263 -0.7913
   91MOL0     H12282  10.946   2.726   4.183 -2.4790 -1.8145  0.6122
   91MOL0     H12283  11.067   2.736   3.784 -0.1653  2.0755  0.4917
   91MOL0     H12284  10.676   2.007   4.094 -1.7223  1.2580  0.5829
   91MOL0     H12285  10.448   1.984   3.985  1.2459 -3.0922 -2.7076
   92MOL0     O12286   9.408  11.469   7.436  0.3531  0.0036  0.0245
   92MOL0     C12287   9.308  11.515   7.382 -0.6645 -0.9243 -0.4560
   92MOL0     O12288   9.194  11.563   7.447 -0.3605 -0.4938 -0.0076
   92MOL0     C12289   9.171  11.545   7.585  0.2839 -0.3529  1.2139
   92MOL0     C12290   9.200  11.435   7.654 -0.0700  0.0235  0.1555
   92MOL0     C12291   9.153  11.413   7.774 -0.2324  0.5101 -0.1804
   92MOL0     C12292   9.086  11.526   7.838  0.7432  0.7596 -0.6079
   92MOL0     O12293   9.015  11.500   7.953 -0.5217  0.4495  0.4114
   92MOL0     C12294   8.869  11.507   7.935  0.2073  0.5637  0.0195
   92MOL0     C12295   8.802  11.399   8.028  0.0090  0.0446 -0.8998
   92MOL0     C12296   8.826  11.252   7.971  0.9917 -0.2048  0.1420
   92MOL0     C12297   8.726  11.139   8.011  0.0517 -0.8131 -0.8820
   92MOL0     C12298   8.772  11.012   7.925  0.7744 -0.8622 -0.7986
   92MOL0     C12299   8.894  10.937   7.979  0.3335 -0.5562  0.9670
   92MOL0     C12300   8.925  10.795   7.923  0.1586 -0.8261 -0.3365
   92MOL0     C12301   9.024  10.804   7.807 -0.3264 -0.4261 -0.3770
   92MOL0     N12302   9.022  10.682   7.729  0.6227 -0.2685 -1.0016
   92MOL0     C12303   8.933  10.646   7.629  0.1604  0.3722  0.1986
   92MOL0     C12304   8.971  10.523   7.598  1.5762  1.2545  0.0608
   92MOL0     C12305   8.925  10.465   7.471 -0.4712 -0.0670 -0.4849
   92MOL0     C12306   8.779  10.426   7.443  0.1340  0.1468 -0.7691
   92MOL0     C12307   8.694  10.541   7.385  0.6387  0.1069  0.1555
   92MOL0     C12308   8.735  10.598   7.248 -0.5706 -0.2899  0.1964
   92MOL0     O12309   8.627  10.675   7.196 -0.3812 -0.4754 -0.8266
   92MOL0     C12310   8.604  10.797   7.252 -0.4204 -0.0038 -0.0816
   92MOL0     C12311   8.467  10.830   7.263  0.8074 -0.3899  0.1746
   92MOL0     C12312   8.431  10.942   7.345 -0.4790  0.0173 -0.4067
   92MOL0     C12313   8.282  10.953   7.371 -0.2293 -0.8823  0.8989
   92MOL0     C12314   8.533  11.022   7.401  0.7756  0.3465 -1.1459
   92MOL0     C12315   8.501  11.145   7.486 -0.1355  0.6343  0.0057
   92MOL0     O12316   8.610  11.205   7.557 -0.3545  0.4218 -0.1307
   92MOL0     C12317   8.584  11.316   7.625 -0.3209 -0.6509 -0.7839
   92MOL0     C12318   8.626  11.430   7.564 -0.0368 -0.4545 -1.0255
   92MOL0     C12319   8.606  11.554   7.618  0.2038  0.5010 -0.4640
   92MOL0     C12320   8.543  11.558   7.748  0.1632  0.1850  0.9969
   92MOL0     O12321   8.528  11.671   7.823  0.6327  0.4032  0.1146
   92MOL0     C12322   8.553  11.812   7.773 -0.0373  0.1233 -0.1761
   92MOL0     C12323   8.695  11.852   7.802  0.9120 -0.1508 -0.3087
   92MOL0     C12324   8.709  11.954   7.919 -0.8162  0.5773  0.6788
   92MOL0     C12325   8.858  11.937   7.980  0.8682  0.4935  0.0218
   92MOL0     C12326   8.884  12.018   8.107  0.1430 -0.2294 -0.2943
   92MOL0     C12327   8.796  11.984   8.233 -0.3409 -0.7850  0.1945
   92MOL0     C12328   8.836  12.046   8.364 -0.5597 -0.2122  0.2163
   92MOL0     C12329   8.741  12.017   8.488 -0.2574  0.4187 -0.0457
   92MOL0    Cl12330   8.788  12.108   8.637 -0.0244  0.1535  0.1667
   92MOL0     C12331   8.513  11.435   7.817  0.6527 -0.0856 -1.2495
   92MOL0     C12332   8.528  11.310   7.753  0.3297  0.1406  0.5730
   92MOL0     O12333   8.382  11.183   7.477 -1.3818 -0.6222  0.1819
   92MOL0     C12334   8.663  10.995   7.383  0.0832 -0.1018 -0.5992
   92MOL0     C12335   8.701  10.884   7.304  1.1686 -0.6068 -0.6846
   92MOL0     N12336   9.045  10.471   7.694  0.0599  0.7026 -0.4240
   92MOL0     N12337   9.070  10.567   7.770 -0.1284  0.3842 -1.1114
   92MOL0     C12338   9.078  11.653   7.776 -0.3142  0.7054  0.3964
   92MOL0     C12339   9.118  11.659   7.639  0.1596 -0.4317  0.2377
   92MOL0     C12340   9.302  11.525   7.239 -0.7000 -0.5064  0.3255
   92MOL0     C12341   9.416  11.500   7.153 -0.4860  0.1507  0.4961
   92MOL0     C12342   9.408  11.511   7.011  0.0300  1.3220 -0.0507
   92MOL0     C12343   9.284  11.532   6.951  0.2459  0.6896  0.4266
   92MOL0     O12344   9.300  11.538   6.813  0.3099  0.1564  0.2566
   92MOL0     C12345   9.197  11.614   6.738  0.5032  0.6569 -0.0399
   92MOL0     C12346   9.241  11.650   6.601  0.5734 -0.1581 -0.5967
   92MOL0     C12347   9.348  11.749   6.598  0.5936  0.4057 -0.3433
   92MOL0     C12348   9.333  11.851   6.480 -0.1697 -0.2050  0.0159
   92MOL0     C12349   9.315  11.803   6.346 -0.5741  1.0466 -0.4821
   92MOL0     C12350   9.317  11.793   6.227  0.8862  0.1262  0.8069
   92MOL0     C12351   9.169  11.541   7.034 -0.2620 -0.2928  0.2559
   92MOL0     C12352   9.178  11.551   7.177  0.0907  0.0185  0.2344
   92MOL0     H12353   9.247  11.350   7.606 -1.3548 -1.4425  1.3597
   92MOL0     H12354   9.165  11.319   7.827  2.9401  0.1365 -1.3597
   92MOL0     H12355   8.836  11.608   7.961  1.0522  0.7379  0.4465
   92MOL0     H12356   8.832  11.482   7.835  0.2855 -1.8525  0.5332
   92MOL0     H12357   8.854  11.408   8.124 -1.2771  0.3231 -0.2135
   92MOL0     H12358   8.696  11.425   8.035 -0.4370 -1.3048 -2.2114
   92MOL0     H12359   8.817  11.257   7.862 -0.1967  1.4224  0.2777
   92MOL0     H12360   8.924  11.214   8.000 -0.1638 -2.9358  0.6906
   92MOL0     H12361   8.740  11.108   8.115 -1.1687 -1.1990 -0.8141
   92MOL0     H12362   8.620  11.166   8.004 -0.5586 -1.4083  3.3188
   92MOL0     H12363   8.689  10.943   7.906 -1.4746  1.1799  1.0102
   92MOL0     H12364   8.800  11.041   7.823 -0.2640  2.8647 -0.1685
   92MOL0     H12365   8.985  10.996   7.994  1.2510 -1.2660 -1.3316
   92MOL0     H12366   8.842  10.910   8.071 -1.9998 -0.5917 -0.2768
   92MOL0     H12367   8.961  10.726   7.999  0.4156 -0.1821  0.1342
   92MOL0     H12368   8.824  10.761   7.898 -1.0622 -0.0074  2.9842
   92MOL0     H12369   9.122  10.836   7.844  0.2218 -0.4918 -1.7280
   92MOL0     H12370   8.993  10.886   7.742 -1.3554 -1.6971 -1.5431
   92MOL0     H12371   8.873  10.727   7.589 -1.0460 -0.0982  0.9901
   92MOL0     H12372   8.965  10.528   7.391  3.3301  0.8461  1.9027
   92MOL0     H12373   8.978  10.370   7.472 -1.6808 -0.7682 -0.6642
   92MOL0     H12374   8.739  10.397   7.541  3.5803 -0.4923  0.5960
   92MOL0     H12375   8.771  10.341   7.374 -1.1162  1.2661 -2.0764
   92MOL0     H12376   8.680  10.625   7.454  0.4626  0.7786 -0.6817
   92MOL0     H12377   8.595  10.495   7.376  1.3225 -0.9790 -3.1632
   92MOL0     H12378   8.759  10.511   7.187 -0.9869  0.2682 -0.7915
   92MOL0     H12379   8.827  10.657   7.247 -0.6284 -0.1999 -0.8871
   92MOL0     H12380   8.393  10.758   7.231  2.1729 -1.1476 -1.4167
   92MOL0     H12381   8.253  11.030   7.299  3.6725  0.7530  0.8070
   92MOL0     H12382   8.230  10.861   7.346 -0.3317 -0.7196  0.5013
   92MOL0     H12383   8.252  10.986   7.471  0.4440 -0.5655  1.0019
   92MOL0     H12384   8.697  11.427   7.481  3.9784  1.1076  2.0170
   92MOL0     H12385   8.646  11.644   7.572 -0.2265  0.3631 -1.1301
   92MOL0     H12386   8.544  11.815   7.665  1.1523 -0.8357 -0.3250
   92MOL0     H12387   8.490  11.893   7.813 -0.4877  0.0805 -0.7939
   92MOL0     H12388   8.751  11.759   7.818 -1.4246 -1.2121  2.4729
   92MOL0     H12389   8.738  11.911   7.720 -1.0242  5.0274  1.9295
   92MOL0     H12390   8.632  11.929   7.992 -3.0071  0.8429 -1.4167
   92MOL0     H12391   8.688  12.059   7.894  1.8682  0.7088 -1.4599
   92MOL0     H12392   8.879  11.829   7.983  0.3663  0.3872 -0.3111
   92MOL0     H12393   8.937  11.968   7.911  0.7251 -0.4807 -0.6117
   92MOL0     H12394   8.877  12.124   8.083 -0.0131  1.1317  4.5400
   92MOL0     H12395   8.990  12.007   8.131  0.6102  0.7365 -1.7918
   92MOL0     H12396   8.702  12.039   8.219  1.6488  2.4618 -1.6291
   92MOL0     H12397   8.789  11.875   8.242  2.6621 -1.2873 -2.1728
   92MOL0     H12398   8.843  12.154   8.350 -0.0293 -0.3212 -0.4009
   92MOL0     H12399   8.939  12.019   8.387  0.2066  0.6483 -2.0103
   92MOL0     H12400   8.742  11.908   8.497 -0.8661  0.4316  0.1656
   92MOL0     H12401   8.638  12.042   8.464 -0.4716 -0.3052  0.0997
   92MOL0     H12402   8.479  11.443   7.919 -0.8032 -0.6157 -1.6733
   92MOL0     H12403   8.505  11.221   7.811 -0.3980 -0.2581 -0.3027
   92MOL0     H12404   8.729  11.068   7.430 -2.4224  3.0744 -1.5853
   92MOL0     H12405   8.809  10.870   7.301  0.9049 -2.6492 -2.7938
   92MOL0     H12406   9.030  11.738   7.823 -1.5759  0.6375 -0.7116
   92MOL0     H12407   9.074  11.732   7.572 -2.3685 -0.0630  2.1511
   92MOL0     H12408   9.512  11.473   7.195 -1.4944 -4.3242  0.4634
   92MOL0     H12409   9.490  11.501   6.940 -0.7537 -0.7336 -0.7158
   92MOL0     H12410   9.102  11.559   6.733 -0.3466  2.1773 -1.7380
   92MOL0     H12411   9.167  11.700   6.798 -0.3791  0.6617 -0.4664
   92MOL0     H12412   9.163  11.712   6.554 -0.7743  1.0400  2.9173
   92MOL0     H12413   9.268  11.564   6.539 -1.9526  0.6028 -2.9576
   92MOL0     H12414   9.442  11.695   6.582 -1.0254 -2.5082 -0.7931
   92MOL0     H12415   9.355  11.795   6.697 -0.7544  2.0546 -0.9668
   92MOL0     H12416   9.416  11.922   6.480 -3.0260  3.4424  1.0440
   92MOL0     H12417   9.243  11.909   6.503 -1.3315 -2.3787  1.2594
   92MOL0     H12418   9.316  11.794   6.120  2.4834  0.9989  0.7634
   92MOL0     H12419   9.079  11.570   6.980  1.5623 -0.0953 -2.8922
   92MOL0     H12420   9.088  11.573   7.233 -1.1063  0.9637 -1.9338
   93MOL0     O12421   9.714  10.946   2.858 -0.1697  0.1594 -0.3169
   93MOL0     C12422   9.774  10.839   2.837  0.4663 -0.5092 -0.1930
   93MOL0     O12423   9.792  10.744   2.928  0.5357 -0.0124  0.3208
   93MOL0     C12424   9.742  10.752   3.053  0.0469 -0.7384  0.8944
   93MOL0     C12425   9.606  10.722   3.067 -0.2578  0.1904 -0.4967
   93MOL0     C12426   9.535  10.713   3.194  0.3654  0.0673 -0.2241
   93MOL0     C12427   9.615  10.733   3.309  0.3953 -0.4647  0.2122
   93MOL0     O12428   9.581  10.725   3.441  0.5285  0.2034 -0.0634
   93MOL0     C12429   9.451  10.763   3.492 -0.4848 -0.7504 -0.2339
   93MOL0     C12430   9.410  10.904   3.464 -0.0863 -0.5240  0.3032
   93MOL0     C12431   9.263  10.930   3.492 -0.1959 -0.3797 -1.1704
   93MOL0     C12432   9.219  11.063   3.427  0.3732 -0.5732 -0.8043
   93MOL0     C12433   9.078  11.118   3.471 -0.0839  0.5786 -0.9515
   93MOL0     C12434   9.067  11.158   3.615 -1.0997 -0.3691  0.6209
   93MOL0     C12435   8.929  11.214   3.652 -0.3730 -0.2387  0.4331
   93MOL0     C12436   8.812  11.109   3.661  0.6764 -0.3114  0.4207
   93MOL0     N12437   8.686  11.181   3.686  1.3827 -0.2133  0.0167
   93MOL0     C12438   8.599  11.162   3.795 -0.4229 -0.4043  0.0863
   93MOL0     C12439   8.490  11.245   3.766  0.1194  0.0124 -0.8827
   93MOL0     C12440   8.379  11.272   3.866  0.2785 -0.4713  0.1654
   93MOL0     C12441   8.259  11.184   3.830  0.3796 -0.1784  0.0387
   93MOL0     C12442   8.137  11.205   3.921  0.3349  0.0381  0.0015
   93MOL0     C12443   8.163  11.165   4.064 -0.4327 -0.7068 -0.6293
   93MOL0     O12444   8.039  11.169   4.138 -0.2453 -0.6059  0.3409
   93MOL0     C12445   8.028  11.089   4.249  0.0897  0.6616  1.0240
   93MOL0     C12446   7.901  11.036   4.284  0.1873  0.7195 -0.0568
   93MOL0     C12447   7.883  10.958   4.401 -0.8367  0.2642  0.3108
   93MOL0     C12448   7.747  10.901   4.429 -0.2669 -0.0281 -0.4426
   93MOL0     C12449   8.000  10.918   4.483 -0.5985  0.0015 -0.1745
   93MOL0     C12450   7.991  10.842   4.610  0.6298 -0.2702  0.0799
   93MOL0     O12451   8.113  10.821   4.673  0.6240 -0.3666  0.0109
   93MOL0     C12452   8.128  10.752   4.793  0.7419  0.4847 -0.1355
   93MOL0     C12453   8.236  10.778   4.868 -0.5949  0.0993  0.2446
   93MOL0     C12454   8.269  10.708   4.986  0.7975 -0.3194 -0.3584
   93MOL0     C12455   8.180  10.613   5.037  0.2786 -0.0393 -1.1095
   93MOL0     O12456   8.206  10.540   5.155  0.3453 -0.3956  0.3504
   93MOL0     C12457   8.226  10.620   5.273 -0.1927 -0.1652  0.7212
   93MOL0     C12458   8.140  10.557   5.386  0.0743  0.3294 -1.0901
   93MOL0     C12459   8.190  10.566   5.527  0.1987  0.1539 -0.1729
   93MOL0     C12460   8.272  10.447   5.573 -0.9952 -0.6364  0.8020
   93MOL0     C12461   8.180  10.335   5.636 -0.0173  0.0889 -0.0053
   93MOL0     C12462   8.270  10.210   5.664  0.7155 -1.0607  0.0222
   93MOL0     C12463   8.369  10.229   5.775  0.6175 -1.0888 -0.2727
   93MOL0     C12464   8.481  10.117   5.772 -0.8043 -0.2292 -0.2234
   93MOL0    Cl12465   8.607  10.126   5.642 -0.1739 -0.4662 -0.4950
   93MOL0     C12466   8.072  10.584   4.961  0.5989  0.1156  0.3186
   93MOL0     C12467   8.041  10.655   4.837 -0.5367  0.2889  0.9263
   93MOL0     O12468   7.884  10.802   4.657  0.2314 -0.8873 -0.1595
   93MOL0     C12469   8.123  10.965   4.433 -0.3175  0.1024 -0.1423
   93MOL0     C12470   8.138  11.059   4.334  0.6908  0.1207  0.0711
   93MOL0     N12471   8.508  11.314   3.653  1.1440  0.1631  0.1599
   93MOL0     N12472   8.615  11.269   3.602 -0.4347  0.2462  0.1935
   93MOL0     C12473   9.755  10.775   3.290  0.3180  0.6694  0.0582
   93MOL0     C12474   9.816  10.770   3.163 -0.0234 -0.2817 -1.7328
   93MOL0     C12475   9.813  10.815   2.699 -0.7807 -0.7076  1.1788
   93MOL0     C12476   9.932  10.742   2.659  0.2560 -0.1870  0.1544
   93MOL0     C12477   9.968  10.717   2.529 -0.3948  0.9278  0.1105
   93MOL0     C12478   9.906  10.779   2.423 -0.8684  0.1868 -0.3757
   93MOL0     O12479   9.942  10.785   2.291 -0.9345  0.5601  0.6770
   93MOL0     C12480  10.012  10.671   2.241  0.1996 -0.5810  0.2423
   93MOL0     C12481   9.918  10.548   2.262 -0.3743  0.3835  1.3823
   93MOL0     C12482   9.982  10.421   2.203  0.0256  0.4281  0.8592
   93MOL0     C12483  10.003  10.443   2.047 -0.1020  0.1753  0.5702
   93MOL0     C12484  10.021  10.311   1.980  0.7812  0.3954 -0.0993
   93MOL0     C12485  10.027  10.210   1.907 -0.2775 -0.2743 -0.1238
   93MOL0     C12486   9.798  10.870   2.457 -0.7181  0.6183  1.2457
   93MOL0     C12487   9.745  10.878   2.590  0.4468  0.9064  1.0089
   93MOL0     H12488   9.544  10.695   2.982  0.6269 -0.2118 -1.0370
   93MOL0     H12489   9.433  10.676   3.201  0.3314  0.3032  0.7239
   93MOL0     H12490   9.372  10.692   3.467  0.1834 -2.0226  1.0863
   93MOL0     H12491   9.466  10.761   3.601  5.6498 -1.8675 -0.7731
   93MOL0     H12492   9.471  10.969   3.528  2.2397 -3.3546  1.1447
   93MOL0     H12493   9.426  10.928   3.359 -1.7628  0.6953  0.2786
   93MOL0     H12494   9.203  10.850   3.449 -2.8142  2.1688 -2.6329
   93MOL0     H12495   9.256  10.936   3.601  2.1792  0.7533 -1.0225
   93MOL0     H12496   9.293  11.143   3.440  2.0509 -2.3948  2.0790
   93MOL0     H12497   9.217  11.048   3.319  1.3432  1.9605 -1.2393
   93MOL0     H12498   9.047  11.207   3.417 -5.0559 -1.9737 -2.9811
   93MOL0     H12499   9.004  11.037   3.463  0.4718  0.0129 -0.4892
   93MOL0     H12500   9.103  11.086   3.689  2.8580  0.8296  0.0978
   93MOL0     H12501   9.132  11.246   3.619  0.9376 -1.7596  0.0315
   93MOL0     H12502   8.930  11.276   3.742  0.4228 -2.1135  1.7640
   93MOL0     H12503   8.892  11.286   3.578  1.2215 -0.3846 -0.5436
   93MOL0     H12504   8.836  11.043   3.745  1.8626 -0.3402  0.0815
   93MOL0     H12505   8.815  11.035   3.580 -1.6584 -2.5505  2.2114
   93MOL0     H12506   8.600  11.096   3.881  0.8812 -0.3044  0.1688
   93MOL0     H12507   8.413  11.250   3.967 -2.1999 -3.1424  0.5524
   93MOL0     H12508   8.337  11.373   3.857  0.3603 -0.4112  0.4666
   93MOL0     H12509   8.276  11.076   3.829 -0.2830 -0.3002  0.6719
   93MOL0     H12510   8.214  11.218   3.736 -3.7027 -0.9490  1.5052
   93MOL0     H12511   8.051  11.152   3.878  2.5306 -0.3825 -4.4821
   93MOL0     H12512   8.121  11.313   3.928  3.8777  0.7331 -0.9229
   93MOL0     H12513   8.241  11.227   4.110 -0.4089 -1.4747  0.3907
   93MOL0     H12514   8.211  11.067   4.074  2.8829  0.9713  2.4165
   93MOL0     H12515   7.814  11.071   4.229  0.2422 -0.2846 -0.8153
   93MOL0     H12516   7.725  10.901   4.536  2.6414  0.0904  0.2231
   93MOL0     H12517   7.669  10.956   4.376  0.9479  0.9468 -1.2830
   93MOL0     H12518   7.744  10.794   4.405 -2.3148 -0.0033 -0.4486
   93MOL0     H12519   8.314  10.844   4.831 -0.3132  1.1483  2.5827
   93MOL0     H12520   8.360  10.723   5.044  2.1945 -2.9783 -1.6821
   93MOL0     H12521   8.335  10.615   5.283  0.1221 -1.4747 -2.3728
   93MOL0     H12522   8.192  10.722   5.254  0.6922  0.5415  2.6936
   93MOL0     H12523   8.039  10.598   5.384 -0.0351  0.7260  3.3209
   93MOL0     H12524   8.123  10.451   5.368 -0.0176 -0.1409  1.4479
   93MOL0     H12525   8.108  10.567   5.600  0.7531  0.7483  0.4603
   93MOL0     H12526   8.241  10.661   5.542 -1.3413  1.1195 -0.8481
   93MOL0     H12527   8.333  10.403   5.494  0.9538  0.3265  1.7032
   93MOL0     H12528   8.330  10.491   5.655 -1.6953 -3.2850  2.8878
   93MOL0     H12529   8.106  10.315   5.558 -0.2254 -2.8909  0.8182
   93MOL0     H12530   8.146  10.368   5.735 -1.0348 -0.5111 -0.1453
   93MOL0     H12531   8.198  10.132   5.693  1.4184 -1.3797  0.9438
   93MOL0     H12532   8.320  10.186   5.570  3.3565  2.0412  0.4771
   93MOL0     H12533   8.315  10.223   5.870 -1.3125  0.4409 -1.2040
   93MOL0     H12534   8.435  10.316   5.769 -1.1850  0.4564  1.0735
   93MOL0     H12535   8.440  10.019   5.749  1.8624 -1.3199 -0.7465
   93MOL0     H12536   8.541  10.115   5.863 -2.2597 -3.0480  0.7850
   93MOL0     H12537   7.998  10.513   4.995  1.0574 -0.4274  0.1967
   93MOL0     H12538   7.953  10.632   4.777  0.1320  1.7342 -0.6847
   93MOL0     H12539   8.220  10.960   4.480  1.2831  1.7294 -2.9962
   93MOL0     H12540   8.242  11.081   4.312  0.7620 -0.8740 -0.6597
   93MOL0     H12541   9.813  10.801   3.377  0.9045  0.9710 -0.4152
   93MOL0     H12542   9.917  10.808   3.156 -0.3107  2.1411  2.9048
   93MOL0     H12543   9.996  10.713   2.742  1.8120 -0.9265 -1.2162
   93MOL0     H12544  10.054  10.655   2.507 -0.0383  2.4147 -3.3844
   93MOL0     H12545  10.019  10.693   2.134 -3.0732  1.7092  0.3424
   93MOL0     H12546  10.115  10.658   2.275  0.4789 -1.1341 -0.7749
   93MOL0     H12547   9.821  10.552   2.212  0.2326 -1.2580 -0.0175
   93MOL0     H12548   9.897  10.524   2.367 -0.8440 -0.6684  1.0578
   93MOL0     H12549   9.911  10.339   2.220 -1.7428  0.6616 -3.8744
   93MOL0     H12550  10.077  10.388   2.245  0.6941  1.2627  0.0456
   93MOL0     H12551  10.078  10.522   2.037 -1.8676  1.8851  0.2219
   93MOL0     H12552   9.908  10.479   2.007 -1.4194 -0.1822  3.1384
   93MOL0     H12553  10.021  10.128   1.839 -3.6359 -0.8994  0.7339
   93MOL0     H12554   9.747  10.922   2.377 -0.1401 -1.9433 -0.9443
   93MOL0     H12555   9.650  10.931   2.601 -2.0833 -2.2146 -2.9993
   94MOL0     O12556   9.887   6.713   6.225 -0.5073  0.7395  0.2589
   94MOL0     C12557   9.843   6.828   6.214 -0.0336  0.2922 -0.9228
   94MOL0     O12558   9.706   6.865   6.241 -0.2663  0.2096  0.2471
   94MOL0     C12559   9.627   6.792   6.333  0.1809 -0.0739 -0.2135
   94MOL0     C12560   9.510   6.729   6.286 -0.0990  1.0999 -0.2826
   94MOL0     C12561   9.424   6.665   6.383  0.2326 -1.3821 -0.2438
   94MOL0     C12562   9.450   6.672   6.521 -0.2099  0.0496  0.0987
   94MOL0     O12563   9.372   6.624   6.618  0.3797  0.4346 -1.4175
   94MOL0     C12564   9.238   6.655   6.597  0.4288 -0.6889 -1.1640
   94MOL0     C12565   9.147   6.614   6.713  0.2416 -0.2614  0.1195
   94MOL0     C12566   9.178   6.686   6.843 -0.0879  0.6015  1.3382
   94MOL0     C12567   9.055   6.679   6.924  0.8028  0.4471 -0.6411
   94MOL0     C12568   9.073   6.753   7.066 -0.0434  0.4453 -0.6929
   94MOL0     C12569   8.937   6.764   7.145 -1.0080 -0.5998  0.8970
   94MOL0     C12570   8.818   6.813   7.057  1.0050 -0.5046  0.8204
   94MOL0     C12571   8.681   6.787   7.131 -0.6463 -0.0033  0.0056
   94MOL0     N12572   8.637   6.870   7.243  0.1110  0.1555 -0.8012
   94MOL0     C12573   8.669   6.856   7.370  0.1002  0.4948 -0.8576
   94MOL0     C12574   8.615   6.966   7.429  0.6271  0.6950  0.3904
   94MOL0     C12575   8.612   6.984   7.582  0.2466  0.2355 -0.1607
   94MOL0     C12576   8.586   7.136   7.636  0.3416  0.4246  1.0895
   94MOL0     C12577   8.705   7.224   7.590  0.5029 -0.0636  0.1216
   94MOL0     C12578   8.691   7.316   7.472 -0.0897 -0.6183 -0.1905
   94MOL0     O12579   8.798   7.404   7.451 -0.2772  0.6360  0.2936
   94MOL0     C12580   8.918   7.339   7.418  0.7558 -0.6232  0.0069
   94MOL0     C12581   9.039   7.409   7.452 -0.0813 -0.4138 -1.1744
   94MOL0     C12582   9.161   7.368   7.397  0.1381  0.1258  0.9703
   94MOL0     C12583   9.272   7.449   7.436 -1.2648 -0.3824  0.7411
   94MOL0     C12584   9.161   7.249   7.315  0.7657  0.4644 -0.4493
   94MOL0     C12585   9.283   7.179   7.275 -0.0554  0.0409 -0.1304
   94MOL0     O12586   9.268   7.045   7.270 -0.3131  0.3362 -0.0002
   94MOL0     C12587   9.367   6.967   7.213 -0.3185  0.1295 -0.0440
   94MOL0     C12588   9.444   6.897   7.305  0.3841  0.8121  0.7104
   94MOL0     C12589   9.515   6.788   7.249 -0.2575 -0.0804 -0.6434
   94MOL0     C12590   9.524   6.780   7.113 -1.8388 -0.4535  0.2742
   94MOL0     O12591   9.614   6.684   7.066 -0.0501 -0.6813 -0.3593
   94MOL0     C12592   9.592   6.601   6.959 -0.2728 -0.6555  0.1726
   94MOL0     C12593   9.482   6.498   6.999 -0.2343  0.2698  0.5839
   94MOL0     C12594   9.547   6.374   7.047  0.6275 -0.5289 -0.1939
   94MOL0     C12595   9.439   6.264   7.067  0.6658  0.2542  0.3745
   94MOL0     C12596   9.489   6.130   7.119 -0.4080  0.0507  0.4919
   94MOL0     C12597   9.399   6.010   7.100 -0.2504  0.0707 -0.4979
   94MOL0     C12598   9.456   5.870   7.157  0.1338 -0.2514  0.0987
   94MOL0     C12599   9.382   5.749   7.101  0.4868  0.5407 -0.0374
   94MOL0    Cl12600   9.198   5.758   7.130  0.5409  0.5502  0.3101
   94MOL0     C12601   9.453   6.862   7.027  0.4937  0.3435  0.1184
   94MOL0     C12602   9.371   6.959   7.080 -0.1358  0.1362 -0.2351
   94MOL0     O12603   9.382   7.242   7.236 -0.4153  0.2666 -0.4494
   94MOL0     C12604   9.048   7.189   7.285  0.6495 -0.2201  1.0690
   94MOL0     C12605   8.925   7.233   7.329  0.4045  0.5555  0.2171
   94MOL0     N12606   8.522   7.030   7.343  0.7678 -0.3999 -0.1491
   94MOL0     N12607   8.560   6.982   7.233 -0.5060  0.3962 -0.0216
   94MOL0     C12608   9.572   6.735   6.563  0.2828 -0.5515  0.5536
   94MOL0     C12609   9.655   6.785   6.470 -0.6407  1.2861 -0.5310
   94MOL0     C12610   9.935   6.936   6.163  0.1999  0.0292 -0.2619
   94MOL0     C12611  10.058   6.912   6.110 -0.6836  0.7928  0.3614
   94MOL0     C12612  10.142   7.015   6.064  0.0365 -0.1496  0.8075
   94MOL0     C12613  10.095   7.151   6.061  0.1932 -0.1403  0.6250
   94MOL0     O12614  10.160   7.264   6.017 -0.1789 -0.8802 -0.0923
   94MOL0     C12615  10.264   7.254   5.920  0.4568  0.2103 -0.2657
   94MOL0     C12616  10.234   7.341   5.808 -0.3741  0.1563 -0.0548
   94MOL0     C12617  10.323   7.318   5.688 -0.2024 -0.3398 -0.1960
   94MOL0     C12618  10.287   7.412   5.560 -0.2914 -0.3892 -0.2151
   94MOL0     C12619  10.279   7.554   5.593 -0.1637  0.5184 -0.4788
   94MOL0     C12620  10.275   7.671   5.622 -0.2733 -0.8174 -0.0454
   94MOL0     C12621   9.959   7.172   6.102 -0.1185  0.1992  0.3092
   94MOL0     C12622   9.886   7.064   6.151  0.4135 -0.3348  0.2997
   94MOL0     H12623   9.484   6.716   6.182  3.2649 -0.6742 -1.0313
   94MOL0     H12624   9.331   6.630   6.341 -1.7617  3.8907 -0.9924
   94MOL0     H12625   9.227   6.764   6.595 -0.3428 -0.6946  0.6091
   94MOL0     H12626   9.199   6.628   6.498  1.1612  1.9730 -2.2686
   94MOL0     H12627   9.050   6.643   6.673  0.3639  0.1774  0.1357
   94MOL0     H12628   9.153   6.504   6.711  0.7110 -0.2354 -0.4935
   94MOL0     H12629   9.264   6.640   6.892 -0.5119 -0.0630  1.4687
   94MOL0     H12630   9.207   6.790   6.825  1.8290 -0.3230 -1.6284
   94MOL0     H12631   8.981   6.735   6.866  1.1005 -1.8300 -3.4356
   94MOL0     H12632   9.028   6.573   6.937  0.4509  0.8151  2.6239
   94MOL0     H12633   9.158   6.717   7.125 -1.5557  0.0377  1.3639
   94MOL0     H12634   9.109   6.854   7.042  1.4660  0.3939  1.0527
   94MOL0     H12635   8.919   6.668   7.195  1.9974 -1.7618  0.0213
   94MOL0     H12636   8.957   6.825   7.234  1.0473 -1.0962  0.8432
   94MOL0     H12637   8.822   6.918   7.029  0.9279 -1.0109 -1.2708
   94MOL0     H12638   8.801   6.753   6.967 -1.7382 -1.7082  2.0390
   94MOL0     H12639   8.686   6.689   7.179 -1.5597  0.2414  0.6368
   94MOL0     H12640   8.611   6.800   7.047  0.7587 -0.1925 -1.2308
   94MOL0     H12641   8.727   6.777   7.416 -1.1385  0.3768  0.5773
   94MOL0     H12642   8.531   6.919   7.619 -2.4271  1.6142 -3.0982
   94MOL0     H12643   8.712   6.953   7.613  0.3906 -0.0439 -0.8861
   94MOL0     H12644   8.577   7.120   7.743  1.9975 -2.6139  0.9026
   94MOL0     H12645   8.495   7.175   7.589  0.5524 -0.7546 -0.3830
   94MOL0     H12646   8.790   7.158   7.573 -0.0159 -0.0970 -2.7095
   94MOL0     H12647   8.731   7.290   7.674 -0.5974  3.7224 -2.2465
   94MOL0     H12648   8.597   7.370   7.487  1.0471  1.0742  1.4115
   94MOL0     H12649   8.685   7.251   7.385 -0.5420 -2.6021  1.2639
   94MOL0     H12650   9.025   7.506   7.499  0.5697 -0.0212 -1.7745
   94MOL0     H12651   9.337   7.403   7.511 -0.5279  1.9692  1.6530
   94MOL0     H12652   9.323   7.476   7.344 -1.7615  1.9608  1.0823
   94MOL0     H12653   9.234   7.547   7.468 -0.8683  0.0192 -0.0033
   94MOL0     H12654   9.440   6.922   7.411  0.3193  2.4604  0.3356
   94MOL0     H12655   9.567   6.719   7.314 -1.7150  1.0333  1.8126
   94MOL0     H12656   9.573   6.650   6.863  0.7769  4.0979  2.0852
   94MOL0     H12657   9.687   6.551   6.942  0.9726  1.2155  1.2123
   94MOL0     H12658   9.408   6.537   7.068 -4.5877 -3.2793 -1.5645
   94MOL0     H12659   9.428   6.482   6.905 -1.0267  3.3675  0.4143
   94MOL0     H12660   9.585   6.406   7.145  1.6594  0.0152 -0.7593
   94MOL0     H12661   9.634   6.334   6.994  2.2677 -0.1495  2.0219
   94MOL0     H12662   9.376   6.306   7.145  1.3355  2.3911 -0.1489
   94MOL0     H12663   9.370   6.246   6.983  0.6278  2.2925 -0.0934
   94MOL0     H12664   9.512   6.136   7.225  0.6391  2.1292  0.2088
   94MOL0     H12665   9.586   6.123   7.068 -1.5550  2.2609 -2.3002
   94MOL0     H12666   9.299   6.017   7.145 -0.5257 -1.3444 -0.8113
   94MOL0     H12667   9.386   5.996   6.993  2.3766  0.9006 -0.9909
   94MOL0     H12668   9.454   5.860   7.266  1.4922  1.8108  0.3568
   94MOL0     H12669   9.562   5.874   7.129  0.1522  1.8657  0.3172
   94MOL0     H12670   9.416   5.658   7.152 -1.3639 -0.7199 -0.9172
   94MOL0     H12671   9.405   5.725   6.996  1.8078  0.1660  0.3283
   94MOL0     H12672   9.464   6.857   6.919  1.3532  0.5540  0.1882
   94MOL0     H12673   9.306   7.020   7.017 -0.7429 -2.6546 -2.5433
   94MOL0     H12674   9.048   7.092   7.235  1.1989  0.9999 -1.4594
   94MOL0     H12675   8.837   7.174   7.303  1.8955 -0.1539 -4.0055
   94MOL0     H12676   9.601   6.747   6.667 -3.3334 -2.1418  1.9394
   94MOL0     H12677   9.750   6.829   6.501 -0.8160 -1.0365  4.2180
   94MOL0     H12678  10.085   6.808   6.100 -0.2913  0.7443  1.6865
   94MOL0     H12679  10.241   7.000   6.020  0.9907  3.9163  1.2119
   94MOL0     H12680  10.363   7.282   5.957  0.4584 -0.6975  0.4581
   94MOL0     H12681  10.275   7.156   5.872  1.5888  1.5466 -2.9468
   94MOL0     H12682  10.258   7.442   5.842  1.8729  0.1071 -1.2784
   94MOL0     H12683  10.135   7.338   5.763  0.3530  2.5702 -2.0853
   94MOL0     H12684  10.313   7.217   5.647  1.4817  0.0541 -1.6937
   94MOL0     H12685  10.425   7.344   5.718 -0.7361  1.0225  0.5152
   94MOL0     H12686  10.195   7.399   5.503  0.1903  1.4200 -1.4907
   94MOL0     H12687  10.375   7.388   5.499 -1.5273 -4.8701 -0.5663
   94MOL0     H12688  10.248   7.772   5.645 -2.0499 -1.4261  0.7365
   94MOL0     H12689   9.922   7.274   6.105  0.0636  0.2693  0.1786
   94MOL0     H12690   9.786   7.094   6.181 -2.1063 -3.8349 -3.4462
   95MOL0     O12691   5.056   2.737   2.926 -0.1309  0.5150  0.7060
   95MOL0     C12692   5.035   2.693   3.036  0.5072  0.1863  0.1989
   95MOL0     O12693   4.927   2.608   3.062 -0.4209 -0.3659 -0.0072
   95MOL0     C12694   4.847   2.571   2.953 -0.3788  0.8687  0.4413
   95MOL0     C12695   4.781   2.668   2.861 -0.9875 -0.2214 -0.2592
   95MOL0     C12696   4.709   2.619   2.756 -0.7824 -0.0061  0.2379
   95MOL0     C12697   4.696   2.481   2.728  0.4064 -1.5340  0.5362
   95MOL0     O12698   4.642   2.436   2.608 -0.7747  0.4232 -0.7620
   95MOL0     C12699   4.602   2.297   2.598 -0.7329 -0.3532  0.8532
   95MOL0     C12700   4.510   2.288   2.480  0.1301  0.4338  0.5245
   95MOL0     C12701   4.603   2.266   2.360  0.1715  0.6057 -0.3760
   95MOL0     C12702   4.540   2.272   2.228  0.9852  0.2844  0.2736
   95MOL0     C12703   4.498   2.413   2.177  0.4932  0.4607 -0.2802
   95MOL0     C12704   4.425   2.421   2.044 -1.2197  0.6989 -0.2604
   95MOL0     C12705   4.402   2.561   2.001 -0.3130  0.7454 -0.5108
   95MOL0     C12706   4.288   2.561   1.908  0.2715  0.6253  0.8661
   95MOL0     N12707   4.286   2.474   1.798 -0.5893  0.6539 -0.0231
   95MOL0     C12708   4.214   2.356   1.802  0.5602 -0.0414  0.7843
   95MOL0     C12709   4.239   2.288   1.688 -1.4698  1.0954  0.1985
   95MOL0     C12710   4.203   2.137   1.652  0.3487  0.3452  0.6888
   95MOL0     C12711   4.099   2.135   1.536  0.2912 -0.2470  0.2847
   95MOL0     C12712   4.001   2.249   1.525  0.7121 -0.3798  0.1794
   95MOL0     C12713   3.913   2.246   1.658 -0.3780  0.4375 -0.4393
   95MOL0     O12714   3.890   2.110   1.705 -0.7052 -0.0349  0.1953
   95MOL0     C12715   3.779   2.047   1.682  0.1439 -0.9292 -0.6352
   95MOL0     C12716   3.784   1.913   1.659  1.2388  0.2961 -0.7569
   95MOL0     C12717   3.666   1.836   1.639  0.2359  0.0421 -0.4713
   95MOL0     C12718   3.683   1.696   1.586  0.7780  0.0531 -0.6034
   95MOL0     C12719   3.536   1.900   1.662 -1.1734  0.6035  0.1966
   95MOL0     C12720   3.406   1.827   1.672  0.6455  0.8901 -0.4845
   95MOL0     O12721   3.408   1.692   1.645 -0.1285  0.8584  0.4359
   95MOL0     C12722   3.292   1.617   1.628  0.3029 -0.4119  0.5507
   95MOL0     C12723   3.269   1.503   1.701  0.7934 -1.0575 -0.6500
   95MOL0     C12724   3.151   1.430   1.690 -0.2134  0.3215  0.1950
   95MOL0     C12725   3.062   1.458   1.589 -0.9394 -0.2366 -0.3288
   95MOL0     O12726   2.962   1.367   1.587 -0.0779 -0.3291 -0.3799
   95MOL0     C12727   2.834   1.415   1.559 -0.2424 -0.8902  0.0616
   95MOL0     C12728   2.789   1.518   1.668 -0.7852  0.1603  0.3421
   95MOL0     C12729   2.799   1.460   1.817  0.6348 -0.1560  0.4663
   95MOL0     C12730   2.807   1.573   1.911  0.7127 -0.6164  0.5905
   95MOL0     C12731   2.941   1.599   1.982  0.3959 -0.2677 -0.0276
   95MOL0     C12732   3.005   1.724   1.925 -1.6399 -0.3419  0.8778
   95MOL0     C12733   2.923   1.854   1.960 -0.8068  0.8401 -1.0578
   95MOL0     C12734   3.015   1.966   1.906 -1.2007 -0.2520  0.1587
   95MOL0    Cl12735   2.973   2.028   1.742  0.1534  0.1423 -0.2229
   95MOL0     C12736   3.087   1.569   1.508  0.6020 -1.0913 -0.4047
   95MOL0     C12737   3.199   1.642   1.530  0.6947  0.8332 -0.0285
   95MOL0     O12738   3.312   1.893   1.710  0.2042  0.3285 -0.6968
   95MOL0     C12739   3.539   2.042   1.692  1.0120  0.6621 -0.4238
   95MOL0     C12740   3.660   2.116   1.703  0.7194 -0.6565 -0.4593
   95MOL0     N12741   4.321   2.370   1.613 -0.3738 -0.2193 -0.3441
   95MOL0     N12742   4.354   2.490   1.675  0.7873  0.1488 -0.7304
   95MOL0     C12743   4.757   2.394   2.818  0.8816  0.8938  0.3605
   95MOL0     C12744   4.829   2.433   2.926 -1.5679  0.0081 -0.6740
   95MOL0     C12745   5.111   2.735   3.152 -0.2225 -0.1607  0.5530
   95MOL0     C12746   5.104   2.651   3.270 -0.1250 -1.6803  0.3389
   95MOL0     C12747   5.190   2.682   3.379 -0.6309  0.0709 -0.3930
   95MOL0     C12748   5.282   2.786   3.368  0.4713  0.4306  1.3829
   95MOL0     O12749   5.375   2.797   3.469  0.7766 -0.2426 -0.5859
   95MOL0     C12750   5.338   2.874   3.585  0.4465 -0.0980 -0.2194
   95MOL0     C12751   5.428   2.831   3.698 -1.2883 -0.0994  0.8811
   95MOL0     C12752   5.357   2.860   3.826  0.8704  0.5961 -1.0071
   95MOL0     C12753   5.429   2.809   3.945  0.2943 -0.1682 -0.1998
   95MOL0     C12754   5.359   2.844   4.073 -0.1628  0.3662  0.2394
   95MOL0     C12755   5.318   2.859   4.186  0.0807  0.4996 -0.4943
   95MOL0     C12756   5.295   2.855   3.247  0.5310  0.0233 -0.4908
   95MOL0     C12757   5.203   2.833   3.142 -0.6116 -0.3389  0.3013
   95MOL0     H12758   4.807   2.770   2.886  3.2741 -0.5601 -2.3114
   95MOL0     H12759   4.663   2.692   2.690  1.6812  1.3530 -0.0816
   95MOL0     H12760   4.686   2.227   2.593 -0.4076  0.0965 -0.3266
   95MOL0     H12761   4.531   2.272   2.678 -1.9708  0.4682  0.0355
   95MOL0     H12762   4.450   2.200   2.501  0.1408  0.2687 -0.1281
   95MOL0     H12763   4.442   2.371   2.459  1.8425  1.3273 -1.9738
   95MOL0     H12764   4.685   2.339   2.366  1.8998 -1.0962 -2.0812
   95MOL0     H12765   4.655   2.170   2.365  2.2299  1.5488 -1.9285
   95MOL0     H12766   4.608   2.230   2.153 -0.3717  0.8869 -1.3623
   95MOL0     H12767   4.452   2.207   2.238  1.9735 -0.9515  1.2363
   95MOL0     H12768   4.447   2.466   2.258 -0.6995  0.5421 -1.0471
   95MOL0     H12769   4.593   2.466   2.165  2.3262 -2.1417  1.8133
   95MOL0     H12770   4.482   2.363   1.972 -0.2373 -0.2113  1.1938
   95MOL0     H12771   4.332   2.364   2.045 -0.8738  0.0574 -1.9637
   95MOL0     H12772   4.377   2.626   2.086 -1.8492 -0.8374  0.2904
   95MOL0     H12773   4.489   2.601   1.949 -1.6572  3.1297 -1.1124
   95MOL0     H12774   4.279   2.662   1.868  1.7410  0.3466 -0.2318
   95MOL0     H12775   4.192   2.541   1.958 -1.0584  0.0922 -1.7166
   95MOL0     H12776   4.156   2.307   1.880 -1.4958 -0.6813 -1.0405
   95MOL0     H12777   4.298   2.089   1.630 -0.1974 -0.2193 -0.5267
   95MOL0     H12778   4.144   2.085   1.728 -1.1091  3.0187  1.5319
   95MOL0     H12779   4.035   2.047   1.534 -2.0424  1.3564 -0.0031
   95MOL0     H12780   4.152   2.120   1.441 -0.0029  0.6271 -0.0287
   95MOL0     H12781   3.954   2.236   1.427  0.4786  2.8523 -0.2444
   95MOL0     H12782   4.050   2.343   1.501 -0.4342 -0.3637 -2.4083
   95MOL0     H12783   3.830   2.316   1.651  0.1149  0.9569 -1.4292
   95MOL0     H12784   3.977   2.292   1.734 -0.8812  0.2160  0.1151
   95MOL0     H12785   3.881   1.866   1.669  0.8989 -0.1085  1.0239
   95MOL0     H12786   3.772   1.699   1.522  0.7717 -0.3301 -0.6286
   95MOL0     H12787   3.689   1.615   1.659  1.0263  0.6343  0.0379
   95MOL0     H12788   3.600   1.672   1.519 -1.1699  0.7531  1.4375
   95MOL0     H12789   3.336   1.467   1.778 -1.3963 -0.2731  1.7587
   95MOL0     H12790   3.128   1.343   1.751 -0.3254  1.4530  1.8037
   95MOL0     H12791   2.841   1.462   1.460  0.5407 -0.2491  0.4023
   95MOL0     H12792   2.766   1.331   1.546 -0.2848 -0.9265  0.4960
   95MOL0     H12793   2.856   1.604   1.657 -2.0610  1.0378 -0.8551
   95MOL0     H12794   2.687   1.556   1.660 -0.8416  0.2539  1.4745
   95MOL0     H12795   2.883   1.391   1.810 -0.5849 -1.5343 -2.2781
   95MOL0     H12796   2.720   1.390   1.845  1.3325 -0.7835  0.8973
   95MOL0     H12797   2.765   1.663   1.865  1.4478 -1.8541 -2.8491
   95MOL0     H12798   2.737   1.547   1.991  2.9049 -1.9082  2.1844
   95MOL0     H12799   3.010   1.514   1.986  1.1759  0.3555 -0.0222
   95MOL0     H12800   2.911   1.629   2.083 -1.6934  0.2160 -0.7240
   95MOL0     H12801   3.103   1.734   1.973 -0.1663  2.5027 -2.3192
   95MOL0     H12802   3.024   1.717   1.818 -0.3264 -1.0576  1.1308
   95MOL0     H12803   2.921   1.857   2.070  0.0897 -2.3373 -0.8677
   95MOL0     H12804   2.826   1.855   1.911 -1.5933 -3.0039  0.0753
   95MOL0     H12805   3.116   1.924   1.896  0.1573  2.8934 -0.4397
   95MOL0     H12806   3.008   2.051   1.975 -2.4989 -0.3731  0.2012
   95MOL0     H12807   3.018   1.591   1.428  0.8051 -0.5767 -0.4420
   95MOL0     H12808   3.214   1.733   1.472  0.9903  0.9782  0.2708
   95MOL0     H12809   3.455   2.108   1.710 -0.3279 -0.7617 -1.2684
   95MOL0     H12810   3.658   2.220   1.734  1.3513 -0.3087 -1.5121
   95MOL0     H12811   4.747   2.286   2.816 -0.3878  0.9925  0.4856
   95MOL0     H12812   4.895   2.368   2.982 -1.2067 -0.1606 -1.2830
   95MOL0     H12813   5.049   2.557   3.273  0.4440 -2.0388 -0.3077
   95MOL0     H12814   5.180   2.606   3.457  1.2343 -1.0165 -1.1368
   95MOL0     H12815   5.337   2.981   3.562 -1.1510  0.1534  0.8565
   95MOL0     H12816   5.232   2.855   3.606  0.6506 -2.0999 -0.7923
   95MOL0     H12817   5.527   2.879   3.697 -1.1797 -0.2951 -0.8220
   95MOL0     H12818   5.444   2.722   3.695  0.6087 -0.1382  4.9418
   95MOL0     H12819   5.261   2.807   3.824  1.6781 -1.0346  0.8298
   95MOL0     H12820   5.325   2.965   3.832  0.8070  0.6122 -1.5043
   95MOL0     H12821   5.528   2.854   3.932  0.4542  0.1742  1.8912
   95MOL0     H12822   5.428   2.700   3.940  1.3462 -0.3568  2.5079
   95MOL0     H12823   5.295   2.865   4.290  2.3173 -1.5370  0.2001
   95MOL0     H12824   5.373   2.930   3.245 -0.0886  0.7475  0.8826
   95MOL0     H12825   5.221   2.894   3.054 -1.7424 -0.6390 -0.1570
   96MOL0     O12826  10.843  10.862   7.288  0.4149 -0.1376  0.4450
   96MOL0     C12827  10.903  10.962   7.323  0.7083  0.0288  0.5943
   96MOL0     O12828  10.927  11.071   7.243  0.3482 -0.0755  0.1683
   96MOL0     C12829  10.872  11.083   7.118  0.0701  1.0088  0.4623
   96MOL0     C12830  10.771  11.180   7.113 -1.0665  0.9070  0.4437
   96MOL0     C12831  10.708  11.202   6.992 -0.0026 -0.6014  0.9438
   96MOL0     C12832  10.729  11.121   6.883  0.7466 -0.7715  0.3805
   96MOL0     O12833  10.645  11.138   6.781 -0.2686  0.2434 -0.5528
   96MOL0     C12834  10.675  11.075   6.653  0.4371  0.0061 -0.3174
   96MOL0     C12835  10.576  11.090   6.543  0.3820 -0.2589 -0.6376
   96MOL0     C12836  10.550  11.236   6.519 -1.2068 -1.2467 -0.5380
   96MOL0     C12837  10.674  11.320   6.484 -0.2343 -0.1467  1.3465
   96MOL0     C12838  10.646  11.453   6.409  0.0266 -0.6994  0.5383
   96MOL0     C12839  10.772  11.506   6.357 -1.0387  0.7035 -0.1114
   96MOL0     C12840  10.742  11.641   6.286  0.0022  0.4527  0.2558
   96MOL0     C12841  10.869  11.732   6.284 -0.6014 -0.2604  0.6056
   96MOL0     N12842  10.971  11.689   6.169  0.4762 -0.9305 -1.1838
   96MOL0     C12843  10.993  11.752   6.043  0.4886  0.5981 -0.6232
   96MOL0     C12844  11.077  11.667   5.967 -0.3098 -0.5617 -0.8730
   96MOL0     C12845  11.118  11.712   5.828 -0.5720 -0.7613 -0.2667
   96MOL0     C12846  11.009  11.689   5.722 -0.6974 -0.0677  0.6732
   96MOL0     C12847  11.044  11.756   5.594  0.8141 -0.3848  0.5221
   96MOL0     C12848  10.936  11.735   5.481  0.1962 -0.0590 -0.1414
   96MOL0     O12849  10.793  11.771   5.518 -0.8037  0.5203  0.3550
   96MOL0     C12850  10.700  11.750   5.423  1.5579  0.2232  0.2276
   96MOL0     C12851  10.718  11.695   5.290  0.6190 -0.6511  0.6204
   96MOL0     C12852  10.619  11.706   5.188 -0.5245  1.0526 -0.1690
   96MOL0     C12853  10.658  11.648   5.061  0.0514  0.3006  1.1212
   96MOL0     C12854  10.487  11.742   5.224 -1.1677 -0.5316 -1.4690
   96MOL0     C12855  10.371  11.749   5.124  0.2291 -0.7095  0.9855
   96MOL0     O12856  10.380  11.832   5.022 -0.0438  0.3037  0.4989
   96MOL0     C12857  10.453  11.945   5.026  1.5064 -0.7256  0.7323
   96MOL0     C12858  10.527  11.976   4.910  0.2121  0.1327 -0.1570
   96MOL0     C12859  10.610  12.091   4.909  0.0201  0.2338 -0.6017
   96MOL0     C12860  10.604  12.189   5.001  1.1357 -0.4074 -1.0339
   96MOL0     O12861  10.667  12.309   4.991 -0.2001  0.7120  0.6196
   96MOL0     C12862  10.596  12.391   4.904 -0.1197 -0.1452 -0.1051
   96MOL0     C12863  10.471  12.456   4.960  0.4424 -0.4994 -1.1407
   96MOL0     C12864  10.424  12.557   4.861  0.2690 -0.6053 -0.5990
   96MOL0     C12865  10.282  12.621   4.891  0.1789 -0.3284  0.4720
   96MOL0     C12866  10.223  12.694   4.778 -0.7476 -0.0433  1.3334
   96MOL0     C12867  10.078  12.729   4.768 -0.1327 -0.7619  0.2401
   96MOL0     C12868  10.061  12.830   4.641  0.3751  0.1100 -1.6005
   96MOL0     C12869  10.009  12.747   4.532  0.2462 -0.1175 -0.2257
   96MOL0    Cl12870  10.024  12.828   4.368 -0.3999 -0.2231 -0.1446
   96MOL0     C12871  10.526  12.160   5.116 -0.8500 -0.8016 -0.4086
   96MOL0     C12872  10.448  12.044   5.124  0.2896  0.7497 -0.2837
   96MOL0     O12873  10.267  11.686   5.153  0.3988  0.4155  0.1362
   96MOL0     C12874  10.464  11.777   5.352 -0.2051  0.1076  0.5781
   96MOL0     C12875  10.572  11.793   5.442  0.6561  0.2636  0.7263
   96MOL0     N12876  11.088  11.552   6.042  0.2402 -0.1086 -0.3087
   96MOL0     N12877  11.036  11.563   6.163  0.1234 -0.1617 -0.4344
   96MOL0     C12878  10.840  11.030   6.881 -0.2339 -0.0886 -0.5053
   96MOL0     C12879  10.897  10.998   7.009 -0.5273 -0.4565  0.5427
   96MOL0     C12880  10.958  10.965   7.457 -0.8509  0.1855 -0.4751
   96MOL0     C12881  10.994  11.084   7.516 -0.3448 -0.6955 -0.0235
   96MOL0     C12882  11.039  11.089   7.648 -0.7426  0.1690  0.2681
   96MOL0     C12883  11.036  10.971   7.732  0.3402  0.4930  0.0588
   96MOL0     O12884  11.031  10.980   7.868  0.0240 -0.2371  0.2717
   96MOL0     C12885  10.968  10.877   7.942 -0.6882 -0.1420  0.3549
   96MOL0     C12886  10.945  10.920   8.091  0.2290  1.0879  0.1130
   96MOL0     C12887  10.870  11.052   8.106  0.6309  0.2503 -0.0532
   96MOL0     C12888  10.964  11.176   8.146 -0.0777  0.2978 -1.6051
   96MOL0     C12889  10.864  11.283   8.154 -0.2825  0.7003 -0.5902
   96MOL0     C12890  10.788  11.370   8.154 -1.1786  0.3569 -1.1425
   96MOL0     C12891  11.014  10.852   7.662 -0.7676 -0.5066  0.0960
   96MOL0     C12892  10.974  10.844   7.530 -0.5090  0.7970  0.3948
   96MOL0     H12893  10.769  11.246   7.199  0.4781 -1.9384  2.8496
   96MOL0     H12894  10.621  11.267   6.990 -2.1132 -3.2946  0.2918
   96MOL0     H12895  10.775  11.114   6.629  1.7184 -2.5840  0.3849
   96MOL0     H12896  10.690  10.970   6.678  1.0914 -0.3808 -2.1502
   96MOL0     H12897  10.615  11.052   6.448  0.4723  1.3683 -1.2825
   96MOL0     H12898  10.490  11.028   6.569  1.0711 -1.2844 -0.7475
   96MOL0     H12899  10.478  11.247   6.438  2.2211  1.9410 -3.5706
   96MOL0     H12900  10.501  11.287   6.602  0.5707  0.4710 -0.4865
   96MOL0     H12901  10.717  11.354   6.578 -0.7280  0.8390  1.2331
   96MOL0     H12902  10.731  11.261   6.411  1.1243  5.0173 -2.3703
   96MOL0     H12903  10.565  11.446   6.336 -1.9484  3.0190  2.0796
   96MOL0     H12904  10.610  11.521   6.487  1.7379 -0.5213  1.2239
   96MOL0     H12905  10.849  11.523   6.433  1.1532 -1.1166 -1.7621
   96MOL0     H12906  10.815  11.439   6.282  1.0726  1.9812 -0.1260
   96MOL0     H12907  10.703  11.632   6.185  0.0800  1.4973  0.1246
   96MOL0     H12908  10.669  11.693   6.349  0.8200  1.9276  0.0164
   96MOL0     H12909  10.914  11.735   6.384  1.4201 -0.3490 -0.2566
   96MOL0     H12910  10.855  11.839   6.266  2.4249  0.0900 -0.1360
   96MOL0     H12911  10.957  11.852   6.021 -2.1508  1.2019  4.8034
   96MOL0     H12912  11.147  11.817   5.835  1.8946 -1.5207  3.0684
   96MOL0     H12913  11.204  11.660   5.787 -1.5204  0.1098 -3.7161
   96MOL0     H12914  10.914  11.729   5.757  0.0445  2.0511  0.4090
   96MOL0     H12915  10.986  11.583   5.712  0.3147 -0.3336  1.0321
   96MOL0     H12916  11.133  11.703   5.558 -0.1025 -0.5916 -1.5789
   96MOL0     H12917  11.059  11.863   5.610  0.6597 -0.4303  1.0046
   96MOL0     H12918  10.941  11.631   5.450 -0.4240  0.3139 -1.5846
   96MOL0     H12919  10.969  11.795   5.396  3.9613  1.5358  2.1939
   96MOL0     H12920  10.814  11.651   5.266  0.9236 -1.8631  3.7097
   96MOL0     H12921  10.746  11.706   5.032 -1.1842  2.6913  1.8492
   96MOL0     H12922  10.678  11.541   5.073  2.7517  0.5353 -0.5893
   96MOL0     H12923  10.593  11.677   4.978  1.9379 -1.9187 -1.3152
   96MOL0     H12924  10.533  11.904   4.829  0.7926 -3.2817  2.6606
   96MOL0     H12925  10.684  12.105   4.831  1.1062  1.1663  0.5527
   96MOL0     H12926  10.660  12.471   4.865 -2.8319  2.0873 -0.3504
   96MOL0     H12927  10.576  12.336   4.811  0.4371 -0.1495 -0.2241
   96MOL0     H12928  10.388  12.387   4.975 -0.4235  1.2481  4.0112
   96MOL0     H12929  10.489  12.510   5.053  0.5074 -2.2962 -0.0820
   96MOL0     H12930  10.408  12.503   4.767  1.4023 -0.7565 -0.7183
   96MOL0     H12931  10.493  12.639   4.836 -1.0372 -0.2516 -3.4955
   96MOL0     H12932  10.221  12.537   4.926 -0.2780  0.2655  1.1258
   96MOL0     H12933  10.277  12.682   4.981 -0.5642 -1.0816  0.9639
   96MOL0     H12934  10.253  12.633   4.692  0.4378  2.1050  0.1266
   96MOL0     H12935  10.292  12.779   4.778  0.9999 -1.3623 -0.2027
   96MOL0     H12936  10.017  12.638   4.765  2.5462 -2.6557 -0.4719
   96MOL0     H12937  10.058  12.787   4.858 -1.4266  1.4925 -1.4112
   96MOL0     H12938  10.158  12.871   4.613  1.2993 -0.7629  0.1006
   96MOL0     H12939   9.993  12.908   4.677 -1.6187 -2.1519 -0.1418
   96MOL0     H12940   9.903  12.723   4.543  1.0507 -3.7269  0.9212
   96MOL0     H12941  10.070  12.656   4.532  4.1881  2.2133 -1.9999
   96MOL0     H12942  10.507  12.241   5.185  0.7833 -1.6311  1.1046
   96MOL0     H12943  10.388  12.034   5.214  2.3672  0.6309  1.1559
   96MOL0     H12944  10.360  11.799   5.378  0.0901  0.3535  1.6097
   96MOL0     H12945  10.555  11.838   5.540 -0.4109  1.6105 -0.0347
   96MOL0     H12946  10.882  10.983   6.793 -1.0570  0.6232 -1.2999
   96MOL0     H12947  10.978  10.927   7.016  0.4775  0.7657  2.2433
   96MOL0     H12948  10.992  11.172   7.452  1.1507 -2.7514 -3.1253
   96MOL0     H12949  11.069  11.185   7.688  3.0875 -0.9410  0.4117
   96MOL0     H12950  10.871  10.859   7.896  1.5123 -1.6733 -4.3986
   96MOL0     H12951  11.013  10.778   7.939 -1.2483 -0.3753 -1.3237
   96MOL0     H12952  11.035  10.927   8.153  1.8220 -1.4760 -1.6959
   96MOL0     H12953  10.877  10.840   8.121 -2.1099  2.5897 -0.9112
   96MOL0     H12954  10.786  11.042   8.176 -0.4102  0.6245 -1.2021
   96MOL0     H12955  10.815  11.066   8.013  0.2094  3.1288  0.5130
   96MOL0     H12956  11.048  11.200   8.081  0.4537  4.0052  0.1707
   96MOL0     H12957  11.003  11.164   8.247 -0.5576  3.2827 -0.9900
   96MOL0     H12958  10.715  11.444   8.181  1.0820  1.9524  1.0580
   96MOL0     H12959  11.008  10.758   7.716 -3.4934  1.0557  2.8617
   96MOL0     H12960  10.952  10.746   7.489  0.3270  0.5519  0.5162
   97MOL0     O12961   6.507  11.188   4.291  0.2484  0.7485 -0.0645
   97MOL0     C12962   6.471  11.073   4.338 -0.9833  0.1943  0.0296
   97MOL0     O12963   6.494  11.020   4.464  0.2236  0.0223  0.5342
   97MOL0     C12964   6.536  11.084   4.577 -1.3486 -0.3609  0.4768
   97MOL0     C12965   6.591  11.008   4.678  0.9858  0.0146 -0.1470
   97MOL0     C12966   6.648  11.066   4.802 -0.6876  0.1734 -0.4290
   97MOL0     C12967   6.654  11.204   4.802  0.1724 -0.2481  0.0573
   97MOL0     O12968   6.707  11.285   4.904  0.3673  0.0500  0.0372
   97MOL0     C12969   6.760  11.234   5.028  0.4597 -0.3726  1.2328
   97MOL0     C12970   6.791  11.368   5.099 -0.0700 -1.1078 -0.0929
   97MOL0     C12971   6.865  11.307   5.225 -0.0620 -0.0775  0.7963
   97MOL0     C12972   6.865  11.400   5.340 -0.5117 -0.9925  0.3205
   97MOL0     C12973   6.952  11.524   5.316 -0.1110  0.3381 -0.5840
   97MOL0     C12974   7.029  11.582   5.436  0.6932 -0.2211  0.4667
   97MOL0     C12975   7.122  11.692   5.380  0.1955  1.2673  0.7591
   97MOL0     C12976   7.202  11.745   5.501  0.0872 -0.4028 -0.2377
   97MOL0     N12977   7.129  11.845   5.583 -0.3273  0.5484  0.8521
   97MOL0     C12978   7.170  11.973   5.586  0.0049  0.9935 -0.5676
   97MOL0     C12979   7.083  12.029   5.680 -0.8125  0.4164  0.2043
   97MOL0     C12980   7.075  12.176   5.728 -1.0134  1.1439  0.7937
   97MOL0     C12981   7.166  12.196   5.853 -0.4729  0.3813 -0.2875
   97MOL0     C12982   7.214  12.338   5.873  0.2255  0.7498 -0.0664
   97MOL0     C12983   7.305  12.385   5.985  0.5580 -0.0184  0.3094
   97MOL0     O12984   7.424  12.312   5.991 -0.4385  0.7971  0.0515
   97MOL0     C12985   7.512  12.341   6.098  0.8289 -0.5024  0.4843
   97MOL0     C12986   7.622  12.265   6.122  0.3653 -0.4499 -0.0293
   97MOL0     C12987   7.719  12.297   6.221  0.7589 -0.0857  0.2322
   97MOL0     C12988   7.852  12.224   6.217 -0.3348  0.2407  0.6337
   97MOL0     C12989   7.685  12.411   6.308  1.6680  0.4077 -0.7040
   97MOL0     C12990   7.769  12.442   6.426  0.1447  0.2256  0.3142
   97MOL0     O12991   7.719  12.550   6.501  0.6293  0.4450 -0.2118
   97MOL0     C12992   7.773  12.601   6.617 -0.3982  0.3436 -0.1790
   97MOL0     C12993   7.745  12.522   6.727  0.5151 -0.6136 -0.7348
   97MOL0     C12994   7.796  12.554   6.855 -0.6710 -0.1813  0.0646
   97MOL0     C12995   7.875  12.672   6.878  0.1416 -0.2286 -0.3749
   97MOL0     O12996   7.930  12.694   7.004  0.4740 -0.2381  0.7354
   97MOL0     C12997   8.063  12.735   7.002  0.3273 -0.2626  0.1019
   97MOL0     C12998   8.126  12.731   7.136 -0.7472 -0.5097 -1.0033
   97MOL0     C12999   8.279  12.770   7.125  0.4287  0.1377 -0.0480
   97MOL0     C13000   8.362  12.658   7.201  0.4268  0.5091 -0.3368
   97MOL0     C13001   8.508  12.692   7.195  0.5511  0.0401  0.8811
   97MOL0     C13002   8.587  12.569   7.247  0.4944 -0.6133  0.0676
   97MOL0     C13003   8.592  12.453   7.146 -0.5857  0.5456  0.2961
   97MOL0     C13004   8.726  12.378   7.131  0.5910 -0.1562  0.0798
   97MOL0    Cl13005   8.692  12.236   7.036 -0.0452 -0.0672  0.2989
   97MOL0     C13006   7.887  12.754   6.767  0.1103  0.4118  0.5828
   97MOL0     C13007   7.832  12.726   6.636 -1.2404 -0.9987 -0.5139
   97MOL0     O13008   7.856  12.365   6.464 -0.8269  0.2168  0.6325
   97MOL0     C13009   7.580  12.490   6.276 -0.4233 -0.2635 -0.7486
   97MOL0     C13010   7.492  12.454   6.174  1.0856 -0.2969 -0.1912
   97MOL0     N13011   6.997  11.929   5.732  0.2952 -0.6294 -0.3842
   97MOL0     N13012   7.037  11.814   5.676 -0.0899 -0.4360 -0.7711
   97MOL0     C13013   6.610  11.279   4.694  0.3295 -0.3140 -0.1383
   97MOL0     C13014   6.543  11.222   4.590 -0.4659 -0.2645  0.6784
   97MOL0     C13015   6.405  10.979   4.239  0.3070 -0.4415  0.5803
   97MOL0     C13016   6.348  11.021   4.115  0.4062  0.5124  0.2494
   97MOL0     C13017   6.299  10.931   4.026  0.3807 -0.3659 -0.3022
   97MOL0     C13018   6.299  10.794   4.052 -0.4668 -0.3496  0.1652
   97MOL0     O13019   6.259  10.693   3.960  0.0341 -0.0083 -0.2081
   97MOL0     C13020   6.128  10.639   3.989 -0.5576 -0.1637  0.1135
   97MOL0     C13021   6.134  10.487   3.988 -0.5883 -0.6779  0.4514
   97MOL0     C13022   6.011  10.436   4.083  0.2344  0.6514  1.4580
   97MOL0     C13023   6.003  10.276   4.106  0.3003 -0.4166 -0.3977
   97MOL0     C13024   5.969  10.202   3.990  0.7998 -0.1639  0.4507
   97MOL0     C13025   5.949  10.125   3.887 -0.1058 -0.4555 -0.7667
   97MOL0     C13026   6.351  10.747   4.173 -0.1575 -0.2984  0.5053
   97MOL0     C13027   6.404  10.839   4.264  0.2611 -0.1600 -0.0857
   97MOL0     H13028   6.587  10.900   4.681 -0.1856  0.0772  1.5893
   97MOL0     H13029   6.683  11.014   4.890  0.9790  3.1824  0.8479
   97MOL0     H13030   6.691  11.179   5.093 -2.7586  1.2161 -0.5909
   97MOL0     H13031   6.848  11.174   5.003 -0.0294 -1.2525  1.5684
   97MOL0     H13032   6.864  11.432   5.049  0.5330 -1.6708  0.0489
   97MOL0     H13033   6.699  11.419   5.129  2.1444  1.2617  3.2816
   97MOL0     H13034   6.823  11.209   5.251  1.0970 -0.9732 -0.5530
   97MOL0     H13035   6.968  11.283   5.196 -0.9195 -2.6725 -0.3621
   97MOL0     H13036   6.765  11.443   5.356 -0.2147  0.3174 -1.1117
   97MOL0     H13037   6.905  11.341   5.423  0.1353 -2.9598 -1.3184
   97MOL0     H13038   7.032  11.498   5.246  2.0182 -2.2968  2.5288
   97MOL0     H13039   6.892  11.610   5.285 -4.9952 -1.1091  3.5534
   97MOL0     H13040   6.962  11.638   5.501  0.6586  1.8795 -1.2768
   97MOL0     H13041   7.077  11.506   5.499  0.9762  1.2640  2.1233
   97MOL0     H13042   7.198  11.656   5.309 -0.8263  2.5769 -1.0798
   97MOL0     H13043   7.074  11.771   5.321 -4.0223 -0.0163  2.1303
   97MOL0     H13044   7.297  11.781   5.462  0.1809 -1.5270 -1.0776
   97MOL0     H13045   7.213  11.660   5.569 -1.8790  1.2506  2.3884
   97MOL0     H13046   7.243  12.027   5.527  3.4622  0.4241  2.7505
   97MOL0     H13047   7.105  12.245   5.649 -1.5914  2.6018  1.8038
   97MOL0     H13048   6.975  12.211   5.756 -3.1303 -1.8979 -2.1932
   97MOL0     H13049   7.252  12.127   5.849  0.2374  1.2515 -3.5831
   97MOL0     H13050   7.100  12.181   5.938  0.8677  0.5844  0.8250
   97MOL0     H13051   7.131  12.410   5.873  1.1363  1.8265 -0.0553
   97MOL0     H13052   7.270  12.359   5.781 -0.7433  3.7326 -0.1154
   97MOL0     H13053   7.245  12.369   6.075  2.2262 -0.9294  1.3171
   97MOL0     H13054   7.327  12.491   5.973  0.8937 -0.3209 -2.2606
   97MOL0     H13055   7.628  12.168   6.072 -1.3672  0.5123 -2.2513
   97MOL0     H13056   7.855  12.153   6.134 -3.3552  2.3801 -1.5121
   97MOL0     H13057   7.931  12.297   6.198 -1.8238  1.9081  0.5597
   97MOL0     H13058   7.866  12.168   6.310 -3.6708  1.0481  1.7695
   97MOL0     H13059   7.675  12.445   6.697 -2.6019  2.7014 -2.7515
   97MOL0     H13060   7.756  12.490   6.933 -0.7366 -0.3943 -0.1413
   97MOL0     H13061   8.119  12.683   6.923  1.2385  1.4007 -0.4074
   97MOL0     H13062   8.072  12.839   6.968 -1.3645  0.6413  2.2096
   97MOL0     H13063   8.070  12.792   7.207 -0.7125 -0.5892 -0.9078
   97MOL0     H13064   8.108  12.626   7.161 -3.8876  0.1375 -0.1336
   97MOL0     H13065   8.306  12.866   7.169  1.9012 -0.9001  1.4301
   97MOL0     H13066   8.304  12.773   7.018 -2.8157  2.4128 -0.8950
   97MOL0     H13067   8.334  12.640   7.306  0.5825 -1.0738 -0.5469
   97MOL0     H13068   8.334  12.567   7.148 -1.4393  0.4504  0.6648
   97MOL0     H13069   8.541  12.780   7.252  1.4773  0.4927 -0.3201
   97MOL0     H13070   8.531  12.701   7.089 -0.8148 -3.2539  0.1686
   97MOL0     H13071   8.682  12.590   7.297 -0.7119 -2.0907  3.2549
   97MOL0     H13072   8.543  12.533   7.340 -0.8799 -0.6793 -0.5849
   97MOL0     H13073   8.578  12.473   7.039 -0.3170 -0.2912  0.1013
   97MOL0     H13074   8.521  12.376   7.178  0.2323 -1.1183 -1.6745
   97MOL0     H13075   8.766  12.348   7.228  0.7558  1.6373  0.5863
   97MOL0     H13076   8.795  12.438   7.072  0.2268 -2.1884 -2.6320
   97MOL0     H13077   7.950  12.840   6.789  1.1609 -0.6335  1.8070
   97MOL0     H13078   7.854  12.804   6.565  2.9893 -0.5251  1.0241
   97MOL0     H13079   7.568  12.587   6.324  1.2697  1.8034 -4.0815
   97MOL0     H13080   7.410  12.524   6.168 -1.2916 -2.8114  0.7238
   97MOL0     H13081   6.606  11.387   4.695  0.3999 -0.3108  0.7464
   97MOL0     H13082   6.498  11.292   4.520 -0.3347 -0.7902  0.0547
   97MOL0     H13083   6.356  11.127   4.091 -0.1977  1.5040  3.8299
   97MOL0     H13084   6.256  10.965   3.932  0.0748 -1.2617 -0.4937
   97MOL0     H13085   6.105  10.678   4.089  0.3802  1.9888 -0.4644
   97MOL0     H13086   6.067  10.670   3.904 -1.2408  2.2494  1.3695
   97MOL0     H13087   6.220  10.455   4.047 -1.2170  0.1235  1.8528
   97MOL0     H13088   6.135  10.452   3.884  2.8373  0.6678 -0.1057
   97MOL0     H13089   5.911  10.459   4.044  0.6641 -2.3154 -1.8869
   97MOL0     H13090   6.020  10.482   4.182 -1.3219  0.6566  1.6291
   97MOL0     H13091   5.933  10.252   4.186 -0.8738 -0.3691 -1.3946
   97MOL0     H13092   6.099  10.236   4.141 -0.5813 -3.2088 -0.9639
   97MOL0     H13093   5.942  10.046   3.815  1.1779 -1.6096  0.3114
   97MOL0     H13094   6.346  10.642   4.199 -2.2928 -0.2537  0.4367
   97MOL0     H13095   6.440  10.795   4.356 -0.5437 -3.6465 -1.2501
   98MOL0     O13096   4.008   1.468   8.781  0.4983  0.1648  0.2262
   98MOL0     C13097   4.005   1.472   8.657  0.4269 -0.6459  0.3136
   98MOL0     O13098   3.904   1.532   8.578  0.1129 -0.6860  1.3454
   98MOL0     C13099   3.815   1.606   8.644  0.0563  0.2691 -0.4260
   98MOL0     C13100   3.797   1.736   8.602 -0.7212 -0.4617  0.0614
   98MOL0     C13101   3.696   1.817   8.657  0.4916  0.8278  0.1565
   98MOL0     C13102   3.602   1.762   8.741  0.4180 -0.0774 -0.1132
   98MOL0     O13103   3.493   1.825   8.794  0.4819  0.3357  0.3916
   98MOL0     C13104   3.410   1.901   8.706 -0.3441  0.3232  0.0617
   98MOL0     C13105   3.310   2.008   8.765  0.7675 -1.3032 -0.7158
   98MOL0     C13106   3.237   2.089   8.665 -0.9448  0.4455 -0.2460
   98MOL0     C13107   3.134   2.187   8.726  0.2680  0.1572 -0.1552
   98MOL0     C13108   3.064   2.281   8.626  0.0079  0.9436  0.0357
   98MOL0     C13109   2.941   2.345   8.705 -0.5347  0.2848 -0.4719
   98MOL0     C13110   2.857   2.449   8.637 -0.5782 -0.7207 -0.9880
   98MOL0     C13111   2.932   2.587   8.631 -0.2894 -0.0392  0.7817
   98MOL0     N13112   2.838   2.686   8.580 -0.2631 -0.0034  0.1271
   98MOL0     C13113   2.712   2.712   8.632 -0.8502 -0.1039 -0.1285
   98MOL0     C13114   2.690   2.840   8.584 -0.0032 -0.1047  0.3396
   98MOL0     C13115   2.567   2.925   8.624  0.4748  0.8179  0.7957
   98MOL0     C13116   2.428   2.850   8.593  0.2272  0.0283 -0.3822
   98MOL0     C13117   2.314   2.918   8.651 -0.2055 -0.3221 -0.1737
   98MOL0     C13118   2.304   3.066   8.606 -0.6302 -0.7677  0.7334
   98MOL0     O13119   2.182   3.132   8.661  0.5822  0.2795  0.4266
   98MOL0     C13120   2.073   3.145   8.582  0.5211 -0.4994 -0.4417
   98MOL0     C13121   1.956   3.178   8.654 -0.2571 -0.5708  0.5521
   98MOL0     C13122   1.835   3.215   8.591  0.0262  0.3498  1.2561
   98MOL0     C13123   1.730   3.257   8.686 -0.2524 -0.0267  0.0154
   98MOL0     C13124   1.825   3.204   8.442  0.2616  1.0167 -0.3854
   98MOL0     C13125   1.716   3.261   8.365  0.1293 -0.0918 -0.5128
   98MOL0     O13126   1.725   3.258   8.233 -0.7794  0.0373  0.5341
   98MOL0     C13127   1.647   3.340   8.152  0.3061 -0.2487 -0.0260
   98MOL0     C13128   1.635   3.472   8.168  0.5232 -0.5948  0.1832
   98MOL0     C13129   1.554   3.549   8.078 -0.3166 -0.2109 -0.2262
   98MOL0     C13130   1.465   3.481   7.986  0.2410 -0.6724 -0.2066
   98MOL0     O13131   1.385   3.554   7.908 -0.0453  0.0892  0.2598
   98MOL0     C13132   1.357   3.519   7.768  0.2998  0.3633 -0.3861
   98MOL0     C13133   1.327   3.635   7.681  0.7244 -0.2770 -0.4570
   98MOL0     C13134   1.193   3.688   7.703 -0.6748 -0.5165  0.4419
   98MOL0     C13135   1.156   3.819   7.630  0.3899 -0.6791  0.1070
   98MOL0     C13136   1.005   3.854   7.668 -0.2607  0.0842  0.0532
   98MOL0     C13137   0.983   3.988   7.610 -0.6613 -0.1444  0.4264
   98MOL0     C13138   0.836   4.028   7.609  0.7875 -0.3039 -0.2136
   98MOL0     C13139   0.771   4.046   7.465  0.3062  0.6610 -0.2383
   98MOL0    Cl13140   0.786   3.913   7.380  0.2369  0.1882  0.1800
   98MOL0     C13141   1.480   3.343   7.972  0.6144 -0.1821 -0.2507
   98MOL0     C13142   1.581   3.278   8.046 -0.7864 -0.3757  0.2472
   98MOL0     O13143   1.627   3.320   8.421  0.4179  0.0752 -0.3232
   98MOL0     C13144   1.939   3.164   8.377 -0.4791  0.0988 -0.2323
   98MOL0     C13145   2.060   3.137   8.436 -0.4351  1.0592 -1.1314
   98MOL0     N13146   2.791   2.875   8.499 -0.4522  0.2964  0.1110
   98MOL0     N13147   2.879   2.783   8.494  0.3669 -1.0929  0.0678
   98MOL0     C13148   3.621   1.631   8.783 -0.7377  0.4203 -0.1476
   98MOL0     C13149   3.718   1.548   8.731 -0.9319 -0.7470  0.2410
   98MOL0     C13150   4.130   1.420   8.597  0.6179  0.2951 -0.4946
   98MOL0     C13151   4.125   1.368   8.467 -0.2862 -0.3538 -0.5681
   98MOL0     C13152   4.244   1.299   8.420 -0.8629 -0.1558 -0.1162
   98MOL0     C13153   4.362   1.299   8.490 -0.5881 -0.7269 -0.5515
   98MOL0     O13154   4.476   1.239   8.443 -0.1983 -0.4236 -0.2776
   98MOL0     C13155   4.482   1.165   8.322 -0.1760 -0.6910  0.1470
   98MOL0     C13156   4.607   1.091   8.281 -0.2079 -0.0289 -0.7807
   98MOL0     C13157   4.616   1.052   8.136 -0.0823 -0.3534  0.4698
   98MOL0     C13158   4.763   1.014   8.116  0.3593 -0.7031 -0.0087
   98MOL0     C13159   4.822   1.000   7.978  1.5614  0.0892  0.4090
   98MOL0     C13160   4.866   0.987   7.867  0.3344 -1.1538  0.2674
   98MOL0     C13161   4.371   1.357   8.617  0.2732  0.7898 -1.1707
   98MOL0     C13162   4.254   1.409   8.671  0.1409 -0.9335 -0.5301
   98MOL0     H13163   3.868   1.786   8.536  0.6008  1.3983  2.7279
   98MOL0     H13164   3.711   1.920   8.624 -0.0426  0.7694 -0.2765
   98MOL0     H13165   3.473   1.962   8.640 -1.0665  1.6234  0.5291
   98MOL0     H13166   3.353   1.834   8.642 -1.0792  1.8517 -0.9410
   98MOL0     H13167   3.230   1.959   8.821 -0.0744 -0.4140 -1.1116
   98MOL0     H13168   3.370   2.074   8.828 -0.6276 -0.8001  0.1307
   98MOL0     H13169   3.316   2.143   8.612 -0.4445  2.7969  2.6366
   98MOL0     H13170   3.194   2.022   8.590  0.8489 -0.8214 -0.2190
   98MOL0     H13171   3.058   2.123   8.771  0.1811  0.6256  0.3743
   98MOL0     H13172   3.179   2.253   8.802 -0.7377 -3.1745  3.6906
   98MOL0     H13173   3.138   2.352   8.588 -1.9511  2.4261 -1.2580
   98MOL0     H13174   3.037   2.205   8.552 -0.0410 -0.9888  1.9464
   98MOL0     H13175   2.873   2.267   8.741 -2.5214 -0.9898 -6.0265
   98MOL0     H13176   2.985   2.390   8.794 -0.0523 -3.5865  1.4625
   98MOL0     H13177   2.839   2.423   8.533  0.9369  0.4314 -1.5636
   98MOL0     H13178   2.761   2.464   8.689 -0.0888 -0.9287  0.0068
   98MOL0     H13179   3.016   2.582   8.561 -0.5678  0.9726  0.3583
   98MOL0     H13180   2.958   2.620   8.732 -3.4285  0.9164  1.3990
   98MOL0     H13181   2.654   2.658   8.706  0.2104 -0.4125  0.5112
   98MOL0     H13182   2.579   2.943   8.731  1.6918  0.2162  0.7737
   98MOL0     H13183   2.565   3.021   8.571 -2.9802  1.6001  2.0305
   98MOL0     H13184   2.433   2.752   8.640  0.0338  0.7746  1.2761
   98MOL0     H13185   2.414   2.826   8.487  0.9641 -1.1948 -0.2141
   98MOL0     H13186   2.327   2.918   8.760 -1.7745 -0.3197  0.0367
   98MOL0     H13187   2.218   2.868   8.632 -1.7675  2.1662  0.6097
   98MOL0     H13188   2.306   3.071   8.497  1.7290 -1.2846  0.6947
   98MOL0     H13189   2.391   3.115   8.649 -0.0900  0.0260 -1.1693
   98MOL0     H13190   1.955   3.185   8.762  3.0153 -1.2238  0.6982
   98MOL0     H13191   1.757   3.245   8.791 -2.5822  0.9020  0.7857
   98MOL0     H13192   1.701   3.362   8.676 -0.3205 -0.1048 -0.6012
   98MOL0     H13193   1.641   3.194   8.677  0.1682 -0.4044 -1.8860
   98MOL0     H13194   1.699   3.516   8.244  1.2164 -2.3089  0.6324
   98MOL0     H13195   1.545   3.656   8.091 -2.6909 -0.4553  0.4863
   98MOL0     H13196   1.440   3.475   7.712  0.2668  1.5294 -1.3936
   98MOL0     H13197   1.265   3.461   7.758  0.1361  1.0152 -3.9118
   98MOL0     H13198   1.397   3.719   7.687 -2.2955  2.4082 -0.3670
   98MOL0     H13199   1.343   3.603   7.578  0.3586 -1.2998 -0.2086
   98MOL0     H13200   1.186   3.711   7.810  3.3927  1.1446  0.5046
   98MOL0     H13201   1.124   3.610   7.668  0.8752 -2.1202  0.8003
   98MOL0     H13202   1.222   3.894   7.673 -1.1321  0.9338 -0.2960
   98MOL0     H13203   1.164   3.811   7.521  0.8516  0.9028  0.0003
   98MOL0     H13204   0.991   3.854   7.776  1.0856 -0.6586  0.2562
   98MOL0     H13205   0.936   3.777   7.633 -0.9092  0.0316  1.4093
   98MOL0     H13206   1.054   4.056   7.658  0.0922 -0.1986 -0.5853
   98MOL0     H13207   1.021   3.986   7.508  2.8114  3.1329  1.4117
   98MOL0     H13208   0.844   4.125   7.660 -0.1492 -0.9008  1.1387
   98MOL0     H13209   0.779   3.958   7.671  0.7117 -0.8963 -0.9391
   98MOL0     H13210   0.817   4.130   7.414  2.4639  0.0422  0.5700
   98MOL0     H13211   0.667   4.081   7.470  0.4415  0.9616  0.5909
   98MOL0     H13212   1.420   3.297   7.895 -2.5257  2.0636  0.6406
   98MOL0     H13213   1.579   3.172   8.024 -3.3799 -0.4810  0.6869
   98MOL0     H13214   1.942   3.167   8.269 -0.5377  1.4815 -0.2063
   98MOL0     H13215   2.142   3.108   8.371  1.1352  3.3031 -0.2697
   98MOL0     H13216   3.556   1.589   8.859 -0.0840 -0.9159 -0.2845
   98MOL0     H13217   3.731   1.451   8.779  3.5623  0.0529  1.0689
   98MOL0     H13218   4.034   1.371   8.408 -0.8369  0.8668  0.3071
   98MOL0     H13219   4.235   1.258   8.320  1.5093  3.6041 -2.0646
   98MOL0     H13220   4.402   1.091   8.311  2.1767 -3.0820 -2.5420
   98MOL0     H13221   4.455   1.244   8.252  2.5903 -1.0617 -1.4697
   98MOL0     H13222   4.605   0.993   8.331 -1.4380 -2.1251 -4.5143
   98MOL0     H13223   4.687   1.160   8.309 -2.0807  1.5601  0.8927
   98MOL0     H13224   4.579   1.133   8.072  1.7587 -1.5736 -2.3039
   98MOL0     H13225   4.563   0.957   8.128  1.2438 -1.3373  2.4962
   98MOL0     H13226   4.777   0.926   8.180 -0.9876  1.0933  2.9676
   98MOL0     H13227   4.832   1.085   8.163 -0.2843 -0.3946  0.4851
   98MOL0     H13228   4.917   0.992   7.773 -0.1724 -1.1134 -0.0095
   98MOL0     H13229   4.461   1.350   8.678 -1.3647  0.0828  1.3434
   98MOL0     H13230   4.250   1.442   8.775 -1.5360 -0.8860 -0.5698
   99MOL0     O13231   9.754   8.350   2.466 -0.1380 -0.2017  0.4239
   99MOL0     C13232   9.870   8.370   2.439  0.0799  0.5394 -0.2933
   99MOL0     O13233   9.984   8.296   2.463  0.7496 -0.0101 -0.3243
   99MOL0     C13234   9.966   8.159   2.484  0.5427 -0.8034  0.2897
   99MOL0     C13235   9.947   8.103   2.612  0.3718  0.6105  1.5515
   99MOL0     C13236   9.904   7.967   2.623 -1.3318  0.2843 -0.7241
   99MOL0     C13237   9.892   7.886   2.513  0.2457 -0.6652 -0.5580
   99MOL0     O13238   9.844   7.754   2.523 -0.1940  0.5126  0.2388
   99MOL0     C13239   9.832   7.684   2.651 -0.3845  0.0006 -0.2995
   99MOL0     C13240   9.793   7.541   2.602  0.0924 -0.0221  0.0289
   99MOL0     C13241   9.660   7.526   2.531  1.5106 -0.8281  0.3949
   99MOL0     C13242   9.642   7.380   2.478  0.3043 -0.0136 -0.7693
   99MOL0     C13243   9.521   7.349   2.400  0.4018 -0.6815  0.4623
   99MOL0     C13244   9.532   7.213   2.331  0.0850 -0.9755 -0.8846
   99MOL0     C13245   9.414   7.179   2.246 -0.0499 -0.9505 -0.1623
   99MOL0     C13246   9.427   7.041   2.179 -0.3415 -1.0772 -0.0632
   99MOL0     N13247   9.346   7.035   2.052  0.3065 -0.3848 -0.6070
   99MOL0     C13248   9.208   7.048   2.039 -0.9670 -0.4581 -0.2110
   99MOL0     C13249   9.185   7.020   1.920 -0.3011  0.3543  0.2072
   99MOL0     C13250   9.053   7.020   1.857 -0.4301 -0.8207 -0.1979
   99MOL0     C13251   9.040   6.929   1.732 -0.4054 -0.7935  0.1828
   99MOL0     C13252   8.888   6.925   1.698 -0.2858  0.1807  0.3407
   99MOL0     C13253   8.855   6.846   1.575 -1.0974 -0.3121 -0.7219
   99MOL0     O13254   8.944   6.867   1.468 -0.2287  0.9893 -0.9572
   99MOL0     C13255   8.957   6.979   1.393  0.7035 -0.3794 -0.6611
   99MOL0     C13256   8.892   7.099   1.418 -0.4402  0.3612  0.7217
   99MOL0     C13257   8.903   7.208   1.332  0.4667 -0.6141 -0.5216
   99MOL0     C13258   8.819   7.338   1.368 -0.2054  0.3750  0.7265
   99MOL0     C13259   8.969   7.183   1.206 -0.2616  0.2568 -0.1731
   99MOL0     C13260   8.984   7.287   1.098  0.3057 -0.3761 -0.2739
   99MOL0     O13261   9.047   7.249   0.974 -0.5907  0.5452  0.4254
   99MOL0     C13262   9.066   7.336   0.860 -0.2692 -0.1487 -0.0008
   99MOL0     C13263   8.962   7.427   0.824 -1.3042 -0.0615 -0.0935
   99MOL0     C13264   8.974   7.502   0.707 -1.0100  0.0955  1.6162
   99MOL0     C13265   9.090   7.483   0.620 -0.7046  0.4802 -0.3920
   99MOL0     O13266   9.108   7.540   0.497 -0.3940 -0.8012 -0.1477
   99MOL0     C13267   9.040   7.659   0.463  0.2524 -0.5649  0.6915
   99MOL0     C13268   9.070   7.698   0.318  0.2638 -0.5543  0.1310
   99MOL0     C13269   8.970   7.793   0.258  0.6424  0.3962 -0.1841
   99MOL0     C13270   9.006   7.822   0.118 -0.3567 -0.1538  0.2289
   99MOL0     C13271   8.906   7.920   0.051 -1.1135  0.0440  0.8038
   99MOL0     C13272   8.979   8.008  -0.050  0.7788 -0.9208  0.0779
   99MOL0     C13273   8.907   8.139  -0.090  0.1102 -0.0852  0.1701
   99MOL0     C13274   8.789   8.118  -0.170  0.2296 -0.0786 -0.5905
   99MOL0    Cl13275   8.680   8.254  -0.137  0.0479  0.2085 -0.0807
   99MOL0     C13276   9.184   7.396   0.655  0.1309  0.3354 -0.4572
   99MOL0     C13277   9.176   7.321   0.773  0.1448 -0.1244  0.3049
   99MOL0     O13278   8.955   7.406   1.117 -0.6719  0.2082 -0.0002
   99MOL0     C13279   9.020   7.059   1.181 -0.5113 -0.6731 -0.7237
   99MOL0     C13280   9.026   6.959   1.279  0.2747 -0.9781 -0.1654
   99MOL0     N13281   9.299   6.991   1.849  0.3649 -0.9711 -0.1201
   99MOL0     N13282   9.401   7.020   1.924 -0.3386 -0.7410  0.3672
   99MOL0     C13283   9.934   7.942   2.392 -0.5547  1.3373  0.6345
   99MOL0     C13284   9.972   8.071   2.378 -0.1263 -1.1308 -0.9775
   99MOL0     C13285   9.908   8.486   2.361  0.4114  0.2248  0.0950
   99MOL0     C13286  10.044   8.510   2.319  0.2945 -0.4519 -0.6210
   99MOL0     C13287  10.069   8.620   2.236  0.4761  0.9214 -0.6724
   99MOL0     C13288   9.969   8.710   2.191 -1.3816 -0.1194 -0.6994
   99MOL0     O13289  10.002   8.820   2.116  0.1966  0.2054 -0.6843
   99MOL0     C13290   9.910   8.929   2.083  0.3435  0.2609 -0.9044
   99MOL0     C13291   9.861   9.001   2.209 -0.1837  0.8074 -0.3303
   99MOL0     C13292   9.812   9.135   2.164  0.9939 -0.1061  0.2418
   99MOL0     C13293   9.717   9.207   2.264 -0.7453 -0.6228  0.8639
   99MOL0     C13294   9.665   9.329   2.215  0.6425  0.3537  0.3492
   99MOL0     C13295   9.613   9.424   2.170 -0.3899  0.3141 -0.0068
   99MOL0     C13296   9.836   8.681   2.233  0.6997  0.6961  0.1232
   99MOL0     C13297   9.807   8.579   2.319  0.8648  0.1403 -0.0248
   99MOL0     H13298   9.958   8.153   2.708 -2.3447 -0.4197  2.4778
   99MOL0     H13299   9.896   7.924   2.722  0.2793 -2.1645 -1.5707
   99MOL0     H13300   9.912   7.677   2.725  0.4041 -0.5758 -1.1883
   99MOL0     H13301   9.742   7.730   2.692 -0.1321  0.8296 -0.6569
   99MOL0     H13302   9.877   7.513   2.538  0.8422  0.9526  0.5477
   99MOL0     H13303   9.776   7.468   2.683  0.6300  0.3297  0.4687
   99MOL0     H13304   9.577   7.552   2.597  1.2511  0.0343 -0.2525
   99MOL0     H13305   9.664   7.584   2.439  0.0732 -3.8068 -1.7132
   99MOL0     H13306   9.735   7.361   2.423  2.3593  1.1261  2.0412
   99MOL0     H13307   9.653   7.316   2.567  3.9997  4.0949  2.1692
   99MOL0     H13308   9.437   7.348   2.470 -0.8721  1.5048 -0.9193
   99MOL0     H13309   9.506   7.423   2.320  0.6519  0.9739  1.8805
   99MOL0     H13310   9.630   7.191   2.287  0.7017 -1.2244  0.5341
   99MOL0     H13311   9.527   7.141   2.414 -0.1878  0.9710  0.8840
   99MOL0     H13312   9.321   7.177   2.305  0.4186 -0.5934  0.6041
   99MOL0     H13313   9.396   7.253   2.167  0.8459 -1.1960 -0.6034
   99MOL0     H13314   9.390   6.967   2.250  0.8550 -3.5675 -1.8883
   99MOL0     H13315   9.530   7.013   2.157  0.4502  0.5111  1.4192
   99MOL0     H13316   9.148   7.089   2.120 -0.6136 -0.9558  0.3182
   99MOL0     H13317   8.981   6.986   1.932  0.5435  1.9015  2.1622
   99MOL0     H13318   9.034   7.125   1.834  0.4129 -1.2896 -3.5445
   99MOL0     H13319   9.082   6.834   1.768 -0.6662  0.4344  4.1546
   99MOL0     H13320   9.095   6.976   1.650 -1.6967  0.0156 -0.2450
   99MOL0     H13321   8.851   7.027   1.682  0.3124  0.6422  1.7949
   99MOL0     H13322   8.818   6.886   1.772 -0.1742 -1.1366 -0.2262
   99MOL0     H13323   8.754   6.881   1.549 -0.1836  1.3473 -2.2518
   99MOL0     H13324   8.854   6.740   1.600  2.0264 -0.6608 -1.6969
   99MOL0     H13325   8.826   7.106   1.503  1.0346 -3.3199  2.3865
   99MOL0     H13326   8.759   7.337   1.460 -1.7895  1.2806 -0.2564
   99MOL0     H13327   8.888   7.424   1.370 -1.1170  1.1217  0.7718
   99MOL0     H13328   8.750   7.356   1.285  0.2435 -1.3640 -0.0619
   99MOL0     H13329   8.875   7.429   0.889 -1.6349 -0.7416 -0.5062
   99MOL0     H13330   8.903   7.583   0.696  2.1113  3.1571  2.2852
   99MOL0     H13331   8.932   7.650   0.479  0.6312 -1.0905  3.4814
   99MOL0     H13332   9.075   7.746   0.519  4.6344 -0.9857 -1.0108
   99MOL0     H13333   9.168   7.745   0.329  0.7738 -1.9856  2.1494
   99MOL0     H13334   9.083   7.613   0.251  1.0010 -1.6719  1.6566
   99MOL0     H13335   8.947   7.879   0.322  2.1070 -1.0412  2.4723
   99MOL0     H13336   8.874   7.740   0.251 -0.5843  2.6233 -1.2911
   99MOL0     H13337   9.106   7.867   0.127 -0.8059  0.8781  0.2252
   99MOL0     H13338   9.005   7.729   0.061 -1.3751  1.3094 -2.3205
   99MOL0     H13339   8.857   7.980   0.128 -0.4527  0.6476  0.7670
   99MOL0     H13340   8.830   7.862  -0.001 -1.5324  0.9018  0.4341
   99MOL0     H13341   9.076   8.046  -0.016  0.5863  1.0928 -1.3881
   99MOL0     H13342   9.000   7.952  -0.142  2.0004  0.2209 -0.3810
   99MOL0     H13343   8.975   8.210  -0.138 -2.7413  2.6958 -0.1129
   99MOL0     H13344   8.875   8.174   0.008 -0.1040 -0.2418  0.1567
   99MOL0     H13345   8.738   8.030  -0.129 -1.1632  1.4392  1.1152
   99MOL0     H13346   8.823   8.106  -0.273  3.3734 -1.4716  0.4674
   99MOL0     H13347   9.275   7.382   0.598 -0.2349  0.6424 -1.1311
   99MOL0     H13348   9.251   7.249   0.806 -1.9927 -2.1379  1.0079
   99MOL0     H13349   9.067   7.024   1.090 -1.2267 -1.2742 -0.8721
   99MOL0     H13350   9.076   6.864   1.262  0.6755 -0.8016  0.0032
   99MOL0     H13351   9.927   7.883   2.301 -2.2881 -0.0074  1.5730
   99MOL0     H13352   9.997   8.118   2.284 -0.5046  3.4895  0.9799
   99MOL0     H13353  10.134   8.457   2.349  0.5592  0.9546  1.2690
   99MOL0     H13354  10.168   8.639   2.196  0.4835  1.6549 -0.3091
   99MOL0     H13355   9.977   9.000   2.033 -0.7228  2.4013  0.5439
   99MOL0     H13356   9.826   8.896   2.021  2.1449 -3.9718 -1.4538
   99MOL0     H13357   9.954   9.006   2.266  0.6980  0.7452 -1.6973
   99MOL0     H13358   9.776   8.951   2.255 -1.0509  2.0497 -0.5125
   99MOL0     H13359   9.755   9.115   2.072  0.9959  0.3776  0.1304
   99MOL0     H13360   9.891   9.207   2.141  0.9847  0.1643  1.0348
   99MOL0     H13361   9.767   9.233   2.357  0.4082 -0.2881  0.1810
   99MOL0     H13362   9.628   9.147   2.282 -1.0351 -0.1969  0.8502
   99MOL0     H13363   9.576   9.510   2.117  0.5948 -1.5949 -4.2026
   99MOL0     H13364   9.754   8.722   2.175  1.3920  3.2503  0.8502
   99MOL0     H13365   9.705   8.549   2.337  2.0967 -2.0390  4.9078
  100MOL0     O13366   5.050   4.267   1.979 -0.7637 -0.1559 -0.3755
  100MOL0     C13367   5.141   4.260   2.060  0.4370  0.8095 -0.1027
  100MOL0     O13368   5.219   4.144   2.081  0.5911  0.1801 -0.2098
  100MOL0     C13369   5.202   4.051   1.991  0.6420 -0.6044 -0.2585
  100MOL0     C13370   5.077   3.992   1.960  0.9143  0.4580 -0.1419
  100MOL0     C13371   5.064   3.905   1.855  0.9208 -0.8685 -0.1381
  100MOL0     C13372   5.170   3.881   1.770  0.4622 -0.2435  0.1860
  100MOL0     O13373   5.160   3.814   1.649 -0.6766  0.5709  0.2923
  100MOL0     C13374   5.031   3.804   1.586 -0.3417  0.6307  0.4835
  100MOL0     C13375   5.026   3.716   1.459  0.6194  0.7512  0.1519
  100MOL0     C13376   4.910   3.753   1.367  0.2187  0.5058 -0.9444
  100MOL0     C13377   4.854   3.643   1.277 -0.3075 -0.3764  0.2021
  100MOL0     C13378   4.723   3.688   1.221 -0.6772 -0.2672 -0.1424
  100MOL0     C13379   4.702   3.632   1.079 -0.6145 -0.1616 -0.3816
  100MOL0     C13380   4.560   3.638   1.029 -0.1880 -0.7969  0.7931
  100MOL0     C13381   4.456   3.589   1.131  0.1743 -0.0155 -0.1238
  100MOL0     N13382   4.337   3.590   1.042  0.2580 -0.3155 -0.8646
  100MOL0     C13383   4.248   3.693   1.028  0.2345  1.2814  0.6651
  100MOL0     C13384   4.152   3.640   0.954  0.8811  0.9408  0.3774
  100MOL0     C13385   4.016   3.706   0.928  0.8043 -0.2822 -0.3065
  100MOL0     C13386   3.972   3.708   0.781  1.2272  0.6598 -0.1245
  100MOL0     C13387   3.854   3.813   0.752 -0.5333  0.9252  0.6595
  100MOL0     C13388   3.731   3.758   0.818 -0.3675 -0.0837 -0.0230
  100MOL0     O13389   3.630   3.856   0.793  0.0544 -0.1508 -0.1388
  100MOL0     C13390   3.494   3.824   0.809  1.1478 -0.5953  0.5432
  100MOL0     C13391   3.400   3.926   0.783 -0.2708  1.3303  0.5750
  100MOL0     C13392   3.265   3.897   0.788 -0.3137 -0.5371  0.1895
  100MOL0     C13393   3.181   4.023   0.770  0.3399 -0.6765  0.1001
  100MOL0     C13394   3.216   3.768   0.836 -1.0276 -0.2557 -0.4089
  100MOL0     C13395   3.080   3.743   0.852 -0.5623 -0.3219  1.4672
  100MOL0     O13396   3.029   3.636   0.791 -0.7434  0.6207  0.0573
  100MOL0     C13397   2.904   3.602   0.822  0.3199 -0.3994 -0.1794
  100MOL0     C13398   2.795   3.659   0.757  0.2266  0.4772  0.7832
  100MOL0     C13399   2.663   3.639   0.799 -0.7843 -0.6626 -0.2234
  100MOL0     C13400   2.629   3.555   0.900 -0.1109 -0.6399  0.0589
  100MOL0     O13401   2.501   3.530   0.942  0.0043 -0.4844 -0.5902
  100MOL0     C13402   2.391   3.545   0.859 -0.3531 -0.2911  0.7536
  100MOL0     C13403   2.283   3.625   0.933 -0.3312 -0.1927  0.1071
  100MOL0     C13404   2.211   3.535   1.032 -0.4806 -0.1830 -0.1571
  100MOL0     C13405   2.153   3.626   1.142  0.3524 -0.1400 -0.0290
  100MOL0     C13406   2.053   3.543   1.235  0.1716 -1.9792 -0.2606
  100MOL0     C13407   1.919   3.511   1.156  0.3278  0.2037 -0.0209
  100MOL0     C13408   1.816   3.439   1.242  0.4971 -0.4829  0.1332
  100MOL0     C13409   1.701   3.405   1.157  0.6821  1.1093 -0.5759
  100MOL0    Cl13410   1.588   3.330   1.268 -0.3297  0.0612  0.3340
  100MOL0     C13411   2.736   3.491   0.966  0.9085  0.3962 -0.6946
  100MOL0     C13412   2.874   3.519   0.938  0.1499 -0.3669  0.3760
  100MOL0     O13413   3.018   3.827   0.921  0.2092 -0.7657 -0.4152
  100MOL0     C13414   3.307   3.666   0.868 -0.1779 -0.7172 -0.2724
  100MOL0     C13415   3.443   3.689   0.854 -1.2743  0.1517 -0.2987
  100MOL0     N13416   4.171   3.509   0.926 -0.8563 -0.2017 -0.1903
  100MOL0     N13417   4.290   3.480   0.981  1.1122 -0.2936  1.1898
  100MOL0     C13418   5.297   3.933   1.804 -0.2631 -0.7946  0.2818
  100MOL0     C13419   5.313   4.010   1.918 -0.0498  0.0087  0.2612
  100MOL0     C13420   5.181   4.386   2.130 -0.9339 -0.0032 -0.6162
  100MOL0     C13421   5.301   4.389   2.216 -0.0077 -0.7351  0.5780
  100MOL0     C13422   5.329   4.500   2.298 -0.5415 -0.1002  0.7282
  100MOL0     C13423   5.244   4.611   2.284 -0.4040  0.5402 -0.0213
  100MOL0     O13424   5.250   4.719   2.365  0.6070 -0.0573 -0.5620
  100MOL0     C13425   5.368   4.747   2.428  0.3776  1.2544 -0.0964
  100MOL0     C13426   5.375   4.881   2.510 -0.3134  0.1909  0.4520
  100MOL0     C13427   5.369   4.991   2.408  0.6569  0.2269 -0.0969
  100MOL0     C13428   5.352   5.131   2.468  0.6610 -0.4339  0.1826
  100MOL0     C13429   5.217   5.148   2.529 -0.4481 -0.5124 -0.5581
  100MOL0     C13430   5.114   5.156   2.586 -1.2087 -0.2327 -0.4729
  100MOL0     C13431   5.124   4.605   2.206 -0.4678  0.5194  0.4574
  100MOL0     C13432   5.100   4.493   2.130 -0.7248  0.4614  0.4765
  100MOL0     H13433   4.997   4.005   2.032  0.9110 -1.6406  0.2780
  100MOL0     H13434   4.970   3.854   1.838  0.3086  0.9572 -2.8847
  100MOL0     H13435   4.968   3.746   1.654  1.0837 -1.3482  0.2236
  100MOL0     H13436   4.979   3.899   1.574 -1.6478  0.0180  1.0763
  100MOL0     H13437   5.119   3.735   1.404 -0.0751  0.5712 -1.1339
  100MOL0     H13438   5.034   3.610   1.485  4.1768  0.4675 -1.5419
  100MOL0     H13439   4.842   3.800   1.439 -2.2571 -1.7827 -1.6111
  100MOL0     H13440   4.940   3.827   1.291  1.0065 -0.0170 -1.1554
  100MOL0     H13441   4.929   3.629   1.199 -1.4648  1.8187 -1.4131
  100MOL0     H13442   4.836   3.550   1.333 -3.2390  0.9822  1.7660
  100MOL0     H13443   4.639   3.661   1.285  2.0863 -3.1693  2.6148
  100MOL0     H13444   4.718   3.796   1.210  1.0543 -0.1376  0.0489
  100MOL0     H13445   4.769   3.703   1.029 -1.8588  2.9387  2.0828
  100MOL0     H13446   4.746   3.532   1.070  0.3895  0.1351  0.8882
  100MOL0     H13447   4.529   3.738   0.997  0.6504 -1.5248 -2.7635
  100MOL0     H13448   4.564   3.576   0.939 -0.3366 -0.6925  0.7145
  100MOL0     H13449   4.440   3.662   1.211 -3.7917 -0.7200 -0.0367
  100MOL0     H13450   4.468   3.489   1.174 -1.1056 -0.8725 -1.6276
  100MOL0     H13451   4.251   3.792   1.072 -2.9422  0.3822  3.2747
  100MOL0     H13452   3.945   3.655   0.993  1.9044 -0.4484  0.8111
  100MOL0     H13453   4.022   3.811   0.959 -0.8356 -0.3016  0.1190
  100MOL0     H13454   3.937   3.612   0.742 -0.5621  0.1191  2.5650
  100MOL0     H13455   4.043   3.753   0.711  2.3834 -0.3628  0.3552
  100MOL0     H13456   3.830   3.842   0.649  1.4677 -1.4373 -0.6043
  100MOL0     H13457   3.889   3.903   0.802  3.0333  0.6813 -1.0684
  100MOL0     H13458   3.751   3.743   0.924  0.4594 -2.7010 -0.4667
  100MOL0     H13459   3.708   3.657   0.782 -1.3046  1.1551 -3.2783
  100MOL0     H13460   3.444   4.019   0.750  2.9963 -0.8890 -2.0739
  100MOL0     H13461   3.177   4.092   0.854  0.2946  0.4498 -0.8008
  100MOL0     H13462   3.214   4.062   0.673 -0.5402  2.4086  0.9180
  100MOL0     H13463   3.075   3.996   0.764  0.1237 -0.3547  1.9359
  100MOL0     H13464   2.810   3.715   0.665  0.5181 -2.2268 -0.9459
  100MOL0     H13465   2.583   3.686   0.743 -0.9838 -4.5119 -3.6305
  100MOL0     H13466   2.417   3.594   0.764  3.7897 -2.1639  0.7113
  100MOL0     H13467   2.376   3.438   0.841  0.1135 -0.3385  0.6255
  100MOL0     H13468   2.333   3.703   0.991 -0.1422  0.7390 -1.2873
  100MOL0     H13469   2.212   3.675   0.868 -3.1568  1.1338  3.8426
  100MOL0     H13470   2.283   3.462   1.070 -1.0494 -0.4003  0.5126
  100MOL0     H13471   2.135   3.488   0.969 -0.0145 -0.4656 -0.5164
  100MOL0     H13472   2.238   3.665   1.198 -0.2444  0.6796  0.3281
  100MOL0     H13473   2.094   3.705   1.095 -2.3461 -2.0747 -0.1649
  100MOL0     H13474   2.030   3.608   1.320  2.3275  2.3342 -2.6714
  100MOL0     H13475   2.095   3.449   1.272 -1.7076 -1.5680  3.4519
  100MOL0     H13476   1.891   3.609   1.117 -2.6052  0.4841  2.4300
  100MOL0     H13477   1.952   3.443   1.077  0.2838 -0.0751  0.1999
  100MOL0     H13478   1.779   3.500   1.325  0.7072  0.2868 -0.3345
  100MOL0     H13479   1.860   3.344   1.274 -0.2658 -0.8590  0.0833
  100MOL0     H13480   1.744   3.330   1.091 -0.8873 -1.5777  1.2669
  100MOL0     H13481   1.651   3.488   1.106  0.1990  0.9137 -0.4234
  100MOL0     H13482   2.725   3.417   1.045  0.4324  1.4848  0.2929
  100MOL0     H13483   2.952   3.463   0.988  0.2919  2.0242  3.1000
  100MOL0     H13484   3.269   3.575   0.912 -0.2554 -0.7346 -0.3750
  100MOL0     H13485   3.519   3.615   0.877 -1.0714 -0.9633 -4.0219
  100MOL0     H13486   5.371   3.910   1.728 -2.2299 -1.1830 -1.6195
  100MOL0     H13487   5.409   4.054   1.944 -0.0360 -1.0075  2.1218
  100MOL0     H13488   5.372   4.308   2.210 -1.5652 -2.2423  1.5375
  100MOL0     H13489   5.422   4.507   2.353  0.9911 -1.0511 -1.6078
  100MOL0     H13490   5.395   4.662   2.491  1.8898  1.7512 -0.0277
  100MOL0     H13491   5.442   4.746   2.348  2.6470  1.2555  1.8872
  100MOL0     H13492   5.459   4.902   2.576 -3.1627  0.3635  4.4081
  100MOL0     H13493   5.289   4.890   2.578 -2.0218  2.0370 -1.7700
  100MOL0     H13494   5.289   4.974   2.335  2.3212  3.5577 -2.9823
  100MOL0     H13495   5.462   4.972   2.354  2.1930 -0.1195  2.5389
  100MOL0     H13496   5.360   5.203   2.386  2.2976 -0.5667  0.2058
  100MOL0     H13497   5.429   5.149   2.543 -0.0506 -2.9052  1.6214
  100MOL0     H13498   5.019   5.161   2.636 -1.8336 -0.3303 -1.6119
  100MOL0     H13499   5.059   4.692   2.196 -0.1275  0.6087 -1.3526
  100MOL0     H13500   5.017   4.500   2.061 -0.1742  0.1740 -0.2227
  101MOL0     O13501  11.144   3.977   2.276 -0.4057 -0.4946  0.7598
  101MOL0     C13502  11.132   4.072   2.356  0.3556  0.0850 -0.0487
  101MOL0     O13503  11.018   4.130   2.405 -0.4014 -0.6280 -0.4543
  101MOL0     C13504  10.896   4.079   2.367  0.1037  0.0771 -0.2335
  101MOL0     C13505  10.794   4.126   2.443 -0.6078 -0.1580 -0.4676
  101MOL0     C13506  10.658   4.094   2.403  0.4935  1.0342 -0.1770
  101MOL0     C13507  10.627   4.007   2.293  0.0539 -0.6806  0.1215
  101MOL0     O13508  10.493   3.974   2.260  0.2086 -0.6451 -0.3465
  101MOL0     C13509  10.407   4.087   2.291  0.9446  0.1409  1.0822
  101MOL0     C13510  10.263   4.063   2.233  0.8131  0.2047 -0.6298
  101MOL0     C13511  10.201   3.922   2.294  0.5210 -0.1648  0.1113
  101MOL0     C13512  10.052   3.913   2.276 -0.1706  0.1051 -0.0270
  101MOL0     C13513   9.999   3.774   2.342  0.3801 -0.0676  0.4466
  101MOL0     C13514   9.844   3.790   2.361  0.1959 -0.1181  0.4094
  101MOL0     C13515   9.768   3.820   2.229  0.5674 -0.2919 -0.4254
  101MOL0     C13516   9.631   3.865   2.265 -0.4039  0.4282  0.3349
  101MOL0     N13517   9.572   3.935   2.151  0.8641  0.4625  0.1512
  101MOL0     C13518   9.554   3.883   2.023  0.1261 -0.7230 -0.4002
  101MOL0     C13519   9.493   3.979   1.949  0.6875 -0.5334 -0.4450
  101MOL0     C13520   9.433   3.966   1.815  0.3805  0.4830  0.5247
  101MOL0     C13521   9.543   3.962   1.707  0.2972 -0.7521  0.5070
  101MOL0     C13522   9.530   3.848   1.603 -0.2844 -0.3803 -0.7474
  101MOL0     C13523   9.404   3.838   1.523 -0.6935 -0.1013 -0.8294
  101MOL0     O13524   9.363   3.957   1.441 -0.4756  0.2838 -0.4453
  101MOL0     C13525   9.417   3.993   1.312  0.0640 -0.7798  0.1535
  101MOL0     C13526   9.472   3.892   1.231  0.9708  0.8101  0.6168
  101MOL0     C13527   9.508   3.921   1.097 -0.0589  0.5535 -0.0396
  101MOL0     C13528   9.566   3.806   1.010  0.4385 -0.0390  0.0364
  101MOL0     C13529   9.493   4.054   1.041 -0.1780  0.2259  0.5900
  101MOL0     C13530   9.535   4.086   0.897 -0.2530  0.9287 -0.4351
  101MOL0     O13531   9.555   4.229   0.877  0.2436  0.0667 -0.1695
  101MOL0     C13532   9.567   4.283   0.748 -1.3239 -0.3620 -0.8165
  101MOL0     C13533   9.599   4.423   0.728 -0.5590  1.0497 -0.7050
  101MOL0     C13534   9.622   4.483   0.607 -0.2358 -0.1342 -0.2736
  101MOL0     C13535   9.598   4.411   0.493 -0.2076  0.1879  0.1898
  101MOL0     O13536   9.593   4.470   0.366 -0.5590 -0.0730  0.4521
  101MOL0     C13537   9.549   4.610   0.345  0.3279  0.9404  0.2631
  101MOL0     C13538   9.508   4.644   0.198  0.9250 -0.0800 -0.4261
  101MOL0     C13539   9.595   4.577   0.095 -0.4342  0.2423 -1.0187
  101MOL0     C13540   9.563   4.594  -0.056 -0.1586 -0.1405 -0.0176
  101MOL0     C13541   9.421   4.645  -0.084 -0.1197 -0.4737  0.0729
  101MOL0     C13542   9.386   4.639  -0.235  0.2792  0.2220  0.0944
  101MOL0     C13543   9.261   4.720  -0.270  0.3087 -0.3836  0.4751
  101MOL0     C13544   9.217   4.683  -0.409  0.5739  0.5821 -0.4754
  101MOL0    Cl13545   9.311   4.782  -0.528  0.0945 -0.9157  0.1730
  101MOL0     C13546   9.573   4.275   0.499 -1.7869 -0.1201  0.5638
  101MOL0     C13547   9.560   4.217   0.620  1.0251 -0.0557 -0.9625
  101MOL0     O13548   9.564   3.997   0.815 -0.3143 -0.0203 -0.6685
  101MOL0     C13549   9.443   4.152   1.127  0.0848  0.2246 -0.1969
  101MOL0     C13550   9.406   4.126   1.254  0.0192  0.6892 -0.7562
  101MOL0     N13551   9.496   4.093   2.019  0.2211 -0.0797  1.5647
  101MOL0     N13552   9.539   4.068   2.140 -0.3251  0.7877  0.6350
  101MOL0     C13553  10.736   3.948   2.221  0.0782  0.0703 -0.2523
  101MOL0     C13554  10.861   3.996   2.258  0.5399 -0.4551 -0.5211
  101MOL0     C13555  11.251   4.141   2.411  0.2680 -1.1517  0.7054
  101MOL0     C13556  11.378   4.106   2.369  1.4711  0.4865  1.2564
  101MOL0     C13557  11.496   4.151   2.434  0.6889  0.1979  0.0530
  101MOL0     C13558  11.476   4.223   2.554  0.3554 -0.4752  0.7890
  101MOL0     O13559  11.577   4.255   2.639  0.0087  0.4262  0.9486
  101MOL0     C13560  11.703   4.187   2.646  0.0928 -0.0226  0.0423
  101MOL0     C13561  11.801   4.254   2.546  0.1656 -0.0511 -1.2123
  101MOL0     C13562  11.862   4.394   2.592  0.6569  0.4297 -0.3052
  101MOL0     C13563  11.996   4.440   2.506 -0.0243  0.4218 -0.6685
  101MOL0     C13564  12.068   4.551   2.566  0.8796  0.9561 -0.2989
  101MOL0     C13565  12.131   4.650   2.606  0.4535 -0.9267 -0.0951
  101MOL0     C13566  11.352   4.272   2.597  0.9897 -0.0286  0.1162
  101MOL0     C13567  11.244   4.221   2.525  0.1746  0.0175 -0.0504
  101MOL0     H13568  10.818   4.190   2.527  1.4892 -2.3881  0.7290
  101MOL0     H13569  10.587   4.122   2.480 -1.2476 -1.1630 -0.8715
  101MOL0     H13570  10.406   4.102   2.399  1.3827 -0.2912  1.1482
  101MOL0     H13571  10.436   4.185   2.250  2.2058  1.2614  4.3151
  101MOL0     H13572  10.193   4.139   2.267  4.1870  3.9251 -1.3196
  101MOL0     H13573  10.269   4.059   2.124  1.8407 -0.3204 -0.5720
  101MOL0     H13574  10.244   3.831   2.249 -1.6133 -0.6207 -1.1603
  101MOL0     H13575  10.223   3.914   2.400  2.5086  1.0861 -0.1570
  101MOL0     H13576  10.008   3.994   2.335 -1.9006  0.3207 -1.5419
  101MOL0     H13577  10.018   3.919   2.173 -0.3270 -1.4970 -0.0914
  101MOL0     H13578  10.023   3.688   2.280 -0.8890  0.0402 -0.2166
  101MOL0     H13579  10.033   3.763   2.446  0.2581 -0.6457  0.4265
  101MOL0     H13580   9.806   3.699   2.408 -0.2636 -0.7211 -1.0777
  101MOL0     H13581   9.823   3.868   2.434  1.0743  1.1160 -0.6165
  101MOL0     H13582   9.804   3.915   2.190 -1.4539  1.4186  1.6107
  101MOL0     H13583   9.773   3.746   2.149 -1.9398  2.0439 -2.9774
  101MOL0     H13584   9.645   3.941   2.342 -0.3540  1.8273 -0.9943
  101MOL0     H13585   9.589   3.777   2.314  2.2812  0.0189  2.0962
  101MOL0     H13586   9.583   3.784   1.990  1.8564 -1.7892  3.7001
  101MOL0     H13587   9.386   3.868   1.818 -0.3293  0.8242  3.4175
  101MOL0     H13588   9.363   4.049   1.801  2.0141  1.8016 -0.1439
  101MOL0     H13589   9.640   3.953   1.758  0.0354  2.3605  1.7190
  101MOL0     H13590   9.554   4.051   1.645  1.6480 -1.3105 -0.1070
  101MOL0     H13591   9.516   3.752   1.654  1.3728 -0.3596 -0.1918
  101MOL0     H13592   9.625   3.852   1.549  2.6003 -3.8324  3.3934
  101MOL0     H13593   9.322   3.836   1.595  2.2228 -3.9038  2.8746
  101MOL0     H13594   9.400   3.744   1.468 -0.9366 -0.6443  0.0964
  101MOL0     H13595   9.490   3.793   1.271  0.5010  0.3340 -0.3165
  101MOL0     H13596   9.655   3.832   0.953  2.0419 -1.8186  1.5950
  101MOL0     H13597   9.598   3.721   1.071  0.6085  0.6799  0.9802
  101MOL0     H13598   9.491   3.771   0.939  1.1956 -2.3003  0.2961
  101MOL0     H13599   9.598   4.485   0.817  0.2329  0.6223 -0.3936
  101MOL0     H13600   9.630   4.591   0.599  0.6396 -0.0386  1.3748
  101MOL0     H13601   9.470   4.626   0.418 -0.6584 -1.9787 -0.0177
  101MOL0     H13602   9.633   4.675   0.371  1.0213 -0.3676  1.4202
  101MOL0     H13603   9.402   4.621   0.186  0.5016  1.5511  0.0151
  101MOL0     H13604   9.518   4.753   0.192  3.6502 -0.1435  1.3992
  101MOL0     H13605   9.583   4.471   0.117  1.2646 -0.0818 -1.4815
  101MOL0     H13606   9.698   4.606   0.121  0.2264 -1.1717 -1.9295
  101MOL0     H13607   9.641   4.653  -0.106 -0.5814 -0.5671 -1.2125
  101MOL0     H13608   9.568   4.496  -0.105 -3.2951  0.0197 -0.8536
  101MOL0     H13609   9.422   4.742  -0.033  2.2196  0.4086 -1.4835
  101MOL0     H13610   9.349   4.576  -0.038 -2.6928  0.8473 -1.7385
  101MOL0     H13611   9.471   4.683  -0.288  0.0452  1.4301  0.6921
  101MOL0     H13612   9.371   4.536  -0.268 -0.2502 -0.2749  1.8259
  101MOL0     H13613   9.271   4.829  -0.262 -1.8190  0.0438 -1.6432
  101MOL0     H13614   9.182   4.683  -0.205 -2.4480 -0.7515 -2.8300
  101MOL0     H13615   9.110   4.685  -0.433 -0.1469 -3.4734  1.5262
  101MOL0     H13616   9.235   4.576  -0.422  2.3672  0.9754 -1.6467
  101MOL0     H13617   9.558   4.219   0.408  1.7432  0.4530 -0.5248
  101MOL0     H13618   9.529   4.115   0.604  0.6512  0.2442 -2.2911
  101MOL0     H13619   9.431   4.248   1.078 -0.6753  0.2037 -0.0677
  101MOL0     H13620   9.378   4.212   1.315  0.1298  0.0828  0.1715
  101MOL0     H13621  10.713   3.868   2.151  0.8868 -4.3529  3.9421
  101MOL0     H13622  10.933   3.952   2.189  0.7165  1.9691 -1.9820
  101MOL0     H13623  11.383   4.056   2.272 -0.7338 -1.6820  2.1484
  101MOL0     H13624  11.589   4.118   2.391  0.8109 -3.5001  2.7152
  101MOL0     H13625  11.742   4.195   2.748  3.2064  4.0053 -1.2263
  101MOL0     H13626  11.687   4.083   2.616  0.8499 -0.5604  1.3942
  101MOL0     H13627  11.754   4.273   2.449 -2.3701 -4.2411 -1.0399
  101MOL0     H13628  11.877   4.180   2.519 -0.2804 -1.4812  1.1938
  101MOL0     H13629  11.888   4.385   2.697  1.1038 -2.8445 -0.5690
  101MOL0     H13630  11.786   4.472   2.590 -2.5621 -2.4597 -0.2672
  101MOL0     H13631  11.976   4.478   2.406  1.0745 -0.0362 -1.0741
  101MOL0     H13632  12.070   4.361   2.495  0.5711  0.8392  0.2473
  101MOL0     H13633  12.183   4.738   2.637  1.5500 -0.3338 -3.2338
  101MOL0     H13634  11.327   4.328   2.687  2.2824 -0.7132  0.9327
  101MOL0     H13635  11.158   4.272   2.566  1.4753 -1.6381  5.5617
  102MOL0     O13636   3.551   1.064   6.191 -0.2995  0.4360 -0.3966
  102MOL0     C13637   3.582   0.995   6.290 -0.0701 -0.1409 -0.6521
  102MOL0     O13638   3.717   0.982   6.337 -0.5632 -0.6054 -0.3969
  102MOL0     C13639   3.822   1.018   6.264 -0.0698  0.1385  0.6283
  102MOL0     C13640   3.836   1.032   6.119 -0.4244 -0.1353 -0.1574
  102MOL0     C13641   3.944   1.081   6.047 -0.7092  0.3215  0.3877
  102MOL0     C13642   4.057   1.107   6.116 -1.4184 -0.3990 -0.3068
  102MOL0     O13643   4.182   1.147   6.068 -0.4953  0.2852 -0.0375
  102MOL0     C13644   4.178   1.179   5.926  0.4147  0.2667  0.5161
  102MOL0     C13645   4.317   1.195   5.886  0.1156  0.0419 -0.0671
  102MOL0     C13646   4.405   1.297   5.960  0.3836  0.1841 -1.0870
  102MOL0     C13647   4.541   1.310   5.883 -0.1137 -0.0697  0.3040
  102MOL0     C13648   4.637   1.432   5.906  1.3598  0.1403 -0.1020
  102MOL0     C13649   4.696   1.442   6.047 -1.2014 -0.1891 -0.6457
  102MOL0     C13650   4.822   1.358   6.056 -0.0650  0.2164  0.1957
  102MOL0     C13651   4.883   1.363   6.202  0.6130  0.2475 -0.7991
  102MOL0     N13652   5.007   1.448   6.208  0.0253  0.2053  0.1768
  102MOL0     C13653   5.020   1.581   6.171 -0.9818 -0.2162 -0.3674
  102MOL0     C13654   5.124   1.624   6.243  0.3535 -0.2782  0.2999
  102MOL0     C13655   5.185   1.765   6.266  0.2013  0.1265 -0.4801
  102MOL0     C13656   5.085   1.859   6.314 -0.3599 -1.0905 -0.2375
  102MOL0     C13657   5.139   1.998   6.332 -0.4208  0.1319 -0.3852
  102MOL0     C13658   5.028   2.076   6.406 -0.5469  0.1185 -0.4793
  102MOL0     O13659   5.077   2.208   6.422 -0.6403  0.4415  0.5551
  102MOL0     C13660   5.125   2.244   6.547 -0.4484 -0.2117 -1.6703
  102MOL0     C13661   5.188   2.159   6.637 -0.7607  1.0349 -0.8522
  102MOL0     C13662   5.226   2.207   6.773  0.5940 -0.1078  0.2703
  102MOL0     C13663   5.307   2.128   6.861 -0.5990 -0.0058 -0.4922
  102MOL0     C13664   5.197   2.343   6.809  0.5250  0.0261  0.5154
  102MOL0     C13665   5.232   2.411   6.941 -0.7121  0.2563  1.1527
  102MOL0     O13666   5.285   2.527   6.925 -0.7677  0.1362  0.2093
  102MOL0     C13667   5.351   2.582   7.036  0.0209  0.0926  0.3667
  102MOL0     C13668   5.375   2.720   7.029 -1.0390  0.9215 -0.7862
  102MOL0     C13669   5.462   2.773   7.133  0.2497 -0.8919  0.6678
  102MOL0     C13670   5.521   2.692   7.227 -0.6056  0.2113  0.1683
  102MOL0     O13671   5.609   2.753   7.310  0.0857  0.4938 -0.0003
  102MOL0     C13672   5.622   2.688   7.429  1.0921 -0.2784 -0.2594
  102MOL0     C13673   5.680   2.792   7.533 -0.0599 -0.0697  0.4007
  102MOL0     C13674   5.595   2.915   7.533  0.1877  0.6076  0.1803
  102MOL0     C13675   5.484   2.891   7.640  0.3220  0.1816  0.2405
  102MOL0     C13676   5.389   3.019   7.660 -0.6142  0.6959 -0.3829
  102MOL0     C13677   5.470   3.141   7.714 -0.1920  0.4234  0.2753
  102MOL0     C13678   5.379   3.237   7.789  0.6215  0.3386  0.0516
  102MOL0     C13679   5.445   3.368   7.786 -0.1001 -0.3740 -0.0818
  102MOL0    Cl13680   5.343   3.499   7.856  0.0675 -0.0144 -0.3344
  102MOL0     C13681   5.503   2.548   7.223 -0.1322 -1.0266 -0.2048
  102MOL0     C13682   5.427   2.500   7.128 -0.3012  0.0043  0.2943
  102MOL0     O13683   5.207   2.359   7.045  0.6888  0.6381 -0.1562
  102MOL0     C13684   5.135   2.421   6.717 -0.8786 -0.4430  0.0129
  102MOL0     C13685   5.104   2.377   6.591  0.2393  0.8095  0.1344
  102MOL0     N13686   5.171   1.517   6.321  0.1955 -0.3727  0.2917
  102MOL0     N13687   5.104   1.410   6.296  0.8320 -0.7603  0.3873
  102MOL0     C13688   4.050   1.096   6.259 -1.0027 -1.0193  0.5406
  102MOL0     C13689   3.939   1.053   6.328 -0.5002  0.4343 -0.5267
  102MOL0     C13690   3.483   0.900   6.345 -0.3595  0.5641  0.0077
  102MOL0     C13691   3.347   0.932   6.357  0.3720  1.3081 -0.2138
  102MOL0     C13692   3.260   0.841   6.416 -0.2868 -0.6263  0.1007
  102MOL0     C13693   3.299   0.729   6.477 -0.0262  0.5653 -0.2531
  102MOL0     O13694   3.211   0.641   6.547  0.4352  0.2229 -0.5026
  102MOL0     C13695   3.072   0.642   6.518  0.0614  0.3414  0.1657
  102MOL0     C13696   3.009   0.505   6.558 -0.0130 -1.2796  0.4448
  102MOL0     C13697   2.876   0.474   6.484  0.4122 -0.3668 -0.1577
  102MOL0     C13698   2.808   0.346   6.539 -0.6845 -0.6619 -0.5080
  102MOL0     C13699   2.751   0.353   6.673  0.2304 -0.0585 -0.6615
  102MOL0     C13700   2.700   0.363   6.789 -0.4566 -0.1879 -0.0210
  102MOL0     C13701   3.438   0.705   6.476 -0.4902  0.6058 -0.0581
  102MOL0     C13702   3.533   0.784   6.411  0.5147 -1.1136  0.1466
  102MOL0     H13703   3.750   0.988   6.068 -0.3085 -1.4525  0.7339
  102MOL0     H13704   3.933   1.092   5.940  0.2932 -1.3215  0.0890
  102MOL0     H13705   4.135   1.095   5.871  1.7336  0.4605 -0.8612
  102MOL0     H13706   4.122   1.271   5.908 -1.1026 -0.7421 -0.0947
  102MOL0     H13707   4.371   1.100   5.892  1.2189  0.5331 -1.4727
  102MOL0     H13708   4.311   1.207   5.777 -0.0530 -2.6683 -0.4217
  102MOL0     H13709   4.362   1.397   5.971  3.1274  1.9520 -4.3842
  102MOL0     H13710   4.412   1.253   6.060 -3.2197 -0.4323 -0.9633
  102MOL0     H13711   4.595   1.221   5.919 -0.3906 -0.1225  0.5936
  102MOL0     H13712   4.540   1.297   5.775  3.4435 -0.4947  0.2032
  102MOL0     H13713   4.728   1.448   5.847  2.1482  0.7123  1.2438
  102MOL0     H13714   4.573   1.519   5.890  1.1263 -0.4876 -3.4230
  102MOL0     H13715   4.742   1.541   6.055 -0.9702  0.0577 -3.9268
  102MOL0     H13716   4.627   1.413   6.127 -1.8940 -0.5743 -1.3753
  102MOL0     H13717   4.815   1.255   6.019 -0.5571  0.7702 -1.3308
  102MOL0     H13718   4.902   1.399   5.994 -1.7127  1.3265 -1.3171
  102MOL0     H13719   4.909   1.263   6.237 -0.5320  0.2441  0.0818
  102MOL0     H13720   4.811   1.407   6.272 -2.1643 -2.9859 -1.3694
  102MOL0     H13721   4.948   1.636   6.111  0.4756  1.2737 -0.8088
  102MOL0     H13722   5.267   1.750   6.337 -0.6668 -2.4250  0.0998
  102MOL0     H13723   5.217   1.801   6.168  0.5282 -1.8639 -1.1601
  102MOL0     H13724   5.051   1.819   6.410 -0.4117 -0.0132  0.2085
  102MOL0     H13725   4.992   1.868   6.258 -1.3510 -0.8951  1.3797
  102MOL0     H13726   5.171   2.057   6.246  1.4324  1.4553  1.1290
  102MOL0     H13727   5.227   1.981   6.395  0.8755 -2.5764 -2.6954
  102MOL0     H13728   5.016   2.031   6.505 -0.0364 -0.6835 -0.7691
  102MOL0     H13729   4.929   2.076   6.360 -1.4734  0.2035  1.4062
  102MOL0     H13730   5.232   2.064   6.606  3.7010  1.7387  2.3368
  102MOL0     H13731   5.383   2.187   6.914 -1.9248  0.4270  0.9795
  102MOL0     H13732   5.240   2.083   6.934  0.0004  2.8639  1.9910
  102MOL0     H13733   5.376   2.059   6.811  1.7935  1.1332  1.0406
  102MOL0     H13734   5.324   2.777   6.952 -1.5355  3.4513  1.2935
  102MOL0     H13735   5.457   2.880   7.145 -1.9808 -0.7037 -1.1238
  102MOL0     H13736   5.523   2.655   7.461  1.8985 -0.5885  2.0324
  102MOL0     H13737   5.683   2.600   7.408 -0.3880 -1.0583 -1.4891
  102MOL0     H13738   5.685   2.741   7.630  3.3486 -0.3090  0.2264
  102MOL0     H13739   5.781   2.816   7.497  0.3139 -1.0726  0.7550
  102MOL0     H13740   5.548   2.940   7.438 -2.8899 -0.2667  1.3657
  102MOL0     H13741   5.663   2.997   7.560  1.9645 -0.9559  0.6971
  102MOL0     H13742   5.420   2.807   7.612  2.0278 -1.5755  1.3979
  102MOL0     H13743   5.513   2.862   7.742 -2.5194 -1.6482  0.6617
  102MOL0     H13744   5.321   2.991   7.741  0.0370  2.3883  0.8012
  102MOL0     H13745   5.333   3.052   7.571 -0.7319 -0.9732 -0.9748
  102MOL0     H13746   5.558   3.109   7.770 -1.7382 -1.7815  1.6086
  102MOL0     H13747   5.507   3.201   7.630  0.7386 -0.1279  0.2694
  102MOL0     H13748   5.375   3.203   7.893 -1.6488 -3.2688 -1.0515
  102MOL0     H13749   5.277   3.235   7.750  0.9288 -1.7573 -0.7621
  102MOL0     H13750   5.458   3.394   7.680  3.0357  2.5530  0.8018
  102MOL0     H13751   5.542   3.364   7.837  0.9587 -0.4071 -1.9732
  102MOL0     H13752   5.570   2.492   7.288  0.5019 -0.1111 -0.0556
  102MOL0     H13753   5.430   2.392   7.117  0.7083  0.1065 -0.5579
  102MOL0     H13754   5.113   2.526   6.735 -0.8104  0.5137 -4.2566
  102MOL0     H13755   5.058   2.444   6.518  2.2324  0.7227 -1.2755
  102MOL0     H13756   4.132   1.130   6.322  1.8154 -2.0847 -2.2927
  102MOL0     H13757   3.938   1.059   6.436  2.0821 -1.4939 -0.3091
  102MOL0     H13758   3.319   1.029   6.317  2.8634  2.2926  0.2701
  102MOL0     H13759   3.153   0.860   6.406 -0.7642 -3.2861 -0.6017
  102MOL0     H13760   3.016   0.724   6.562 -0.1925  3.5382 -5.2248
  102MOL0     H13761   3.066   0.657   6.410  2.8613  1.5208  0.0801
  102MOL0     H13762   2.988   0.496   6.665 -1.6340 -0.9549  0.1770
  102MOL0     H13763   3.080   0.434   6.515 -0.0689 -0.0513 -1.8149
  102MOL0     H13764   2.913   0.458   6.382  0.6044 -1.5536  0.0754
  102MOL0     H13765   2.805   0.556   6.497 -0.0332 -0.7707 -0.0377
  102MOL0     H13766   2.886   0.269   6.535 -0.6503 -0.5945 -3.0152
  102MOL0     H13767   2.735   0.306   6.468 -0.6913 -3.4725  0.9236
  102MOL0     H13768   2.650   0.379   6.882 -2.4388  0.4706 -1.1265
  102MOL0     H13769   3.470   0.617   6.530  1.3769 -0.2292 -2.3657
  102MOL0     H13770   3.638   0.758   6.422  0.2553 -1.9429  0.7682
  103MOL0     O13771   1.555   2.247   4.433  0.2015  0.0596  0.2179
  103MOL0     C13772   1.550   2.211   4.320 -0.2230 -0.3783  0.8394
  103MOL0     O13773   1.469   2.252   4.226 -0.1757 -0.4201  0.4415
  103MOL0     C13774   1.371   2.351   4.250  0.4843  0.5647 -0.0494
  103MOL0     C13775   1.233   2.320   4.239 -0.0800 -1.0644 -0.4447
  103MOL0     C13776   1.135   2.417   4.279  0.6504  0.8005  0.1112
  103MOL0     C13777   1.172   2.536   4.343  0.0414  0.3389  0.4014
  103MOL0     O13778   1.090   2.634   4.381  0.3924 -0.6228 -0.3880
  103MOL0     C13779   0.950   2.608   4.410 -0.6740 -0.1638 -0.3707
  103MOL0     C13780   0.899   2.703   4.519  0.2910  0.7761  0.2283
  103MOL0     C13781   0.859   2.836   4.472  0.9644  0.3093  0.3016
  103MOL0     C13782   0.791   2.924   4.563  0.2101 -0.3796 -0.3346
  103MOL0     C13783   0.745   3.050   4.497  0.3705  0.0136  0.8880
  103MOL0     C13784   0.780   3.176   4.570 -1.0818 -0.0758  0.7547
  103MOL0     C13785   0.744   3.295   4.488  0.1064  0.5531  0.1379
  103MOL0     C13786   0.601   3.340   4.529  0.2786 -0.1916 -0.2847
  103MOL0     N13787   0.560   3.462   4.474  0.2247 -0.8652 -0.5959
  103MOL0     C13788   0.625   3.579   4.446 -1.1593  0.0934  0.5409
  103MOL0     C13789   0.530   3.648   4.383  0.5295  0.6481 -0.1791
  103MOL0     C13790   0.540   3.789   4.344  0.0255 -1.3884  1.1132
  103MOL0     C13791   0.680   3.834   4.307 -0.3750 -0.9981  0.2551
  103MOL0     C13792   0.650   3.973   4.234 -0.5311  0.4178 -0.0182
  103MOL0     C13793   0.764   4.053   4.164  0.1376 -0.0618 -1.1814
  103MOL0     O13794   0.726   4.187   4.139 -0.7771  0.1849 -0.4389
  103MOL0     C13795   0.731   4.289   4.232 -0.0738 -0.4034  0.3681
  103MOL0     C13796   0.678   4.412   4.198 -0.0208  0.0748  0.7323
  103MOL0     C13797   0.686   4.524   4.281 -0.8787 -0.4397 -0.9067
  103MOL0     C13798   0.653   4.662   4.236 -0.1448  0.3014 -0.1817
  103MOL0     C13799   0.708   4.501   4.420  0.3553 -0.0972 -0.6295
  103MOL0     C13800   0.691   4.608   4.531  1.2748 -0.6707 -0.0532
  103MOL0     O13801   0.722   4.739   4.489  0.4535  0.3965 -0.1499
  103MOL0     C13802   0.688   4.859   4.549  0.1624 -0.8403  0.3038
  103MOL0     C13803   0.637   4.871   4.682 -0.3640  0.4049  0.1866
  103MOL0     C13804   0.591   4.995   4.733 -0.4043 -0.4047  0.7666
  103MOL0     C13805   0.587   5.106   4.645  0.1301 -0.6579 -0.6757
  103MOL0     O13806   0.535   5.230   4.679 -0.2723 -0.4907 -0.6331
  103MOL0     C13807   0.543   5.274   4.819  0.1612 -0.4504 -0.4386
  103MOL0     C13808   0.488   5.426   4.824 -1.0491  0.1337 -0.4177
  103MOL0     C13809   0.458   5.465   4.969 -0.8969 -0.6992 -0.8907
  103MOL0     C13810   0.576   5.537   5.034 -1.3313  0.2743 -0.1605
  103MOL0     C13811   0.523   5.582   5.168 -0.3494 -0.5339 -0.1341
  103MOL0     C13812   0.524   5.470   5.275  0.1877 -0.0816 -0.1952
  103MOL0     C13813   0.654   5.402   5.288  0.8479 -0.0601  0.6047
  103MOL0     C13814   0.783   5.483   5.319 -0.6557 -0.9019  0.3283
  103MOL0    Cl13815   0.783   5.550   5.490 -0.2212  0.1493 -0.1074
  103MOL0     C13816   0.638   5.090   4.513 -0.2229 -0.4943 -0.1555
  103MOL0     C13817   0.692   4.974   4.473 -0.1908  0.0420  0.5725
  103MOL0     O13818   0.662   4.570   4.652 -0.2848 -0.2561  0.3663
  103MOL0     C13819   0.752   4.373   4.458  0.2989  0.5270  0.5867
  103MOL0     C13820   0.769   4.272   4.361  0.1589 -0.0327 -0.3880
  103MOL0     N13821   0.407   3.585   4.402  0.4705  0.3958  1.4899
  103MOL0     N13822   0.432   3.471   4.448 -0.2543  0.4016  0.2813
  103MOL0     C13823   1.312   2.572   4.347  0.4068  0.9826 -0.6909
  103MOL0     C13824   1.404   2.479   4.304 -0.0966 -0.3627  1.1636
  103MOL0     C13825   1.671   2.141   4.268 -0.4025  0.0984 -0.5122
  103MOL0     C13826   1.681   2.090   4.137  0.1620 -0.6480 -0.1111
  103MOL0     C13827   1.794   2.019   4.087  0.0130  0.4465  0.0918
  103MOL0     C13828   1.906   1.993   4.173  0.6049 -0.2833 -0.8111
  103MOL0     O13829   2.025   1.927   4.144  0.0851 -0.2224 -0.4728
  103MOL0     C13830   2.055   1.862   4.021 -0.0691  0.3907 -0.8849
  103MOL0     C13831   2.107   1.952   3.918  0.1001 -0.5359 -0.2087
  103MOL0     C13832   2.147   1.880   3.795 -0.0894  0.3368  0.1492
  103MOL0     C13833   2.033   1.808   3.719 -0.4407  0.1792  0.0490
  103MOL0     C13834   2.061   1.769   3.584 -0.0628 -0.0966  0.4909
  103MOL0     C13835   2.089   1.740   3.470  0.2625 -0.1130  0.3299
  103MOL0     C13836   1.888   2.039   4.301  0.0385  0.5559  0.0158
  103MOL0     C13837   1.781   2.110   4.349  0.4194 -0.8475  0.3981
  103MOL0     H13838   1.213   2.224   4.193  0.3756 -1.6366  0.5124
  103MOL0     H13839   1.031   2.392   4.262 -0.5258  4.0122  1.6762
  103MOL0     H13840   0.890   2.615   4.319  0.6312 -0.1173 -1.2576
  103MOL0     H13841   0.944   2.512   4.462  1.6631 -0.9535 -1.4114
  103MOL0     H13842   0.814   2.649   4.562 -1.3565 -0.0141 -3.6143
  103MOL0     H13843   0.970   2.723   4.600  0.8604 -2.1152  0.5509
  103MOL0     H13844   0.942   2.894   4.432 -0.1633  1.9051  0.1749
  103MOL0     H13845   0.806   2.820   4.377  2.8123 -1.7447 -0.4874
  103MOL0     H13846   0.704   2.863   4.589  2.4529 -3.4341  0.5550
  103MOL0     H13847   0.850   2.940   4.653  0.4822 -0.3970 -0.5111
  103MOL0     H13848   0.774   3.049   4.392  0.8810  0.4500  1.0257
  103MOL0     H13849   0.636   3.060   4.491  0.5449  1.0698 -1.0703
  103MOL0     H13850   0.736   3.168   4.670 -0.7043  0.9866  1.0170
  103MOL0     H13851   0.888   3.162   4.576 -0.9778 -0.3504 -1.1457
  103MOL0     H13852   0.812   3.372   4.526 -1.9019  1.3484  2.3614
  103MOL0     H13853   0.764   3.268   4.384 -2.7189 -2.2097  0.1633
  103MOL0     H13854   0.595   3.356   4.637  2.6437  1.0214 -0.2538
  103MOL0     H13855   0.530   3.261   4.503  1.7152 -0.5216 -3.7768
  103MOL0     H13856   0.730   3.597   4.469 -0.7223 -0.6670 -0.7299
  103MOL0     H13857   0.481   3.789   4.252  1.0137 -6.1817  0.2104
  103MOL0     H13858   0.491   3.858   4.414  0.7980  0.0103  0.3249
  103MOL0     H13859   0.727   3.764   4.237 -2.2420 -1.9783 -0.0907
  103MOL0     H13860   0.750   3.848   4.390  0.4459 -2.6526 -0.1165
  103MOL0     H13861   0.592   4.038   4.301 -2.9924 -0.8295 -0.8168
  103MOL0     H13862   0.579   3.936   4.159  0.9342 -0.8280 -0.8499
  103MOL0     H13863   0.794   4.012   4.067 -0.1293  0.2512 -1.4000
  103MOL0     H13864   0.861   4.055   4.214  1.4285  5.6562 -3.2417
  103MOL0     H13865   0.629   4.418   4.101  3.0739  0.1173 -0.9807
  103MOL0     H13866   0.584   4.701   4.312  0.0610  0.5438 -0.1205
  103MOL0     H13867   0.736   4.732   4.231 -2.7674  3.6257 -1.3010
  103MOL0     H13868   0.590   4.655   4.146 -0.3072  0.6606 -0.0977
  103MOL0     H13869   0.637   4.783   4.746 -2.9327 -0.9927 -1.5522
  103MOL0     H13870   0.547   4.992   4.832  0.2698  0.2948  1.0983
  103MOL0     H13871   0.476   5.217   4.884  0.7389  1.2894  1.8270
  103MOL0     H13872   0.649   5.263   4.845 -0.0630 -0.7229  0.4158
  103MOL0     H13873   0.553   5.499   4.775 -0.5715 -1.1910 -1.8318
  103MOL0     H13874   0.394   5.413   4.771 -1.1442  2.1479 -0.8112
  103MOL0     H13875   0.438   5.373   5.025 -1.9693  1.4329  2.5619
  103MOL0     H13876   0.376   5.537   4.975  2.4932  3.5254 -0.4551
  103MOL0     H13877   0.665   5.473   5.035 -1.0497  0.6557 -0.6234
  103MOL0     H13878   0.607   5.625   4.978  1.7206  0.8421  2.1837
  103MOL0     H13879   0.424   5.627   5.158  1.2911  3.3271 -0.8919
  103MOL0     H13880   0.589   5.659   5.208 -0.5219 -0.7761  0.6347
  103MOL0     H13881   0.500   5.528   5.364  0.7018  1.3049 -0.9188
  103MOL0     H13882   0.454   5.387   5.265  0.0669 -0.5300  3.2735
  103MOL0     H13883   0.682   5.348   5.197  2.1704 -3.3067  2.7424
  103MOL0     H13884   0.640   5.328   5.368  1.1105  0.5410  1.2217
  103MOL0     H13885   0.800   5.570   5.255  3.1479 -3.0946 -2.0306
  103MOL0     H13886   0.878   5.430   5.306  1.5356  2.4001  1.5351
  103MOL0     H13887   0.627   5.173   4.445  1.8270 -0.9946 -1.1702
  103MOL0     H13888   0.737   4.960   4.375  0.5482 -3.2495  1.2360
  103MOL0     H13889   0.761   4.356   4.565  0.1198 -1.8890  0.2764
  103MOL0     H13890   0.823   4.185   4.396 -0.5059  0.2443  1.4164
  103MOL0     H13891   1.354   2.664   4.385  0.7618  0.6723 -0.3240
  103MOL0     H13892   1.508   2.508   4.298  0.0128 -0.9422 -0.4087
  103MOL0     H13893   1.603   2.105   4.062  1.4279 -1.5264 -1.6732
  103MOL0     H13894   1.811   1.998   3.981  1.1516 -0.8688  0.5092
  103MOL0     H13895   2.119   1.776   4.043  1.7249  0.9032 -3.6839
  103MOL0     H13896   1.963   1.819   3.981 -0.4684  1.4924 -1.1707
  103MOL0     H13897   2.190   2.009   3.963 -0.2298 -0.0081 -0.2623
  103MOL0     H13898   2.045   2.042   3.910  0.1300 -0.5543 -0.6892
  103MOL0     H13899   2.230   1.815   3.823  1.8858  2.3918 -0.6017
  103MOL0     H13900   2.193   1.946   3.721  0.0804  0.1396  0.0791
  103MOL0     H13901   1.937   1.859   3.732  0.5088  1.8669  0.7275
  103MOL0     H13902   2.014   1.711   3.766 -0.5003  0.6024  0.9236
  103MOL0     H13903   2.107   1.743   3.365  1.2446  3.0049  0.4753
  103MOL0     H13904   1.982   2.023   4.353 -0.4152  0.6307  0.8718
  103MOL0     H13905   1.788   2.141   4.453  0.7428 -1.2400  0.4946
  104MOL0     O13906   4.897   2.924   6.454 -0.1845  0.1908 -0.4901
  104MOL0     C13907   4.893   2.819   6.513 -0.8042  0.1450 -0.0892
  104MOL0     O13908   5.002   2.736   6.534 -0.3516 -0.3289 -0.0548
  104MOL0     C13909   5.123   2.744   6.462  0.6507 -0.1990  0.8076
  104MOL0     C13910   5.130   2.759   6.324  0.3136  0.8226  1.0229
  104MOL0     C13911   5.245   2.749   6.247 -0.8107 -0.1995  0.2104
  104MOL0     C13912   5.360   2.716   6.315 -0.0048  0.2700 -0.7173
  104MOL0     O13913   5.478   2.705   6.242  0.1795  0.4897 -0.7384
  104MOL0     C13914   5.531   2.820   6.179  1.0740  0.6117 -0.5179
  104MOL0     C13915   5.688   2.810   6.166  0.3010 -0.5543  0.1713
  104MOL0     C13916   5.737   2.939   6.107  0.0239  0.0376 -0.0878
  104MOL0     C13917   5.879   2.930   6.038  0.1342  0.0635  0.2103
  104MOL0     C13918   5.938   3.060   5.994 -0.2834  0.3748  0.8188
  104MOL0     C13919   6.073   3.031   5.922 -0.4585 -0.4836  0.1730
  104MOL0     C13920   6.146   3.158   5.874 -0.2129  0.6344 -1.4340
  104MOL0     C13921   6.100   3.208   5.734 -0.5520 -0.2403 -0.5149
  104MOL0     N13922   6.103   3.360   5.722  0.4222 -0.5378  0.0864
  104MOL0     C13923   6.211   3.425   5.670  0.8384 -0.4820  0.1401
  104MOL0     C13924   6.196   3.555   5.701  0.0799 -1.4798  1.7349
  104MOL0     C13925   6.278   3.670   5.648  0.9860  0.4724  0.2818
  104MOL0     C13926   6.400   3.698   5.735 -0.8356 -0.1317 -0.6351
  104MOL0     C13927   6.504   3.588   5.736 -0.3045 -0.1601  0.9323
  104MOL0     C13928   6.585   3.562   5.611 -0.2226  0.2207  0.7897
  104MOL0     O13929   6.683   3.668   5.588  0.2931 -1.3552 -0.6544
  104MOL0     C13930   6.694   3.727   5.470  1.3049 -0.4213  0.7455
  104MOL0     C13931   6.755   3.668   5.353  0.4785  0.4375 -0.5080
  104MOL0     C13932   6.769   3.742   5.231  1.0407 -0.2842  0.5819
  104MOL0     C13933   6.845   3.662   5.119  0.3095 -0.4726  0.0352
  104MOL0     C13934   6.730   3.878   5.222  0.0293  0.5241 -1.0242
  104MOL0     C13935   6.739   3.962   5.108  0.3777  0.3099  0.5678
  104MOL0     O13936   6.724   4.098   5.121  0.1494  0.0713 -0.4848
  104MOL0     C13937   6.788   4.175   5.034  0.6909 -0.1883  0.2054
  104MOL0     C13938   6.719   4.231   4.924  0.7741 -1.4314 -0.7748
  104MOL0     C13939   6.797   4.286   4.815  0.7158 -0.0941 -0.3289
  104MOL0     C13940   6.933   4.316   4.830 -0.0860 -0.4711 -1.0032
  104MOL0     O13941   6.991   4.382   4.727  0.0581  0.3776 -0.0452
  104MOL0     C13942   7.125   4.440   4.752  0.1811  0.1331 -0.1500
  104MOL0     C13943   7.169   4.513   4.626 -0.3070  0.1202  0.0226
  104MOL0     C13944   7.075   4.632   4.615 -0.1978 -0.0262  0.8306
  104MOL0     C13945   7.090   4.713   4.491  0.7378  0.3096 -0.7585
  104MOL0     C13946   7.220   4.806   4.499  0.2368  0.1550 -0.7167
  104MOL0     C13947   7.218   4.930   4.408 -0.2736  0.2440 -0.6961
  104MOL0     C13948   7.202   4.898   4.256 -0.3766  0.3269  1.2277
  104MOL0     C13949   7.144   5.023   4.198 -0.1439 -0.1899  1.4650
  104MOL0    Cl13950   7.255   5.171   4.202 -0.5318 -0.4805 -0.1193
  104MOL0     C13951   7.002   4.282   4.949  0.5481 -0.5489  0.7244
  104MOL0     C13952   6.927   4.208   5.046 -0.0302 -0.8402  0.3824
  104MOL0     O13953   6.763   3.903   5.002 -0.0716  0.0945  0.5161
  104MOL0     C13954   6.674   3.935   5.349  0.0644  0.2330  0.4953
  104MOL0     C13955   6.650   3.858   5.459  0.4469 -0.7169  0.1766
  104MOL0     N13956   6.071   3.559   5.765  0.3624  0.5618  0.2938
  104MOL0     N13957   6.016   3.446   5.783  0.5475  0.2634 -0.3786
  104MOL0     C13958   5.360   2.723   6.457  1.5623  0.4685 -0.5140
  104MOL0     C13959   5.242   2.739   6.534 -0.1646  0.3706  0.7675
  104MOL0     C13960   4.769   2.774   6.580 -0.7587  0.1963 -0.2718
  104MOL0     C13961   4.684   2.878   6.622 -0.5634 -0.1024  0.4005
  104MOL0     C13962   4.575   2.854   6.704 -0.0168  1.0102 -0.1837
  104MOL0     C13963   4.548   2.716   6.745  0.3411  0.1491  1.2567
  104MOL0     O13964   4.439   2.660   6.803  0.3213 -0.1965  0.2255
  104MOL0     C13965   4.329   2.740   6.845  0.0099  0.1401  0.7216
  104MOL0     C13966   4.219   2.670   6.925 -0.9242 -0.2237  0.6481
  104MOL0     C13967   4.095   2.611   6.841  0.0337 -0.1381 -0.7367
  104MOL0     C13968   4.127   2.473   6.800  0.6695  0.2166 -0.5592
  104MOL0     C13969   4.012   2.385   6.797  0.8685 -0.0141 -0.6892
  104MOL0     C13970   3.915   2.309   6.785 -0.1689 -0.0447  0.4495
  104MOL0     C13971   4.643   2.620   6.719  0.1533 -0.8707  0.3715
  104MOL0     C13972   4.754   2.648   6.633  1.0199 -0.3703  0.1074
  104MOL0     H13973   5.034   2.775   6.276 -1.6478 -0.7380  4.0451
  104MOL0     H13974   5.238   2.744   6.138  0.7136  0.4486  0.0584
  104MOL0     H13975   5.486   2.825   6.079 -0.1036  0.3247 -0.0246
  104MOL0     H13976   5.500   2.911   6.231 -1.9675 -1.4678  1.7015
  104MOL0     H13977   5.726   2.807   6.269  2.0532 -1.6327 -0.4554
  104MOL0     H13978   5.720   2.724   6.107 -1.2497 -0.0468 -1.4832
  104MOL0     H13979   5.669   2.962   6.024  0.1617 -5.8212 -2.2741
  104MOL0     H13980   5.734   3.019   6.181 -4.1993 -0.7499  0.8769
  104MOL0     H13981   5.954   2.876   6.098  2.0482  2.9600  0.6279
  104MOL0     H13982   5.871   2.876   5.943  1.4276 -0.2428  0.2570
  104MOL0     H13983   5.874   3.112   5.922  0.8416 -3.1077 -3.1135
  104MOL0     H13984   5.966   3.123   6.078  2.2281 -0.8974  1.0295
  104MOL0     H13985   6.144   2.975   5.983  0.6876 -0.0025 -0.6592
  104MOL0     H13986   6.050   2.967   5.836 -3.4051  1.6337 -0.7690
  104MOL0     H13987   6.132   3.240   5.944  0.8854  0.0659 -0.5171
  104MOL0     H13988   6.255   3.144   5.873 -0.3417 -1.6783  1.8384
  104MOL0     H13989   5.996   3.180   5.720  0.4475 -4.8136 -0.4193
  104MOL0     H13990   6.166   3.156   5.663  2.4851  1.2862  1.0169
  104MOL0     H13991   6.297   3.374   5.630  1.0901  0.9958 -1.3227
  104MOL0     H13992   6.303   3.639   5.547 -2.0949  1.6316 -0.9565
  104MOL0     H13993   6.221   3.762   5.632 -1.9926 -1.4792 -1.1768
  104MOL0     H13994   6.365   3.722   5.836 -1.9197  1.4621 -1.3360
  104MOL0     H13995   6.441   3.791   5.696 -1.4167  1.0506  1.3937
  104MOL0     H13996   6.450   3.496   5.757 -0.2692 -0.4136 -0.0464
  104MOL0     H13997   6.583   3.605   5.810  0.7086 -2.3146  0.4017
  104MOL0     H13998   6.529   3.552   5.518  1.3061  1.2747 -0.2872
  104MOL0     H13999   6.633   3.465   5.620  0.8444  0.3686 -2.2334
  104MOL0     H14000   6.812   3.577   5.368  3.2325  1.7905 -1.8482
  104MOL0     H14001   6.772   3.635   5.043 -0.7536  0.7785  0.5624
  104MOL0     H14002   6.916   3.729   5.068  1.6944 -2.8978 -1.3981
  104MOL0     H14003   6.897   3.575   5.161 -0.4970 -0.4653  1.0781
  104MOL0     H14004   6.617   4.204   4.898 -1.4963  1.9413  3.2872
  104MOL0     H14005   6.751   4.325   4.725  2.6155  3.5249  0.0565
  104MOL0     H14006   7.130   4.512   4.835  0.1977 -1.5013  1.3428
  104MOL0     H14007   7.184   4.352   4.781  1.1950  1.0460  0.6620
  104MOL0     H14008   7.268   4.553   4.648 -1.1037  2.6709 -0.7054
  104MOL0     H14009   7.171   4.444   4.541  2.7410 -0.8898  0.7946
  104MOL0     H14010   7.101   4.701   4.695 -0.1127  1.5777 -0.5234
  104MOL0     H14011   6.971   4.596   4.612  0.5669 -2.3173 -1.2441
  104MOL0     H14012   7.090   4.658   4.397  0.0430  0.7052 -0.9944
  104MOL0     H14013   6.997   4.771   4.491 -2.6620 -4.4591 -3.2425
  104MOL0     H14014   7.307   4.742   4.479  0.5694  1.2556 -3.1046
  104MOL0     H14015   7.233   4.839   4.603 -0.2300 -1.8374  0.0282
  104MOL0     H14016   7.140   4.998   4.442 -0.2752 -0.4459  0.7612
  104MOL0     H14017   7.317   4.975   4.424 -1.0546  1.4628  1.1240
  104MOL0     H14018   7.129   4.820   4.235 -0.9894  1.0099  0.8033
  104MOL0     H14019   7.301   4.871   4.217 -0.7885 -3.1009  2.2480
  104MOL0     H14020   7.048   5.036   4.248 -0.8520  1.4286 -0.2082
  104MOL0     H14021   7.124   5.010   4.091 -0.8715 -1.8764  1.7735
  104MOL0     H14022   7.106   4.306   4.968 -0.2391  1.8020  2.5395
  104MOL0     H14023   6.972   4.167   5.136  0.5946 -1.1570 -0.0691
  104MOL0     H14024   6.639   4.037   5.341  0.3633  0.2588 -0.6344
  104MOL0     H14025   6.597   3.895   5.547  2.1324  1.7265  0.2520
  104MOL0     H14026   5.457   2.702   6.501  1.1162 -1.6690 -0.4453
  104MOL0     H14027   5.247   2.754   6.641  1.2838  1.4886  0.5754
  104MOL0     H14028   4.724   2.974   6.588 -2.5080  0.3570 -0.7183
  104MOL0     H14029   4.512   2.933   6.743 -0.4772  0.0948  1.0253
  104MOL0     H14030   4.365   2.830   6.896  0.6918 -0.3059  1.0425
  104MOL0     H14031   4.274   2.778   6.759 -1.9891  0.4672  2.0614
  104MOL0     H14032   4.177   2.748   6.990 -0.0341  0.9022 -0.0962
  104MOL0     H14033   4.267   2.602   6.996  2.6759  1.4159 -0.0258
  104MOL0     H14034   4.073   2.676   6.756  2.1848  0.6567 -0.7366
  104MOL0     H14035   4.005   2.611   6.903 -0.5625 -1.7501 -1.5535
  104MOL0     H14036   4.208   2.427   6.857  0.2947  0.5096  0.2173
  104MOL0     H14037   4.162   2.483   6.697  0.7950  0.5187 -0.4869
  104MOL0     H14038   3.825   2.252   6.787  0.2815 -0.8061 -0.2457
  104MOL0     H14039   4.615   2.517   6.737 -4.8562  0.0851 -0.6450
  104MOL0     H14040   4.816   2.563   6.605  2.6856  1.2002 -1.2369
  105MOL0     O14041   3.139   3.720   5.613 -0.0635 -0.3916  0.9634
  105MOL0     C14042   3.100   3.618   5.676 -0.8435 -1.0911 -0.1641
  105MOL0     O14043   3.086   3.610   5.811  0.3934 -0.1153  0.4407
  105MOL0     C14044   3.126   3.728   5.877  0.5577  0.1671 -0.0843
  105MOL0     C14045   3.030   3.831   5.880 -0.0266 -0.5638 -0.5054
  105MOL0     C14046   3.047   3.945   5.968 -0.6669  0.6370  0.0091
  105MOL0     C14047   3.170   3.955   6.036 -1.2799 -0.5704  0.5027
  105MOL0     O14048   3.203   4.064   6.118  0.1158  0.2574  0.6169
  105MOL0     C14049   3.103   4.138   6.190 -0.0779  0.9565 -0.7315
  105MOL0     C14050   3.038   4.250   6.103 -0.1460  0.5224 -0.7873
  105MOL0     C14051   2.907   4.289   6.168  0.6153  0.5464  0.3624
  105MOL0     C14052   2.916   4.332   6.317  0.1523  0.5249 -0.1372
  105MOL0     C14053   2.786   4.387   6.378  1.0521  0.1434 -0.0133
  105MOL0     C14054   2.779   4.406   6.530 -0.3367  0.4120  0.4180
  105MOL0     C14055   2.649   4.487   6.553  0.3195 -0.1194 -0.0576
  105MOL0     C14056   2.518   4.437   6.500  0.4392 -0.0688  0.2812
  105MOL0     N14057   2.480   4.310   6.573  0.2383 -0.0974  0.2518
  105MOL0     C14058   2.390   4.313   6.677  0.3202 -0.0964 -0.4119
  105MOL0     C14059   2.399   4.188   6.734  0.4768 -0.1730  0.7101
  105MOL0     C14060   2.302   4.124   6.836 -0.7002 -0.6473  0.3853
  105MOL0     C14061   2.161   4.125   6.782  0.4473  0.6598  2.0075
  105MOL0     C14062   2.125   4.010   6.682 -0.1896 -0.0617 -0.7304
  105MOL0     C14063   2.117   3.876   6.760  0.7156 -0.8031  0.1295
  105MOL0     O14064   2.111   3.756   6.683 -0.0672  0.4349  0.1616
  105MOL0     C14065   1.998   3.727   6.601  0.2599 -0.8708  0.1640
  105MOL0     C14066   2.000   3.611   6.519  0.5539 -0.0806 -0.0208
  105MOL0     C14067   1.913   3.591   6.413  0.3810  0.5095  0.6003
  105MOL0     C14068   1.946   3.466   6.332 -0.1594 -0.1723  1.0793
  105MOL0     C14069   1.794   3.667   6.406  0.2283 -0.2166 -0.4657
  105MOL0     C14070   1.684   3.637   6.315  0.3663  1.2780  0.2250
  105MOL0     O14071   1.568   3.694   6.349 -0.0369 -0.8221 -0.1530
  105MOL0     C14072   1.452   3.635   6.307 -0.1818  0.0990 -0.3586
  105MOL0     C14073   1.434   3.496   6.338 -1.1065  1.2620 -1.6224
  105MOL0     C14074   1.322   3.429   6.301 -0.3841 -0.2936  0.3201
  105MOL0     C14075   1.222   3.486   6.219 -0.1119  1.2565 -0.5385
  105MOL0     O14076   1.119   3.408   6.172  0.5104 -0.2943 -0.1311
  105MOL0     C14077   1.008   3.471   6.113 -0.0061  0.6743 -0.0945
  105MOL0     C14078   0.904   3.360   6.080 -0.1286 -0.6859 -0.1278
  105MOL0     C14079   0.800   3.345   6.190 -0.3639 -0.8952  0.4511
  105MOL0     C14080   0.679   3.281   6.120  0.5456  0.8893 -0.3782
  105MOL0     C14081   0.565   3.284   6.220  0.5264  1.0409 -0.3207
  105MOL0     C14082   0.432   3.237   6.147  0.0142  0.1553 -0.1893
  105MOL0     C14083   0.307   3.229   6.227  0.4492  0.0838 -0.1382
  105MOL0     C14084   0.180   3.244   6.146 -0.6309 -0.6814  0.6478
  105MOL0    Cl14085   0.173   3.094   6.045 -0.1364  0.8044 -0.3794
  105MOL0     C14086   1.246   3.618   6.184 -0.1632 -0.2449  0.2747
  105MOL0     C14087   1.353   3.696   6.229  0.9934 -0.4265 -0.2597
  105MOL0     O14088   1.704   3.565   6.213 -0.2579  1.1770  0.6062
  105MOL0     C14089   1.785   3.777   6.496  0.3074 -1.0635 -0.5189
  105MOL0     C14090   1.886   3.805   6.580 -0.8184 -0.1001  0.2606
  105MOL0     N14091   2.504   4.121   6.674 -0.3118 -0.4170 -0.4034
  105MOL0     N14092   2.550   4.190   6.577  0.8866  0.0111  0.0972
  105MOL0     C14093   3.273   3.860   6.017 -0.5593  0.0822 -0.5211
  105MOL0     C14094   3.249   3.740   5.938 -0.2224 -0.1900 -1.2291
  105MOL0     C14095   3.055   3.499   5.592 -0.3898  0.1056 -0.0347
  105MOL0     C14096   3.100   3.481   5.453  0.4701 -0.1680  0.1817
  105MOL0     C14097   3.069   3.360   5.382  0.5972  0.4152 -0.1627
  105MOL0     C14098   2.994   3.259   5.445 -0.3532 -1.1631  1.7804
  105MOL0     O14099   2.982   3.141   5.382 -0.1202  0.5340  0.5766
  105MOL0     C14100   3.070   3.034   5.425 -0.5636 -0.4889  0.2431
  105MOL0     C14101   2.989   2.939   5.515 -0.5808  0.2828 -0.2069
  105MOL0     C14102   3.073   2.815   5.553 -0.7088 -0.1739  0.0166
  105MOL0     C14103   3.207   2.854   5.596 -0.2102  0.4602  0.7153
  105MOL0     C14104   3.277   2.741   5.649 -0.5129 -0.1766  0.0368
  105MOL0     C14105   3.332   2.647   5.693  0.0058 -0.7699 -0.8160
  105MOL0     C14106   2.941   3.289   5.576 -0.1991 -0.9692  0.5389
  105MOL0     C14107   2.980   3.399   5.655 -0.3076 -0.5054  0.1235
  105MOL0     H14108   2.933   3.817   5.834 -0.8634 -0.4538  1.1421
  105MOL0     H14109   2.958   4.005   5.979 -1.5544 -0.9301  2.2361
  105MOL0     H14110   3.042   4.054   6.225 -0.9493  1.2551 -1.4954
  105MOL0     H14111   3.140   4.196   6.276  4.1364 -0.4642 -1.3431
  105MOL0     H14112   3.106   4.336   6.097  0.1444  0.2231 -2.2899
  105MOL0     H14113   3.008   4.209   6.006 -0.1566 -3.0025  0.5664
  105MOL0     H14114   2.848   4.363   6.114 -3.9447 -1.1777  2.4257
  105MOL0     H14115   2.838   4.204   6.169 -3.4710  3.5667  0.8176
  105MOL0     H14116   2.938   4.248   6.383  1.8438 -0.2697 -1.6378
  105MOL0     H14117   2.991   4.406   6.344 -1.0301  1.3120  1.1254
  105MOL0     H14118   2.776   4.484   6.329  2.4752 -0.5103 -1.6865
  105MOL0     H14119   2.709   4.313   6.355  2.2232 -1.8157  2.0021
  105MOL0     H14120   2.783   4.309   6.581 -0.1176  0.4457  0.4651
  105MOL0     H14121   2.868   4.458   6.568 -0.8569 -0.8501  3.7551
  105MOL0     H14122   2.638   4.504   6.661 -0.7204  1.2264 -0.3616
  105MOL0     H14123   2.663   4.587   6.512 -3.2705  0.2517 -0.6197
  105MOL0     H14124   2.531   4.419   6.393  1.3333 -3.3924  0.8552
  105MOL0     H14125   2.443   4.515   6.518 -0.1878 -0.6357  0.1591
  105MOL0     H14126   2.332   4.402   6.697  1.3065  0.3675  0.4711
  105MOL0     H14127   2.330   4.023   6.868 -1.5444 -0.7633  0.7787
  105MOL0     H14128   2.294   4.189   6.923 -1.1181  1.9079 -1.4282
  105MOL0     H14129   2.152   4.218   6.725  4.4701 -0.2781 -0.5561
  105MOL0     H14130   2.080   4.125   6.856 -2.6939 -2.1417 -1.0369
  105MOL0     H14131   2.208   4.003   6.611  0.2795 -0.2792 -0.1726
  105MOL0     H14132   2.032   4.035   6.630 -0.7199  1.3038  0.7615
  105MOL0     H14133   2.032   3.880   6.829 -0.5972 -2.8674 -1.2674
  105MOL0     H14134   2.201   3.867   6.830 -0.3250 -0.3926  1.4823
  105MOL0     H14135   2.080   3.543   6.548  0.2581  0.7068  3.0729
  105MOL0     H14136   1.975   3.502   6.233 -1.2278  1.6830  1.3868
  105MOL0     H14137   2.032   3.407   6.366  1.2445  1.8905  1.3633
  105MOL0     H14138   1.864   3.396   6.316 -0.6576  0.7559 -0.7310
  105MOL0     H14139   1.508   3.441   6.395 -2.3639  0.0020 -1.1187
  105MOL0     H14140   1.318   3.327   6.339 -1.8917  0.1885  1.5374
  105MOL0     H14141   0.966   3.548   6.178  0.8390  0.9379  0.1451
  105MOL0     H14142   1.033   3.529   6.023 -1.0705  1.1545 -0.0983
  105MOL0     H14143   0.856   3.390   5.986 -1.0184 -2.9981 -0.4729
  105MOL0     H14144   0.952   3.264   6.057 -2.9238 -2.1677 -0.0931
  105MOL0     H14145   0.770   3.444   6.228  1.1193 -0.2095 -0.1013
  105MOL0     H14146   0.843   3.283   6.269  1.4703 -1.4277 -0.9246
  105MOL0     H14147   0.651   3.340   6.032  0.8877 -0.6262 -1.5454
  105MOL0     H14148   0.694   3.179   6.084 -0.4848  0.5536  0.1156
  105MOL0     H14149   0.555   3.384   6.265  3.2532  1.1986  0.0724
  105MOL0     H14150   0.585   3.215   6.302 -1.4677  1.2145  0.3777
  105MOL0     H14151   0.411   3.301   6.061 -1.7947 -0.7584 -0.4897
  105MOL0     H14152   0.442   3.138   6.100  1.7667  0.1200  0.1979
  105MOL0     H14153   0.298   3.291   6.316  1.1468  0.3300 -0.2307
  105MOL0     H14154   0.301   3.133   6.280  0.7761  0.0068 -0.2355
  105MOL0     H14155   0.190   3.332   6.082 -0.8586  1.1908  3.0339
  105MOL0     H14156   0.089   3.256   6.206 -2.0871  2.9304 -1.8731
  105MOL0     H14157   1.169   3.673   6.132 -0.9964  0.1132  1.8363
  105MOL0     H14158   1.357   3.804   6.221  1.7442  0.1639  4.7284
  105MOL0     H14159   1.711   3.856   6.490  0.8205 -0.5022  0.3249
  105MOL0     H14160   1.880   3.898   6.635 -1.2952  0.3717 -0.5780
  105MOL0     H14161   3.363   3.871   6.075 -0.4810 -1.8601 -0.1909
  105MOL0     H14162   3.320   3.658   5.931  0.9895  0.8608 -1.4691
  105MOL0     H14163   3.169   3.556   5.416  0.1482 -0.1519 -0.3984
  105MOL0     H14164   3.108   3.335   5.284 -0.7813 -1.4972 -0.2879
  105MOL0     H14165   3.106   2.970   5.344  2.0948  1.2256 -0.0356
  105MOL0     H14166   3.149   3.079   5.485 -0.2295 -0.8231  0.0596
  105MOL0     H14167   2.896   2.908   5.466 -1.2340  1.6829  0.0817
  105MOL0     H14168   2.963   2.995   5.606  4.4600  0.1173  1.6197
  105MOL0     H14169   3.080   2.757   5.460 -0.5503  1.0821 -0.7734
  105MOL0     H14170   3.036   2.750   5.634  1.4781 -1.8720 -0.2587
  105MOL0     H14171   3.211   2.926   5.679  0.9730 -2.0077  2.9561
  105MOL0     H14172   3.264   2.888   5.509 -0.8253  0.4871  0.3160
  105MOL0     H14173   3.368   2.556   5.738 -1.8493 -1.4189 -0.5740
  105MOL0     H14174   2.886   3.209   5.624 -0.6595  0.8530  3.3006
  105MOL0     H14175   2.956   3.406   5.760  3.3473  3.9854  0.9692
  106MOL0     O14176   9.364  11.519   3.569 -0.6983  0.1202  0.9070
  106MOL0     C14177   9.454  11.596   3.539  0.3243 -0.9925 -0.3030
  106MOL0     O14178   9.535  11.654   3.631  0.0573  0.2734  0.1238
  106MOL0     C14179   9.545  11.608   3.762  1.1050 -0.0708  0.4581
  106MOL0     C14180   9.547  11.720   3.850  0.5545 -0.9686 -0.7158
  106MOL0     C14181   9.582  11.696   3.989  0.0225 -0.7999 -0.5162
  106MOL0     C14182   9.619  11.575   4.031 -0.6784  0.1722  0.1049
  106MOL0     O14183   9.652  11.563   4.167 -0.4835 -1.2515  0.8358
  106MOL0     C14184   9.666  11.429   4.221  0.9515 -0.9854 -0.0341
  106MOL0     C14185   9.683  11.430   4.367 -0.2601  0.1311  0.7552
  106MOL0     C14186   9.814  11.499   4.409  0.2137  0.5146 -0.1699
  106MOL0     C14187   9.861  11.452   4.547 -0.0482  0.6641 -0.4961
  106MOL0     C14188   9.917  11.570   4.631  0.9253 -0.2490  0.0039
  106MOL0     C14189   9.938  11.536   4.786  0.7278  0.4679 -0.1917
  106MOL0     C14190  10.003  11.645   4.859  0.0471 -0.3138 -0.3746
  106MOL0     C14191  10.139  11.672   4.813 -0.2583  0.0787 -0.3985
  106MOL0     N14192  10.228  11.563   4.777 -1.0296 -0.2593  0.4053
  106MOL0     C14193  10.344  11.523   4.845  0.5582 -0.2771 -0.4813
  106MOL0     C14194  10.415  11.441   4.768 -0.5626  0.0590  0.0898
  106MOL0     C14195  10.556  11.382   4.803 -0.2182 -0.3236 -0.9896
  106MOL0     C14196  10.554  11.283   4.920  0.4477 -0.0838  0.8512
  106MOL0     C14197  10.689  11.208   4.937  0.7272 -0.4100 -0.6502
  106MOL0     C14198  10.702  11.175   5.083  1.2215  0.6187  0.0421
  106MOL0     O14199  10.823  11.102   5.085 -0.1492 -0.0088  0.7968
  106MOL0     C14200  10.879  11.046   5.189 -0.3183  0.4661 -1.1093
  106MOL0     C14201  11.019  11.050   5.203 -0.1205  0.3692  0.1028
  106MOL0     C14202  11.091  11.009   5.317  0.4703  0.4647  0.6780
  106MOL0     C14203  11.245  11.030   5.320  0.2569 -0.1411 -0.0617
  106MOL0     C14204  11.015  10.950   5.422 -0.0600  0.1874 -0.2367
  106MOL0     C14205  11.079  10.907   5.557  0.2714  0.0707 -0.3623
  106MOL0     O14206  11.203  10.962   5.594  0.6232 -0.3228 -0.3765
  106MOL0     C14207  11.271  10.904   5.699  0.1118 -0.4894  0.8981
  106MOL0     C14208  11.411  10.899   5.678 -0.2486  0.0211 -0.8638
  106MOL0     C14209  11.493  10.853   5.776 -0.3495  0.3175  0.2141
  106MOL0     C14210  11.434  10.800   5.895 -0.0130 -1.1078  0.6427
  106MOL0     O14211  11.517  10.753   5.998 -0.2426 -0.2336  0.3049
  106MOL0     C14212  11.602  10.640   5.967  0.7102 -0.0778  0.2788
  106MOL0     C14213  11.690  10.617   6.093 -0.5983 -0.1989 -0.1562
  106MOL0     C14214  11.778  10.502   6.083 -0.1787 -0.5235 -0.0240
  106MOL0     C14215  11.857  10.501   5.953  0.1954  0.1530 -0.4828
  106MOL0     C14216  11.948  10.384   5.935 -0.2322 -0.9667  1.1087
  106MOL0     C14217  11.877  10.260   5.875  0.5651  0.1862  0.0911
  106MOL0     C14218  11.959  10.138   5.925 -0.2162  0.4461  0.6004
  106MOL0     C14219  11.929  10.010   5.846 -0.5171  0.3100 -0.3268
  106MOL0    Cl14220  11.781   9.933   5.890 -0.1324 -0.4909  0.1345
  106MOL0     C14221  11.301  10.833   5.922  0.5540  0.5920 -0.2673
  106MOL0     C14222  11.220  10.882   5.823 -0.3333  0.0265  0.6432
  106MOL0     O14223  11.012  10.819   5.618  0.1689  0.0430 -0.3042
  106MOL0     C14224  10.883  10.934   5.411 -0.0786 -0.2331  0.8251
  106MOL0     C14225  10.809  10.995   5.300  0.4128 -0.0259 -0.1475
  106MOL0     N14226  10.349  11.430   4.654 -0.3876  0.2644 -0.1064
  106MOL0     N14227  10.238  11.494   4.659  0.3083 -0.9557  0.9014
  106MOL0     C14228   9.607  11.467   3.942  0.5168  0.4754  0.3434
  106MOL0     C14229   9.569  11.478   3.807  0.3123 -0.1970  0.8037
  106MOL0     C14230   9.466  11.631   3.393  0.7292  0.7226 -0.0190
  106MOL0     C14231   9.531  11.745   3.364  0.0680 -0.5424  0.0808
  106MOL0     C14232   9.536  11.786   3.227  0.3469  0.4200 -0.2859
  106MOL0     C14233   9.468  11.727   3.120 -0.1580 -0.3557 -0.4994
  106MOL0     O14234   9.456  11.760   2.987 -0.5589 -0.1063 -0.5430
  106MOL0     C14235   9.498  11.893   2.956  0.5729  0.4095 -0.0621
  106MOL0     C14236   9.463  11.925   2.807 -0.1211  0.0713 -0.9154
  106MOL0     C14237   9.511  11.833   2.695 -0.2536 -0.5060 -0.2526
  106MOL0     C14238   9.659  11.848   2.663 -0.4695  0.2717 -0.1904
  106MOL0     C14239   9.746  11.746   2.732 -0.4184 -0.4355 -0.2139
  106MOL0     C14240   9.826  11.665   2.772  0.7029  0.6412 -0.0288
  106MOL0     C14241   9.405  11.606   3.151 -0.0986 -0.3215  0.4266
  106MOL0     C14242   9.408  11.551   3.288  1.3098  0.1408 -0.2010
  106MOL0     H14243   9.514  11.811   3.801  1.8213 -1.4707 -2.6112
  106MOL0     H14244   9.586  11.776   4.063 -0.7579 -2.4267  1.3840
  106MOL0     H14245   9.568  11.382   4.211  0.1759 -0.9345  4.8246
  106MOL0     H14246   9.751  11.377   4.176  0.6246  0.8525 -3.0850
  106MOL0     H14247   9.599  11.473   4.422 -2.1762  0.0227 -1.9015
  106MOL0     H14248   9.689  11.327   4.403 -5.7600 -0.5008  0.6687
  106MOL0     H14249   9.894  11.473   4.339 -0.0627 -2.4077  0.4685
  106MOL0     H14250   9.772  11.600   4.416  2.6640  1.6181 -0.3344
  106MOL0     H14251   9.771  11.419   4.600  0.0273 -0.5447 -1.0880
  106MOL0     H14252   9.935  11.374   4.529 -1.0201  0.1342 -2.4655
  106MOL0     H14253  10.008  11.602   4.579  0.6555  1.8982  0.7284
  106MOL0     H14254   9.838  11.646   4.633  1.1635  0.0009  1.9109
  106MOL0     H14255   9.839  11.517   4.828  1.9309 -1.4792  1.9847
  106MOL0     H14256  10.007  11.451   4.797  1.7424  1.4419  1.4140
  106MOL0     H14257   9.944  11.737   4.861 -0.1236 -0.4228  0.7373
  106MOL0     H14258  10.010  11.618   4.965  1.5374  2.5931  0.3632
  106MOL0     H14259  10.173  11.731   4.899 -0.4970 -0.3898  0.0224
  106MOL0     H14260  10.139  11.733   4.722  2.9684 -3.5287 -3.1373
  106MOL0     H14261  10.375  11.559   4.943 -0.9805  2.2981 -0.8141
  106MOL0     H14262  10.587  11.336   4.709  2.2939  2.0792 -1.4787
  106MOL0     H14263  10.632  11.455   4.832 -1.0375 -0.4977  1.9199
  106MOL0     H14264  10.484  11.200   4.903  3.2616 -2.8340  1.7509
  106MOL0     H14265  10.525  11.343   5.007 -0.0283  0.4375  0.3460
  106MOL0     H14266  10.773  11.270   4.903 -0.6815  2.5231  0.8422
  106MOL0     H14267  10.683  11.120   4.872 -2.8198 -0.6580 -0.1843
  106MOL0     H14268  10.614  11.118   5.114 -0.4687  1.0845 -3.3542
  106MOL0     H14269  10.701  11.263   5.146 -1.8930 -0.5989  1.8960
  106MOL0     H14270  11.072  11.089   5.117 -1.3585  0.3919 -0.6879
  106MOL0     H14271  11.267  11.075   5.222 -3.1198 -1.8891 -1.8027
  106MOL0     H14272  11.270  11.102   5.399  0.5706  2.6376 -2.5111
  106MOL0     H14273  11.303  10.938   5.329  0.9518 -0.3342 -4.4687
  106MOL0     H14274  11.446  10.913   5.576  0.1981 -5.2685 -1.7122
  106MOL0     H14275  11.601  10.846   5.766 -0.5978 -2.7752 -1.3428
  106MOL0     H14276  11.541  10.551   5.944 -1.2393  1.4223 -0.6929
  106MOL0     H14277  11.666  10.661   5.881  1.8044  0.4055  1.1973
  106MOL0     H14278  11.744  10.708   6.120 -2.5112  1.0073 -0.2582
  106MOL0     H14279  11.627  10.608   6.182  0.1583 -0.4642  0.3588
  106MOL0     H14280  11.710  10.416   6.090 -2.1294  1.0225  1.1827
  106MOL0     H14281  11.843  10.489   6.170 -0.1502 -3.1620 -0.3533
  106MOL0     H14282  11.801  10.519   5.861  2.4056 -1.3248 -2.2160
  106MOL0     H14283  11.925  10.586   5.962  0.7398 -0.0349 -2.3768
  106MOL0     H14284  11.998  10.358   6.029  0.8865  1.0567  1.1375
  106MOL0     H14285  12.029  10.404   5.865  0.0992 -3.3607  0.7250
  106MOL0     H14286  11.777  10.262   5.920  0.4016 -3.1323  0.1002
  106MOL0     H14287  11.866  10.255   5.766  1.7535 -1.5942  0.0190
  106MOL0     H14288  11.945  10.145   6.033  4.1382 -1.3039  1.5162
  106MOL0     H14289  12.060  10.170   5.897 -0.2297 -1.2185 -1.6737
  106MOL0     H14290  12.011   9.942   5.867 -0.4037  0.6017  0.1945
  106MOL0     H14291  11.942  10.035   5.740 -1.0960  1.0679 -0.2292
  106MOL0     H14292  11.262  10.804   6.019 -1.7571  1.1193 -0.9539
  106MOL0     H14293  11.121  10.912   5.856 -0.0460  1.2260  0.4705
  106MOL0     H14294  10.827  10.893   5.494 -2.0506  0.9924  0.1511
  106MOL0     H14295  10.702  10.982   5.297  0.4293 -0.6357  1.0559
  106MOL0     H14296   9.620  11.373   3.995 -1.5766  0.1717  0.4106
  106MOL0     H14297   9.571  11.395   3.737 -1.1913  1.1426 -0.9345
  106MOL0     H14298   9.576  11.808   3.440 -3.2769 -1.1135  2.7681
  106MOL0     H14299   9.601  11.869   3.201  0.9067  1.0783  2.7548
  106MOL0     H14300   9.431  11.955   3.016 -1.4847 -0.2611 -1.5341
  106MOL0     H14301   9.603  11.920   2.969 -0.1748  5.2363 -1.7035
  106MOL0     H14302   9.495  12.029   2.795  1.4740 -0.1769  0.8606
  106MOL0     H14303   9.353  11.928   2.803 -0.2840 -1.0980  1.3053
  106MOL0     H14304   9.455  11.853   2.603 -1.2642  0.3618  0.5332
  106MOL0     H14305   9.493  11.728   2.720  3.0502 -0.9697  0.7321
  106MOL0     H14306   9.702  11.944   2.693  0.1871 -0.1921  0.3799
  106MOL0     H14307   9.665  11.832   2.555  0.5986 -1.6619  0.1090
  106MOL0     H14308   9.914  11.620   2.815  0.1689  2.6807  3.6312
  106MOL0     H14309   9.347  11.572   3.066 -0.1212  3.3989 -1.2122
  106MOL0     H14310   9.340  11.467   3.298  0.6793  0.8119  1.5111
  107MOL0     O14311   7.853   8.828  11.376 -0.2067  0.8444 -0.0711
  107MOL0     C14312   7.790   8.723  11.390 -0.7634  0.4536  0.0887
  107MOL0     O14313   7.826   8.617  11.466 -0.3734  0.1220 -0.4016
  107MOL0     C14314   7.922   8.616  11.556 -0.7813  0.4169 -0.7745
  107MOL0     C14315   7.958   8.485  11.594 -0.0295  0.7007 -0.3008
  107MOL0     C14316   8.068   8.467  11.681  0.1317 -0.7791 -0.4136
  107MOL0     C14317   8.143   8.573  11.739  1.4765 -0.9480  0.1424
  107MOL0     O14318   8.222   8.540  11.847  0.3911  0.6678 -0.7643
  107MOL0     C14319   8.332   8.628  11.874  0.9476  0.2228 -0.0918
  107MOL0     C14320   8.383   8.570  12.015  0.1232 -0.3893  0.8817
  107MOL0     C14321   8.484   8.672  12.074 -0.3308 -0.1270  0.1067
  107MOL0     C14322   8.606   8.625  12.158  0.3173 -0.8357 -0.0763
  107MOL0     C14323   8.707   8.549  12.067 -0.5549 -0.0467 -0.6465
  107MOL0     C14324   8.821   8.637  12.001  0.5117 -0.0796  0.3843
  107MOL0     C14325   8.782   8.674  11.854  1.0882  0.7318 -0.0856
  107MOL0     C14326   8.920   8.735  11.787  0.8798  1.1184  0.6588
  107MOL0     N14327   8.891   8.783  11.642  0.1140 -0.1090 -0.5715
  107MOL0     C14328   8.876   8.700  11.535 -0.0437 -1.1063  0.6321
  107MOL0     C14329   8.823   8.785  11.436 -0.0604 -0.0832  0.8426
  107MOL0     C14330   8.768   8.751  11.287  0.9392 -0.3155 -0.1261
  107MOL0     C14331   8.864   8.690  11.178 -1.1241  0.5755 -0.0020
  107MOL0     C14332   8.974   8.783  11.145  0.4992  0.3211  0.2173
  107MOL0     C14333   9.056   8.727  11.030  0.0851  0.5300  0.7999
  107MOL0     O14334   9.128   8.596  11.074  1.7437  0.1919  0.1939
  107MOL0     C14335   9.249   8.583  11.028 -0.9719 -0.0648  0.2797
  107MOL0     C14336   9.358   8.653  11.086  0.2710  0.3390  0.2096
  107MOL0     C14337   9.493   8.631  11.045 -0.3865 -0.4039 -0.7547
  107MOL0     C14338   9.594   8.706  11.142  0.4779 -0.1756 -1.1768
  107MOL0     C14339   9.525   8.552  10.936  0.0179 -0.3837  0.6071
  107MOL0     C14340   9.660   8.538  10.872  0.3879 -0.5249 -1.1181
  107MOL0     O14341   9.667   8.442  10.775  0.6789  0.2456 -0.6462
  107MOL0     C14342   9.789   8.410  10.719  0.2327 -0.8067 -0.3725
  107MOL0     C14343   9.863   8.307  10.757 -0.4945 -1.3284  0.4984
  107MOL0     C14344   9.987   8.281  10.698 -0.0337  0.0475 -0.0412
  107MOL0     C14345  10.033   8.359  10.580  0.1165  0.7748  0.5125
  107MOL0     O14346  10.143   8.308  10.517  0.1186 -0.2573 -0.0569
  107MOL0     C14347  10.231   8.408  10.461 -0.1309  0.5963 -0.4877
  107MOL0     C14348  10.358   8.330  10.433 -0.3597  0.4822 -0.2166
  107MOL0     C14349  10.351   8.207  10.346 -0.6925 -0.7844 -0.2707
  107MOL0     C14350  10.292   8.237  10.211  0.4884  0.3224  0.3589
  107MOL0     C14351  10.296   8.110  10.119  0.1763 -0.2412 -0.1072
  107MOL0     C14352  10.433   8.095  10.048 -0.5267 -0.4053 -0.3541
  107MOL0     C14353  10.454   7.962   9.977  0.0381 -0.0825 -0.1490
  107MOL0     C14354  10.506   7.848  10.062 -0.1024  0.1260 -0.0694
  107MOL0    Cl14355  10.432   7.829  10.224 -0.2347 -0.3472  0.1383
  107MOL0     C14356   9.948   8.455  10.534  0.4472 -0.5390 -0.6057
  107MOL0     C14357   9.829   8.478  10.600 -0.5376 -0.2480 -0.7338
  107MOL0     O14358   9.759   8.600  10.919 -0.3571 -0.5573 -0.7821
  107MOL0     C14359   9.409   8.484  10.878 -0.1447 -0.0126 -0.3009
  107MOL0     C14360   9.275   8.494  10.929 -0.5148 -0.5935  0.5129
  107MOL0     N14361   8.846   8.904  11.481  0.8297 -0.2008 -0.6876
  107MOL0     N14362   8.876   8.911  11.609  0.6723 -0.2064 -0.0847
  107MOL0     C14363   8.109   8.702  11.698 -0.6983 -1.1641 -0.0785
  107MOL0     C14364   8.005   8.730  11.601 -0.7541  0.4372  0.7730
  107MOL0     C14365   7.674   8.701  11.295 -0.1306  0.5256  0.4887
  107MOL0     C14366   7.625   8.798  11.202  0.2534  0.0625  0.3979
  107MOL0     C14367   7.521   8.765  11.115  0.2453 -0.9289  0.6032
  107MOL0     C14368   7.454   8.648  11.119 -0.3080  0.5536  0.4871
  107MOL0     O14369   7.358   8.627  11.021  0.9027  0.0732  0.8820
  107MOL0     C14370   7.301   8.499  11.005  1.1788  0.0505 -0.1378
  107MOL0     C14371   7.228   8.498  10.874 -0.2285  0.4724  0.7394
  107MOL0     C14372   7.097   8.576  10.848  1.6552  0.4620 -0.9657
  107MOL0     C14373   7.081   8.628  10.705 -1.3186  0.5416 -0.5827
  107MOL0     C14374   7.060   8.507  10.615 -0.5674 -0.3723 -0.0973
  107MOL0     C14375   7.042   8.411  10.545 -0.1664 -0.6854 -0.1236
  107MOL0     C14376   7.506   8.549  11.199  0.3468  0.8189 -0.0682
  107MOL0     C14377   7.608   8.574  11.296  0.0393 -0.3363 -0.7580
  107MOL0     H14378   7.916   8.398  11.544  3.0105 -1.5395  0.7428
  107MOL0     H14379   8.097   8.365  11.706  1.4066 -0.9928 -2.4901
  107MOL0     H14380   8.401   8.613  11.790 -1.3985  0.6170 -2.2208
  107MOL0     H14381   8.294   8.730  11.884  2.1446  0.8972 -1.7421
  107MOL0     H14382   8.299   8.568  12.085  0.7073  2.6614  1.7963
  107MOL0     H14383   8.410   8.465  11.995 -0.9201 -0.1130 -2.7996
  107MOL0     H14384   8.521   8.730  11.989 -2.6434  1.3469  0.0204
  107MOL0     H14385   8.428   8.741  12.137 -2.3848 -1.2722 -0.3756
  107MOL0     H14386   8.644   8.709  12.218 -2.2971  0.8381 -0.5645
  107MOL0     H14387   8.557   8.572  12.240 -0.4387  1.5847  1.1653
  107MOL0     H14388   8.747   8.475  12.137 -0.5132  0.6200  0.0419
  107MOL0     H14389   8.640   8.502  11.994 -2.9750  2.0614  0.0666
  107MOL0     H14390   8.823   8.732  12.055 -0.3112 -1.6357  3.3432
  107MOL0     H14391   8.918   8.586  12.006 -0.4123 -2.1447 -1.2479
  107MOL0     H14392   8.755   8.589  11.792  2.8051 -0.6066  0.9140
  107MOL0     H14393   8.698   8.742  11.869 -1.0548 -1.6740 -0.5338
  107MOL0     H14394   9.005   8.668  11.775  1.5119  1.6589  1.9669
  107MOL0     H14395   8.945   8.819  11.852 -1.7198  1.4688  1.3490
  107MOL0     H14396   8.866   8.592  11.543 -1.9789 -0.9532  0.9729
  107MOL0     H14397   8.683   8.685  11.303  0.4005  0.8198  2.1067
  107MOL0     H14398   8.727   8.842  11.244 -2.0698 -1.0759  0.8918
  107MOL0     H14399   8.818   8.663  11.082 -0.2231  1.0941 -0.5938
  107MOL0     H14400   8.901   8.596  11.218 -0.0929  0.1183 -1.9360
  107MOL0     H14401   9.045   8.786  11.228  0.7218  0.2720  0.0323
  107MOL0     H14402   8.929   8.881  11.125 -0.9438 -0.6337 -1.4869
  107MOL0     H14403   9.135   8.799  11.006  0.4728  0.1876  1.0115
  107MOL0     H14404   8.998   8.702  10.941 -3.0112  0.5538  2.6698
  107MOL0     H14405   9.336   8.720  11.168 -1.3924 -2.0357  1.7909
  107MOL0     H14406   9.552   8.711  11.243  2.3208 -2.3446 -0.2105
  107MOL0     H14407   9.699   8.673  11.137  1.4098  2.4013 -0.2589
  107MOL0     H14408   9.599   8.807  11.100 -1.1135 -0.6336 -2.5487
  107MOL0     H14409   9.838   8.249  10.846  2.2643  0.6329  2.7572
  107MOL0     H14410  10.058   8.203  10.724 -0.7602 -0.6985 -0.2433
  107MOL0     H14411  10.186   8.450  10.371 -2.0474  1.3931  0.7713
  107MOL0     H14412  10.246   8.493  10.528 -2.4063 -1.0260  2.2961
  107MOL0     H14413  10.427   8.402  10.387 -2.8049  2.8912 -0.4320
  107MOL0     H14414  10.401   8.293  10.526 -2.1751 -2.0445 -0.2968
  107MOL0     H14415  10.282   8.138  10.395 -2.6580  0.4342 -1.1982
  107MOL0     H14416  10.448   8.158  10.341  0.1511  0.8176 -0.3811
  107MOL0     H14417  10.190   8.274  10.226 -0.3758 -2.1024  0.9041
  107MOL0     H14418  10.341   8.323  10.165  2.4654 -1.7127 -1.5330
  107MOL0     H14419  10.221   8.115  10.040 -0.2876 -1.3938  0.2493
  107MOL0     H14420  10.261   8.026  10.179 -0.8441  1.3608  1.6667
  107MOL0     H14421  10.447   8.175   9.975  0.1207 -0.0645  0.1294
  107MOL0     H14422  10.518   8.114  10.114 -0.0422  1.4492 -1.4378
  107MOL0     H14423  10.534   7.985   9.906 -1.6660  0.5759 -1.9407
  107MOL0     H14424  10.358   7.935   9.932 -0.5087  2.7262 -0.8409
  107MOL0     H14425  10.612   7.867  10.078 -0.5116  1.8763  0.9008
  107MOL0     H14426  10.497   7.752  10.012 -1.3586 -1.2173  2.5314
  107MOL0     H14427   9.968   8.522  10.451 -2.2708  1.8843  0.5248
  107MOL0     H14428   9.764   8.556  10.562  0.3853  0.5731 -0.6708
  107MOL0     H14429   9.436   8.405  10.808  0.4444 -2.3135  2.3264
  107MOL0     H14430   9.190   8.436  10.893 -0.2337 -1.4655  1.2277
  107MOL0     H14431   8.147   8.795  11.741 -2.8833 -0.5440  0.6473
  107MOL0     H14432   7.989   8.834  11.574  2.4501  0.7468 -0.3000
  107MOL0     H14433   7.663   8.896  11.175 -1.8002  0.5639 -0.8960
  107MOL0     H14434   7.480   8.838  11.047 -0.2227 -2.1698 -0.4822
  107MOL0     H14435   7.374   8.419  10.985  0.2370 -0.1050 -3.5136
  107MOL0     H14436   7.230   8.489  11.088  2.5413  0.0907  1.0797
  107MOL0     H14437   7.204   8.392  10.857 -0.5239  0.4032  1.5682
  107MOL0     H14438   7.305   8.526  10.801  1.5689 -1.8245  1.6199
  107MOL0     H14439   7.082   8.648  10.929  1.3010  0.8604 -1.3809
  107MOL0     H14440   7.026   8.496  10.869 -2.5076  3.5601 -1.9456
  107MOL0     H14441   7.171   8.686  10.679 -1.4317  1.6300  1.2374
  107MOL0     H14442   6.989   8.686  10.693 -1.1847  0.8391 -0.1969
  107MOL0     H14443   7.012   8.340  10.471 -3.1056  1.5778 -1.3134
  107MOL0     H14444   7.466   8.449  11.213  2.7979 -0.1231  0.8055
  107MOL0     H14445   7.644   8.501  11.367 -0.1258 -0.5781 -0.9181
  108MOL0     O14446   0.004   9.187   1.988  0.0769 -0.9256 -0.4546
  108MOL0     C14447   0.009   9.173   2.107  0.9292  0.2231  0.0430
  108MOL0     O14448  -0.054   9.080   2.181  0.4924 -0.2549 -0.0554
  108MOL0     C14449  -0.161   9.017   2.122 -0.5049 -0.2523  0.3133
  108MOL0     C14450  -0.153   8.880   2.105 -0.2370 -0.4710  0.1838
  108MOL0     C14451  -0.258   8.809   2.061 -0.6002  0.3187 -0.1329
  108MOL0     C14452  -0.371   8.875   2.015 -0.0268 -0.6111  0.2995
  108MOL0     O14453  -0.468   8.796   1.975  0.6098 -0.2479  0.1668
  108MOL0     C14454  -0.586   8.858   1.915 -1.2707  0.2587  0.6022
  108MOL0     C14455  -0.618   8.746   1.818  0.4551  0.2803  0.3623
  108MOL0     C14456  -0.518   8.722   1.701  0.0762  0.6677 -0.9669
  108MOL0     C14457  -0.558   8.595   1.630  0.8280  0.9681  0.1941
  108MOL0     C14458  -0.437   8.557   1.533  1.0088 -1.2782  0.6371
  108MOL0     C14459  -0.405   8.660   1.420  0.0460  0.4620 -0.4166
  108MOL0     C14460  -0.521   8.680   1.322  0.5362  0.4648  0.9055
  108MOL0     C14461  -0.488   8.742   1.180 -0.5696  1.1342 -0.0283
  108MOL0     N14462  -0.432   8.875   1.210 -0.3496  0.0564  0.4608
  108MOL0     C14463  -0.500   8.992   1.192  0.0153 -0.6943 -0.2533
  108MOL0     C14464  -0.409   9.090   1.227 -0.5673 -0.2795  0.2434
  108MOL0     C14465  -0.433   9.241   1.225  0.1815 -0.0619 -0.2873
  108MOL0     C14466  -0.438   9.309   1.094  0.0152 -0.6172 -0.0343
  108MOL0     C14467  -0.307   9.390   1.070 -0.2460  0.0851 -0.5853
  108MOL0     C14468  -0.296   9.476   0.956  0.3278  0.0820 -0.2694
  108MOL0     O14469  -0.385   9.590   0.950 -0.2532  0.0069 -0.1324
  108MOL0     C14470  -0.338   9.720   0.970  0.0698 -0.6313 -0.6928
  108MOL0     C14471  -0.411   9.826   0.918 -0.5381 -0.0602  0.3922
  108MOL0     C14472  -0.367   9.959   0.924 -0.1100 -0.7382 -0.2827
  108MOL0     C14473  -0.452  10.065   0.854  1.0542  0.4339 -0.4219
  108MOL0     C14474  -0.250   9.988   0.993  0.3415  0.6668 -0.3071
  108MOL0     C14475  -0.192  10.121   0.994  0.1217 -0.2449  0.1118
  108MOL0     O14476  -0.132  10.147   1.120 -1.2149  0.9998 -0.4094
  108MOL0     C14477  -0.072  10.268   1.134  0.0976  0.1511  0.0049
  108MOL0     C14478   0.060  10.292   1.103  0.2921 -0.6965 -0.2566
  108MOL0     C14479   0.110  10.423   1.079 -0.7596  0.0863 -0.3482
  108MOL0     C14480   0.020  10.535   1.093  0.2522 -0.5264 -0.2407
  108MOL0     O14481   0.081  10.652   1.059 -0.1712 -0.5044 -0.4707
  108MOL0     C14482   0.002  10.767   1.043  0.1929 -1.2000 -0.1239
  108MOL0     C14483  -0.019  10.849   1.177 -0.1566  0.9254 -0.2907
  108MOL0     C14484   0.104  10.921   1.234  0.3938  0.4765  1.0005
  108MOL0     C14485   0.168  11.027   1.141 -0.8947 -0.3007  0.1751
  108MOL0     C14486   0.286  11.100   1.217  0.4274 -0.1744 -0.5115
  108MOL0     C14487   0.366  11.186   1.131  0.6869  0.1812  1.3034
  108MOL0     C14488   0.497  11.220   1.187 -0.3024 -0.4750 -0.8375
  108MOL0     C14489   0.512  11.296   1.322  0.5784  0.4353 -0.1190
  108MOL0    Cl14490   0.408  11.446   1.333 -0.3260  0.7133  0.1281
  108MOL0     C14491  -0.111  10.511   1.140 -0.3713 -0.0627  0.3808
  108MOL0     C14492  -0.155  10.381   1.145  0.6634  1.0359  0.6051
  108MOL0     O14493  -0.197  10.198   0.902  0.3127 -0.2143  0.4119
  108MOL0     C14494  -0.189   9.881   1.060  0.5468 -0.1042 -1.3736
  108MOL0     C14495  -0.237   9.755   1.057  0.3264 -0.1575  1.1292
  108MOL0     N14496  -0.282   9.031   1.256  0.4656 -0.9409 -0.3589
  108MOL0     N14497  -0.304   8.905   1.250 -0.5424  0.5174 -0.1747
  108MOL0     C14498  -0.376   9.016   2.019  0.5326 -0.9140 -0.4001
  108MOL0     C14499  -0.272   9.085   2.080  0.4887  0.7451  0.1371
  108MOL0     C14500   0.098   9.263   2.178  0.8798 -0.7542 -0.5894
  108MOL0     C14501   0.068   9.313   2.311  0.9191 -0.2313 -0.7556
  108MOL0     C14502   0.150   9.418   2.364  0.6168 -0.0290  0.2368
  108MOL0     C14503   0.263   9.462   2.291 -0.0568 -0.7441 -0.2771
  108MOL0     O14504   0.337   9.560   2.343 -1.3716 -0.5489  0.3173
  108MOL0     C14505   0.434   9.625   2.266 -0.5549 -0.2511  0.6086
  108MOL0     C14506   0.448   9.768   2.319  0.9668 -0.2401  1.7264
  108MOL0     C14507   0.341   9.864   2.239 -0.5521  0.1191  0.1351
  108MOL0     C14508   0.191   9.850   2.264  0.1069  0.0485  0.9321
  108MOL0     C14509   0.143   9.862   2.396  0.0898  0.5255 -0.3623
  108MOL0     C14510   0.102   9.859   2.514  0.0771  0.2954  0.5039
  108MOL0     C14511   0.286   9.409   2.163 -0.3719 -0.1452 -0.2536
  108MOL0     C14512   0.208   9.316   2.110  0.2573 -0.3490  0.1188
  108MOL0     H14513  -0.057   8.835   2.127  0.0923 -0.8638 -1.8240
  108MOL0     H14514  -0.258   8.701   2.053  1.7776  0.1742  0.9175
  108MOL0     H14515  -0.658   8.873   1.997 -1.4640  1.0926  0.2896
  108MOL0     H14516  -0.560   8.949   1.859 -1.9697 -1.0498 -1.9956
  108MOL0     H14517  -0.621   8.649   1.870  1.8991  0.3528  0.6381
  108MOL0     H14518  -0.708   8.762   1.758  2.0680  0.8134 -2.0540
  108MOL0     H14519  -0.526   8.814   1.642  2.1046  0.8930 -0.9632
  108MOL0     H14520  -0.417   8.729   1.741 -1.1650  1.5212  2.3661
  108MOL0     H14521  -0.564   8.499   1.683  1.6478 -1.1125 -3.1725
  108MOL0     H14522  -0.658   8.607   1.586  0.2238  0.9246  1.5245
  108MOL0     H14523  -0.358   8.551   1.609 -0.5234 -1.2952  2.3202
  108MOL0     H14524  -0.435   8.453   1.500  1.0910 -1.4810  1.2691
  108MOL0     H14525  -0.380   8.757   1.461  0.3734 -0.8431  2.6950
  108MOL0     H14526  -0.306   8.626   1.389 -0.2333 -2.0387  1.1566
  108MOL0     H14527  -0.549   8.576   1.302  1.9678  0.3584 -0.7864
  108MOL0     H14528  -0.607   8.730   1.369  0.4010 -1.5378  2.9805
  108MOL0     H14529  -0.573   8.755   1.114 -0.4847  3.5330  0.2390
  108MOL0     H14530  -0.411   8.676   1.138 -0.8336 -0.5230  1.8940
  108MOL0     H14531  -0.596   9.025   1.154  1.2271  3.7131 -0.0128
  108MOL0     H14532  -0.539   9.253   1.250  0.7700  1.2601  1.8771
  108MOL0     H14533  -0.379   9.297   1.302 -2.4902  2.8940 -0.3616
  108MOL0     H14534  -0.517   9.384   1.099 -0.7369 -1.4739  4.6307
  108MOL0     H14535  -0.448   9.231   1.017 -0.3099  0.4635 -1.1213
  108MOL0     H14536  -0.227   9.316   1.062  0.9788  1.4621 -1.5573
  108MOL0     H14537  -0.282   9.443   1.162 -0.4060  0.0676 -0.5315
  108MOL0     H14538  -0.318   9.412   0.869  0.1052  0.7190 -0.6921
  108MOL0     H14539  -0.192   9.508   0.957 -0.0143  1.6011 -2.8124
  108MOL0     H14540  -0.496   9.796   0.857 -2.2534  2.1032  1.5911
  108MOL0     H14541  -0.453  10.152   0.920  3.6495 -0.8186  1.4187
  108MOL0     H14542  -0.419  10.110   0.759 -0.6379  0.6906 -0.9163
  108MOL0     H14543  -0.554  10.025   0.854  1.0536 -0.0142  3.9342
  108MOL0     H14544   0.124  10.205   1.099  3.8098  1.7090 -1.2977
  108MOL0     H14545   0.212  10.444   1.052 -0.5925 -4.1063 -4.3334
  108MOL0     H14546   0.049  10.832   0.969  1.0386 -1.0287  0.5377
  108MOL0     H14547  -0.092  10.733   0.998 -1.0840  0.9018  0.7851
  108MOL0     H14548  -0.104  10.916   1.160 -1.4727 -1.0756 -2.0468
  108MOL0     H14549  -0.053  10.768   1.241  1.7064  0.3382  0.0104
  108MOL0     H14550   0.173  10.839   1.259 -1.5159 -1.9095 -0.9448
  108MOL0     H14551   0.092  10.974   1.328  1.6034 -1.1851  2.1484
  108MOL0     H14552   0.217  10.978   1.056 -1.0360  1.1308 -0.7671
  108MOL0     H14553   0.091  11.097   1.107  0.6411  0.6782 -1.4961
  108MOL0     H14554   0.359  11.026   1.251  1.9875 -0.0024 -3.1777
  108MOL0     H14555   0.253  11.151   1.308  2.0061  1.2510 -0.6659
  108MOL0     H14556   0.390  11.124   1.044 -3.4922  0.0585  0.0466
  108MOL0     H14557   0.307  11.272   1.097 -0.4393 -0.5591  1.3304
  108MOL0     H14558   0.546  11.292   1.121 -2.2882  0.6066 -1.1824
  108MOL0     H14559   0.570  11.138   1.185  2.6700  1.9590 -0.5482
  108MOL0     H14560   0.620  11.304   1.341  0.8895 -1.4513 -0.8934
  108MOL0     H14561   0.479  11.234   1.406  3.0281  0.3318  0.8417
  108MOL0     H14562  -0.179  10.593   1.161 -3.3468 -1.4257 -3.0236
  108MOL0     H14563  -0.256  10.346   1.164  0.8361 -2.5130 -3.4121
  108MOL0     H14564  -0.089   9.907   1.093  0.1744  1.7333 -1.5942
  108MOL0     H14565  -0.177   9.686   1.116  1.2028 -1.7703 -1.4704
  108MOL0     H14566  -0.437   9.090   1.968  2.6088  0.6472 -0.7630
  108MOL0     H14567  -0.268   9.193   2.085 -1.4297  0.8755 -0.0913
  108MOL0     H14568  -0.014   9.269   2.367  1.3360  0.2792  0.2660
  108MOL0     H14569   0.130   9.459   2.462  0.0499 -0.2716  0.2232
  108MOL0     H14570   0.525   9.569   2.288 -0.2411  1.1096  3.3264
  108MOL0     H14571   0.411   9.626   2.159 -1.0052 -3.9970  0.5636
  108MOL0     H14572   0.537   9.815   2.277 -0.2519 -0.1332 -0.9755
  108MOL0     H14573   0.442   9.778   2.428  1.0106  1.5152  1.5992
  108MOL0     H14574   0.354   9.855   2.131  0.0460  0.1742  0.1975
  108MOL0     H14575   0.368   9.967   2.262  2.3905  0.2084 -2.9677
  108MOL0     H14576   0.165   9.746   2.242  0.2406 -0.4036  2.7430
  108MOL0     H14577   0.134   9.924   2.207  0.0675  1.0467  2.1994
  108MOL0     H14578   0.076   9.848   2.617  1.0769 -0.7153  0.6664
  108MOL0     H14579   0.372   9.444   2.107  0.7254 -0.5568  1.1131
  108MOL0     H14580   0.244   9.278   2.015 -0.2206  2.2571 -1.1641
  109MOL0     O14581   9.682   0.247   0.793 -0.5416  0.0244 -0.7626
  109MOL0     C14582   9.687   0.240   0.917 -0.1907  0.4966  0.9995
  109MOL0     O14583   9.611   0.310   1.014  0.4413 -0.5878 -0.1069
  109MOL0     C14584   9.506   0.388   0.972 -0.7119 -0.7065 -0.9607
  109MOL0     C14585   9.506   0.488   0.879 -0.0202  0.6372  0.1907
  109MOL0     C14586   9.393   0.567   0.852 -0.8662  0.5238 -0.3775
  109MOL0     C14587   9.270   0.547   0.917 -0.2995 -0.2334 -0.9069
  109MOL0     O14588   9.172   0.636   0.886  0.4877  0.3532  0.5782
  109MOL0     C14589   9.049   0.598   0.918 -0.0811 -0.3471  0.4902
  109MOL0     C14590   8.936   0.700   0.869  0.8875  0.6981  0.3268
  109MOL0     C14591   8.806   0.690   0.938  0.2766  0.7483  0.3715
  109MOL0     C14592   8.695   0.742   0.840  0.3236  0.1678 -0.3210
  109MOL0     C14593   8.563   0.657   0.829 -0.2145 -0.8902  0.4918
  109MOL0     C14594   8.486   0.705   0.704  0.8667  0.7176  0.3744
  109MOL0     C14595   8.374   0.609   0.658  0.4887 -0.4882  0.6891
  109MOL0     C14596   8.273   0.585   0.776 -0.6092 -0.6484  0.0718
  109MOL0     N14597   8.181   0.486   0.732 -0.4355 -0.1501  0.4285
  109MOL0     C14598   8.199   0.355   0.755  0.2026  0.5176 -0.6582
  109MOL0     C14599   8.101   0.294   0.686  0.0934  0.0060 -0.4729
  109MOL0     C14600   8.091   0.147   0.646  0.8976  0.1467 -0.6889
  109MOL0     C14601   8.152   0.118   0.509 -0.1424 -1.3276 -0.8723
  109MOL0     C14602   8.216  -0.017   0.510 -0.0435 -0.2617  0.1129
  109MOL0     C14603   8.304  -0.035   0.385  0.5397  0.3153  1.0688
  109MOL0     O14604   8.411   0.049   0.418  0.0274  0.2237  0.2275
  109MOL0     C14605   8.462   0.123   0.319  0.6049 -0.5829 -0.3394
  109MOL0     C14606   8.444   0.111   0.181  0.5161  0.1282  0.7953
  109MOL0     C14607   8.490   0.208   0.087 -0.6324 -0.1904 -0.1505
  109MOL0     C14608   8.461   0.166  -0.048 -0.7273 -0.4548 -1.1088
  109MOL0     C14609   8.576   0.312   0.138  0.5491 -0.3748  0.5494
  109MOL0     C14610   8.642   0.399   0.040  0.4122  0.1953  0.0917
  109MOL0     O14611   8.671   0.519   0.090  0.3806 -0.6131  0.8807
  109MOL0     C14612   8.735   0.600  -0.001  0.1603 -1.1424 -0.1125
  109MOL0     C14613   8.875   0.579  -0.012 -0.0555 -0.0660  0.4772
  109MOL0     C14614   8.941   0.651  -0.116  0.3110 -0.1667 -0.6534
  109MOL0     C14615   8.867   0.745  -0.196 -0.0245  1.6651  0.5909
  109MOL0     O14616   8.920   0.831  -0.297  0.1481 -0.2717 -0.1692
  109MOL0     C14617   9.065   0.819  -0.333  0.0931  0.0839 -0.8530
  109MOL0     C14618   9.102   0.919  -0.443 -0.0521 -0.7289  0.3116
  109MOL0     C14619   9.251   0.953  -0.445  0.2037  0.3634 -1.2937
  109MOL0     C14620   9.284   1.046  -0.335 -0.2319  0.0458 -0.1884
  109MOL0     C14621   9.414   1.125  -0.352 -0.5410 -0.6165 -0.3540
  109MOL0     C14622   9.402   1.258  -0.427  0.2708 -0.5228 -0.4134
  109MOL0     C14623   9.302   1.355  -0.366 -0.2460  0.2530 -0.2023
  109MOL0     C14624   9.323   1.495  -0.409 -0.4918  0.0753 -0.5318
  109MOL0    Cl14625   9.309   1.511  -0.586 -0.2458  0.1084 -0.0023
  109MOL0     C14626   8.734   0.749  -0.185 -0.6464 -0.1806  0.9279
  109MOL0     C14627   8.663   0.681  -0.088 -0.9084  0.3470  0.1773
  109MOL0     O14628   8.680   0.360  -0.074 -0.2587  0.2026  0.0308
  109MOL0     C14629   8.604   0.316   0.273 -0.0875  0.6277 -0.1056
  109MOL0     C14630   8.552   0.218   0.361  1.0176 -0.9543 -0.3415
  109MOL0     N14631   8.015   0.390   0.649  0.3989 -0.4688 -0.2162
  109MOL0     N14632   8.069   0.501   0.667  0.0092  0.1191  0.6051
  109MOL0     C14633   9.270   0.448   1.021 -0.0331  0.5965  0.1618
  109MOL0     C14634   9.383   0.370   1.051 -0.6308 -0.0247  0.2354
  109MOL0     C14635   9.771   0.134   0.971 -0.4988 -0.2481  0.1334
  109MOL0     C14636   9.828   0.042   0.891  0.2891  0.9288 -0.5052
  109MOL0     C14637   9.920  -0.057   0.943  0.8091  0.7048  0.1078
  109MOL0     C14638   9.959  -0.055   1.079  0.0707 -1.1938  0.1316
  109MOL0     O14639  10.051  -0.142   1.130 -0.2118 -0.0220  0.6947
  109MOL0     C14640  10.151  -0.100   1.221 -0.5950 -0.2683  0.5462
  109MOL0     C14641  10.293  -0.137   1.160  0.0153 -0.6059 -0.2294
  109MOL0     C14642  10.313  -0.043   1.043  0.5263 -0.8446 -0.2752
  109MOL0     C14643  10.433  -0.098   0.975 -0.1794 -0.2795 -0.6167
  109MOL0     C14644  10.471   0.005   0.887 -0.3490 -0.3894 -0.2173
  109MOL0     C14645  10.508   0.071   0.789  0.0646  0.3614  0.2139
  109MOL0     C14646   9.914   0.056   1.155 -0.1182 -0.2703  0.8551
  109MOL0     C14647   9.819   0.153   1.105 -0.1652  0.4682  0.2480
  109MOL0     H14648   9.595   0.493   0.817 -0.8502 -0.5591 -1.1559
  109MOL0     H14649   9.397   0.652   0.785 -1.2977 -0.1705 -1.3187
  109MOL0     H14650   9.024   0.501   0.875  1.1588 -0.8904  0.9696
  109MOL0     H14651   9.041   0.606   1.027 -2.9138 -0.6574  0.3920
  109MOL0     H14652   8.971   0.804   0.870 -1.4625  1.5501  1.8607
  109MOL0     H14653   8.924   0.667   0.766  0.8200 -1.0278  0.8504
  109MOL0     H14654   8.786   0.583   0.952 -0.8235  0.7451 -1.0095
  109MOL0     H14655   8.810   0.747   1.031 -0.4262  0.7487  0.4063
  109MOL0     H14656   8.680   0.845   0.874 -2.1332 -0.6253  1.2371
  109MOL0     H14657   8.734   0.753   0.738  0.5498  0.1864 -0.2338
  109MOL0     H14658   8.588   0.551   0.828  1.8236 -0.4597 -1.2358
  109MOL0     H14659   8.494   0.673   0.913 -0.8852  0.0319 -0.2091
  109MOL0     H14660   8.451   0.808   0.716 -1.0020 -0.1216  3.0322
  109MOL0     H14661   8.552   0.714   0.617  1.3374  2.0234  0.8314
  109MOL0     H14662   8.317   0.654   0.576 -0.7945 -0.6898  1.4299
  109MOL0     H14663   8.423   0.519   0.622  1.5833  0.2293  0.3319
  109MOL0     H14664   8.226   0.682   0.791 -0.3353 -0.0279 -2.5486
  109MOL0     H14665   8.324   0.545   0.864  0.3422 -1.1487 -0.6721
  109MOL0     H14666   8.284   0.304   0.799  0.9931  1.5109 -0.9907
  109MOL0     H14667   8.155   0.107   0.725  0.5366  2.9058  1.1344
  109MOL0     H14668   7.993   0.101   0.662 -0.4564  1.8138 -3.4995
  109MOL0     H14669   8.227   0.197   0.498 -0.5600 -0.3503  2.3760
  109MOL0     H14670   8.076   0.119   0.431  0.6503 -2.8251 -1.7111
  109MOL0     H14671   8.133  -0.086   0.522 -0.9958  0.6448 -1.1325
  109MOL0     H14672   8.279  -0.032   0.599  2.0400 -1.2975 -1.4348
  109MOL0     H14673   8.250  -0.010   0.293 -2.0390 -0.0756  2.3843
  109MOL0     H14674   8.335  -0.140   0.376  1.3295  0.4244  2.2567
  109MOL0     H14675   8.384   0.027   0.145  0.4603  0.3510  0.3635
  109MOL0     H14676   8.553   0.124  -0.090  0.3610 -1.9889  2.4653
  109MOL0     H14677   8.372   0.104  -0.060 -0.8547 -0.4647 -0.1855
  109MOL0     H14678   8.427   0.254  -0.105 -1.5640  0.2163  0.3564
  109MOL0     H14679   8.934   0.517   0.055  1.2844  0.6280 -0.0091
  109MOL0     H14680   9.047   0.631  -0.127  0.8238 -0.1553  2.9881
  109MOL0     H14681   9.116   0.841  -0.240 -1.5129  0.2605  0.0222
  109MOL0     H14682   9.104   0.721  -0.364 -2.0997 -2.2161  2.8543
  109MOL0     H14683   9.079   0.880  -0.543 -1.8570  0.6076  0.1530
  109MOL0     H14684   9.042   1.008  -0.422  3.0806  1.2080  1.7534
  109MOL0     H14685   9.277   0.999  -0.541  1.1716  0.8814 -0.7989
  109MOL0     H14686   9.297   0.855  -0.432 -5.0907 -2.0569  2.6039
  109MOL0     H14687   9.205   1.118  -0.313 -2.8052 -2.9766  1.1933
  109MOL0     H14688   9.291   0.988  -0.242 -0.4423 -4.5017 -2.6870
  109MOL0     H14689   9.487   1.060  -0.399  1.7754 -0.4216  2.6917
  109MOL0     H14690   9.448   1.156  -0.253 -1.7602  0.0566 -0.1200
  109MOL0     H14691   9.501   1.305  -0.428  0.7491 -1.3407  2.1005
  109MOL0     H14692   9.366   1.229  -0.526 -0.6343  2.4461 -1.0587
  109MOL0     H14693   9.300   1.352  -0.257  3.6789  2.8298  0.1342
  109MOL0     H14694   9.202   1.327  -0.401 -0.7911  2.2467 -0.4164
  109MOL0     H14695   9.419   1.522  -0.363 -1.3495 -0.4453  1.6931
  109MOL0     H14696   9.239   1.550  -0.366 -3.5540 -2.4833 -2.7352
  109MOL0     H14697   8.685   0.812  -0.259 -2.0204 -1.3697  0.7827
  109MOL0     H14698   8.557   0.682  -0.069 -1.0968 -0.8906 -0.6198
  109MOL0     H14699   8.670   0.398   0.297 -2.8533  2.6202  1.2121
  109MOL0     H14700   8.580   0.219   0.466  1.6889 -0.8065 -0.5183
  109MOL0     H14701   9.182   0.433   1.084  0.5246 -0.2582  0.7557
  109MOL0     H14702   9.379   0.292   1.127 -4.3096  0.1560  0.3858
  109MOL0     H14703   9.805   0.034   0.785  3.1300  1.8617 -1.2673
  109MOL0     H14704   9.975  -0.135   0.891 -2.4593 -1.3983 -0.4596
  109MOL0     H14705  10.165   0.007   1.235 -1.5945 -0.3273  2.2639
  109MOL0     H14706  10.132  -0.145   1.319 -2.5688  2.2088  1.4135
  109MOL0     H14707  10.300  -0.242   1.129 -1.3337 -0.3902 -1.3965
  109MOL0     H14708  10.363  -0.121   1.242  0.0404  1.0463 -0.5499
  109MOL0     H14709  10.327   0.059   1.078  3.9208 -1.8031  1.7154
  109MOL0     H14710  10.229  -0.044   0.973  1.1240  2.4109 -1.2033
  109MOL0     H14711  10.399  -0.187   0.921 -0.2047 -1.0587  0.6409
  109MOL0     H14712  10.519  -0.118   1.039  2.1749  1.5198 -2.9939
  109MOL0     H14713  10.526   0.125   0.698  3.7789  1.2182  1.2706
  109MOL0     H14714   9.946   0.065   1.258 -0.5169  0.8738  0.8973
  109MOL0     H14715   9.784   0.234   1.168 -2.2709 -0.2372  0.0696
  110MOL0     O14716   0.674   9.990   2.094  0.6130 -0.0074  0.7779
  110MOL0     C14717   0.786  10.003   2.130 -0.7750  0.2557 -0.6814
  110MOL0     O14718   0.887   9.928   2.074  0.2628  0.2008 -0.0467
  110MOL0     C14719   0.877   9.809   1.993 -0.6988  0.3803 -0.4327
  110MOL0     C14720   0.987   9.784   1.908 -0.3275  0.5525  0.0331
  110MOL0     C14721   0.975   9.678   1.817  0.5364  0.2817  0.3004
  110MOL0     C14722   0.863   9.592   1.821  0.7992 -0.0517 -0.6040
  110MOL0     O14723   0.873   9.482   1.740 -0.8167  0.4215  1.1024
  110MOL0     C14724   0.779   9.379   1.765  0.1119 -0.6680  0.5182
  110MOL0     C14725   0.795   9.277   1.654  0.2905 -0.0506  0.1064
  110MOL0     C14726   0.914   9.176   1.654 -0.5966 -1.1076  0.3229
  110MOL0     C14727   0.896   9.076   1.540  0.0008  0.5601 -1.0193
  110MOL0     C14728   0.996   8.964   1.559 -0.6235  0.5471 -0.2028
  110MOL0     C14729   0.979   8.863   1.452  0.2380  1.1382  0.4515
  110MOL0     C14730   1.096   8.762   1.463 -0.2320 -0.5349  0.0485
  110MOL0     C14731   1.101   8.663   1.359  0.0429  0.3276  0.0022
  110MOL0     N14732   0.976   8.571   1.356 -1.3445  0.3059 -0.0784
  110MOL0     C14733   0.869   8.606   1.283  0.6453 -0.1276 -0.2476
  110MOL0     C14734   0.778   8.511   1.316 -0.6301  0.0726 -0.1274
  110MOL0     C14735   0.639   8.492   1.267 -0.4628 -0.2676 -0.1528
  110MOL0     C14736   0.559   8.619   1.245 -0.7463 -1.0929 -0.3648
  110MOL0     C14737   0.407   8.581   1.266  1.0270  0.9512 -0.1281
  110MOL0     C14738   0.330   8.569   1.129 -1.7045 -0.7978  1.2485
  110MOL0     O14739   0.345   8.677   1.035 -0.1268 -0.8051 -0.2473
  110MOL0     C14740   0.311   8.810   1.071 -0.7654  0.5421  0.4871
  110MOL0     C14741   0.350   8.912   0.984 -0.0568 -0.2242 -0.2264
  110MOL0     C14742   0.313   9.046   0.987 -1.1388  0.5591 -0.0102
  110MOL0     C14743   0.366   9.143   0.879 -0.0051  1.0283  0.0160
  110MOL0     C14744   0.239   9.087   1.103 -0.4769  0.3143  0.7444
  110MOL0     C14745   0.187   9.232   1.112 -1.7364  0.4870 -1.0434
  110MOL0     O14746   0.172   9.275   1.247 -0.1001 -0.6503  0.0894
  110MOL0     C14747   0.132   9.398   1.272  0.2071  0.1774 -0.1310
  110MOL0     C14748   0.009   9.431   1.331 -0.0282  0.4802 -0.6883
  110MOL0     C14749  -0.029   9.561   1.354 -0.7341  1.0279 -0.4739
  110MOL0     C14750   0.062   9.666   1.328 -0.2059  0.8175  0.3748
  110MOL0     O14751   0.036   9.797   1.351  0.5615  0.0327 -0.6728
  110MOL0     C14752  -0.077   9.837   1.442 -0.5938  0.1796  0.7438
  110MOL0     C14753  -0.072   9.990   1.421 -0.2605 -0.8548  0.0607
  110MOL0     C14754   0.046  10.073   1.478 -0.8128 -0.2228  0.5139
  110MOL0     C14755   0.002  10.227   1.503  0.0272  0.8496  0.5763
  110MOL0     C14756   0.068  10.284   1.627  0.1545 -0.6286 -0.2685
  110MOL0     C14757   0.071  10.434   1.644 -0.0864 -0.3722  0.2368
  110MOL0     C14758  -0.060  10.506   1.614  0.4170  0.1175  0.2361
  110MOL0     C14759  -0.069  10.649   1.664  0.3883 -1.0077 -0.6964
  110MOL0    Cl14760   0.013  10.772   1.566  0.3668  0.3350 -0.1400
  110MOL0     C14761   0.184   9.639   1.267  0.2237 -0.6469 -0.5172
  110MOL0     C14762   0.212   9.509   1.238 -0.5439 -0.1210 -0.0993
  110MOL0     O14763   0.151   9.297   1.016  0.2965  1.0780  0.1859
  110MOL0     C14764   0.204   8.990   1.196  0.7988  0.6628  0.9592
  110MOL0     C14765   0.242   8.853   1.179  0.8026 -0.2515 -0.3148
  110MOL0     N14766   0.834   8.434   1.422 -0.2577  0.2145  0.1821
  110MOL0     N14767   0.958   8.463   1.436 -0.3297  0.3864 -0.3349
  110MOL0     C14768   0.762   9.617   1.912  0.1867 -0.3208  0.3979
  110MOL0     C14769   0.768   9.722   2.006 -1.0653  0.2205  0.5586
  110MOL0     C14770   0.821  10.094   2.253 -0.0748 -0.1588  0.4584
  110MOL0     C14771   0.954  10.124   2.292 -0.4068  0.4394  0.0293
  110MOL0     C14772   0.975  10.209   2.395  0.7387  0.2720  0.0175
  110MOL0     C14773   0.877  10.273   2.462 -0.2584  0.2304 -1.1477
  110MOL0     O14774   0.915  10.345   2.574 -0.3677 -0.7143  0.2540
  110MOL0     C14775   0.809  10.427   2.635  0.1879  0.3637 -0.6068
  110MOL0     C14776   0.718  10.366   2.739 -1.2924 -0.0508 -0.5133
  110MOL0     C14777   0.578  10.424   2.745 -0.1066  0.3222 -0.0338
  110MOL0     C14778   0.471  10.338   2.806  0.0570 -0.8590  0.5404
  110MOL0     C14779   0.456  10.217   2.727 -0.0464 -0.1485 -0.1529
  110MOL0     C14780   0.444  10.129   2.652 -0.5760 -1.1253 -0.5659
  110MOL0     C14781   0.747  10.233   2.435  0.4239 -0.0718 -0.6983
  110MOL0     C14782   0.719  10.142   2.331  0.3482 -0.4496 -0.8566
  110MOL0     H14783   1.071   9.851   1.893 -0.5585  0.4289 -1.9960
  110MOL0     H14784   1.040   9.662   1.732  1.1435 -0.4445  0.8817
  110MOL0     H14785   0.801   9.347   1.867  1.7227  2.9283  1.4386
  110MOL0     H14786   0.677   9.415   1.748  1.0551  1.0843 -1.9573
  110MOL0     H14787   0.696   9.230   1.651  1.2813 -2.4752  1.6957
  110MOL0     H14788   0.807   9.329   1.559 -0.3532 -0.1864 -0.0536
  110MOL0     H14789   1.000   9.243   1.645 -0.9627 -0.9404 -4.0807
  110MOL0     H14790   0.909   9.125   1.750  1.3413  0.3245  1.2493
  110MOL0     H14791   0.791   9.047   1.551 -0.7811  3.1790 -0.8257
  110MOL0     H14792   0.907   9.113   1.437 -2.3325 -1.6611 -2.1951
  110MOL0     H14793   1.099   9.001   1.559 -0.8702  1.3476  1.6250
  110MOL0     H14794   0.981   8.927   1.660  2.4570  2.8839  1.2598
  110MOL0     H14795   0.883   8.815   1.472  0.1641  0.9307 -0.3992
  110MOL0     H14796   0.981   8.904   1.351  2.5318  0.0656 -0.0220
  110MOL0     H14797   1.201   8.794   1.460  0.5358 -2.8658 -0.3059
  110MOL0     H14798   1.093   8.708   1.558 -0.8781 -1.5417 -0.5304
  110MOL0     H14799   1.178   8.593   1.394  2.0605  1.2670 -2.2862
  110MOL0     H14800   1.117   8.703   1.258 -2.5922 -0.6497 -0.8951
  110MOL0     H14801   0.852   8.688   1.215 -1.5634  0.8802  1.4079
  110MOL0     H14802   0.636   8.431   1.176  1.5054 -1.9714  0.8384
  110MOL0     H14803   0.602   8.415   1.335  4.6383 -3.0386 -0.0296
  110MOL0     H14804   0.569   8.665   1.147  0.6425  1.5032  0.8860
  110MOL0     H14805   0.588   8.707   1.304  1.8069 -3.0636  1.5594
  110MOL0     H14806   0.359   8.642   1.343 -0.1081  1.2124 -1.0097
  110MOL0     H14807   0.395   8.483   1.311  0.4927  1.2124  0.3062
  110MOL0     H14808   0.227   8.540   1.152 -1.3252 -1.5737  2.0535
  110MOL0     H14809   0.372   8.480   1.080 -0.5126  1.3188 -1.9106
  110MOL0     H14810   0.415   8.885   0.901 -1.3919 -1.1351 -1.0348
  110MOL0     H14811   0.462   9.105   0.841 -0.2118 -1.0701  1.4081
  110MOL0     H14812   0.292   9.157   0.799 -0.4535 -0.0059  0.2330
  110MOL0     H14813   0.368   9.229   0.946  0.9287  1.0399 -0.0181
  110MOL0     H14814  -0.051   9.349   1.369 -3.0796  3.2685  0.9399
  110MOL0     H14815  -0.126   9.572   1.402 -0.8733 -0.6294 -0.3196
  110MOL0     H14816  -0.171   9.792   1.409 -1.3543  1.5799  0.9176
  110MOL0     H14817  -0.037   9.810   1.540  1.1988 -1.9844 -0.4912
  110MOL0     H14818  -0.070  10.010   1.314 -1.3697  0.1478  0.2053
  110MOL0     H14819  -0.169  10.017   1.464 -0.6678 -2.9541  0.6117
  110MOL0     H14820   0.140  10.068   1.421 -0.8155  2.5233  0.1304
  110MOL0     H14821   0.079  10.035   1.575  0.0704  1.4359  0.8939
  110MOL0     H14822   0.029  10.292   1.419 -2.6394  0.5691 -0.6108
  110MOL0     H14823  -0.107  10.232   1.509 -0.3040 -2.5205 -0.4566
  110MOL0     H14824   0.173  10.254   1.629 -0.0392 -1.2918  0.2498
  110MOL0     H14825   0.009  10.249   1.712 -1.4488  0.8911 -0.6824
  110MOL0     H14826   0.107  10.467   1.742  3.4811 -1.5447 -0.5018
  110MOL0     H14827   0.155  10.463   1.579  0.9062 -1.7118  0.8645
  110MOL0     H14828  -0.147  10.454   1.657  0.0159  2.5555  2.7103
  110MOL0     H14829  -0.080  10.517   1.507 -1.5899  0.9133  0.6450
  110MOL0     H14830  -0.016  10.647   1.760 -2.1808 -2.3003  0.8037
  110MOL0     H14831  -0.172  10.674   1.693  1.1277 -2.3457  4.0917
  110MOL0     H14832   0.251   9.720   1.238 -2.1107  1.0521 -1.4502
  110MOL0     H14833   0.311   9.494   1.197 -2.0166 -0.2104 -4.0008
  110MOL0     H14834   0.127   9.015   1.268 -1.7688 -0.7079 -1.1229
  110MOL0     H14835   0.194   8.781   1.245 -1.5406  1.3483 -0.1380
  110MOL0     H14836   0.680   9.549   1.929  1.0282 -1.2943  0.6833
  110MOL0     H14837   0.695   9.728   2.085 -0.1350 -1.3843  1.6217
  110MOL0     H14838   1.042  10.072   2.255  1.2977  1.1235  2.7937
  110MOL0     H14839   1.081  10.227   2.407  0.5899  1.0128  0.2879
  110MOL0     H14840   0.859  10.505   2.692 -2.3551  1.0230  0.8653
  110MOL0     H14841   0.752  10.486   2.562  2.6844  4.2765  0.3382
  110MOL0     H14842   0.756  10.373   2.841 -2.4419  4.2393 -0.1721
  110MOL0     H14843   0.713  10.257   2.728  1.7000 -0.8673  3.6723
  110MOL0     H14844   0.542  10.441   2.643  0.3938 -1.1665 -0.4800
  110MOL0     H14845   0.582  10.520   2.797  1.6411 -0.4333  1.3151
  110MOL0     H14846   0.379  10.395   2.791  0.7297  1.0057  2.8674
  110MOL0     H14847   0.464  10.327   2.914 -2.3738  1.5476  0.7379
  110MOL0     H14848   0.433  10.042   2.590 -0.5552 -3.4786  2.4539
  110MOL0     H14849   0.670  10.272   2.501  0.5510 -1.0613  0.0500
  110MOL0     H14850   0.616  10.114   2.309  0.5126 -1.6784 -0.1744
  111MOL0     O14851   5.076   4.009   0.167  0.0052  0.5755  0.2922
  111MOL0     C14852   5.116   4.125   0.182 -0.4800  0.6829 -0.2156
  111MOL0     O14853   5.136   4.186   0.314  0.1821  0.4224 -0.0878
  111MOL0     C14854   5.061   4.136   0.425 -0.0895  0.1905  0.9061
  111MOL0     C14855   5.117   4.054   0.525  0.7107  0.0999  0.1805
  111MOL0     C14856   5.046   4.020   0.646 -0.4395 -0.0938 -0.5394
  111MOL0     C14857   4.904   4.036   0.656 -0.4028  0.1914 -0.3941
  111MOL0     O14858   4.840   3.981   0.769  0.0278 -0.0522 -0.3872
  111MOL0     C14859   4.695   3.976   0.770 -0.3289 -0.2616 -0.1517
  111MOL0     C14860   4.658   3.858   0.685  0.4086  0.3820 -0.7869
  111MOL0     C14861   4.515   3.805   0.709 -0.1540  0.2927  0.1062
  111MOL0     C14862   4.494   3.682   0.615 -0.0481  0.2999 -0.2393
  111MOL0     C14863   4.358   3.626   0.655  0.3248 -0.0528 -0.8141
  111MOL0     C14864   4.338   3.496   0.578  0.4140 -0.4724 -0.0831
  111MOL0     C14865   4.193   3.464   0.568  0.5311  1.3194 -0.0137
  111MOL0     C14866   4.175   3.331   0.492  0.6481  0.9140 -0.8379
  111MOL0     N14867   4.174   3.213   0.578 -0.0514  0.1861 -0.4444
  111MOL0     C14868   4.241   3.185   0.696  0.6051 -0.3960 -0.5379
  111MOL0     C14869   4.190   3.067   0.736  0.8366  0.2403 -0.7873
  111MOL0     C14870   4.209   2.996   0.873  0.0378 -0.4738  0.9207
  111MOL0     C14871   4.166   3.075   0.993 -0.5666  0.1180  0.1267
  111MOL0     C14872   4.281   3.121   1.084 -0.1080  0.0354  0.0561
  111MOL0     C14873   4.226   3.220   1.188 -0.4555 -0.2886  0.0509
  111MOL0     O14874   4.332   3.299   1.261  0.5683  0.2964  0.4682
  111MOL0     C14875   4.279   3.385   1.353 -0.8224 -0.2728 -0.3835
  111MOL0     C14876   4.316   3.363   1.486  0.6874  0.0486 -0.3177
  111MOL0     C14877   4.273   3.447   1.588  0.1695  0.3255 -0.2677
  111MOL0     C14878   4.308   3.427   1.735 -0.8382  0.6305 -0.5469
  111MOL0     C14879   4.185   3.554   1.551  0.1970  0.4169 -0.0543
  111MOL0     C14880   4.113   3.629   1.653 -1.3837 -1.5473 -0.1890
  111MOL0     O14881   4.032   3.567   1.744  0.1106 -0.4743 -0.1420
  111MOL0     C14882   3.967   3.635   1.843  0.2614 -0.1054  0.2063
  111MOL0     C14883   4.014   3.605   1.970  0.0698  0.4780  0.5069
  111MOL0     C14884   3.948   3.650   2.085  0.6876 -0.0465 -0.0572
  111MOL0     C14885   3.844   3.742   2.064 -0.1874 -0.9283 -0.8472
  111MOL0     O14886   3.790   3.802   2.171 -1.0354 -0.1502  0.1205
  111MOL0     C14887   3.759   3.941   2.172 -0.5812  0.7234 -0.2599
  111MOL0     C14888   3.604   3.960   2.179  0.1834  0.3906 -0.4772
  111MOL0     C14889   3.569   4.105   2.225 -0.2418  0.6429  0.3407
  111MOL0     C14890   3.428   4.122   2.276 -0.3947 -0.9899  0.9542
  111MOL0     C14891   3.402   4.276   2.313  0.2731 -0.3028 -0.2924
  111MOL0     C14892   3.263   4.301   2.369  0.1327 -0.5369  0.1343
  111MOL0     C14893   3.220   4.449   2.381  0.3940  0.4695 -0.3439
  111MOL0     C14894   3.077   4.460   2.438 -0.1393 -0.6238 -0.7376
  111MOL0    Cl14895   2.954   4.365   2.351  0.0904 -0.0134  0.3848
  111MOL0     C14896   3.794   3.767   1.935  1.3394  0.6514  0.5199
  111MOL0     C14897   3.848   3.711   1.821 -0.9744 -0.2146  0.1249
  111MOL0     O14898   4.130   3.748   1.652 -0.0806  0.0957  0.0482
  111MOL0     C14899   4.150   3.584   1.421 -0.2808  0.9216  1.0550
  111MOL0     C14900   4.197   3.500   1.324  0.6229 -0.4277 -0.2805
  111MOL0     N14901   4.097   3.025   0.651 -0.2793 -0.0552 -0.1470
  111MOL0     N14902   4.092   3.107   0.548  0.9616  0.5363 -0.5357
  111MOL0     C14903   4.848   4.111   0.546  0.3115  0.4906 -0.0537
  111MOL0     C14904   4.921   4.164   0.434 -0.2186 -0.4814 -0.4464
  111MOL0     C14905   5.166   4.195   0.054 -0.0470  0.0399 -0.9663
  111MOL0     C14906   5.201   4.328   0.072  0.4509  0.1583 -0.6941
  111MOL0     C14907   5.241   4.409  -0.034  0.0252 -0.0697 -0.4958
  111MOL0     C14908   5.264   4.350  -0.155 -0.3521 -0.2350  0.3106
  111MOL0     O14909   5.295   4.428  -0.265  0.6694  0.3773 -0.1380
  111MOL0     C14910   5.229   4.403  -0.393 -0.7279  0.0607  0.6890
  111MOL0     C14911   5.333   4.407  -0.504  0.0377 -0.5894 -0.9927
  111MOL0     C14912   5.289   4.339  -0.635  0.3510  0.0207  0.7604
  111MOL0     C14913   5.196   4.427  -0.711  1.0719 -0.2300  0.6310
  111MOL0     C14914   5.056   4.384  -0.702  0.9028 -0.6857 -1.5575
  111MOL0     C14915   4.940   4.348  -0.686  0.0032 -1.2741  0.2613
  111MOL0     C14916   5.226   4.216  -0.179  0.4527  0.9113 -0.4530
  111MOL0     C14917   5.187   4.134  -0.067  0.2628  0.2015 -0.1142
  111MOL0     H14918   5.224   4.034   0.525  0.5643 -0.9298 -2.0431
  111MOL0     H14919   5.098   3.951   0.712 -1.3152  0.0428  0.3264
  111MOL0     H14920   4.656   3.953   0.870 -0.2160 -0.6313 -0.1892
  111MOL0     H14921   4.656   4.074   0.742  0.8958  0.8058  1.6614
  111MOL0     H14922   4.661   3.889   0.581 -0.3110 -0.8229 -1.1837
  111MOL0     H14923   4.729   3.775   0.692 -2.2555 -1.9363  1.2776
  111MOL0     H14924   4.489   3.780   0.812  1.1939  1.1366  0.6694
  111MOL0     H14925   4.447   3.889   0.693  2.0126  1.8620 -1.4767
  111MOL0     H14926   4.486   3.710   0.510 -0.2739  1.9397  0.1877
  111MOL0     H14927   4.578   3.615   0.637  0.7326  0.8361 -1.4836
  111MOL0     H14928   4.350   3.611   0.763  0.3165  3.4789 -0.1790
  111MOL0     H14929   4.296   3.709   0.617  0.7788 -0.0398 -1.5512
  111MOL0     H14930   4.370   3.508   0.474  0.1803  2.2288  0.0870
  111MOL0     H14931   4.394   3.412   0.622 -0.1622 -1.3554 -0.9975
  111MOL0     H14932   4.145   3.465   0.666  1.3186  0.8656  0.3905
  111MOL0     H14933   4.153   3.541   0.502  0.6969 -0.1946 -1.9605
  111MOL0     H14934   4.241   3.324   0.405  0.8553  1.6633 -0.7451
  111MOL0     H14935   4.078   3.340   0.441  0.8007 -1.2252 -1.6250
  111MOL0     H14936   4.311   3.235   0.762  1.8951 -0.2897 -1.9452
  111MOL0     H14937   4.143   2.909   0.865 -3.1258  1.6624  2.0447
  111MOL0     H14938   4.318   2.982   0.878  0.2245 -0.3395 -1.3351
  111MOL0     H14939   4.096   3.019   1.055  0.4878 -0.7359  0.5998
  111MOL0     H14940   4.098   3.154   0.960 -0.9161 -1.1322 -2.3832
  111MOL0     H14941   4.351   3.182   1.024  0.1607  0.1166  0.4498
  111MOL0     H14942   4.340   3.048   1.139  0.0534  0.0115 -0.1459
  111MOL0     H14943   4.175   3.160   1.263 -0.0614 -2.1493 -1.1052
  111MOL0     H14944   4.162   3.295   1.140  1.4345  1.0315 -0.5378
  111MOL0     H14945   4.377   3.276   1.504  0.2313 -1.2718 -4.2081
  111MOL0     H14946   4.280   3.512   1.797 -0.6597  0.1502  0.2069
  111MOL0     H14947   4.255   3.334   1.761  0.5743  0.0126  0.2607
  111MOL0     H14948   4.415   3.404   1.740 -0.9891 -1.6735 -4.0861
  111MOL0     H14949   4.102   3.543   1.986 -1.5242 -1.2970  2.9519
  111MOL0     H14950   3.977   3.627   2.186 -3.2647 -0.7351  1.1073
  111MOL0     H14951   3.800   3.984   2.263  2.1025 -0.7955 -0.6460
  111MOL0     H14952   3.808   4.003   2.096  0.0170 -0.8607 -1.2218
  111MOL0     H14953   3.564   3.946   2.078 -3.9085  1.4723  0.8241
  111MOL0     H14954   3.563   3.890   2.252  1.5528  1.4248  1.3560
  111MOL0     H14955   3.601   4.171   2.144 -0.8807  0.9812  0.3621
  111MOL0     H14956   3.645   4.130   2.301  0.2744  2.2869 -0.6643
  111MOL0     H14957   3.360   4.101   2.193  0.1633  2.5284 -0.5797
  111MOL0     H14958   3.415   4.052   2.358 -0.1721  0.1697  2.0098
  111MOL0     H14959   3.422   4.341   2.227  0.3965  3.6628  2.4650
  111MOL0     H14960   3.466   4.311   2.394 -1.2045 -1.9492  1.6973
  111MOL0     H14961   3.189   4.256   2.302  1.0950  0.8215 -1.9754
  111MOL0     H14962   3.251   4.251   2.465  0.1805 -2.0820 -0.6240
  111MOL0     H14963   3.231   4.503   2.287  0.4411 -0.6061 -0.9695
  111MOL0     H14964   3.281   4.497   2.459  0.3273 -1.9849  1.3070
  111MOL0     H14965   3.038   4.561   2.456 -2.5065 -1.8248  1.7313
  111MOL0     H14966   3.080   4.419   2.540  0.5206 -1.1174 -0.9544
  111MOL0     H14967   3.715   3.838   1.914  0.1871 -0.0548  2.2597
  111MOL0     H14968   3.813   3.737   1.722  0.9214 -0.1165 -0.5680
  111MOL0     H14969   4.110   3.675   1.377 -1.3884 -0.7052 -1.5166
  111MOL0     H14970   4.167   3.521   1.222 -0.8934  0.1351  0.2633
  111MOL0     H14971   4.741   4.119   0.535  0.6083  3.4230 -1.8613
  111MOL0     H14972   4.862   4.212   0.357 -0.4146  1.8575  1.0552
  111MOL0     H14973   5.198   4.376   0.169  4.1546 -0.5567 -0.0616
  111MOL0     H14974   5.283   4.508  -0.020  1.3818 -0.7685  0.6694
  111MOL0     H14975   5.165   4.314  -0.386 -0.5743 -0.1789 -0.5939
  111MOL0     H14976   5.161   4.486  -0.417  1.7190  1.5304 -1.8066
  111MOL0     H14977   5.416   4.350  -0.460  0.3319  2.2209  2.6581
  111MOL0     H14978   5.365   4.511  -0.516 -0.3281 -0.4554 -0.8358
  111MOL0     H14979   5.249   4.242  -0.605  3.2171 -0.7945  2.2927
  111MOL0     H14980   5.380   4.309  -0.687 -1.0104 -0.6409 -1.3517
  111MOL0     H14981   5.240   4.414  -0.810  2.3887 -1.4093  1.3174
  111MOL0     H14982   5.192   4.533  -0.685 -0.4050 -0.4465  1.4423
  111MOL0     H14983   4.844   4.299  -0.688  0.6507 -2.5842 -0.3824
  111MOL0     H14984   5.226   4.163  -0.274  0.8319  0.0306  0.0174
  111MOL0     H14985   5.157   4.031  -0.083 -1.4696  0.8102 -0.9330
  112MOL0     O14986  10.451   5.455   2.614  0.5149 -0.3342  0.7473
  112MOL0     C14987  10.551   5.454   2.548 -1.0258 -0.5200 -0.1843
  112MOL0     O14988  10.577   5.516   2.427  0.2599  0.3038  0.6537
  112MOL0     C14989  10.480   5.598   2.368  0.0173 -1.7851  0.9022
  112MOL0     C14990  10.523   5.694   2.275  0.5363 -0.0810 -0.8427
  112MOL0     C14991  10.435   5.761   2.189 -0.1982 -0.6428 -0.1543
  112MOL0     C14992  10.297   5.737   2.195 -0.3231 -0.5609  0.0018
  112MOL0     O14993  10.217   5.801   2.110  0.2771  1.0161  0.5201
  112MOL0     C14994  10.107   5.870   2.147  0.0558  0.0136  1.4671
  112MOL0     C14995  10.097   5.995   2.070  0.4547 -0.2157  0.5932
  112MOL0     C14996  10.092   5.990   1.913 -0.3684  0.0937 -0.5812
  112MOL0     C14997  10.051   6.120   1.845  0.8023 -0.6500  0.1051
  112MOL0     C14998  10.008   6.113   1.697 -0.2459  0.6427  0.2415
  112MOL0     C14999   9.887   6.208   1.663  0.0261 -0.3727 -0.1353
  112MOL0     C15000   9.848   6.199   1.508  0.2936  0.2568 -0.3999
  112MOL0     C15001   9.726   6.273   1.473 -0.0348 -0.6418 -0.5713
  112MOL0     N15002   9.611   6.228   1.543  0.0923 -0.1823  0.0077
  112MOL0     C15003   9.560   6.099   1.525 -0.1128 -0.2643  0.5350
  112MOL0     C15004   9.463   6.100   1.617 -0.0548 -0.7456 -0.9214
  112MOL0     C15005   9.379   5.981   1.661 -0.6579 -0.2903 -1.1414
  112MOL0     C15006   9.233   6.024   1.681  0.8622 -0.3862 -0.3848
  112MOL0     C15007   9.168   5.894   1.736 -0.3405 -0.6726  0.2996
  112MOL0     C15008   9.015   5.924   1.729 -0.1225  0.2599 -0.0371
  112MOL0     O15009   8.941   5.847   1.826 -0.1810 -0.0514  0.5869
  112MOL0     C15010   8.958   5.895   1.955 -0.0969  0.2094  0.0421
  112MOL0     C15011   8.911   5.817   2.058 -0.6551 -0.3631 -0.4376
  112MOL0     C15012   8.914   5.845   2.197 -0.2381  0.0794  0.7866
  112MOL0     C15013   8.852   5.742   2.290  0.0063 -0.6202 -0.0039
  112MOL0     C15014   8.976   5.973   2.231  0.1398  0.0585  0.0519
  112MOL0     C15015   8.994   6.024   2.366 -0.0947  0.0357 -0.3876
  112MOL0     O15016   9.012   5.926   2.454  0.1699 -0.8220 -0.3298
  112MOL0     C15017   9.075   5.962   2.576 -0.2768  0.1998  0.9721
  112MOL0     C15018   9.205   6.000   2.576 -0.3425  0.0122  0.8998
  112MOL0     C15019   9.260   6.050   2.699  0.5877 -1.1306 -0.4162
  112MOL0     C15020   9.189   6.070   2.818  0.5222 -0.0773 -0.6253
  112MOL0     O15021   9.260   6.104   2.935 -0.2210 -0.4616  0.5186
  112MOL0     C15022   9.189   6.112   3.054 -0.0902  0.1221 -0.1446
  112MOL0     C15023   9.291   6.174   3.155  0.0934 -0.3229 -0.7473
  112MOL0     C15024   9.230   6.176   3.300 -0.1205  0.2178 -0.1357
  112MOL0     C15025   9.330   6.244   3.403 -0.9827  0.3435  0.6313
  112MOL0     C15026   9.259   6.255   3.541  0.3928  0.4212 -0.4905
  112MOL0     C15027   9.341   6.331   3.642 -0.3924 -0.3470 -1.0155
  112MOL0     C15028   9.345   6.485   3.628 -0.4120 -0.5563 -0.9191
  112MOL0     C15029   9.205   6.562   3.646 -0.7790  0.4317 -1.0140
  112MOL0    Cl15030   9.225   6.720   3.605 -0.5040  0.3586  0.4512
  112MOL0     C15031   9.061   6.025   2.813 -0.0343 -0.2181  0.3511
  112MOL0     C15032   9.005   5.971   2.695 -0.3307  1.0813  0.1229
  112MOL0     O15033   8.997   6.143   2.396  0.1781 -0.3443  0.0033
  112MOL0     C15034   9.007   6.064   2.127  0.1822  0.1713  0.0899
  112MOL0     C15035   9.016   6.023   1.996  0.2893 -0.0025  0.1191
  112MOL0     N15036   9.462   6.225   1.683  0.2256  0.3676  0.5185
  112MOL0     N15037   9.548   6.301   1.641 -0.2694  0.4215  0.1096
  112MOL0     C15038  10.254   5.638   2.279 -0.3679 -0.1570 -0.6107
  112MOL0     C15039  10.345   5.577   2.361  0.6798  0.4031 -0.2017
  112MOL0     C15040  10.673   5.392   2.604  0.0016 -0.6595  0.0223
  112MOL0     C15041  10.799   5.406   2.543  0.3156 -0.7116 -0.2686
  112MOL0     C15042  10.915   5.348   2.595  0.3813  0.5391  1.1145
  112MOL0     C15043  10.908   5.289   2.726 -0.2030 -0.5994  0.1387
  112MOL0     O15044  11.014   5.254   2.804 -0.4861  0.1201  1.0458
  112MOL0     C15045  11.148   5.270   2.744 -0.5533 -0.4388  0.1746
  112MOL0     C15046  11.255   5.209   2.826  0.5667  1.0918  0.1746
  112MOL0     C15047  11.240   5.053   2.845 -0.5612 -1.0080 -0.4250
  112MOL0     C15048  11.376   4.995   2.900 -0.1916 -0.4704 -0.1003
  112MOL0     C15049  11.403   5.045   3.040 -0.3248  0.1124  0.1998
  112MOL0     C15050  11.403   5.091   3.151  0.5870 -0.1654  0.4689
  112MOL0     C15051  10.780   5.272   2.786 -1.0215 -0.6319  0.4554
  112MOL0     C15052  10.674   5.326   2.722  0.7011 -0.0466  0.5617
  112MOL0     H15053  10.629   5.717   2.275  0.8835 -1.2018  2.2230
  112MOL0     H15054  10.464   5.840   2.120  0.1925 -0.6048  0.0492
  112MOL0     H15055  10.014   5.828   2.106 -0.8490  0.8415  2.6155
  112MOL0     H15056  10.095   5.886   2.254 -0.1568  0.6928  1.3430
  112MOL0     H15057  10.005   6.044   2.104  0.3665  0.4521 -0.5501
  112MOL0     H15058  10.183   6.059   2.097 -2.2704  4.9643 -1.5843
  112MOL0     H15059  10.186   5.952   1.871  0.5459  1.1732  0.4442
  112MOL0     H15060  10.018   5.917   1.876  0.3345 -1.7485  1.4465
  112MOL0     H15061   9.957   6.149   1.893  1.1041 -0.1388  0.3994
  112MOL0     H15062  10.133   6.191   1.862  1.4370 -2.1362  4.8087
  112MOL0     H15063  10.094   6.143   1.638 -0.6134  2.0895  0.4055
  112MOL0     H15064   9.981   6.010   1.672  0.1509  0.5299  0.2810
  112MOL0     H15065   9.789   6.191   1.710 -1.4878 -1.6050 -3.4213
  112MOL0     H15066   9.910   6.312   1.686  0.2457 -0.8417  1.9404
  112MOL0     H15067   9.928   6.250   1.456  0.5735  2.2401  1.7973
  112MOL0     H15068   9.851   6.099   1.464 -0.5995 -0.6626  1.4623
  112MOL0     H15069   9.709   6.259   1.366 -0.1094 -0.3784 -0.5937
  112MOL0     H15070   9.748   6.380   1.481  1.8067 -1.1407  2.4687
  112MOL0     H15071   9.592   6.016   1.463 -3.1800 -2.3564  1.4909
  112MOL0     H15072   9.396   5.905   1.584  1.9778 -2.0956  1.0084
  112MOL0     H15073   9.417   5.944   1.757 -1.6858 -1.3550 -1.1254
  112MOL0     H15074   9.197   6.062   1.585 -0.0645 -2.0884 -0.7361
  112MOL0     H15075   9.227   6.095   1.764  1.2151 -2.8320  1.8633
  112MOL0     H15076   9.188   5.870   1.841 -1.2348  0.7640  0.8376
  112MOL0     H15077   9.188   5.804   1.679  1.7098  0.7847 -1.4394
  112MOL0     H15078   8.970   5.906   1.631 -1.6581  2.5445  0.1738
  112MOL0     H15079   8.997   6.031   1.737 -0.6500  0.1511  0.2436
  112MOL0     H15080   8.872   5.721   2.024 -0.3601  0.1776 -2.4059
  112MOL0     H15081   8.932   5.698   2.350  1.7017  3.3294  0.9146
  112MOL0     H15082   8.783   5.782   2.366 -0.9300 -2.4883  0.2081
  112MOL0     H15083   8.792   5.664   2.242 -1.5585  0.0835  0.7167
  112MOL0     H15084   9.260   5.992   2.483 -0.7893  1.6104  0.4706
  112MOL0     H15085   9.363   6.078   2.679  0.0225  0.1595 -1.6795
  112MOL0     H15086   9.092   6.162   3.052 -0.1520  0.1617  1.9188
  112MOL0     H15087   9.163   6.011   3.085 -1.7638  0.1974 -1.1795
  112MOL0     H15088   9.371   6.100   3.155 -3.0613 -4.0477 -0.3491
  112MOL0     H15089   9.320   6.278   3.138  1.0405 -0.2984  0.7982
  112MOL0     H15090   9.211   6.076   3.340  0.0240 -0.5270 -1.8567
  112MOL0     H15091   9.130   6.219   3.301 -1.8106 -3.4026  0.1500
  112MOL0     H15092   9.415   6.176   3.411 -0.2195  1.4169  2.0959
  112MOL0     H15093   9.359   6.339   3.358  0.8341  1.8470  4.5306
  112MOL0     H15094   9.244   6.155   3.582  1.1427 -2.2094 -5.8251
  112MOL0     H15095   9.159   6.297   3.524 -0.8520 -2.2204 -0.1001
  112MOL0     H15096   9.295   6.309   3.738 -2.1325  0.9437 -1.4913
  112MOL0     H15097   9.438   6.283   3.630 -0.5477 -0.3420 -2.5731
  112MOL0     H15098   9.400   6.517   3.539  2.4493 -1.6251  0.3712
  112MOL0     H15099   9.407   6.520   3.711 -3.2608 -1.7299  1.8880
  112MOL0     H15100   9.187   6.550   3.754 -0.8256  0.3408 -1.0321
  112MOL0     H15101   9.136   6.514   3.576  0.2205 -1.6992 -0.6293
  112MOL0     H15102   8.991   6.028   2.896  0.4429  0.1506  0.7421
  112MOL0     H15103   8.903   5.936   2.690 -0.0393  0.2786 -0.7451
  112MOL0     H15104   9.026   6.168   2.149 -2.0984  1.8871 -4.7687
  112MOL0     H15105   9.045   6.098   1.923 -3.5532  0.9888 -0.6535
  112MOL0     H15106  10.150   5.609   2.288  0.1071 -2.0020 -0.6512
  112MOL0     H15107  10.322   5.497   2.432  2.5264  1.4475  1.6863
  112MOL0     H15108  10.795   5.463   2.451 -2.0557  0.5626  0.5473
  112MOL0     H15109  11.012   5.350   2.547 -0.8782  2.3080 -1.5709
  112MOL0     H15110  11.150   5.215   2.649  0.9831  1.4266 -0.9680
  112MOL0     H15111  11.175   5.375   2.729 -2.3000 -0.3207 -3.0301
  112MOL0     H15112  11.248   5.250   2.928  0.9276  0.4760  0.4499
  112MOL0     H15113  11.347   5.243   2.777  2.7035 -2.4714  1.3262
  112MOL0     H15114  11.231   5.004   2.748  4.0475 -1.2717 -0.9395
  112MOL0     H15115  11.159   5.029   2.914 -1.0889  0.2706 -0.5821
  112MOL0     H15116  11.462   5.016   2.836  0.1908  0.2169  0.6110
  112MOL0     H15117  11.379   4.886   2.903 -2.5390 -0.6583 -2.0143
  112MOL0     H15118  11.394   5.138   3.247  0.4512 -1.4051  1.0813
  112MOL0     H15119  10.763   5.231   2.885 -1.0312 -2.5175 -0.2788
  112MOL0     H15120  10.579   5.315   2.775  1.5712 -0.6726  2.0668
  113MOL0     O15121   8.320   2.042   3.337  0.2753 -0.5224  0.8328
  113MOL0     C15122   8.302   1.937   3.396  0.0222  0.5938  0.2831
  113MOL0     O15123   8.311   1.919   3.534 -0.2269  1.1899 -0.1136
  113MOL0     C15124   8.343   2.028   3.616 -0.2640  0.4558  0.5319
  113MOL0     C15125   8.468   2.065   3.672 -0.7930  0.5238 -0.1650
  113MOL0     C15126   8.471   2.188   3.737 -0.7420  0.2923 -0.4428
  113MOL0     C15127   8.355   2.267   3.755 -0.6238  0.6197  0.5760
  113MOL0     O15128   8.382   2.382   3.821  0.7686 -0.1982 -0.4967
  113MOL0     C15129   8.281   2.485   3.806  0.6094 -0.5146 -0.2656
  113MOL0     C15130   8.362   2.617   3.822  0.3189  0.2561  0.2807
  113MOL0     C15131   8.281   2.723   3.762 -0.2249 -0.0504 -0.0064
  113MOL0     C15132   8.333   2.867   3.786  0.7014 -0.5659 -0.0168
  113MOL0     C15133   8.237   2.983   3.761  0.2271 -1.5474  0.2914
  113MOL0     C15134   8.220   3.001   3.603 -0.6439 -0.2663 -0.4220
  113MOL0     C15135   8.330   3.095   3.548  0.2322  0.2113  0.1194
  113MOL0     C15136   8.376   3.066   3.406  0.5573  0.1819  0.3999
  113MOL0     N15137   8.396   2.930   3.367 -0.2919  0.0119 -0.8744
  113MOL0     C15138   8.507   2.856   3.409  0.3689 -0.3973  0.0965
  113MOL0     C15139   8.485   2.732   3.356  0.8581 -0.0079  0.6150
  113MOL0     C15140   8.541   2.603   3.408  0.1465  0.0225 -0.1674
  113MOL0     C15141   8.427   2.507   3.454 -0.0582  0.5182 -0.3778
  113MOL0     C15142   8.398   2.406   3.342 -0.1595 -0.0170  0.7589
  113MOL0     C15143   8.511   2.311   3.298  1.3474  0.1666 -0.2399
  113MOL0     O15144   8.601   2.361   3.190 -0.4889  0.5403  0.1977
  113MOL0     C15145   8.546   2.362   3.061 -0.2178  0.3820  0.1359
  113MOL0     C15146   8.591   2.471   2.990 -1.1349 -0.6817 -0.1675
  113MOL0     C15147   8.558   2.501   2.852  0.7029 -0.1448  0.0216
  113MOL0     C15148   8.633   2.613   2.781  0.1853 -0.6427 -0.0988
  113MOL0     C15149   8.445   2.432   2.806 -0.6934 -0.1061 -0.1901
  113MOL0     C15150   8.391   2.450   2.658  0.0603  0.2732  0.0523
  113MOL0     O15151   8.402   2.574   2.600  0.4665 -0.0433  0.3054
  113MOL0     C15152   8.329   2.598   2.483 -0.0531 -0.1018  0.1804
  113MOL0     C15153   8.377   2.695   2.390  1.0050  0.5525  0.5533
  113MOL0     C15154   8.311   2.713   2.265 -0.6042 -0.7571  0.5574
  113MOL0     C15155   8.187   2.643   2.239 -0.9714 -0.2309 -0.9670
  113MOL0     O15156   8.121   2.669   2.128 -0.0399 -0.1526  0.9633
  113MOL0     C15157   8.074   2.800   2.116  0.0925 -0.2520  0.2409
  113MOL0     C15158   7.969   2.788   2.020 -0.7181  0.4613 -0.4601
  113MOL0     C15159   7.852   2.697   2.067 -1.0502 -0.9733  0.4837
  113MOL0     C15160   7.768   2.660   1.940 -0.0739 -0.4881  0.2537
  113MOL0     C15161   7.626   2.591   1.967  0.0837  0.0307 -0.0224
  113MOL0     C15162   7.641   2.444   1.995  0.2947  0.5281  0.5720
  113MOL0     C15163   7.502   2.373   2.008  0.1523 -1.0850 -0.5414
  113MOL0     C15164   7.515   2.223   1.969 -0.1584 -0.6652 -0.1832
  113MOL0    Cl15165   7.476   2.204   1.795  0.5312  0.3387  0.3705
  113MOL0     C15166   8.144   2.554   2.336 -0.1039  0.4153 -0.2524
  113MOL0     C15167   8.212   2.529   2.454  0.7935 -0.6155  0.1096
  113MOL0     O15168   8.337   2.347   2.607 -0.5045 -0.2146  0.3916
  113MOL0     C15169   8.401   2.321   2.880 -0.4659  0.2355  0.5724
  113MOL0     C15170   8.455   2.279   3.000 -0.1377 -0.0818  0.1740
  113MOL0     N15171   8.365   2.742   3.285  0.2158  0.8076 -0.3028
  113MOL0     N15172   8.317   2.860   3.286  0.7220  0.6507 -0.1665
  113MOL0     C15173   8.231   2.226   3.697 -0.1499  1.0471  0.3540
  113MOL0     C15174   8.230   2.100   3.629  0.1460  0.3967  0.4595
  113MOL0     C15175   8.242   1.817   3.319 -0.5928 -0.4875 -0.0166
  113MOL0     C15176   8.258   1.681   3.363 -0.3914 -0.0291  0.5474
  113MOL0     C15177   8.190   1.575   3.305  0.3875  0.8265  0.3859
  113MOL0     C15178   8.108   1.595   3.191  0.8060  0.0409 -0.4392
  113MOL0     O15179   8.042   1.499   3.120 -0.3384  0.2691 -0.4131
  113MOL0     C15180   8.040   1.353   3.160 -0.5667 -0.4482 -0.7349
  113MOL0     C15181   7.912   1.285   3.094  0.6586 -0.2616 -0.7357
  113MOL0     C15182   7.899   1.319   2.954  0.5857 -0.1960  0.1782
  113MOL0     C15183   7.827   1.199   2.884 -0.7024  0.0257  0.0657
  113MOL0     C15184   7.930   1.096   2.854 -0.1812 -0.3956  0.6762
  113MOL0     C15185   8.024   1.035   2.832  0.5433  1.0631  0.0448
  113MOL0     C15186   8.087   1.723   3.154 -0.3278  0.3618 -0.1219
  113MOL0     C15187   8.152   1.833   3.222  0.8103 -0.0271  0.2013
  113MOL0     H15188   8.554   2.000   3.658 -0.3490  1.2325 -0.8205
  113MOL0     H15189   8.567   2.222   3.775 -0.9282 -0.2550  0.5786
  113MOL0     H15190   8.232   2.490   3.708  1.6872  1.5605 -0.7371
  113MOL0     H15191   8.200   2.469   3.878  1.4142  3.0336  1.6623
  113MOL0     H15192   8.381   2.619   3.930 -1.4339 -0.6589  0.6399
  113MOL0     H15193   8.460   2.620   3.772 -0.8479 -0.6897 -2.2011
  113MOL0     H15194   8.261   2.705   3.656 -0.6752  0.1486  0.0434
  113MOL0     H15195   8.191   2.726   3.824  0.3990  2.2136  0.8889
  113MOL0     H15196   8.373   2.873   3.888 -0.9237  2.0032  0.5765
  113MOL0     H15197   8.418   2.887   3.721 -0.6063 -1.2668 -2.0204
  113MOL0     H15198   8.137   2.968   3.803  0.2508 -0.2617  0.8718
  113MOL0     H15199   8.278   3.076   3.801 -1.9982 -1.2785  2.1506
  113MOL0     H15200   8.243   2.901   3.566  0.1296 -1.2585  2.4954
  113MOL0     H15201   8.120   3.032   3.572  0.8717  3.9056 -1.8869
  113MOL0     H15202   8.291   3.197   3.546  0.9327  0.8718  5.4955
  113MOL0     H15203   8.413   3.111   3.617 -1.2968  4.9474  1.2746
  113MOL0     H15204   8.471   3.120   3.396 -0.4256  2.1853  1.3995
  113MOL0     H15205   8.313   3.108   3.328 -0.3349  0.0220  1.0154
  113MOL0     H15206   8.591   2.882   3.472  3.9848 -0.9687 -4.0708
  113MOL0     H15207   8.613   2.545   3.350 -2.1285 -1.4478 -1.7232
  113MOL0     H15208   8.598   2.628   3.497  1.0535 -1.2601 -0.3639
  113MOL0     H15209   8.339   2.569   3.473 -1.4208 -1.4347 -0.0108
  113MOL0     H15210   8.449   2.448   3.544  1.1799  1.4010 -0.0726
  113MOL0     H15211   8.373   2.461   3.251  1.2271 -0.1722  0.2645
  113MOL0     H15212   8.323   2.336   3.381  1.8671 -1.5655  2.1202
  113MOL0     H15213   8.490   2.208   3.265  0.7948 -1.1126  3.6175
  113MOL0     H15214   8.568   2.296   3.390  1.3900  0.0410 -0.2864
  113MOL0     H15215   8.680   2.525   3.021  0.2449 -2.5930 -0.6139
  113MOL0     H15216   8.611   2.613   2.674  0.0149  0.3656 -0.0737
  113MOL0     H15217   8.604   2.711   2.819  4.0232  2.0706 -3.3137
  113MOL0     H15218   8.742   2.602   2.789  0.2830  1.0049  1.3363
  113MOL0     H15219   8.471   2.749   2.400  1.2360  0.1010  0.8472
  113MOL0     H15220   8.342   2.792   2.196  1.7689 -2.9437 -1.0877
  113MOL0     H15221   8.037   2.841   2.210  0.9850  1.9211 -0.2857
  113MOL0     H15222   8.157   2.864   2.085 -1.2005  0.9689 -0.8780
  113MOL0     H15223   7.932   2.890   2.008 -2.6719 -0.2078 -0.4149
  113MOL0     H15224   8.011   2.748   1.927 -0.1705  1.4867 -0.6653
  113MOL0     H15225   7.798   2.754   2.142 -1.0865 -2.0015  1.2642
  113MOL0     H15226   7.888   2.607   2.118  2.3657  0.0794  0.1858
  113MOL0     H15227   7.730   2.748   1.888  1.7980  0.0031 -0.3431
  113MOL0     H15228   7.832   2.588   1.888  0.5997 -2.0813  3.0835
  113MOL0     H15229   7.568   2.598   1.874 -4.5162  2.2583  2.7066
  113MOL0     H15230   7.566   2.648   2.039  0.4144 -1.0854  1.1658
  113MOL0     H15231   7.701   2.396   1.917  0.3035  2.4023 -0.6134
  113MOL0     H15232   7.693   2.434   2.091 -1.5245 -0.1653  1.5287
  113MOL0     H15233   7.431   2.430   1.946  3.7969  1.1425 -3.1034
  113MOL0     H15234   7.462   2.386   2.109  1.0585  1.2489 -0.4088
  113MOL0     H15235   7.445   2.166   2.031 -1.0909  1.1286  0.5090
  113MOL0     H15236   7.618   2.186   1.974 -1.4317 -4.7684 -1.2448
  113MOL0     H15237   8.047   2.513   2.311 -1.1953  0.7797  2.8904
  113MOL0     H15238   8.158   2.460   2.517 -3.0289 -0.4510 -2.6619
  113MOL0     H15239   8.319   2.278   2.823  0.6677  0.8821 -1.6412
  113MOL0     H15240   8.406   2.201   3.058 -0.5747  1.9440  2.7216
  113MOL0     H15241   8.136   2.277   3.704 -0.5114  0.9381 -2.5750
  113MOL0     H15242   8.142   2.090   3.566  0.1416  1.5227  0.2561
  113MOL0     H15243   8.309   1.675   3.459  1.8496 -0.8371 -0.6115
  113MOL0     H15244   8.196   1.480   3.358  0.7100  0.9034  0.4851
  113MOL0     H15245   8.128   1.298   3.126 -0.1698  1.2804 -2.7749
  113MOL0     H15246   8.024   1.342   3.268 -1.3260 -1.9961 -0.9766
  113MOL0     H15247   7.827   1.321   3.153  1.3797 -0.6560  0.5740
  113MOL0     H15248   7.915   1.180   3.122 -0.8162 -0.4632 -1.2390
  113MOL0     H15249   7.997   1.333   2.907  0.1123  1.8417 -0.3149
  113MOL0     H15250   7.841   1.410   2.937  1.9668  0.5048 -1.0467
  113MOL0     H15251   7.774   1.233   2.795  0.8232  1.5121 -0.3223
  113MOL0     H15252   7.756   1.165   2.960  2.8944 -1.6251  3.0505
  113MOL0     H15253   8.108   0.974   2.806 -0.1907  1.2937 -3.4431
  113MOL0     H15254   8.031   1.741   3.062  0.9379  5.7172 -0.1740
  113MOL0     H15255   8.145   1.933   3.180  0.3673 -0.4880 -0.8711
  114MOL0     O15256   7.688   3.005   1.399 -0.1122  0.6733 -0.2813
  114MOL0     C15257   7.769   2.959   1.310  0.0479 -0.7704  0.1801
  114MOL0     O15258   7.893   3.018   1.286  0.0457 -0.4328 -0.0680
  114MOL0     C15259   7.934   3.128   1.360 -0.1949 -0.3677  0.2837
  114MOL0     C15260   7.863   3.246   1.371  0.0825  0.3086  0.4647
  114MOL0     C15261   7.916   3.342   1.462 -0.2492  0.6237  0.4871
  114MOL0     C15262   8.041   3.330   1.521  0.9435  0.1577  1.3693
  114MOL0     O15263   8.077   3.432   1.605  0.9236  0.1082  0.4861
  114MOL0     C15264   8.217   3.469   1.613  0.5114  0.0704  0.3770
  114MOL0     C15265   8.280   3.415   1.743 -0.0624  0.1392 -0.4177
  114MOL0     C15266   8.218   3.487   1.869  0.7182 -0.0803  0.3481
  114MOL0     C15267   8.287   3.436   1.999  0.4041  0.4288  0.1102
  114MOL0     C15268   8.250   3.521   2.127 -0.2817 -0.4589  0.4450
  114MOL0     C15269   8.319   3.654   2.125 -0.0815  0.1289  0.0997
  114MOL0     C15270   8.261   3.742   2.237 -0.4658 -1.1331 -0.1794
  114MOL0     C15271   8.335   3.883   2.246  0.4100  1.0786 -0.0239
  114MOL0     N15272   8.249   3.971   2.330  0.6224 -0.1228  0.3813
  114MOL0     C15273   8.244   3.964   2.470  1.0638 -0.4580 -0.2606
  114MOL0     C15274   8.213   4.088   2.510  0.2413 -0.4313  0.1461
  114MOL0     C15275   8.184   4.146   2.646 -0.1011 -0.2254 -0.6510
  114MOL0     C15276   8.236   4.280   2.689 -0.6612  0.5642  0.7299
  114MOL0     C15277   8.391   4.280   2.700 -0.1266 -0.1375 -0.0856
  114MOL0     C15278   8.461   4.298   2.556  0.0862  0.2792  0.5613
  114MOL0     O15279   8.599   4.330   2.577 -0.2154  0.5794  0.6876
  114MOL0     C15280   8.697   4.233   2.592 -0.1337 -0.5598 -0.4478
  114MOL0     C15281   8.826   4.267   2.560  0.2522  0.9525  0.1839
  114MOL0     C15282   8.931   4.180   2.588 -0.4266 -0.6608 -0.1726
  114MOL0     C15283   9.057   4.241   2.551  0.0483  0.6811 -0.1476
  114MOL0     C15284   8.905   4.053   2.648  0.3483  0.8021 -0.6101
  114MOL0     C15285   9.002   3.948   2.674  0.4584  0.4313 -0.3619
  114MOL0     O15286   8.954   3.826   2.704 -0.3654  0.4219 -0.6624
  114MOL0     C15287   9.048   3.725   2.719  0.1704 -0.0183  0.0763
  114MOL0     C15288   9.103   3.672   2.601 -0.3152 -0.0808 -0.0225
  114MOL0     C15289   9.193   3.565   2.614 -1.1754 -0.4738 -0.2670
  114MOL0     C15290   9.232   3.511   2.740  0.9076 -0.6872 -0.1610
  114MOL0     O15291   9.312   3.399   2.740  0.4925 -0.1411  0.0367
  114MOL0     C15292   9.338   3.322   2.859 -0.5040  0.1161  0.3777
  114MOL0     C15293   9.324   3.174   2.820  0.5169  0.1780 -0.8973
  114MOL0     C15294   9.179   3.106   2.818 -0.0060 -0.3556 -0.4918
  114MOL0     C15295   9.120   3.067   2.949 -0.7945 -0.7052 -0.7124
  114MOL0     C15296   8.987   2.996   2.940  0.6654 -0.2036  0.8688
  114MOL0     C15297   8.934   2.971   3.079 -0.9799  0.9166  0.1521
  114MOL0     C15298   8.817   2.871   3.076  0.0921  0.4545  0.5193
  114MOL0     C15299   8.838   2.771   3.197  0.6656 -0.0975  0.2519
  114MOL0    Cl15300   8.852   2.867   3.355 -0.2526  0.2149  0.2255
  114MOL0     C15301   9.169   3.565   2.856 -0.4708  0.6244  0.8913
  114MOL0     C15302   9.072   3.670   2.842 -0.7361 -0.5459 -0.0089
  114MOL0     O15303   9.127   3.978   2.671  0.5944  0.2591  0.5295
  114MOL0     C15304   8.768   4.018   2.664 -1.8720  0.9125 -0.3609
  114MOL0     C15305   8.667   4.111   2.643 -0.6047  0.5104  0.3643
  114MOL0     N15306   8.196   4.169   2.398  0.2283 -0.2201 -0.4014
  114MOL0     N15307   8.223   4.101   2.291  1.3378 -0.0819 -0.3201
  114MOL0     C15308   8.112   3.211   1.500  0.9442 -0.6337 -0.0054
  114MOL0     C15309   8.058   3.111   1.415 -1.0684 -0.2546 -0.6163
  114MOL0     C15310   7.729   2.853   1.214  0.7553 -0.9755 -0.6808
  114MOL0     C15311   7.812   2.810   1.105 -0.0741  0.2466  0.1567
  114MOL0     C15312   7.762   2.707   1.012 -1.2275  0.5270  0.1564
  114MOL0     C15313   7.638   2.642   1.044 -0.3770 -0.5003  0.0445
  114MOL0     O15314   7.609   2.531   0.961  0.2084  0.0085  0.0711
  114MOL0     C15315   7.503   2.436   0.994 -0.7246 -2.0708 -0.0210
  114MOL0     C15316   7.543   2.306   0.930  0.3941 -0.5562  0.1909
  114MOL0     C15317   7.535   2.316   0.785 -0.1689 -0.2709  1.5298
  114MOL0     C15318   7.548   2.176   0.720  0.1467  0.4981  0.3844
  114MOL0     C15319   7.453   2.068   0.773  0.5780 -1.0263 -0.4269
  114MOL0     C15320   7.377   1.980   0.799  0.0832 -0.2658  0.9242
  114MOL0     C15321   7.571   2.685   1.157  0.8530 -0.0913 -0.2141
  114MOL0     C15322   7.608   2.793   1.233  0.4434 -0.3277  0.6149
  114MOL0     H15323   7.773   3.263   1.313  1.9994 -1.4643 -3.4062
  114MOL0     H15324   7.851   3.426   1.484 -0.9092  0.2074  0.1677
  114MOL0     H15325   8.274   3.427   1.530 -0.6413  0.0127 -0.4042
  114MOL0     H15326   8.218   3.578   1.608 -1.9641  0.1047 -0.4558
  114MOL0     H15327   8.259   3.308   1.756  0.3244  0.3279  2.3993
  114MOL0     H15328   8.387   3.436   1.737  1.0770 -4.5789 -0.7674
  114MOL0     H15329   8.235   3.594   1.855  2.2680 -0.5547 -1.9862
  114MOL0     H15330   8.110   3.473   1.872  0.0366  4.0963  0.4373
  114MOL0     H15331   8.247   3.337   2.025  0.3444  0.4131 -0.0454
  114MOL0     H15332   8.394   3.422   1.984 -0.3669 -2.6929 -4.7472
  114MOL0     H15333   8.143   3.540   2.137 -0.2649 -1.0912  2.1479
  114MOL0     H15334   8.280   3.482   2.224 -1.8384 -2.5011  0.1789
  114MOL0     H15335   8.429   3.654   2.130  0.4331 -2.8794 -4.7798
  114MOL0     H15336   8.290   3.706   2.034 -2.7314  1.2556  1.4857
  114MOL0     H15337   8.162   3.778   2.209  0.2293  0.0208 -1.2610
  114MOL0     H15338   8.288   3.686   2.327  3.5927 -2.6424 -2.0742
  114MOL0     H15339   8.334   3.926   2.145 -0.2581 -2.9644 -1.9547
  114MOL0     H15340   8.428   3.864   2.300 -0.4402  1.2680  1.5771
  114MOL0     H15341   8.265   3.887   2.544  0.0734  1.7158  2.4547
  114MOL0     H15342   8.077   4.166   2.641  0.0569  1.4471  1.4058
  114MOL0     H15343   8.203   4.073   2.725 -2.1644 -3.5336 -2.9995
  114MOL0     H15344   8.196   4.304   2.788  0.9765  1.6480  1.1676
  114MOL0     H15345   8.191   4.350   2.619 -2.8598 -1.9168 -0.5134
  114MOL0     H15346   8.427   4.189   2.747  0.6733  0.4687  0.5049
  114MOL0     H15347   8.415   4.362   2.769 -2.3715  0.0550  0.5604
  114MOL0     H15348   8.411   4.382   2.506 -0.2815  0.2130  0.8168
  114MOL0     H15349   8.443   4.215   2.487  1.4233  2.4657 -2.6638
  114MOL0     H15350   8.832   4.370   2.523 -1.1734  0.0093 -3.0463
  114MOL0     H15351   9.071   4.183   2.459  1.7693 -2.1438  1.7471
  114MOL0     H15352   9.054   4.350   2.543 -1.1465  0.9414  2.6131
  114MOL0     H15353   9.130   4.224   2.630  1.5782  0.9060 -1.4686
  114MOL0     H15354   9.098   3.726   2.508  1.5292  0.0018 -0.1112
  114MOL0     H15355   9.250   3.545   2.524  1.5802 -0.2489  1.3480
  114MOL0     H15356   9.440   3.339   2.896 -0.4421  0.6179 -0.0142
  114MOL0     H15357   9.270   3.335   2.944 -2.1153 -1.7006 -0.5574
  114MOL0     H15358   9.355   3.160   2.717 -0.0356 -0.0211 -1.0373
  114MOL0     H15359   9.383   3.122   2.896  0.7535 -0.0718 -1.2525
  114MOL0     H15360   9.180   3.012   2.761  0.3744 -0.0978 -0.9148
  114MOL0     H15361   9.108   3.172   2.767 -1.5470 -4.0579 -3.6802
  114MOL0     H15362   9.192   3.002   2.999 -3.3574 -0.8745  3.2096
  114MOL0     H15363   9.115   3.150   3.021  1.7380 -1.6244  0.6577
  114MOL0     H15364   9.002   2.898   2.893  1.3839  0.9563 -1.4948
  114MOL0     H15365   8.912   3.057   2.889 -0.0323  0.4972  2.6535
  114MOL0     H15366   9.017   2.929   3.138 -2.0673 -2.6507 -0.6593
  114MOL0     H15367   8.911   3.061   3.137  3.7785  1.0663  2.3323
  114MOL0     H15368   8.816   2.812   2.984  0.9479  1.1882  0.0224
  114MOL0     H15369   8.723   2.927   3.073 -0.8553 -1.1000 -1.2307
  114MOL0     H15370   8.930   2.712   3.188  1.4164  0.6306  2.5933
  114MOL0     H15371   8.762   2.692   3.197  0.7967 -0.2230  0.7662
  114MOL0     H15372   9.197   3.516   2.949  2.4323  0.6937  0.1658
  114MOL0     H15373   9.008   3.720   2.914 -2.2849  1.4379 -2.5903
  114MOL0     H15374   8.747   3.918   2.703 -0.0448  0.0029 -1.5608
  114MOL0     H15375   8.563   4.078   2.648 -0.1172 -0.8952  2.5014
  114MOL0     H15376   8.208   3.202   1.551  0.9149 -1.8859 -0.1426
  114MOL0     H15377   8.115   3.020   1.401 -0.5745  0.1244 -1.1442
  114MOL0     H15378   7.906   2.862   1.091  3.2869 -5.0786 -0.2593
  114MOL0     H15379   7.819   2.683   0.923 -1.7775  0.6662 -0.2350
  114MOL0     H15380   7.513   2.422   1.102  4.1205 -0.6899 -0.0635
  114MOL0     H15381   7.403   2.470   0.962  0.6310 -0.2501 -2.6974
  114MOL0     H15382   7.471   2.233   0.969 -0.1550 -1.1587 -1.8232
  114MOL0     H15383   7.646   2.288   0.960  0.5768 -0.3936 -0.3326
  114MOL0     H15384   7.611   2.385   0.747 -1.6340 -0.3169 -1.9033
  114MOL0     H15385   7.437   2.346   0.746  1.1483  0.8825 -1.1598
  114MOL0     H15386   7.649   2.140   0.743  0.6206  1.5759  0.0257
  114MOL0     H15387   7.534   2.185   0.612 -0.4549  0.7305  0.4783
  114MOL0     H15388   7.303   1.907   0.826  1.0057 -1.9927 -0.9684
  114MOL0     H15389   7.487   2.625   1.190  0.5911  0.6320  0.4748
  114MOL0     H15390   7.542   2.837   1.308 -1.6969  1.1898 -2.0068
  115MOL0     O15391  10.323   8.563   4.537 -0.4744  0.8771 -0.3856
  115MOL0     C15392  10.211   8.621   4.547 -0.0900 -0.2414 -1.0178
  115MOL0     O15393  10.103   8.603   4.468  0.9815 -0.4460 -0.2411
  115MOL0     C15394  10.121   8.515   4.359  1.0521  0.1514 -0.0175
  115MOL0     C15395  10.104   8.380   4.363  0.2343 -0.6460  0.0605
  115MOL0     C15396  10.113   8.301   4.250  0.1439  0.3071  0.7918
  115MOL0     C15397  10.161   8.359   4.133 -0.3157  0.1988  0.4841
  115MOL0     O15398  10.189   8.287   4.019 -0.3329  1.4016 -0.8444
  115MOL0     C15399  10.110   8.167   4.007 -0.6016  0.0941  0.9000
  115MOL0     C15400  10.121   8.115   3.861  0.4011  0.3993  0.9739
  115MOL0     C15401  10.270   8.078   3.813 -0.1141 -0.4213 -0.3298
  115MOL0     C15402  10.358   8.005   3.920  1.3280 -0.5976 -0.3102
  115MOL0     C15403  10.496   7.977   3.875 -0.0033 -0.1070  0.8754
  115MOL0     C15404  10.596   7.946   3.991 -0.1081 -0.4494  1.0394
  115MOL0     C15405  10.727   7.903   3.942 -1.3745 -0.0344 -0.9016
  115MOL0     C15406  10.733   7.766   3.863 -0.1630  0.2261  0.1143
  115MOL0     N15407  10.873   7.714   3.867  0.0358 -0.0432 -0.3678
  115MOL0     C15408  10.912   7.615   3.958  0.7276 -0.7272  1.4570
  115MOL0     C15409  11.043   7.595   3.931 -0.1254 -0.0870 -0.3891
  115MOL0     C15410  11.130   7.487   3.983  0.0323  0.2838 -0.4612
  115MOL0     C15411  11.119   7.357   3.898 -1.0691  0.5111  0.7874
  115MOL0     C15412  11.202   7.239   3.946  0.4264  0.2010  0.3608
  115MOL0     C15413  11.152   7.107   3.907 -0.0503  0.0386  0.0625
  115MOL0     O15414  11.219   7.005   3.979  0.2462 -0.8884  0.6640
  115MOL0     C15415  11.146   6.887   3.983 -0.5040 -0.0478  0.5233
  115MOL0     C15416  11.151   6.811   4.098  0.3204 -0.2116  0.4061
  115MOL0     C15417  11.060   6.706   4.121  0.0385  0.5454  0.2803
  115MOL0     C15418  11.102   6.632   4.245  0.0678  0.6258  1.3026
  115MOL0     C15419  10.970   6.667   4.018 -0.2966 -0.5177  0.6765
  115MOL0     C15420  10.882   6.550   4.043  0.0731 -0.4113  0.4922
  115MOL0     O15421  10.860   6.466   3.934 -0.5465 -0.0803  0.0218
  115MOL0     C15422  10.807   6.348   3.956 -0.0364 -0.3460 -0.4385
  115MOL0     C15423  10.886   6.252   3.901 -0.1656  0.3728  0.1766
  115MOL0     C15424  10.845   6.124   3.910  0.7755  0.4040  0.5019
  115MOL0     C15425  10.722   6.091   3.969  0.4031  0.5598  0.0327
  115MOL0     O15426  10.695   5.955   3.968  0.2114 -0.3099  0.8420
  115MOL0     C15427  10.598   5.907   4.063  0.7918  0.1076  0.2686
  115MOL0     C15428  10.605   5.760   4.060  0.3027  0.4206  0.6119
  115MOL0     C15429  10.560   5.693   3.914 -0.6186 -0.5980 -0.1702
  115MOL0     C15430  10.688   5.641   3.849  0.1754  0.4260 -0.4160
  115MOL0     C15431  10.641   5.577   3.711 -0.4557  0.1775  1.0058
  115MOL0     C15432  10.757   5.564   3.614 -1.0473  0.5174 -0.2083
  115MOL0     C15433  10.708   5.530   3.477  0.0188  1.1462  0.2656
  115MOL0     C15434  10.742   5.402   3.400 -0.3815  0.3127  0.6909
  115MOL0    Cl15435  10.721   5.248   3.497 -0.6521 -0.4935  0.5190
  115MOL0     C15436  10.643   6.191   4.021  1.2157  0.5120  0.2183
  115MOL0     C15437  10.679   6.325   4.016  0.1945  1.4420 -1.1069
  115MOL0     O15438  10.837   6.536   4.157  0.4721  0.0423  0.3387
  115MOL0     C15439  10.980   6.732   3.889  0.5042 -0.3402 -0.3070
  115MOL0     C15440  11.058   6.841   3.875  1.0306 -0.4877 -0.5148
  115MOL0     N15441  11.076   7.674   3.825  0.3435 -0.6803 -0.4258
  115MOL0     N15442  10.971   7.750   3.791 -0.3234 -0.3638 -0.7459
  115MOL0     C15443  10.202   8.494   4.127  0.0269 -0.5003 -0.3089
  115MOL0     C15444  10.175   8.575   4.241  0.4047  0.8306  0.4588
  115MOL0     C15445  10.203   8.735   4.648  0.7336 -0.4031 -0.0367
  115MOL0     C15446  10.082   8.791   4.689 -0.0417 -0.3186 -0.3455
  115MOL0     C15447  10.081   8.870   4.811 -0.1053  0.4951 -0.1383
  115MOL0     C15448  10.190   8.910   4.879  0.7069 -0.6167 -0.0140
  115MOL0     O15449  10.173   9.013   4.974  0.1496  0.2874  0.5635
  115MOL0     C15450  10.216   8.995   5.105 -0.1969  0.6062 -0.1217
  115MOL0     C15451  10.095   8.951   5.190 -0.9337 -0.8055 -0.4115
  115MOL0     C15452  10.145   8.907   5.331  0.2504 -0.2209 -0.0710
  115MOL0     C15453  10.021   8.872   5.419 -0.8062  0.9817 -0.4895
  115MOL0     C15454  10.063   8.831   5.566  0.1676 -0.6644 -0.8142
  115MOL0     C15455  10.092   8.788   5.682  0.3585  0.9527  0.5993
  115MOL0     C15456  10.313   8.873   4.817 -0.1401  0.6933 -0.4907
  115MOL0     C15457  10.324   8.785   4.703  0.0234 -0.1678  0.0284
  115MOL0     H15458  10.066   8.332   4.452 -1.8010  0.5131 -0.1346
  115MOL0     H15459  10.087   8.197   4.258  0.6392  0.1685  0.6636
  115MOL0     H15460  10.155   8.085   4.064  1.4997  1.8997  2.0047
  115MOL0     H15461  10.011   8.183   4.049 -0.1686 -3.4747  3.7306
  115MOL0     H15462  10.066   8.025   3.833  0.5768  0.6043 -0.0879
  115MOL0     H15463  10.085   8.194   3.794  0.6881 -1.1660 -1.1485
  115MOL0     H15464  10.261   8.009   3.728  0.3107 -1.9846  0.8512
  115MOL0     H15465  10.332   8.163   3.785  0.5708 -0.2934  1.4287
  115MOL0     H15466  10.357   8.081   4.000 -0.6043  0.6806 -1.4613
  115MOL0     H15467  10.316   7.912   3.960  0.5095 -0.3142 -0.4954
  115MOL0     H15468  10.501   7.891   3.808  0.0552  1.1768 -0.8601
  115MOL0     H15469  10.541   8.066   3.829 -0.5362  0.4101  1.3341
  115MOL0     H15470  10.608   8.031   4.059 -1.2453 -0.4616  1.2858
  115MOL0     H15471  10.539   7.874   4.052 -1.0002  1.8704  3.1601
  115MOL0     H15472  10.773   7.971   3.869 -0.1285 -0.8039 -0.8794
  115MOL0     H15473  10.795   7.901   4.027 -1.5289 -1.9620 -0.7720
  115MOL0     H15474  10.692   7.776   3.762  0.9655  0.5946 -0.3227
  115MOL0     H15475  10.667   7.690   3.906 -1.3385  0.2026 -1.6362
  115MOL0     H15476  10.838   7.565   4.020 -0.7150 -1.0682 -0.4505
  115MOL0     H15477  11.234   7.520   3.984  0.8229 -1.7935  2.7837
  115MOL0     H15478  11.099   7.471   4.087  0.2198  2.3338 -0.0407
  115MOL0     H15479  11.138   7.375   3.792  0.0265 -1.1203  0.6735
  115MOL0     H15480  11.014   7.327   3.896 -0.3755 -2.1168  0.0811
  115MOL0     H15481  11.186   7.252   4.053 -3.6155  0.1008 -0.0752
  115MOL0     H15482  11.304   7.263   3.916 -0.6337  0.9786 -3.0570
  115MOL0     H15483  11.157   7.095   3.798 -0.4158 -0.9126  0.1396
  115MOL0     H15484  11.047   7.119   3.934  0.1394  0.1648  0.7505
  115MOL0     H15485  11.220   6.848   4.173  1.1152  0.9114 -0.8534
  115MOL0     H15486  11.115   6.701   4.329  0.3894  1.9795  0.1789
  115MOL0     H15487  11.027   6.558   4.275  0.8287  0.1130  1.9413
  115MOL0     H15488  11.191   6.581   4.208  0.9121  3.5374 -1.0638
  115MOL0     H15489  10.985   6.266   3.860  0.7995 -1.8393  1.5732
  115MOL0     H15490  10.913   6.046   3.878 -0.5625  0.1698 -2.0789
  115MOL0     H15491  10.616   5.944   4.164 -1.2034  0.9206  0.3889
  115MOL0     H15492  10.490   5.922   4.049  0.7173 -0.9045 -0.3204
  115MOL0     H15493  10.708   5.735   4.088  0.7531  1.0859 -0.3965
  115MOL0     H15494  10.538   5.723   4.138 -0.1024 -2.4111 -0.9898
  115MOL0     H15495  10.520   5.773   3.850 -2.6139 -1.5841 -0.2368
  115MOL0     H15496  10.480   5.618   3.915 -1.3884  0.1500  3.1061
  115MOL0     H15497  10.769   5.711   3.830  0.1781 -0.6159 -5.8309
  115MOL0     H15498  10.711   5.557   3.914 -2.6022 -0.2655 -0.1843
  115MOL0     H15499  10.566   5.649   3.676 -0.1086  0.2834  0.4547
  115MOL0     H15500  10.582   5.486   3.727 -1.8802  0.7077 -0.8814
  115MOL0     H15501  10.826   5.648   3.626  0.6266 -1.1641  6.2967
  115MOL0     H15502  10.826   5.484   3.644 -0.7446  1.0346  0.5114
  115MOL0     H15503  10.718   5.615   3.408  0.2297  2.3056  1.6766
  115MOL0     H15504  10.600   5.518   3.488  0.2481  1.1336  3.0361
  115MOL0     H15505  10.850   5.407   3.379 -0.6047 -1.9272 -1.4609
  115MOL0     H15506  10.692   5.403   3.303  1.1517  1.6517 -0.1343
  115MOL0     H15507  10.545   6.173   4.066  0.9291  4.3206  1.4937
  115MOL0     H15508  10.613   6.406   4.041 -3.1269 -0.9067 -1.6408
  115MOL0     H15509  10.931   6.699   3.798 -0.2416  0.2547 -0.1279
  115MOL0     H15510  11.058   6.885   3.776 -0.8909 -3.2514 -1.8775
  115MOL0     H15511  10.251   8.533   4.038  1.1777 -0.7434  0.1926
  115MOL0     H15512  10.209   8.679   4.240  1.0000  0.6399 -0.5499
  115MOL0     H15513   9.982   8.774   4.652  0.3007 -0.9087 -1.0219
  115MOL0     H15514   9.980   8.904   4.833 -0.0927  0.6417 -0.3084
  115MOL0     H15515  10.285   8.911   5.096  1.0493  1.6542 -0.8274
  115MOL0     H15516  10.264   9.083   5.150  0.0814  1.0839 -1.2984
  115MOL0     H15517  10.023   8.876   5.158 -1.0009 -1.9116  2.0923
  115MOL0     H15518  10.040   9.046   5.197 -0.5712 -0.3173 -3.0263
  115MOL0     H15519  10.206   8.984   5.379  2.5048 -2.5417  1.0184
  115MOL0     H15520  10.205   8.817   5.317 -2.3261 -1.9374 -0.9232
  115MOL0     H15521   9.960   8.794   5.375 -0.5593  0.8450 -0.5911
  115MOL0     H15522   9.962   8.964   5.412 -3.1303 -0.4419 -0.6182
  115MOL0     H15523  10.122   8.750   5.777 -1.5733 -2.5870 -0.0409
  115MOL0     H15524  10.405   8.907   4.865  1.8809  0.3886 -3.7929
  115MOL0     H15525  10.420   8.745   4.670 -0.1763 -0.3763 -0.3150
  116MOL0     O15526   7.819   7.175   3.146  0.1086  1.1270  0.2388
  116MOL0     C15527   7.934   7.195   3.185  0.0693 -0.1026  0.5972
  116MOL0     O15528   7.992   7.136   3.302 -0.5138  0.2663  0.6709
  116MOL0     C15529   7.913   7.069   3.394 -0.6684 -1.1575  0.1718
  116MOL0     C15530   7.822   6.976   3.358  0.1151  0.9239  0.1101
  116MOL0     C15531   7.752   6.918   3.461 -0.0385  0.6331 -1.0040
  116MOL0     C15532   7.791   6.928   3.595 -0.0568 -0.3463  0.3725
  116MOL0     O15533   7.715   6.872   3.699 -0.3906 -0.9352 -0.3904
  116MOL0     C15534   7.781   6.760   3.765  0.1606  0.1829  0.4487
  116MOL0     C15535   7.692   6.631   3.729 -0.5252 -1.3636 -0.0611
  116MOL0     C15536   7.752   6.515   3.811 -0.1093 -0.4060  0.3260
  116MOL0     C15537   7.653   6.392   3.808 -0.4808 -0.1432  1.2464
  116MOL0     C15538   7.680   6.303   3.682 -0.4304  0.1474  0.2653
  116MOL0     C15539   7.818   6.226   3.695 -0.1939  0.7851  0.1028
  116MOL0     C15540   7.807   6.109   3.602  0.1970 -0.2499  0.5488
  116MOL0     C15541   7.940   6.026   3.601  0.9205  0.9718 -0.2621
  116MOL0     N15542   7.929   5.888   3.549  0.3157 -0.0455 -0.2390
  116MOL0     C15543   8.018   5.788   3.561 -0.7197  0.0600  0.3589
  116MOL0     C15544   7.964   5.669   3.525 -0.5722  0.2819  0.7789
  116MOL0     C15545   8.028   5.537   3.510  0.9288 -0.2435 -0.0615
  116MOL0     C15546   8.012   5.457   3.649 -0.1018 -0.0638  0.1287
  116MOL0     C15547   8.120   5.474   3.752  0.1548 -0.6700 -0.5586
  116MOL0     C15548   8.088   5.386   3.874  0.8762  0.0276  1.0644
  116MOL0     O15549   7.963   5.416   3.933 -0.5828  0.2040  0.0773
  116MOL0     C15550   7.909   5.323   4.013  0.2171 -0.0534 -0.2755
  116MOL0     C15551   7.770   5.329   4.041 -0.2826 -0.3138  0.0908
  116MOL0     C15552   7.696   5.236   4.124  0.4694 -0.7454  0.8595
  116MOL0     C15553   7.547   5.260   4.135 -0.3185 -0.2953 -0.1326
  116MOL0     C15554   7.769   5.132   4.187  0.2516  0.4465 -0.9892
  116MOL0     C15555   7.706   5.028   4.277  0.2997 -0.8616 -0.4210
  116MOL0     O15556   7.765   4.998   4.397 -0.4414 -0.7735  0.7638
  116MOL0     C15557   7.718   4.885   4.460  0.4753 -0.1228  0.1683
  116MOL0     C15558   7.800   4.768   4.467 -0.4552  0.0452  0.3897
  116MOL0     C15559   7.768   4.660   4.537  0.8300 -0.0457 -0.2587
  116MOL0     C15560   7.639   4.644   4.600  0.1523 -0.0869 -0.7923
  116MOL0     O15561   7.616   4.527   4.662 -0.1923  0.5167 -0.0579
  116MOL0     C15562   7.644   4.516   4.804  0.3213  0.3292  1.2703
  116MOL0     C15563   7.569   4.398   4.871  0.8322  0.5417 -0.5889
  116MOL0     C15564   7.573   4.415   5.020  0.1438 -0.0996 -0.9877
  116MOL0     C15565   7.528   4.289   5.098  0.0688  0.6441 -0.0675
  116MOL0     C15566   7.536   4.293   5.254  0.3973  0.0980 -0.6872
  116MOL0     C15567   7.517   4.145   5.309 -0.4834  0.3092 -1.2347
  116MOL0     C15568   7.481   4.125   5.460 -0.3344  0.1974 -0.0770
  116MOL0     C15569   7.593   4.179   5.543 -0.6913 -0.0946  0.4019
  116MOL0    Cl15570   7.735   4.051   5.531 -0.3031  0.1307 -0.1746
  116MOL0     C15571   7.550   4.755   4.596  0.3863 -0.2522 -0.0674
  116MOL0     C15572   7.594   4.873   4.528 -0.4490  1.2660  0.0596
  116MOL0     O15573   7.614   4.963   4.226  0.4715  0.0888 -0.2161
  116MOL0     C15574   7.915   5.139   4.177 -0.6139  0.7310  0.0348
  116MOL0     C15575   7.979   5.230   4.092  0.7701 -0.0944  0.2668
  116MOL0     N15576   7.840   5.700   3.486  0.2929  0.1378 -0.0097
  116MOL0     N15577   7.818   5.824   3.499  0.4282 -0.4299 -0.5994
  116MOL0     C15578   7.888   7.025   3.628 -0.5561 -0.0330 -0.6798
  116MOL0     C15579   7.945   7.099   3.524 -0.1326  0.3549 -0.1577
  116MOL0     C15580   8.026   7.281   3.095  0.4056  0.2466  0.0737
  116MOL0     C15581   8.140   7.336   3.159  0.7270  0.1314 -0.1576
  116MOL0     C15582   8.216   7.431   3.104 -0.3851 -0.0518 -0.0731
  116MOL0     C15583   8.192   7.472   2.978  0.3040  0.1713 -0.0485
  116MOL0     O15584   8.269   7.573   2.913 -0.2000 -0.3090 -0.3111
  116MOL0     C15585   8.320   7.672   2.994 -0.3726  0.7319 -0.0676
  116MOL0     C15586   8.366   7.796   2.907 -0.3128 -0.8398 -0.3306
  116MOL0     C15587   8.500   7.787   2.828  0.5338 -0.1333 -0.3858
  116MOL0     C15588   8.545   7.927   2.775  0.9551 -0.0378 -0.6827
  116MOL0     C15589   8.551   7.939   2.637 -0.5798  0.1973 -0.0481
  116MOL0     C15590   8.570   7.944   2.512 -0.3630  0.1883  0.3448
  116MOL0     C15591   8.093   7.414   2.901  0.0840  0.4009 -0.4736
  116MOL0     C15592   7.995   7.326   2.964 -0.5756 -0.1002  0.3721
  116MOL0     H15593   7.811   6.941   3.256 -2.2862  2.5649 -0.2897
  116MOL0     H15594   7.676   6.845   3.436  1.8888 -2.0007  0.3289
  116MOL0     H15595   7.887   6.749   3.741  0.0940 -0.7560  0.5500
  116MOL0     H15596   7.787   6.793   3.869  2.0895 -0.6788  0.6456
  116MOL0     H15597   7.587   6.647   3.754 -0.3459  0.5626 -0.4141
  116MOL0     H15598   7.709   6.613   3.622 -0.5069  0.9940 -0.5006
  116MOL0     H15599   7.853   6.501   3.772 -0.9379  1.1142 -2.7195
  116MOL0     H15600   7.756   6.547   3.915 -1.2721 -0.1458  0.3064
  116MOL0     H15601   7.661   6.331   3.899 -2.2967 -2.8036 -0.2403
  116MOL0     H15602   7.548   6.422   3.806 -0.4422  0.0712  1.9308
  116MOL0     H15603   7.602   6.226   3.677  1.1263 -1.4838  0.0143
  116MOL0     H15604   7.675   6.360   3.589 -2.0227 -0.8255 -0.2976
  116MOL0     H15605   7.903   6.293   3.675 -0.5475  0.5232 -2.6482
  116MOL0     H15606   7.841   6.185   3.794 -2.1751  2.3426  1.2811
  116MOL0     H15607   7.725   6.043   3.633 -2.9646  0.5564 -4.7947
  116MOL0     H15608   7.772   6.152   3.508 -0.3036 -1.3569  0.2061
  116MOL0     H15609   7.975   6.026   3.704 -0.0979 -2.9650  0.2740
  116MOL0     H15610   8.016   6.071   3.536  1.7363  1.5254  1.0481
  116MOL0     H15611   8.120   5.798   3.597  0.0882 -0.7275 -1.5953
  116MOL0     H15612   7.994   5.489   3.418  4.3322  1.5741 -2.5265
  116MOL0     H15613   8.135   5.550   3.490  0.9878  3.2446  1.6911
  116MOL0     H15614   8.013   5.353   3.615 -0.5289 -0.4793  1.3377
  116MOL0     H15615   7.915   5.471   3.697  0.2828 -0.8849  1.1703
  116MOL0     H15616   8.123   5.574   3.796  3.4868 -0.9511  0.1123
  116MOL0     H15617   8.215   5.449   3.705  1.2654  3.7624 -1.1291
  116MOL0     H15618   8.171   5.404   3.944  1.6082  0.1253  0.2026
  116MOL0     H15619   8.083   5.279   3.853 -2.6544 -0.1648  2.3044
  116MOL0     H15620   7.722   5.408   3.983  1.4812 -0.0097 -1.0540
  116MOL0     H15621   7.499   5.247   4.038 -0.7900  0.8499 -0.0608
  116MOL0     H15622   7.503   5.193   4.209  1.4271 -0.6060  0.6937
  116MOL0     H15623   7.521   5.355   4.182 -1.8158 -0.4173 -0.6686
  116MOL0     H15624   7.896   4.772   4.417 -0.1559 -0.3458  0.9199
  116MOL0     H15625   7.823   4.566   4.536 -3.9614 -3.2141 -2.2631
  116MOL0     H15626   7.752   4.512   4.817  0.3531 -0.4466  0.8322
  116MOL0     H15627   7.616   4.608   4.857 -2.4103  0.7571 -0.6701
  116MOL0     H15628   7.468   4.404   4.829  1.8174 -1.3574 -3.5297
  116MOL0     H15629   7.613   4.302   4.843  0.2600 -1.1108  3.5327
  116MOL0     H15630   7.509   4.501   5.042 -0.7326 -0.5157 -1.7866
  116MOL0     H15631   7.678   4.431   5.043  0.2843 -2.2746  0.1346
  116MOL0     H15632   7.428   4.255   5.067  0.2445 -0.7687  0.8303
  116MOL0     H15633   7.616   4.226   5.084 -0.1627  0.3527 -0.2308
  116MOL0     H15634   7.453   4.354   5.293  0.6676 -0.2414  0.4647
  116MOL0     H15635   7.624   4.336   5.303  0.5500 -1.9668  1.0210
  116MOL0     H15636   7.431   4.094   5.266  0.0410 -0.6313 -1.1971
  116MOL0     H15637   7.605   4.082   5.290 -0.1500  0.2931  0.2381
  116MOL0     H15638   7.480   4.020   5.490 -0.6658  1.1752  3.9454
  116MOL0     H15639   7.384   4.166   5.491 -0.1208  1.2900 -0.8019
  116MOL0     H15640   7.560   4.203   5.645  0.3679  4.1285 -0.0469
  116MOL0     H15641   7.641   4.271   5.508  2.6055 -0.8534  2.4816
  116MOL0     H15642   7.454   4.750   4.648  0.1902  3.0620  0.1003
  116MOL0     H15643   7.523   4.955   4.517 -0.7193  1.2146  1.2959
  116MOL0     H15644   7.982   5.068   4.223 -1.1539  0.7593  0.8933
  116MOL0     H15645   8.085   5.214   4.076  0.1191 -1.2734 -4.1970
  116MOL0     H15646   7.922   7.029   3.731 -0.2996  1.4100 -0.7976
  116MOL0     H15647   8.020   7.174   3.549 -0.7128  2.0834 -3.1308
  116MOL0     H15648   8.166   7.313   3.262  0.1527 -2.3639 -0.4910
  116MOL0     H15649   8.294   7.482   3.159  2.1186 -3.2324 -0.3195
  116MOL0     H15650   8.256   7.708   3.075 -1.3742  0.1043 -0.5617
  116MOL0     H15651   8.406   7.634   3.051 -0.6079 -0.2021 -0.3098
  116MOL0     H15652   8.376   7.877   2.980  3.8549  0.3159 -1.8954
  116MOL0     H15653   8.286   7.828   2.839 -0.1113 -1.5837 -0.9175
  116MOL0     H15654   8.482   7.710   2.752 -3.0200  2.7465 -2.8419
  116MOL0     H15655   8.580   7.754   2.894  0.6954 -1.7721 -1.3572
  116MOL0     H15656   8.641   7.961   2.815 -0.5367 -0.5160  3.8961
  116MOL0     H15657   8.480   8.011   2.804  1.0059 -0.4150  0.5829
  116MOL0     H15658   8.566   7.948   2.405  1.1006  0.7305  0.2850
  116MOL0     H15659   8.064   7.441   2.800  3.2458 -1.0681 -1.9345
  116MOL0     H15660   7.906   7.290   2.914 -0.9029  0.7753  0.3046
  117MOL0     O15661  10.951   8.028  10.038  0.5970 -0.7063  0.0656
  117MOL0     C15662  11.029   8.112  10.008  0.1531  0.0789 -0.0024
  117MOL0     O15663  11.008   8.209   9.917  0.5418 -0.2867  0.0174
  117MOL0     C15664  10.885   8.206   9.852  0.4937 -0.0088 -0.7537
  117MOL0     C15665  10.834   8.335   9.841 -0.6771 -0.0523 -0.1710
  117MOL0     C15666  10.713   8.356   9.775 -0.2112 -0.7693  0.3972
  117MOL0     C15667  10.643   8.254   9.724  0.5312  0.1967  0.0708
  117MOL0     O15668  10.517   8.283   9.684 -0.8365 -0.4831  0.2982
  117MOL0     C15669  10.430   8.188   9.627  0.2536 -0.0298  0.1274
  117MOL0     C15670  10.300   8.250   9.557 -0.3813  0.8773  0.2972
  117MOL0     C15671  10.303   8.379   9.484 -0.1403 -0.4485 -0.0835
  117MOL0     C15672  10.413   8.380   9.383 -0.2543 -0.5261 -0.3553
  117MOL0     C15673  10.374   8.308   9.257 -0.3806  0.1528  0.1193
  117MOL0     C15674  10.248   8.359   9.176  0.4867  0.1928 -0.7733
  117MOL0     C15675  10.220   8.283   9.049 -0.0275  0.7470  0.2980
  117MOL0     C15676  10.323   8.311   8.936  1.1006 -0.2934 -0.4655
  117MOL0     N15677  10.279   8.266   8.806  0.2897  0.4334 -0.0586
  117MOL0     C15678  10.172   8.315   8.739 -0.4689  0.8338  0.3575
  117MOL0     C15679  10.174   8.234   8.625  1.2891 -0.4574  0.5084
  117MOL0     C15680  10.063   8.239   8.515 -0.3800 -0.6491 -0.4131
  117MOL0     C15681  10.067   8.113   8.420 -0.5731  0.9639 -0.2531
  117MOL0     C15682   9.922   8.082   8.388  0.7523  0.6974  0.2930
  117MOL0     C15683   9.876   7.963   8.298  0.2562  0.2303  0.5086
  117MOL0     O15684   9.944   7.973   8.169  0.0805 -0.4493 -0.3752
  117MOL0     C15685   9.906   7.890   8.062 -0.0892  0.5389  0.0240
  117MOL0     C15686   9.960   7.757   8.067  0.9836  0.0664  0.4115
  117MOL0     C15687   9.932   7.665   7.961 -0.6695 -0.4165  0.8249
  117MOL0     C15688   9.977   7.513   7.971  0.5830  0.4014  0.0697
  117MOL0     C15689   9.873   7.714   7.841 -0.1922 -0.6790 -0.3181
  117MOL0     C15690   9.842   7.631   7.723  0.8147  0.0280  0.5090
  117MOL0     O15691   9.898   7.495   7.709  0.5502 -0.2393 -0.0933
  117MOL0     C15692   9.837   7.395   7.621 -0.6474 -0.1221 -0.3068
  117MOL0     C15693   9.709   7.396   7.570  0.9429 -1.2524 -0.3580
  117MOL0     C15694   9.662   7.305   7.477  0.3540  0.5422 -0.3562
  117MOL0     C15695   9.744   7.209   7.428 -0.0513  0.1290  0.3337
  117MOL0     O15696   9.703   7.130   7.323 -0.0830  0.1780  0.0734
  117MOL0     C15697   9.787   7.092   7.204  0.4534 -0.2306 -0.1051
  117MOL0     C15698   9.719   7.127   7.075  1.1498  0.2262  0.9074
  117MOL0     C15699   9.804   7.088   6.948 -0.2652  0.3576 -0.3751
  117MOL0     C15700   9.716   7.110   6.827 -0.3056 -0.1965 -0.1196
  117MOL0     C15701   9.783   7.086   6.690  0.0058  0.3580 -0.2771
  117MOL0     C15702   9.912   7.165   6.682  0.1559  0.8773  0.3203
  117MOL0     C15703   9.972   7.139   6.551  0.4877 -0.6302 -0.1710
  117MOL0     C15704  10.100   7.221   6.519 -0.1136  0.2273 -0.4292
  117MOL0    Cl15705  10.064   7.385   6.484  0.2158 -0.3206  0.5018
  117MOL0     C15706   9.860   7.186   7.487 -0.6695 -0.3845 -1.1333
  117MOL0     C15707   9.910   7.279   7.583  0.8189 -0.2972  0.1764
  117MOL0     O15708   9.774   7.681   7.639  0.6728  0.4949  0.4948
  117MOL0     C15709   9.826   7.848   7.841  0.2984  0.5009 -0.7133
  117MOL0     C15710   9.845   7.937   7.948  0.8825  0.7490  0.2595
  117MOL0     N15711  10.283   8.146   8.629  0.4193  0.2770  0.9875
  117MOL0     N15712  10.338   8.158   8.739 -1.3175 -0.2160 -0.9458
  117MOL0     C15713  10.693   8.122   9.732  0.3032 -0.7225 -0.9337
  117MOL0     C15714  10.811   8.103   9.804  0.3433 -0.9075 -0.3164
  117MOL0     C15715  11.167   8.110  10.055  0.5711  0.2800  0.9311
  117MOL0     C15716  11.248   7.998  10.046 -0.3617  0.7547 -0.0200
  117MOL0     C15717  11.379   8.001  10.093  0.8582 -0.7277  0.9207
  117MOL0     C15718  11.435   8.110  10.158 -0.0407  0.9014 -0.5594
  117MOL0     O15719  11.559   8.091  10.222 -0.0619  0.2057  0.7521
  117MOL0     C15720  11.555   8.089  10.367 -0.5054  0.2560  0.0655
  117MOL0     C15721  11.550   8.229  10.428  0.2346 -0.0015  0.0054
  117MOL0     C15722  11.652   8.334  10.371 -0.4368  0.3450 -0.0948
  117MOL0     C15723  11.765   8.354  10.476 -0.0240 -0.9603 -0.0712
  117MOL0     C15724  11.853   8.460  10.420 -0.5292  0.1711  0.0076
  117MOL0     C15725  11.935   8.542  10.375  0.2599 -0.2868 -0.0165
  117MOL0     C15726  11.368   8.230  10.149 -0.3473  1.0027  0.3070
  117MOL0     C15727  11.236   8.229  10.095  0.0764 -0.5732  0.8302
  117MOL0     H15728  10.885   8.423   9.878 -0.9511 -0.6699  1.8069
  117MOL0     H15729  10.684   8.459   9.760  1.9869 -0.5501 -4.4491
  117MOL0     H15730  10.487   8.133   9.551  0.2329  1.0371 -0.6759
  117MOL0     H15731  10.399   8.121   9.708  2.3392 -0.5778  0.5352
  117MOL0     H15732  10.246   8.175   9.499 -0.3154  1.2269 -0.2175
  117MOL0     H15733  10.235   8.275   9.642 -0.1174 -2.3824  1.6202
  117MOL0     H15734  10.201   8.381   9.444 -0.0929 -2.4827 -0.4170
  117MOL0     H15735  10.309   8.462   9.556 -0.5872  0.4683 -1.0780
  117MOL0     H15736  10.439   8.485   9.368 -3.2637  0.4752  0.7515
  117MOL0     H15737  10.505   8.325   9.406  1.5370  0.8976 -3.4095
  117MOL0     H15738  10.458   8.312   9.187  0.0662 -2.5775  0.3762
  117MOL0     H15739  10.355   8.207   9.295 -0.5268  0.7574  1.7512
  117MOL0     H15740  10.160   8.344   9.240 -0.2807  0.5733 -1.7124
  117MOL0     H15741  10.243   8.468   9.161 -2.4106  0.3453  0.5327
  117MOL0     H15742  10.230   8.176   9.073 -2.7291  0.5972  1.0771
  117MOL0     H15743  10.119   8.303   9.012  0.4854  0.1536 -1.5448
  117MOL0     H15744  10.412   8.261   8.975  0.1534 -1.1747  0.6188
  117MOL0     H15745  10.342   8.416   8.912  0.1799 -0.5075 -2.3630
  117MOL0     H15746  10.098   8.390   8.765 -0.9913  1.6080 -2.8932
  117MOL0     H15747   9.971   8.232   8.574 -0.8825  2.4561 -0.6932
  117MOL0     H15748  10.066   8.330   8.455 -0.1290 -2.1273 -2.7752
  117MOL0     H15749  10.106   8.028   8.476  0.4550  2.1314  0.8543
  117MOL0     H15750  10.126   8.136   8.331 -0.5083  0.2450 -0.4023
  117MOL0     H15751   9.871   8.172   8.351 -0.7478  0.4927  1.7581
  117MOL0     H15752   9.866   8.076   8.482  2.6943  2.6005  1.6728
  117MOL0     H15753   9.769   7.943   8.295  0.5770 -1.6303  0.1457
  117MOL0     H15754   9.923   7.880   8.353 -1.4210  0.0843  1.8082
  117MOL0     H15755  10.014   7.732   8.158 -0.2910 -1.5842  0.7727
  117MOL0     H15756   9.999   7.497   8.077  3.6130  3.4788  0.0883
  117MOL0     H15757   9.897   7.440   7.960  0.8673 -0.2071  1.7291
  117MOL0     H15758  10.071   7.491   7.919  1.3960 -1.3531  2.0946
  117MOL0     H15759   9.640   7.466   7.615 -0.2213 -1.4773 -1.7352
  117MOL0     H15760   9.558   7.307   7.443  0.1671  1.0082  0.2200
  117MOL0     H15761   9.885   7.140   7.210  0.5394 -0.1746 -1.7316
  117MOL0     H15762   9.794   6.983   7.192  0.2904 -0.0102 -2.6571
  117MOL0     H15763   9.624   7.074   7.068  2.6088 -2.3376 -3.1444
  117MOL0     H15764   9.693   7.233   7.065  2.1706  0.3225 -1.8417
  117MOL0     H15765   9.841   6.985   6.941 -1.6930 -0.0383 -4.5379
  117MOL0     H15766   9.890   7.155   6.950 -0.4481  0.6380 -1.3567
  117MOL0     H15767   9.628   7.045   6.830 -0.6499  0.2939  1.3808
  117MOL0     H15768   9.692   7.217   6.830  4.0793  1.1022 -2.5358
  117MOL0     H15769   9.721   7.116   6.605 -0.6839 -3.7657 -1.4491
  117MOL0     H15770   9.804   6.980   6.672 -2.4572 -0.1517 -0.4579
  117MOL0     H15771   9.897   7.274   6.685 -2.1411  0.7498 -2.6151
  117MOL0     H15772   9.978   7.138   6.765  0.4471  2.3839  0.6243
  117MOL0     H15773   9.905   7.141   6.464  1.1782 -0.6246 -0.7172
  117MOL0     H15774  10.006   7.035   6.557 -2.0244 -1.5539 -0.7306
  117MOL0     H15775  10.150   7.175   6.433 -0.6474 -1.7001  0.2268
  117MOL0     H15776  10.174   7.218   6.600 -1.5257  0.0439  0.9036
  117MOL0     H15777   9.938   7.118   7.454  0.3568 -1.0936  2.3391
  117MOL0     H15778  10.009   7.272   7.627  0.5568 -0.9640  0.6682
  117MOL0     H15779   9.787   7.894   7.751  1.6931  1.4861 -0.8576
  117MOL0     H15780   9.811   8.040   7.950 -1.0545  0.1584  2.2814
  117MOL0     H15781  10.628   8.041   9.701  0.9319 -1.6913  0.1515
  117MOL0     H15782  10.845   8.002   9.826  2.6706 -0.5218 -1.7882
  117MOL0     H15783  11.208   7.907  10.004 -3.2524  1.9969 -0.2255
  117MOL0     H15784  11.433   7.907  10.086 -0.3004 -1.3794  0.4293
  117MOL0     H15785  11.473   8.024  10.400 -0.0408 -0.9204 -1.0004
  117MOL0     H15786  11.652   8.051  10.400 -0.2202 -0.6874 -1.7081
  117MOL0     H15787  11.549   8.221  10.537 -1.4875  0.8424  0.1009
  117MOL0     H15788  11.449   8.269  10.412 -0.2846 -0.3248  2.1298
  117MOL0     H15789  11.596   8.427  10.354 -0.4751  0.5015  0.8284
  117MOL0     H15790  11.695   8.322  10.271  1.7093  0.2676  0.7686
  117MOL0     H15791  11.822   8.260  10.478  1.0549 -0.3258 -0.2549
  117MOL0     H15792  11.724   8.388  10.571 -0.4616 -1.9161  0.0961
  117MOL0     H15793  12.010   8.608  10.338  0.4878  0.8274  2.2798
  117MOL0     H15794  11.432   8.310  10.186  3.6802 -1.4565 -0.7539
  117MOL0     H15795  11.178   8.320  10.099 -0.7133 -1.0993  2.4203
  118MOL0     O15796   5.300   1.788   0.644  0.5609  0.2217  1.0102
  118MOL0     C15797   5.276   1.736   0.530  0.7037  1.0763 -0.0657
  118MOL0     O15798   5.157   1.750   0.463  0.0475  0.3677  0.1763
  118MOL0     C15799   5.056   1.834   0.524 -0.4613  0.4442 -0.6792
  118MOL0     C15800   5.001   1.943   0.443  0.5493 -0.3604 -0.4292
  118MOL0     C15801   4.884   2.006   0.492  0.9254 -0.9579 -0.2682
  118MOL0     C15802   4.820   1.966   0.612 -0.5558  0.3796  0.2190
  118MOL0     O15803   4.702   2.032   0.665 -0.8106 -0.6037 -0.0705
  118MOL0     C15804   4.612   1.951   0.740 -0.1129 -0.8880  1.3482
  118MOL0     C15805   4.482   2.028   0.762 -0.0907 -0.5970 -0.7061
  118MOL0     C15806   4.380   1.952   0.846 -0.0601  0.5494 -0.4975
  118MOL0     C15807   4.250   2.025   0.890 -1.2252  0.1734  0.5182
  118MOL0     C15808   4.279   2.139   0.991 -0.3969  0.4638  0.0477
  118MOL0     C15809   4.306   2.080   1.124  0.4827 -0.2158 -0.0467
  118MOL0     C15810   4.384   2.177   1.214 -0.2637  0.2067 -0.2716
  118MOL0     C15811   4.532   2.159   1.244 -0.1788  0.4871 -0.2667
  118MOL0     N15812   4.608   2.154   1.122  0.1145 -0.5654 -0.7098
  118MOL0     C15813   4.666   2.265   1.057  0.4354 -0.2574  0.4351
  118MOL0     C15814   4.755   2.217   0.968 -0.3894 -0.3611 -0.5116
  118MOL0     C15815   4.860   2.304   0.892  0.5749  1.0108  0.0013
  118MOL0     C15816   5.009   2.267   0.917  0.2413  0.4781  0.3067
  118MOL0     C15817   5.051   2.149   0.819  0.5203  0.7706  0.2640
  118MOL0     C15818   5.181   2.090   0.850 -1.0192 -0.6537  0.7215
  118MOL0     O15819   5.284   2.186   0.814  0.4147 -0.5416  1.0770
  118MOL0     C15820   5.339   2.201   0.687 -0.8236  0.8999 -0.6090
  118MOL0     C15821   5.451   2.284   0.678  0.4545 -0.1234  0.7514
  118MOL0     C15822   5.522   2.298   0.562  0.4185  1.0402  0.0881
  118MOL0     C15823   5.649   2.385   0.570 -0.7651  0.4365 -0.3200
  118MOL0     C15824   5.479   2.214   0.451  0.4896  0.4604 -1.0923
  118MOL0     C15825   5.547   2.205   0.319 -0.7177 -0.3410 -0.0278
  118MOL0     O15826   5.646   2.299   0.286 -0.4261  0.3344  0.5821
  118MOL0     C15827   5.675   2.312   0.155 -0.0235 -0.2051 -0.1462
  118MOL0     C15828   5.742   2.219   0.077  0.3619 -0.4174  0.1613
  118MOL0     C15829   5.754   2.234  -0.060  1.4737 -0.3817 -0.8202
  118MOL0     C15830   5.695   2.350  -0.121 -0.3228 -0.1656  0.5727
  118MOL0     O15831   5.727   2.366  -0.259  0.0605 -0.9340  0.7513
  118MOL0     C15832   5.619   2.386  -0.353  0.2138  1.1417 -0.7115
  118MOL0     C15833   5.537   2.264  -0.358 -0.5398  0.1380 -1.3672
  118MOL0     C15834   5.453   2.263  -0.484  0.5809  0.1785 -0.0986
  118MOL0     C15835   5.335   2.163  -0.469 -0.2267  0.3500  0.2823
  118MOL0     C15836   5.242   2.160  -0.587  0.5122  0.2182  0.0723
  118MOL0     C15837   5.147   2.040  -0.592 -0.5335 -0.0162  0.5817
  118MOL0     C15838   5.082   2.016  -0.727  1.0523 -0.2063  0.1423
  118MOL0     C15839   4.953   1.926  -0.714  0.1249 -0.4254 -0.1670
  118MOL0    Cl15840   4.851   1.993  -0.576  0.0969  0.0887 -0.5515
  118MOL0     C15841   5.636   2.453  -0.045  0.1938  1.0036 -0.9945
  118MOL0     C15842   5.627   2.435   0.087 -0.2922  0.8383 -1.2844
  118MOL0     O15843   5.508   2.120   0.242 -0.1431  0.3774  0.5028
  118MOL0     C15844   5.371   2.124   0.463  0.3630  0.0928 -0.2777
  118MOL0     C15845   5.300   2.108   0.585 -0.7253  0.2218 -0.5170
  118MOL0     N15846   4.755   2.079   0.976  0.5449 -0.3125 -0.3373
  118MOL0     N15847   4.662   2.047   1.063  0.3243 -0.3689  0.0611
  118MOL0     C15848   4.886   1.871   0.692  0.7843  0.0098 -0.1183
  118MOL0     C15849   5.001   1.806   0.649  0.4082 -1.1363 -0.1491
  118MOL0     C15850   5.386   1.663   0.467 -0.0413  0.5429  1.1626
  118MOL0     C15851   5.375   1.627   0.334  0.0678 -0.5723 -0.0823
  118MOL0     C15852   5.481   1.564   0.271 -0.4267  0.6075 -0.5767
  118MOL0     C15853   5.600   1.523   0.333 -0.1720  0.6811  0.7521
  118MOL0     O15854   5.712   1.464   0.262  0.8697  0.6601  0.2859
  118MOL0     C15855   5.689   1.404   0.135  0.4280  0.1840 -0.2236
  118MOL0     C15856   5.821   1.374   0.074 -0.3860  0.1687 -0.0673
  118MOL0     C15857   5.924   1.490   0.058  0.5506  0.3880 -0.2310
  118MOL0     C15858   6.051   1.454  -0.016 -1.0253 -0.9290 -0.1171
  118MOL0     C15859   6.153   1.393   0.073  0.7863  0.4775 -0.2777
  118MOL0     C15860   6.229   1.328   0.146 -0.4594 -0.0828  0.1904
  118MOL0     C15861   5.606   1.563   0.462  0.5039 -0.4415  0.1371
  118MOL0     C15862   5.510   1.643   0.520 -0.6192  0.4630 -0.5727
  118MOL0     H15863   5.026   1.972   0.342  0.3661 -1.8018 -0.9184
  118MOL0     H15864   4.836   2.080   0.428  1.1680 -1.2771 -0.8334
  118MOL0     H15865   4.593   1.868   0.671 -2.1280  1.9815 -1.8805
  118MOL0     H15866   4.646   1.923   0.840 -0.0985  1.1105  1.9353
  118MOL0     H15867   4.509   2.121   0.812 -0.8597 -0.5442 -0.3655
  118MOL0     H15868   4.435   2.048   0.665 -2.9808 -0.2557  0.6583
  118MOL0     H15869   4.347   1.860   0.797 -4.8423  1.6833  0.0728
  118MOL0     H15870   4.430   1.910   0.934 -2.2965 -1.2975  0.0159
  118MOL0     H15871   4.202   2.083   0.810  1.3666  3.8388  1.3463
  118MOL0     H15872   4.187   1.951   0.940  2.3720 -1.9867  2.2328
  118MOL0     H15873   4.353   2.202   0.940 -2.0356  3.0017  0.6308
  118MOL0     H15874   4.191   2.203   0.985  0.1982  1.4914  1.6454
  118MOL0     H15875   4.216   2.041   1.172 -2.2549  0.1623 -4.4013
  118MOL0     H15876   4.365   1.988   1.115  0.9693 -0.1541  1.9851
  118MOL0     H15877   4.365   2.278   1.175 -5.1842 -0.3090  0.0613
  118MOL0     H15878   4.336   2.185   1.312  0.8849 -0.1542  0.3325
  118MOL0     H15879   4.557   2.070   1.303  0.0528  1.2805  0.8686
  118MOL0     H15880   4.558   2.246   1.305 -3.8783  0.6606  1.3516
  118MOL0     H15881   4.647   2.371   1.068 -2.2587 -0.7903  1.8783
  118MOL0     H15882   4.849   2.301   0.783  0.8499 -1.0952 -0.0211
  118MOL0     H15883   4.843   2.410   0.909 -2.9173  0.5363  0.1610
  118MOL0     H15884   5.029   2.244   1.023  1.0506  1.5642  0.4169
  118MOL0     H15885   5.072   2.355   0.899 -2.5100  1.9983 -2.7345
  118MOL0     H15886   5.050   2.203   0.724 -0.0766  1.4045  0.6180
  118MOL0     H15887   4.970   2.076   0.812  2.0947 -1.2087  1.4708
  118MOL0     H15888   5.208   1.992   0.809 -0.0164 -0.6455  1.3226
  118MOL0     H15889   5.189   2.081   0.959  0.6266  0.2809  0.7013
  118MOL0     H15890   5.483   2.342   0.765  1.6087  0.9920 -0.3797
  118MOL0     H15891   5.726   2.365   0.495 -0.1492  0.8850  0.1875
  118MOL0     H15892   5.630   2.493   0.563 -2.3275  0.1859 -0.3398
  118MOL0     H15893   5.696   2.356   0.664  1.7932 -0.1167 -1.6775
  118MOL0     H15894   5.799   2.151   0.139  3.0621  2.1489  0.7738
  118MOL0     H15895   5.808   2.164  -0.122  3.6458  0.1784  0.3303
  118MOL0     H15896   5.560   2.473  -0.323 -0.5177  0.4826 -0.1804
  118MOL0     H15897   5.661   2.411  -0.451  1.4300  0.5741 -0.3544
  118MOL0     H15898   5.588   2.167  -0.365  1.9061  1.0152  1.8490
  118MOL0     H15899   5.481   2.254  -0.264 -0.1295  0.6056 -1.0674
  118MOL0     H15900   5.514   2.247  -0.573  1.4884  2.7444 -0.0235
  118MOL0     H15901   5.405   2.361  -0.488 -1.7392 -0.8994  0.1620
  118MOL0     H15902   5.386   2.068  -0.452 -0.8958  0.2100  1.5857
  118MOL0     H15903   5.270   2.179  -0.382 -2.0036 -1.9919 -0.5093
  118MOL0     H15904   5.298   2.155  -0.680 -0.9353 -2.3951 -0.7660
  118MOL0     H15905   5.182   2.252  -0.583  0.1500 -0.0340  2.5119
  118MOL0     H15906   5.199   1.946  -0.571 -0.1196 -0.4292 -1.9982
  118MOL0     H15907   5.080   2.065  -0.509 -2.9637 -0.6538 -1.0901
  118MOL0     H15908   5.156   1.964  -0.788  1.2691 -0.6315  0.7491
  118MOL0     H15909   5.055   2.117  -0.760  0.4602  0.0508  1.3255
  118MOL0     H15910   4.982   1.823  -0.691  1.4663 -0.4692 -1.8756
  118MOL0     H15911   4.906   1.934  -0.813 -0.1437  1.2961  0.0802
  118MOL0     H15912   5.577   2.532  -0.090 -1.3729 -0.8908 -2.4447
  118MOL0     H15913   5.597   2.517   0.152  2.8324  1.4868 -0.4829
  118MOL0     H15914   5.334   2.068   0.378  1.4037  2.5016 -2.4987
  118MOL0     H15915   5.222   2.033   0.588 -1.6172  1.0821 -1.4124
  118MOL0     H15916   4.842   1.847   0.788 -1.9813  2.5716 -0.5920
  118MOL0     H15917   5.040   1.733   0.719 -1.9564 -2.1524  0.2167
  118MOL0     H15918   5.284   1.638   0.276 -1.2662 -3.5968  1.2150
  118MOL0     H15919   5.456   1.543   0.168 -3.0713 -2.0785  0.4606
  118MOL0     H15920   5.638   1.308   0.150 -3.6200  2.5078  2.9987
  118MOL0     H15921   5.635   1.471   0.067 -0.8949 -1.3951 -0.7983
  118MOL0     H15922   5.805   1.326  -0.023 -0.3828 -1.7171  0.8178
  118MOL0     H15923   5.861   1.290   0.132  1.8636 -1.2410 -3.3419
  118MOL0     H15924   5.943   1.539   0.154 -1.0553 -0.8090  0.7323
  118MOL0     H15925   5.881   1.569  -0.004 -1.0317  1.7308  2.3848
  118MOL0     H15926   6.090   1.553  -0.038  0.3333 -1.4960 -0.3576
  118MOL0     H15927   6.033   1.392  -0.104  1.0701 -0.5935 -0.8332
  118MOL0     H15928   6.288   1.271   0.214 -2.2883 -0.2471  1.7264
  118MOL0     H15929   5.692   1.539   0.524  0.7549 -2.9180 -1.0123
  118MOL0     H15930   5.536   1.681   0.619 -0.2719  2.2438 -1.3044
  119MOL0     O15931   3.670   7.421   6.086 -0.3293 -0.0985  0.2567
  119MOL0     C15932   3.680   7.320   6.007 -1.4024 -1.2841  0.2413
  119MOL0     O15933   3.590   7.239   5.951  0.4684 -0.1746 -0.3052
  119MOL0     C15934   3.461   7.268   5.969  0.1891 -0.6699  0.2214
  119MOL0     C15935   3.384   7.342   5.880  0.1569  0.0471  0.7036
  119MOL0     C15936   3.247   7.366   5.886 -0.1254 -0.1904 -0.2120
  119MOL0     C15937   3.183   7.321   6.004  0.3759 -0.2203  0.0306
  119MOL0     O15938   3.045   7.343   6.030 -0.2570 -0.5466 -1.6563
  119MOL0     C15939   2.970   7.455   5.977  1.5340 -0.6049  0.4075
  119MOL0     C15940   2.817   7.469   6.041  0.7827  0.6896  0.3917
  119MOL0     C15941   2.723   7.344   6.036 -0.3230  1.4830  0.5196
  119MOL0     C15942   2.587   7.379   6.100  0.1973 -0.3934 -0.0956
  119MOL0     C15943   2.535   7.257   6.181 -0.2567 -1.4152  0.7734
  119MOL0     C15944   2.632   7.243   6.301  0.6721  0.5699 -0.9783
  119MOL0     C15945   2.575   7.129   6.403 -1.3011 -0.8212  1.0559
  119MOL0     C15946   2.525   7.181   6.535 -0.3772  0.9526  0.3145
  119MOL0     N15947   2.455   7.304   6.551 -0.9624 -0.7874  0.2178
  119MOL0     C15948   2.320   7.319   6.537  0.4599  0.8090 -0.8581
  119MOL0     C15949   2.303   7.453   6.547  0.1812 -0.5922 -0.2788
  119MOL0     C15950   2.174   7.536   6.541 -0.5302 -0.5461 -0.4000
  119MOL0     C15951   2.219   7.665   6.466  0.8243 -0.2127  0.3689
  119MOL0     C15952   2.086   7.718   6.418 -0.6799 -0.0311  0.3696
  119MOL0     C15953   2.099   7.856   6.355  0.7857 -0.8430  0.8614
  119MOL0     O15954   1.968   7.878   6.299 -0.2961 -0.1850  0.2888
  119MOL0     C15955   1.941   7.994   6.243  0.6624 -0.0901 -0.6499
  119MOL0     C15956   1.824   7.994   6.166 -0.7900  0.3185  0.4359
  119MOL0     C15957   1.769   8.112   6.107 -1.0271  0.6532  0.0270
  119MOL0     C15958   1.650   8.090   6.019 -0.1240 -0.6320 -0.0896
  119MOL0     C15959   1.840   8.237   6.118 -0.3017 -0.6342 -0.1634
  119MOL0     C15960   1.807   8.369   6.054 -0.3229  0.0578  1.3594
  119MOL0     O15961   1.677   8.380   6.011  0.4088  0.0338 -0.4278
  119MOL0     C15962   1.650   8.481   5.920 -1.5049  1.5688 -0.1435
  119MOL0     C15963   1.687   8.455   5.782  0.7137 -0.3376 -0.1610
  119MOL0     C15964   1.663   8.561   5.699  1.0682 -0.3850  0.1774
  119MOL0     C15965   1.578   8.665   5.734 -0.5586  0.4000  0.1198
  119MOL0     O15966   1.520   8.754   5.648 -0.4036  0.0372  0.9389
  119MOL0     C15967   1.561   8.779   5.517 -0.2345  0.4477 -0.5407
  119MOL0     C15968   1.476   8.883   5.448  0.4165 -0.7074  0.9348
  119MOL0     C15969   1.354   8.838   5.373  0.8836 -0.0176 -0.6574
  119MOL0     C15970   1.258   8.748   5.465  1.1431  0.1112  1.0757
  119MOL0     C15971   1.128   8.726   5.389 -0.5415 -0.7216 -0.2295
  119MOL0     C15972   1.127   8.644   5.254 -0.2974 -0.4132 -0.0515
  119MOL0     C15973   0.992   8.572   5.237  0.5845  0.7114  0.5166
  119MOL0     C15974   0.968   8.505   5.100  0.3224 -0.3035  0.1383
  119MOL0    Cl15975   1.106   8.406   5.029  0.1290 -0.1371  0.0003
  119MOL0     C15976   1.536   8.687   5.865  0.0185  0.3332  0.2356
  119MOL0     C15977   1.581   8.599   5.966 -0.0588  0.7518  0.2244
  119MOL0     O15978   1.891   8.459   6.035  0.2544  1.1391 -0.4864
  119MOL0     C15979   1.946   8.235   6.206 -0.1270 -0.2494 -0.2935
  119MOL0     C15980   2.005   8.115   6.263 -0.9350  0.2825  0.2117
  119MOL0     N15981   2.427   7.510   6.571 -0.6932 -0.4666 -0.0353
  119MOL0     N15982   2.515   7.426   6.567 -0.5567 -0.0811  0.0511
  119MOL0     C15983   3.253   7.239   6.094 -0.6690 -0.5672  0.6478
  119MOL0     C15984   3.392   7.214   6.074  0.1609  0.4598 -0.2995
  119MOL0     C15985   3.819   7.272   5.991  0.6011 -0.1408  0.4081
  119MOL0     C15986   3.838   7.169   5.900 -0.9107 -0.3813 -0.4066
  119MOL0     C15987   3.967   7.120   5.880  0.3011  1.2957 -0.3272
  119MOL0     C15988   4.074   7.167   5.956 -0.4483 -0.5508 -0.1559
  119MOL0     O15989   4.195   7.117   5.943 -0.8643  0.1539 -0.4371
  119MOL0     C15990   4.289   7.201   5.874 -0.2154  0.9335  0.9417
  119MOL0     C15991   4.420   7.157   5.924 -0.6998  0.0292  0.1696
  119MOL0     C15992   4.453   7.201   6.072  0.7335  0.2961 -1.0243
  119MOL0     C15993   4.526   7.335   6.093 -0.8833 -0.3557  0.0696
  119MOL0     C15994   4.660   7.318   6.152 -0.0137  0.6886 -0.5541
  119MOL0     C15995   4.764   7.299   6.220  0.0402 -1.0741  0.6560
  119MOL0     C15996   4.055   7.260   6.046  0.5757  0.1040  0.2674
  119MOL0     C15997   3.930   7.314   6.067  0.4256  0.0457  0.0089
  119MOL0     H15998   3.440   7.377   5.794  0.4757 -3.2818 -0.6180
  119MOL0     H15999   3.181   7.410   5.812 -1.1780 -0.4708  0.5375
  119MOL0     H16000   3.020   7.547   6.010 -2.7188  0.9204  3.4370
  119MOL0     H16001   2.962   7.454   5.868  1.0248 -0.6432  0.4451
  119MOL0     H16002   2.826   7.499   6.146 -0.6352 -0.2404  0.8081
  119MOL0     H16003   2.770   7.548   5.982 -1.1239 -0.9782 -0.4340
  119MOL0     H16004   2.710   7.310   5.933 -0.6616  2.7008  0.1481
  119MOL0     H16005   2.774   7.261   6.086 -2.6367 -1.6849 -1.9603
  119MOL0     H16006   2.599   7.465   6.167 -0.8421 -2.0883  2.4451
  119MOL0     H16007   2.522   7.401   6.015 -0.9934  0.7101  1.0463
  119MOL0     H16008   2.436   7.280   6.222 -0.3949  0.7399 -0.6076
  119MOL0     H16009   2.539   7.161   6.128  0.3646 -1.1481  0.3234
  119MOL0     H16010   2.738   7.220   6.285  0.8383 -1.2901  2.0432
  119MOL0     H16011   2.638   7.339   6.354  0.2351  0.4542 -0.7119
  119MOL0     H16012   2.497   7.073   6.350 -0.9292  1.5951 -2.3447
  119MOL0     H16013   2.660   7.061   6.414 -1.8027 -1.9392 -1.2873
  119MOL0     H16014   2.614   7.181   6.600 -1.2222  2.3300  1.5501
  119MOL0     H16015   2.462   7.104   6.579 -0.0035 -0.4845 -1.5640
  119MOL0     H16016   2.250   7.240   6.511  0.3788  0.2174  1.0565
  119MOL0     H16017   2.101   7.474   6.489 -1.1529  0.8537 -1.2481
  119MOL0     H16018   2.134   7.567   6.639 -1.4610  2.2007 -1.5382
  119MOL0     H16019   2.284   7.649   6.379  2.5742  1.0939  1.3631
  119MOL0     H16020   2.271   7.739   6.528 -0.6023  1.2226 -0.0717
  119MOL0     H16021   2.010   7.723   6.497 -0.7921  1.1176  0.1980
  119MOL0     H16022   2.043   7.652   6.341  3.2195 -1.1225 -1.1160
  119MOL0     H16023   2.169   7.861   6.271 -1.4066  0.6126 -0.9979
  119MOL0     H16024   2.128   7.929   6.432  0.5430 -2.5479  2.6406
  119MOL0     H16025   1.778   7.899   6.143  1.4674 -0.3998 -1.5063
  119MOL0     H16026   1.567   8.155   6.048  1.2257  1.6584 -1.0872
  119MOL0     H16027   1.681   8.113   5.916  3.0251  1.8141  1.2384
  119MOL0     H16028   1.611   7.988   6.015 -1.9785  0.0656 -1.1857
  119MOL0     H16029   1.737   8.373   5.732 -0.2801 -1.2931  0.3700
  119MOL0     H16030   1.681   8.549   5.593 -2.5302 -0.9711 -0.5207
  119MOL0     H16031   1.662   8.816   5.536  0.1213 -1.8444  3.2137
  119MOL0     H16032   1.561   8.688   5.456 -1.5952 -0.0501  0.1718
  119MOL0     H16033   1.435   8.954   5.521  0.0952  2.1748 -1.8129
  119MOL0     H16034   1.537   8.950   5.388 -0.9919 -0.9849 -0.8767
  119MOL0     H16035   1.380   8.786   5.280  0.3459  2.1897 -2.1042
  119MOL0     H16036   1.303   8.929   5.340  3.1015  1.5531  0.0260
  119MOL0     H16037   1.295   8.648   5.489  1.5541  0.3037  1.2518
  119MOL0     H16038   1.245   8.800   5.560 -0.4632  0.5503  0.6548
  119MOL0     H16039   1.094   8.828   5.369 -0.4992 -1.0813 -2.3727
  119MOL0     H16040   1.066   8.683   5.467 -0.2510 -0.1791  0.3119
  119MOL0     H16041   1.155   8.707   5.169 -4.1163 -2.0552 -2.8239
  119MOL0     H16042   1.195   8.559   5.259 -3.5003 -3.1743  0.8733
  119MOL0     H16043   0.916   8.648   5.261 -0.1352 -0.0234  0.5887
  119MOL0     H16044   0.984   8.489   5.307 -0.7521 -1.9425 -2.5461
  119MOL0     H16045   0.945   8.584   5.028 -1.7621  3.7765  4.6488
  119MOL0     H16046   0.879   8.445   5.122  0.3765  0.0343  1.3498
  119MOL0     H16047   1.501   8.781   5.908  1.8680  0.6771  1.0748
  119MOL0     H16048   1.569   8.624   6.071  0.8345 -0.2708  0.5899
  119MOL0     H16049   1.997   8.330   6.217 -1.5429  0.3975  1.3363
  119MOL0     H16050   2.099   8.112   6.318 -1.1148  0.1954  0.5136
  119MOL0     H16051   3.194   7.216   6.182  0.0421 -1.3594  0.9288
  119MOL0     H16052   3.455   7.155   6.139  3.8698  0.3488 -3.5866
  119MOL0     H16053   3.775   7.124   5.824 -0.1859 -1.3895 -0.4271
  119MOL0     H16054   3.978   7.031   5.818  0.5697  0.4792  0.8542
  119MOL0     H16055   4.298   7.180   5.767  4.2973 -1.5259  1.5826
  119MOL0     H16056   4.275   7.305   5.906 -0.6003  0.9084  0.8633
  119MOL0     H16057   4.504   7.193   5.864 -0.0136 -0.1661  0.9900
  119MOL0     H16058   4.412   7.049   5.908 -0.9071 -0.1669  1.4764
  119MOL0     H16059   4.502   7.112   6.111  1.0714  0.2810 -1.4698
  119MOL0     H16060   4.361   7.212   6.130  1.2494  1.0673 -0.3406
  119MOL0     H16061   4.469   7.411   6.148  0.8070  0.3963  0.8749
  119MOL0     H16062   4.535   7.379   5.994  3.4668 -3.2446 -1.1413
  119MOL0     H16063   4.840   7.279   6.293  0.4255 -0.1745  0.5118
  119MOL0     H16064   4.140   7.297   6.102  1.2987 -0.3710 -0.5012
  119MOL0     H16065   3.916   7.384   6.148  0.8882 -1.4321  1.4171
  120MOL0     O16066  11.222   1.221   3.599  0.0481 -0.5202  0.3992
  120MOL0     C16067  11.330   1.172   3.584  0.2096 -0.1280  0.3371
  120MOL0     O16068  11.410   1.195   3.473  0.9414  0.0213 -0.2776
  120MOL0     C16069  11.377   1.288   3.370 -0.5162  0.2171 -0.5066
  120MOL0     C16070  11.266   1.381   3.357 -0.0516  0.5315 -0.1350
  120MOL0     C16071  11.258   1.473   3.243 -0.3316 -0.3241 -0.0638
  120MOL0     C16072  11.362   1.460   3.143 -0.4996 -0.5403  0.1612
  120MOL0     O16073  11.356   1.522   3.022 -0.3722  0.5483  0.5097
  120MOL0     C16074  11.252   1.617   3.008  0.1567  0.9515  1.5034
  120MOL0     C16075  11.307   1.714   2.898  0.6038 -0.0743  1.0262
  120MOL0     C16076  11.201   1.820   2.853 -0.9513 -0.8553 -0.1381
  120MOL0     C16077  11.286   1.916   2.767 -0.3814 -0.0184  0.2776
  120MOL0     C16078  11.343   1.868   2.637 -1.1053  0.5017  0.5275
  120MOL0     C16079  11.398   1.985   2.562  0.0879 -0.0776 -0.6264
  120MOL0     C16080  11.468   1.936   2.435  0.3851 -1.5945 -0.2442
  120MOL0     C16081  11.371   1.870   2.340  0.3428 -0.2931  0.3437
  120MOL0     N16082  11.392   1.867   2.195  1.1010 -1.0490 -1.0080
  120MOL0     C16083  11.447   1.775   2.113 -0.0748  1.1286 -0.0558
  120MOL0     C16084  11.424   1.814   1.991 -0.0637  0.1111  1.4688
  120MOL0     C16085  11.418   1.733   1.860  0.4664  0.6893 -0.8198
  120MOL0     C16086  11.536   1.764   1.774 -0.3804  0.3840 -0.7108
  120MOL0     C16087  11.659   1.697   1.823 -0.0619  0.0575 -0.3114
  120MOL0     C16088  11.758   1.702   1.710 -0.5419  0.0470 -0.1952
  120MOL0     O16089  11.886   1.657   1.774 -0.8667 -0.3945  0.9086
  120MOL0     C16090  11.990   1.664   1.685  0.1245 -0.0020 -0.3434
  120MOL0     C16091  12.076   1.553   1.691 -0.1887 -0.0020 -0.0845
  120MOL0     C16092  12.193   1.548   1.610 -0.2349 -0.1096 -0.4990
  120MOL0     C16093  12.289   1.431   1.635  0.5618  0.3656  0.6502
  120MOL0     C16094  12.239   1.662   1.547  0.0521  0.0578 -0.4031
  120MOL0     C16095  12.365   1.675   1.458 -0.3799  0.1042  1.1613
  120MOL0     O16096  12.480   1.612   1.486  0.2180  0.7529  0.4801
  120MOL0     C16097  12.591   1.674   1.439 -0.5587  0.1532  0.3668
  120MOL0     C16098  12.668   1.599   1.360 -0.2381  0.1022  1.3240
  120MOL0     C16099  12.790   1.646   1.304  0.4377  0.1447 -0.5154
  120MOL0     C16100  12.838   1.771   1.338 -0.6442 -0.0885 -0.1808
  120MOL0     O16101  12.967   1.806   1.303  0.7361 -1.1686 -0.1141
  120MOL0     C16102  13.004   1.948   1.291 -0.2644  0.1186  0.5652
  120MOL0     C16103  13.131   1.951   1.213 -0.1572  0.5344  0.4987
  120MOL0     C16104  13.248   1.908   1.304 -0.6257 -0.1066  0.7722
  120MOL0     C16105  13.378   1.911   1.215  0.1875 -0.5633  0.2960
  120MOL0     C16106  13.436   2.056   1.196 -0.5228  0.5413  0.1312
  120MOL0     C16107  13.566   2.070   1.112 -0.1954 -0.9334 -0.2075
  120MOL0     C16108  13.565   1.986   0.994  0.2806  0.6225  1.0853
  120MOL0     C16109  13.694   2.002   0.917 -0.3765 -0.0005  0.0249
  120MOL0    Cl16110  13.815   1.929   1.012  0.0102 -0.5770  0.3979
  120MOL0     C16111  12.755   1.855   1.409  0.5778  0.4887 -0.4497
  120MOL0     C16112  12.631   1.804   1.466 -0.0264  0.6417  1.0018
  120MOL0     O16113  12.340   1.732   1.351 -0.3397  0.3027  0.2551
  120MOL0     C16114  12.168   1.777   1.558  0.4484 -0.9060  0.2674
  120MOL0     C16115  12.045   1.783   1.625  1.2705  0.7097  0.1153
  120MOL0     N16116  11.358   1.937   1.988 -0.8872  0.6101  0.2392
  120MOL0     N16117  11.339   1.957   2.111  0.0881 -0.3351  0.0447
  120MOL0     C16118  11.457   1.353   3.150 -0.0306 -0.3477 -0.1872
  120MOL0     C16119  11.476   1.279   3.269 -0.0814  0.3212 -0.4582
  120MOL0     C16120  11.384   1.099   3.701  0.0347  0.1807 -0.7316
  120MOL0     C16121  11.330   1.124   3.829 -0.1563  0.6968  0.4848
  120MOL0     C16122  11.388   1.061   3.940  0.8053 -0.9074 -0.1201
  120MOL0     C16123  11.499   0.981   3.930  0.1837  0.2769  0.6000
  120MOL0     O16124  11.563   0.918   4.030  0.3807 -0.0307 -0.2636
  120MOL0     C16125  11.544   0.775   4.041  1.4952  0.7175 -0.0457
  120MOL0     C16126  11.391   0.743   4.060  0.6028 -0.0387  0.8285
  120MOL0     C16127  11.340   0.797   4.199  0.3463 -0.1641  1.3395
  120MOL0     C16128  11.342   0.686   4.305 -0.0683 -0.3572 -0.3692
  120MOL0     C16129  11.350   0.757   4.431  0.5618 -0.3655  0.3756
  120MOL0     C16130  11.355   0.807   4.542  0.3913  0.8431  0.2426
  120MOL0     C16131  11.554   0.963   3.808 -0.9097 -0.2094  0.1023
  120MOL0     C16132  11.504   1.021   3.696  0.1742  0.2438  0.4809
  120MOL0     H16133  11.187   1.386   3.431 -0.3229 -0.8301 -0.3092
  120MOL0     H16134  11.170   1.537   3.238  0.2526  0.4703 -0.3077
  120MOL0     H16135  11.162   1.565   2.976  0.6801  1.0535 -0.2481
  120MOL0     H16136  11.234   1.689   3.089  1.7408  3.2424 -0.0403
  120MOL0     H16137  11.394   1.767   2.937 -0.3257  2.0811  0.3531
  120MOL0     H16138  11.325   1.666   2.802 -0.0490  2.0761 -0.2469
  120MOL0     H16139  11.124   1.775   2.789 -0.9099  0.2362 -0.9890
  120MOL0     H16140  11.146   1.866   2.936 -3.4541 -4.6182  0.5247
  120MOL0     H16141  11.224   2.004   2.749  0.6836  0.9498  1.2362
  120MOL0     H16142  11.367   1.954   2.829 -2.0092 -0.1178  2.5635
  120MOL0     H16143  11.425   1.796   2.653 -0.4581  1.3738  1.2166
  120MOL0     H16144  11.259   1.825   2.583  0.6848 -1.1390 -1.1121
  120MOL0     H16145  11.322   2.060   2.538 -0.0170  0.8377  2.1549
  120MOL0     H16146  11.474   2.038   2.620 -1.6089 -0.2343  1.9618
  120MOL0     H16147  11.519   2.017   2.383 -3.8252  1.6528  0.1516
  120MOL0     H16148  11.544   1.866   2.470  0.5506 -0.5974  1.4996
  120MOL0     H16149  11.272   1.913   2.358  1.1692  3.4439 -2.8164
  120MOL0     H16150  11.361   1.768   2.378  0.9718  0.5258  2.9137
  120MOL0     H16151  11.482   1.682   2.158  1.0592  2.2932  1.6359
  120MOL0     H16152  11.397   1.629   1.886 -2.4643  1.3786 -0.0960
  120MOL0     H16153  11.323   1.748   1.808  0.4885  0.3138 -0.9713
  120MOL0     H16154  11.547   1.872   1.774  1.4164  0.2994  2.1373
  120MOL0     H16155  11.512   1.737   1.670 -0.5834 -0.5236 -0.4438
  120MOL0     H16156  11.631   1.592   1.834 -1.7981  0.6844  2.2121
  120MOL0     H16157  11.688   1.744   1.917  0.1662 -3.3717  1.4905
  120MOL0     H16158  11.765   1.805   1.673 -3.1416  0.2641 -0.2422
  120MOL0     H16159  11.732   1.630   1.632  3.1332 -0.8716 -0.7680
  120MOL0     H16160  12.046   1.475   1.760 -3.6622 -0.4025 -1.7962
  120MOL0     H16161  12.312   1.381   1.541  1.2767 -0.9089  1.4705
  120MOL0     H16162  12.383   1.472   1.675 -0.1215  1.0730  1.5754
  120MOL0     H16163  12.236   1.363   1.703 -1.3721 -0.6333 -1.7244
  120MOL0     H16164  12.638   1.497   1.339  0.8520 -0.3938  2.1045
  120MOL0     H16165  12.850   1.571   1.254  0.1023  0.2179 -1.0324
  120MOL0     H16166  12.931   2.014   1.242 -1.2583 -0.1257  1.6855
  120MOL0     H16167  13.034   1.991   1.386  2.0703  1.1712 -0.5815
  120MOL0     H16168  13.132   1.881   1.129  0.2110 -2.4704  2.8451
  120MOL0     H16169  13.152   2.045   1.161  0.4232  0.1125 -0.0493
  120MOL0     H16170  13.239   1.804   1.337 -2.9095 -0.1106  0.2825
  120MOL0     H16171  13.265   1.971   1.392  0.7620  0.1212  0.3740
  120MOL0     H16172  13.459   1.845   1.248  0.2939 -1.7943 -2.1929
  120MOL0     H16173  13.351   1.863   1.121  1.2328  2.0104 -1.4262
  120MOL0     H16174  13.453   2.102   1.294  1.2316 -0.4318  0.3105
  120MOL0     H16175  13.359   2.117   1.147 -0.2189 -1.4897 -3.1554
  120MOL0     H16176  13.571   2.177   1.089 -2.8364 -0.4203  1.1822
  120MOL0     H16177  13.642   2.039   1.184 -1.0918 -2.1003  0.2822
  120MOL0     H16178  13.476   2.010   0.935  0.6480 -1.7916 -0.5957
  120MOL0     H16179  13.553   1.882   1.025 -2.0978 -0.1689 -2.0110
  120MOL0     H16180  13.731   2.100   0.886  2.5664 -1.2523 -0.7363
  120MOL0     H16181  13.670   1.949   0.824 -4.3301 -0.8571  1.3191
  120MOL0     H16182  12.797   1.952   1.432  5.2725 -1.8404  2.2376
  120MOL0     H16183  12.559   1.865   1.519 -0.9760 -0.7341  1.3686
  120MOL0     H16184  12.215   1.870   1.529 -2.4722  1.0750  1.3653
  120MOL0     H16185  11.984   1.872   1.636  2.5368  1.2546  4.6313
  120MOL0     H16186  11.522   1.360   3.063 -1.0683  2.9560 -0.8706
  120MOL0     H16187  11.556   1.209   3.288  1.0176  0.6367 -3.3790
  120MOL0     H16188  11.252   1.198   3.841  3.8323  5.1717  2.3997
  120MOL0     H16189  11.353   1.079   4.041 -0.4882  0.7778 -0.8049
  120MOL0     H16190  11.574   0.728   3.947 -0.8805  4.2940 -2.9195
  120MOL0     H16191  11.599   0.733   4.125 -0.4974  0.1542  1.0604
  120MOL0     H16192  11.372   0.637   4.042  0.1907  0.3873 -1.7011
  120MOL0     H16193  11.340   0.791   3.976  0.0911 -2.0857 -0.0877
  120MOL0     H16194  11.236   0.824   4.178  0.2207 -1.0826  0.7180
  120MOL0     H16195  11.397   0.890   4.212 -1.3812  1.4309 -1.4430
  120MOL0     H16196  11.440   0.638   4.294 -0.2785 -0.6007 -1.3343
  120MOL0     H16197  11.253   0.622   4.302 -0.7911  0.6317 -0.2963
  120MOL0     H16198  11.353   0.837   4.644  0.8952 -1.7297  1.0855
  120MOL0     H16199  11.651   0.916   3.795 -0.9035  0.5866 -4.2418
  120MOL0     H16200  11.550   1.003   3.599 -1.3272 -1.5060  0.0500
  121MOL0     O16201  10.182   2.186  10.275 -0.5990 -0.3259 -0.3833
  121MOL0     C16202  10.109   2.101  10.319  0.4190  0.1917 -0.3391
  121MOL0     O16203   9.999   2.128  10.394 -0.0952 -0.5505  0.3960
  121MOL0     C16204   9.951   2.255  10.399  0.2245 -1.2588 -0.5254
  121MOL0     C16205   9.842   2.295  10.323  0.5829  0.1989 -0.4529
  121MOL0     C16206   9.784   2.416  10.335 -0.0045  0.1418 -0.3216
  121MOL0     C16207   9.837   2.512  10.415  0.2376 -0.1437  0.1504
  121MOL0     O16208   9.780   2.628  10.401 -0.6433 -0.2070  0.4152
  121MOL0     C16209   9.836   2.744  10.471  0.5515  0.5006 -0.3526
  121MOL0     C16210   9.804   2.870  10.390  0.8841  0.0559  0.1974
  121MOL0     C16211   9.659   2.929  10.396  0.2573 -0.6899  0.3718
  121MOL0     C16212   9.637   3.080  10.349 -0.7156  0.5937 -1.0272
  121MOL0     C16213   9.496   3.123  10.389  0.8635  0.9127 -0.5154
  121MOL0     C16214   9.487   3.160  10.537 -0.1855  0.3187 -1.2953
  121MOL0     C16215   9.356   3.100  10.599 -0.3539  0.4764  0.3869
  121MOL0     C16216   9.227   3.180  10.575  0.6383 -0.3231  0.5063
  121MOL0     N16217   9.195   3.219  10.430  0.2524 -0.2276 -0.3706
  121MOL0     C16218   9.116   3.134  10.353  0.3495 -1.6129 -0.3146
  121MOL0     C16219   9.096   3.208  10.244 -0.4138 -0.0072  0.1149
  121MOL0     C16220   8.978   3.198  10.146  0.5312 -0.8792 -0.0473
  121MOL0     C16221   9.020   3.091  10.047  0.1088  0.5837 -0.3974
  121MOL0     C16222   8.930   3.071   9.921  0.3700 -0.2728  0.3592
  121MOL0     C16223   8.996   2.968   9.826  0.2857  0.0287 -0.3593
  121MOL0     O16224   8.996   2.836   9.899  0.1992  0.2508 -0.6211
  121MOL0     C16225   8.876   2.788   9.930  0.8436 -0.2886 -0.4020
  121MOL0     C16226   8.771   2.780   9.840  1.6732 -0.9858 -0.7568
  121MOL0     C16227   8.652   2.697   9.856 -0.3132 -0.3308 -0.2401
  121MOL0     C16228   8.544   2.672   9.750 -0.2350 -0.6669 -0.2155
  121MOL0     C16229   8.635   2.636   9.982 -0.0613  0.0734  0.1385
  121MOL0     C16230   8.509   2.561  10.019  0.1644 -0.2490 -0.1707
  121MOL0     O16231   8.394   2.625  10.011  0.3177 -0.6038 -0.0868
  121MOL0     C16232   8.286   2.566  10.061 -0.1266  0.0836 -1.1735
  121MOL0     C16233   8.226   2.630  10.175  0.5906  0.0367  0.3840
  121MOL0     C16234   8.121   2.568  10.248 -0.4316 -0.1782 -0.1059
  121MOL0     C16235   8.064   2.448  10.199  0.2152 -0.8013  0.4587
  121MOL0     O16236   7.965   2.377  10.256  0.7387  1.1148 -0.1539
  121MOL0     C16237   7.863   2.444  10.331  0.0325  1.5544 -0.4073
  121MOL0     C16238   7.773   2.526  10.242  0.2175 -0.4615  0.4411
  121MOL0     C16239   7.684   2.428  10.153 -0.6870  0.1971  0.6038
  121MOL0     C16240   7.664   2.498  10.020  1.6154 -0.3209 -0.0556
  121MOL0     C16241   7.699   2.421   9.900 -0.7515  1.0417 -0.1343
  121MOL0     C16242   7.849   2.396   9.877  0.2814  0.8891 -0.3421
  121MOL0     C16243   7.865   2.322   9.741  0.3319 -0.9842 -0.5178
  121MOL0     C16244   7.864   2.173   9.731  0.1844  0.5604  0.0906
  121MOL0    Cl16245   8.016   2.101   9.801  0.5216 -0.3445  0.1863
  121MOL0     C16246   8.126   2.381  10.092 -0.4891 -0.4267 -0.1724
  121MOL0     C16247   8.230   2.450  10.015  0.7971 -0.1185 -0.7994
  121MOL0     O16248   8.520   2.450  10.064 -0.1926  0.3108 -0.4488
  121MOL0     C16249   8.734   2.653  10.077  0.5915 -0.4214  0.3325
  121MOL0     C16250   8.854   2.725  10.047 -0.1773 -0.3235 -0.0749
  121MOL0     N16251   9.169   3.327  10.253 -0.0038  0.3046  0.5048
  121MOL0     N16252   9.225   3.328  10.368  0.2432  0.4567 -0.5011
  121MOL0     C16253   9.955   2.475  10.498  1.2945  0.4685  0.2595
  121MOL0     C16254  10.011   2.348  10.485 -0.3808  0.0701  0.4362
  121MOL0     C16255  10.150   1.965  10.291  0.0267 -0.1224 -0.6351
  121MOL0     C16256  10.277   1.935  10.252  0.1027 -0.4402 -1.0318
  121MOL0     C16257  10.311   1.802  10.226 -0.3478  0.1086 -0.8699
  121MOL0     C16258  10.217   1.700  10.238  0.2901  0.1646  0.7088
  121MOL0     O16259  10.260   1.582  10.200 -0.0471  0.0065 -0.8428
  121MOL0     C16260  10.175   1.514  10.107  0.0542 -0.1571  0.6099
  121MOL0     C16261  10.242   1.420  10.022 -1.3997 -0.0329  0.1432
  121MOL0     C16262  10.336   1.490   9.923 -0.6196  0.8663 -0.3123
  121MOL0     C16263  10.437   1.387   9.868 -0.5169  0.0560  0.1576
  121MOL0     C16264  10.508   1.469   9.774 -0.0651  0.5614  0.1575
  121MOL0     C16265  10.577   1.523   9.690 -0.0287 -0.5364  0.6719
  121MOL0     C16266  10.094   1.731  10.283  0.9101  0.3267  0.5276
  121MOL0     C16267  10.058   1.859  10.305  0.2180 -0.5166  0.5164
  121MOL0     H16268   9.792   2.225  10.257  3.3832 -0.9567 -1.5090
  121MOL0     H16269   9.701   2.432  10.267 -0.4378 -2.2023 -0.4334
  121MOL0     H16270   9.775   2.745  10.563 -2.1143  0.6331 -2.0126
  121MOL0     H16271   9.943   2.738  10.494 -0.0738 -0.8130  2.7089
  121MOL0     H16272   9.859   2.953  10.435  0.9788  0.8562 -1.3271
  121MOL0     H16273   9.834   2.856  10.286 -0.4107  2.7693 -0.6241
  121MOL0     H16274   9.606   2.861  10.329 -0.7184 -2.9278  3.2061
  121MOL0     H16275   9.626   2.933  10.501  0.1660  0.8143  0.3157
  121MOL0     H16276   9.719   3.144  10.383  0.0324  0.4247 -2.4216
  121MOL0     H16277   9.664   3.097  10.244 -3.0215  3.3991 -1.2756
  121MOL0     H16278   9.473   3.219  10.340  0.5632  1.6204  0.9485
  121MOL0     H16279   9.420   3.053  10.356 -0.7798  2.1532  0.5050
  121MOL0     H16280   9.569   3.117  10.595 -0.5770  0.1392 -0.8728
  121MOL0     H16281   9.472   3.269  10.543  0.5709  0.4030  3.5760
  121MOL0     H16282   9.339   2.999  10.561 -1.9012  0.6275  0.5815
  121MOL0     H16283   9.380   3.101  10.706  2.2305  1.5889 -0.1450
  121MOL0     H16284   9.228   3.276  10.627  0.9977 -0.5558  0.9319
  121MOL0     H16285   9.145   3.124  10.619 -0.9572  2.8492  1.8435
  121MOL0     H16286   9.066   3.044  10.388 -1.7564  0.0837  1.2977
  121MOL0     H16287   8.881   3.194  10.195  0.6664 -1.7478  0.1747
  121MOL0     H16288   8.960   3.286  10.083  1.1852 -0.8427 -0.1965
  121MOL0     H16289   9.019   2.998  10.105 -0.4344  0.2744 -0.8914
  121MOL0     H16290   9.117   3.115  10.004  0.4233  1.7990  0.9048
  121MOL0     H16291   8.933   3.167   9.868 -1.1239  0.1839  1.0476
  121MOL0     H16292   8.823   3.053   9.935 -0.9178  1.8277 -4.5930
  121MOL0     H16293   9.098   3.000   9.802  0.0001  0.7246 -0.6462
  121MOL0     H16294   8.941   2.968   9.732 -1.4324 -0.3094  0.6152
  121MOL0     H16295   8.790   2.825   9.744  0.5684 -0.0759 -0.5711
  121MOL0     H16296   8.556   2.578   9.697 -2.1198 -0.8833 -0.3288
  121MOL0     H16297   8.441   2.677   9.787 -0.2880  4.0781 -0.2899
  121MOL0     H16298   8.547   2.755   9.679 -3.0011  1.1933  1.6008
  121MOL0     H16299   8.255   2.726  10.216 -2.1575  0.7683  0.8269
  121MOL0     H16300   8.086   2.629  10.331  1.5914 -0.9459  1.4164
  121MOL0     H16301   7.796   2.371  10.378  1.6111 -0.5994 -1.3618
  121MOL0     H16302   7.891   2.513  10.411 -0.9836 -0.8458  2.2116
  121MOL0     H16303   7.708   2.591  10.301  0.3356 -0.0486  0.1167
  121MOL0     H16304   7.843   2.591  10.190 -0.4537  0.6783  0.9310
  121MOL0     H16305   7.595   2.414  10.214 -0.7924 -3.2559 -0.1517
  121MOL0     H16306   7.732   2.330  10.143  0.4487  0.7693  0.2019
  121MOL0     H16307   7.557   2.514  10.003  1.8475  0.9871 -0.3691
  121MOL0     H16308   7.709   2.597  10.021 -0.5345  0.6999  1.4688
  121MOL0     H16309   7.671   2.484   9.816 -0.5337  4.3825  2.1025
  121MOL0     H16310   7.632   2.335   9.890  2.3003 -1.2887 -2.3106
  121MOL0     H16311   7.899   2.493   9.872 -2.1644  2.1745 -2.3232
  121MOL0     H16312   7.883   2.341   9.965 -0.6486  0.2013 -0.3901
  121MOL0     H16313   7.964   2.350   9.704  0.8745 -0.7645  1.0318
  121MOL0     H16314   7.797   2.371   9.671  1.7208  0.1542 -1.1205
  121MOL0     H16315   7.849   2.144   9.626  0.0865  0.3465  0.1627
  121MOL0     H16316   7.779   2.135   9.788 -0.4072 -0.9195 -1.6676
  121MOL0     H16317   8.098   2.280  10.062  4.6922 -1.5292 -2.3615
  121MOL0     H16318   8.267   2.404   9.925 -0.3305  0.7126 -1.7153
  121MOL0     H16319   8.720   2.598  10.169 -4.5498  1.3506  0.9280
  121MOL0     H16320   8.933   2.718  10.122 -0.5032  0.0151  0.3064
  121MOL0     H16321   9.994   2.538  10.577 -0.5900 -0.2107  1.8113
  121MOL0     H16322  10.100   2.323  10.542 -1.9436 -0.4114  2.8617
  121MOL0     H16323  10.346   2.017  10.236 -1.7249  1.6276  0.8721
  121MOL0     H16324  10.415   1.792  10.197  0.5027  0.3472  1.8256
  121MOL0     H16325  10.084   1.484  10.160 -0.5067  0.8368  0.2512
  121MOL0     H16326  10.134   1.591  10.040  4.8973 -1.3661 -4.5034
  121MOL0     H16327  10.163   1.366   9.969 -0.5396 -2.5365  1.2372
  121MOL0     H16328  10.298   1.350  10.085  0.9464  0.2635 -1.4526
  121MOL0     H16329  10.393   1.566   9.977  1.7941 -0.6981 -0.5051
  121MOL0     H16330  10.269   1.525   9.844 -1.2421 -1.6236 -0.9681
  121MOL0     H16331  10.395   1.292   9.834 -2.1935  1.4557 -1.9838
  121MOL0     H16332  10.496   1.358   9.955 -2.1057 -0.1427  1.2095
  121MOL0     H16333  10.628   1.571   9.609 -0.1890  0.1742  0.9847
  121MOL0     H16334  10.022   1.651  10.298 -0.2208  1.2807  0.3376
  121MOL0     H16335   9.959   1.870  10.348  1.0247  0.1540  2.2815
  122MOL0     O16336   0.022   9.656   5.646  0.3073 -1.0116 -0.6689
  122MOL0     C16337  -0.032   9.669   5.542 -1.0991  0.0169 -0.3719
  122MOL0     O16338  -0.085   9.785   5.496 -0.4000 -0.5133  0.6187
  122MOL0     C16339  -0.070   9.908   5.551  0.6028 -0.1031 -0.2717
  122MOL0     C16340  -0.163  10.016   5.519  0.1382  0.2214 -0.4545
  122MOL0     C16341  -0.151  10.136   5.579  0.0297 -0.9439  0.0064
  122MOL0     C16342  -0.051  10.169   5.667 -0.4563 -0.2642  0.1205
  122MOL0     O16343  -0.042  10.298   5.717  0.4019 -0.8374 -0.2685
  122MOL0     C16344   0.010  10.396   5.624  0.1029  0.4416  0.1028
  122MOL0     C16345  -0.075  10.534   5.648 -0.1042 -0.1454  0.3422
  122MOL0     C16346  -0.214  10.537   5.596  1.0398 -0.5492  0.7008
  122MOL0     C16347  -0.213  10.559   5.442  0.2085 -0.9928  0.1878
  122MOL0     C16348  -0.347  10.602   5.383 -0.0523 -0.2558 -0.1355
  122MOL0     C16349  -0.361  10.575   5.232 -0.6376  1.0273  0.7604
  122MOL0     C16350  -0.306  10.694   5.143 -0.4980 -0.5812 -0.1840
  122MOL0     C16351  -0.157  10.696   5.104  0.0485 -0.3548  0.9824
  122MOL0     N16352  -0.116  10.815   5.039  0.5560 -0.1891 -0.8484
  122MOL0     C16353  -0.035  10.918   5.085  0.3298  0.1287  0.1728
  122MOL0     C16354  -0.056  11.025   5.013 -0.8971 -0.0254  0.4258
  122MOL0     C16355  -0.000  11.164   5.054  0.1178 -0.4204  0.7434
  122MOL0     C16356   0.017  11.239   4.925  0.0129  0.1676  0.5615
  122MOL0     C16357   0.130  11.178   4.837  0.4524 -0.0745 -0.1307
  122MOL0     C16358   0.263  11.130   4.899 -0.1094 -0.5119 -0.2953
  122MOL0     O16359   0.335  11.232   4.972  0.2826 -0.4166 -0.0784
  122MOL0     C16360   0.433  11.191   5.053 -0.3336 -0.6417 -0.0185
  122MOL0     C16361   0.485  11.063   5.077 -0.3734 -0.1744  0.9309
  122MOL0     C16362   0.591  11.045   5.174  0.0890  0.2417 -0.2600
  122MOL0     C16363   0.636  10.904   5.194  1.2086  0.2540 -0.2981
  122MOL0     C16364   0.648  11.159   5.247 -0.3264  0.5720 -0.2332
  122MOL0     C16365   0.771  11.148   5.342  0.0265 -0.0394  0.1562
  122MOL0     O16366   0.778  11.233   5.448 -0.1216  0.3289  0.3167
  122MOL0     C16367   0.880  11.222   5.543 -1.5107  0.4764 -0.0844
  122MOL0     C16368   0.961  11.331   5.566 -0.1526 -0.1639 -0.8986
  122MOL0     C16369   1.076  11.319   5.643 -0.2215 -0.2654  0.3813
  122MOL0     C16370   1.104  11.201   5.710  0.0443  0.0863 -1.2847
  122MOL0     O16371   1.226  11.203   5.767  0.2106 -0.2780  0.1974
  122MOL0     C16372   1.284  11.082   5.793 -0.4604 -0.8528 -0.6676
  122MOL0     C16373   1.439  11.116   5.820  0.2429  0.6274 -0.6858
  122MOL0     C16374   1.498  11.025   5.932 -0.0732 -0.4734  0.1775
  122MOL0     C16375   1.630  11.080   5.995 -0.5832  0.2512 -0.2170
  122MOL0     C16376   1.663  11.008   6.133  0.4653 -0.0303  0.1391
  122MOL0     C16377   1.804  11.054   6.177 -0.1213 -0.1738  0.3136
  122MOL0     C16378   1.817  11.035   6.329 -0.2305 -0.0940 -0.4164
  122MOL0     C16379   1.962  11.084   6.373  0.3745 -0.3595 -0.0650
  122MOL0    Cl16380   2.021  10.992   6.521  0.6272 -0.1785  0.5779
  122MOL0     C16381   1.018  11.092   5.693  0.4123  0.7151 -0.8031
  122MOL0     C16382   0.911  11.100   5.606 -0.2218 -0.6577  0.1745
  122MOL0     O16383   0.851  11.066   5.314 -0.6573  0.0264 -0.3995
  122MOL0     C16384   0.585  11.280   5.223  0.1376  0.2490  0.3291
  122MOL0     C16385   0.481  11.299   5.130  0.3477  0.8295  0.5202
  122MOL0     N16386  -0.162  10.998   4.930  0.1698  0.3593 -0.4005
  122MOL0     N16387  -0.198  10.873   4.944 -1.0576  0.6221 -0.6583
  122MOL0     C16388   0.054  10.074   5.687  0.1099  0.3303  0.5001
  122MOL0     C16389   0.034   9.947   5.636 -0.5893 -0.3386  0.4533
  122MOL0     C16390  -0.069   9.542   5.468  0.2548  0.4350  0.4905
  122MOL0     C16391  -0.021   9.413   5.508 -0.0514 -0.2910 -0.0289
  122MOL0     C16392  -0.069   9.299   5.439 -0.4273  0.1623 -0.2621
  122MOL0     C16393  -0.157   9.308   5.329  0.0388  0.3155  0.8389
  122MOL0     O16394  -0.208   9.202   5.256  1.5126 -0.5441 -0.7373
  122MOL0     C16395  -0.164   9.072   5.287 -0.4765  0.8705  0.8792
  122MOL0     C16396  -0.227   9.005   5.411  0.5686 -0.5570  0.0866
  122MOL0     C16397  -0.175   8.863   5.467  0.3604  0.4476  0.8589
  122MOL0     C16398  -0.276   8.798   5.561  0.6327 -0.2466  0.4391
  122MOL0     C16399  -0.289   8.867   5.691 -0.1632  0.0154 -0.6830
  122MOL0     C16400  -0.293   8.911   5.803  0.5852 -0.4085  1.5361
  122MOL0     C16401  -0.194   9.441   5.289 -0.5861 -0.2197  0.3340
  122MOL0     C16402  -0.148   9.553   5.352 -0.1787  0.1405 -0.5994
  122MOL0     H16403  -0.254   9.992   5.466  1.4833 -0.4513 -2.5668
  122MOL0     H16404  -0.218  10.218   5.554 -0.0312 -1.2260 -0.7766
  122MOL0     H16405   0.112  10.425   5.649 -0.2758  0.4049  1.7492
  122MOL0     H16406  -0.003  10.356   5.523 -3.3187 -0.4392  0.7473
  122MOL0     H16407  -0.078  10.567   5.752  2.2674  1.8743 -0.1347
  122MOL0     H16408  -0.026  10.623   5.609 -1.0414  0.0323 -0.4908
  122MOL0     H16409  -0.259  10.440   5.618 -0.9970  0.3349  0.6825
  122MOL0     H16410  -0.277  10.618   5.635  1.3977 -0.1586  0.4815
  122MOL0     H16411  -0.147  10.641   5.413  0.6699 -2.1179 -2.2676
  122MOL0     H16412  -0.179  10.468   5.393 -2.3769 -0.8282 -2.2353
  122MOL0     H16413  -0.422  10.541   5.433 -1.5540 -0.2114 -2.2075
  122MOL0     H16414  -0.372  10.707   5.404 -0.4083 -0.7831  2.4542
  122MOL0     H16415  -0.303  10.486   5.206 -5.3306 -2.4497  1.0019
  122MOL0     H16416  -0.465  10.572   5.201 -0.1731  0.3967 -0.8482
  122MOL0     H16417  -0.362  10.691   5.049  0.8434 -0.1513 -1.0237
  122MOL0     H16418  -0.333  10.786   5.196 -1.2174 -2.5118  3.0769
  122MOL0     H16419  -0.133  10.619   5.031  2.6022  0.6815  0.6268
  122MOL0     H16420  -0.091  10.669   5.187 -0.9851  0.4558  2.1104
  122MOL0     H16421   0.027  10.912   5.174 -1.8168  2.0243  1.9336
  122MOL0     H16422  -0.081  11.204   5.117 -0.6186  0.1284 -0.5178
  122MOL0     H16423   0.095  11.157   5.108 -0.2157  0.7003  1.5245
  122MOL0     H16424   0.055  11.338   4.949 -2.2002  1.1690  0.2360
  122MOL0     H16425  -0.077  11.251   4.870  0.3742  1.1540  0.1376
  122MOL0     H16426   0.154  11.239   4.749  0.1396 -1.2918 -1.0809
  122MOL0     H16427   0.081  11.093   4.791 -1.6225  0.8566  0.2578
  122MOL0     H16428   0.330  11.093   4.821  3.0279  0.6633  1.6161
  122MOL0     H16429   0.240  11.037   4.951 -1.0612 -0.6680 -0.9673
  122MOL0     H16430   0.465  10.969   5.026  1.0671  0.8432 -1.7589
  122MOL0     H16431   0.732  10.890   5.143  1.8211 -0.7709  1.0741
  122MOL0     H16432   0.647  10.871   5.297 -0.1138 -3.9876 -1.3162
  122MOL0     H16433   0.550  10.840   5.171 -0.2984  1.9613  0.2733
  122MOL0     H16434   0.942  11.424   5.512 -0.5411 -0.0408 -0.5544
  122MOL0     H16435   1.139  11.407   5.633  1.5246 -1.6582 -1.5722
  122MOL0     H16436   1.234  11.036   5.879 -2.2419  0.6748 -0.8098
  122MOL0     H16437   1.293  11.006   5.715  1.6289 -2.0659  0.6603
  122MOL0     H16438   1.491  11.107   5.724  0.6398  1.1616 -0.5294
  122MOL0     H16439   1.452  11.217   5.859 -1.9233  0.4096  0.7271
  122MOL0     H16440   1.513  10.921   5.902  1.0447 -0.7074  1.4201
  122MOL0     H16441   1.432  11.035   6.019 -1.0974  0.0124 -0.6394
  122MOL0     H16442   1.720  11.072   5.933  0.4282 -1.8735  1.4115
  122MOL0     H16443   1.621  11.189   6.001 -0.8662  0.1887  0.6563
  122MOL0     H16444   1.661  10.900   6.116 -1.2510  0.2183 -1.6505
  122MOL0     H16445   1.589  11.032   6.210 -2.3003  0.6517 -2.5040
  122MOL0     H16446   1.884  11.005   6.120  0.8258  2.0402 -0.3554
  122MOL0     H16447   1.816  11.159   6.152  0.4913 -0.6260 -1.4366
  122MOL0     H16448   1.801  10.927   6.339 -1.2625  0.0647 -0.1851
  122MOL0     H16449   1.742  11.094   6.383 -1.1031 -2.1215  0.7424
  122MOL0     H16450   1.963  11.190   6.399  1.0124  0.3920 -2.8282
  122MOL0     H16451   2.040  11.084   6.296 -0.6465  0.1200 -1.1184
  122MOL0     H16452   1.041  10.994   5.733  2.6909  1.3254 -0.4432
  122MOL0     H16453   0.855  11.014   5.571 -2.1089  0.7505 -0.5098
  122MOL0     H16454   0.630  11.360   5.281  2.2633 -0.0220 -0.8115
  122MOL0     H16455   0.449  11.401   5.112 -1.2622  0.1416 -0.8011
  122MOL0     H16456   0.147  10.092   5.740 -0.0854  2.5533  0.1816
  122MOL0     H16457   0.101   9.864   5.655 -0.2401 -1.0523 -3.1343
  122MOL0     H16458   0.036   9.412   5.600  1.7935  1.9859 -1.0447
  122MOL0     H16459  -0.061   9.204   5.489 -1.5022  1.9233  3.6415
  122MOL0     H16460  -0.190   9.008   5.202  0.5680  1.1564  0.3277
  122MOL0     H16461  -0.056   9.066   5.276 -0.8241 -1.9368 -3.6864
  122MOL0     H16462  -0.333   8.984   5.395  1.1066 -2.8426 -0.8119
  122MOL0     H16463  -0.235   9.077   5.493  0.1031 -0.7898  0.2469
  122MOL0     H16464  -0.078   8.864   5.518  1.3771 -1.5235 -0.8604
  122MOL0     H16465  -0.169   8.807   5.374  0.6673 -0.1304  1.2207
  122MOL0     H16466  -0.241   8.696   5.578  2.8122 -0.3043 -3.2353
  122MOL0     H16467  -0.381   8.791   5.531  0.3357 -0.9052  1.5900
  122MOL0     H16468  -0.306   8.952   5.901 -0.5442  0.4114  1.0653
  122MOL0     H16469  -0.258   9.453   5.202 -0.1454  1.0271  0.1605
  122MOL0     H16470  -0.164   9.655   5.318 -0.2026  0.2442 -0.2776
  123MOL0     O16471   1.407  11.351   6.217 -0.4374 -0.7454  0.1762
  123MOL0     C16472   1.364  11.365   6.105  0.7091  1.5674  1.0988
  123MOL0     O16473   1.249  11.303   6.055  0.5358 -0.8508 -0.7774
  123MOL0     C16474   1.175  11.203   6.108  0.7135 -0.2982 -0.0756
  123MOL0     C16475   1.055  11.174   6.053  0.0698  0.0352  1.1790
  123MOL0     C16476   0.968  11.080   6.119  0.0341  0.1198  0.1047
  123MOL0     C16477   1.017  11.002   6.222 -0.1251 -0.2665  0.0768
  123MOL0     O16478   0.942  10.913   6.291  0.8567 -0.2707 -0.0177
  123MOL0     C16479   0.813  10.969   6.326  0.3381  1.1875 -0.0611
  123MOL0     C16480   0.821  11.075   6.432  0.1812 -0.4104  0.5246
  123MOL0     C16481   0.683  11.135   6.473  0.4013 -1.0640  1.1340
  123MOL0     C16482   0.653  11.261   6.413 -0.0911  0.6096  0.7986
  123MOL0     C16483   0.509  11.306   6.435 -0.3548 -0.1368  0.1234
  123MOL0     C16484   0.459  11.414   6.336  0.2504  0.8746  0.0163
  123MOL0     C16485   0.326  11.480   6.366 -0.6225 -0.3385 -0.5024
  123MOL0     C16486   0.287  11.588   6.264  0.2948 -0.4417  0.3943
  123MOL0     N16487   0.352  11.717   6.279  0.5454  0.0282 -0.6923
  123MOL0     C16488   0.341  11.805   6.388  0.1850  0.2984  0.2580
  123MOL0     C16489   0.429  11.906   6.367 -0.6195  0.1977  0.5645
  123MOL0     C16490   0.447  12.031   6.460 -0.0173 -0.0685 -0.0763
  123MOL0     C16491   0.340  12.134   6.452  0.1332 -0.7248 -0.1532
  123MOL0     C16492   0.367  12.250   6.350 -0.0692  0.1569 -0.4920
  123MOL0     C16493   0.247  12.323   6.299 -0.1027 -0.3090 -0.6772
  123MOL0     O16494   0.289  12.464   6.299 -0.3961 -0.1790  0.0283
  123MOL0     C16495   0.247  12.548   6.207 -0.0815 -0.1519  0.3235
  123MOL0     C16496   0.299  12.674   6.216 -0.2697 -0.3713 -0.6617
  123MOL0     C16497   0.262  12.777   6.126  0.7629 -0.5942  0.6381
  123MOL0     C16498   0.320  12.914   6.148  0.2475  0.9627  0.0258
  123MOL0     C16499   0.165  12.756   6.024 -0.6309  0.2331  0.1314
  123MOL0     C16500   0.128  12.858   5.918 -0.3212 -0.8725  0.6326
  123MOL0     O16501   0.019  12.822   5.852  0.4138 -0.4807 -0.0314
  123MOL0     C16502  -0.063  12.914   5.778 -0.4908  0.0692 -0.1829
  123MOL0     C16503  -0.032  13.044   5.738 -0.0463  0.3361 -0.1726
  123MOL0     C16504  -0.111  13.130   5.679 -0.2699 -0.3307 -0.0675
  123MOL0     C16505  -0.253  13.111   5.670 -0.3477 -0.3796  0.6062
  123MOL0     O16506  -0.319  13.212   5.611 -0.3232 -0.7228 -0.0343
  123MOL0     C16507  -0.461  13.176   5.586 -1.0988  0.5226  0.0367
  123MOL0     C16508  -0.522  13.298   5.525 -0.0391  0.3312 -0.0013
  123MOL0     C16509  -0.539  13.410   5.621  0.0990 -0.7933  0.9299
  123MOL0     C16510  -0.563  13.541   5.535  1.6288 -0.1768 -0.5700
  123MOL0     C16511  -0.568  13.662   5.629  0.3152 -0.1941  0.1153
  123MOL0     C16512  -0.562  13.794   5.543 -0.4480  0.4842 -0.1975
  123MOL0     C16513  -0.583  13.917   5.624  0.8819 -0.1154 -0.2708
  123MOL0     C16514  -0.718  13.909   5.699  0.1637  0.9646  0.0044
  123MOL0    Cl16515  -0.759  14.068   5.760  0.2877  0.1138  0.0279
  123MOL0     C16516  -0.300  12.977   5.704 -0.5404  0.2535 -1.0889
  123MOL0     C16517  -0.202  12.881   5.755 -0.4031  0.1589 -0.7197
  123MOL0     O16518   0.189  12.964   5.902  0.3155 -0.2280 -0.2513
  123MOL0     C16519   0.108  12.627   6.020 -0.2705  0.2274  0.1127
  123MOL0     C16520   0.153  12.522   6.106 -1.1354  1.0986  0.7604
  123MOL0     N16521   0.480  11.885   6.243 -0.3205  0.3366 -0.0811
  123MOL0     N16522   0.444  11.773   6.198 -0.3337 -0.2436  1.2378
  123MOL0     C16523   1.148  11.021   6.274  0.1033  0.1760 -0.1393
  123MOL0     C16524   1.222  11.120   6.221  0.9473  0.7010  1.0936
  123MOL0     C16525   1.434  11.466   6.032  0.4252  0.5021  0.2178
  123MOL0     C16526   1.399  11.477   5.890  0.7653  1.3219 -0.1886
  123MOL0     C16527   1.475  11.563   5.803  0.2898  0.6570 -0.4556
  123MOL0     C16528   1.589  11.637   5.851  0.2307  0.8466  0.1648
  123MOL0     O16529   1.674  11.713   5.772  0.1919 -0.1808  0.6748
  123MOL0     C16530   1.618  11.808   5.672 -0.0704 -0.1052 -0.1642
  123MOL0     C16531   1.602  11.950   5.730  0.2222  0.3005  1.2975
  123MOL0     C16532   1.696  11.981   5.850  0.5474  0.9144  0.8545
  123MOL0     C16533   1.686  12.131   5.893 -0.3159 -1.5652 -0.2599
  123MOL0     C16534   1.809  12.161   5.979  0.7178  0.2311  0.1435
  123MOL0     C16535   1.901  12.166   6.058  0.3779  0.0312  0.6422
  123MOL0     C16536   1.617  11.631   5.992  0.3025 -0.5831  0.5171
  123MOL0     C16537   1.543  11.548   6.078  0.5548  0.1555  0.4378
  123MOL0     H16538   1.038  11.241   5.970  0.2416 -0.6970  0.5459
  123MOL0     H16539   0.874  11.047   6.077 -1.5641  3.8350  0.3142
  123MOL0     H16540   0.742  10.983   6.243  0.1053  2.7805  0.3647
  123MOL0     H16541   0.769  10.888   6.385  1.7301  0.0806 -0.5120
  123MOL0     H16542   0.871  11.039   6.523  1.9867 -0.2851 -0.3783
  123MOL0     H16543   0.898  11.143   6.395  0.0964 -0.9439 -0.6650
  123MOL0     H16544   0.607  11.060   6.453  1.4487 -2.1386  1.0907
  123MOL0     H16545   0.687  11.149   6.582 -0.7147  1.8647  0.8952
  123MOL0     H16546   0.716  11.343   6.451 -2.7677  1.6412  3.4671
  123MOL0     H16547   0.663  11.248   6.305  1.9402 -3.3648  1.2851
  123MOL0     H16548   0.441  11.220   6.433 -2.9003  1.4796  4.2834
  123MOL0     H16549   0.490  11.346   6.535 -2.7098 -0.7828 -0.0008
  123MOL0     H16550   0.526  11.501   6.339  2.0814 -0.4391 -0.7974
  123MOL0     H16551   0.457  11.378   6.233 -3.4675 -0.0182  0.2664
  123MOL0     H16552   0.256  11.398   6.385  1.5984 -2.2927 -0.3159
  123MOL0     H16553   0.331  11.533   6.461 -0.9813 -1.0980 -0.0536
  123MOL0     H16554   0.181  11.612   6.271  0.7610  2.3682 -0.9022
  123MOL0     H16555   0.309  11.554   6.162  4.5866 -1.9297  1.5934
  123MOL0     H16556   0.284  11.800   6.480  1.1185  0.9841  0.8951
  123MOL0     H16557   0.449  11.989   6.561 -1.3586 -4.7162 -1.7012
  123MOL0     H16558   0.533  12.092   6.430  0.8998 -0.5638  1.3992
  123MOL0     H16559   0.332  12.179   6.551  2.6124 -0.3335 -0.0523
  123MOL0     H16560   0.245  12.089   6.424 -1.5189  3.5553 -2.4843
  123MOL0     H16561   0.423  12.218   6.261  2.3472 -0.1770  1.0523
  123MOL0     H16562   0.432  12.324   6.398 -1.8655  1.5322 -0.0717
  123MOL0     H16563   0.165  12.301   6.368 -0.4994  2.9428  0.0504
  123MOL0     H16564   0.222  12.277   6.203  1.0053  0.3390 -1.3016
  123MOL0     H16565   0.375  12.665   6.293  0.4992 -0.0389 -1.3587
  123MOL0     H16566   0.390  12.925   6.232  1.4834  2.1858 -1.0981
  123MOL0     H16567   0.380  12.945   6.062  1.4586 -2.9207 -0.6817
  123MOL0     H16568   0.229  12.971   6.168 -1.3276 -0.5086 -2.4972
  123MOL0     H16569   0.068  13.083   5.753  0.3479 -0.3492 -0.9698
  123MOL0     H16570  -0.072  13.229   5.661 -1.2000  0.2920  1.1980
  123MOL0     H16571  -0.456  13.102   5.505 -1.1497  0.0276  0.4850
  123MOL0     H16572  -0.515  13.128   5.668 -1.0099 -1.1935 -0.8546
  123MOL0     H16573  -0.473  13.334   5.434  0.9433  0.3646  0.5301
  123MOL0     H16574  -0.621  13.267   5.489 -0.2176  0.0930  0.6774
  123MOL0     H16575  -0.448  13.429   5.679  1.2690 -2.4947 -0.2295
  123MOL0     H16576  -0.634  13.399   5.674 -0.6914 -0.1105 -0.2922
  123MOL0     H16577  -0.480  13.548   5.464 -0.4468  0.7873 -3.0591
  123MOL0     H16578  -0.653  13.533   5.473  0.8662  1.5768  0.2280
  123MOL0     H16579  -0.480  13.661   5.695 -0.2359  1.5097  0.9238
  123MOL0     H16580  -0.657  13.667   5.692  1.3116  0.6904  1.5508
  123MOL0     H16581  -0.472  13.784   5.480 -0.6281 -3.7570 -0.1057
  123MOL0     H16582  -0.638  13.795   5.464  0.7146 -0.1159 -1.3668
  123MOL0     H16583  -0.572  14.004   5.559  0.2444  0.5662  0.5100
  123MOL0     H16584  -0.501  13.928   5.696  0.2548  3.3321  0.0697
  123MOL0     H16585  -0.719  13.845   5.788  1.1569  1.1862  0.1864
  123MOL0     H16586  -0.793  13.857   5.638  2.3203  0.9681 -2.8420
  123MOL0     H16587  -0.404  12.947   5.701 -0.5977  0.0965  1.2190
  123MOL0     H16588  -0.239  12.786   5.792 -1.2056  0.8006  0.2018
  123MOL0     H16589   0.020  12.603   5.961  0.5689 -3.6544  0.2249
  123MOL0     H16590   0.097  12.428   6.102 -2.5352  1.8951  0.9756
  123MOL0     H16591   1.184  10.974   6.364  1.7463 -0.5446 -1.1254
  123MOL0     H16592   1.315  11.147   6.271 -0.3335  0.8993  3.4795
  123MOL0     H16593   1.311  11.432   5.845  1.3290  0.3624 -0.3627
  123MOL0     H16594   1.453  11.568   5.697 -2.2591 -1.3974 -0.1067
  123MOL0     H16595   1.694  11.804   5.594 -0.2337 -3.2940 -0.2905
  123MOL0     H16596   1.527  11.778   5.621 -0.1005  0.3145 -0.3631
  123MOL0     H16597   1.494  11.949   5.749  0.0037 -1.2453  0.1508
  123MOL0     H16598   1.627  12.029   5.658 -0.6279 -0.2128  0.4030
  123MOL0     H16599   1.801  11.964   5.824  0.3497 -1.0703  1.1536
  123MOL0     H16600   1.647  11.930   5.933 -1.2755  0.2471 -0.5546
  123MOL0     H16601   1.596  12.165   5.945 -0.2310  0.0758 -1.1242
  123MOL0     H16602   1.684  12.207   5.814  3.4663 -2.3705 -1.3068
  123MOL0     H16603   1.973  12.175   6.137  0.0114 -0.0178  0.9901
  123MOL0     H16604   1.692  11.695   6.038 -3.5395  2.8621  2.6830
  123MOL0     H16605   1.579  11.530   6.178 -2.3326  0.0207  1.5550
  124MOL0     O16606  10.290   6.963   7.720  0.3426  0.0282  0.8643
  124MOL0     C16607  10.297   7.069   7.648 -0.4005  0.7329  0.1390
  124MOL0     O16608  10.279   7.071   7.507 -0.2966 -1.1343 -0.0981
  124MOL0     C16609  10.237   6.956   7.441  0.0795 -0.9873 -1.0099
  124MOL0     C16610  10.114   6.908   7.468 -0.5299  0.5132 -0.3043
  124MOL0     C16611  10.057   6.814   7.398 -0.0566  0.7736  0.0669
  124MOL0     C16612  10.122   6.766   7.289  0.5024  0.4765 -0.1567
  124MOL0     O16613  10.054   6.691   7.194 -0.8862 -0.1872 -0.5572
  124MOL0     C16614  10.065   6.550   7.230 -0.1819 -0.3629 -0.7863
  124MOL0     C16615   9.938   6.493   7.197  0.9880  0.1524 -0.2719
  124MOL0     C16616   9.938   6.347   7.187 -0.3410  0.2781 -0.5243
  124MOL0     C16617   9.941   6.295   7.037 -0.8869 -0.9169 -0.4943
  124MOL0     C16618   9.899   6.150   7.033 -0.6604  0.7349  0.7627
  124MOL0     C16619   9.883   6.107   6.886  0.0594  0.0031  0.1269
  124MOL0     C16620   9.818   5.961   6.879 -0.2191  0.2180 -0.0505
  124MOL0     C16621   9.808   5.906   6.739 -0.0637 -0.4169  0.3914
  124MOL0     N16622   9.742   5.776   6.734 -0.3602 -0.1824 -0.2432
  124MOL0     C16623   9.729   5.695   6.623  0.1504 -0.0120  0.7475
  124MOL0     C16624   9.624   5.612   6.645 -0.3892 -0.2346 -0.8342
  124MOL0     C16625   9.570   5.501   6.566  0.1589 -1.1469  1.1441
  124MOL0     C16626   9.429   5.535   6.504  0.2863  0.2831 -0.1983
  124MOL0     C16627   9.355   5.400   6.461  0.2400  0.2181 -0.6629
  124MOL0     C16628   9.415   5.335   6.333 -0.9957 -0.3985  0.5288
  124MOL0     O16629   9.354   5.211   6.302  0.5360  0.6631  0.2372
  124MOL0     C16630   9.388   5.140   6.187  0.5122  0.4199  0.1971
  124MOL0     C16631   9.479   5.179   6.095 -0.2459 -0.5442  0.1977
  124MOL0     C16632   9.512   5.100   5.987  0.0153 -0.0842  0.5525
  124MOL0     C16633   9.615   5.152   5.882 -0.3507 -0.6212 -0.9368
  124MOL0     C16634   9.448   4.981   5.972 -0.6056 -0.5777  0.7170
  124MOL0     C16635   9.480   4.899   5.856 -1.2041 -0.0564 -0.6923
  124MOL0     O16636   9.505   4.761   5.865  0.4292 -0.4776 -0.4448
  124MOL0     C16637   9.547   4.696   5.751 -1.0200 -0.5982  0.0989
  124MOL0     C16638   9.453   4.653   5.659  0.7189  0.9872 -0.2588
  124MOL0     C16639   9.482   4.589   5.539  0.5091 -0.5655 -0.3949
  124MOL0     C16640   9.614   4.535   5.518  0.0652 -1.6271 -0.0580
  124MOL0     O16641   9.649   4.464   5.409  0.0281 -0.2782  1.0722
  124MOL0     C16642   9.639   4.327   5.432  0.7360 -0.1761  0.2738
  124MOL0     C16643   9.760   4.255   5.377  0.0820 -0.6668  0.6759
  124MOL0     C16644   9.779   4.265   5.227 -0.0225 -0.1653 -1.0144
  124MOL0     C16645   9.914   4.211   5.191 -0.7109 -0.3196  0.2599
  124MOL0     C16646   9.955   4.243   5.043  0.6062 -0.7207  0.3264
  124MOL0     C16647  10.100   4.285   5.018 -0.2359  0.3295  0.2450
  124MOL0     C16648  10.138   4.330   4.875  0.5540 -0.3036 -0.6466
  124MOL0     C16649  10.265   4.401   4.842 -0.9604 -1.0025  0.5442
  124MOL0    Cl16650  10.408   4.293   4.866  0.0693 -0.2146  0.1664
  124MOL0     C16651   9.714   4.580   5.615 -0.3049  0.0594  0.2382
  124MOL0     C16652   9.678   4.653   5.727  0.5498  0.4162 -0.7348
  124MOL0     O16653   9.485   4.958   5.747  0.0414  0.4515  0.0016
  124MOL0     C16654   9.347   4.939   6.057  0.4055 -0.5131  0.0644
  124MOL0     C16655   9.318   5.017   6.176  0.4151 -0.4881  0.2204
  124MOL0     N16656   9.559   5.648   6.774 -0.1402  0.2558  1.2312
  124MOL0     N16657   9.640   5.741   6.824  0.8725 -0.0907  0.0332
  124MOL0     C16658  10.258   6.806   7.263  0.7010  0.3388 -0.0047
  124MOL0     C16659  10.317   6.917   7.333  0.0185  0.4945  0.2353
  124MOL0     C16660  10.339   7.186   7.720  0.5848 -1.2778 -1.1329
  124MOL0     C16661  10.422   7.284   7.651  0.3498  0.3753  0.2492
  124MOL0     C16662  10.473   7.393   7.723 -1.0087 -0.0215  0.3082
  124MOL0     C16663  10.446   7.422   7.857  0.2666  0.5878  0.5676
  124MOL0     O16664  10.515   7.523   7.914 -0.0328 -1.1743 -0.1726
  124MOL0     C16665  10.528   7.534   8.062  0.6146 -0.8287 -0.3930
  124MOL0     C16666  10.402   7.587   8.130  0.8987  0.6283 -0.2542
  124MOL0     C16667  10.340   7.732   8.086  0.6679  0.4306 -0.0462
  124MOL0     C16668  10.428   7.854   8.121 -0.3214  0.3550  0.6175
  124MOL0     C16669  10.412   7.906   8.256 -0.2226  0.1254 -0.6347
  124MOL0     C16670  10.402   7.926   8.376 -0.3087  0.5768 -0.3838
  124MOL0     C16671  10.352   7.333   7.913 -0.0997  0.3618 -0.1996
  124MOL0     C16672  10.299   7.216   7.851 -0.2353  0.4107 -0.7651
  124MOL0     H16673  10.032   6.945   7.528 -1.3500 -1.2636 -0.2670
  124MOL0     H16674   9.952   6.803   7.425  0.7695 -0.4205  3.3108
  124MOL0     H16675  10.142   6.507   7.166 -0.8936 -0.2837 -1.7123
  124MOL0     H16676  10.092   6.523   7.333 -1.2081 -2.6025 -1.0326
  124MOL0     H16677   9.859   6.542   7.255 -1.1662  0.4556 -3.2192
  124MOL0     H16678   9.917   6.525   7.095  0.8979 -4.0986 -1.7499
  124MOL0     H16679  10.028   6.314   7.240  0.3434  1.8299 -0.6624
  124MOL0     H16680   9.855   6.296   7.237  2.6948 -3.1664  1.5401
  124MOL0     H16681   9.866   6.351   6.981 -0.5489  0.7467  0.6566
  124MOL0     H16682  10.038   6.304   6.988 -0.5655 -1.0684  0.0994
  124MOL0     H16683   9.977   6.081   7.066 -0.8624 -0.4893 -1.1406
  124MOL0     H16684   9.811   6.137   7.096 -1.3659 -0.1749 -0.3614
  124MOL0     H16685   9.820   6.177   6.831 -0.1191 -1.2341 -1.3157
  124MOL0     H16686   9.974   6.109   6.825 -1.1744  2.5329 -1.8598
  124MOL0     H16687   9.878   5.893   6.941 -1.4560  1.5207  2.6950
  124MOL0     H16688   9.719   5.954   6.924 -0.6577 -1.0771 -1.1436
  124MOL0     H16689   9.905   5.882   6.694  0.6750 -6.2935  3.9920
  124MOL0     H16690   9.739   5.967   6.680 -1.7921 -3.2323 -0.7596
  124MOL0     H16691   9.786   5.699   6.531 -2.2827 -2.1938 -1.0414
  124MOL0     H16692   9.638   5.491   6.481 -1.7584  0.2024 -0.6503
  124MOL0     H16693   9.560   5.410   6.626 -4.1953 -1.2423  0.5976
  124MOL0     H16694   9.413   5.597   6.415 -1.6183  0.5899  0.3283
  124MOL0     H16695   9.377   5.595   6.579 -0.9480 -1.1391  0.1299
  124MOL0     H16696   9.249   5.405   6.436  0.6206 -1.5134 -3.0600
  124MOL0     H16697   9.362   5.322   6.537 -2.0793 -0.4825 -1.1046
  124MOL0     H16698   9.521   5.323   6.361 -0.5314  1.2210 -0.4289
  124MOL0     H16699   9.402   5.412   6.257 -1.7173 -1.7826 -0.7865
  124MOL0     H16700   9.528   5.276   6.087 -0.7506 -0.3865 -1.2853
  124MOL0     H16701   9.682   5.229   5.922  0.7989 -1.4531 -1.1923
  124MOL0     H16702   9.672   5.067   5.843 -1.1174 -1.0480 -1.1533
  124MOL0     H16703   9.557   5.199   5.802 -1.6983  3.2079  1.9803
  124MOL0     H16704   9.350   4.677   5.686  0.2415 -1.5362  0.3722
  124MOL0     H16705   9.412   4.569   5.459  1.3932 -0.0765 -1.2990
  124MOL0     H16706   9.645   4.309   5.540  0.8707 -2.7954 -0.0881
  124MOL0     H16707   9.546   4.287   5.389 -0.4042  2.5631 -0.0140
  124MOL0     H16708   9.849   4.284   5.435 -0.0924 -1.6488  1.4598
  124MOL0     H16709   9.759   4.147   5.392  0.8629 -0.4876  2.2198
  124MOL0     H16710   9.779   4.371   5.201  1.4376 -0.0248 -0.5002
  124MOL0     H16711   9.697   4.211   5.178 -0.1070  0.9765 -2.1831
  124MOL0     H16712   9.983   4.258   5.261 -1.6416  1.2749  0.1476
  124MOL0     H16713   9.924   4.104   5.213  0.0497 -0.1703  0.6750
  124MOL0     H16714   9.889   4.327   5.018  1.3474  0.7090  2.8038
  124MOL0     H16715   9.927   4.153   4.988 -1.9754 -1.2739  2.3042
  124MOL0     H16716  10.134   4.362   5.087  0.9548  1.8359 -1.8893
  124MOL0     H16717  10.158   4.195   5.037  0.8406  1.2213  1.3563
  124MOL0     H16718  10.064   4.402   4.839  3.0176  2.0060 -1.4741
  124MOL0     H16719  10.125   4.240   4.815  0.0068 -1.9135  1.7336
  124MOL0     H16720  10.282   4.495   4.895 -0.2288  0.0097 -1.3694
  124MOL0     H16721  10.264   4.443   4.740  1.9847  1.2473  1.3087
  124MOL0     H16722   9.820   4.565   5.598 -0.4972  0.0919 -1.1587
  124MOL0     H16723   9.743   4.701   5.799 -2.2267  2.8087  0.3421
  124MOL0     H16724   9.318   4.834   6.062  2.1441 -0.9927  0.8320
  124MOL0     H16725   9.257   4.979   6.257 -0.3314  0.2031  0.0009
  124MOL0     H16726  10.309   6.769   7.175 -0.8025 -0.3642 -0.6268
  124MOL0     H16727  10.403   6.976   7.303 -0.6798  0.9159 -1.0370
  124MOL0     H16728  10.456   7.260   7.551 -1.7572  4.8339 -1.8586
  124MOL0     H16729  10.549   7.455   7.676 -0.1516 -1.0524  0.3007
  124MOL0     H16730  10.562   7.444   8.116  3.0565 -0.1695 -0.7216
  124MOL0     H16731  10.595   7.618   8.084 -0.8828  0.4347 -0.5712
  124MOL0     H16732  10.413   7.582   8.239  0.9663 -0.4228 -0.2991
  124MOL0     H16733  10.313   7.528   8.106  0.1548  2.8617 -3.7478
  124MOL0     H16734  10.242   7.755   8.129  1.3170  0.3406  1.5402
  124MOL0     H16735  10.336   7.745   7.978 -0.3171  3.6511  0.2595
  124MOL0     H16736  10.399   7.931   8.049  2.9825  0.2910 -0.9825
  124MOL0     H16737  10.534   7.831   8.106 -0.8619 -1.9551 -0.0637
  124MOL0     H16738  10.389   7.946   8.480 -3.7617 -1.3948 -0.2567
  124MOL0     H16739  10.318   7.356   8.013  1.1101 -1.4521  0.6725
  124MOL0     H16740  10.226   7.151   7.899  0.4305 -1.2044 -1.8593
  125MOL0     O16741   6.079   6.912   2.308 -0.0524 -0.1716 -0.0765
  125MOL0     C16742   6.078   6.802   2.261  0.6461  0.6895  0.2610
  125MOL0     O16743   6.195   6.730   2.236  1.2886 -0.1848 -0.3721
  125MOL0     C16744   6.314   6.791   2.259 -0.0501  0.3474  0.6390
  125MOL0     C16745   6.346   6.919   2.212  0.7150 -0.1264 -0.3713
  125MOL0     C16746   6.474   6.980   2.232  0.1197  0.5088 -0.4656
  125MOL0     C16747   6.575   6.906   2.306  1.1372 -0.7560  0.5764
  125MOL0     O16748   6.693   6.969   2.320 -0.4657 -0.3247 -0.2947
  125MOL0     C16749   6.766   6.954   2.440  0.3921  0.1646  1.4685
  125MOL0     C16750   6.798   7.091   2.485  0.3154 -0.5681  0.7983
  125MOL0     C16751   6.675   7.174   2.536  0.2167  0.3395  0.1503
  125MOL0     C16752   6.724   7.310   2.596  0.1574  0.3532 -0.4159
  125MOL0     C16753   6.614   7.402   2.624  0.4704  0.2640  0.2044
  125MOL0     C16754   6.523   7.364   2.737  0.0851  0.4701 -0.5867
  125MOL0     C16755   6.600   7.351   2.869  0.4286 -0.8872  1.1001
  125MOL0     C16756   6.513   7.388   2.997 -1.0000  0.1273  0.6612
  125MOL0     N16757   6.412   7.298   3.043  0.0828 -1.0520  0.2029
  125MOL0     C16758   6.359   7.193   2.989  0.2046  0.2431  0.2072
  125MOL0     C16759   6.277   7.136   3.086 -0.4704  0.3303 -0.2855
  125MOL0     C16760   6.195   7.007   3.066 -0.1792  0.2440 -0.0726
  125MOL0     C16761   6.088   6.993   2.947 -0.6417 -0.4563 -0.4727
  125MOL0     C16762   6.049   6.847   2.931 -0.0268  0.6645 -0.0313
  125MOL0     C16763   5.947   6.833   2.821 -0.3174  0.0434 -0.5809
  125MOL0     O16764   5.911   6.696   2.814  0.0563  0.1004 -0.2488
  125MOL0     C16765   5.788   6.661   2.771 -0.5214 -0.2163  0.4040
  125MOL0     C16766   5.700   6.740   2.689  0.2131 -0.1545  0.1567
  125MOL0     C16767   5.571   6.695   2.662 -0.4376 -0.4378  1.2260
  125MOL0     C16768   5.505   6.777   2.559 -0.4172  0.5385 -0.5457
  125MOL0     C16769   5.522   6.571   2.718  0.2580  0.3494 -0.1050
  125MOL0     C16770   5.389   6.509   2.690 -0.7219  0.5708  0.2730
  125MOL0     O16771   5.370   6.381   2.716 -0.9720  0.7677  0.5529
  125MOL0     C16772   5.255   6.333   2.663  0.3695 -0.8043  0.1491
  125MOL0     C16773   5.154   6.294   2.758  0.0861  0.4571 -0.0060
  125MOL0     C16774   5.035   6.237   2.708  0.3390 -1.0689 -0.0131
  125MOL0     C16775   5.005   6.248   2.575  0.2782 -0.1630  0.1934
  125MOL0     O16776   4.887   6.199   2.526 -0.2988 -0.7332  0.5583
  125MOL0     C16777   4.865   6.172   2.389 -0.3646 -0.5748  0.3626
  125MOL0     C16778   4.724   6.116   2.367 -0.1474  0.3526  1.0834
  125MOL0     C16779   4.619   6.222   2.410  0.2082  0.4796  0.1812
  125MOL0     C16780   4.482   6.218   2.351  0.3084 -0.4500 -0.5238
  125MOL0     C16781   4.412   6.099   2.410  0.7946 -0.4132  0.4467
  125MOL0     C16782   4.269   6.088   2.356  0.0224 -0.0289 -0.8623
  125MOL0     C16783   4.196   5.966   2.407  0.4866  0.2550 -0.8549
  125MOL0     C16784   4.060   5.960   2.335  0.0812  0.2346 -0.4505
  125MOL0    Cl16785   3.929   6.076   2.398  0.2472  0.4580 -0.0525
  125MOL0     C16786   5.110   6.290   2.480  0.3748 -0.4806 -0.0658
  125MOL0     C16787   5.227   6.325   2.529 -0.0165  0.5245 -0.1734
  125MOL0     O16788   5.310   6.588   2.650  0.1117  0.0191  1.2037
  125MOL0     C16789   5.607   6.501   2.792  0.1773  0.0335  0.3961
  125MOL0     C16790   5.740   6.534   2.818 -0.7374 -0.2211 -0.0716
  125MOL0     N16791   6.279   7.223   3.194 -0.4920 -0.8568 -0.5730
  125MOL0     N16792   6.352   7.319   3.164  0.2692 -0.5476  0.0524
  125MOL0     C16793   6.544   6.768   2.344  0.4148 -0.6187  0.4799
  125MOL0     C16794   6.414   6.713   2.322  0.1007 -0.3943  0.3640
  125MOL0     C16795   5.949   6.736   2.246 -0.0545  0.4678  1.4354
  125MOL0     C16796   5.827   6.795   2.284 -1.4424  0.2551  0.1481
  125MOL0     C16797   5.709   6.727   2.273 -0.7698 -0.3461 -0.0688
  125MOL0     C16798   5.701   6.601   2.230  0.3437  0.7443 -0.5492
  125MOL0     O16799   5.578   6.542   2.228  0.6887 -0.0583  0.3693
  125MOL0     C16800   5.537   6.437   2.137  0.2363 -0.6619 -0.1196
  125MOL0     C16801   5.389   6.485   2.101 -0.3672 -0.1157  0.3388
  125MOL0     C16802   5.374   6.635   2.052 -0.6801 -0.2601  0.4461
  125MOL0     C16803   5.286   6.717   2.143 -0.2213  0.1718  0.3636
  125MOL0     C16804   5.321   6.856   2.100 -0.7940  0.8209 -0.2327
  125MOL0     C16805   5.342   6.954   2.026  0.5808 -0.7006 -0.9572
  125MOL0     C16806   5.816   6.541   2.181  1.0605 -0.8177  0.3272
  125MOL0     C16807   5.939   6.605   2.193  0.0716 -0.0865  0.6559
  125MOL0     H16808   6.270   6.974   2.158  0.1954  0.7444  1.1832
  125MOL0     H16809   6.485   7.082   2.197  2.0684  0.8762  1.0502
  125MOL0     H16810   6.702   6.908   2.515 -0.7262  0.4276  0.7054
  125MOL0     H16811   6.863   6.908   2.419  0.3575 -0.0416  1.7570
  125MOL0     H16812   6.867   7.089   2.569 -2.3002  0.2059  3.1270
  125MOL0     H16813   6.839   7.151   2.403 -1.6448 -1.1352 -0.7034
  125MOL0     H16814   6.612   7.191   2.448  1.4547  0.2881 -0.7911
  125MOL0     H16815   6.623   7.119   2.615  0.4263  0.5494  0.4373
  125MOL0     H16816   6.789   7.297   2.683 -4.2238  1.2512  3.4091
  125MOL0     H16817   6.777   7.360   2.514 -3.9542  0.2948 -3.4861
  125MOL0     H16818   6.644   7.506   2.639 -1.2421  0.5241  2.4095
  125MOL0     H16819   6.556   7.405   2.532  0.2833 -0.1880  0.3034
  125MOL0     H16820   6.443   7.438   2.747 -1.8425 -1.5796  0.2122
  125MOL0     H16821   6.471   7.271   2.713  1.2837 -0.9054  1.7029
  125MOL0     H16822   6.638   7.249   2.875  1.9426 -0.5319 -1.0411
  125MOL0     H16823   6.686   7.419   2.869 -0.5710  0.7242 -3.0766
  125MOL0     H16824   6.480   7.491   2.978 -4.6965 -1.2832 -1.6470
  125MOL0     H16825   6.597   7.386   3.067  0.2039 -1.4491 -0.7414
  125MOL0     H16826   6.385   7.142   2.897 -3.0165  0.1870 -0.8076
  125MOL0     H16827   6.263   6.921   3.065  0.1895  0.5169  0.6013
  125MOL0     H16828   6.132   7.000   3.156  0.8304 -1.8068  0.5367
  125MOL0     H16829   6.125   7.014   2.847 -0.5099  1.1212 -0.1089
  125MOL0     H16830   6.005   7.061   2.967 -1.5215 -1.5483 -0.3075
  125MOL0     H16831   6.004   6.800   3.019 -0.7117 -1.1551 -1.2948
  125MOL0     H16832   6.141   6.798   2.899 -0.4350  1.7095 -3.1185
  125MOL0     H16833   5.992   6.867   2.727 -1.9938  2.3868 -0.6296
  125MOL0     H16834   5.863   6.896   2.851 -0.6966 -0.9369  0.4885
  125MOL0     H16835   5.740   6.831   2.647  2.7613 -1.3434 -0.2176
  125MOL0     H16836   5.566   6.857   2.517 -1.1215  3.2600  3.1302
  125MOL0     H16837   5.470   6.709   2.480 -2.6386  1.4246 -0.3932
  125MOL0     H16838   5.415   6.826   2.596 -1.1523  0.8568 -2.6075
  125MOL0     H16839   5.179   6.286   2.863  1.4416 -3.9599 -0.4654
  125MOL0     H16840   4.960   6.199   2.776 -0.4757  0.6671  0.1307
  125MOL0     H16841   4.894   6.258   2.327  0.2613  1.3922  3.2057
  125MOL0     H16842   4.936   6.095   2.359  1.0167  1.3935 -1.7445
  125MOL0     H16843   4.719   6.085   2.262 -3.4201 -0.8359  1.4781
  125MOL0     H16844   4.715   6.024   2.425 -0.0803  0.6803  1.6189
  125MOL0     H16845   4.665   6.318   2.384 -0.5139  0.5010 -1.1014
  125MOL0     H16846   4.635   6.223   2.518  1.8269 -0.0679 -0.0189
  125MOL0     H16847   4.428   6.309   2.381 -0.5605 -1.7033  1.9720
  125MOL0     H16848   4.494   6.200   2.244  0.3451  3.0883 -1.2474
  125MOL0     H16849   4.425   6.085   2.518  2.5374 -1.2112  0.1689
  125MOL0     H16850   4.465   6.013   2.369  2.8844  1.4371 -0.9781
  125MOL0     H16851   4.221   6.181   2.388 -1.9622 -0.7608 -1.5869
  125MOL0     H16852   4.276   6.091   2.247  4.1492  1.3272 -0.7379
  125MOL0     H16853   4.179   5.975   2.515  0.6930  2.8583 -0.9834
  125MOL0     H16854   4.269   5.889   2.377  0.9712  1.7223 -3.8209
  125MOL0     H16855   4.017   5.859   2.344 -0.5070  0.5698  0.6412
  125MOL0     H16856   4.068   5.981   2.228  0.1389 -0.5879 -0.6200
  125MOL0     H16857   5.093   6.298   2.373  2.7493  2.8031 -0.3505
  125MOL0     H16858   5.306   6.352   2.460  1.6747  0.4263  1.6353
  125MOL0     H16859   5.574   6.404   2.828 -1.1819  0.4201  0.2319
  125MOL0     H16860   5.806   6.468   2.874 -0.8481 -0.5105 -0.2830
  125MOL0     H16861   6.629   6.710   2.379  0.7202  0.8183  2.3239
  125MOL0     H16862   6.394   6.611   2.356  0.5784  0.0958  2.2229
  125MOL0     H16863   5.823   6.898   2.318 -0.0391 -0.0300  1.3161
  125MOL0     H16864   5.614   6.779   2.274  0.5399  2.1991  0.0177
  125MOL0     H16865   5.608   6.423   2.055 -2.0589 -0.5121 -2.2767
  125MOL0     H16866   5.531   6.339   2.186  1.7245 -1.5682 -1.6385
  125MOL0     H16867   5.329   6.458   2.188 -0.2806 -2.6036 -0.2955
  125MOL0     H16868   5.360   6.414   2.023  1.1197 -1.1169  0.6603
  125MOL0     H16869   5.333   6.644   1.951  1.1281 -0.6823 -0.3564
  125MOL0     H16870   5.469   6.684   2.031 -0.4265 -0.3336  1.3514
  125MOL0     H16871   5.299   6.700   2.250  1.8079  1.8120  0.4508
  125MOL0     H16872   5.182   6.702   2.113 -0.7962  2.8787  0.7926
  125MOL0     H16873   5.348   7.051   1.980 -0.4058  2.3035  4.3307
  125MOL0     H16874   5.808   6.449   2.122 -3.8671 -0.0786 -0.5895
  125MOL0     H16875   6.027   6.551   2.160 -0.6887 -0.2957 -1.1293
  126MOL0     O16876   6.555   3.062   2.471  0.0624  0.4745  0.5186
  126MOL0     C16877   6.505   2.964   2.517  0.8407  0.3441 -0.3498
  126MOL0     O16878   6.398   2.963   2.601  0.4411  0.3188 -0.2496
  126MOL0     C16879   6.366   3.090   2.653 -0.2195  1.6928  0.2328
  126MOL0     C16880   6.230   3.111   2.663 -0.2655  0.0244 -0.1397
  126MOL0     C16881   6.182   3.209   2.742 -0.3035  0.1830  0.3707
  126MOL0     C16882   6.263   3.298   2.814 -0.5663  0.2811 -0.0386
  126MOL0     O16883   6.232   3.404   2.898 -0.3835 -0.1010  0.2879
  126MOL0     C16884   6.092   3.435   2.909 -0.2095  0.3437 -0.0186
  126MOL0     C16885   6.069   3.544   3.009  0.2624  1.2935 -0.6346
  126MOL0     C16886   5.924   3.600   3.000  0.3722  0.6044  0.0054
  126MOL0     C16887   5.826   3.501   3.066 -0.6358 -0.5482  0.4461
  126MOL0     C16888   5.688   3.571   3.079 -0.0318 -0.4526  0.0290
  126MOL0     C16889   5.582   3.483   3.130 -0.3344  0.0369  0.7384
  126MOL0     C16890   5.462   3.546   3.207  0.1833  0.0929 -1.1123
  126MOL0     C16891   5.365   3.431   3.256  0.1176 -0.3072 -0.3892
  126MOL0     N16892   5.428   3.332   3.345  0.1988 -0.6291 -0.5538
  126MOL0     C16893   5.447   3.371   3.478  0.2719  0.6174  0.7033
  126MOL0     C16894   5.490   3.247   3.528 -0.9292 -0.0237 -0.5413
  126MOL0     C16895   5.538   3.216   3.668 -0.0234 -0.4631 -0.2705
  126MOL0     C16896   5.642   3.319   3.715  0.6242 -0.3225 -0.2862
  126MOL0     C16897   5.691   3.284   3.864 -0.1667  0.0039  0.6079
  126MOL0     C16898   5.585   3.264   3.973 -0.1942 -0.5541 -0.1640
  126MOL0     O16899   5.655   3.236   4.099  0.1404 -0.0661 -0.3221
  126MOL0     C16900   5.580   3.257   4.212  0.0067  0.3026 -0.3103
  126MOL0     C16901   5.553   3.152   4.300  0.7549  0.2175 -0.1493
  126MOL0     C16902   5.491   3.180   4.429 -0.4706  0.7126  0.0824
  126MOL0     C16903   5.470   3.075   4.542 -0.0444 -0.0833  0.7958
  126MOL0     C16904   5.448   3.308   4.459 -0.2523  0.1646 -0.4531
  126MOL0     C16905   5.376   3.357   4.580  1.3819  0.3441 -0.3315
  126MOL0     O16906   5.407   3.473   4.634  0.0435 -1.0833 -0.8243
  126MOL0     C16907   5.321   3.506   4.740 -0.3133 -1.1916 -0.3552
  126MOL0     C16908   5.324   3.472   4.878 -1.2774 -0.3065 -0.5772
  126MOL0     C16909   5.238   3.527   4.967 -0.4626  0.0681 -0.7366
  126MOL0     C16910   5.147   3.625   4.939  0.3521  0.3120  0.7222
  126MOL0     O16911   5.065   3.664   5.040 -0.4588  0.0816 -0.2457
  126MOL0     C16912   5.018   3.807   5.047 -0.6512  0.0570  0.0144
  126MOL0     C16913   4.946   3.819   5.175 -0.3262 -0.0148 -1.2542
  126MOL0     C16914   4.800   3.778   5.169  0.9489 -0.5391 -0.9997
  126MOL0     C16915   4.724   3.864   5.285 -0.4380  0.4539 -0.1530
  126MOL0     C16916   4.573   3.846   5.286  0.1019  0.2633  0.3514
  126MOL0     C16917   4.518   3.924   5.412  0.4701 -0.0155  0.1922
  126MOL0     C16918   4.368   3.894   5.443 -0.3375  0.8303  0.2981
  126MOL0     C16919   4.326   3.941   5.582  0.3373 -0.0664  0.4187
  126MOL0    Cl16920   4.411   3.874   5.725  0.3793  0.5044  0.4396
  126MOL0     C16921   5.161   3.682   4.806  0.5330 -0.4527 -0.5526
  126MOL0     C16922   5.241   3.622   4.709 -0.0963  0.2814  0.4309
  126MOL0     O16923   5.269   3.291   4.613  0.2211 -0.3816 -0.9160
  126MOL0     C16924   5.479   3.414   4.365  1.1751  0.7996 -0.0599
  126MOL0     C16925   5.537   3.385   4.242 -0.9869 -0.0509 -0.2540
  126MOL0     N16926   5.491   3.148   3.438 -0.0061 -1.1486 -0.0235
  126MOL0     N16927   5.440   3.192   3.330  0.1018 -0.7060 -0.0796
  126MOL0     C16928   6.405   3.276   2.801 -0.7154 -0.1528  1.1418
  126MOL0     C16929   6.452   3.175   2.715  0.7422  0.3132 -0.4344
  126MOL0     C16930   6.571   2.838   2.479  0.2361  0.1963  0.3446
  126MOL0     C16931   6.683   2.832   2.398  0.2310  0.2692 -0.1639
  126MOL0     C16932   6.736   2.708   2.365 -0.0248 -0.6566 -0.0216
  126MOL0     C16933   6.685   2.589   2.405  0.0704  0.0031  0.0414
  126MOL0     O16934   6.741   2.479   2.350  0.3565 -0.5630 -0.1760
  126MOL0     C16935   6.670   2.362   2.361  0.2519 -0.5956  0.3880
  126MOL0     C16936   6.545   2.342   2.278 -0.1291  1.3051  0.3538
  126MOL0     C16937   6.569   2.395   2.136 -0.5022 -0.9167  0.0999
  126MOL0     C16938   6.638   2.290   2.044 -1.1287 -0.5030  0.0227
  126MOL0     C16939   6.686   2.355   1.922 -0.6812 -0.9744  0.3441
  126MOL0     C16940   6.730   2.401   1.811  0.3685  0.0472 -1.0593
  126MOL0     C16941   6.568   2.586   2.491 -0.1951  0.3396 -0.2832
  126MOL0     C16942   6.511   2.713   2.520  0.5987 -0.2298 -0.4417
  126MOL0     H16943   6.156   3.044   2.619 -1.2877  0.3920  0.9489
  126MOL0     H16944   6.076   3.225   2.757 -1.1291 -4.7278  1.5004
  126MOL0     H16945   6.046   3.462   2.813 -1.0647 -0.0143  0.2793
  126MOL0     H16946   6.032   3.348   2.939  1.5223 -0.6481  0.6639
  126MOL0     H16947   6.084   3.505   3.110  0.2616  1.7102 -0.4711
  126MOL0     H16948   6.133   3.632   2.995 -5.2547  6.3212  1.5706
  126MOL0     H16949   5.918   3.693   3.058 -0.0099 -0.5512  1.8948
  126MOL0     H16950   5.897   3.610   2.894  1.9264 -3.3085 -0.9222
  126MOL0     H16951   5.816   3.402   3.022 -2.4187  0.7665 -2.3936
  126MOL0     H16952   5.866   3.502   3.168 -0.5448  0.3452  0.4168
  126MOL0     H16953   5.685   3.663   3.139 -1.2144  0.1491 -0.9050
  126MOL0     H16954   5.658   3.608   2.980  1.8208 -2.8932 -1.5316
  126MOL0     H16955   5.560   3.426   3.039  2.3509  1.4731 -0.9421
  126MOL0     H16956   5.640   3.431   3.206  2.4642  2.2270  0.2782
  126MOL0     H16957   5.514   3.590   3.292 -0.7219  0.0319 -0.5153
  126MOL0     H16958   5.410   3.619   3.144 -1.3989 -1.2650 -1.4530
  126MOL0     H16959   5.328   3.384   3.164  4.9478 -1.0780 -2.2322
  126MOL0     H16960   5.286   3.474   3.319  2.4809 -0.8982  3.3343
  126MOL0     H16961   5.457   3.471   3.520 -1.4773  0.5259  1.4032
  126MOL0     H16962   5.445   3.216   3.725  0.9703 -0.3258  1.4134
  126MOL0     H16963   5.586   3.120   3.690  0.7854  0.0145  0.0746
  126MOL0     H16964   5.605   3.422   3.714 -0.5278 -0.7157 -1.2241
  126MOL0     H16965   5.725   3.340   3.648  1.0274  0.9992  0.5794
  126MOL0     H16966   5.759   3.360   3.904 -0.4564  0.9474 -0.6470
  126MOL0     H16967   5.753   3.197   3.845 -0.2200  0.6810 -3.4294
  126MOL0     H16968   5.531   3.179   3.930  1.1447 -1.6431  0.2638
  126MOL0     H16969   5.512   3.345   3.961  1.3920  0.7382 -1.5710
  126MOL0     H16970   5.573   3.051   4.265  1.0527  0.4140 -0.5427
  126MOL0     H16971   5.550   3.067   4.617 -0.3985  3.9270  1.8436
  126MOL0     H16972   5.379   3.090   4.602 -0.0838 -1.4181  1.1093
  126MOL0     H16973   5.453   2.979   4.494  1.5239 -0.1096  0.2425
  126MOL0     H16974   5.396   3.404   4.922 -0.4941  0.7006 -0.2635
  126MOL0     H16975   5.217   3.479   5.062 -1.3157  1.6071 -0.1157
  126MOL0     H16976   5.101   3.877   5.041  0.8154 -1.6425 -0.3904
  126MOL0     H16977   4.960   3.827   4.956  0.8792 -0.1630 -1.0550
  126MOL0     H16978   4.992   3.769   5.260 -1.9561  0.1127 -0.2423
  126MOL0     H16979   4.947   3.927   5.193 -0.6582 -0.4367  1.7066
  126MOL0     H16980   4.796   3.672   5.197  1.7190 -0.0128  1.3507
  126MOL0     H16981   4.751   3.795   5.073 -2.3846  1.4296  0.8664
  126MOL0     H16982   4.774   3.841   5.379  0.4361 -2.7055 -1.2455
  126MOL0     H16983   4.746   3.971   5.275 -0.2727  0.6792  2.1242
  126MOL0     H16984   4.554   3.738   5.283  1.0739  0.0977 -1.1945
  126MOL0     H16985   4.527   3.896   5.200  0.9628 -1.6107 -1.2856
  126MOL0     H16986   4.581   3.904   5.499  1.4001  0.3287 -0.3846
  126MOL0     H16987   4.535   4.032   5.403 -1.3837  0.5178  2.2508
  126MOL0     H16988   4.359   3.785   5.444 -0.0814  0.8010 -0.2497
  126MOL0     H16989   4.303   3.936   5.366 -1.4106  1.4038  1.4998
  126MOL0     H16990   4.219   3.918   5.590  1.0669 -3.1643  4.0898
  126MOL0     H16991   4.337   4.049   5.596 -0.4539 -0.0267  0.7654
  126MOL0     H16992   5.097   3.769   4.794  0.2370 -0.3573  1.3668
  126MOL0     H16993   5.266   3.683   4.623  0.2065 -0.9419 -0.3744
  126MOL0     H16994   5.435   3.512   4.379 -0.0865  0.5176 -1.7615
  126MOL0     H16995   5.553   3.471   4.178  1.6309 -0.4236 -0.1895
  126MOL0     H16996   6.457   3.355   2.854  0.1603  0.7559 -0.9290
  126MOL0     H16997   6.559   3.159   2.711  0.6252 -0.4106 -0.6349
  126MOL0     H16998   6.730   2.921   2.359 -0.8452  0.0372 -2.1354
  126MOL0     H16999   6.827   2.706   2.307  0.4899  0.3308  0.7146
  126MOL0     H17000   6.744   2.288   2.327 -1.7569 -1.0818 -3.5722
  126MOL0     H17001   6.643   2.331   2.462 -1.1803  1.6432  0.7616
  126MOL0     H17002   6.457   2.394   2.318 -2.3371 -0.8597 -1.4076
  126MOL0     H17003   6.533   2.234   2.271  3.8257  0.7152  0.5422
  126MOL0     H17004   6.636   2.481   2.123  0.7301 -2.2764 -3.7474
  126MOL0     H17005   6.480   2.431   2.084  0.7930  0.1790 -1.4485
  126MOL0     H17006   6.573   2.207   2.013  0.8844 -2.5845  1.0357
  126MOL0     H17007   6.726   2.251   2.097 -1.4509  1.3646  2.0669
  126MOL0     H17008   6.744   2.440   1.712 -1.3036  1.1294 -0.9164
  126MOL0     H17009   6.527   2.501   2.544 -0.0262  0.1274 -0.4932
  126MOL0     H17010   6.421   2.715   2.581 -0.4084  0.9471 -1.9077
  127MOL0     O17011   0.815  11.145   1.246 -0.8273  0.4393 -0.8035
  127MOL0     C17012   0.905  11.061   1.245  0.7990 -0.0652  0.2392
  127MOL0     O17013   1.000  11.063   1.337  0.0752 -0.6597 -0.3186
  127MOL0     C17014   1.003  11.149   1.454  0.0793 -0.0511  0.4852
  127MOL0     C17015   0.931  11.270   1.475  0.6908 -1.1890  0.9261
  127MOL0     C17016   0.950  11.343   1.594  0.2034 -0.3866  0.4174
  127MOL0     C17017   1.055  11.312   1.681 -0.5625 -0.7800 -0.3414
  127MOL0     O17018   1.082  11.370   1.799 -0.5543 -0.0675 -0.8439
  127MOL0     C17019   0.972  11.413   1.874  0.4597  0.3106 -0.3714
  127MOL0     C17020   0.991  11.375   2.018 -0.0756 -0.7605  0.1601
  127MOL0     C17021   1.007  11.491   2.111 -0.8739  0.1647 -0.8842
  127MOL0     C17022   1.140  11.546   2.113 -0.0179  0.6933  0.7154
  127MOL0     C17023   1.134  11.675   2.195 -0.2181 -0.1041  0.0040
  127MOL0     C17024   1.270  11.754   2.203  1.3524 -0.3286  0.5478
  127MOL0     C17025   1.245  11.884   2.287 -0.9535  0.7891 -0.1981
  127MOL0     C17026   1.353  11.994   2.266  0.0684  1.2975  0.7761
  127MOL0     N17027   1.318  12.125   2.326 -0.5294  0.3397 -0.2372
  127MOL0     C17028   1.309  12.243   2.259 -0.5752  0.0234 -0.5107
  127MOL0     C17029   1.297  12.342   2.362  0.0322 -0.0771  0.7765
  127MOL0     C17030   1.269  12.491   2.328  0.1750  0.5669 -1.1862
  127MOL0     C17031   1.342  12.535   2.203 -0.1888  0.0577 -0.5907
  127MOL0     C17032   1.489  12.523   2.218 -0.2992 -0.0691 -0.0025
  127MOL0     C17033   1.558  12.664   2.248 -0.3356  0.9293 -0.2151
  127MOL0     O17034   1.552  12.733   2.130 -0.8852  0.0222  0.1712
  127MOL0     C17035   1.592  12.863   2.139 -0.8164  0.2112  0.0045
  127MOL0     C17036   1.656  12.931   2.238  0.5409 -0.3909  0.4280
  127MOL0     C17037   1.685  13.066   2.226  0.0578 -0.8266 -0.2724
  127MOL0     C17038   1.742  13.137   2.347 -0.3201  0.8455  0.0619
  127MOL0     C17039   1.644  13.138   2.111  0.4797  0.6209  0.7782
  127MOL0     C17040   1.650  13.282   2.095 -0.0716 -0.2058  0.2938
  127MOL0     O17041   1.722  13.340   1.994 -0.1611  0.0011 -0.6150
  127MOL0     C17042   1.811  13.273   1.911  0.1280  0.4390 -0.6825
  127MOL0     C17043   1.890  13.157   1.928  0.4000 -0.4886  0.3799
  127MOL0     C17044   1.963  13.114   1.822 -0.7165  0.0585  0.1360
  127MOL0     C17045   1.967  13.164   1.691 -0.8930  0.5993 -0.6004
  127MOL0     O17046   2.053  13.108   1.598 -0.3771  0.0450  0.2187
  127MOL0     C17047   2.036  13.149   1.459  0.1159 -0.5524 -0.0053
  127MOL0     C17048   2.126  13.066   1.377  0.6417  0.6684 -0.3789
  127MOL0     C17049   2.269  13.064   1.422  0.4900 -0.7409  0.3341
  127MOL0     C17050   2.340  13.198   1.437 -0.4454  0.4839  0.1222
  127MOL0     C17051   2.494  13.172   1.448 -0.5517 -0.2376  0.9546
  127MOL0     C17052   2.564  13.162   1.310  0.0101 -0.7239  0.8575
  127MOL0     C17053   2.521  13.262   1.199 -0.1732  0.8423  0.2114
  127MOL0     C17054   2.637  13.270   1.097 -0.1914 -0.1009  0.9547
  127MOL0    Cl17055   2.656  13.118   1.010 -0.3990  0.2525  0.5894
  127MOL0     C17056   1.874  13.273   1.675  0.0614 -0.5996 -0.0934
  127MOL0     C17057   1.802  13.326   1.781  0.3442 -0.7592 -0.2745
  127MOL0     O17058   1.559  13.344   2.142  0.4094  0.5864 -0.0212
  127MOL0     C17059   1.574  13.065   2.012  0.4421 -0.2710 -0.7283
  127MOL0     C17060   1.556  12.931   2.029  0.4310 -0.0951  0.7998
  127MOL0     N17061   1.286  12.273   2.485 -0.0417 -1.0615  0.1733
  127MOL0     N17062   1.308  12.150   2.461  0.4672  0.6286 -0.1047
  127MOL0     C17063   1.144  11.212   1.650 -0.2905  0.2695  0.1488
  127MOL0     C17064   1.119  11.124   1.541  0.4545  0.1659  0.6504
  127MOL0     C17065   0.911  10.970   1.127 -0.1161 -0.9268  0.6337
  127MOL0     C17066   1.001  10.862   1.136 -0.4368  0.1822 -0.3416
  127MOL0     C17067   1.006  10.764   1.039 -0.6390 -0.4545 -0.3814
  127MOL0     C17068   0.929  10.773   0.921 -0.2369  0.2609  0.8753
  127MOL0     O17069   0.947  10.671   0.822 -0.7776 -0.1636  0.8623
  127MOL0     C17070   0.977  10.539   0.864 -0.8917 -0.1967 -0.0871
  127MOL0     C17071   0.947  10.437   0.752 -0.4988  0.0556 -0.1682
  127MOL0     C17072   0.803  10.444   0.689  0.2403  0.1275  0.2431
  127MOL0     C17073   0.775  10.328   0.589  0.3567  0.1448 -0.1769
  127MOL0     C17074   0.846  10.373   0.473 -1.4700  0.2991 -0.1248
  127MOL0     C17075   0.921  10.407   0.384 -0.3186  0.5735  0.3073
  127MOL0     C17076   0.848  10.882   0.911 -0.5426 -0.3102  0.4515
  127MOL0     C17077   0.838  10.974   1.013 -1.7983  0.1289  0.6488
  127MOL0     H17078   0.862  11.324   1.410  2.4534  1.2932  0.9912
  127MOL0     H17079   0.895  11.434   1.615 -2.3129 -2.0570  1.4801
  127MOL0     H17080   0.960  11.522   1.874  2.0791  0.6213  3.0292
  127MOL0     H17081   0.870  11.381   1.850  0.2192 -0.5279  1.5623
  127MOL0     H17082   0.912  11.307   2.050  0.1593 -2.1463 -1.9869
  127MOL0     H17083   1.081  11.313   2.021  0.9641  0.4674 -2.4259
  127MOL0     H17084   0.929  11.561   2.079 -0.3489  0.6557 -1.1129
  127MOL0     H17085   0.970  11.463   2.210  0.5581  1.0183 -0.0668
  127MOL0     H17086   1.212  11.470   2.147 -1.3190 -1.2274 -0.5993
  127MOL0     H17087   1.162  11.572   2.009 -3.7689 -0.0982 -0.4509
  127MOL0     H17088   1.059  11.743   2.153  0.7888  2.2935  1.8347
  127MOL0     H17089   1.106  11.644   2.296  3.3998  0.1491  1.2296
  127MOL0     H17090   1.340  11.686   2.254  0.2464 -0.3247  2.1394
  127MOL0     H17091   1.305  11.767   2.100 -1.0482  1.1905 -0.1376
  127MOL0     H17092   1.145  11.924   2.266 -1.1232  1.2847  1.3713
  127MOL0     H17093   1.249  11.867   2.395  1.6541 -0.8696 -0.4809
  127MOL0     H17094   1.367  12.006   2.158  1.6028 -1.3298  0.6007
  127MOL0     H17095   1.450  11.959   2.302  1.0057  1.1326 -1.7234
  127MOL0     H17096   1.320  12.271   2.154 -1.0928 -1.4428 -0.9837
  127MOL0     H17097   1.166  12.512   2.298  0.4238  2.3643 -0.9235
  127MOL0     H17098   1.292  12.552   2.416  1.2498 -1.3056 -0.1043
  127MOL0     H17099   1.301  12.636   2.187 -4.2538 -1.3212 -0.1297
  127MOL0     H17100   1.306  12.467   2.126 -1.8032 -1.7357  1.6173
  127MOL0     H17101   1.532  12.494   2.122  0.7943 -0.6234  0.6409
  127MOL0     H17102   1.531  12.447   2.284  0.1616 -0.0819 -0.3059
  127MOL0     H17103   1.657  12.648   2.292 -1.7297 -1.4799  2.3906
  127MOL0     H17104   1.494  12.707   2.327 -0.6891 -1.1755  0.7120
  127MOL0     H17105   1.693  12.884   2.328  0.3845  0.6270  1.0391
  127MOL0     H17106   1.816  13.076   2.399  1.7549  3.5810  0.5773
  127MOL0     H17107   1.811  13.212   2.307  1.9080 -0.6410  0.9035
  127MOL0     H17108   1.672  13.179   2.421 -1.5013  2.1049 -1.6936
  127MOL0     H17109   1.897  13.118   2.029  0.2223  2.6162  1.6886
  127MOL0     H17110   2.022  13.027   1.850  0.5218  0.6706 -0.5069
  127MOL0     H17111   1.945  13.113   1.409  0.1640  1.0548 -1.3460
  127MOL0     H17112   2.045  13.258   1.452 -0.7769 -0.4297  0.6899
  127MOL0     H17113   2.085  12.965   1.365 -0.4667  0.9163  1.0087
  127MOL0     H17114   2.128  13.116   1.279  0.8506  1.0752 -0.1701
  127MOL0     H17115   2.325  13.002   1.352  2.7772  1.2069  0.2824
  127MOL0     H17116   2.276  13.010   1.517 -2.3248  0.9811  1.6381
  127MOL0     H17117   2.314  13.266   1.355  0.2847 -0.1668 -0.6770
  127MOL0     H17118   2.313  13.241   1.534  1.4889 -2.5434  2.1992
  127MOL0     H17119   2.516  13.078   1.499  0.8693 -0.8285 -0.6378
  127MOL0     H17120   2.532  13.247   1.518 -0.9650 -1.8146  2.9505
  127MOL0     H17121   2.672  13.149   1.319 -0.2455 -1.8008  2.9250
  127MOL0     H17122   2.524  13.069   1.266 -4.5689  2.8213 -3.7837
  127MOL0     H17123   2.502  13.358   1.247  1.1142  0.2722  1.9810
  127MOL0     H17124   2.433  13.233   1.141 -1.8503  1.8050  2.1527
  127MOL0     H17125   2.729  13.303   1.146 -1.2402  1.9965  1.6302
  127MOL0     H17126   2.614  13.338   1.014  1.6306 -0.9838 -0.3606
  127MOL0     H17127   1.866  13.332   1.585  2.6185  1.7559  1.0956
  127MOL0     H17128   1.731  13.406   1.761  1.0084 -0.1788 -0.3314
  127MOL0     H17129   1.521  13.111   1.929  1.0878  1.1443 -0.3886
  127MOL0     H17130   1.496  12.894   1.946  0.0395  3.4154 -0.6914
  127MOL0     H17131   1.237  11.196   1.704 -1.1125 -0.0266  1.5391
  127MOL0     H17132   1.187  11.042   1.522 -1.6559 -1.4549 -0.3766
  127MOL0     H17133   1.071  10.857   1.219 -1.4360 -0.5258  0.4948
  127MOL0     H17134   1.075  10.683   1.061  2.7502  1.4891 -2.8952
  127MOL0     H17135   1.081  10.519   0.888 -0.8767 -1.0323 -0.7729
  127MOL0     H17136   0.925  10.507   0.955  0.1862 -0.1466  0.5654
  127MOL0     H17137   0.960  10.336   0.792  0.9087  0.8006  1.3788
  127MOL0     H17138   1.017  10.455   0.670 -4.1284  0.1910 -3.5334
  127MOL0     H17139   0.777  10.537   0.638 -3.9544 -0.1467  1.5237
  127MOL0     H17140   0.731  10.446   0.771  0.6525  0.6741  0.5962
  127MOL0     H17141   0.671  10.296   0.580 -0.0353  0.2016  2.9338
  127MOL0     H17142   0.830  10.239   0.621  0.8068  0.7181  0.6753
  127MOL0     H17143   0.962  10.421   0.286 -1.5906 -0.2688 -0.3855
  127MOL0     H17144   0.792  10.896   0.818  0.9521 -1.8445 -0.7331
  127MOL0     H17145   0.779  11.059   0.979  1.2318  0.7117 -4.0346
  128MOL0     O17146   3.194  10.600   5.596 -1.1515  0.2143 -0.3600
  128MOL0     C17147   3.180  10.710   5.649  0.6092  0.0235  1.1931
  128MOL0     O17148   3.257  10.823   5.623  0.2375 -0.1242 -0.0696
  128MOL0     C17149   3.317  10.842   5.499  0.0750 -0.1718 -0.3272
  128MOL0     C17150   3.430  10.911   5.505 -0.1654  0.2220  0.1174
  128MOL0     C17151   3.506  10.926   5.384  0.3637 -0.7049 -0.2072
  128MOL0     C17152   3.451  10.874   5.261 -0.5745  0.0631 -0.0745
  128MOL0     O17153   3.523  10.896   5.148 -0.0629  0.6077  0.4709
  128MOL0     C17154   3.515  10.794   5.048  0.0579  0.4410 -0.5523
  128MOL0     C17155   3.627  10.807   4.941 -0.5065  0.7083 -0.5460
  128MOL0     C17156   3.665  10.943   4.888  0.4886  0.1676 -0.5964
  128MOL0     C17157   3.778  10.946   4.780 -0.2198  0.2012 -0.8843
  128MOL0     C17158   3.916  10.971   4.838 -0.4804  0.2310  1.1383
  128MOL0     C17159   4.019  11.010   4.728 -0.0126 -0.3743 -0.0060
  128MOL0     C17160   4.154  11.031   4.794 -0.5839  0.3894  0.6122
  128MOL0     C17161   4.246  11.096   4.689  1.0221  0.2497 -0.6729
  128MOL0     N17162   4.382  11.124   4.724 -0.1688 -0.1176  0.6456
  128MOL0     C17163   4.486  11.037   4.742  0.4188  0.3751  0.5407
  128MOL0     C17164   4.590  11.107   4.781 -0.0667 -0.5259  0.2298
  128MOL0     C17165   4.708  11.033   4.820  0.2323 -0.2758 -0.3465
  128MOL0     C17166   4.821  11.131   4.839 -0.7697 -0.4612 -0.8912
  128MOL0     C17167   4.967  11.068   4.844  0.0013 -0.8055 -0.3356
  128MOL0     C17168   4.967  10.958   4.947  0.8690 -0.3308  0.2130
  128MOL0     O17169   5.104  10.935   4.986  0.0448 -0.5562  0.0212
  128MOL0     C17170   5.145  10.815   5.032 -0.4027  0.5517  0.7440
  128MOL0     C17171   5.259  10.754   4.987  0.5337  0.2683  0.3364
  128MOL0     C17172   5.303  10.634   5.034 -0.5689  0.5455 -0.1499
  128MOL0     C17173   5.439  10.569   4.996  0.3574 -0.3972  0.2349
  128MOL0     C17174   5.230  10.569   5.138  0.0295 -0.0491 -0.2876
  128MOL0     C17175   5.252  10.431   5.198  0.1765  0.1603  0.2512
  128MOL0     O17176   5.325  10.348   5.124  0.1373  0.1703 -0.8261
  128MOL0     C17177   5.383  10.234   5.188 -0.1410 -0.1308  0.5659
  128MOL0     C17178   5.358  10.110   5.133  0.3613  0.3641  0.4147
  128MOL0     C17179   5.424  10.000   5.176 -0.7111 -0.7444 -0.5549
  128MOL0     C17180   5.526  10.005   5.283  0.2613 -0.2287  0.2529
  128MOL0     O17181   5.592   9.898   5.344  1.4826  0.5831 -0.3353
  128MOL0     C17182   5.520   9.776   5.359 -0.5981 -0.5697  0.1038
  128MOL0     C17183   5.582   9.701   5.471  0.1626 -0.3394  0.0811
  128MOL0     C17184   5.728   9.652   5.437  0.0752 -0.9415 -0.6612
  128MOL0     C17185   5.776   9.570   5.556  0.1686 -0.5833 -0.5033
  128MOL0     C17186   5.927   9.529   5.532 -0.2909 -0.5892  0.0148
  128MOL0     C17187   6.000   9.469   5.641  0.2979 -0.2748 -0.3259
  128MOL0     C17188   5.932   9.336   5.679  1.2835 -0.5362 -0.0646
  128MOL0     C17189   6.026   9.225   5.739  0.3018 -0.6650 -0.7955
  128MOL0    Cl17190   6.085   9.281   5.900 -0.3230 -0.3487 -0.1097
  128MOL0     C17191   5.549  10.130   5.338  0.1266 -1.0052 -0.3805
  128MOL0     C17192   5.483  10.245   5.281  0.0152  0.4271 -0.6309
  128MOL0     O17193   5.209  10.397   5.313 -0.2040 -0.0852  0.2162
  128MOL0     C17194   5.114  10.635   5.187 -0.1272  0.4958 -0.2182
  128MOL0     C17195   5.071  10.754   5.142 -0.1866  0.0643  0.3183
  128MOL0     N17196   4.553  11.241   4.778 -0.4803 -0.0557  0.5246
  128MOL0     N17197   4.425  11.246   4.751  0.1327 -0.3873  0.0418
  128MOL0     C17198   3.324  10.806   5.256 -1.0048  0.4817  0.4669
  128MOL0     C17199   3.270  10.787   5.382 -0.0922 -0.0733  0.2346
  128MOL0     C17200   3.087  10.722   5.758 -0.6623  0.1817  0.3613
  128MOL0     C17201   3.094  10.827   5.846 -0.4837 -0.5277  0.1210
  128MOL0     C17202   3.028  10.826   5.966 -1.0676  1.3654  0.6032
  128MOL0     C17203   2.940  10.723   5.998  0.0484  0.0176  0.2657
  128MOL0     O17204   2.860  10.721   6.108 -0.8757  0.3541 -0.5006
  128MOL0     C17205   2.916  10.790   6.227  0.4108 -0.0703  0.3719
  128MOL0     C17206   2.847  10.750   6.351  0.4618 -0.6253 -0.3946
  128MOL0     C17207   2.837  10.603   6.400 -0.0918 -0.9023 -0.9128
  128MOL0     C17208   2.748  10.533   6.296 -0.1040 -0.0934 -0.5786
  128MOL0     C17209   2.744  10.388   6.328 -0.6028  1.0042 -0.9409
  128MOL0     C17210   2.729  10.270   6.342 -0.1553  0.2809 -0.3185
  128MOL0     C17211   2.909  10.626   5.899  0.9815 -0.2687  0.3698
  128MOL0     C17212   2.983  10.630   5.779 -0.7675 -0.5952  0.8314
  128MOL0     H17213   3.486  10.930   5.596  2.1001  1.2184 -1.4014
  128MOL0     H17214   3.602  10.977   5.390 -1.7137  3.4414  2.0575
  128MOL0     H17215   3.526  10.696   5.096 -2.4668  0.8663  1.1453
  128MOL0     H17216   3.414  10.785   5.005 -1.4695  1.0627  2.5834
  128MOL0     H17217   3.714  10.768   4.996  0.2145  0.5358 -1.7814
  128MOL0     H17218   3.598  10.742   4.858 -1.3466  0.7538 -0.3014
  128MOL0     H17219   3.577  10.973   4.831 -1.6255  1.0100  2.8342
  128MOL0     H17220   3.669  11.029   4.955  3.7531  1.7946 -2.5902
  128MOL0     H17221   3.783  10.849   4.730  1.3654  0.0482 -0.4644
  128MOL0     H17222   3.759  11.034   4.717  1.6730  1.2385 -0.0638
  128MOL0     H17223   3.905  11.049   4.915  0.2475  0.1339  1.3493
  128MOL0     H17224   3.944  10.878   4.889  0.2220  0.3973  1.0680
  128MOL0     H17225   4.040  10.923   4.665 -1.0202 -2.3497  2.2308
  128MOL0     H17226   3.969  11.090   4.673 -0.5359 -2.2103 -2.3775
  128MOL0     H17227   4.149  11.099   4.880  1.9365 -2.8425  3.5948
  128MOL0     H17228   4.201  10.943   4.837 -2.0211 -0.4496  0.5202
  128MOL0     H17229   4.198  11.186   4.649  1.6721 -0.0474 -2.2018
  128MOL0     H17230   4.254  11.018   4.612  2.4973 -0.3230  0.0208
  128MOL0     H17231   4.480  10.930   4.727  1.3082  0.3481  0.3148
  128MOL0     H17232   4.690  10.995   4.921  0.2919 -1.5671 -0.7908
  128MOL0     H17233   4.730  10.947   4.755  1.6947  0.6741 -1.1604
  128MOL0     H17234   4.803  11.195   4.926 -0.3888  2.2830 -2.7117
  128MOL0     H17235   4.826  11.192   4.748 -2.2436 -0.1216 -0.7846
  128MOL0     H17236   5.041  11.148   4.857 -1.8267  1.0044 -0.6884
  128MOL0     H17237   4.993  11.036   4.742  1.5630 -1.9379  0.3753
  128MOL0     H17238   4.927  10.863   4.912  2.4729 -2.7709  4.2334
  128MOL0     H17239   4.912  10.998   5.033  1.2186 -0.2413  0.3927
  128MOL0     H17240   5.318  10.798   4.907  1.3013 -2.2563 -0.5789
  128MOL0     H17241   5.498  10.626   4.923  0.3346 -2.4738 -1.4808
  128MOL0     H17242   5.504  10.560   5.084  2.1562 -0.5000 -1.0283
  128MOL0     H17243   5.433  10.470   4.951  1.3480  0.4041 -1.7735
  128MOL0     H17244   5.288  10.094   5.052  0.3108  2.2821  0.0289
  128MOL0     H17245   5.411   9.903   5.130  1.5928 -0.0190 -2.9476
  128MOL0     H17246   5.417   9.812   5.373 -0.5430  0.3391 -1.5423
  128MOL0     H17247   5.516   9.722   5.264  0.4140 -1.2697  0.4459
  128MOL0     H17248   5.584   9.764   5.560 -3.2232  0.6622 -0.4013
  128MOL0     H17249   5.525   9.608   5.478 -0.5356 -0.0058 -1.0159
  128MOL0     H17250   5.803   9.732   5.432 -0.4905  0.2268  4.5532
  128MOL0     H17251   5.729   9.595   5.343 -0.4844 -1.9019 -0.0950
  128MOL0     H17252   5.767   9.625   5.650 -2.3729 -0.1288 -0.9340
  128MOL0     H17253   5.711   9.484   5.577 -1.4618  0.6829 -0.1646
  128MOL0     H17254   5.967   9.626   5.502 -0.0542  0.0085  2.1066
  128MOL0     H17255   5.928   9.468   5.441 -3.6092 -1.1560  0.2337
  128MOL0     H17256   6.102   9.453   5.606 -0.2261 -1.3615 -1.4530
  128MOL0     H17257   6.001   9.539   5.725  0.9013 -0.8323  0.1336
  128MOL0     H17258   5.901   9.292   5.584 -1.2287 -1.2270  1.0042
  128MOL0     H17259   5.846   9.351   5.744  3.2576 -0.8011  2.7554
  128MOL0     H17260   6.114   9.209   5.677 -0.1483  1.4086 -2.0658
  128MOL0     H17261   5.970   9.131   5.746  0.2182 -0.5703 -0.0519
  128MOL0     H17262   5.619  10.150   5.418  1.0125  1.3648 -1.6643
  128MOL0     H17263   5.506  10.345   5.318 -3.7534  0.6656  1.6106
  128MOL0     H17264   5.040  10.600   5.259 -0.7406  0.3478 -0.9177
  128MOL0     H17265   4.980  10.798   5.180  0.4822  0.3416  1.6449
  128MOL0     H17266   3.274  10.768   5.168 -1.1099  1.1731  0.2196
  128MOL0     H17267   3.187  10.720   5.400 -1.2612  1.2459 -0.0361
  128MOL0     H17268   3.159  10.912   5.828 -1.1634 -0.0086  0.0362
  128MOL0     H17269   3.053  10.915   6.023  0.4247  1.2471  0.1729
  128MOL0     H17270   3.023  10.766   6.229  0.4025 -0.1282  0.1980
  128MOL0     H17271   2.900  10.898   6.225  0.1920 -0.1009  0.5130
  128MOL0     H17272   2.749  10.798   6.352  0.0866 -1.3713 -0.5594
  128MOL0     H17273   2.902  10.807   6.427 -1.0765  0.4177 -0.0199
  128MOL0     H17274   2.795  10.600   6.501  0.0855 -0.8154 -0.8384
  128MOL0     H17275   2.937  10.560   6.411  1.2322  1.9050 -1.2473
  128MOL0     H17276   2.774  10.534   6.190 -0.7892 -1.7658 -0.7889
  128MOL0     H17277   2.642  10.559   6.306 -0.3458 -1.2944  0.1746
  128MOL0     H17278   2.714  10.164   6.350  3.4355 -0.2609  0.8504
  128MOL0     H17279   2.824  10.560   5.907  0.4995  0.3230  0.2380
  128MOL0     H17280   2.956  10.553   5.708  0.8698  0.8559 -1.4890
  129MOL0     O17281   3.761   7.510   3.005  0.3313  0.8272 -0.0699
  129MOL0     C17282   3.866   7.549   3.040 -0.9472 -0.3606 -0.1382
  129MOL0     O17283   3.893   7.675   3.101 -0.1794  0.0125 -0.9390
  129MOL0     C17284   3.788   7.744   3.167  0.7078  0.4743  0.4230
  129MOL0     C17285   3.813   7.879   3.195  1.1775 -1.0663  0.5038
  129MOL0     C17286   3.723   7.956   3.265  0.4709 -0.5727 -0.0753
  129MOL0     C17287   3.598   7.911   3.316 -0.0782  0.6874  0.0555
  129MOL0     O17288   3.526   7.998   3.401  0.4198 -0.0034 -0.0573
  129MOL0     C17289   3.516   7.967   3.543 -0.1581  0.3917  0.4737
  129MOL0     C17290   3.641   7.993   3.618 -0.4723  0.1661  0.6142
  129MOL0     C17291   3.614   7.941   3.769 -0.4641 -0.0089  0.2392
  129MOL0     C17292   3.501   8.026   3.833  0.9053  1.2182 -0.1415
  129MOL0     C17293   3.480   7.976   3.980  0.2420 -0.3112  1.6034
  129MOL0     C17294   3.395   8.078   4.056  0.9601  0.3690 -0.9610
  129MOL0     C17295   3.361   8.032   4.203 -0.2026  0.8199  0.6095
  129MOL0     C17296   3.252   8.123   4.252  0.4619  0.1665 -0.6385
  129MOL0     N17297   3.120   8.048   4.250 -0.8550  0.4306  0.1267
  129MOL0     C17298   3.074   7.960   4.340  0.0653  1.4042 -0.2875
  129MOL0     C17299   2.962   7.902   4.297 -0.4679 -0.0199  0.7207
  129MOL0     C17300   2.864   7.821   4.377 -0.0690 -0.1295 -0.0450
  129MOL0     C17301   2.738   7.907   4.414 -1.0395  0.7531 -0.3226
  129MOL0     C17302   2.748   7.990   4.546  0.1247  0.5703 -0.1262
  129MOL0     C17303   2.632   8.083   4.571 -0.2792 -0.9803 -0.4495
  129MOL0     O17304   2.522   7.993   4.596 -0.7929 -0.5240 -0.7032
  129MOL0     C17305   2.395   8.036   4.601 -0.0965 -0.3235  0.6664
  129MOL0     C17306   2.357   8.171   4.586 -0.6798  0.0343  0.2851
  129MOL0     C17307   2.230   8.219   4.582  0.2197 -0.3652 -0.4059
  129MOL0     C17308   2.200   8.374   4.566  0.4964 -1.2514 -0.6042
  129MOL0     C17309   2.122   8.130   4.621  0.3625  0.1705 -0.2603
  129MOL0     C17310   1.976   8.164   4.633 -0.3604 -0.5819  0.8097
  129MOL0     O17311   1.893   8.060   4.664  0.4673 -0.5001 -0.4686
  129MOL0     C17312   1.762   8.080   4.675  0.2099 -0.0851 -0.0339
  129MOL0     C17313   1.682   8.200   4.707 -0.7048  0.6391 -0.5613
  129MOL0     C17314   1.546   8.187   4.737 -0.1104  0.1773  0.3527
  129MOL0     C17315   1.479   8.064   4.705  0.2564 -0.2674  1.3488
  129MOL0     O17316   1.343   8.061   4.696 -0.1403  0.7211  0.1889
  129MOL0     C17317   1.267   8.133   4.792 -0.2624 -0.0512  0.0366
  129MOL0     C17318   1.152   8.037   4.817  0.2856 -0.3844  0.8542
  129MOL0     C17319   1.187   7.924   4.923  1.2409 -0.0083 -0.0631
  129MOL0     C17320   1.084   7.810   4.913  0.2031  0.6498  0.2226
  129MOL0     C17321   1.142   7.687   4.993  0.8240  0.2049  0.5734
  129MOL0     C17322   1.042   7.563   4.986  0.6302 -0.4383 -0.4952
  129MOL0     C17323   0.901   7.594   5.015  0.7860  1.1671 -0.4235
  129MOL0     C17324   0.798   7.467   5.030  0.0143  0.0858 -0.3147
  129MOL0    Cl17325   0.811   7.350   4.903  0.1920  0.2217  0.0793
  129MOL0     C17326   1.553   7.958   4.660 -0.1278 -0.3659 -0.4552
  129MOL0     C17327   1.690   7.966   4.655 -0.7995  0.3256  0.8185
  129MOL0     O17328   1.946   8.285   4.622  0.4234  0.1004  0.0081
  129MOL0     C17329   2.159   8.003   4.652 -0.3912  0.4588 -0.1503
  129MOL0     C17330   2.290   7.954   4.634 -0.1547 -0.1172 -0.0216
  129MOL0     N17331   2.945   7.952   4.167 -1.2737  0.9183 -0.1413
  129MOL0     N17332   3.035   8.042   4.141  0.2392 -0.0946 -0.0397
  129MOL0     C17333   3.570   7.781   3.286  0.3919 -0.1879 -0.2567
  129MOL0     C17334   3.660   7.702   3.217  0.7612  0.5574  0.0982
  129MOL0     C17335   3.990   7.470   3.019 -1.3829 -0.2239 -0.0551
  129MOL0     C17336   3.983   7.334   2.982  0.0436  0.4262  0.4619
  129MOL0     C17337   4.109   7.266   2.969  0.1022 -0.4286 -0.0922
  129MOL0     C17338   4.240   7.315   2.999  0.4701 -0.3169 -1.1182
  129MOL0     O17339   4.350   7.245   2.967 -0.0466  0.0543  0.7329
  129MOL0     C17340   4.484   7.296   2.957  0.1116 -0.7092  0.1029
  129MOL0     C17341   4.561   7.236   3.067  0.8418  0.1969 -0.1325
  129MOL0     C17342   4.697   7.298   3.085  0.1016  0.9439 -0.0218
  129MOL0     C17343   4.793   7.254   2.971  0.4058  0.2046 -0.0007
  129MOL0     C17344   4.936   7.280   2.992  0.7378 -1.1696  0.4065
  129MOL0     C17345   5.055   7.305   2.997  0.4209 -0.5072  0.1177
  129MOL0     C17346   4.234   7.456   3.049  0.2003  0.3399  0.0204
  129MOL0     C17347   4.117   7.530   3.060  0.4495  0.1204  0.5760
  129MOL0     H17348   3.908   7.931   3.184  1.0264 -1.1305 -1.5421
  129MOL0     H17349   3.745   8.061   3.284 -1.2243 -0.6578  3.0905
  129MOL0     H17350   3.429   8.025   3.574 -2.3018 -0.0423 -3.8910
  129MOL0     H17351   3.498   7.860   3.560  1.4393  0.0049 -0.0822
  129MOL0     H17352   3.726   7.939   3.575 -1.2913  0.6251 -1.7057
  129MOL0     H17353   3.659   8.101   3.611 -0.3074  0.0750 -0.6916
  129MOL0     H17354   3.591   7.834   3.761 -1.5826  0.2957 -1.0708
  129MOL0     H17355   3.712   7.946   3.817  1.1120  2.7915 -2.9032
  129MOL0     H17356   3.519   8.133   3.849 -1.6245  1.5217  1.1363
  129MOL0     H17357   3.404   8.011   3.786  1.0643 -2.5310  0.4335
  129MOL0     H17358   3.436   7.876   3.967  0.9562 -0.4091 -0.5503
  129MOL0     H17359   3.578   7.952   4.021  0.7738 -1.3127 -0.1229
  129MOL0     H17360   3.454   8.170   4.060 -0.3067  1.2286 -1.4914
  129MOL0     H17361   3.300   8.092   4.004  1.6003 -2.7186 -3.2574
  129MOL0     H17362   3.323   7.929   4.203  2.5231 -0.2771 -0.8409
  129MOL0     H17363   3.450   8.042   4.265  0.9330  2.1536 -1.1477
  129MOL0     H17364   3.240   8.210   4.187 -0.2735  2.5081  2.3775
  129MOL0     H17365   3.275   8.154   4.355  0.5304 -0.5844 -0.4253
  129MOL0     H17366   3.133   7.946   4.431  1.4809  0.3943 -1.3179
  129MOL0     H17367   2.830   7.739   4.314 -0.9990  0.2496 -0.0553
  129MOL0     H17368   2.901   7.796   4.477  0.3608  2.4593  0.5250
  129MOL0     H17369   2.650   7.843   4.415 -2.3827  2.5206  0.9800
  129MOL0     H17370   2.715   7.975   4.331 -0.6458 -0.1826 -1.2190
  129MOL0     H17371   2.838   8.052   4.552  1.2414 -0.9871 -0.2687
  129MOL0     H17372   2.763   7.926   4.633  1.0803  0.3021 -0.4761
  129MOL0     H17373   2.621   8.154   4.489  0.8996  2.3462  2.0093
  129MOL0     H17374   2.644   8.137   4.666 -0.0998  1.8766 -1.9705
  129MOL0     H17375   2.432   8.249   4.577 -2.3537  1.8876  1.6186
  129MOL0     H17376   2.157   8.398   4.664 -1.3008 -4.6735 -0.4129
  129MOL0     H17377   2.289   8.434   4.548  0.9231 -0.7511  2.5336
  129MOL0     H17378   2.135   8.391   4.480  1.3458  2.0600 -0.7185
  129MOL0     H17379   1.735   8.294   4.724  0.6518 -0.6928  4.1545
  129MOL0     H17380   1.499   8.280   4.767  0.5765  0.5204  0.3859
  129MOL0     H17381   1.317   8.153   4.888 -1.5025  2.6594  0.2210
  129MOL0     H17382   1.229   8.228   4.754  2.3728  0.7025 -0.9327
  129MOL0     H17383   1.073   8.097   4.863 -0.2374 -0.4044 -0.0102
  129MOL0     H17384   1.110   7.994   4.726  1.5157 -1.5647  0.8148
  129MOL0     H17385   1.186   7.975   5.020  1.2289 -1.5242  0.7658
  129MOL0     H17386   1.289   7.888   4.905  1.5715  1.4693 -1.3307
  129MOL0     H17387   0.992   7.855   4.951 -0.6649 -0.7787 -0.0780
  129MOL0     H17388   1.068   7.782   4.808 -1.2020  0.2231  0.5197
  129MOL0     H17389   1.164   7.717   5.096 -1.5868 -1.4161  1.6626
  129MOL0     H17390   1.239   7.658   4.951 -0.8943 -2.0099 -2.2544
  129MOL0     H17391   1.049   7.539   4.880  0.1467 -1.6262 -0.2665
  129MOL0     H17392   1.076   7.476   5.043  2.2317  1.0018  0.8570
  129MOL0     H17393   0.861   7.656   4.935  0.7161 -1.7331 -2.7873
  129MOL0     H17394   0.888   7.651   5.108 -1.0838  1.6283 -0.9249
  129MOL0     H17395   0.698   7.510   5.044  0.0879 -0.5428  2.8899
  129MOL0     H17396   0.826   7.419   5.124  1.6767 -1.0874 -1.3638
  129MOL0     H17397   1.512   7.858   4.646  2.2614 -1.6621  1.0042
  129MOL0     H17398   1.744   7.877   4.623  1.0230  0.7826  2.4429
  129MOL0     H17399   2.079   7.936   4.683 -1.4409  1.2107 -1.1367
  129MOL0     H17400   2.297   7.846   4.641  0.8984  0.0206  1.4477
  129MOL0     H17401   3.477   7.743   3.327  1.3624 -2.8896 -0.3717
  129MOL0     H17402   3.629   7.601   3.196 -0.7534  0.7888  1.1158
  129MOL0     H17403   3.888   7.285   2.965  0.1687 -0.7844  2.8016
  129MOL0     H17404   4.102   7.162   2.937 -1.8862 -0.1133 -0.8283
  129MOL0     H17405   4.532   7.286   2.859 -1.5656 -2.5233 -0.5967
  129MOL0     H17406   4.489   7.402   2.983 -0.7991 -0.6157 -0.0676
  129MOL0     H17407   4.578   7.129   3.047 -0.9730 -0.6503  2.3449
  129MOL0     H17408   4.503   7.249   3.158 -0.4109  0.0603 -0.8953
  129MOL0     H17409   4.750   7.270   3.176  1.1001 -1.2145 -1.1774
  129MOL0     H17410   4.686   7.405   3.102  1.2457  1.0579  0.0418
  129MOL0     H17411   4.760   7.292   2.873 -2.2720 -2.2784 -0.2159
  129MOL0     H17412   4.787   7.146   2.959  2.8235  0.0122  0.1808
  129MOL0     H17413   5.160   7.318   3.014  0.4675  1.1049 -1.1484
  129MOL0     H17414   4.325   7.506   3.080 -0.7789  0.9755  2.1016
  129MOL0     H17415   4.124   7.630   3.101  0.1765 -0.8644  3.2237
  130MOL0     O17416  10.905   0.808   7.355  0.0771 -0.4820 -0.0682
  130MOL0     C17417  11.008   0.837   7.418  0.7592  0.4987 -0.1602
  130MOL0     O17418  11.138   0.849   7.363 -0.0242  0.5194 -0.5681
  130MOL0     C17419  11.144   0.888   7.236 -1.4037  0.1303 -0.3829
  130MOL0     C17420  11.075   0.841   7.129 -0.1902  0.2533  0.8509
  130MOL0     C17421  11.090   0.893   6.997 -0.3456  0.0491 -0.2929
  130MOL0     C17422  11.179   0.998   6.975 -0.5741 -0.3349  0.0653
  130MOL0     O17423  11.198   1.053   6.850  0.6934 -0.4722 -0.3465
  130MOL0     C17424  11.172   0.985   6.730 -0.0129  0.4637 -1.1672
  130MOL0     C17425  11.067   1.060   6.650 -0.0356  0.1908 -0.8401
  130MOL0     C17426  10.929   1.045   6.691  0.9023  0.2613  0.0106
  130MOL0     C17427  10.894   1.128   6.807 -0.7149 -0.5637 -0.3211
  130MOL0     C17428  10.750   1.105   6.844  0.1259 -0.8766 -0.1486
  130MOL0     C17429  10.715   1.135   6.978  0.7783  0.0937  0.0233
  130MOL0     C17430  10.567   1.167   7.010 -0.1621 -0.0230 -0.2495
  130MOL0     C17431  10.502   1.296   6.937  0.2489  0.2749 -0.0529
  130MOL0     N17432  10.567   1.405   6.995  0.4478  0.5573  0.1569
  130MOL0     C17433  10.557   1.450   7.124 -0.9931  0.1879  0.6183
  130MOL0     C17434  10.663   1.526   7.142 -0.7839 -0.8670  0.1342
  130MOL0     C17435  10.698   1.611   7.265 -0.2495 -0.4090 -0.8463
  130MOL0     C17436  10.755   1.753   7.234  0.1850  0.5989  0.2458
  130MOL0     C17437  10.671   1.830   7.133  0.7681 -1.2363  0.5593
  130MOL0     C17438  10.720   1.980   7.136  0.2161 -0.4348  0.5850
  130MOL0     O17439  10.617   2.074   7.098  0.0039 -0.5489  0.8071
  130MOL0     C17440  10.573   2.159   7.195  0.3588  0.4989 -0.0272
  130MOL0     C17441  10.556   2.115   7.322  0.1394  0.1470 -0.4147
  130MOL0     C17442  10.520   2.213   7.424  0.2993  0.2021  0.0124
  130MOL0     C17443  10.492   2.160   7.564  0.3985 -0.8917  0.5414
  130MOL0     C17444  10.517   2.355   7.395  1.1574  0.1313  0.2154
  130MOL0     C17445  10.500   2.474   7.490 -0.4979  0.3055  0.2186
  130MOL0     O17446  10.523   2.604   7.443  0.4392 -0.1924  0.7495
  130MOL0     C17447  10.563   2.699   7.531 -0.9289 -0.4700  0.8825
  130MOL0     C17448  10.682   2.670   7.596 -0.3528 -0.9503 -0.0481
  130MOL0     C17449  10.725   2.759   7.700 -0.8161  0.3900 -0.0454
  130MOL0     C17450  10.657   2.874   7.724  0.6247 -0.9638 -1.2687
  130MOL0     O17451  10.701   2.966   7.822 -0.0243  0.1188  0.0176
  130MOL0     C17452  10.669   2.922   7.953  0.4627 -0.7977 -0.0862
  130MOL0     C17453  10.667   3.051   8.036 -0.2905  0.0436  0.2779
  130MOL0     C17454  10.799   3.132   8.031  0.0141 -0.0351 -0.7911
  130MOL0     C17455  10.783   3.284   8.044 -0.0682 -0.4384 -1.0095
  130MOL0     C17456  10.916   3.348   8.043  0.0019 -0.6750  0.6449
  130MOL0     C17457  10.900   3.501   8.069 -0.0838  0.3766  0.4440
  130MOL0     C17458  11.033   3.577   8.073 -0.4961  0.0356  0.0479
  130MOL0     C17459  11.097   3.603   7.934  0.5813  0.4029  0.4459
  130MOL0    Cl17460  11.009   3.738   7.863  0.2142  0.0261  0.2755
  130MOL0     C17461  10.540   2.912   7.654 -0.3838 -0.5200  0.7417
  130MOL0     C17462  10.497   2.816   7.556 -0.3970  0.3790 -0.1024
  130MOL0     O17463  10.490   2.446   7.608  0.7392  0.1334  0.6011
  130MOL0     C17464  10.527   2.389   7.260 -0.3778 -0.0171  0.8795
  130MOL0     C17465  10.553   2.292   7.165 -0.1599 -0.9678  0.7187
  130MOL0     N17466  10.737   1.515   7.033 -0.7450 -0.5538 -0.3229
  130MOL0     N17467  10.685   1.445   6.951  0.4016  0.5379  0.6937
  130MOL0     C17468  11.250   1.048   7.081  0.7485 -0.1305 -0.3752
  130MOL0     C17469  11.231   0.997   7.210  0.5013  0.5044  0.2639
  130MOL0     C17470  11.002   0.824   7.568 -0.0639 -0.5645  0.1396
  130MOL0     C17471  10.892   0.781   7.637  0.9406  1.4723  1.1934
  130MOL0     C17472  10.879   0.758   7.773 -0.0000 -0.0111 -0.5513
  130MOL0     C17473  10.998   0.789   7.845  0.4100  0.4119 -0.5783
  130MOL0     O17474  11.009   0.777   7.987 -0.1137 -0.1493 -0.1259
  130MOL0     C17475  10.890   0.725   8.063  0.5145 -0.6072  0.0292
  130MOL0     C17476  10.937   0.728   8.217  0.2089 -0.2335  0.8390
  130MOL0     C17477  10.825   0.735   8.328 -0.1028  0.2214  0.5784
  130MOL0     C17478  10.699   0.643   8.296 -0.2048  0.0930 -0.0627
  130MOL0     C17479  10.737   0.507   8.254 -0.6090 -0.1894 -0.1778
  130MOL0     C17480  10.767   0.392   8.212 -0.2144  0.3273 -0.5931
  130MOL0     C17481  11.106   0.840   7.785 -0.0125  0.2536 -0.3808
  130MOL0     C17482  11.108   0.861   7.643 -0.7294 -0.1425  0.0605
  130MOL0     H17483  11.000   0.763   7.142  0.1309  0.2251  2.9803
  130MOL0     H17484  11.031   0.852   6.916  0.9637  0.9385 -1.7634
  130MOL0     H17485  11.269   0.992   6.680  1.8358  1.5752  2.3112
  130MOL0     H17486  11.138   0.881   6.731  0.1032  0.4196 -1.6053
  130MOL0     H17487  11.090   1.167   6.647 -1.9952  0.6414 -0.7842
  130MOL0     H17488  11.074   1.030   6.545 -0.8248  0.5967 -1.0150
  130MOL0     H17489  10.864   1.081   6.611  0.3595  0.3989  0.5075
  130MOL0     H17490  10.912   0.939   6.708  2.6780 -0.1238 -0.5048
  130MOL0     H17491  10.961   1.106   6.891 -1.8654 -3.6573 -0.0622
  130MOL0     H17492  10.908   1.235   6.789 -1.0125  0.2271  3.3539
  130MOL0     H17493  10.694   1.171   6.776  0.0580 -2.3660 -1.6138
  130MOL0     H17494  10.712   1.002   6.837 -2.1550 -0.1835  1.0036
  130MOL0     H17495  10.759   1.058   7.042  1.9653 -1.2171 -2.2176
  130MOL0     H17496  10.768   1.229   6.995  0.0207  0.4925  0.2156
  130MOL0     H17497  10.508   1.079   6.985  1.7470 -0.9973 -1.5913
  130MOL0     H17498  10.543   1.166   7.116 -2.5209 -0.0409 -0.7308
  130MOL0     H17499  10.394   1.303   6.955  0.2627  1.5530 -0.3533
  130MOL0     H17500  10.518   1.287   6.829  1.0013 -4.4010  0.2316
  130MOL0     H17501  10.480   1.445   7.201  0.3599 -2.1411  1.9766
  130MOL0     H17502  10.612   1.631   7.329  0.7723  0.5584  0.2898
  130MOL0     H17503  10.775   1.557   7.321  0.6780 -0.2774 -1.9512
  130MOL0     H17504  10.858   1.747   7.200  0.4838  1.6288  0.9150
  130MOL0     H17505  10.754   1.806   7.330  1.0308  3.6195 -1.2917
  130MOL0     H17506  10.563   1.837   7.149  0.4127  2.8510 -2.0340
  130MOL0     H17507  10.681   1.779   7.037  0.1557  2.9988 -2.0223
  130MOL0     H17508  10.814   1.981   7.081 -1.2228  0.4039 -2.0275
  130MOL0     H17509  10.758   2.016   7.232  3.3941 -0.3302 -0.6022
  130MOL0     H17510  10.561   2.010   7.351 -0.2807  0.0015 -0.8638
  130MOL0     H17511  10.584   2.165   7.623 -0.9508  0.9767  2.6364
  130MOL0     H17512  10.416   2.224   7.610  0.7822  1.5095 -1.8978
  130MOL0     H17513  10.450   2.059   7.560  4.6387 -2.8520  0.3122
  130MOL0     H17514  10.753   2.590   7.577  1.1844  0.1218  0.9282
  130MOL0     H17515  10.823   2.747   7.744 -1.6298  4.2116  3.4076
  130MOL0     H17516  10.564   2.894   7.956 -0.4244  2.2136  1.9047
  130MOL0     H17517  10.737   2.845   7.991 -0.1079 -0.0840  2.5977
  130MOL0     H17518  10.586   3.110   7.990 -0.7444 -1.9862 -1.7486
  130MOL0     H17519  10.654   3.022   8.140 -0.7425 -0.4096  0.0994
  130MOL0     H17520  10.854   3.110   7.939 -1.8605  1.9012 -2.4765
  130MOL0     H17521  10.856   3.091   8.115 -1.3392  2.4969  1.5091
  130MOL0     H17522  10.723   3.314   7.958  0.8526  1.2696 -1.0919
  130MOL0     H17523  10.722   3.306   8.132 -1.9814  0.0113 -2.3780
  130MOL0     H17524  10.961   3.336   7.944  0.3123  0.8562  0.5848
  130MOL0     H17525  10.987   3.299   8.110  0.7945 -0.3697  0.0497
  130MOL0     H17526  10.840   3.560   7.999  2.5793  0.6044 -1.7941
  130MOL0     H17527  10.852   3.515   8.167  4.5175 -4.0963  3.8821
  130MOL0     H17528  11.107   3.520   8.130 -0.4519 -1.5948 -1.5274
  130MOL0     H17529  11.029   3.675   8.121 -1.3267 -2.5076  6.0245
  130MOL0     H17530  11.089   3.518   7.866 -0.3923 -0.6813  1.8829
  130MOL0     H17531  11.202   3.634   7.943  0.9626 -1.4080  3.4517
  130MOL0     H17532  10.493   3.009   7.665  0.6324 -0.1337  1.9252
  130MOL0     H17533  10.425   2.848   7.482 -1.1609  2.0274  1.2867
  130MOL0     H17534  10.523   2.492   7.226 -3.5962 -0.4364 -0.3501
  130MOL0     H17535  10.568   2.315   7.060  1.4948 -0.6147  1.0008
  130MOL0     H17536  11.316   1.133   7.064 -2.0556  1.6022 -4.0796
  130MOL0     H17537  11.279   1.037   7.299 -1.0597 -0.6436  1.6906
  130MOL0     H17538  10.821   0.734   7.570  3.0630 -0.1714 -0.0111
  130MOL0     H17539  10.783   0.730   7.813  1.7027 -1.5446  2.9033
  130MOL0     H17540  10.813   0.802   8.057  1.2804  0.1556 -0.1442
  130MOL0     H17541  10.847   0.629   8.032 -2.1209  1.0126 -1.6974
  130MOL0     H17542  11.004   0.810   8.246  0.4367 -1.3491  3.8899
  130MOL0     H17543  11.005   0.645   8.238 -0.0217 -0.1452  1.9854
  130MOL0     H17544  10.776   0.832   8.341 -1.9472 -0.5440 -0.2463
  130MOL0     H17545  10.872   0.700   8.420 -0.8798 -3.0876 -0.1669
  130MOL0     H17546  10.635   0.682   8.217 -0.6460 -1.3439 -0.4502
  130MOL0     H17547  10.651   0.637   8.394  2.4722 -1.9833  1.2702
  130MOL0     H17548  10.810   0.305   8.167  0.3622  0.5512 -0.4933
  130MOL0     H17549  11.194   0.864   7.845 -1.7632 -0.0975  2.5391
  130MOL0     H17550  11.201   0.905   7.609 -1.1062  0.5026 -0.1636
  131MOL0     O17551   9.430   8.303  11.331  0.6274  0.1577  0.8355
  131MOL0     C17552   9.320   8.305  11.290 -0.0756  0.0038 -0.1335
  131MOL0     O17553   9.211   8.347  11.362 -0.5489 -0.2541 -0.4986
  131MOL0     C17554   9.227   8.398  11.485  0.0992  0.2046 -0.0221
  131MOL0     C17555   9.171   8.325  11.588 -0.7278 -0.1036  0.5230
  131MOL0     C17556   9.183   8.366  11.723 -0.7964  0.1164 -0.7382
  131MOL0     C17557   9.266   8.478  11.748 -0.2671 -0.6711  0.0645
  131MOL0     O17558   9.310   8.515  11.870  0.6346 -0.6553  0.7503
  131MOL0     C17559   9.244   8.460  11.986  0.5538  0.2678  1.1557
  131MOL0     C17560   9.298   8.542  12.115 -0.5725  0.0558  0.1621
  131MOL0     C17561   9.260   8.496  12.245 -0.8824  0.0194 -0.7544
  131MOL0     C17562   9.120   8.536  12.299  0.6132  0.6046 -0.4873
  131MOL0     C17563   9.070   8.424  12.393  0.2029 -0.7294  0.4673
  131MOL0     C17564   9.128   8.438  12.541 -0.1898  0.1440  0.1598
  131MOL0     C17565   9.041   8.353  12.633 -0.1388  0.1288 -1.2440
  131MOL0     C17566   9.097   8.333  12.776  0.3701  0.5261  0.2206
  131MOL0     N17567   8.979   8.313  12.861  0.0737  0.2615 -1.1252
  131MOL0     C17568   8.901   8.204  12.870 -0.0123 -0.0296 -1.0369
  131MOL0     C17569   8.825   8.212  12.988 -0.7914  0.0723  0.5353
  131MOL0     C17570   8.717   8.138  13.048  0.1909  0.5146 -0.1657
  131MOL0     C17571   8.580   8.162  12.977 -0.1446 -0.2240  1.0284
  131MOL0     C17572   8.482   8.054  12.977  1.0220 -0.6774  0.2275
  131MOL0     C17573   8.352   8.105  12.921  0.6301 -1.1309  0.9870
  131MOL0     O17574   8.296   7.998  12.842  0.8011  0.7031  0.5844
  131MOL0     C17575   8.158   7.991  12.808 -0.1108 -1.0357 -0.2152
  131MOL0     C17576   8.113   7.879  12.753  0.0712  1.1522  0.7779
  131MOL0     C17577   7.982   7.858  12.730  0.4838 -0.0329 -0.1174
  131MOL0     C17578   7.948   7.736  12.659 -0.2313  0.0302 -0.1771
  131MOL0     C17579   7.883   7.952  12.742  0.4781  0.5255 -0.3446
  131MOL0     C17580   7.735   7.952  12.721  0.0488  0.0193  0.3217
  131MOL0     O17581   7.682   8.072  12.682  0.2855  0.4081  0.5559
  131MOL0     C17582   7.556   8.085  12.627 -0.1420  0.8864 -0.0022
  131MOL0     C17583   7.496   8.203  12.659 -0.0934  0.5337 -0.3169
  131MOL0     C17584   7.372   8.239  12.598 -0.4875 -0.2136 -0.1324
  131MOL0     C17585   7.307   8.155  12.509  0.1528 -0.1050 -0.1801
  131MOL0     O17586   7.194   8.174  12.434 -0.0577  0.3331  0.5197
  131MOL0     C17587   7.101   8.267  12.477 -0.2838 -0.4089  0.6968
  131MOL0     C17588   7.013   8.296  12.358 -0.0205  0.8611 -0.0285
  131MOL0     C17589   6.937   8.184  12.288 -0.5996 -0.3573 -0.4799
  131MOL0     C17590   6.864   8.220  12.159 -0.8403 -0.2700  0.0969
  131MOL0     C17591   6.795   8.098  12.098  0.2409  0.0082  0.8401
  131MOL0     C17592   6.680   8.041  12.175  0.2328  0.4912  0.5177
  131MOL0     C17593   6.594   7.948  12.093  0.2864 -0.5986  0.5278
  131MOL0     C17594   6.505   8.011  11.987  0.6867  1.6398  0.0871
  131MOL0    Cl17595   6.361   8.099  12.045 -0.4167  0.2754  0.0485
  131MOL0     C17596   7.370   8.031  12.481  0.0411  0.1054  0.0381
  131MOL0     C17597   7.496   7.992  12.533  0.5235  0.1455  0.4669
  131MOL0     O17598   7.677   7.846  12.746  0.0403  0.0423 -0.4873
  131MOL0     C17599   7.930   8.081  12.793 -0.0136  0.0648  0.6505
  131MOL0     C17600   8.065   8.098  12.818  0.2925 -0.6394 -0.3348
  131MOL0     N17601   8.870   8.331  13.046  0.0422  0.1753 -0.0847
  131MOL0     N17602   8.963   8.386  12.976 -0.7780  1.1143 -0.8550
  131MOL0     C17603   9.312   8.555  11.646 -0.1349 -0.0960  0.1655
  131MOL0     C17604   9.289   8.512  11.511 -1.1135 -1.1236  0.0689
  131MOL0     C17605   9.287   8.223  11.173  0.4077  0.2553 -0.1835
  131MOL0     C17606   9.162   8.239  11.110  0.3173 -0.7904 -0.8584
  131MOL0     C17607   9.128   8.165  10.998 -0.2743 -0.8918 -0.4212
  131MOL0     C17608   9.217   8.068  10.957 -0.0429 -0.1837 -0.9556
  131MOL0     O17609   9.185   7.987  10.849  0.6638  0.2324  0.1812
  131MOL0     C17610   9.185   7.842  10.891  1.2389 -0.1598  0.3061
  131MOL0     C17611   9.255   7.764  10.783 -0.3225  0.4258 -1.0170
  131MOL0     C17612   9.247   7.613  10.808 -0.2917  0.1667 -0.4316
  131MOL0     C17613   9.323   7.536  10.697  0.5092  0.6777 -0.0187
  131MOL0     C17614   9.316   7.390  10.736 -0.2610 -0.5188  1.3042
  131MOL0     C17615   9.329   7.274  10.774  0.6388  0.1189  1.3729
  131MOL0     C17616   9.342   8.052  11.015 -0.7113 -0.0219  0.3060
  131MOL0     C17617   9.381   8.122  11.125  0.8995  0.7460  0.4021
  131MOL0     H17618   9.128   8.228  11.564 -3.4142  1.0242  0.4171
  131MOL0     H17619   9.163   8.292  11.800  4.4764  1.0196  2.0066
  131MOL0     H17620   9.137   8.468  11.965  1.0032  2.1847 -0.7048
  131MOL0     H17621   9.284   8.359  11.997  1.8948  0.7962  1.2792
  131MOL0     H17622   9.407   8.544  12.112 -0.5645 -1.0390 -1.4112
  131MOL0     H17623   9.281   8.650  12.110  1.5222  0.5088  1.4721
  131MOL0     H17624   9.268   8.386  12.244  0.3848  0.0389  1.2002
  131MOL0     H17625   9.336   8.535  12.314 -0.9125 -0.9684 -0.1319
  131MOL0     H17626   9.113   8.636  12.344 -0.9017  0.2610  0.0940
  131MOL0     H17627   9.046   8.526  12.219 -0.9792 -2.6573  1.1906
  131MOL0     H17628   8.963   8.440  12.406  0.0427 -0.4499 -0.9688
  131MOL0     H17629   9.100   8.329  12.346  1.9982  0.1976 -0.3733
  131MOL0     H17630   9.229   8.399  12.559 -0.3103 -2.1128 -3.1937
  131MOL0     H17631   9.133   8.543  12.573  1.9641 -0.0360  0.5957
  131MOL0     H17632   8.940   8.390  12.651 -0.2670 -1.4898  2.2316
  131MOL0     H17633   9.024   8.253  12.593  0.1894  0.6034 -2.6453
  131MOL0     H17634   9.156   8.418  12.811 -1.3373  2.6715 -1.7580
  131MOL0     H17635   9.163   8.247  12.784  2.3463  2.0704  1.1849
  131MOL0     H17636   8.905   8.123  12.799 -1.1089  0.5696 -1.8108
  131MOL0     H17637   8.731   8.031  13.032 -3.4023  0.4894 -5.6022
  131MOL0     H17638   8.704   8.144  13.157 -2.2525 -0.1476 -0.3516
  131MOL0     H17639   8.594   8.187  12.871 -2.0389 -0.3785  0.6909
  131MOL0     H17640   8.530   8.257  13.000 -0.8095  0.2040 -1.7822
  131MOL0     H17641   8.460   8.014  13.077 -1.9454 -1.6560 -0.6826
  131MOL0     H17642   8.526   7.970  12.922  0.8761 -2.1241  2.1962
  131MOL0     H17643   8.366   8.183  12.846  0.7646 -1.0058  1.1419
  131MOL0     H17644   8.279   8.144  12.992  0.9569  4.3178 -1.2258
  131MOL0     H17645   8.177   7.793  12.737 -0.2557  1.0705 -0.1624
  131MOL0     H17646   7.950   7.654  12.731  0.8825 -1.6642 -2.0364
  131MOL0     H17647   7.850   7.745  12.611 -0.1149  0.2385 -0.3772
  131MOL0     H17648   8.028   7.736  12.584  0.5318  1.5644  0.5809
  131MOL0     H17649   7.541   8.276  12.725  0.5966 -1.0340  0.9982
  131MOL0     H17650   7.315   8.329  12.617  0.3972  0.0695  1.2642
  131MOL0     H17651   7.047   8.240  12.568  0.6031  1.9944  2.0268
  131MOL0     H17652   7.140   8.365  12.506 -2.1832  1.0799 -1.3406
  131MOL0     H17653   6.948   8.380  12.382 -0.7333  0.4702 -0.5441
  131MOL0     H17654   7.078   8.354  12.292 -0.0519  0.7685 -0.1422
  131MOL0     H17655   6.861   8.156  12.361  0.0648 -0.9396 -0.0045
  131MOL0     H17656   7.004   8.099  12.277  1.0376  0.9341 -0.9331
  131MOL0     H17657   6.790   8.299  12.176 -2.7940 -1.5997 -1.8159
  131MOL0     H17658   6.942   8.259  12.093 -0.3406  2.0129  1.8817
  131MOL0     H17659   6.870   8.019  12.084 -0.6766 -0.4907 -1.9795
  131MOL0     H17660   6.756   8.121  11.998 -0.6363  3.6284  1.8694
  131MOL0     H17661   6.715   7.987  12.263 -1.8340 -0.1353  0.9971
  131MOL0     H17662   6.616   8.120  12.214 -0.6442 -0.6628  1.4907
  131MOL0     H17663   6.535   7.886  12.161 -0.4028 -0.9896 -0.4082
  131MOL0     H17664   6.652   7.872  12.040 -1.7356 -0.8105 -1.5391
  131MOL0     H17665   6.458   7.932  11.928  0.5622  2.7604 -1.3605
  131MOL0     H17666   6.558   8.079  11.920 -0.4910  0.9855 -1.5787
  131MOL0     H17667   7.314   7.968  12.412  1.0119  1.2128 -1.8471
  131MOL0     H17668   7.524   7.891  12.503 -1.3601 -0.0729 -0.7577
  131MOL0     H17669   7.869   8.169  12.783 -0.7384 -0.5458 -0.4516
  131MOL0     H17670   8.096   8.198  12.846 -4.4174  0.7302  0.8714
  131MOL0     H17671   9.371   8.646  11.659  0.0612 -0.1535 -0.2997
  131MOL0     H17672   9.326   8.570  11.427  0.8181  0.3805  1.8416
  131MOL0     H17673   9.095   8.310  11.157 -0.7070 -2.6688  0.6882
  131MOL0     H17674   9.039   8.198  10.946 -0.2603 -1.1696 -0.6222
  131MOL0     H17675   9.230   7.830  10.990  0.5312 -2.8293  0.3805
  131MOL0     H17676   9.081   7.807  10.896  0.4787  1.5693 -1.5729
  131MOL0     H17677   9.359   7.797  10.787 -0.3107  0.3820 -0.9446
  131MOL0     H17678   9.222   7.792  10.683  1.7233  1.3588 -1.4760
  131MOL0     H17679   9.143   7.585  10.823 -0.7331  1.9890  0.1571
  131MOL0     H17680   9.291   7.588  10.905 -0.0797  3.8163  0.5473
  131MOL0     H17681   9.428   7.566  10.692  0.1759  2.0465  0.7859
  131MOL0     H17682   9.288   7.554  10.595  1.9201 -2.3721 -1.1851
  131MOL0     H17683   9.333   7.169  10.797  1.5751 -0.5888 -1.6693
  131MOL0     H17684   9.407   7.981  10.965  1.5227  2.5050 -0.5986
  131MOL0     H17685   9.486   8.112  11.154  1.4666  1.9290 -1.1313
  132MOL0     O17686   1.432   3.588   9.347 -0.4888 -0.0273 -0.0464
  132MOL0     C17687   1.383   3.591   9.451  0.2994 -0.6405 -0.5038
  132MOL0     O17688   1.454   3.607   9.565  0.5077  1.0679 -0.6450
  132MOL0     C17689   1.584   3.568   9.568 -0.8328 -1.2285  0.0240
  132MOL0     C17690   1.669   3.668   9.591 -0.3459 -0.4714  0.8204
  132MOL0     C17691   1.804   3.628   9.591 -0.1986  0.4445 -0.0437
  132MOL0     C17692   1.851   3.491   9.572  0.0003  0.1872 -1.4528
  132MOL0     O17693   1.978   3.444   9.580 -0.1645  0.3143 -0.0434
  132MOL0     C17694   2.068   3.484   9.691 -0.3177  0.0379  0.0398
  132MOL0     C17695   2.214   3.445   9.653 -1.1911  0.6395 -1.0186
  132MOL0     C17696   2.235   3.287   9.652  0.6448 -0.4050 -0.1190
  132MOL0     C17697   2.245   3.231   9.788 -1.0145 -0.3960  0.1232
  132MOL0     C17698   2.293   3.084   9.776  0.2872  0.3003 -0.4019
  132MOL0     C17699   2.278   3.008   9.908 -0.3090  0.0987 -0.4232
  132MOL0     C17700   2.136   2.997   9.964 -0.6614  0.2235 -0.2890
  132MOL0     C17701   2.022   2.962   9.871 -0.2808  1.0058  0.1472
  132MOL0     N17702   1.892   2.997   9.937  0.3030  0.7096 -0.6714
  132MOL0     C17703   1.762   2.979   9.883 -0.4362  0.8818  0.3050
  132MOL0     C17704   1.681   3.015   9.991  0.9974  0.0882 -0.5698
  132MOL0     C17705   1.531   3.007   9.982 -1.4569  0.8063  0.3259
  132MOL0     C17706   1.467   3.132   9.925 -0.2262 -0.1587 -0.6445
  132MOL0     C17707   1.463   3.252  10.023 -0.1732  0.6341 -0.1150
  132MOL0     C17708   1.379   3.218  10.147  0.0359 -0.9276 -0.1271
  132MOL0     O17709   1.247   3.166  10.109 -0.5985 -0.8152 -0.1132
  132MOL0     C17710   1.142   3.163  10.195 -0.8704 -1.0224 -0.6726
  132MOL0     C17711   1.146   3.218  10.325 -0.2898 -0.4030 -0.2557
  132MOL0     C17712   1.044   3.205  10.418  0.1522  0.0020  0.4890
  132MOL0     C17713   1.071   3.263  10.559  0.2718  0.7887 -0.3877
  132MOL0     C17714   0.928   3.131  10.374  0.6082  0.7860  0.2107
  132MOL0     C17715   0.798   3.131  10.457  0.5558  0.4093 -0.7939
  132MOL0     O17716   0.706   3.025  10.445  0.1632 -0.4977 -0.5132
  132MOL0     C17717   0.615   2.996  10.544  0.5664 -0.0803 -0.4926
  132MOL0     C17718   0.613   2.873  10.615 -0.6957  0.4601 -0.2818
  132MOL0     C17719   0.513   2.848  10.709 -0.2662 -0.3112  0.5389
  132MOL0     C17720   0.402   2.938  10.719  0.3041 -0.1115  1.1840
  132MOL0     O17721   0.291   2.919  10.798  0.3217  0.4432  0.3472
  132MOL0     C17722   0.300   2.807  10.888 -1.0017  0.3929 -0.6964
  132MOL0     C17723   0.184   2.816  10.990  0.2277 -0.3408  0.4856
  132MOL0     C17724   0.201   2.932  11.078 -0.6038 -0.6893 -1.0175
  132MOL0     C17725   0.097   2.936  11.182 -0.5150  0.0387 -0.3805
  132MOL0     C17726   0.096   3.069  11.263  0.2636 -0.1435 -0.1639
  132MOL0     C17727  -0.019   3.072  11.363  0.4702  0.3119 -0.0821
  132MOL0     C17728  -0.086   3.209  11.375  0.1675 -0.3160  0.4591
  132MOL0     C17729  -0.008   3.312  11.456  0.4112 -0.3648  0.2391
  132MOL0    Cl17730  -0.115   3.448  11.502 -0.0627  0.3259 -0.2052
  132MOL0     C17731   0.403   3.056  10.646 -0.4890  0.6127  0.1892
  132MOL0     C17732   0.508   3.083  10.565 -0.2952  0.4699 -0.5953
  132MOL0     O17733   0.778   3.229  10.531  0.2254  0.2190  0.5568
  132MOL0     C17734   0.935   3.069  10.244  0.7301  0.1532 -0.7332
  132MOL0     C17735   1.033   3.091  10.155 -0.0749  0.8242  0.8145
  132MOL0     N17736   1.754   3.075  10.093 -0.1911 -0.2011  0.5899
  132MOL0     N17737   1.872   3.048  10.064 -0.1898 -0.5133  0.7062
  132MOL0     C17738   1.749   3.394   9.558 -0.3288 -0.2107 -0.6649
  132MOL0     C17739   1.614   3.436   9.550 -0.0792 -0.8094  0.8770
  132MOL0     C17740   1.244   3.632   9.458  0.3920 -0.8303 -0.1188
  132MOL0     C17741   1.191   3.673   9.576  0.1288 -0.2567  0.4060
  132MOL0     C17742   1.054   3.712   9.593  0.2800 -0.0163 -0.5889
  132MOL0     C17743   0.966   3.715   9.480 -0.2862  0.1587 -0.5392
  132MOL0     O17744   0.838   3.768   9.490 -0.4788 -0.3804 -0.5112
  132MOL0     C17745   0.758   3.763   9.602 -0.8535 -1.0884 -0.6866
  132MOL0     C17746   0.764   3.904   9.669  0.7026  0.1823 -0.0927
  132MOL0     C17747   0.693   4.003   9.588 -1.1526 -0.2051 -0.1839
  132MOL0     C17748   0.676   4.139   9.662  0.9304 -0.1590 -0.2574
  132MOL0     C17749   0.793   4.202   9.716  0.3951 -0.4922  0.1214
  132MOL0     C17750   0.899   4.240   9.764 -0.2765  0.3958  0.3367
  132MOL0     C17751   1.024   3.686   9.361  0.5442  0.6401  0.4162
  132MOL0     C17752   1.152   3.629   9.352 -0.3644 -1.3772  0.5069
  132MOL0     H17753   1.633   3.771   9.593 -1.5318 -0.7690 -1.6819
  132MOL0     H17754   1.884   3.701   9.603  1.8936 -1.9961  2.1689
  132MOL0     H17755   2.052   3.588   9.723  1.3545  0.1084  0.7772
  132MOL0     H17756   2.044   3.428   9.782  0.4381  1.2042  1.0052
  132MOL0     H17757   2.242   3.500   9.563 -1.2921  1.1405 -0.7475
  132MOL0     H17758   2.278   3.480   9.734 -1.5036 -0.1658 -0.4107
  132MOL0     H17759   2.149   3.246   9.597 -0.6604  1.9911 -0.0054
  132MOL0     H17760   2.326   3.261   9.596  3.1085  4.2209  1.2079
  132MOL0     H17761   2.322   3.273   9.854  0.9787 -3.4089 -0.0819
  132MOL0     H17762   2.150   3.239   9.842 -0.8277  0.6523  0.3188
  132MOL0     H17763   2.251   3.027   9.692 -0.4385  2.4742 -1.5971
  132MOL0     H17764   2.400   3.080   9.754  0.3186 -1.6043 -0.0521
  132MOL0     H17765   2.312   2.906   9.884 -0.0173 -0.3576  1.7468
  132MOL0     H17766   2.348   3.046   9.982 -2.4246 -2.1159  2.9961
  132MOL0     H17767   2.149   2.922  10.043 -1.6932 -1.3605 -1.5716
  132MOL0     H17768   2.125   3.094  10.014  1.6282  1.0449 -1.1906
  132MOL0     H17769   2.010   2.856   9.849 -2.8313  1.7019 -2.4226
  132MOL0     H17770   2.026   3.023   9.780  0.7831  1.0372  0.2053
  132MOL0     H17771   1.752   2.938   9.783 -0.7570  0.6774  0.4187
  132MOL0     H17772   1.524   2.916   9.921  1.7899  0.6101  0.0398
  132MOL0     H17773   1.486   2.997  10.081 -0.9399 -0.7649  0.4266
  132MOL0     H17774   1.365   3.102   9.896 -1.0956  0.2157  1.8040
  132MOL0     H17775   1.508   3.176   9.834  0.3708  1.4272  0.3435
  132MOL0     H17776   1.428   3.341   9.970 -1.9614 -1.2501 -2.3151
  132MOL0     H17777   1.564   3.278  10.056 -1.1683 -0.5141  4.5516
  132MOL0     H17778   1.363   3.313  10.200  1.9863 -1.2870  1.2114
  132MOL0     H17779   1.428   3.142  10.208  1.0483  0.6909  1.1627
  132MOL0     H17780   1.239   3.266  10.353  1.0754 -3.1745  0.2989
  132MOL0     H17781   1.128   3.355  10.550 -0.3783  1.3516  0.9381
  132MOL0     H17782   0.982   3.286  10.619  1.1411  0.6621  0.9835
  132MOL0     H17783   1.126   3.190  10.618  0.3532  3.9882  4.0094
  132MOL0     H17784   0.686   2.795  10.597 -0.7111 -0.0721  1.6612
  132MOL0     H17785   0.505   2.753  10.760 -0.8029 -1.1714 -1.0647
  132MOL0     H17786   0.307   2.716  10.828 -2.4673  1.1780 -2.1084
  132MOL0     H17787   0.390   2.805  10.951 -2.9437  3.0181  2.5203
  132MOL0     H17788   0.090   2.830  10.936  1.4434  0.1895 -1.6113
  132MOL0     H17789   0.173   2.726  11.052  2.6429 -0.5841  0.6442
  132MOL0     H17790   0.229   3.021  11.020  0.6605  0.8543  1.7592
  132MOL0     H17791   0.287   2.928  11.145 -2.8817  0.1741  2.2008
  132MOL0     H17792   0.001   2.911  11.135 -2.4920  0.3518  3.1307
  132MOL0     H17793   0.108   2.846  11.244  0.3907  1.0463  0.9570
  132MOL0     H17794   0.069   3.154  11.200  1.6404  2.0247  2.0007
  132MOL0     H17795   0.193   3.104  11.300  0.0497 -0.7966  1.0740
  132MOL0     H17796  -0.094   3.001  11.328  0.2394 -1.0968  3.0009
  132MOL0     H17797   0.016   3.039  11.461  1.2566 -0.2739 -0.5545
  132MOL0     H17798  -0.184   3.206  11.424  1.2576  0.4437  2.8758
  132MOL0     H17799  -0.094   3.254  11.276  5.3861  1.3352  0.4769
  132MOL0     H17800   0.074   3.355  11.398  0.6502  0.0617  0.8806
  132MOL0     H17801   0.029   3.275  11.552 -0.9313 -0.6597  0.6622
  132MOL0     H17802   0.330   3.134  10.663 -1.5632  0.0823 -1.6451
  132MOL0     H17803   0.523   3.178  10.514  1.4649 -0.2517 -1.5109
  132MOL0     H17804   0.844   3.018  10.214 -2.0115  3.8842  0.4503
  132MOL0     H17805   1.036   3.030  10.065  2.4091 -0.8281  1.8995
  132MOL0     H17806   1.781   3.291   9.551  1.3704  0.3434 -2.1189
  132MOL0     H17807   1.528   3.369   9.548 -0.9191  0.1736  2.1977
  132MOL0     H17808   1.249   3.678   9.668 -1.4524  1.4225  1.3692
  132MOL0     H17809   1.020   3.717   9.696 -1.0928 -1.8993 -0.9070
  132MOL0     H17810   0.660   3.719   9.582  0.4191 -4.6153  0.0988
  132MOL0     H17811   0.793   3.690   9.675 -3.3118 -0.9288  0.7559
  132MOL0     H17812   0.871   3.925   9.671  1.0014 -1.1591 -0.7619
  132MOL0     H17813   0.721   3.891   9.769  0.4999 -3.4304 -0.5058
  132MOL0     H17814   0.590   3.979   9.558 -1.2516 -0.7382  0.5666
  132MOL0     H17815   0.747   4.024   9.495 -1.6116  2.7872  0.1266
  132MOL0     H17816   0.599   4.111   9.734 -1.8939  1.8133 -2.3195
  132MOL0     H17817   0.626   4.211   9.596  0.7055 -2.8783 -3.3594
  132MOL0     H17818   0.984   4.284   9.812 -0.0101 -2.2369  2.5381
  132MOL0     H17819   0.967   3.688   9.268 -2.1234 -1.0444  1.8714
  132MOL0     H17820   1.179   3.591   9.254  2.8263  0.9793  0.3251
  133MOL0     O17821   1.961   0.485   0.550  0.2191  0.2511  0.0844
  133MOL0     C17822   2.076   0.514   0.589 -0.7768 -0.0608  0.6137
  133MOL0     O17823   2.113   0.622   0.664  0.1841  0.1263  0.6183
  133MOL0     C17824   2.024   0.720   0.671  0.4872 -0.4086 -0.5099
  133MOL0     C17825   1.971   0.743   0.800  0.5390  0.4664 -0.4741
  133MOL0     C17826   1.870   0.843   0.825  0.3932  1.2301  0.3472
  133MOL0     C17827   1.835   0.918   0.719  0.3422  0.2486  0.1326
  133MOL0     O17828   1.739   1.016   0.722 -0.1953 -0.5449 -0.2224
  133MOL0     C17829   1.692   1.073   0.845 -0.2519 -0.5624  0.0526
  133MOL0     C17830   1.565   1.005   0.887  0.0366  0.8900  0.1821
  133MOL0     C17831   1.460   1.037   0.777 -0.4269  0.1150  0.1260
  133MOL0     C17832   1.318   0.973   0.801  0.0382  0.2238 -0.0860
  133MOL0     C17833   1.232   0.965   0.680  0.5574  0.3211  0.0900
  133MOL0     C17834   1.172   1.101   0.645  0.4022  0.6035  0.1102
  133MOL0     C17835   1.083   1.095   0.523 -0.2764 -0.3850 -0.6501
  133MOL0     C17836   1.021   1.232   0.488  0.4651  0.1105  0.3353
  133MOL0     N17837   1.126   1.323   0.417  0.5421 -0.1059 -1.0674
  133MOL0     C17838   1.195   1.306   0.300 -0.3791  0.4891  0.2536
  133MOL0     C17839   1.259   1.421   0.274  0.7403 -0.2196  0.2741
  133MOL0     C17840   1.356   1.432   0.170  0.5992 -0.0773  1.4604
  133MOL0     C17841   1.279   1.461   0.039 -0.7728  0.8327  0.8499
  133MOL0     C17842   1.191   1.584   0.025 -0.5933 -0.4308 -0.0571
  133MOL0     C17843   1.062   1.593   0.106 -0.1253 -0.4619 -0.5306
  133MOL0     O17844   0.974   1.671   0.033 -0.1501 -0.3703 -0.4061
  133MOL0     C17845   0.856   1.715   0.084  0.4691 -1.3238  0.7036
  133MOL0     C17846   0.746   1.751  -0.009 -0.2694 -0.7702 -0.0711
  133MOL0     C17847   0.627   1.785   0.044  0.3925  0.4140 -0.6224
  133MOL0     C17848   0.501   1.805  -0.038  0.7794 -0.0094  0.0897
  133MOL0     C17849   0.622   1.828   0.183 -0.6061  0.4775  0.2591
  133MOL0     C17850   0.506   1.883   0.248 -0.0599 -0.0197 -0.3280
  133MOL0     O17851   0.469   1.819   0.363 -0.8705 -0.1487  0.2719
  133MOL0     C17852   0.378   1.901   0.439 -0.1257  0.0733  0.6490
  133MOL0     C17853   0.249   1.870   0.458  0.3468  0.5083  0.5823
  133MOL0     C17854   0.158   1.936   0.540 -0.1557  0.3815 -1.4014
  133MOL0     C17855   0.202   2.048   0.612 -0.1207 -0.6110 -1.0883
  133MOL0     O17856   0.130   2.107   0.707  0.7131 -0.5235  0.2754
  133MOL0     C17857   0.017   2.174   0.651 -0.8925  0.2134 -0.2866
  133MOL0     C17858  -0.027   2.273   0.761 -0.5545  0.5854  0.0650
  133MOL0     C17859  -0.156   2.346   0.723 -0.1085  0.0605  0.7185
  133MOL0     C17860  -0.213   2.403   0.852  0.2902 -0.2279 -0.7544
  133MOL0     C17861  -0.354   2.469   0.837  0.3375  0.2011 -0.2195
  133MOL0     C17862  -0.426   2.502   0.969  0.3724 -0.4126 -0.2112
  133MOL0     C17863  -0.359   2.608   1.057  0.1042  0.3755 -0.8435
  133MOL0     C17864  -0.395   2.616   1.212  0.2716 -0.0990  0.3396
  133MOL0    Cl17865  -0.562   2.636   1.233 -0.1968 -0.7683 -0.1076
  133MOL0     C17866   0.335   2.088   0.594 -0.1513 -1.0658  0.9705
  133MOL0     C17867   0.415   2.021   0.507 -0.2440  0.1652 -0.2905
  133MOL0     O17868   0.471   1.994   0.206 -0.2664  0.7103 -0.3391
  133MOL0     C17869   0.734   1.807   0.258  0.5326  0.6752 -0.7982
  133MOL0     C17870   0.842   1.744   0.213  0.3859 -0.1391  0.8800
  133MOL0     N17871   1.245   1.505   0.379 -0.2002  0.2053  0.0669
  133MOL0     N17872   1.157   1.453   0.463  0.3738 -0.2392 -0.1478
  133MOL0     C17873   1.904   0.906   0.592  1.0827  0.9071  0.3683
  133MOL0     C17874   1.997   0.806   0.570  0.4437  0.1636 -0.1475
  133MOL0     C17875   2.183   0.416   0.555  0.3027  0.3235 -0.1534
  133MOL0     C17876   2.169   0.283   0.588  1.0996 -0.8753  0.3902
  133MOL0     C17877   2.271   0.187   0.575 -0.0854 -0.7674 -0.4023
  133MOL0     C17878   2.377   0.225   0.497 -0.0908 -0.3802  0.7692
  133MOL0     O17879   2.473   0.128   0.462  0.1382 -0.3007  0.4780
  133MOL0     C17880   2.429   0.059   0.341  0.1766  0.2316  0.8003
  133MOL0     C17881   2.475   0.132   0.209  0.0017 -0.3702 -0.4681
  133MOL0     C17882   2.465   0.044   0.087  0.5187  0.0343  0.0874
  133MOL0     C17883   2.408   0.103  -0.051 -0.2757 -0.9908 -0.3009
  133MOL0     C17884   2.266   0.162  -0.032 -0.1600  0.4745 -0.0950
  133MOL0     C17885   2.162   0.224  -0.007  0.2090  0.4997  0.0767
  133MOL0     C17886   2.397   0.360   0.451  0.9439  0.6451 -0.6392
  133MOL0     C17887   2.307   0.454   0.497  0.7715  0.6893 -0.6272
  133MOL0     H17888   1.998   0.685   0.888 -0.1485  1.7476  0.6248
  133MOL0     H17889   1.835   0.862   0.926  0.2624  2.7238  0.0420
  133MOL0     H17890   1.767   1.059   0.924  0.5633 -1.5291 -0.8424
  133MOL0     H17891   1.680   1.180   0.830  2.7066 -0.1389  0.0579
  133MOL0     H17892   1.576   0.898   0.910  1.8014  1.1507  0.6744
  133MOL0     H17893   1.526   1.052   0.978 -0.5553  0.7758 -0.0076
  133MOL0     H17894   1.455   1.145   0.757  3.0245  0.4203  0.2348
  133MOL0     H17895   1.492   0.986   0.686  1.8039  0.5409  0.5933
  133MOL0     H17896   1.335   0.872   0.838  0.8119  0.0295 -0.9492
  133MOL0     H17897   1.269   1.045   0.867  1.3582  0.4578  0.6602
  133MOL0     H17898   1.291   0.929   0.596 -1.7560 -1.5368 -0.8458
  133MOL0     H17899   1.151   0.894   0.702 -2.1608  2.9838 -0.6074
  133MOL0     H17900   1.098   1.131   0.721 -3.1659 -0.0880 -2.7876
  133MOL0     H17901   1.250   1.176   0.639  0.1535  0.8029 -0.8760
  133MOL0     H17902   1.147   1.069   0.438 -2.1298  1.0101 -2.5795
  133MOL0     H17903   1.009   1.016   0.539 -1.2423  0.3311 -1.4176
  133MOL0     H17904   0.985   1.283   0.578  0.5745 -0.7168  0.8595
  133MOL0     H17905   0.930   1.226   0.428 -1.6254 -0.7204  3.3477
  133MOL0     H17906   1.201   1.213   0.244 -0.9927  0.7499 -0.2564
  133MOL0     H17907   1.419   1.517   0.196 -0.7320  1.8897 -1.3761
  133MOL0     H17908   1.416   1.340   0.170  0.1357 -0.4683 -1.6428
  133MOL0     H17909   1.216   1.373   0.022  1.2218 -0.5594  0.2118
  133MOL0     H17910   1.356   1.456  -0.039 -1.3157  2.3330  0.1748
  133MOL0     H17911   1.167   1.598  -0.081  3.0840  0.5355 -0.8831
  133MOL0     H17912   1.256   1.671   0.036 -0.1407 -0.4469 -2.2298
  133MOL0     H17913   1.070   1.630   0.209 -3.9336 -1.2067  0.1803
  133MOL0     H17914   1.007   1.499   0.114 -1.3405  0.2602 -0.1177
  133MOL0     H17915   0.765   1.754  -0.116  0.7508 -0.4211  0.1138
  133MOL0     H17916   0.403   1.801   0.010 -1.2297 -0.0283 -3.5960
  133MOL0     H17917   0.501   1.906  -0.079  0.7833  0.2115  0.6306
  133MOL0     H17918   0.493   1.743  -0.128 -0.6036  1.3750 -0.7815
  133MOL0     H17919   0.220   1.780   0.405  0.9109 -1.6989  3.7844
  133MOL0     H17920   0.059   1.895   0.558  0.3767 -0.1402  0.5815
  133MOL0     H17921   0.039   2.239   0.566 -0.1834 -1.0986 -1.1273
  133MOL0     H17922  -0.056   2.098   0.624 -1.7260  0.8566  0.1189
  133MOL0     H17923  -0.046   2.213   0.850  1.0375 -2.3422 -1.4520
  133MOL0     H17924   0.058   2.334   0.793  2.2465 -3.5299  1.2169
  133MOL0     H17925  -0.225   2.273   0.680  1.8245 -1.4755  0.0542
  133MOL0     H17926  -0.134   2.425   0.651  5.4206 -0.1432  1.7350
  133MOL0     H17927  -0.216   2.331   0.935 -0.7860  0.7543  0.1014
  133MOL0     H17928  -0.152   2.484   0.893 -3.3430  2.1902  0.3392
  133MOL0     H17929  -0.420   2.393   0.795 -0.8862  0.9179  0.3481
  133MOL0     H17930  -0.355   2.551   0.765  2.1850  1.3329  0.9436
  133MOL0     H17931  -0.532   2.526   0.954  0.2067 -1.7236 -1.2719
  133MOL0     H17932  -0.427   2.409   1.027 -1.9235  0.0122  0.5465
  133MOL0     H17933  -0.353   2.705   1.007  2.4422  0.6213 -0.2209
  133MOL0     H17934  -0.254   2.579   1.063  0.3105  1.3937  1.6490
  133MOL0     H17935  -0.345   2.703   1.256  0.2812 -1.0858  2.3830
  133MOL0     H17936  -0.374   2.529   1.273  1.8006  0.1977  0.2737
  133MOL0     H17937   0.363   2.171   0.658 -3.3861  1.4461 -0.5124
  133MOL0     H17938   0.517   2.056   0.494  0.8362 -2.0998  1.3717
  133MOL0     H17939   0.735   1.832   0.364 -2.0494  2.0023 -1.0220
  133MOL0     H17940   0.919   1.717   0.286 -0.1027 -4.1313  0.1041
  133MOL0     H17941   1.867   0.961   0.506  3.1203  1.5269 -0.1797
  133MOL0     H17942   2.040   0.804   0.471  0.2822  2.0336 -0.2764
  133MOL0     H17943   2.077   0.254   0.638 -1.4014  0.5867 -2.9084
  133MOL0     H17944   2.254   0.085   0.608 -1.9555 -0.7468 -1.1561
  133MOL0     H17945   2.465  -0.044   0.342  0.9954  0.5125  0.8943
  133MOL0     H17946   2.321   0.044   0.339  0.4801 -2.9558  2.4868
  133MOL0     H17947   2.575   0.177   0.215 -0.6731  1.2409 -0.7500
  133MOL0     H17948   2.408   0.215   0.184 -1.5655 -1.6438 -0.6421
  133MOL0     H17949   2.388  -0.033   0.102 -0.7572  1.0665 -0.9672
  133MOL0     H17950   2.560  -0.008   0.073  0.7794  0.5735 -0.1312
  133MOL0     H17951   2.392   0.019  -0.119 -1.2442  0.0477 -1.4155
  133MOL0     H17952   2.475   0.175  -0.101 -2.5595 -1.1027 -3.9063
  133MOL0     H17953   2.073   0.277   0.021 -0.6062 -1.1177  0.6551
  133MOL0     H17954   2.491   0.384   0.402  2.1216 -2.6985 -0.2470
  133MOL0     H17955   2.319   0.561   0.482 -0.7007  1.0474  0.5510
  134MOL0     O17956   4.894  11.451   6.082  0.2253 -0.1500  0.2378
  134MOL0     C17957   4.839  11.555   6.111  0.3360  0.2674  0.9799
  134MOL0     O17958   4.771  11.583   6.220 -0.3508 -0.5832 -0.6073
  134MOL0     C17959   4.749  11.487   6.311  0.3951 -0.0105  0.0368
  134MOL0     C17960   4.853  11.434   6.388  0.5542  0.4360  0.1629
  134MOL0     C17961   4.835  11.314   6.461 -0.0957 -0.2456 -0.6841
  134MOL0     C17962   4.702  11.259   6.471 -0.2362  0.5549 -0.2746
  134MOL0     O17963   4.680  11.154   6.565 -0.3011 -0.4063  0.2571
  134MOL0     C17964   4.788  11.078   6.629 -0.6804  0.6877  0.2056
  134MOL0     C17965   4.740  10.939   6.681 -0.6538 -0.0957  0.5051
  134MOL0     C17966   4.613  10.951   6.772 -0.9204  0.4155  0.1204
  134MOL0     C17967   4.558  10.807   6.813 -0.4149 -0.7215  0.5252
  134MOL0     C17968   4.444  10.800   6.914  0.0834  0.9604 -0.3960
  134MOL0     C17969   4.407  10.662   6.959  0.0860  0.5353  0.9997
  134MOL0     C17970   4.278  10.672   7.032  0.8892  1.1277  0.3065
  134MOL0     C17971   4.242  10.542   7.112  0.1456 -0.2908  0.1740
  134MOL0     N17972   4.247  10.437   7.016 -0.2952  0.0250 -0.2020
  134MOL0     C17973   4.134  10.392   6.951 -0.0808  0.0272 -0.8762
  134MOL0     C17974   4.169  10.271   6.905  1.1501  0.1747 -0.6623
  134MOL0     C17975   4.071  10.170   6.840 -0.8093 -0.2578 -0.7749
  134MOL0     C17976   4.139  10.043   6.802 -1.1009 -0.2749  0.6719
  134MOL0     C17977   4.034   9.957   6.731 -0.3865  0.6293  0.7640
  134MOL0     C17978   4.087   9.819   6.697 -0.1843 -0.2827 -0.4682
  134MOL0     O17979   4.129   9.736   6.807  0.0206  0.7382 -0.0083
  134MOL0     C17980   4.188   9.620   6.778  0.1251  0.2543  0.5371
  134MOL0     C17981   4.231   9.540   6.888 -0.1726  0.1790  1.0615
  134MOL0     C17982   4.315   9.419   6.877  0.2017 -0.2212 -0.4815
  134MOL0     C17983   4.359   9.340   7.001  0.9900 -0.3451  0.0181
  134MOL0     C17984   4.349   9.381   6.750 -0.1622  0.0100  0.2497
  134MOL0     C17985   4.467   9.303   6.721 -0.7312 -0.3783 -0.4085
  134MOL0     O17986   4.456   9.244   6.599 -0.3908 -0.3335  0.1254
  134MOL0     C17987   4.553   9.156   6.559  0.6478 -0.7330  0.5424
  134MOL0     C17988   4.505   9.031   6.533 -0.3989  0.1636 -0.2004
  134MOL0     C17989   4.602   8.940   6.478 -0.6986  0.1398  0.3280
  134MOL0     C17990   4.731   8.979   6.428  1.1393  1.1591  0.3044
  134MOL0     O17991   4.830   8.889   6.397  0.4232 -0.2388  1.1695
  134MOL0     C17992   4.816   8.759   6.457 -0.2474  0.3474 -0.7388
  134MOL0     C17993   4.825   8.774   6.613  0.0931  0.2868 -0.3107
  134MOL0     C17994   4.958   8.834   6.649  0.8411  0.1013 -0.3852
  134MOL0     C17995   4.988   8.803   6.804  0.8831  0.5681 -0.0491
  134MOL0     C17996   4.899   8.892   6.889  0.5435 -0.3097  0.6402
  134MOL0     C17997   4.907   9.047   6.862 -0.0240  0.9764  0.5803
  134MOL0     C17998   4.827   9.126   6.971 -0.0502  0.0850  0.5600
  134MOL0     C17999   4.851   9.279   6.968 -0.3142  0.4719  0.3378
  134MOL0    Cl18000   5.010   9.306   7.026  0.0846 -0.0314  0.6052
  134MOL0     C18001   4.767   9.109   6.446 -0.9070 -0.6724  0.5734
  134MOL0     C18002   4.683   9.198   6.510  0.8821 -0.0602 -0.5009
  134MOL0     O18003   4.556   9.291   6.801  0.2217  0.7778 -0.0850
  134MOL0     C18004   4.279   9.446   6.638  0.0309  0.5803 -0.2999
  134MOL0     C18005   4.203   9.553   6.650  0.1816 -0.9802 -0.3179
  134MOL0     N18006   4.303  10.246   6.927  0.0820  0.7168 -0.7747
  134MOL0     N18007   4.345  10.345   7.002 -0.8710 -0.0032  0.2094
  134MOL0     C18008   4.600  11.308   6.389  0.0785  0.4807  0.6002
  134MOL0     C18009   4.628  11.418   6.313  0.0150  0.1324  0.4144
  134MOL0     C18010   4.833  11.658   6.009 -0.7926 -0.3229  0.2052
  134MOL0     C18011   4.871  11.620   5.879  0.1440 -0.4173 -0.1878
  134MOL0     C18012   4.896  11.732   5.797 -0.9137 -0.3417 -0.0317
  134MOL0     C18013   4.872  11.865   5.828 -0.0002 -0.4188 -0.1983
  134MOL0     O18014   4.902  11.977   5.749  0.5721  0.0453  0.5157
  134MOL0     C18015   4.891  11.962   5.605  2.0679 -0.3056  0.8534
  134MOL0     C18016   4.744  11.958   5.558 -0.3548 -0.2919  0.0220
  134MOL0     C18017   4.722  11.895   5.416  0.4263 -0.2575 -0.2126
  134MOL0     C18018   4.574  11.905   5.380 -0.0812  0.5193 -0.2362
  134MOL0     C18019   4.557  11.825   5.264 -0.1612  0.1354 -0.2716
  134MOL0     C18020   4.549  11.749   5.168 -1.1383 -0.2388 -0.0888
  134MOL0     C18021   4.814  11.895   5.949  1.0322  0.8676 -0.2912
  134MOL0     C18022   4.796  11.789   6.043 -0.3506 -0.3263 -0.3561
  134MOL0     H18023   4.952  11.476   6.374  0.5126  2.2784  3.9951
  134MOL0     H18024   4.924  11.273   6.507 -0.7253  0.8701  1.6657
  134MOL0     H18025   4.869  11.066   6.557 -0.7375  0.3540  0.1972
  134MOL0     H18026   4.839  11.132   6.709  0.6595 -3.1148  2.1124
  134MOL0     H18027   4.715  10.879   6.593  0.5184  0.1281  0.0113
  134MOL0     H18028   4.812  10.886   6.744 -1.5977  0.4099  2.0967
  134MOL0     H18029   4.643  11.009   6.860  1.9288 -1.9252  0.8528
  134MOL0     H18030   4.527  10.995   6.722 -5.4745 -4.0608  3.0354
  134MOL0     H18031   4.530  10.757   6.720  1.2460  1.0327 -0.9994
  134MOL0     H18032   4.638  10.746   6.856 -0.4029 -1.4781 -0.5294
  134MOL0     H18033   4.472  10.853   7.005  0.3124 -0.9333  0.6842
  134MOL0     H18034   4.352  10.846   6.876 -2.3199  0.4852  4.2160
  134MOL0     H18035   4.398  10.595   6.873  0.4185  1.4826  0.2069
  134MOL0     H18036   4.488  10.629   7.023 -1.3542  0.4725  2.8703
  134MOL0     H18037   4.273  10.758   7.100 -2.2693  0.2691  1.3335
  134MOL0     H18038   4.201  10.688   6.956 -1.6629  0.6024  2.6184
  134MOL0     H18039   4.142  10.552   7.156 -0.6252 -3.1811 -0.7112
  134MOL0     H18040   4.318  10.520   7.187 -0.0337  2.0196  1.1194
  134MOL0     H18041   4.032  10.429   6.943 -0.5271 -0.2469  2.3159
  134MOL0     H18042   3.992  10.138   6.909 -0.3753 -1.2943 -0.7479
  134MOL0     H18043   4.015  10.216   6.758  0.3196 -0.1669 -1.5078
  134MOL0     H18044   4.183   9.989   6.887 -2.6673 -0.2358  1.5471
  134MOL0     H18045   4.214  10.072   6.728 -1.0944  1.1693  1.2145
  134MOL0     H18046   4.007   9.991   6.631  1.6149  2.3577  0.7473
  134MOL0     H18047   3.949   9.943   6.798  1.5074  0.7090  3.3305
  134MOL0     H18048   4.168   9.827   6.624 -1.4140  0.9967 -1.7764
  134MOL0     H18049   4.019   9.754   6.642  1.0680 -3.5456  1.5779
  134MOL0     H18050   4.200   9.579   6.985  3.0932  1.2365  1.8018
  134MOL0     H18051   4.362   9.233   6.978 -2.6423 -0.5465 -0.1565
  134MOL0     H18052   4.452   9.378   7.042  0.2066 -1.0736  2.6818
  134MOL0     H18053   4.285   9.348   7.081 -0.1821  0.2832 -1.0837
  134MOL0     H18054   4.412   9.000   6.580  1.0715 -1.4901  1.8175
  134MOL0     H18055   4.564   8.838   6.476 -4.8456  1.5196 -2.0198
  134MOL0     H18056   4.722   8.714   6.423 -0.0361  0.3703 -1.3548
  134MOL0     H18057   4.896   8.692   6.424 -2.2531 -1.7800 -1.6086
  134MOL0     H18058   4.747   8.844   6.644  1.1834  1.0155  0.8450
  134MOL0     H18059   4.814   8.672   6.651  5.3306 -0.5985 -0.4475
  134MOL0     H18060   4.954   8.942   6.630  0.7183 -0.2046 -2.2913
  134MOL0     H18061   5.036   8.780   6.595  0.7800 -0.7060  0.3051
  134MOL0     H18062   4.976   8.699   6.835 -0.8291  0.9534  0.6779
  134MOL0     H18063   5.094   8.829   6.810  1.6710 -0.5573 -4.9107
  134MOL0     H18064   4.945   8.871   6.986  2.3210  0.8049  0.0831
  134MOL0     H18065   4.795   8.859   6.882  0.0984  1.2574 -0.8643
  134MOL0     H18066   5.010   9.082   6.874 -0.1503  0.6547  3.0514
  134MOL0     H18067   4.856   9.070   6.768 -0.4541  0.0140  0.5655
  134MOL0     H18068   4.853   9.102   7.074 -1.1601  1.7798  1.2818
  134MOL0     H18069   4.721   9.117   6.946 -0.5452  3.4810  0.9796
  134MOL0     H18070   4.791   9.326   7.047 -0.6563  0.0640  0.3209
  134MOL0     H18071   4.834   9.332   6.874 -1.2127  2.0125  1.3159
  134MOL0     H18072   4.867   9.135   6.414 -0.6626 -0.7164  1.2679
  134MOL0     H18073   4.694   9.304   6.530 -3.4192  0.6647 -1.0135
  134MOL0     H18074   4.300   9.413   6.537 -5.0568  2.6802 -2.3940
  134MOL0     H18075   4.159   9.599   6.562  0.3041 -1.0355 -0.4070
  134MOL0     H18076   4.496  11.280   6.397 -1.1544  4.4602  0.9459
  134MOL0     H18077   4.540  11.435   6.253 -1.3580 -1.2725  1.9282
  134MOL0     H18078   4.901  11.520   5.852  0.6460 -0.0653 -0.9657
  134MOL0     H18079   4.950  11.710   5.706  0.7970  0.8004  0.6603
  134MOL0     H18080   4.946  12.046   5.562  3.6339 -1.7150 -0.0230
  134MOL0     H18081   4.934  11.869   5.565  0.3569 -2.0704  2.8255
  134MOL0     H18082   4.709  12.061   5.561  4.2726  1.8245 -4.1941
  134MOL0     H18083   4.686  11.892   5.624 -0.9759  0.0823 -0.1406
  134MOL0     H18084   4.765  11.795   5.427  3.9118  1.2228  0.7967
  134MOL0     H18085   4.776  11.955   5.343 -0.4772 -0.6941 -1.2559
  134MOL0     H18086   4.555  12.007   5.344  0.3201  0.5074 -0.4906
  134MOL0     H18087   4.506  11.872   5.458  1.2646 -1.9412 -0.0167
  134MOL0     H18088   4.539  11.679   5.088  1.3965 -0.3353 -0.4273
  134MOL0     H18089   4.779  11.993   5.979 -4.5801 -0.4168 -1.4779
  134MOL0     H18090   4.765  11.831   6.137  0.6084  1.1589 -0.6709
  135MOL0     O18091   6.824   5.799   9.982 -0.4550 -0.0593 -0.2062
  135MOL0     C18092   6.857   5.709  10.053  0.8558  0.5543 -0.5920
  135MOL0     O18093   6.969   5.633  10.035  0.4849  0.3516 -0.5729
  135MOL0     C18094   7.091   5.686   9.989  1.1312  0.6041 -0.8043
  135MOL0     C18095   7.111   5.831   9.997 -1.9645 -0.7388  0.3993
  135MOL0     C18096   7.223   5.880   9.937  1.1721  0.8381  0.2459
  135MOL0     C18097   7.321   5.800   9.865  0.1609  0.5475  0.0168
  135MOL0     O18098   7.431   5.849   9.791  0.1658  0.7825  0.2966
  135MOL0     C18099   7.445   5.989   9.763  0.6326  0.0741  1.3926
  135MOL0     C18100   7.552   6.007   9.655 -0.3173  0.9785 -0.8928
  135MOL0     C18101   7.574   6.143   9.612  0.3730 -0.7041  0.6792
  135MOL0     C18102   7.712   6.207   9.660 -0.3910  0.1752 -0.1004
  135MOL0     C18103   7.775   6.312   9.570 -0.4421 -0.3520 -0.1073
  135MOL0     C18104   7.875   6.412   9.630  0.2939 -0.5718  0.4403
  135MOL0     C18105   7.943   6.494   9.523  0.7781  1.0063 -0.6664
  135MOL0     C18106   8.072   6.576   9.573 -0.3975 -0.4670 -0.3442
  135MOL0     N18107   8.023   6.668   9.672 -0.1659 -0.2043 -0.0201
  135MOL0     C18108   7.927   6.767   9.649 -0.4577  0.4129  0.2449
  135MOL0     C18109   7.897   6.817   9.770  0.2873  0.4087  0.3682
  135MOL0     C18110   7.807   6.942   9.788 -0.3137  1.4142 -0.4869
  135MOL0     C18111   7.876   7.077   9.824  0.5479 -0.1863 -0.2239
  135MOL0     C18112   7.999   7.120   9.740  0.5617 -0.0431  0.6185
  135MOL0     C18113   8.059   7.249   9.783  0.0706  0.4563 -0.7727
  135MOL0     O18114   8.181   7.280   9.722 -0.6358  1.1261 -0.5902
  135MOL0     C18115   8.256   7.377   9.762 -0.2969 -0.9241  0.2837
  135MOL0     C18116   8.389   7.383   9.711  0.5840 -0.4507 -0.1323
  135MOL0     C18117   8.482   7.471   9.767 -0.3211 -0.1173 -0.1366
  135MOL0     C18118   8.622   7.470   9.717  0.2952 -0.0592  0.2489
  135MOL0     C18119   8.438   7.556   9.873  0.3842 -0.2084  0.1281
  135MOL0     C18120   8.527   7.646   9.942  0.5644 -1.0674 -0.2468
  135MOL0     O18121   8.589   7.736   9.859 -0.1824 -0.6967  0.0883
  135MOL0     C18122   8.652   7.840   9.917 -0.1419  0.2140 -0.1125
  135MOL0     C18123   8.610   7.969   9.877 -0.4873 -0.0467 -0.4970
  135MOL0     C18124   8.688   8.081   9.914  0.1536  0.1809 -0.5290
  135MOL0     C18125   8.807   8.071   9.991  0.3373 -0.0668 -0.4904
  135MOL0     O18126   8.868   8.186  10.030 -0.6899  0.2306  0.2074
  135MOL0     C18127   9.020   8.197  10.035  1.1881  0.5872 -0.6010
  135MOL0     C18128   9.061   8.315  10.115  0.1869 -0.0766 -0.2415
  135MOL0     C18129   9.203   8.310  10.170 -0.1802  0.3903 -0.4014
  135MOL0     C18130   9.210   8.233  10.307 -0.2571  0.3894  0.3956
  135MOL0     C18131   9.351   8.246  10.371 -0.1302 -0.5858 -0.2844
  135MOL0     C18132   9.368   8.165  10.514  0.3880  0.5227  0.0430
  135MOL0     C18133   9.506   8.194  10.569 -0.7610  0.5764 -0.9298
  135MOL0     C18134   9.519   8.124  10.698  0.2760  0.7409  0.2879
  135MOL0    Cl18135   9.566   7.942  10.676 -0.1074  0.0511 -0.1773
  135MOL0     C18136   8.846   7.939  10.035  0.1285  0.2496 -0.4239
  135MOL0     C18137   8.770   7.821   9.991 -0.4712 -0.7360 -0.6766
  135MOL0     O18138   8.526   7.650  10.064 -1.1138  0.3551  0.2533
  135MOL0     C18139   8.312   7.557   9.914 -0.7005  0.6111 -0.6295
  135MOL0     C18140   8.217   7.476   9.859  0.0708 -0.1543  0.4321
  135MOL0     N18141   7.979   6.744   9.860  0.6169 -0.2648 -0.0599
  135MOL0     N18142   8.049   6.652   9.798  0.4839  0.3379 -0.3174
  135MOL0     C18143   7.304   5.654   9.871 -0.1329  0.2565  0.4478
  135MOL0     C18144   7.193   5.604   9.935  0.5513 -0.0172 -1.1933
  135MOL0     C18145   6.778   5.678  10.178 -0.3656  0.5100 -0.8861
  135MOL0     C18146   6.668   5.760  10.218 -0.4546  0.5948  0.0719
  135MOL0     C18147   6.596   5.734  10.339  0.7194 -0.0130 -0.4870
  135MOL0     C18148   6.626   5.621  10.415  0.0347 -0.9647 -0.5557
  135MOL0     O18149   6.560   5.588  10.535  0.1978 -0.0959 -0.8682
  135MOL0     C18150   6.433   5.644  10.571  0.2539 -0.3547  0.3047
  135MOL0     C18151   6.388   5.572  10.694  0.5511  0.4358  0.3667
  135MOL0     C18152   6.461   5.613  10.821  1.0664  0.8794 -0.5855
  135MOL0     C18153   6.396   5.558  10.953 -0.5699 -0.5834  0.3174
  135MOL0     C18154   6.478   5.570  11.070 -0.2267  0.2724  0.1508
  135MOL0     C18155   6.550   5.577  11.164 -0.5736  0.2486 -0.5459
  135MOL0     C18156   6.726   5.540  10.368 -0.3941 -0.0345  0.7138
  135MOL0     C18157   6.808   5.566  10.254 -0.2726  1.0861 -0.2321
  135MOL0     H18158   7.058   5.909  10.051 -1.6116  0.0512 -0.3628
  135MOL0     H18159   7.226   5.989   9.938  0.9425  1.1605 -4.8794
  135MOL0     H18160   7.347   6.024   9.728  0.8599  1.0167  1.6593
  135MOL0     H18161   7.457   6.053   9.851 -2.0198  1.8770  0.5580
  135MOL0     H18162   7.644   5.966   9.697 -2.9000 -0.4821  4.1218
  135MOL0     H18163   7.526   5.949   9.566  0.8120 -0.2576 -0.4431
  135MOL0     H18164   7.575   6.135   9.503 -1.1391 -1.2707  0.6790
  135MOL0     H18165   7.492   6.212   9.635  0.2508 -0.8613  0.7168
  135MOL0     H18166   7.697   6.244   9.762  1.9996 -1.0011  0.7501
  135MOL0     H18167   7.793   6.134   9.670 -0.3715  0.2130  0.0208
  135MOL0     H18168   7.823   6.264   9.484  0.7401 -0.1005  0.3999
  135MOL0     H18169   7.693   6.378   9.539  0.3422  1.3352  1.2572
  135MOL0     H18170   7.838   6.481   9.706 -1.2249 -0.3026 -0.4977
  135MOL0     H18171   7.949   6.350   9.681 -0.8448 -0.2873  2.5211
  135MOL0     H18172   7.977   6.426   9.444  1.6427 -3.2576  2.9162
  135MOL0     H18173   7.874   6.562   9.472 -2.1252 -0.4602  0.9930
  135MOL0     H18174   8.118   6.643   9.500 -2.7339  0.7769 -0.7771
  135MOL0     H18175   8.146   6.507   9.614  2.3406  1.5294 -1.6107
  135MOL0     H18176   7.877   6.792   9.556 -0.3336  1.7464  0.5187
  135MOL0     H18177   7.734   6.962   9.709 -0.6257  2.7949  0.1189
  135MOL0     H18178   7.756   6.927   9.883 -1.0515  1.3172 -0.8958
  135MOL0     H18179   7.912   7.064   9.927  0.5566  1.4969  0.0148
  135MOL0     H18180   7.793   7.149   9.827 -0.1618 -1.0021  0.0491
  135MOL0     H18181   7.979   7.128   9.633  1.6054  2.0284  0.5341
  135MOL0     H18182   8.067   7.034   9.742 -0.1336 -0.6384 -0.5065
  135MOL0     H18183   8.078   7.245   9.890  1.7443 -1.8602 -1.0597
  135MOL0     H18184   7.991   7.333   9.765  1.3282  1.2499 -2.1152
  135MOL0     H18185   8.399   7.311   9.630 -0.9040  0.5828 -1.2718
  135MOL0     H18186   8.633   7.401   9.633  4.0812  1.0866 -0.3805
  135MOL0     H18187   8.647   7.572   9.685 -1.8172  0.6884  0.8588
  135MOL0     H18188   8.695   7.444   9.794  2.1048 -3.5367 -2.3357
  135MOL0     H18189   8.514   7.972   9.826 -1.7719 -0.5280  1.7628
  135MOL0     H18190   8.642   8.175   9.887  2.2666  0.6820 -2.6898
  135MOL0     H18191   9.058   8.112  10.090 -1.2326 -0.6350 -0.6638
  135MOL0     H18192   9.061   8.203   9.934  0.4508 -1.3891 -1.0604
  135MOL0     H18193   9.052   8.410  10.060  2.1338 -0.1204 -0.7245
  135MOL0     H18194   8.995   8.324  10.201 -0.4675  1.9348 -0.8783
  135MOL0     H18195   9.239   8.410  10.196  1.2330 -0.4930  1.2888
  135MOL0     H18196   9.274   8.273  10.095 -0.7075 -1.3672 -0.0816
  135MOL0     H18197   9.135   8.280  10.371  0.9525  3.9612 -0.5286
  135MOL0     H18198   9.190   8.129  10.280 -1.7980  1.7698 -5.2080
  135MOL0     H18199   9.369   8.353  10.388  0.4576 -0.2365 -2.7316
  135MOL0     H18200   9.422   8.213  10.295  1.0109  1.4540 -0.1891
  135MOL0     H18201   9.305   8.206  10.593  0.5836 -0.6085  0.8146
  135MOL0     H18202   9.342   8.059  10.508  0.7550  0.3713  0.9089
  135MOL0     H18203   9.514   8.302  10.587  0.7847  0.6870 -2.0746
  135MOL0     H18204   9.585   8.154  10.505 -0.0229 -1.6489  1.2507
  135MOL0     H18205   9.419   8.126  10.743 -0.4940  0.4037 -1.3080
  135MOL0     H18206   9.588   8.168  10.770  2.1699  1.9047 -2.0881
  135MOL0     H18207   8.933   7.924  10.098 -0.0599  1.4794  0.1390
  135MOL0     H18208   8.818   7.726  10.012 -0.4628 -0.0511  3.0140
  135MOL0     H18209   8.297   7.621  10.001  1.1157  2.4437 -1.5659
  135MOL0     H18210   8.115   7.477   9.896  0.3597 -0.3271  1.2514
  135MOL0     H18211   7.362   5.583   9.813  0.6589  1.4472 -0.2561
  135MOL0     H18212   7.185   5.497   9.921 -1.2328  0.2394 -2.4562
  135MOL0     H18213   6.660   5.857  10.171  1.8283  0.7145 -0.1832
  135MOL0     H18214   6.529   5.811  10.375  0.7154 -0.7393  1.1128
  135MOL0     H18215   6.423   5.753  10.578  1.1739 -0.1608 -1.1488
  135MOL0     H18216   6.356   5.608  10.502 -0.6276 -1.0216  1.5869
  135MOL0     H18217   6.391   5.463  10.685 -2.0422  0.0767  2.6439
  135MOL0     H18218   6.283   5.596  10.709  0.2745  1.4580 -2.5952
  135MOL0     H18219   6.461   5.722  10.829 -1.3365  0.8842  0.1617
  135MOL0     H18220   6.569   5.595  10.822  0.7820 -1.0868  0.2990
  135MOL0     H18221   6.375   5.452  10.936  0.2469 -0.3862 -2.3580
  135MOL0     H18222   6.302   5.610  10.977  0.0664 -0.5707  3.1841
  135MOL0     H18223   6.627   5.564  11.238 -0.6492  0.6476 -0.3983
  135MOL0     H18224   6.749   5.443  10.410 -0.0414 -0.1181  0.3326
  135MOL0     H18225   6.897   5.508  10.233 -0.4154  0.9134 -0.3638
  136MOL0     O18226   3.252   6.688   2.046 -0.2405  0.5356  0.1955
  136MOL0     C18227   3.301   6.793   2.084  0.1120 -0.5848  0.5250
  136MOL0     O18228   3.240   6.913   2.083 -0.1281  0.7404  0.2462
  136MOL0     C18229   3.114   6.932   2.018  0.3510  0.1458 -0.4773
  136MOL0     C18230   2.999   6.905   2.093 -0.9065  0.0211  0.1202
  136MOL0     C18231   2.874   6.929   2.040  0.2767  1.4845  0.0836
  136MOL0     C18232   2.859   6.980   1.900  0.2537  0.2103 -0.0284
  136MOL0     O18233   2.730   6.992   1.856 -0.4970 -0.5065 -0.3564
  136MOL0     C18234   2.713   6.971   1.722  1.1659 -0.1863  0.8353
  136MOL0     C18235   2.561   6.982   1.700 -0.2065 -0.1909 -0.5674
  136MOL0     C18236   2.504   7.120   1.717 -0.3688 -0.4285 -0.5635
  136MOL0     C18237   2.404   7.120   1.829 -0.0952  0.5351 -0.4036
  136MOL0     C18238   2.320   7.246   1.844 -0.1004  0.1353 -0.0060
  136MOL0     C18239   2.173   7.203   1.856  0.0804  0.0189  0.2804
  136MOL0     C18240   2.074   7.317   1.868  0.0803 -0.5088  0.3212
  136MOL0     C18241   1.939   7.281   1.934  0.4425 -0.1054  0.0276
  136MOL0     N18242   1.844   7.355   1.859  0.3466  0.5585  0.3494
  136MOL0     C18243   1.784   7.322   1.732 -1.1399 -0.0416 -0.6059
  136MOL0     C18244   1.719   7.426   1.697 -0.1412 -0.1666  0.1719
  136MOL0     C18245   1.633   7.446   1.580 -0.8318 -0.0059 -0.3533
  136MOL0     C18246   1.579   7.592   1.571 -0.7218 -0.2780  0.0208
  136MOL0     C18247   1.511   7.630   1.439  0.5880  0.5287 -0.1479
  136MOL0     C18248   1.499   7.527   1.324 -0.5518 -1.3867  0.4160
  136MOL0     O18249   1.392   7.545   1.226 -0.1520 -0.7087  0.6039
  136MOL0     C18250   1.415   7.661   1.142 -0.4158 -0.0440  0.0831
  136MOL0     C18251   1.545   7.724   1.138  0.3096  0.3719 -0.3951
  136MOL0     C18252   1.570   7.833   1.056 -0.9003 -0.1790 -0.8111
  136MOL0     C18253   1.713   7.883   1.046  0.2652  0.4103 -0.0569
  136MOL0     C18254   1.466   7.889   0.971 -0.2963 -0.3218 -0.8311
  136MOL0     C18255   1.475   8.010   0.885  0.3803 -0.2083 -0.7423
  136MOL0     O18256   1.361   8.061   0.821  0.9240  0.6575  0.2709
  136MOL0     C18257   1.377   8.149   0.715 -0.6039  1.1278 -0.5446
  136MOL0     C18258   1.322   8.116   0.583  1.2571  1.0293  0.3178
  136MOL0     C18259   1.334   8.207   0.485 -0.5456 -0.2413  0.0739
  136MOL0     C18260   1.377   8.337   0.501  0.0390 -0.0309 -0.8644
  136MOL0     O18261   1.374   8.440   0.408 -0.0251  0.3083  1.4066
  136MOL0     C18262   1.402   8.405   0.266 -0.5838  0.4772 -0.7677
  136MOL0     C18263   1.285   8.390   0.175  0.1868 -0.4104 -0.3699
  136MOL0     C18264   1.209   8.508   0.139 -0.0419 -0.0987 -0.1877
  136MOL0     C18265   1.078   8.473   0.065  0.5363  0.6906 -0.1471
  136MOL0     C18266   1.001   8.596   0.011  0.0871  0.0622 -1.7565
  136MOL0     C18267   0.971   8.700   0.127  0.4404 -0.0794 -1.2062
  136MOL0     C18268   0.873   8.654   0.238  0.1077  0.2555  0.2605
  136MOL0     C18269   0.799   8.770   0.305 -0.4431  0.4349 -0.3406
  136MOL0    Cl18270   0.732   8.890   0.195  0.0625  0.4212  0.0073
  136MOL0     C18271   1.442   8.359   0.628 -0.4983 -0.4297 -0.8794
  136MOL0     C18272   1.439   8.272   0.734 -0.3659  0.2955 -1.2347
  136MOL0     O18273   1.585   8.066   0.885 -0.5198  0.0194  0.8476
  136MOL0     C18274   1.336   7.838   0.985  0.6675  0.0429 -0.9106
  136MOL0     C18275   1.323   7.720   1.061 -0.0756  1.0235 -0.2121
  136MOL0     N18276   1.733   7.522   1.797  0.2890 -0.1633  0.0897
  136MOL0     N18277   1.813   7.481   1.887  0.0126  0.3054 -0.9051
  136MOL0     C18278   2.977   6.983   1.826  0.6777  0.0946 -0.1933
  136MOL0     C18279   3.101   6.959   1.881 -1.3283  0.1104 -0.5485
  136MOL0     C18280   3.433   6.781   2.150 -0.0944  0.5311  0.5447
  136MOL0     C18281   3.492   6.888   2.237 -0.8616 -0.0600  0.1012
  136MOL0     C18282   3.622   6.871   2.292  0.5591  0.0077  0.4776
  136MOL0     C18283   3.677   6.743   2.276  0.1120 -0.8145 -1.0489
  136MOL0     O18284   3.800   6.719   2.332 -0.1665  0.6693  0.4325
  136MOL0     C18285   3.897   6.816   2.345  0.0126 -0.8053  0.3599
  136MOL0     C18286   4.040   6.753   2.360  0.4598 -0.2961  0.0225
  136MOL0     C18287   4.068   6.672   2.481  0.5787 -0.1217 -1.0384
  136MOL0     C18288   4.157   6.551   2.456  0.2262  0.8603  0.1910
  136MOL0     C18289   4.086   6.450   2.375 -0.8060  0.1688  0.5442
  136MOL0     C18290   4.031   6.375   2.302 -0.2313  0.2421  0.2887
  136MOL0     C18291   3.618   6.642   2.210  0.4482 -0.0483  0.9561
  136MOL0     C18292   3.503   6.655   2.144  0.9403 -0.1676 -0.2521
  136MOL0     H18293   3.001   6.896   2.201 -3.7898 -1.3864  0.1331
  136MOL0     H18294   2.782   6.920   2.098  0.9891 -0.0343  1.0395
  136MOL0     H18295   2.765   7.049   1.665  1.8356  1.4549  3.5054
  136MOL0     H18296   2.735   6.868   1.693 -1.3594 -0.5909  0.1100
  136MOL0     H18297   2.548   6.960   1.593  2.5761  1.5758 -1.4070
  136MOL0     H18298   2.508   6.910   1.762  0.9602 -0.4079  0.2075
  136MOL0     H18299   2.572   7.204   1.731 -1.7036  0.4950  0.7578
  136MOL0     H18300   2.452   7.148   1.624 -0.1795 -2.1360 -1.2252
  136MOL0     H18301   2.347   7.027   1.822  2.0440 -1.3517  3.6825
  136MOL0     H18302   2.457   7.110   1.924  0.6095 -1.3774 -0.9455
  136MOL0     H18303   2.367   7.304   1.924  1.7949  0.2137 -1.1022
  136MOL0     H18304   2.322   7.302   1.750 -1.7568 -1.2856 -0.9448
  136MOL0     H18305   2.152   7.146   1.765  1.1821 -1.0175  0.6325
  136MOL0     H18306   2.161   7.130   1.937  2.1245 -0.4029  0.2602
  136MOL0     H18307   2.122   7.388   1.936 -0.1850  1.1011 -1.1141
  136MOL0     H18308   2.062   7.359   1.768  1.9138 -1.3928 -0.3106
  136MOL0     H18309   1.930   7.308   2.039  2.5656  1.9771 -0.2407
  136MOL0     H18310   1.912   7.179   1.907  1.4052  0.0086 -1.5167
  136MOL0     H18311   1.813   7.226   1.690  2.0846  0.9202 -0.8405
  136MOL0     H18312   1.687   7.417   1.489  0.2034  0.7425  0.0034
  136MOL0     H18313   1.554   7.370   1.586  0.8228 -1.7117  1.8472
  136MOL0     H18314   1.661   7.664   1.583 -2.1257  1.1014  1.9817
  136MOL0     H18315   1.509   7.599   1.654 -1.5904 -1.6963 -0.5414
  136MOL0     H18316   1.564   7.709   1.386 -0.5434 -0.2167 -2.5210
  136MOL0     H18317   1.412   7.671   1.461 -1.2339 -3.9783  1.2221
  136MOL0     H18318   1.473   7.430   1.369  1.2331 -3.3734 -2.4867
  136MOL0     H18319   1.591   7.504   1.270 -1.6133 -1.8304 -1.2827
  136MOL0     H18320   1.631   7.692   1.196  0.3379 -1.6812 -1.4750
  136MOL0     H18321   1.752   7.888   0.944 -0.2685 -0.7873 -0.3342
  136MOL0     H18322   1.732   7.975   1.102  1.5568 -1.5669  3.0991
  136MOL0     H18323   1.781   7.812   1.096  0.8326  1.3200  0.5121
  136MOL0     H18324   1.286   8.018   0.553  1.9094  0.9373 -0.1920
  136MOL0     H18325   1.300   8.172   0.388 -0.3488 -1.0085  0.2787
  136MOL0     H18326   1.469   8.479   0.223  1.6588 -1.6603 -1.1406
  136MOL0     H18327   1.448   8.306   0.261  3.1083  2.1077 -2.4218
  136MOL0     H18328   1.325   8.343   0.085  2.0932 -2.0470  1.2074
  136MOL0     H18329   1.216   8.322   0.227 -0.4219 -0.2043 -0.9032
  136MOL0     H18330   1.267   8.578   0.079  0.2551  0.8219  1.1345
  136MOL0     H18331   1.186   8.557   0.234 -0.6478 -3.1734  1.3882
  136MOL0     H18332   1.098   8.409  -0.021  2.1208 -4.6414  3.6579
  136MOL0     H18333   1.012   8.424   0.137  1.1539 -1.2227 -0.8353
  136MOL0     H18334   0.910   8.568  -0.042 -0.5859  1.7602 -1.5551
  136MOL0     H18335   1.053   8.644  -0.073  4.6797 -0.1109  0.6512
  136MOL0     H18336   1.071   8.728   0.161  0.8089  3.6192 -4.6491
  136MOL0     H18337   0.939   8.780   0.060 -3.2482 -1.9191 -1.8912
  136MOL0     H18338   0.930   8.605   0.318  2.9522  1.9755 -0.5649
  136MOL0     H18339   0.808   8.588   0.180  0.5362  0.3368 -0.3125
  136MOL0     H18340   0.875   8.813   0.370 -1.1745 -1.3714  1.8436
  136MOL0     H18341   0.718   8.736   0.370  0.9859 -0.3762  1.0959
  136MOL0     H18342   1.503   8.449   0.626 -1.4991  0.3067  0.3625
  136MOL0     H18343   1.477   8.306   0.830 -1.3323  2.1107 -1.4500
  136MOL0     H18344   1.253   7.887   0.935 -3.8870 -3.0678  2.7949
  136MOL0     H18345   1.223   7.678   1.071  0.5502 -0.3532  0.6643
  136MOL0     H18346   2.961   7.016   1.724  1.3415 -0.5022 -0.5002
  136MOL0     H18347   3.193   6.972   1.825 -0.8600  1.5652  0.5012
  136MOL0     H18348   3.437   6.981   2.247 -0.1546  0.4729 -0.7798
  136MOL0     H18349   3.684   6.949   2.334  0.9030 -0.4346  0.7935
  136MOL0     H18350   3.905   6.875   2.253  1.2204 -1.6482 -0.0964
  136MOL0     H18351   3.887   6.879   2.434  1.9659 -0.5157  0.4066
  136MOL0     H18352   4.104   6.841   2.354  1.3785 -1.0561 -2.4874
  136MOL0     H18353   4.068   6.688   2.277  1.6567 -0.4323  0.5052
  136MOL0     H18354   3.974   6.637   2.524  0.9035  0.9054  0.6108
  136MOL0     H18355   4.119   6.732   2.556 -0.4973 -2.2789  1.5845
  136MOL0     H18356   4.211   6.508   2.541  1.0105 -1.5551 -1.3978
  136MOL0     H18357   4.243   6.591   2.401  1.7211 -0.7497  1.2351
  136MOL0     H18358   3.987   6.293   2.248 -1.2994  0.6131  0.5743
  136MOL0     H18359   3.662   6.543   2.203  0.9822  0.0636  2.4503
  136MOL0     H18360   3.462   6.573   2.085 -3.4854  0.8042  1.1165
  137MOL0     O18361   0.851   1.018   6.723 -1.0423  0.4455 -0.2982
  137MOL0     C18362   0.912   1.064   6.627 -0.1351  0.4257  0.8495
  137MOL0     O18363   1.047   1.052   6.599  0.8140 -0.6025 -0.7895
  137MOL0     C18364   1.119   0.993   6.700 -0.3682 -0.0291  0.3485
  137MOL0     C18365   1.119   0.855   6.717 -1.0795 -0.0885 -0.1332
  137MOL0     C18366   1.198   0.797   6.822 -0.2823 -0.3877  0.1394
  137MOL0     C18367   1.299   0.876   6.892 -0.3292  0.7762  0.5473
  137MOL0     O18368   1.395   0.812   6.968 -0.2921  0.2503 -0.2481
  137MOL0     C18369   1.464   0.895   7.073  0.3716  0.4643  1.6805
  137MOL0     C18370   1.617   0.905   7.025 -0.4248 -0.0962 -0.8577
  137MOL0     C18371   1.702   0.966   7.136  0.6011  0.1512  0.2067
  137MOL0     C18372   1.675   1.118   7.147 -0.6537  0.4810  0.3860
  137MOL0     C18373   1.789   1.180   7.219  0.3451  0.4789 -0.2644
  137MOL0     C18374   1.756   1.324   7.247  0.4558 -0.2754 -0.4008
  137MOL0     C18375   1.861   1.376   7.356 -0.6361  0.0973 -0.1832
  137MOL0     C18376   2.000   1.408   7.297  0.1692 -0.3516 -0.6385
  137MOL0     N18377   2.090   1.298   7.334  0.3587  0.9057 -0.4200
  137MOL0     C18378   2.127   1.185   7.271  0.1600 -0.5088 -0.2315
  137MOL0     C18379   2.212   1.123   7.358  0.0032 -0.4960 -0.2392
  137MOL0     C18380   2.271   0.983   7.340  0.6403  0.1286  0.3776
  137MOL0     C18381   2.381   0.936   7.433 -0.7132  0.4345 -0.1614
  137MOL0     C18382   2.513   1.013   7.404  0.0101 -0.6375 -0.7808
  137MOL0     C18383   2.636   0.928   7.386 -1.1126  0.8046  0.2831
  137MOL0     O18384   2.660   0.847   7.502 -0.6576  0.1736 -0.4623
  137MOL0     C18385   2.679   0.913   7.623 -0.3381 -0.0029  0.0416
  137MOL0     C18386   2.784   1.007   7.626  0.3311  0.4154 -0.1081
  137MOL0     C18387   2.832   1.061   7.744  0.3839  0.2084  0.8033
  137MOL0     C18388   2.954   1.160   7.728 -0.0099 -0.1266 -1.1932
  137MOL0     C18389   2.765   1.037   7.867 -0.4568  0.5240  0.1907
  137MOL0     C18390   2.798   1.091   7.997 -0.5832 -0.5276 -0.1034
  137MOL0     O18391   2.810   1.005   8.106  0.1183 -0.2466 -0.1547
  137MOL0     C18392   2.839   1.055   8.226  0.1276 -0.1084  0.1514
  137MOL0     C18393   2.946   1.143   8.256  0.4771  0.1100  0.4691
  137MOL0     C18394   2.976   1.164   8.396 -0.7050  0.0375 -0.3168
  137MOL0     C18395   2.892   1.124   8.497 -0.9702 -0.2257 -0.1694
  137MOL0     O18396   2.912   1.165   8.625  0.1393  0.1184 -0.1800
  137MOL0     C18397   2.805   1.220   8.698 -0.0771 -0.5532 -0.8444
  137MOL0     C18398   2.863   1.278   8.827 -0.0306 -0.6189 -0.2741
  137MOL0     C18399   2.761   1.345   8.909  1.0039 -0.4460  0.1584
  137MOL0     C18400   2.826   1.450   9.002  0.2924 -0.4987 -0.5930
  137MOL0     C18401   2.899   1.389   9.124 -0.1364 -0.2502 -0.4766
  137MOL0     C18402   2.919   1.504   9.228 -1.0748  0.5323 -0.0937
  137MOL0     C18403   2.954   1.451   9.369  0.3054 -0.0737  0.2616
  137MOL0     C18404   3.084   1.393   9.391  0.0392  0.8110 -0.2196
  137MOL0    Cl18405   3.068   1.207   9.411 -0.1965 -0.5091  0.2467
  137MOL0     C18406   2.785   1.039   8.466  0.0405 -0.0228  0.8199
  137MOL0     C18407   2.769   0.991   8.330  1.1934  0.1199 -0.5907
  137MOL0     O18408   2.821   1.217   7.996  0.5267 -0.3209 -0.7297
  137MOL0     C18409   2.669   0.937   7.864  0.7582  0.9002 -0.3671
  137MOL0     C18410   2.623   0.884   7.747  0.0995  0.5510  0.7285
  137MOL0     N18411   2.228   1.205   7.469 -0.6440 -0.8207  0.2730
  137MOL0     N18412   2.166   1.309   7.450 -0.0979 -0.1216  0.2054
  137MOL0     C18413   1.303   1.012   6.863  0.5666  0.6253 -0.0302
  137MOL0     C18414   1.211   1.069   6.773 -0.7356 -0.0162  0.4180
  137MOL0     C18415   0.836   1.138   6.528 -0.9659 -0.1594 -0.3976
  137MOL0     C18416   0.730   1.222   6.568  0.9733  0.1697 -1.0051
  137MOL0     C18417   0.672   1.307   6.477  0.1830  0.1072 -0.3480
  137MOL0     C18418   0.717   1.312   6.350 -1.1554  0.7107 -0.5342
  137MOL0     O18419   0.674   1.395   6.252  0.1446  0.3583 -0.0389
  137MOL0     C18420   0.654   1.531   6.292  0.0908  0.8526 -0.1401
  137MOL0     C18421   0.779   1.591   6.346 -0.4633  0.2748  0.4134
  137MOL0     C18422   0.891   1.599   6.232 -0.0862 -0.4823 -0.1056
  137MOL0     C18423   0.973   1.732   6.242  0.2009 -0.3256  0.4399
  137MOL0     C18424   1.068   1.747   6.126  0.3171  0.7424 -0.9402
  137MOL0     C18425   1.130   1.743   6.027 -0.1539  0.3048  0.5076
  137MOL0     C18426   0.817   1.226   6.306 -0.0915  0.1649 -0.6273
  137MOL0     C18427   0.881   1.135   6.394 -0.2154  0.9609 -0.3193
  137MOL0     H18428   1.056   0.791   6.656 -0.9554 -2.0824  1.7013
  137MOL0     H18429   1.198   0.690   6.843  3.3102 -0.3849  0.7012
  137MOL0     H18430   1.412   0.989   7.095 -3.3113 -0.5436 -1.7613
  137MOL0     H18431   1.454   0.837   7.166  0.1914 -2.2379  0.0687
  137MOL0     H18432   1.647   0.801   7.008  2.1968  0.8099 -2.4874
  137MOL0     H18433   1.630   0.961   6.932 -1.4974  1.2886 -0.2019
  137MOL0     H18434   1.680   0.911   7.228 -2.4854 -1.1940 -1.2046
  137MOL0     H18435   1.806   0.949   7.105 -0.5284 -1.7033 -3.0758
  137MOL0     H18436   1.644   1.172   7.057  0.9699  1.1774  0.2105
  137MOL0     H18437   1.591   1.117   7.218 -0.1484 -1.7657  1.0458
  137MOL0     H18438   1.824   1.134   7.312  0.7095 -3.5934 -2.1616
  137MOL0     H18439   1.871   1.188   7.147 -0.9616 -0.0433 -1.8719
  137MOL0     H18440   1.743   1.386   7.158 -2.8051 -1.9455 -1.2741
  137MOL0     H18441   1.654   1.325   7.288 -0.3740  1.3334 -2.3343
  137MOL0     H18442   1.816   1.471   7.387  1.5720  0.5037  2.1054
  137MOL0     H18443   1.877   1.305   7.437  0.9391  1.9781  1.2461
  137MOL0     H18444   2.047   1.486   7.358 -2.0062  0.9703 -0.5398
  137MOL0     H18445   2.010   1.432   7.190  2.2885 -1.8994 -0.8491
  137MOL0     H18446   2.090   1.141   7.179  1.5606 -0.3834 -0.8819
  137MOL0     H18447   2.186   0.917   7.359 -1.0546  1.2305 -2.6422
  137MOL0     H18448   2.304   0.975   7.236  0.0692 -3.6936  0.3277
  137MOL0     H18449   2.408   0.832   7.416  0.9570  0.6576  0.8610
  137MOL0     H18450   2.343   0.951   7.535 -1.4251  1.0977 -0.5162
  137MOL0     H18451   2.517   1.081   7.489 -1.3395 -0.9345 -0.4645
  137MOL0     H18452   2.503   1.073   7.313 -0.3928 -1.0611 -1.0182
  137MOL0     H18453   2.719   0.996   7.364  1.5188 -2.5615 -1.1985
  137MOL0     H18454   2.626   0.853   7.307  1.4821  1.5472 -0.8661
  137MOL0     H18455   2.821   1.047   7.532 -0.4708  3.0958  0.6243
  137MOL0     H18456   3.022   1.142   7.812  2.5749  0.3349 -3.0545
  137MOL0     H18457   3.017   1.154   7.638  0.5834  5.2520 -1.4556
  137MOL0     H18458   2.910   1.259   7.746  0.6670 -0.3124  1.8583
  137MOL0     H18459   3.008   1.174   8.173  1.0539 -1.1569  0.3910
  137MOL0     H18460   3.067   1.216   8.427  0.8882 -0.8184 -3.2039
  137MOL0     H18461   2.765   1.292   8.627  1.6299  1.7030  0.3584
  137MOL0     H18462   2.720   1.154   8.720 -0.8203  0.9332  1.1036
  137MOL0     H18463   2.895   1.192   8.887 -1.1379 -1.3054 -0.6484
  137MOL0     H18464   2.939   1.348   8.790 -1.7625  1.0843 -0.7663
  137MOL0     H18465   2.707   1.271   8.969  1.3696 -0.7928  0.0591
  137MOL0     H18466   2.679   1.392   8.854  0.0221 -0.1709  1.7721
  137MOL0     H18467   2.908   1.499   8.949  1.4087 -0.4271  1.1413
  137MOL0     H18468   2.742   1.516   9.025  0.6658 -0.1503 -0.2376
  137MOL0     H18469   2.995   1.344   9.095  0.0864 -1.6479  2.1338
  137MOL0     H18470   2.842   1.312   9.176  1.1940 -1.2764 -0.4661
  137MOL0     H18471   3.005   1.557   9.186  0.0179  0.0440  1.4257
  137MOL0     H18472   2.840   1.580   9.223 -1.0834  0.6435  1.2795
  137MOL0     H18473   2.880   1.374   9.391 -0.1126  0.4252  0.6478
  137MOL0     H18474   2.925   1.535   9.434 -1.2255  2.8994 -3.8431
  137MOL0     H18475   3.139   1.448   9.467 -1.6542  1.0784  0.8428
  137MOL0     H18476   3.147   1.414   9.303  0.3608 -2.6794 -0.9917
  137MOL0     H18477   2.710   1.000   8.534 -0.6804 -2.9348 -1.4276
  137MOL0     H18478   2.693   0.916   8.311 -1.6802  1.2143  4.6748
  137MOL0     H18479   2.637   0.892   7.958  0.5336 -0.1033 -0.9089
  137MOL0     H18480   2.550   0.805   7.761 -0.4726  0.7440 -0.9827
  137MOL0     H18481   1.375   1.076   6.914  0.3588  1.8994 -1.2704
  137MOL0     H18482   1.215   1.177   6.765 -0.0835 -0.1414 -1.5358
  137MOL0     H18483   0.697   1.220   6.671  1.8815 -0.3772 -0.7057
  137MOL0     H18484   0.587   1.369   6.503 -0.3680 -0.6253 -0.3751
  137MOL0     H18485   0.612   1.587   6.207 -2.0170  2.2747  1.7237
  137MOL0     H18486   0.579   1.536   6.372  1.2181  0.3434  0.9691
  137MOL0     H18487   0.806   1.528   6.431  2.8401  0.6991 -0.1585
  137MOL0     H18488   0.762   1.691   6.387 -1.4083  1.1977 -2.0646
  137MOL0     H18489   0.854   1.586   6.130 -0.8598 -2.8301  0.4148
  137MOL0     H18490   0.959   1.515   6.246  1.7725  1.2689  2.3338
  137MOL0     H18491   1.029   1.728   6.336  1.4733  3.0524 -0.0079
  137MOL0     H18492   0.896   1.810   6.243  2.1405  1.7445 -0.7769
  137MOL0     H18493   1.181   1.727   5.934 -4.0400  2.8770 -2.3747
  137MOL0     H18494   0.850   1.237   6.203  2.7350 -0.6783  0.1183
  137MOL0     H18495   0.958   1.069   6.356 -0.8644 -1.1489  1.7646
  138MOL0     O18496   9.678   0.370   8.980  0.1428  0.4820 -0.8125
  138MOL0     C18497   9.782   0.423   9.029  0.1230 -0.2116 -0.1097
  138MOL0     O18498   9.784   0.533   9.112  0.3516 -0.1218  0.1121
  138MOL0     C18499   9.679   0.610   9.143  1.0315 -1.1025 -0.5464
  138MOL0     C18500   9.558   0.623   9.066 -0.3514  0.9923 -0.6382
  138MOL0     C18501   9.464   0.719   9.103  1.3853 -1.1281  0.6921
  138MOL0     C18502   9.476   0.795   9.220 -0.3045  0.5291 -0.1312
  138MOL0     O18503   9.378   0.886   9.251  0.0036 -0.3700  1.0759
  138MOL0     C18504   9.262   0.826   9.318  0.2647  0.2644  1.3460
  138MOL0     C18505   9.143   0.918   9.349 -0.1318  1.0522  0.3765
  138MOL0     C18506   9.014   0.838   9.391  0.5436 -0.2189  0.3468
  138MOL0     C18507   8.917   0.926   9.464 -0.4207 -0.5172 -0.3987
  138MOL0     C18508   8.949   0.949   9.614  0.3331  0.0854 -0.1966
  138MOL0     C18509   8.845   1.043   9.688  0.3106 -0.5190 -0.3335
  138MOL0     C18510   8.702   1.002   9.656 -0.0066 -0.6474  0.0004
  138MOL0     C18511   8.621   1.059   9.776 -0.3876 -0.2089  0.0877
  138MOL0     N18512   8.490   1.012   9.761  0.6408 -0.1159  0.0401
  138MOL0     C18513   8.379   1.077   9.702 -0.9094 -0.0236 -0.1380
  138MOL0     C18514   8.288   0.981   9.684  0.4376 -0.1539 -0.8109
  138MOL0     C18515   8.160   1.013   9.611 -0.4975 -1.1394 -0.3831
  138MOL0     C18516   8.056   1.076   9.706 -0.8258  0.0044  0.4281
  138MOL0     C18517   7.913   1.051   9.655 -0.2946  0.8124  0.3399
  138MOL0     C18518   7.887   1.085   9.496  0.2520  0.1111 -0.6361
  138MOL0     O18519   7.947   1.208   9.474  0.1623 -0.4754  0.1051
  138MOL0     C18520   7.895   1.324   9.530 -0.0527 -0.3350  0.5342
  138MOL0     C18521   7.983   1.433   9.506  0.5000 -0.1754  0.1917
  138MOL0     C18522   7.947   1.562   9.532 -0.1082 -0.1334 -0.0150
  138MOL0     C18523   8.059   1.659   9.513  0.7008 -0.0654 -0.1639
  138MOL0     C18524   7.817   1.582   9.595 -0.5463  0.1499 -0.7639
  138MOL0     C18525   7.779   1.721   9.635 -0.4033 -0.1919  0.0953
  138MOL0     O18526   7.695   1.724   9.740 -0.5367 -0.6248 -0.3839
  138MOL0     C18527   7.663   1.841   9.805 -0.0592  0.5130  0.3943
  138MOL0     C18528   7.724   1.878   9.922  0.5016 -0.0515 -0.5489
  138MOL0     C18529   7.673   1.990  10.003  0.1568 -0.4416 -0.1942
  138MOL0     C18530   7.551   2.052   9.964 -0.3854 -0.8270  0.6133
  138MOL0     O18531   7.487   2.131  10.055  0.4775 -0.1024 -0.8997
  138MOL0     C18532   7.366   2.081  10.117 -0.2548  0.4570 -0.2723
  138MOL0     C18533   7.288   2.197  10.176 -0.7483 -0.0703  0.6039
  138MOL0     C18534   7.148   2.151  10.229 -0.3318  0.7817  0.1807
  138MOL0     C18535   7.089   2.255  10.321  0.0572  0.2226  0.2971
  138MOL0     C18536   6.964   2.212  10.388  0.6021 -0.1700 -0.1793
  138MOL0     C18537   6.857   2.154  10.294 -0.6531 -1.0174  0.0317
  138MOL0     C18538   6.718   2.191  10.351 -0.0466 -0.5391 -0.0445
  138MOL0     C18539   6.603   2.179  10.257  0.6140  0.4182  0.2372
  138MOL0    Cl18540   6.569   2.014  10.215  0.2253  0.0863  0.0742
  138MOL0     C18541   7.492   2.008   9.837  0.6113 -0.3261 -0.0798
  138MOL0     C18542   7.552   1.909   9.761  0.0164  0.0315 -0.3095
  138MOL0     O18543   7.801   1.810   9.552 -0.5933  0.1682 -0.1359
  138MOL0     C18544   7.739   1.469   9.629 -0.1296 -0.1764 -0.9604
  138MOL0     C18545   7.774   1.336   9.599  0.8749  1.3024  0.0147
  138MOL0     N18546   8.336   0.859   9.726  0.0181 -0.4535  0.6375
  138MOL0     N18547   8.449   0.880   9.776 -0.1593 -0.0761  0.3868
  138MOL0     C18548   9.584   0.777   9.299 -0.2550  0.7856 -0.0621
  138MOL0     C18549   9.692   0.690   9.258  0.3080  0.0924  0.4058
  138MOL0     C18550   9.914   0.355   9.007  0.0434 -0.7280  0.7303
  138MOL0     C18551  10.044   0.414   9.031  0.4455 -0.0424  0.7085
  138MOL0     C18552  10.159   0.360   8.984 -0.6292  0.1615  0.3435
  138MOL0     C18553  10.165   0.238   8.910 -0.9191 -0.5217 -0.1670
  138MOL0     O18554  10.268   0.179   8.854 -0.3373  0.9212 -0.4864
  138MOL0     C18555  10.379   0.269   8.837  1.0193  1.0134 -0.4765
  138MOL0     C18556  10.463   0.235   8.710 -0.9275 -0.7621 -0.0404
  138MOL0     C18557  10.415   0.321   8.595 -0.4785  0.4316  0.3553
  138MOL0     C18558  10.505   0.326   8.458  0.2948  1.2798 -0.0968
  138MOL0     C18559  10.562   0.195   8.427 -0.2697 -0.6785  0.3985
  138MOL0     C18560  10.629   0.094   8.422  0.3173  0.0630 -0.1287
  138MOL0     C18561  10.044   0.171   8.901  0.1797  1.0021 -0.3215
  138MOL0     C18562   9.916   0.228   8.949 -0.1665  0.4286 -0.1338
  138MOL0     H18563   9.535   0.567   8.976 -0.0121  0.7435 -0.5717
  138MOL0     H18564   9.367   0.739   9.059  0.1427  2.3876  4.4065
  138MOL0     H18565   9.217   0.749   9.255  1.7936  0.1862  0.2874
  138MOL0     H18566   9.310   0.789   9.410  1.9601  3.8071  2.0518
  138MOL0     H18567   9.158   0.990   9.430 -1.8613 -2.4499  4.1511
  138MOL0     H18568   9.124   0.976   9.258 -1.2796  2.6223  1.5642
  138MOL0     H18569   8.964   0.793   9.304  1.8392 -0.8888 -0.0819
  138MOL0     H18570   9.048   0.757   9.457  2.8910 -1.0877 -1.7619
  138MOL0     H18571   8.929   1.020   9.411 -0.0726 -1.1425 -1.4523
  138MOL0     H18572   8.815   0.885   9.460  0.2421 -2.4368  1.0150
  138MOL0     H18573   8.949   0.850   9.660 -1.0018  0.7322  1.2680
  138MOL0     H18574   9.052   0.984   9.626  1.0837 -2.0953  0.1697
  138MOL0     H18575   8.872   1.047   9.793  4.6996  1.9419 -1.3178
  138MOL0     H18576   8.847   1.144   9.647 -7.7793  0.8909  1.0307
  138MOL0     H18577   8.665   1.039   9.560 -0.7603 -3.4378 -0.8932
  138MOL0     H18578   8.700   0.893   9.648 -0.5396 -0.5668 -1.2391
  138MOL0     H18579   8.628   1.168   9.766  0.6338 -0.2702  0.0791
  138MOL0     H18580   8.650   1.018   9.874 -0.7888 -0.2324  0.1991
  138MOL0     H18581   8.380   1.180   9.668  1.4322 -0.8496 -3.0891
  138MOL0     H18582   8.186   1.092   9.540 -2.2567  1.0243  1.2031
  138MOL0     H18583   8.122   0.922   9.565  1.8871 -2.7811  0.7055
  138MOL0     H18584   8.076   1.183   9.719 -0.7350  0.0190  0.1746
  138MOL0     H18585   8.083   1.026   9.800  0.9946  2.2577  1.2094
  138MOL0     H18586   7.858   1.119   9.720  0.4118  2.2507 -0.5207
  138MOL0     H18587   7.882   0.948   9.678  1.2376  0.4379  0.8956
  138MOL0     H18588   7.781   1.086   9.471  0.3952 -0.1388 -1.2660
  138MOL0     H18589   7.933   1.005   9.437  0.3127 -0.2733 -0.0717
  138MOL0     H18590   8.080   1.414   9.462  2.5581  1.6700  3.5090
  138MOL0     H18591   8.067   1.703   9.413 -0.8556 -2.6718 -1.5474
  138MOL0     H18592   8.062   1.735   9.592  0.2861  0.3243 -0.5125
  138MOL0     H18593   8.149   1.598   9.528 -0.3102 -1.2783  1.2673
  138MOL0     H18594   7.806   1.823   9.967 -1.3412  0.0727  3.3901
  138MOL0     H18595   7.716   2.017  10.099  0.5027 -0.3667 -0.3690
  138MOL0     H18596   7.307   2.038  10.035  0.1409 -1.4942  0.4118
  138MOL0     H18597   7.387   2.001  10.188  1.4093 -0.5621 -1.8337
  138MOL0     H18598   7.350   2.238  10.256 -2.8277 -0.5511  2.5325
  138MOL0     H18599   7.276   2.274  10.099  0.7276 -0.2351  0.1713
  138MOL0     H18600   7.157   2.068  10.300 -1.0802  0.9781  0.5128
  138MOL0     H18601   7.077   2.127  10.149 -0.7409  2.6543 -0.0641
  138MOL0     H18602   7.172   2.289  10.385  2.9706 -0.7761 -2.6603
  138MOL0     H18603   7.060   2.341  10.261 -1.1866  1.6150  2.7134
  138MOL0     H18604   6.917   2.304  10.424 -4.9215 -1.7738 -2.1776
  138MOL0     H18605   6.984   2.149  10.475 -0.9485 -0.8781 -0.3009
  138MOL0     H18606   6.872   2.182  10.190  0.2805 -1.5073  0.0239
  138MOL0     H18607   6.871   2.046  10.302 -0.2532 -0.8855  1.3963
  138MOL0     H18608   6.726   2.299  10.369 -1.2020 -0.1317 -1.6720
  138MOL0     H18609   6.699   2.143  10.447  1.6110 -2.2425 -0.5123
  138MOL0     H18610   6.635   2.234  10.168 -3.7033  0.8753 -1.2294
  138MOL0     H18611   6.516   2.236  10.292  1.4963  1.2891  1.0955
  138MOL0     H18612   7.405   2.057   9.795  1.1185  0.4947 -0.2037
  138MOL0     H18613   7.509   1.882   9.665 -1.1611  1.2632 -0.1596
  138MOL0     H18614   7.650   1.499   9.684  1.2431  2.9210 -0.2142
  138MOL0     H18615   7.688   1.271   9.607 -0.0380  1.8470 -3.5284
  138MOL0     H18616   9.596   0.840   9.387 -0.5180 -2.0209  2.1431
  138MOL0     H18617   9.790   0.681   9.306  1.1128  3.7635 -0.2562
  138MOL0     H18618  10.046   0.516   9.069  1.6025  0.0739  0.3726
  138MOL0     H18619  10.252   0.409   9.009 -0.1747 -1.8361  3.1131
  138MOL0     H18620  10.361   0.376   8.827 -0.7814  0.7780 -0.2470
  138MOL0     H18621  10.444   0.267   8.925 -0.4712  1.3122  0.6770
  138MOL0     H18622  10.456   0.129   8.685 -1.4512 -1.2117  1.8770
  138MOL0     H18623  10.570   0.249   8.728 -1.4774  0.9283  2.4694
  138MOL0     H18624  10.411   0.427   8.621  0.1716  1.1742 -2.2589
  138MOL0     H18625  10.314   0.278   8.588  0.2883 -2.9079  5.1348
  138MOL0     H18626  10.589   0.395   8.469 -0.2511  1.7946  0.9665
  138MOL0     H18627  10.442   0.348   8.372 -0.2536  0.0327 -0.0466
  138MOL0     H18628  10.676  -0.002   8.416 -0.5199 -0.3134 -0.8841
  138MOL0     H18629  10.046   0.076   8.847 -1.6945  0.6540  0.1539
  138MOL0     H18630   9.830   0.162   8.937  1.9931 -2.0941 -3.7948
  139MOL0     O18631   0.869   2.639   1.976 -0.4204 -0.2799 -0.4010
  139MOL0     C18632   0.908   2.645   1.858  0.3786  0.6062 -0.5380
  139MOL0     O18633   0.850   2.706   1.753 -0.2129  0.2450  0.5677
  139MOL0     C18634   0.728   2.760   1.756  0.3736  0.7889  0.1665
  139MOL0     C18635   0.629   2.672   1.714 -0.1189  0.0780  0.7816
  139MOL0     C18636   0.492   2.708   1.715 -0.6265 -0.4212  0.5637
  139MOL0     C18637   0.458   2.840   1.761 -0.7599 -0.1050 -0.0098
  139MOL0     O18638   0.332   2.887   1.776 -0.1372 -0.2653  0.2237
  139MOL0     C18639   0.230   2.829   1.706  0.0844 -0.4978 -0.0364
  139MOL0     C18640   0.104   2.896   1.762  1.4620 -0.4079  0.3148
  139MOL0     C18641  -0.031   2.843   1.732  1.0491  0.1200 -0.0313
  139MOL0     C18642  -0.077   2.876   1.602 -0.0478  0.6804  0.6641
  139MOL0     C18643  -0.210   2.805   1.570 -0.5490 -0.0724  0.1555
  139MOL0     C18644  -0.195   2.660   1.527  0.0188  0.0283 -0.3682
  139MOL0     C18645  -0.089   2.644   1.412  0.7001  0.4408 -0.1283
  139MOL0     C18646   0.054   2.591   1.447  0.1058  0.1564  1.2994
  139MOL0     N18647   0.141   2.599   1.329 -0.1281  0.0264  0.8490
  139MOL0     C18648   0.129   2.526   1.215  1.4680  0.4082  0.1988
  139MOL0     C18649   0.231   2.559   1.139  0.4634 -0.1574 -0.0002
  139MOL0     C18650   0.252   2.507   0.999  0.5401  0.1760  0.5718
  139MOL0     C18651   0.393   2.504   0.960 -0.6212  0.2715 -0.4671
  139MOL0     C18652   0.480   2.392   1.031 -0.4357 -0.4678 -0.2194
  139MOL0     C18653   0.603   2.360   0.940  0.0986 -0.4077  0.1759
  139MOL0     O18654   0.587   2.262   0.842  0.6797  0.4800  0.1032
  139MOL0     C18655   0.690   2.239   0.756  0.4931  0.5234 -0.7432
  139MOL0     C18656   0.660   2.251   0.621 -0.1864  0.3628 -0.1580
  139MOL0     C18657   0.756   2.220   0.530  0.2327  0.5194 -0.3227
  139MOL0     C18658   0.722   2.248   0.389 -0.1411  0.1432  0.7190
  139MOL0     C18659   0.885   2.168   0.583  0.0025  1.0224  0.0756
  139MOL0     C18660   0.998   2.137   0.480 -0.2272 -0.4377  0.1157
  139MOL0     O18661   1.096   2.055   0.535 -0.4613 -0.5959  0.9296
  139MOL0     C18662   1.194   2.006   0.442  0.3070  0.0265 -1.3739
  139MOL0     C18663   1.154   1.934   0.327 -0.1910  0.7545 -0.0430
  139MOL0     C18664   1.252   1.871   0.249  0.4858  0.3694  0.2087
  139MOL0     C18665   1.383   1.866   0.284  0.4668 -0.6695  0.3229
  139MOL0     O18666   1.481   1.806   0.203 -0.4858 -0.0679 -0.0512
  139MOL0     C18667   1.614   1.790   0.252 -0.9849 -0.3316  0.1741
  139MOL0     C18668   1.701   1.765   0.129 -0.1911 -0.4676 -0.5867
  139MOL0     C18669   1.658   1.643   0.051 -0.2496  0.2080 -0.9493
  139MOL0     C18670   1.785   1.582  -0.021  0.5987  0.2127  0.7410
  139MOL0     C18671   1.754   1.458  -0.116  0.3677 -0.5039 -0.3890
  139MOL0     C18672   1.714   1.339  -0.032  0.7917  0.0009 -0.1549
  139MOL0     C18673   1.694   1.211  -0.115 -0.0742 -0.5700  0.3635
  139MOL0     C18674   1.556   1.206  -0.188 -0.5888 -0.1777 -0.7742
  139MOL0    Cl18675   1.563   1.066  -0.300  0.5141 -0.7287  0.1012
  139MOL0     C18676   1.411   1.923   0.407  1.0996 -0.4392  0.7639
  139MOL0     C18677   1.325   1.995   0.484 -0.5370 -0.4687  0.2833
  139MOL0     O18678   1.015   2.192   0.376  1.0296  0.4701 -0.4169
  139MOL0     C18679   0.913   2.151   0.723  0.3921  0.2663 -0.6875
  139MOL0     C18680   0.807   2.188   0.806 -0.2560  0.5136 -0.6213
  139MOL0     N18681   0.299   2.655   1.216 -0.9039 -0.1801 -0.7615
  139MOL0     N18682   0.245   2.685   1.326  0.1372 -0.1368  0.0717
  139MOL0     C18683   0.566   2.920   1.808  0.8001 -0.2161  0.1471
  139MOL0     C18684   0.701   2.882   1.805  0.6923 -0.3760 -0.1932
  139MOL0     C18685   1.045   2.593   1.835 -0.8115  1.1554 -0.6330
  139MOL0     C18686   1.133   2.657   1.745 -0.7728  0.2616 -0.0694
  139MOL0     C18687   1.271   2.620   1.742 -0.2088 -0.7213  0.4316
  139MOL0     C18688   1.321   2.528   1.824 -0.2583 -0.7982 -0.0636
  139MOL0     O18689   1.455   2.499   1.835 -0.2246  0.3082  0.6729
  139MOL0     C18690   1.515   2.452   1.963 -0.6951 -0.9945  0.2338
  139MOL0     C18691   1.667   2.475   1.960  0.1905  0.3499  0.1637
  139MOL0     C18692   1.719   2.455   2.103  0.1466 -0.5164 -0.3140
  139MOL0     C18693   1.863   2.384   2.104  1.0536  0.8202 -0.4006
  139MOL0     C18694   1.934   2.392   2.230  0.8429  0.0542 -0.5544
  139MOL0     C18695   1.977   2.423   2.335 -0.5651  0.0248 -0.0631
  139MOL0     C18696   1.236   2.456   1.912 -0.9722 -0.5822  0.6124
  139MOL0     C18697   1.108   2.499   1.919  0.0521 -0.7209  0.5489
  139MOL0     H18698   0.648   2.570   1.683 -0.0408  0.2233  0.3515
  139MOL0     H18699   0.426   2.636   1.667 -1.1034  0.6618 -0.4475
  139MOL0     H18700   0.234   2.851   1.599  1.9687 -0.8033 -0.0778
  139MOL0     H18701   0.217   2.721   1.715 -1.1227 -0.2643  1.4212
  139MOL0     H18702   0.111   2.904   1.871 -0.5350  0.5389  0.4182
  139MOL0     H18703   0.090   3.003   1.744 -3.6083 -0.6197  1.5458
  139MOL0     H18704  -0.033   2.735   1.752  3.6731  0.0719  0.2071
  139MOL0     H18705  -0.103   2.871   1.810  2.1951  0.3442  0.9688
  139MOL0     H18706  -0.098   2.983   1.608 -0.3055  0.6629  0.0946
  139MOL0     H18707  -0.002   2.844   1.529 -0.6919  2.1824 -0.7470
  139MOL0     H18708  -0.266   2.800   1.663 -5.1264  2.0036 -2.1770
  139MOL0     H18709  -0.262   2.871   1.499  1.9386  0.4238 -1.3695
  139MOL0     H18710  -0.161   2.603   1.614  1.5304 -0.9008 -1.5049
  139MOL0     H18711  -0.286   2.614   1.486  0.4702 -3.3291  1.9659
  139MOL0     H18712  -0.130   2.582   1.332 -3.4261  1.3413  1.0543
  139MOL0     H18713  -0.076   2.741   1.363 -1.0391  0.7048 -0.1255
  139MOL0     H18714   0.037   2.486   1.472  1.9939 -1.0355 -1.8133
  139MOL0     H18715   0.097   2.652   1.527  0.4319 -0.8776  1.9252
  139MOL0     H18716   0.049   2.454   1.196  0.7562  1.6516 -1.7344
  139MOL0     H18717   0.211   2.406   0.994 -1.9301  1.1515 -0.9696
  139MOL0     H18718   0.189   2.563   0.929  1.0361 -2.1129 -1.8676
  139MOL0     H18719   0.438   2.603   0.957  2.2239 -0.9656 -1.5368
  139MOL0     H18720   0.387   2.468   0.857  2.0467 -1.0623 -0.2407
  139MOL0     H18721   0.430   2.294   1.034  0.7922 -1.0925  1.7558
  139MOL0     H18722   0.504   2.419   1.134  1.0634 -1.9467 -0.1256
  139MOL0     H18723   0.689   2.327   0.999  1.2976  4.2431  1.3887
  139MOL0     H18724   0.630   2.455   0.894 -1.6492 -0.9518 -2.1827
  139MOL0     H18725   0.558   2.272   0.592 -1.1018 -2.6001  0.5911
  139MOL0     H18726   0.774   2.338   0.354 -0.9767 -1.1688 -4.7532
  139MOL0     H18727   0.742   2.172   0.313 -1.4792  0.9469 -0.5036
  139MOL0     H18728   0.615   2.271   0.381 -0.6138 -2.2445 -1.0828
  139MOL0     H18729   1.047   1.931   0.306 -0.4763  1.1276  1.2474
  139MOL0     H18730   1.220   1.834   0.152  0.4412 -0.7271  0.6364
  139MOL0     H18731   1.645   1.875   0.312 -3.2958  1.0996 -0.5027
  139MOL0     H18732   1.612   1.705   0.320 -0.0699  1.2113  2.2069
  139MOL0     H18733   1.686   1.851   0.063 -1.3092 -0.5931 -0.5240
  139MOL0     H18734   1.804   1.757   0.165 -0.5177  1.8550  1.0891
  139MOL0     H18735   1.580   1.678  -0.017 -0.1955  4.4141  0.8387
  139MOL0     H18736   1.616   1.558   0.106 -2.1297  0.6484 -1.6244
  139MOL0     H18737   1.832   1.665  -0.075  1.5586 -0.8028 -0.0156
  139MOL0     H18738   1.860   1.545   0.050 -1.6581 -2.1278  2.0809
  139MOL0     H18739   1.838   1.430  -0.181  0.3735  0.3726 -0.7769
  139MOL0     H18740   1.673   1.488  -0.184  1.2602  1.0030 -0.8439
  139MOL0     H18741   1.793   1.328   0.044 -0.4597  0.2233  1.2096
  139MOL0     H18742   1.622   1.360   0.022  0.9521 -2.5962  1.3151
  139MOL0     H18743   1.694   1.136  -0.036 -0.8853 -0.0398  0.8838
  139MOL0     H18744   1.768   1.191  -0.193  1.7504 -0.9636  2.1205
  139MOL0     H18745   1.536   1.302  -0.235  0.4326  2.1508  3.1024
  139MOL0     H18746   1.481   1.180  -0.112 -0.6392 -3.4615 -1.7971
  139MOL0     H18747   1.508   1.913   0.453  0.5550 -2.0491  1.6457
  139MOL0     H18748   1.344   2.035   0.583  1.2552 -1.8436  0.5546
  139MOL0     H18749   1.009   2.123   0.766  0.5128  2.2413  0.4262
  139MOL0     H18750   0.809   2.168   0.913 -0.5245 -0.1808 -0.7406
  139MOL0     H18751   0.532   3.017   1.844  1.1106 -1.8993  6.1109
  139MOL0     H18752   0.786   2.938   1.843 -1.0752  1.5506  1.2192
  139MOL0     H18753   1.098   2.735   1.679  0.8159  0.2155 -1.0172
  139MOL0     H18754   1.329   2.673   1.668 -5.2524  1.2282 -2.6396
  139MOL0     H18755   1.473   2.511   2.045  1.2900 -2.6723  2.6013
  139MOL0     H18756   1.493   2.346   1.979  0.0127 -1.0277  1.0464
  139MOL0     H18757   1.701   2.573   1.924  3.1350 -1.4874 -2.5988
  139MOL0     H18758   1.717   2.400   1.898 -0.1322  0.5597 -0.3605
  139MOL0     H18759   1.651   2.395   2.164 -0.5190  0.5692  0.0455
  139MOL0     H18760   1.726   2.550   2.158 -1.7527  0.1675 -1.1557
  139MOL0     H18761   1.928   2.423   2.025  3.5398 -0.9310  0.6759
  139MOL0     H18762   1.847   2.278   2.082 -2.7082  0.6893  2.0705
  139MOL0     H18763   2.010   2.457   2.431 -1.2947  2.7502 -0.6845
  139MOL0     H18764   1.273   2.372   1.970  2.8783 -0.0796 -0.7893
  139MOL0     H18765   1.051   2.450   1.998  1.3783 -3.7559 -0.2541
  140MOL0     O18766   1.835   8.476   3.471 -0.2281 -0.0634  0.4393
  140MOL0     C18767   1.812   8.523   3.360  0.2480  0.5274  0.2533
  140MOL0     O18768   1.687   8.555   3.310 -0.0854  0.2325  0.6183
  140MOL0     C18769   1.566   8.555   3.373 -0.2917  0.1060 -0.9561
  140MOL0     C18770   1.448   8.587   3.301  0.6868 -0.3310 -0.4179
  140MOL0     C18771   1.323   8.611   3.367 -0.3414  0.7324  0.1054
  140MOL0     C18772   1.316   8.603   3.501  0.0043  0.8756 -0.4209
  140MOL0     O18773   1.188   8.644   3.553 -0.0685  0.0485  0.6820
  140MOL0     C18774   1.161   8.622   3.695  0.1901  0.5224  1.6261
  140MOL0     C18775   1.210   8.728   3.791  0.1608 -0.1214  0.5136
  140MOL0     C18776   1.174   8.683   3.937  1.4230 -0.0098 -0.2579
  140MOL0     C18777   1.216   8.779   4.050  0.1244  0.0086  0.2069
  140MOL0     C18778   1.213   8.707   4.190 -0.5359  0.1280  0.1650
  140MOL0     C18779   1.079   8.742   4.261 -0.7207  0.5741 -1.1296
  140MOL0     C18780   1.083   8.674   4.404  0.3600  0.6412 -0.0010
  140MOL0     C18781   0.943   8.658   4.467 -0.0139 -0.1361 -0.7712
  140MOL0     N18782   0.952   8.594   4.601 -0.4546 -0.0822 -0.6249
  140MOL0     C18783   0.978   8.462   4.611  0.1786  1.2161  0.1368
  140MOL0     C18784   0.908   8.412   4.716  0.5359 -0.7354  0.4336
  140MOL0     C18785   0.876   8.273   4.752 -0.7740  0.6236 -0.0307
  140MOL0     C18786   0.734   8.231   4.710  0.1030  0.4761 -0.7875
  140MOL0     C18787   0.731   8.202   4.564 -0.1816  0.7111 -0.4752
  140MOL0     C18788   0.591   8.176   4.509  0.7495  0.3926 -1.4229
  140MOL0     O18789   0.558   8.034   4.520 -0.1083  0.5951  0.8298
  140MOL0     C18790   0.499   7.989   4.634 -0.3703 -0.5249  0.3281
  140MOL0     C18791   0.417   8.062   4.724 -0.5287 -0.1705  0.3971
  140MOL0     C18792   0.376   8.010   4.845 -0.7884 -0.5226 -0.4746
  140MOL0     C18793   0.284   8.100   4.916  0.0673 -0.0766 -1.0722
  140MOL0     C18794   0.419   7.884   4.887  0.0219  0.1164 -1.3551
  140MOL0     C18795   0.373   7.808   5.011 -0.4749 -0.4771  0.3271
  140MOL0     O18796   0.406   7.666   5.021  0.5699 -0.4323  0.2480
  140MOL0     C18797   0.332   7.583   5.106  0.0558 -0.1827  0.3103
  140MOL0     C18798   0.401   7.524   5.218 -0.0393  0.5008 -0.3533
  140MOL0     C18799   0.328   7.458   5.318  0.4345 -0.7218  0.3966
  140MOL0     C18800   0.193   7.443   5.318  0.7167  0.3566 -0.0691
  140MOL0     O18801   0.116   7.369   5.410  0.5610 -0.2984 -0.8128
  140MOL0     C18802   0.113   7.419   5.542 -0.1496  0.2242 -0.6285
  140MOL0     C18803   0.207   7.338   5.640 -0.1549 -0.0611  0.9492
  140MOL0     C18804   0.171   7.186   5.641  0.5328  0.5419 -0.7892
  140MOL0     C18805   0.033   7.145   5.683  0.8044 -0.5890  0.5032
  140MOL0     C18806   0.016   7.000   5.703 -0.2670  0.0450  0.3961
  140MOL0     C18807   0.047   6.924   5.569 -1.6376  0.1739 -0.1802
  140MOL0     C18808   0.201   6.865   5.573 -0.3888  0.0810  0.1405
  140MOL0     C18809   0.247   6.807   5.428  0.6880  0.4315 -0.1260
  140MOL0    Cl18810   0.142   6.680   5.380  0.1015  0.0058  0.1332
  140MOL0     C18811   0.125   7.497   5.202 -0.7968  0.1544 -0.1687
  140MOL0     C18812   0.200   7.562   5.102 -0.3606  0.3055 -0.5205
  140MOL0     O18813   0.311   7.872   5.094 -0.3122  0.0016 -0.1901
  140MOL0     C18814   0.507   7.815   4.799 -0.5701  0.7611 -0.9247
  140MOL0     C18815   0.555   7.867   4.683  0.6685 -0.2270  0.9528
  140MOL0     N18816   0.847   8.521   4.781 -0.3185  0.3735 -0.0142
  140MOL0     N18817   0.870   8.616   4.708  0.3065  0.2526  0.6140
  140MOL0     C18818   1.427   8.568   3.579  0.9282  0.7069  0.1012
  140MOL0     C18819   1.552   8.551   3.518  0.4279  1.6267  0.7519
  140MOL0     C18820   1.928   8.549   3.277 -0.3395 -0.7336 -0.1380
  140MOL0     C18821   1.906   8.610   3.149 -0.3046 -0.3592  0.2705
  140MOL0     C18822   2.010   8.652   3.068  0.8685 -0.3034 -0.4580
  140MOL0     C18823   2.142   8.653   3.121 -0.0082  0.5525  0.1201
  140MOL0     O18824   2.253   8.710   3.055 -0.2410  1.0408 -0.5951
  140MOL0     C18825   2.341   8.600   3.013  0.7653  0.0417  0.9556
  140MOL0     C18826   2.481   8.627   3.071 -1.4309 -0.1015  0.4072
  140MOL0     C18827   2.580   8.518   3.037 -0.6790 -0.6343 -0.4060
  140MOL0     C18828   2.707   8.544   3.135 -0.1975 -0.1385  0.5502
  140MOL0     C18829   2.714   8.456   3.251  0.4245 -0.4272  0.0038
  140MOL0     C18830   2.716   8.398   3.360  0.1697  0.0876 -0.5089
  140MOL0     C18831   2.152   8.602   3.251 -0.0616  0.2086 -1.3306
  140MOL0     C18832   2.057   8.540   3.325  0.7200 -0.0210 -0.2492
  140MOL0     H18833   1.467   8.617   3.199 -0.4315 -0.4737 -0.6782
  140MOL0     H18834   1.231   8.641   3.318 -1.1145 -1.8961 -0.1898
  140MOL0     H18835   1.052   8.616   3.697  0.0373  0.4953 -1.5857
  140MOL0     H18836   1.195   8.523   3.729  0.1337 -0.0559  0.0766
  140MOL0     H18837   1.319   8.731   3.781  0.1800 -3.1040 -1.7508
  140MOL0     H18838   1.157   8.817   3.757  0.3929 -1.0218 -2.5512
  140MOL0     H18839   1.066   8.667   3.946  1.0194  2.7802  0.7396
  140MOL0     H18840   1.234   8.593   3.954  3.7920  0.7375 -3.7447
  140MOL0     H18841   1.316   8.816   4.025 -1.3892  3.1901 -1.7387
  140MOL0     H18842   1.145   8.862   4.046  0.9831  0.9029  2.2744
  140MOL0     H18843   1.227   8.603   4.160  0.0083  0.2518 -0.0164
  140MOL0     H18844   1.297   8.737   4.252 -1.1720  1.2316  0.5190
  140MOL0     H18845   1.049   8.848   4.258 -0.1115  0.7339 -1.7974
  140MOL0     H18846   0.996   8.700   4.203  2.5438 -4.2883 -2.8675
  140MOL0     H18847   1.127   8.577   4.380  0.8334  1.0132 -0.6607
  140MOL0     H18848   1.142   8.727   4.479  0.1316 -0.9218  1.3541
  140MOL0     H18849   0.880   8.592   4.406 -1.7924 -0.3275  1.1344
  140MOL0     H18850   0.904   8.759   4.478 -2.7388 -1.3579  4.7097
  140MOL0     H18851   1.045   8.407   4.546  0.9071  2.0665  0.1418
  140MOL0     H18852   0.939   8.208   4.690 -0.7635  0.8982 -0.3125
  140MOL0     H18853   0.904   8.264   4.857  4.5913 -1.2727 -1.2965
  140MOL0     H18854   0.671   8.319   4.725 -0.0649  0.5840 -1.9915
  140MOL0     H18855   0.699   8.151   4.776  2.7213 -0.0194  0.1483
  140MOL0     H18856   0.792   8.115   4.537 -2.3024 -0.3255 -2.2455
  140MOL0     H18857   0.772   8.286   4.506  4.1791  1.5661  3.2535
  140MOL0     H18858   0.590   8.185   4.400 -2.1317  1.7101 -1.3701
  140MOL0     H18859   0.517   8.241   4.557  0.9237 -2.0338  2.6553
  140MOL0     H18860   0.389   8.161   4.689 -1.4941 -0.9140 -1.0426
  140MOL0     H18861   0.273   8.195   4.863  2.8102  1.6833  1.2387
  140MOL0     H18862   0.189   8.046   4.917  1.0039 -1.8328 -2.0509
  140MOL0     H18863   0.324   8.112   5.017  0.2910 -5.2009 -0.2978
  140MOL0     H18864   0.509   7.521   5.211  0.0580  2.9607 -6.5741
  140MOL0     H18865   0.385   7.402   5.392 -0.8227 -0.9303  1.2331
  140MOL0     H18866   0.144   7.524   5.551  3.8362 -0.9807  4.5425
  140MOL0     H18867   0.012   7.414   5.582  1.5042  1.3006  4.6095
  140MOL0     H18868   0.310   7.339   5.602 -0.6296 -1.8911 -0.5379
  140MOL0     H18869   0.188   7.369   5.743 -4.0051 -0.6865  0.5836
  140MOL0     H18870   0.230   7.143   5.722 -0.0022  1.4744  0.1224
  140MOL0     H18871   0.200   7.155   5.540 -1.3828  2.2563 -1.9436
  140MOL0     H18872   0.009   7.199   5.775 -2.8985  0.7934 -1.0819
  140MOL0     H18873  -0.039   7.178   5.607  1.2886 -1.2041 -0.2385
  140MOL0     H18874  -0.089   6.975   5.719 -0.5372 -0.2410 -1.6030
  140MOL0     H18875   0.075   6.957   5.785  1.3054  0.5928 -0.4050
  140MOL0     H18876  -0.015   6.836   5.551 -0.0600 -0.6828 -1.7769
  140MOL0     H18877   0.039   6.994   5.485  0.5475  3.4668  2.1043
  140MOL0     H18878   0.190   6.775   5.634  0.3851  0.0441  0.2260
  140MOL0     H18879   0.280   6.924   5.619 -0.1739 -2.0026  2.6955
  140MOL0     H18880   0.348   6.769   5.449  1.0395  0.8442 -1.0092
  140MOL0     H18881   0.249   6.886   5.353 -0.6219  0.0509 -0.5811
  140MOL0     H18882   0.018   7.489   5.188 -0.5997 -0.1478 -1.6406
  140MOL0     H18883   0.144   7.603   5.019 -1.1626 -0.1997 -0.2461
  140MOL0     H18884   0.557   7.723   4.827 -1.9023  0.4444  0.5404
  140MOL0     H18885   0.615   7.816   4.608 -0.6042 -0.0180 -0.2524
  140MOL0     H18886   1.407   8.563   3.686  1.6659 -0.6801  0.2015
  140MOL0     H18887   1.625   8.509   3.586  1.4323 -3.0673 -2.6837
  140MOL0     H18888   1.804   8.624   3.116 -0.8208  0.5943  2.1019
  140MOL0     H18889   1.984   8.688   2.968 -1.2944 -3.9194 -1.4248
  140MOL0     H18890   2.298   8.504   3.042  0.4098  0.0928  0.6016
  140MOL0     H18891   2.339   8.618   2.905 -2.2637  2.6351  1.3326
  140MOL0     H18892   2.478   8.640   3.179  1.1455  1.9201  0.3436
  140MOL0     H18893   2.513   8.722   3.027 -0.8536  0.4604  1.9952
  140MOL0     H18894   2.619   8.516   2.934 -2.9221 -2.1361 -1.2990
  140MOL0     H18895   2.544   8.419   3.067  1.0904 -0.6017  2.1302
  140MOL0     H18896   2.710   8.643   3.182  3.1542  0.7993 -1.2362
  140MOL0     H18897   2.801   8.546   3.078 -0.1941 -1.6396  0.4635
  140MOL0     H18898   2.716   8.324   3.437  1.0261  2.7154  2.2018
  140MOL0     H18899   2.254   8.602   3.287 -0.6798 -0.8951  0.5728
  140MOL0     H18900   2.079   8.491   3.419  0.1727  0.0315 -0.0905
  141MOL0     O18901   1.247  10.056   1.833 -0.0467  0.4893 -0.9740
  141MOL0     C18902   1.373  10.055   1.822  0.4307  0.0910 -0.9231
  141MOL0     O18903   1.462  10.091   1.916 -0.1008  0.2045  0.5237
  141MOL0     C18904   1.429  10.144   2.032  0.3420  0.0087 -0.0306
  141MOL0     C18905   1.458  10.283   2.049 -0.0683  0.3117 -0.0003
  141MOL0     C18906   1.435  10.334   2.179 -0.0674 -0.6334 -0.8889
  141MOL0     C18907   1.382  10.260   2.285 -0.1726  0.1269 -0.0785
  141MOL0     O18908   1.359  10.292   2.411  0.2194  0.0002  0.2214
  141MOL0     C18909   1.411  10.417   2.460  0.5303 -0.0974  0.4777
  141MOL0     C18910   1.396  10.411   2.613 -0.9834 -0.0208  0.5851
  141MOL0     C18911   1.249  10.408   2.657  0.6572  0.6044  0.3978
  141MOL0     C18912   1.215  10.334   2.777 -1.1369 -0.4850  0.1549
  141MOL0     C18913   1.235  10.410   2.911 -0.3984 -0.0318  1.0320
  141MOL0     C18914   1.198  10.340   3.040 -0.1094 -0.2630 -0.1312
  141MOL0     C18915   1.301  10.232   3.090 -0.0741  0.1635  0.8538
  141MOL0     C18916   1.243  10.150   3.198 -0.3333  0.3394  0.6906
  141MOL0     N18917   1.341  10.093   3.288 -0.4276 -0.2609  0.0583
  141MOL0     C18918   1.378  10.151   3.410 -0.3072  0.0820 -0.8765
  141MOL0     C18919   1.463  10.057   3.466  0.7526  0.2645  0.7531
  141MOL0     C18920   1.548  10.060   3.583 -0.4781 -0.7497  0.1474
  141MOL0     C18921   1.536  10.193   3.636 -0.7759 -0.1941  0.2638
  141MOL0     C18922   1.615  10.201   3.763  0.1635  0.6241 -1.2402
  141MOL0     C18923   1.638  10.339   3.815 -0.4741 -0.0735 -0.3330
  141MOL0     O18924   1.517  10.413   3.820 -0.1562 -0.1412 -0.3348
  141MOL0     C18925   1.420  10.390   3.910 -0.3339  0.1849 -0.0360
  141MOL0     C18926   1.299  10.448   3.882  0.1649  0.6058 -0.1520
  141MOL0     C18927   1.176  10.430   3.954 -0.0086 -0.6870  0.3020
  141MOL0     C18928   1.052  10.503   3.914  0.5978 -0.1848 -0.0607
  141MOL0     C18929   1.186  10.331   4.058  1.1213 -0.2258 -0.6449
  141MOL0     C18930   1.068  10.297   4.127 -0.2456 -0.0949  0.4263
  141MOL0     O18931   1.042  10.366   4.245 -1.1952 -0.6021  0.0095
  141MOL0     C18932   0.924  10.350   4.309 -0.3811  0.0890 -0.0295
  141MOL0     C18933   0.840  10.460   4.327  1.2439  0.4341 -0.4967
  141MOL0     C18934   0.745  10.454   4.428 -0.7533  0.8451 -0.4683
  141MOL0     C18935   0.722  10.349   4.514  0.1491  0.2138 -0.1027
  141MOL0     O18936   0.633  10.345   4.611  0.6750  0.1275  0.5589
  141MOL0     C18937   0.538  10.243   4.584 -0.6793  0.1132  0.1433
  141MOL0     C18938   0.395  10.300   4.602  0.5781  0.1873 -0.0303
  141MOL0     C18939   0.355  10.377   4.736 -0.6291 -0.5507  1.0075
  141MOL0     C18940   0.279  10.281   4.830 -0.0764  0.2357  0.0802
  141MOL0     C18941   0.267  10.323   4.979 -0.2153 -0.4200 -0.4254
  141MOL0     C18942   0.167  10.446   4.979  0.0216 -0.1295 -0.4145
  141MOL0     C18943   0.237  10.583   4.944 -0.6054  0.6972 -0.4514
  141MOL0     C18944   0.162  10.660   4.830 -0.0829  0.1029 -0.2226
  141MOL0    Cl18945   0.258  10.797   4.756  0.3309 -0.0001 -0.1167
  141MOL0     C18946   0.807  10.238   4.493 -0.3843 -1.3428 -0.3370
  141MOL0     C18947   0.901  10.239   4.390  0.2834  1.0882  0.2867
  141MOL0     O18948   0.989  10.215   4.073 -0.1524 -0.1372  0.0404
  141MOL0     C18949   1.309  10.275   4.091 -0.0543 -0.4892 -0.5054
  141MOL0     C18950   1.424  10.304   4.022  0.2319 -0.8747 -0.4516
  141MOL0     N18951   1.475   9.941   3.380 -0.1909  0.3355  1.1685
  141MOL0     N18952   1.403   9.976   3.283  0.2598 -0.1155  0.7523
  141MOL0     C18953   1.338  10.129   2.256  0.3991  0.2168  0.3867
  141MOL0     C18954   1.368  10.065   2.129 -0.5944 -0.0262 -0.4415
  141MOL0     C18955   1.441  10.032   1.689  0.1495  0.0249 -0.5942
  141MOL0     C18956   1.567   9.976   1.687  0.0747  1.1197  0.8394
  141MOL0     C18957   1.632   9.958   1.556  0.0575 -0.2895 -1.0091
  141MOL0     C18958   1.566   9.977   1.440 -0.0244 -0.8203 -0.2949
  141MOL0     O18959   1.630   9.927   1.328  0.3775 -0.3731 -0.5185
  141MOL0     C18960   1.542   9.879   1.224 -1.6131  0.7359 -0.1262
  141MOL0     C18961   1.603   9.744   1.198 -0.2550 -0.3489  0.0470
  141MOL0     C18962   1.584   9.643   1.322  0.2148 -0.1378 -0.3383
  141MOL0     C18963   1.676   9.521   1.300 -0.8795 -0.1488  0.3169
  141MOL0     C18964   1.628   9.431   1.192  0.1013 -0.3156 -0.6627
  141MOL0     C18965   1.606   9.343   1.115  0.0760 -0.4303  1.0164
  141MOL0     C18966   1.440  10.037   1.450 -2.0765  0.4390  0.0431
  141MOL0     C18967   1.382  10.065   1.574 -0.4286  0.1078  0.8447
  141MOL0     H18968   1.498  10.344   1.969  0.2786 -0.2481 -0.2617
  141MOL0     H18969   1.476  10.433   2.199  0.6351 -1.0481 -0.2123
  141MOL0     H18970   1.516  10.431   2.436  0.6553 -1.9101 -0.1612
  141MOL0     H18971   1.340  10.497   2.432  0.5984  1.2063  3.5822
  141MOL0     H18972   1.441  10.316   2.644 -2.1953 -0.4719  1.0303
  141MOL0     H18973   1.452  10.496   2.655 -0.6528  1.4133 -2.4995
  141MOL0     H18974   1.222  10.513   2.673  4.5099  1.7510  0.3860
  141MOL0     H18975   1.188  10.368   2.575  2.1117 -3.3245  1.0174
  141MOL0     H18976   1.108  10.317   2.768 -0.7911 -2.2272 -1.3189
  141MOL0     H18977   1.275  10.243   2.781 -0.5973 -0.2982 -2.1456
  141MOL0     H18978   1.339  10.438   2.931 -0.3687 -1.3697  2.9409
  141MOL0     H18979   1.177  10.502   2.900  0.4493  0.2921 -1.3807
  141MOL0     H18980   1.175  10.405   3.126 -1.8834 -0.2003 -0.6158
  141MOL0     H18981   1.105  10.286   3.021 -0.8146  1.0900 -0.6766
  141MOL0     H18982   1.315  10.168   3.003  1.9292  0.0867  1.1835
  141MOL0     H18983   1.393  10.279   3.127 -0.5988  3.7536 -1.7818
  141MOL0     H18984   1.191  10.065   3.152  0.5551  1.3172 -2.4201
  141MOL0     H18985   1.175  10.217   3.251 -1.0984  0.2623 -0.1630
  141MOL0     H18986   1.329  10.238   3.453  2.9619  1.1789  1.0774
  141MOL0     H18987   1.506   9.997   3.662 -1.5617 -0.2743 -0.0354
  141MOL0     H18988   1.652  10.044   3.553 -0.1208  3.7259 -1.7721
  141MOL0     H18989   1.432  10.210   3.664 -0.0022  3.1424  1.5282
  141MOL0     H18990   1.562  10.268   3.561  0.2222 -0.8914 -0.1104
  141MOL0     H18991   1.714  10.154   3.764  1.5784  3.3823 -0.0793
  141MOL0     H18992   1.557  10.152   3.841 -0.2328  3.1273  0.1352
  141MOL0     H18993   1.708  10.401   3.757 -1.0006 -0.0337 -0.9381
  141MOL0     H18994   1.676  10.337   3.917 -0.7960 -4.0663 -0.1596
  141MOL0     H18995   1.293  10.502   3.787 -1.5657  1.3021  0.3106
  141MOL0     H18996   1.063  10.588   3.846 -1.2075  0.0969 -0.0411
  141MOL0     H18997   0.991  10.436   3.852  1.5343  0.9045 -2.2709
  141MOL0     H18998   0.995  10.540   4.000  2.9598  0.5045  1.3165
  141MOL0     H18999   0.869  10.549   4.272  2.5727  0.5614  0.3526
  141MOL0     H19000   0.689  10.545   4.443  2.2098  2.6127  0.6804
  141MOL0     H19001   0.547  10.202   4.483  3.4554  0.9063  0.0005
  141MOL0     H19002   0.536  10.170   4.665 -1.0620  1.5813  1.5215
  141MOL0     H19003   0.393  10.368   4.516 -1.0184 -0.1097 -0.2749
  141MOL0     H19004   0.329  10.220   4.566  2.0864 -1.1658  0.1337
  141MOL0     H19005   0.286  10.452   4.698 -0.5124 -0.0073  1.8367
  141MOL0     H19006   0.444  10.417   4.786 -0.2669  0.3978 -0.3453
  141MOL0     H19007   0.184  10.250   4.785  0.3534 -0.6225 -0.2698
  141MOL0     H19008   0.339  10.190   4.842  2.8688  2.2345  1.5389
  141MOL0     H19009   0.367  10.347   5.016 -1.3127  2.5367  0.9626
  141MOL0     H19010   0.233  10.234   5.034  1.7079 -0.8411  0.1824
  141MOL0     H19011   0.089  10.438   4.904  1.0197  1.6434 -1.7248
  141MOL0     H19012   0.129  10.465   5.080  2.3556 -1.9795  0.9177
  141MOL0     H19013   0.341  10.558   4.919 -0.7751  0.1946 -0.6687
  141MOL0     H19014   0.256  10.638   5.037  0.0608  0.3463 -0.3764
  141MOL0     H19015   0.073  10.699   4.882 -2.7910 -1.4091 -3.3914
  141MOL0     H19016   0.130  10.589   4.754  0.8603 -1.2362  0.5992
  141MOL0     H19017   0.797  10.150   4.557 -1.6713 -1.2564 -0.3925
  141MOL0     H19018   0.965  10.151   4.380 -1.3048 -0.1244  0.4192
  141MOL0     H19019   1.335  10.211   4.175  1.4679  0.1458 -0.4656
  141MOL0     H19020   1.522  10.277   4.061  1.7050  2.4605 -1.4035
  141MOL0     H19021   1.304  10.066   2.338 -1.9791  3.1556  1.8532
  141MOL0     H19022   1.346   9.961   2.109  2.9180 -0.6046 -1.9956
  141MOL0     H19023   1.624   9.938   1.771  1.7566 -4.1095 -2.2474
  141MOL0     H19024   1.735   9.926   1.549 -0.3670 -1.8293 -0.6931
  141MOL0     H19025   1.438   9.860   1.253 -1.4895 -0.9580 -0.6568
  141MOL0     H19026   1.549   9.939   1.133 -1.6186  1.0425  0.0735
  141MOL0     H19027   1.711   9.760   1.187 -0.2484 -1.2159 -1.6218
  141MOL0     H19028   1.563   9.693   1.110  0.5720 -0.7315 -0.1200
  141MOL0     H19029   1.481   9.606   1.325 -0.1758  0.6841 -2.0487
  141MOL0     H19030   1.615   9.698   1.410 -1.1853  1.7506 -0.9590
  141MOL0     H19031   1.674   9.466   1.395  1.6172 -0.7207  0.1272
  141MOL0     H19032   1.780   9.551   1.280 -1.0417  0.0289 -0.2662
  141MOL0     H19033   1.600   9.256   1.053 -1.9805  0.6223 -0.3912
  141MOL0     H19034   1.366  10.061   1.374 -0.2890 -0.4941 -2.1177
  141MOL0     H19035   1.280  10.101   1.561 -0.3204 -0.5298 -3.4216
  142MOL0     O19036   2.122   2.585   1.733  0.1814 -0.0456 -0.1117
  142MOL0     C19037   2.100   2.599   1.614 -0.1197 -0.6520 -0.4021
  142MOL0     O19038   1.999   2.542   1.541 -0.6549 -0.1653 -0.3140
  142MOL0     C19039   1.923   2.442   1.587  0.4537  0.0846  1.0667
  142MOL0     C19040   1.930   2.356   1.696 -0.1552  0.4234  0.1218
  142MOL0     C19041   1.840   2.252   1.721  0.1339  0.0367  0.2412
  142MOL0     C19042   1.730   2.229   1.638  0.1460  0.5243  0.3754
  142MOL0     O19043   1.647   2.117   1.651 -0.5493 -0.4319  0.0590
  142MOL0     C19044   1.533   2.146   1.736 -0.1968 -0.2764  0.6856
  142MOL0     C19045   1.430   2.039   1.707 -1.2261 -0.1156  0.9165
  142MOL0     C19046   1.303   2.060   1.770  0.3146  0.5991  0.3742
  142MOL0     C19047   1.296   2.016   1.917 -0.6698  0.4678  0.7027
  142MOL0     C19048   1.151   2.028   1.979 -0.5649 -0.9531 -0.6777
  142MOL0     C19049   1.149   2.037   2.138 -0.0722  1.0645  0.3236
  142MOL0     C19050   1.196   1.897   2.191 -0.2233  0.4917  0.3930
  142MOL0     C19051   1.281   1.907   2.317  0.9367 -0.3535  0.0547
  142MOL0     N19052   1.274   1.778   2.380 -0.3286  0.3143 -0.3951
  142MOL0     C19053   1.363   1.677   2.367 -0.1431 -0.5782  0.3156
  142MOL0     C19054   1.331   1.582   2.451 -0.1938 -0.2183 -0.6000
  142MOL0     C19055   1.393   1.448   2.482 -1.2890 -0.9194 -0.4787
  142MOL0     C19056   1.391   1.421   2.634 -0.7447  0.1199 -0.5996
  142MOL0     C19057   1.492   1.508   2.706  0.2583  0.3305 -0.6142
  142MOL0     C19058   1.508   1.466   2.853  0.7233 -0.0849 -0.3444
  142MOL0     O19059   1.605   1.554   2.927  0.1043 -0.4787 -0.7342
  142MOL0     C19060   1.610   1.547   3.064 -0.4692  0.4761  1.0156
  142MOL0     C19061   1.573   1.431   3.138  0.0552 -0.4068 -0.4555
  142MOL0     C19062   1.591   1.422   3.280  0.5599 -0.9141  1.1922
  142MOL0     C19063   1.561   1.288   3.342  0.3330  0.5485 -0.4878
  142MOL0     C19064   1.630   1.537   3.345  0.1293  0.7408 -0.0765
  142MOL0     C19065   1.628   1.542   3.500 -0.5199 -0.9675 -0.2477
  142MOL0     O19066   1.668   1.659   3.553  0.0529 -0.1731  0.2679
  142MOL0     C19067   1.666   1.666   3.688  0.4186  0.3492  0.4199
  142MOL0     C19068   1.774   1.617   3.759  0.4949 -0.2486 -0.4553
  142MOL0     C19069   1.751   1.613   3.900 -0.5486 -0.4901  0.4369
  142MOL0     C19070   1.645   1.660   3.971  0.1447 -1.0036  0.3156
  142MOL0     O19071   1.640   1.666   4.106  0.4925  0.3115 -1.0130
  142MOL0     C19072   1.750   1.647   4.187 -0.7827  0.1360 -0.2098
  142MOL0     C19073   1.732   1.701   4.330  0.3347 -0.2146 -0.0006
  142MOL0     C19074   1.847   1.673   4.429  0.1164  0.4645  0.0307
  142MOL0     C19075   1.811   1.708   4.562  0.1022  0.2673 -0.1341
  142MOL0     C19076   1.937   1.687   4.657 -0.3942 -0.3679 -0.0900
  142MOL0     C19077   1.908   1.717   4.803 -0.4447  0.3176  0.0043
  142MOL0     C19078   1.909   1.873   4.829 -0.1527  0.1724  0.6069
  142MOL0     C19079   2.007   1.906   4.948  0.1171 -0.4332 -0.5723
  142MOL0    Cl19080   1.938   1.853   5.103  0.0042  0.0484 -0.2452
  142MOL0     C19081   1.546   1.719   3.893  0.4513 -0.9132 -0.6570
  142MOL0     C19082   1.551   1.725   3.754 -0.0932  0.0110 -0.1946
  142MOL0     O19083   1.583   1.453   3.569 -0.5841 -0.7833  0.0534
  142MOL0     C19084   1.645   1.658   3.281 -0.1442  0.7375  0.5523
  142MOL0     C19085   1.653   1.656   3.137 -0.1512  0.0053 -0.0904
  142MOL0     N19086   1.225   1.630   2.531 -0.0813 -0.0369 -0.8960
  142MOL0     N19087   1.182   1.746   2.480  0.2583 -0.3888  0.0036
  142MOL0     C19088   1.725   2.307   1.518 -0.3395  0.0394  0.3137
  142MOL0     C19089   1.812   2.410   1.493 -0.3885  0.6363 -0.2582
  142MOL0     C19090   2.181   2.699   1.534 -0.5925  0.0415  0.3965
  142MOL0     C19091   2.140   2.731   1.407  0.1067 -0.9351  0.3315
  142MOL0     C19092   2.210   2.807   1.318  0.0527 -0.5197 -0.6231
  142MOL0     C19093   2.322   2.873   1.367  0.1300  0.4104 -0.1495
  142MOL0     O19094   2.397   2.941   1.276  0.4124  0.3909  0.0863
  142MOL0     C19095   2.511   3.021   1.315  0.6186  0.8513  0.0336
  142MOL0     C19096   2.500   3.166   1.358 -0.0089  0.0906 -0.0345
  142MOL0     C19097   2.542   3.283   1.263  0.5740  0.8041 -1.0212
  142MOL0     C19098   2.471   3.405   1.325 -1.2019 -1.1550  1.2364
  142MOL0     C19099   2.526   3.447   1.454  0.0425 -0.2268  0.3724
  142MOL0     C19100   2.595   3.462   1.548 -1.0087  0.2971  0.7075
  142MOL0     C19101   2.369   2.853   1.497 -0.2266 -0.3455 -0.2633
  142MOL0     C19102   2.287   2.773   1.583 -0.1296  0.1531 -0.4359
  142MOL0     H19103   2.012   2.360   1.767  1.1663  2.0527 -1.4113
  142MOL0     H19104   1.840   2.196   1.814 -0.8606 -1.7025 -0.7489
  142MOL0     H19105   1.562   2.137   1.841  2.0806 -0.9489  0.0642
  142MOL0     H19106   1.491   2.247   1.731 -1.5391 -0.6637  2.9182
  142MOL0     H19107   1.397   2.049   1.603  2.6387  1.3221 -0.3470
  142MOL0     H19108   1.475   1.940   1.718 -2.3146 -0.4613  2.7286
  142MOL0     H19109   1.262   2.160   1.759 -2.4387 -0.3930  0.7068
  142MOL0     H19110   1.224   2.003   1.719 -3.1555  2.3842  3.2499
  142MOL0     H19111   1.341   1.917   1.921  1.1857  1.2693  0.5333
  142MOL0     H19112   1.367   2.086   1.962 -1.1625  1.3246  0.1908
  142MOL0     H19113   1.093   2.113   1.942  0.2405 -1.3139 -2.9374
  142MOL0     H19114   1.080   1.951   1.944 -2.9606  0.8491 -0.0681
  142MOL0     H19115   1.211   2.119   2.175 -0.2495  2.8638 -2.9574
  142MOL0     H19116   1.042   2.051   2.160 -1.1643 -2.9010 -1.5298
  142MOL0     H19117   1.102   1.858   2.231 -0.2332 -0.2641 -0.3470
  142MOL0     H19118   1.236   1.829   2.116  0.0840  1.0590  0.0341
  142MOL0     H19119   1.243   1.986   2.383  0.0147 -1.3162  0.6907
  142MOL0     H19120   1.384   1.941   2.303  1.2253 -0.8971  0.7957
  142MOL0     H19121   1.438   1.681   2.289 -3.1833  0.1930 -2.8425
  142MOL0     H19122   1.340   1.374   2.421 -1.8612  0.5969 -1.8895
  142MOL0     H19123   1.496   1.463   2.448  0.0485 -0.7094  3.2372
  142MOL0     H19124   1.411   1.314   2.642 -0.2743  0.2534  0.1179
  142MOL0     H19125   1.304   1.429   2.699 -1.0627  0.8074 -1.0990
  142MOL0     H19126   1.466   1.614   2.699  2.0067  0.8476  0.3051
  142MOL0     H19127   1.594   1.503   2.666  1.2616 -1.4754  1.9307
  142MOL0     H19128   1.529   1.360   2.867 -3.5619 -1.1335 -0.5959
  142MOL0     H19129   1.416   1.465   2.912  1.5222 -5.7390  1.3906
  142MOL0     H19130   1.525   1.351   3.083 -3.1341  0.2259  1.1477
  142MOL0     H19131   1.465   1.286   3.394 -1.2638  1.4903 -3.2280
  142MOL0     H19132   1.551   1.203   3.274 -5.6629  0.5387 -0.1209
  142MOL0     H19133   1.643   1.263   3.410 -1.3132 -3.2051  0.3280
  142MOL0     H19134   1.863   1.576   3.712  0.2332 -1.0542 -0.2691
  142MOL0     H19135   1.829   1.557   3.949 -1.6197 -1.9667  0.5326
  142MOL0     H19136   1.768   1.539   4.190 -0.1250 -0.0705 -4.6618
  142MOL0     H19137   1.844   1.683   4.145  1.3998 -1.7055  2.7256
  142MOL0     H19138   1.713   1.808   4.321  0.8565 -0.1651 -0.5803
  142MOL0     H19139   1.638   1.657   4.365  0.7221 -2.1573 -1.2326
  142MOL0     H19140   1.932   1.741   4.413 -1.7058  2.9124  0.1105
  142MOL0     H19141   1.885   1.573   4.407  2.6613  2.1572 -4.5680
  142MOL0     H19142   1.764   1.806   4.565 -0.9691 -0.2288 -0.1699
  142MOL0     H19143   1.734   1.633   4.582 -0.6521  1.2858  0.8994
  142MOL0     H19144   2.021   1.743   4.617 -1.7452 -0.1672 -2.9079
  142MOL0     H19145   1.967   1.583   4.643  3.2006  0.7305 -1.7461
  142MOL0     H19146   1.814   1.666   4.823 -0.7698  0.7086 -0.5050
  142MOL0     H19147   1.987   1.674   4.865  1.8359  3.0269 -0.8086
  142MOL0     H19148   1.806   1.909   4.827 -1.0700 -2.2441 -2.2111
  142MOL0     H19149   1.954   1.928   4.746  1.9802  3.0901  3.4227
  142MOL0     H19150   2.024   2.014   4.947 -1.1420 -0.2171 -1.4605
  142MOL0     H19151   2.105   1.860   4.929  0.3521 -0.0594 -0.2769
  142MOL0     H19152   1.459   1.757   3.945  0.2729 -0.3980 -1.3240
  142MOL0     H19153   1.465   1.773   3.708  0.1267 -0.8201 -1.5295
  142MOL0     H19154   1.680   1.754   3.316  1.5907  2.1329 -4.1509
  142MOL0     H19155   1.683   1.752   3.097  1.5622  0.0843  1.2792
  142MOL0     H19156   1.659   2.292   1.433 -0.9145  1.0161  0.5657
  142MOL0     H19157   1.801   2.465   1.399 -4.0900 -2.3329 -1.8109
  142MOL0     H19158   2.049   2.684   1.370  0.5245 -0.8901 -0.7807
  142MOL0     H19159   2.185   2.811   1.213  0.9270  1.3232 -0.7938
  142MOL0     H19160   2.567   2.968   1.392 -3.9740 -0.6669  2.7051
  142MOL0     H19161   2.574   3.031   1.226 -2.7519 -1.3623 -2.8376
  142MOL0     H19162   2.561   3.180   1.448  2.8477  1.9992 -2.1094
  142MOL0     H19163   2.395   3.177   1.386 -0.7074 -0.7550 -2.1796
  142MOL0     H19164   2.499   3.269   1.163 -1.6756 -2.0236  0.1850
  142MOL0     H19165   2.651   3.291   1.258  0.8506 -1.4069  0.1102
  142MOL0     H19166   2.362   3.400   1.332 -1.5698  1.0319 -1.3719
  142MOL0     H19167   2.492   3.477   1.246  1.3347 -2.5033  0.5576
  142MOL0     H19168   2.652   3.506   1.628 -0.7335  0.3051  0.5082
  142MOL0     H19169   2.461   2.899   1.534 -0.3757  1.1220 -1.6157
  142MOL0     H19170   2.309   2.760   1.689 -1.7056  0.1849 -0.0862
  143MOL0     O19171   0.558  10.666  10.276 -0.7318 -0.3762  0.5006
  143MOL0     C19172   0.527  10.780  10.245 -0.6795  0.4443  0.7970
  143MOL0     O19173   0.521  10.875  10.336 -0.0985  0.1650 -0.8262
  143MOL0     C19174   0.553  10.844  10.469 -0.3477 -0.3028  0.1816
  143MOL0     C19175   0.678  10.878  10.497 -0.8101 -0.0988 -0.8592
  143MOL0     C19176   0.722  10.866  10.630  0.2529  0.5632 -0.2587
  143MOL0     C19177   0.634  10.813  10.729 -0.8652 -0.1308  0.2107
  143MOL0     O19178   0.695  10.786  10.851 -0.6506 -1.2232 -0.1096
  143MOL0     C19179   0.661  10.672  10.932  0.9480 -0.4369  0.6374
  143MOL0     C19180   0.782  10.606  10.984 -0.1165  0.1889  0.3490
  143MOL0     C19181   0.733  10.483  11.068  0.0979 -0.1395  0.0779
  143MOL0     C19182   0.857  10.389  11.106 -0.3631  0.0171 -0.9122
  143MOL0     C19183   0.901  10.311  10.984  0.1330 -0.9906 -0.1808
  143MOL0     C19184   0.968  10.183  11.026 -0.2117  0.6226 -0.0237
  143MOL0     C19185   1.040  10.131  10.895 -0.7110  0.6449  0.2929
  143MOL0     C19186   1.097   9.994  10.914  0.4083  0.4589  0.8941
  143MOL0     N19187   1.187   9.963  10.798  0.4071 -0.4558 -0.4354
  143MOL0     C19188   1.144   9.944  10.669  0.2014 -0.5044  1.0131
  143MOL0     C19189   1.259   9.947  10.592 -0.1262 -0.3776  0.7077
  143MOL0     C19190   1.271   9.934  10.446  0.2695  0.6167 -0.8333
  143MOL0     C19191   1.231  10.068  10.394  0.3188 -1.1827 -0.4235
  143MOL0     C19192   1.256  10.086  10.250 -0.9640  1.0868 -0.0002
  143MOL0     C19193   1.397  10.086  10.209  0.4346  0.7175 -0.5897
  143MOL0     O19194   1.416  10.073  10.070 -0.2229  0.4643 -0.2400
  143MOL0     C19195   1.532  10.025  10.025 -0.1441  0.1251  0.2594
  143MOL0     C19196   1.537   9.935   9.918  0.2533  0.6825  0.3630
  143MOL0     C19197   1.657   9.872   9.886 -0.1747  0.6984 -0.3542
  143MOL0     C19198   1.647   9.757   9.792  0.5755  0.8202  0.9206
  143MOL0     C19199   1.785   9.913   9.936  0.3898  0.4079  0.6246
  143MOL0     C19200   1.921   9.867   9.886  0.5286 -0.8612  1.1924
  143MOL0     O19201   2.031   9.937   9.933 -0.0184  0.1173  0.3893
  143MOL0     C19202   2.160   9.884   9.911 -0.0788  0.1434 -0.2475
  143MOL0     C19203   2.219   9.818  10.022 -0.4387 -0.0617  0.0794
  143MOL0     C19204   2.344   9.753  10.003 -0.6171 -1.0033 -0.0020
  143MOL0     C19205   2.412   9.767   9.884 -0.1298 -0.1796 -0.2416
  143MOL0     O19206   2.542   9.728   9.865  0.2406 -0.4048  0.7601
  143MOL0     C19207   2.584   9.675   9.736  0.8869 -0.0389  0.0008
  143MOL0     C19208   2.699   9.574   9.753  0.1275  1.3449 -0.8921
  143MOL0     C19209   2.839   9.636   9.811  0.8172 -0.4354  0.5930
  143MOL0     C19210   2.960   9.556   9.742  0.1097  0.0994  0.4838
  143MOL0     C19211   3.091   9.600   9.813 -0.1880  0.3309 -0.0098
  143MOL0     C19212   3.204   9.504   9.786  0.0452 -0.6853  0.9663
  143MOL0     C19213   3.341   9.566   9.801  0.5763  0.0580  0.0005
  143MOL0     C19214   3.447   9.481   9.747  0.3700  0.7053 -0.5492
  143MOL0    Cl19215   3.457   9.502   9.574  0.1598 -0.7489  0.2862
  143MOL0     C19216   2.351   9.836   9.774 -0.2078 -0.3589 -0.2631
  143MOL0     C19217   2.221   9.879   9.784  1.0485 -0.1866 -0.2201
  143MOL0     O19218   1.933   9.761   9.823  0.1630 -0.9481  0.1624
  143MOL0     C19219   1.777  10.007  10.040  0.5279 -0.1098  0.5467
  143MOL0     C19220   1.655  10.050  10.095 -0.5993 -0.2925  0.2997
  143MOL0     N19221   1.367   9.963  10.681  0.7975  0.8045  0.2247
  143MOL0     N19222   1.326   9.975  10.801 -0.7781 -0.0354 -0.2191
  143MOL0     C19223   0.499  10.775  10.699  1.5025 -0.0051  0.2583
  143MOL0     C19224   0.456  10.812  10.570  0.0823  0.4594 -0.1871
  143MOL0     C19225   0.490  10.810  10.103  0.7674 -1.1763  1.2650
  143MOL0     C19226   0.433  10.938  10.075  0.4892 -0.3169  0.1144
  143MOL0     C19227   0.409  10.987   9.945 -0.9653 -0.9602 -1.0167
  143MOL0     C19228   0.425  10.902   9.835  1.1111  0.3104 -0.3178
  143MOL0     O19229   0.404  10.937   9.704  0.3681 -0.7598  0.0084
  143MOL0     C19230   0.359  11.076   9.684  0.6782  0.0265 -0.4577
  143MOL0     C19231   0.352  11.092   9.533 -0.4061  0.1325  0.1562
  143MOL0     C19232   0.264  10.981   9.471 -0.0674  0.0365  0.1804
  143MOL0     C19233   0.295  10.978   9.320 -0.4885 -0.5991 -1.4034
  143MOL0     C19234   0.188  10.894   9.255  0.0411 -0.0286  0.3764
  143MOL0     C19235   0.118  10.821   9.194  0.1316  0.1386 -0.8017
  143MOL0     C19236   0.480  10.777   9.858  0.0979  0.6607 -0.6388
  143MOL0     C19237   0.504  10.732   9.989  0.2118 -0.2823  0.0612
  143MOL0     H19238   0.753  10.928  10.436  1.1721 -0.0389  1.5070
  143MOL0     H19239   0.826  10.878  10.658 -0.2828 -1.0373  2.8975
  143MOL0     H19240   0.599  10.698  11.018 -1.0301 -1.5766 -0.3571
  143MOL0     H19241   0.598  10.595  10.886  0.7285 -0.3750  0.8347
  143MOL0     H19242   0.843  10.581  10.897 -0.1929 -1.5196  0.7513
  143MOL0     H19243   0.838  10.677  11.046  0.6909  0.1871 -0.3699
  143MOL0     H19244   0.671  10.519  11.150 -0.9496  0.7165 -1.0382
  143MOL0     H19245   0.662  10.424  11.009 -2.4021  2.3336  0.4216
  143MOL0     H19246   0.947  10.442  11.139  2.0214 -1.6002 -4.2239
  143MOL0     H19247   0.824  10.316  11.180  3.2201 -3.9873 -2.7897
  143MOL0     H19248   0.816  10.290  10.919  1.0341 -0.4289 -1.6171
  143MOL0     H19249   0.964  10.378  10.924 -0.8766 -0.9122 -1.1866
  143MOL0     H19250   1.055  10.205  11.089 -0.7435 -2.0066  1.8357
  143MOL0     H19251   0.919  10.101  11.080  1.3409  0.4072  1.1500
  143MOL0     H19252   0.973  10.141  10.809  0.7550 -0.1797 -1.0103
  143MOL0     H19253   1.116  10.203  10.861 -1.3446  1.2895  0.2200
  143MOL0     H19254   1.016   9.923  10.895  0.8096  0.6247 -1.8397
  143MOL0     H19255   1.155   9.984  11.006 -1.7784  0.8481  2.4190
  143MOL0     H19256   1.047   9.919  10.626  0.2283 -0.3480  0.8607
  143MOL0     H19257   1.373   9.914  10.410  0.5461 -0.9746  0.6735
  143MOL0     H19258   1.209   9.850  10.413  2.9992 -0.5999 -3.3995
  143MOL0     H19259   1.289  10.147  10.443  0.2301 -1.5225  0.2539
  143MOL0     H19260   1.125  10.079  10.420  0.1851 -0.1914 -1.3569
  143MOL0     H19261   1.210  10.178  10.211 -1.7717  1.1154  0.9918
  143MOL0     H19262   1.200  10.002  10.210 -0.5554  0.1953  1.2481
  143MOL0     H19263   1.443   9.997  10.253 -0.5800  0.2716 -0.3852
  143MOL0     H19264   1.432  10.182  10.246 -1.1971  1.6513 -1.3514
  143MOL0     H19265   1.453   9.890   9.867 -0.1395  0.1607  1.4217
  143MOL0     H19266   1.669   9.663   9.843  2.0189  1.9201  2.4357
  143MOL0     H19267   1.550   9.749   9.744  0.4253 -0.3687  1.3909
  143MOL0     H19268   1.716   9.760   9.707 -1.0371 -1.7489 -0.5842
  143MOL0     H19269   2.165   9.814  10.116 -0.4599 -2.7876  0.0206
  143MOL0     H19270   2.384   9.705  10.091  0.0945 -0.4760 -0.0256
  143MOL0     H19271   2.506   9.622   9.679  2.4204 -2.1791 -0.2109
  143MOL0     H19272   2.624   9.756   9.674 -0.9068  0.7211 -0.2363
  143MOL0     H19273   2.674   9.489   9.818  0.7139  1.3563 -0.6398
  143MOL0     H19274   2.713   9.536   9.652 -1.6899  1.2147 -1.1298
  143MOL0     H19275   2.846   9.630   9.920 -0.1103 -0.6377  0.6491
  143MOL0     H19276   2.854   9.744   9.795  2.4422 -0.6207  0.7087
  143MOL0     H19277   2.936   9.454   9.771  2.6230 -0.6328  0.1679
  143MOL0     H19278   2.965   9.553   9.633  0.2637 -1.2376  0.5232
  143MOL0     H19279   3.062   9.611   9.918  0.0068 -0.9111  0.1976
  143MOL0     H19280   3.126   9.694   9.771  2.0835 -0.4830 -0.0766
  143MOL0     H19281   3.188   9.417   9.851  0.4293  0.4830  2.6957
  143MOL0     H19282   3.193   9.479   9.680 -0.8257  2.4847  0.2083
  143MOL0     H19283   3.365   9.578   9.907 -0.8859 -0.1601  0.3832
  143MOL0     H19284   3.357   9.665   9.756  1.4898 -0.3561 -0.6217
  143MOL0     H19285   3.426   9.376   9.771 -2.8097  1.4133  0.1903
  143MOL0     H19286   3.539   9.519   9.794 -0.9517  0.9702  1.9762
  143MOL0     H19287   2.403   9.853   9.680  0.1618  1.8782  0.2840
  143MOL0     H19288   2.178   9.943   9.708 -0.2122  0.9586  1.3685
  143MOL0     H19289   1.872  10.030  10.086  2.8129 -4.3757 -1.4751
  143MOL0     H19290   1.660  10.106  10.188  2.4711  1.2124 -0.6178
  143MOL0     H19291   0.428  10.731  10.769  1.9130 -0.2745  0.5097
  143MOL0     H19292   0.352  10.792  10.548  0.3417 -0.8958 -0.2554
  143MOL0     H19293   0.420  11.012  10.153 -1.8423  0.2461 -0.7329
  143MOL0     H19294   0.361  11.083   9.931 -2.6259 -1.4133  1.1363
  143MOL0     H19295   0.265  11.109   9.730  1.2309  1.0725 -0.0429
  143MOL0     H19296   0.443  11.139   9.715  2.2188 -1.4513 -1.4767
  143MOL0     H19297   0.451  11.099   9.487 -0.4567  1.3028  0.1989
  143MOL0     H19298   0.313  11.188   9.499 -1.5897 -0.6981 -0.9460
  143MOL0     H19299   0.162  10.999   9.506  0.0683 -0.0019  0.5962
  143MOL0     H19300   0.290  10.882   9.512 -1.2425 -1.1305 -1.7513
  143MOL0     H19301   0.388  10.923   9.302  0.4344 -1.0102  3.2081
  143MOL0     H19302   0.289  11.075   9.270 -2.3984  0.6049  0.9586
  143MOL0     H19303   0.044  10.756   9.150  1.1879 -1.1847 -0.6769
  143MOL0     H19304   0.508  10.708   9.780 -2.6993 -1.8887  0.4368
  143MOL0     H19305   0.541  10.632  10.007  3.2786  0.1342 -2.8984
  144MOL0     O19306   6.973   5.733   1.586  0.0093 -0.3674 -0.2813
  144MOL0     C19307   6.948   5.743   1.705 -0.7449  0.9576 -0.0789
  144MOL0     O19308   6.861   5.660   1.773 -0.0443 -0.0731  0.2753
  144MOL0     C19309   6.804   5.553   1.717 -0.2456 -0.4453  0.6196
  144MOL0     C19310   6.664   5.562   1.716  0.3873  0.7371 -0.3274
  144MOL0     C19311   6.597   5.450   1.664  0.8117 -0.6613  0.0436
  144MOL0     C19312   6.668   5.350   1.596  0.1195  1.1342 -0.8260
  144MOL0     O19313   6.606   5.248   1.521 -0.2577 -0.3850  0.4399
  144MOL0     C19314   6.493   5.188   1.587 -0.0115 -0.0436  0.8045
  144MOL0     C19315   6.451   5.077   1.484  0.4958  0.6526  0.0023
  144MOL0     C19316   6.326   4.991   1.517 -0.0480  0.4983 -0.1012
  144MOL0     C19317   6.312   4.973   1.670 -0.2786 -0.1090 -0.7515
  144MOL0     C19318   6.194   4.911   1.718  0.6117 -0.3496 -0.7048
  144MOL0     C19319   6.204   4.757   1.685  0.4759 -0.1629 -0.1851
  144MOL0     C19320   6.088   4.684   1.739  0.0743 -0.3116 -1.1116
  144MOL0     C19321   6.074   4.670   1.890  0.8773  0.8242  1.2077
  144MOL0     N19322   5.980   4.563   1.941 -0.3258 -0.3655 -0.2664
  144MOL0     C19323   5.845   4.570   1.946 -0.1741  0.4207 -0.0634
  144MOL0     C19324   5.810   4.444   1.980 -0.1991  0.8740 -0.9237
  144MOL0     C19325   5.676   4.387   2.020 -0.2183  0.0018 -0.6260
  144MOL0     C19326   5.667   4.281   2.136  0.4322 -1.0011 -0.1067
  144MOL0     C19327   5.686   4.340   2.276  0.1678  0.4859  0.5712
  144MOL0     C19328   5.676   4.231   2.382 -0.2537 -1.0355 -0.2379
  144MOL0     O19329   5.539   4.201   2.407 -0.8276 -0.9039  1.1672
  144MOL0     C19330   5.528   4.091   2.491  0.7213 -0.4374  0.5080
  144MOL0     C19331   5.619   4.056   2.598  0.7292  0.2293  0.7810
  144MOL0     C19332   5.586   3.955   2.693 -0.0068 -0.0736  0.1411
  144MOL0     C19333   5.676   3.934   2.815 -0.4692  0.0237  0.7833
  144MOL0     C19334   5.483   3.867   2.657 -0.7721  0.0756  0.5294
  144MOL0     C19335   5.428   3.760   2.742  0.8171 -0.0990  0.0656
  144MOL0     O19336   5.328   3.688   2.680 -0.5368  0.3967 -0.3973
  144MOL0     C19337   5.285   3.573   2.756  0.6300  0.2027 -0.1562
  144MOL0     C19338   5.346   3.450   2.728 -1.1254  0.3734  1.2220
  144MOL0     C19339   5.324   3.329   2.801  0.4634  1.2130 -0.2599
  144MOL0     C19340   5.243   3.334   2.912  0.3028  1.3218 -0.0017
  144MOL0     O19341   5.225   3.222   2.983  0.3264  0.0783 -0.9757
  144MOL0     C19342   5.104   3.208   3.057 -0.8479  0.0719  0.3106
  144MOL0     C19343   5.001   3.143   2.952 -0.4376 -0.7629  0.0462
  144MOL0     C19344   4.859   3.122   3.011  0.0541 -0.3082 -0.1588
  144MOL0     C19345   4.866   3.016   3.132  0.6124  0.0383 -0.2735
  144MOL0     C19346   4.736   3.003   3.216  0.1967 -0.2659  0.9103
  144MOL0     C19347   4.625   2.907   3.142  0.2222  0.3086 -0.5657
  144MOL0     C19348   4.526   2.991   3.059  1.1257 -0.1311 -0.0254
  144MOL0     C19349   4.423   3.066   3.151 -0.3906 -0.7333  0.4398
  144MOL0    Cl19350   4.333   3.178   3.036 -0.2989  0.2910 -0.0545
  144MOL0     C19351   5.182   3.464   2.936  0.1422  0.7068  0.1652
  144MOL0     C19352   5.199   3.576   2.866 -1.0970 -0.7097  1.2902
  144MOL0     O19353   5.438   3.763   2.862 -0.1017 -0.0873  0.5717
  144MOL0     C19354   5.401   3.895   2.540 -0.9397 -0.6421  0.1545
  144MOL0     C19355   5.424   4.016   2.462  0.1800  0.7528 -0.9214
  144MOL0     N19356   5.927   4.366   2.005 -0.2687 -0.7271  0.6711
  144MOL0     N19357   6.021   4.448   1.991 -0.9743  0.9102  0.3798
  144MOL0     C19358   6.804   5.352   1.597  0.1010 -0.5342 -0.3075
  144MOL0     C19359   6.879   5.451   1.660  0.2731 -0.4737  0.8003
  144MOL0     C19360   7.017   5.832   1.793  0.8249  0.0749 -1.2721
  144MOL0     C19361   7.053   5.959   1.750 -0.0952 -0.4925  0.4117
  144MOL0     C19362   7.128   6.041   1.842 -1.3801 -0.5520 -0.6222
  144MOL0     C19363   7.178   5.999   1.971 -0.4241 -0.2376 -0.1787
  144MOL0     O19364   7.255   6.070   2.063  0.7023  0.7187  0.4466
  144MOL0     C19365   7.293   6.199   2.026 -0.2366  1.2176 -0.3463
  144MOL0     C19366   7.408   6.265   2.099  0.1474  0.6193  0.2198
  144MOL0     C19367   7.395   6.260   2.249  0.3862 -0.0569 -0.0756
  144MOL0     C19368   7.520   6.291   2.328 -0.5361  0.2992 -0.1454
  144MOL0     C19369   7.558   6.439   2.321 -0.0537  0.2416  0.4200
  144MOL0     C19370   7.578   6.559   2.299  0.3468 -0.0944  0.1374
  144MOL0     C19371   7.135   5.875   2.016  0.1292  0.4219 -0.0165
  144MOL0     C19372   7.044   5.799   1.930  0.1421 -0.9127 -0.7758
  144MOL0     H19373   6.609   5.649   1.751  0.4413 -0.0575  1.9330
  144MOL0     H19374   6.489   5.444   1.663  0.4074  3.6195  0.3161
  144MOL0     H19375   6.516   5.142   1.683 -0.0064  0.1808  0.9121
  144MOL0     H19376   6.404   5.251   1.594  0.8219  1.1530  0.9705
  144MOL0     H19377   6.438   5.134   1.392 -0.3987 -1.6527 -1.3749
  144MOL0     H19378   6.537   5.013   1.466  0.4372  0.3614  0.7245
  144MOL0     H19379   6.235   5.027   1.468 -0.2565  3.4887  2.2103
  144MOL0     H19380   6.348   4.889   1.483 -0.8116 -0.1422  1.2382
  144MOL0     H19381   6.399   4.921   1.711 -1.0173  0.5220  1.8250
  144MOL0     H19382   6.314   5.074   1.711  0.7839  0.0465 -1.1603
  144MOL0     H19383   6.182   4.913   1.826 -0.5862 -1.5962 -0.7927
  144MOL0     H19384   6.109   4.954   1.663  1.5146 -0.6499 -2.4130
  144MOL0     H19385   6.201   4.743   1.576 -1.6977  0.0350 -0.1901
  144MOL0     H19386   6.299   4.719   1.724  1.4586  1.6046 -0.7246
  144MOL0     H19387   5.996   4.727   1.700  0.4962  2.0357  0.2912
  144MOL0     H19388   6.098   4.578   1.715 -2.0619 -0.7561 -0.2556
  144MOL0     H19389   6.061   4.769   1.934  1.1966  2.1474 -1.4684
  144MOL0     H19390   6.177   4.646   1.919  2.1740  2.7191 -1.3865
  144MOL0     H19391   5.784   4.659   1.937 -0.5473  0.1690 -0.0214
  144MOL0     H19392   5.601   4.462   2.045 -1.8719 -1.8670  0.3853
  144MOL0     H19393   5.642   4.339   1.928  2.1727 -2.0351 -0.5616
  144MOL0     H19394   5.751   4.212   2.126  3.3182  2.5623 -3.9728
  144MOL0     H19395   5.569   4.232   2.128 -0.9969  1.9365 -3.2750
  144MOL0     H19396   5.610   4.417   2.291  0.8391  1.0385  1.2953
  144MOL0     H19397   5.782   4.388   2.254 -1.1371  1.2216 -4.8020
  144MOL0     H19398   5.717   4.288   2.466 -0.8473 -1.6221  0.4555
  144MOL0     H19399   5.731   4.138   2.365 -0.9094 -2.2699  3.5021
  144MOL0     H19400   5.700   4.126   2.613 -0.6068  1.5251  2.4440
  144MOL0     H19401   5.648   4.003   2.896 -4.6143  0.3244 -0.6904
  144MOL0     H19402   5.673   3.833   2.857  3.2788 -0.7418 -0.4319
  144MOL0     H19403   5.782   3.944   2.791 -0.5167 -0.2719  0.4531
  144MOL0     H19404   5.416   3.441   2.645 -1.1165 -1.6914  1.3843
  144MOL0     H19405   5.387   3.244   2.777 -0.7846  0.5456 -1.3412
  144MOL0     H19406   5.118   3.143   3.143  0.2948  1.2057  1.0152
  144MOL0     H19407   5.061   3.301   3.095 -1.6977  1.0715 -2.7336
  144MOL0     H19408   4.980   3.211   2.869 -3.9129  0.7296  1.9418
  144MOL0     H19409   5.047   3.050   2.915 -0.9788 -1.1781  0.3960
  144MOL0     H19410   4.785   3.110   2.932  1.8678  2.4512 -2.4989
  144MOL0     H19411   4.821   3.209   3.067 -3.5465 -1.7899 -0.0647
  144MOL0     H19412   4.892   2.921   3.084  2.5329  0.6343 -0.4789
  144MOL0     H19413   4.936   3.041   3.211 -0.9499  0.4844  1.0282
  144MOL0     H19414   4.696   3.104   3.231  2.3079  0.3961  2.3846
  144MOL0     H19415   4.756   2.957   3.313 -1.0738  1.1245  1.8755
  144MOL0     H19416   4.682   2.831   3.089 -0.0432 -0.0166 -0.3907
  144MOL0     H19417   4.572   2.847   3.217 -1.4834 -0.6213 -2.4364
  144MOL0     H19418   4.481   2.929   2.981  3.4441 -2.4900  0.3605
  144MOL0     H19419   4.579   3.067   3.001  1.8316  0.2360  1.0774
  144MOL0     H19420   4.471   3.141   3.215  0.7094 -1.9018  1.0268
  144MOL0     H19421   4.365   2.991   3.205 -2.2267 -0.8223 -1.5330
  144MOL0     H19422   5.116   3.467   3.022 -0.9864 -3.6850 -0.2905
  144MOL0     H19423   5.160   3.671   2.901  0.1263  0.7547 -1.0472
  144MOL0     H19424   5.316   3.836   2.508  0.1478 -0.6725 -3.0385
  144MOL0     H19425   5.358   4.040   2.379  2.3690  1.2485 -2.5765
  144MOL0     H19426   6.853   5.266   1.551  1.7618 -1.7169  3.2842
  144MOL0     H19427   6.987   5.463   1.655  0.0598  2.8608  1.6597
  144MOL0     H19428   7.006   5.980   1.655  0.1765  3.3391  0.9826
  144MOL0     H19429   7.147   6.142   1.806  2.2833 -0.7239  0.4537
  144MOL0     H19430   7.336   6.177   1.928  3.3768  0.6560  1.2153
  144MOL0     H19431   7.207   6.266   2.017 -1.7304 -0.3855  1.0942
  144MOL0     H19432   7.423   6.367   2.062 -1.0482  0.5304 -0.5869
  144MOL0     H19433   7.498   6.209   2.068 -0.2612  0.6853 -1.1782
  144MOL0     H19434   7.366   6.159   2.277  1.2389 -0.0966  0.6938
  144MOL0     H19435   7.323   6.339   2.274  2.6822  1.1435  3.5028
  144MOL0     H19436   7.604   6.237   2.283 -0.9724 -0.5712  0.0756
  144MOL0     H19437   7.503   6.253   2.429 -0.3770  0.9347  0.1282
  144MOL0     H19438   7.583   6.655   2.252 -0.5194 -0.8417 -1.5625
  144MOL0     H19439   7.168   5.825   2.106  0.7457 -0.1544 -0.5559
  144MOL0     H19440   7.017   5.700   1.964 -1.1301 -0.2082  0.3604
  145MOL0     O19441   7.188   2.286   5.632  0.7259 -0.1829  0.1676
  145MOL0     C19442   7.251   2.300   5.531 -0.6117  0.4302  0.8385
  145MOL0     O19443   7.200   2.328   5.408  0.1860  0.5376  0.0638
  145MOL0     C19444   7.067   2.314   5.370 -0.0382 -0.0962  0.1541
  145MOL0     C19445   6.953   2.311   5.455 -0.3076 -0.5229 -0.0998
  145MOL0     C19446   6.826   2.305   5.394  1.5483  0.2924 -0.7633
  145MOL0     C19447   6.817   2.286   5.259  0.6093  0.0680  0.3857
  145MOL0     O19448   6.691   2.254   5.201 -0.1536 -0.5942  0.3203
  145MOL0     C19449   6.643   2.330   5.082 -0.6458  0.2514  0.5754
  145MOL0     C19450   6.546   2.441   5.103  0.2460  0.1034  0.0645
  145MOL0     C19451   6.418   2.395   5.168  0.1236  1.1016 -0.7179
  145MOL0     C19452   6.307   2.508   5.176 -0.8618  0.2950  0.2251
  145MOL0     C19453   6.181   2.461   5.256 -0.3093  0.0703 -0.4256
  145MOL0     C19454   6.136   2.318   5.231 -0.3732  0.2854 -0.4593
  145MOL0     C19455   6.005   2.291   5.322 -0.5534  0.4784  0.8653
  145MOL0     C19456   5.922   2.163   5.283  0.0383 -0.0154 -0.4778
  145MOL0     N19457   5.841   2.133   5.397 -0.2197  0.1653 -0.7824
  145MOL0     C19458   5.720   2.192   5.444  0.4898 -0.3179 -1.0517
  145MOL0     C19459   5.702   2.131   5.563 -0.2880 -0.1700  0.1871
  145MOL0     C19460   5.589   2.166   5.653 -0.1154 -0.1100  0.0436
  145MOL0     C19461   5.456   2.193   5.584  0.2580  0.7803 -0.4133
  145MOL0     C19462   5.392   2.086   5.492 -0.4367  0.3821 -1.0042
  145MOL0     C19463   5.404   1.935   5.521 -0.3268  0.2369  0.5504
  145MOL0     O19464   5.369   1.858   5.401 -0.4368 -0.3150  0.1657
  145MOL0     C19465   5.240   1.888   5.355 -0.1825 -0.5093  0.4732
  145MOL0     C19466   5.222   1.899   5.214  0.2579  0.5900 -0.6885
  145MOL0     C19467   5.098   1.928   5.161 -0.7119  0.5923 -0.2772
  145MOL0     C19468   5.090   1.928   5.011 -0.4382 -0.3273  0.1731
  145MOL0     C19469   4.993   1.960   5.245  0.7652  0.5199 -0.8790
  145MOL0     C19470   4.856   2.003   5.202  0.3228  0.3785 -0.1093
  145MOL0     O19471   4.765   2.008   5.299 -0.3104  0.0746 -1.1534
  145MOL0     C19472   4.627   2.028   5.291  0.7320  0.1042 -0.2140
  145MOL0     C19473   4.563   2.040   5.168  0.7673  0.3498  0.3183
  145MOL0     C19474   4.421   2.062   5.157 -0.6159  0.2517  0.5541
  145MOL0     C19475   4.343   2.065   5.273  1.0725  0.0489 -0.8447
  145MOL0     O19476   4.208   2.077   5.274 -0.6614 -0.0318  0.0944
  145MOL0     C19477   4.167   2.216   5.296  0.2318  0.0507 -0.5271
  145MOL0     C19478   4.113   2.245   5.446  0.0071  0.3151  0.6340
  145MOL0     C19479   4.045   2.116   5.485  0.3139 -0.7534  0.4366
  145MOL0     C19480   3.921   2.142   5.566 -0.8233  0.3425  0.3474
  145MOL0     C19481   3.873   2.005   5.622  0.4649 -0.3408 -0.0835
  145MOL0     C19482   3.741   1.969   5.547 -0.5964  0.8386  0.2539
  145MOL0     C19483   3.668   1.835   5.600 -0.2013 -0.5587  0.7510
  145MOL0     C19484   3.536   1.800   5.517 -0.2229 -0.5514 -0.7177
  145MOL0    Cl19485   3.452   1.654   5.563  0.5018  0.5847  0.5552
  145MOL0     C19486   4.413   2.073   5.388 -0.1932  0.3312 -0.6767
  145MOL0     C19487   4.548   2.052   5.408  0.0394 -0.0673  0.3955
  145MOL0     O19488   4.831   2.020   5.083  0.0720 -0.7792  0.3131
  145MOL0     C19489   5.004   1.947   5.381 -0.3651 -0.7129 -0.0845
  145MOL0     C19490   5.127   1.905   5.431  0.1677  0.1185 -0.5496
  145MOL0     N19491   5.808   2.047   5.593  0.1208  0.3209  0.0255
  145MOL0     N19492   5.890   2.049   5.494 -0.0279  0.4910 -0.6948
  145MOL0     C19493   6.935   2.290   5.177  0.5722  1.0004 -0.1327
  145MOL0     C19494   7.054   2.302   5.233 -0.9746  0.7129 -0.4356
  145MOL0     C19495   7.399   2.286   5.554 -0.7519  0.6722 -0.6391
  145MOL0     C19496   7.447   2.241   5.683 -0.0519  0.5162 -0.0823
  145MOL0     C19497   7.584   2.247   5.699  0.5736 -0.5973 -0.8805
  145MOL0     C19498   7.683   2.287   5.601 -0.0781 -0.0212 -0.1497
  145MOL0     O19499   7.822   2.288   5.614 -0.1273 -0.0056  0.1639
  145MOL0     C19500   7.874   2.181   5.697 -0.2766  0.0682 -0.2316
  145MOL0     C19501   7.943   2.224   5.831  0.7533 -0.7456 -0.5034
  145MOL0     C19502   8.055   2.318   5.811 -0.6343 -0.9796  0.3960
  145MOL0     C19503   8.031   2.461   5.868  0.4454 -0.2150 -0.3213
  145MOL0     C19504   7.956   2.536   5.769  0.5182  0.8368 -0.4539
  145MOL0     C19505   7.911   2.599   5.678  0.0878 -0.5178 -0.1982
  145MOL0     C19506   7.633   2.343   5.487 -0.0629  0.6245  0.5786
  145MOL0     C19507   7.494   2.330   5.459  0.4406 -0.1987 -0.2118
  145MOL0     H19508   6.959   2.315   5.564  2.0841  0.2699 -0.2083
  145MOL0     H19509   6.744   2.315   5.464  2.4061 -1.0623  0.4884
  145MOL0     H19510   6.724   2.370   5.021  0.0827 -1.5467  0.2945
  145MOL0     H19511   6.593   2.260   5.014 -0.6918 -0.9348  1.7731
  145MOL0     H19512   6.588   2.516   5.170  1.8177 -0.0930 -0.6500
  145MOL0     H19513   6.522   2.496   5.012 -1.4930  0.9317  0.9870
  145MOL0     H19514   6.376   2.306   5.119  2.1464 -1.6209  2.0911
  145MOL0     H19515   6.447   2.366   5.269  5.8000  0.4358 -2.2026
  145MOL0     H19516   6.355   2.594   5.224 -0.2831 -1.2920  2.6930
  145MOL0     H19517   6.277   2.529   5.073 -0.4484 -1.5095 -0.2998
  145MOL0     H19518   6.210   2.473   5.360  1.1166  0.2767 -0.8300
  145MOL0     H19519   6.091   2.521   5.243  0.0833  0.3059 -2.3338
  145MOL0     H19520   6.096   2.316   5.130 -1.0878 -0.0233 -0.1737
  145MOL0     H19521   6.213   2.240   5.239 -1.0482 -0.4436 -0.9687
  145MOL0     H19522   6.030   2.284   5.428 -1.0237 -0.9712  0.9052
  145MOL0     H19523   5.941   2.378   5.308 -0.8933  0.0636 -0.2978
  145MOL0     H19524   5.985   2.079   5.253  0.9735  0.5664 -0.1933
  145MOL0     H19525   5.865   2.182   5.192  0.1554  1.4309 -0.2804
  145MOL0     H19526   5.645   2.263   5.408 -0.6983 -0.0162  1.7249
  145MOL0     H19527   5.584   2.074   5.713  3.1402 -1.0337 -0.9132
  145MOL0     H19528   5.627   2.240   5.723  0.8316 -2.4799  2.2062
  145MOL0     H19529   5.462   2.290   5.534 -2.0828  1.7352  1.0166
  145MOL0     H19530   5.383   2.205   5.664  0.1049  1.6934 -0.6742
  145MOL0     H19531   5.432   2.113   5.394  1.7492 -1.4525 -0.6888
  145MOL0     H19532   5.285   2.111   5.483 -0.4180  3.2315  3.6472
  145MOL0     H19533   5.348   1.905   5.609 -4.1630  3.3689 -0.5616
  145MOL0     H19534   5.508   1.911   5.546 -0.5241  1.5379  2.9003
  145MOL0     H19535   5.311   1.897   5.150  2.0721 -0.4139  1.7163
  145MOL0     H19536   4.992   1.898   4.973 -3.0078  3.0276  3.3962
  145MOL0     H19537   5.127   2.026   4.979  0.3015 -0.6005  0.1633
  145MOL0     H19538   5.169   1.860   4.978  0.5484 -0.7617  3.1941
  145MOL0     H19539   4.615   2.028   5.073 -0.7693 -2.3786 -0.2888
  145MOL0     H19540   4.360   2.089   5.071 -1.5988  0.5887  1.3444
  145MOL0     H19541   4.246   2.287   5.272  0.8689 -1.0494 -1.8394
  145MOL0     H19542   4.084   2.226   5.225 -1.3584  2.3543  1.4688
  145MOL0     H19543   4.196   2.275   5.511  1.3493  0.0755 -0.9016
  145MOL0     H19544   4.046   2.331   5.434 -0.4681 -0.0426  0.6714
  145MOL0     H19545   4.113   2.049   5.540  1.8516  1.7224  1.7580
  145MOL0     H19546   4.012   2.049   5.405  0.9077  0.2626 -0.6959
  145MOL0     H19547   3.943   2.218   5.642 -1.4808  1.7030 -0.7795
  145MOL0     H19548   3.849   2.186   5.496  1.8368  2.3029 -1.3945
  145MOL0     H19549   3.845   2.012   5.727 -0.4935 -1.7035 -0.2161
  145MOL0     H19550   3.958   1.936   5.618  1.3787  0.6799  1.0475
  145MOL0     H19551   3.673   2.054   5.562  4.3135  5.3297 -0.1352
  145MOL0     H19552   3.753   1.959   5.439  2.1724 -2.7804  0.7331
  145MOL0     H19553   3.630   1.865   5.698  1.4958  3.2639  0.3813
  145MOL0     H19554   3.730   1.746   5.614 -2.5071 -1.7238  6.1298
  145MOL0     H19555   3.555   1.804   5.409  0.8534 -4.1996 -0.7853
  145MOL0     H19556   3.470   1.882   5.547  0.1408 -0.3022 -0.5799
  145MOL0     H19557   4.364   2.101   5.481  3.0490  2.4581  0.5589
  145MOL0     H19558   4.596   2.073   5.503 -2.0290 -2.5873  2.1351
  145MOL0     H19559   4.928   1.974   5.454  0.8887  0.6649  0.7763
  145MOL0     H19560   5.128   1.898   5.540 -0.4199  1.1779 -0.4593
  145MOL0     H19561   6.933   2.281   5.069 -2.8673  4.1332 -0.5485
  145MOL0     H19562   7.146   2.314   5.177 -0.3347 -1.0656  0.1766
  145MOL0     H19563   7.374   2.213   5.759 -1.1818 -0.7193 -1.5480
  145MOL0     H19564   7.633   2.218   5.791  0.6704 -4.1105 -1.8697
  145MOL0     H19565   7.807   2.096   5.713  1.4851 -1.2736  0.3495
  145MOL0     H19566   7.939   2.129   5.626 -3.1075  0.2114 -3.1544
  145MOL0     H19567   7.991   2.142   5.885 -0.6676 -0.4411  1.3158
  145MOL0     H19568   7.873   2.273   5.899  1.2638  2.2052 -1.9351
  145MOL0     H19569   8.098   2.309   5.711  1.7874  0.9264  1.1582
  145MOL0     H19570   8.134   2.266   5.866  2.5705 -1.4259 -4.1199
  145MOL0     H19571   8.125   2.516   5.882 -0.4184  1.2192  0.0443
  145MOL0     H19572   7.986   2.450   5.967  0.6701  1.0306 -0.0651
  145MOL0     H19573   7.893   2.678   5.608  0.0946  0.5748  1.0074
  145MOL0     H19574   7.700   2.375   5.408 -2.0334  1.6832 -0.7534
  145MOL0     H19575   7.475   2.369   5.359  2.8458 -1.2229 -1.1534
  146MOL0     O19576   4.010   5.337   1.629 -0.2442 -0.5565  0.3456
  146MOL0     C19577   4.119   5.274   1.614  0.4495 -0.3346 -0.3401
  146MOL0     O19578   4.135   5.138   1.609 -0.1457  0.7941 -0.4282
  146MOL0     C19579   4.037   5.042   1.600  0.4183 -0.7392 -0.2810
  146MOL0     C19580   3.903   5.074   1.573 -0.3286 -0.9939  0.4685
  146MOL0     C19581   3.812   4.969   1.578  0.1381 -0.4569  0.1074
  146MOL0     C19582   3.847   4.841   1.605 -1.2201  0.5645  0.2536
  146MOL0     O19583   3.748   4.751   1.599  0.8266 -0.2576 -0.5719
  146MOL0     C19584   3.693   4.715   1.719  0.6892  0.3525  0.4912
  146MOL0     C19585   3.582   4.613   1.694 -0.1958  0.0878  0.6562
  146MOL0     C19586   3.506   4.574   1.812 -0.4968  0.6504  0.6283
  146MOL0     C19587   3.404   4.455   1.791 -0.1268  0.2066 -0.1584
  146MOL0     C19588   3.338   4.424   1.918 -0.2280  0.2447 -0.7131
  146MOL0     C19589   3.273   4.284   1.926  0.4633 -0.2679 -0.5412
  146MOL0     C19590   3.206   4.232   1.797  0.6836 -0.7369  0.6145
  146MOL0     C19591   3.164   4.083   1.814 -0.4163 -0.1224  0.0132
  146MOL0     N19592   3.073   4.051   1.932 -0.1671 -0.9112  0.2561
  146MOL0     C19593   2.941   4.041   1.912  0.6535 -0.2896  0.3240
  146MOL0     C19594   2.887   4.021   2.036  0.0000 -0.3995  0.8039
  146MOL0     C19595   2.740   4.023   2.082  0.3409 -0.3577 -0.8669
  146MOL0     C19596   2.679   3.905   2.150  0.0572  0.2748 -0.2162
  146MOL0     C19597   2.680   3.901   2.307  0.3974  0.3929  0.3099
  146MOL0     C19598   2.825   3.890   2.356 -0.1607  0.0309  0.0768
  146MOL0     O19599   2.817   3.866   2.500  0.2881 -0.6317 -0.1435
  146MOL0     C19600   2.923   3.919   2.569 -0.7190 -0.7835  0.7014
  146MOL0     C19601   2.889   3.934   2.702 -0.5945  0.0682 -0.3255
  146MOL0     C19602   2.960   4.006   2.798 -0.4762  0.5851 -0.6285
  146MOL0     C19603   2.902   4.014   2.936  0.6839 -0.0513 -0.2059
  146MOL0     C19604   3.079   4.065   2.749 -0.1457 -0.7778  0.5718
  146MOL0     C19605   3.167   4.156   2.840 -0.1849 -0.5920  0.4572
  146MOL0     O19606   3.285   4.184   2.800 -0.4099 -0.1858 -0.0034
  146MOL0     C19607   3.371   4.228   2.891  0.5268 -0.4994  0.8870
  146MOL0     C19608   3.480   4.145   2.933  0.1995  0.6446 -0.0845
  146MOL0     C19609   3.574   4.195   3.025 -0.3901 -0.5922 -0.1635
  146MOL0     C19610   3.576   4.326   3.069  0.2155  0.1971  0.3410
  146MOL0     O19611   3.685   4.380   3.135 -0.5622 -0.3241 -0.0376
  146MOL0     C19612   3.742   4.323   3.258  0.4800 -0.2244  0.2030
  146MOL0     C19613   3.833   4.427   3.314  0.3523 -0.8381  0.2913
  146MOL0     C19614   3.900   4.379   3.446 -0.5646 -0.5234 -0.2079
  146MOL0     C19615   3.810   4.333   3.557  0.5019 -0.5690  0.7463
  146MOL0     C19616   3.877   4.344   3.685  1.0122  0.3950 -1.1548
  146MOL0     C19617   3.780   4.285   3.794 -0.4756  0.0928 -0.0627
  146MOL0     C19618   3.850   4.273   3.930  0.9875  0.3354 -0.2095
  146MOL0     C19619   3.772   4.188   4.031  0.6186 -0.7537  0.2571
  146MOL0    Cl19620   3.828   4.190   4.194 -0.0307  0.4229  0.2667
  146MOL0     C19621   3.470   4.406   3.027  0.0998 -0.1802 -1.0486
  146MOL0     C19622   3.373   4.358   2.940  0.5615 -0.0892  0.7278
  146MOL0     O19623   3.102   4.211   2.932 -0.3085 -0.5844  0.6899
  146MOL0     C19624   3.122   4.038   2.616 -0.9017 -0.2188 -1.1326
  146MOL0     C19625   3.049   3.968   2.524 -0.1928  0.3241  0.0300
  146MOL0     N19626   2.996   4.019   2.122 -0.0040 -0.6252  0.0961
  146MOL0     N19627   3.105   4.039   2.064  0.2826 -0.4712 -0.3399
  146MOL0     C19628   3.982   4.804   1.626  0.6997 -0.4995  1.2461
  146MOL0     C19629   4.070   4.911   1.633  0.0246  0.7830 -0.5449
  146MOL0     C19630   4.238   5.371   1.614  0.3835  0.4442 -1.0505
  146MOL0     C19631   4.234   5.489   1.676  0.0751  0.4182 -0.0077
  146MOL0     C19632   4.344   5.557   1.713 -1.1562 -0.2387  0.5870
  146MOL0     C19633   4.473   5.514   1.672  0.7820 -0.5841 -0.5482
  146MOL0     O19634   4.589   5.582   1.696  0.5911  0.0562  0.3641
  146MOL0     C19635   4.601   5.668   1.810  0.5942 -0.0039  0.1832
  146MOL0     C19636   4.639   5.579   1.935 -0.4100  1.0911  0.0557
  146MOL0     C19637   4.522   5.517   2.015  0.2861  1.0058 -0.1152
  146MOL0     C19638   4.414   5.620   2.062 -0.6042  0.7238  0.0168
  146MOL0     C19639   4.484   5.710   2.157 -0.3886  0.4115  0.1452
  146MOL0     C19640   4.527   5.797   2.223  0.7574 -0.3659  0.4352
  146MOL0     C19641   4.475   5.388   1.610 -0.1905  0.3850  1.0730
  146MOL0     C19642   4.363   5.314   1.580  0.0365 -0.4084 -1.0403
  146MOL0     H19643   3.869   5.172   1.541 -2.4393 -1.5985  0.7516
  146MOL0     H19644   3.713   4.984   1.534  0.3187 -3.8200 -1.7631
  146MOL0     H19645   3.773   4.670   1.778  1.1406  1.6598  0.8876
  146MOL0     H19646   3.656   4.803   1.771 -4.5472 -0.8210 -0.6573
  146MOL0     H19647   3.516   4.657   1.618  0.0968  1.4358  1.1507
  146MOL0     H19648   3.612   4.527   1.634 -2.5921 -2.4906  2.9100
  146MOL0     H19649   3.576   4.541   1.890 -1.3240  3.6060  2.8121
  146MOL0     H19650   3.454   4.664   1.846 -0.3236  0.6236  0.9670
  146MOL0     H19651   3.316   4.488   1.735 -1.1331 -0.7337  0.8226
  146MOL0     H19652   3.442   4.363   1.746 -2.0824 -0.1211 -1.2566
  146MOL0     H19653   3.406   4.435   2.003  2.6662 -0.8447 -2.7138
  146MOL0     H19654   3.258   4.497   1.925  0.0175  1.1638 -4.9231
  146MOL0     H19655   3.349   4.210   1.954 -1.0572 -1.3718  0.8566
  146MOL0     H19656   3.199   4.292   2.006  1.2844  3.7966  0.0161
  146MOL0     H19657   3.115   4.284   1.767  0.6541 -1.3483 -0.4140
  146MOL0     H19658   3.275   4.236   1.712  0.7979 -0.1098  0.7354
  146MOL0     H19659   3.256   4.028   1.836 -1.0928 -0.9691  0.8092
  146MOL0     H19660   3.123   4.047   1.719  0.8308 -2.0325  0.1220
  146MOL0     H19661   2.885   4.057   1.820  3.4190 -0.0701 -1.4457
  146MOL0     H19662   2.712   4.114   2.136 -1.5850  0.1608 -2.6180
  146MOL0     H19663   2.687   4.033   1.987 -0.4642  0.0395 -0.3914
  146MOL0     H19664   2.717   3.812   2.106 -3.0809 -1.6803  0.8279
  146MOL0     H19665   2.571   3.895   2.135  0.0230 -3.2770  1.4089
  146MOL0     H19666   2.635   3.806   2.336  1.4130  0.0254  0.7554
  146MOL0     H19667   2.630   3.994   2.334  1.2845  1.3937 -1.3665
  146MOL0     H19668   2.886   3.978   2.335  1.6873 -1.2367 -0.1432
  146MOL0     H19669   2.872   3.799   2.316  0.1780  0.4013 -0.3836
  146MOL0     H19670   2.797   3.887   2.733 -1.8559  2.0282 -0.9386
  146MOL0     H19671   2.873   4.117   2.959 -0.2603 -0.4366  0.4288
  146MOL0     H19672   2.810   3.956   2.953  1.1262 -0.0013  2.8706
  146MOL0     H19673   2.968   3.973   3.013  0.7714 -2.5998 -1.5321
  146MOL0     H19674   3.500   4.047   2.891  3.0655 -0.6822  3.7032
  146MOL0     H19675   3.660   4.137   3.056  0.7429  1.6829  1.2077
  146MOL0     H19676   3.663   4.285   3.323 -0.8731 -1.2610 -1.9031
  146MOL0     H19677   3.815   4.244   3.241  1.2513  0.5808 -0.3262
  146MOL0     H19678   3.897   4.446   3.228 -1.4267  2.4700 -0.4499
  146MOL0     H19679   3.764   4.508   3.339  2.1238  1.6151 -2.2328
  146MOL0     H19680   3.944   4.470   3.488 -0.6291  0.1129 -1.4582
  146MOL0     H19681   3.971   4.301   3.414 -1.4509 -2.0212  1.3144
  146MOL0     H19682   3.720   4.395   3.553 -0.7608 -2.3496 -0.6291
  146MOL0     H19683   3.769   4.233   3.539  0.3788 -0.0885 -2.1191
  146MOL0     H19684   3.896   4.447   3.718  0.5068 -0.5676  2.6292
  146MOL0     H19685   3.969   4.284   3.678  1.7035  0.7999  2.6119
  146MOL0     H19686   3.686   4.340   3.795 -0.0686  0.9371 -2.4959
  146MOL0     H19687   3.747   4.186   3.760 -0.4259 -0.4405  1.3589
  146MOL0     H19688   3.848   4.365   3.988 -1.4095 -1.1783  2.3558
  146MOL0     H19689   3.954   4.240   3.917  0.7649 -0.1026 -0.9584
  146MOL0     H19690   3.760   4.091   3.982 -0.0077 -0.7008  0.2861
  146MOL0     H19691   3.668   4.217   4.047 -0.3034 -2.0110 -2.6930
  146MOL0     H19692   3.460   4.507   3.067  3.1788  1.7525 -4.4938
  146MOL0     H19693   3.293   4.423   2.907 -2.2390 -3.2005  0.8923
  146MOL0     H19694   3.221   4.074   2.590  1.1014 -4.1663  0.1674
  146MOL0     H19695   3.085   3.968   2.422 -2.9227  1.7011 -1.0553
  146MOL0     H19696   4.014   4.702   1.644  1.6436 -0.3702  0.4039
  146MOL0     H19697   4.176   4.898   1.651 -0.1544 -1.1799 -0.7059
  146MOL0     H19698   4.138   5.532   1.704 -1.1813 -0.6849 -2.2882
  146MOL0     H19699   4.326   5.646   1.772 -0.8900 -0.9458  1.7916
  146MOL0     H19700   4.686   5.729   1.778  0.5553  0.3036  0.6610
  146MOL0     H19701   4.524   5.743   1.831 -0.4310 -0.7560 -0.7969
  146MOL0     H19702   4.695   5.641   2.005  0.3453 -0.1142  0.5545
  146MOL0     H19703   4.700   5.500   1.890 -0.1758  1.3201 -0.0315
  146MOL0     H19704   4.568   5.459   2.095  1.0095  1.2725 -0.3310
  146MOL0     H19705   4.467   5.441   1.959 -0.9685  1.3484  0.6124
  146MOL0     H19706   4.334   5.574   2.120  1.0918 -3.3645 -0.5550
  146MOL0     H19707   4.374   5.687   1.985 -0.5442  2.1077  1.1480
  146MOL0     H19708   4.555   5.861   2.304 -4.1696  2.5786  0.2178
  146MOL0     H19709   4.565   5.339   1.574 -1.4588 -2.0581  0.9661
  146MOL0     H19710   4.364   5.208   1.556 -0.5054 -0.9657  1.1725
  147MOL0     O19711   2.270   9.189  10.295 -0.3289  0.4535  0.0668
  147MOL0     C19712   2.285   9.293  10.227  1.0663 -0.2790  0.7493
  147MOL0     O19713   2.196   9.351  10.150 -0.2934  0.6330  0.1636
  147MOL0     C19714   2.062   9.310  10.140  0.5699  0.2319  0.2430
  147MOL0     C19715   1.998   9.205  10.204  0.4757 -0.6889 -0.4542
  147MOL0     C19716   1.861   9.179  10.187  0.2414 -0.3747 -0.0983
  147MOL0     C19717   1.778   9.247  10.098 -0.2707  0.0295 -0.2285
  147MOL0     O19718   1.648   9.227  10.058 -0.6167  1.0357 -0.3780
  147MOL0     C19719   1.580   9.136  10.142  0.3361  0.1365 -0.2509
  147MOL0     C19720   1.455   9.096  10.071  0.1195 -0.1321 -0.0782
  147MOL0     C19721   1.339   9.201  10.064  0.5957 -0.1966  0.2286
  147MOL0     C19722   1.221   9.158   9.969 -0.9021  0.0106  0.8318
  147MOL0     C19723   1.194   9.274   9.873 -0.7398  0.1529  0.1719
  147MOL0     C19724   1.116   9.238   9.745  0.3500  0.6944 -1.3277
  147MOL0     C19725   0.984   9.155   9.769 -0.1822 -0.5942  0.9035
  147MOL0     C19726   0.888   9.215   9.876 -0.1481  0.0882 -0.6380
  147MOL0     N19727   0.747   9.156   9.873 -0.3979  0.0465 -0.7638
  147MOL0     C19728   0.676   9.129   9.764  0.0990 -0.4308 -0.3035
  147MOL0     C19729   0.553   9.098   9.809  0.8110 -0.6142 -0.1347
  147MOL0     C19730   0.436   9.062   9.735 -0.1843 -0.0354 -0.3661
  147MOL0     C19731   0.321   9.161   9.753 -0.1921  0.1295 -0.1873
  147MOL0     C19732   0.186   9.104   9.694 -0.6346  0.6447  0.6252
  147MOL0     C19733   0.135   9.211   9.595 -0.0782  0.4410  0.0442
  147MOL0     O19734  -0.000   9.173   9.556 -0.2513  0.2915 -0.3405
  147MOL0     C19735  -0.005   9.155   9.428 -1.0503  0.4453  0.6240
  147MOL0     C19736   0.073   9.048   9.370 -0.7600 -0.5731 -0.2430
  147MOL0     C19737   0.074   9.026   9.232 -0.3193  0.4370 -0.1672
  147MOL0     C19738   0.165   8.916   9.185 -0.3417  0.4772 -0.7730
  147MOL0     C19739  -0.003   9.114   9.143  1.1635 -0.5387 -1.0255
  147MOL0     C19740  -0.017   9.105   8.998  0.4969  1.7065  0.7019
  147MOL0     O19741  -0.141   9.156   8.952 -0.0373 -0.2506  0.1925
  147MOL0     C19742  -0.179   9.129   8.824  0.2699  0.7140 -0.1298
  147MOL0     C19743  -0.251   9.011   8.792 -0.2279  0.8959 -0.0157
  147MOL0     C19744  -0.301   9.003   8.665 -0.2366 -0.9692 -0.0703
  147MOL0     C19745  -0.318   9.117   8.587 -0.2129  0.0406 -0.0056
  147MOL0     O19746  -0.375   9.104   8.465  0.3248  0.3950  0.5436
  147MOL0     C19747  -0.405   9.226   8.389 -0.5888  0.0047  0.2296
  147MOL0     C19748  -0.282   9.281   8.299  0.1580  0.0822 -0.5386
  147MOL0     C19749  -0.335   9.402   8.214  0.1452  0.0463  0.3977
  147MOL0     C19750  -0.215   9.489   8.172  0.0056 -0.3761 -0.1549
  147MOL0     C19751  -0.236   9.631   8.116 -0.0700  1.0379  0.1417
  147MOL0     C19752  -0.318   9.715   8.214 -0.5825  0.2014 -0.0477
  147MOL0     C19753  -0.248   9.740   8.346 -0.2607  0.0248  0.3849
  147MOL0     C19754  -0.129   9.832   8.320  0.1329  0.2917 -0.1204
  147MOL0    Cl19755  -0.000   9.729   8.272 -0.2370 -0.0404 -0.0086
  147MOL0     C19756  -0.260   9.237   8.623 -0.5057 -0.9633 -0.6536
  147MOL0     C19757  -0.185   9.246   8.739 -0.3344  0.7995  0.3803
  147MOL0     O19758   0.071   9.061   8.930  0.2293  0.8259 -0.1109
  147MOL0     C19759  -0.085   9.216   9.205  0.8094 -0.0463 -0.0095
  147MOL0     C19760  -0.088   9.239   9.343 -0.3549 -0.3072 -0.1072
  147MOL0     N19761   0.561   9.072   9.944 -0.0270  0.0585 -0.1860
  147MOL0     N19762   0.675   9.111   9.987 -0.1387 -0.5743 -0.8347
  147MOL0     C19763   1.845   9.349  10.038  0.6127 -0.2440  0.6466
  147MOL0     C19764   1.980   9.383  10.061 -0.3147  0.3970  0.2173
  147MOL0     C19765   2.424   9.357  10.229  0.7070 -0.1978 -0.0513
  147MOL0     C19766   2.463   9.456  10.139 -0.5435  0.2631  0.2689
  147MOL0     C19767   2.590   9.500  10.136 -0.4565  0.6336 -1.2317
  147MOL0     C19768   2.693   9.454  10.233  0.5492 -0.3362 -0.4416
  147MOL0     O19769   2.822   9.507  10.221  0.3164 -0.0128  0.4362
  147MOL0     C19770   2.927   9.428  10.283 -0.0597  0.6066 -0.0401
  147MOL0     C19771   2.961   9.298  10.209  0.7016  0.1921 -0.9436
  147MOL0     C19772   3.017   9.327  10.066  0.3531 -0.4684  0.5755
  147MOL0     C19773   3.136   9.229  10.040 -0.4660  0.1395 -0.1953
  147MOL0     C19774   3.108   9.079  10.060  0.3152 -0.4474  0.5940
  147MOL0     C19775   3.089   8.961  10.051 -0.9158  0.5894 -0.1377
  147MOL0     C19776   2.650   9.362  10.329  0.5628  0.8342  0.2330
  147MOL0     C19777   2.518   9.303  10.322 -0.4231 -1.1138 -0.9812
  147MOL0     H19778   2.039   9.139  10.280 -1.4565 -1.8664 -0.3440
  147MOL0     H19779   1.821   9.098  10.248 -1.4090  1.5558  1.4971
  147MOL0     H19780   1.641   9.047  10.158 -2.2201 -1.6001  0.4975
  147MOL0     H19781   1.556   9.183  10.237  0.0517 -1.2916  0.4082
  147MOL0     H19782   1.483   9.066   9.970 -1.8488  1.5645 -1.2279
  147MOL0     H19783   1.419   9.011  10.130  1.6031  0.5716  1.9524
  147MOL0     H19784   1.301   9.222  10.165  0.9691 -0.3587  0.4059
  147MOL0     H19785   1.369   9.296  10.019 -1.1934 -0.0664 -0.7890
  147MOL0     H19786   1.242   9.068   9.911 -2.7500  0.8830 -1.3279
  147MOL0     H19787   1.130   9.135  10.026 -1.9829 -2.8251 -1.7742
  147MOL0     H19788   1.131   9.343   9.929  0.1431  0.2690  1.0483
  147MOL0     H19789   1.280   9.330   9.835 -1.6717  1.3830 -0.1917
  147MOL0     H19790   1.079   9.331   9.702  0.3944  1.4214  0.1454
  147MOL0     H19791   1.174   9.180   9.672 -1.5023 -1.5809 -1.1311
  147MOL0     H19792   0.946   9.167   9.667  1.6264  1.2923  0.4005
  147MOL0     H19793   1.012   9.050   9.788 -0.5439 -0.6275  1.2862
  147MOL0     H19794   0.864   9.321   9.864 -2.8827 -0.7358 -4.8976
  147MOL0     H19795   0.936   9.199   9.972 -1.7020 -1.4513 -0.0626
  147MOL0     H19796   0.713   9.148   9.663  0.2711  1.3638  0.0493
  147MOL0     H19797   0.468   9.066   9.630 -2.3730  0.4525 -1.0787
  147MOL0     H19798   0.406   8.962   9.769 -0.9419  0.5056  0.6036
  147MOL0     H19799   0.354   9.252   9.703  3.9298 -1.1939 -0.2079
  147MOL0     H19800   0.312   9.181   9.860 -3.6704  1.8019 -0.6640
  147MOL0     H19801   0.108   9.083   9.768 -2.6820 -1.2507 -1.8907
  147MOL0     H19802   0.213   9.010   9.645 -5.5225 -0.8568  0.3359
  147MOL0     H19803   0.199   9.236   9.510 -1.0254  0.2631 -0.7492
  147MOL0     H19804   0.105   9.301   9.650  0.7243  1.4161 -1.0765
  147MOL0     H19805   0.140   8.995   9.438 -1.0002  0.1691  0.5962
  147MOL0     H19806   0.249   8.912   9.256 -0.0471  0.2253 -1.1328
  147MOL0     H19807   0.108   8.823   9.177 -2.4632  1.2139  3.0252
  147MOL0     H19808   0.209   8.923   9.085 -1.8846  0.0762 -1.5018
  147MOL0     H19809  -0.253   8.930   8.864  0.8670  0.4594 -0.4522
  147MOL0     H19810  -0.329   8.904   8.630 -0.9994 -1.2229  1.1619
  147MOL0     H19811  -0.474   9.208   8.307  0.1930  2.4864 -1.0705
  147MOL0     H19812  -0.439   9.304   8.459  2.1254  1.6482 -0.1706
  147MOL0     H19813  -0.188   9.304   8.351 -0.3678  0.6435  0.1723
  147MOL0     H19814  -0.249   9.194   8.241  1.0895 -0.5683  0.9199
  147MOL0     H19815  -0.419   9.455   8.260 -3.7520 -4.5976 -0.6427
  147MOL0     H19816  -0.384   9.356   8.128  0.7829 -5.2401  2.5032
  147MOL0     H19817  -0.138   9.491   8.249  2.9343 -0.8082 -2.8916
  147MOL0     H19818  -0.161   9.432   8.096  0.9719 -3.1272  2.3961
  147MOL0     H19819  -0.281   9.626   8.016  1.6019  1.6864 -0.6679
  147MOL0     H19820  -0.135   9.660   8.088 -0.1195 -0.3006 -1.5912
  147MOL0     H19821  -0.349   9.812   8.176  0.9829  0.7121 -0.1198
  147MOL0     H19822  -0.410   9.661   8.235  0.7626 -2.7297 -1.1180
  147MOL0     H19823  -0.221   9.643   8.390  0.7277 -1.2864 -2.8050
  147MOL0     H19824  -0.314   9.797   8.412  0.1403 -1.0051  1.7139
  147MOL0     H19825  -0.110   9.892   8.410 -0.3830  3.2819 -1.8783
  147MOL0     H19826  -0.143   9.915   8.250  3.8279  1.0992 -0.0972
  147MOL0     H19827  -0.277   9.333   8.577 -0.7454 -2.0205 -2.8938
  147MOL0     H19828  -0.150   9.344   8.768 -0.0184  1.1743 -1.1882
  147MOL0     H19829  -0.148   9.288   9.153  1.2032  0.9044  0.7930
  147MOL0     H19830  -0.142   9.322   9.389  0.8654  0.1027  0.6319
  147MOL0     H19831   1.784   9.400   9.964 -0.0990 -3.2510 -1.0470
  147MOL0     H19832   2.015   9.466  10.001  0.6688 -1.2013 -1.5639
  147MOL0     H19833   2.382   9.478  10.071 -1.7769 -0.8725  1.3164
  147MOL0     H19834   2.623   9.571  10.061 -0.5031  4.0080  1.6990
  147MOL0     H19835   3.021   9.484  10.277 -1.4361  3.0456  0.1457
  147MOL0     H19836   2.919   9.397  10.388 -0.8498 -0.5975 -0.4341
  147MOL0     H19837   2.869   9.238  10.202 -0.3676  1.6973 -0.2090
  147MOL0     H19838   3.033   9.246  10.273  2.6406  2.4602 -1.1577
  147MOL0     H19839   3.059   9.428  10.068 -2.6660  0.9246 -0.5182
  147MOL0     H19840   2.930   9.324  10.000 -0.9308  1.7437  2.0419
  147MOL0     H19841   3.216   9.258  10.108 -1.9982  4.6650  0.0343
  147MOL0     H19842   3.180   9.255   9.943  0.2358  2.0901  0.5858
  147MOL0     H19843   3.084   8.854  10.043 -1.2535  0.6628 -1.1486
  147MOL0     H19844   2.721   9.310  10.393  0.6663 -0.0752 -0.5969
  147MOL0     H19845   2.488   9.230  10.396 -1.6592  1.5921  1.3794
  148MOL0     O19846   6.324  11.499   4.771 -0.2693 -0.5672 -0.2671
  148MOL0     C19847   6.258  11.398   4.804 -1.1112  0.2502 -0.3918
  148MOL0     O19848   6.242  11.342   4.934 -0.8021 -0.2769  0.1159
  148MOL0     C19849   6.289  11.425   5.042 -1.0929  0.5326 -0.3571
  148MOL0     C19850   6.247  11.559   5.065 -0.0325  1.3015  1.5001
  148MOL0     C19851   6.278  11.625   5.184  0.1033 -0.3936 -0.2524
  148MOL0     C19852   6.353  11.558   5.280 -0.2288  0.2283  0.2205
  148MOL0     O19853   6.384  11.618   5.401 -0.3932  0.2278 -0.1960
  148MOL0     C19854   6.441  11.755   5.394  0.4065 -0.1974  0.8098
  148MOL0     C19855   6.585  11.749   5.445 -0.6583 -0.9925  0.7151
  148MOL0     C19856   6.594  11.688   5.575 -0.2755  0.5281 -0.7987
  148MOL0     C19857   6.692  11.758   5.678  0.7770 -0.1938  0.8550
  148MOL0     C19858   6.706  11.697   5.813  0.6354 -0.4954  0.6023
  148MOL0     C19859   6.577  11.644   5.880 -0.0555 -0.1982 -0.3632
  148MOL0     C19860   6.619  11.568   6.006 -0.6555 -0.8196 -0.3610
  148MOL0     C19861   6.498  11.523   6.094  0.1539 -0.2024 -0.0423
  148MOL0     N19862   6.400  11.436   6.029  0.0405  0.3030 -0.2464
  148MOL0     C19863   6.409  11.296   6.035  0.3807  0.2221  0.4869
  148MOL0     C19864   6.286  11.254   6.005  0.8682  0.6056  0.2015
  148MOL0     C19865   6.246  11.104   6.029  0.1878 -0.0302  0.2993
  148MOL0     C19866   6.289  11.025   5.918 -0.1337 -0.1977  0.4812
  148MOL0     C19867   6.283  10.874   5.951 -0.0828 -0.4724 -0.2976
  148MOL0     C19868   6.422  10.820   5.968  0.2568  0.2005  0.0509
  148MOL0     O19869   6.485  10.885   6.079 -0.7047  0.2289  0.5414
  148MOL0     C19870   6.620  10.915   6.083 -0.1410 -0.4234 -0.6043
  148MOL0     C19871   6.713  10.831   6.019  0.0957  0.9025 -0.2873
  148MOL0     C19872   6.852  10.844   6.030  0.1758  0.3619 -0.1204
  148MOL0     C19873   6.930  10.727   5.983 -0.1211 -1.2121 -0.5600
  148MOL0     C19874   6.899  10.948   6.117 -0.2437 -0.9099 -0.4525
  148MOL0     C19875   7.045  10.972   6.173  0.7734 -0.2691  0.5112
  148MOL0     O19876   7.067  11.085   6.244  0.5438 -0.7175 -0.5100
  148MOL0     C19877   7.185  11.120   6.295 -0.7247  1.0467  0.0060
  148MOL0     C19878   7.254  11.038   6.379  0.0072 -0.0729 -0.4074
  148MOL0     C19879   7.379  11.070   6.432  0.5206  0.1140  0.7842
  148MOL0     C19880   7.450  11.187   6.392  1.1415  0.7207 -0.3089
  148MOL0     O19881   7.565  11.226   6.459 -0.1287  1.0910 -0.4938
  148MOL0     C19882   7.672  11.290   6.386 -0.1768  0.5933 -0.3861
  148MOL0     C19883   7.810  11.279   6.454 -0.4143  0.2236  0.1783
  148MOL0     C19884   7.829  11.376   6.569 -0.0403 -0.6055  0.5291
  148MOL0     C19885   7.979  11.414   6.591  0.0356 -0.6144  0.7701
  148MOL0     C19886   8.006  11.467   6.735 -0.8010  0.1357 -0.0832
  148MOL0     C19887   8.166  11.493   6.753 -0.7704  0.7606  0.8168
  148MOL0     C19888   8.249  11.366   6.771 -0.3808  0.0342 -0.1472
  148MOL0     C19889   8.394  11.395   6.717 -0.0979  0.6989 -0.6808
  148MOL0    Cl19890   8.473  11.238   6.700 -0.2680 -0.2150  0.1144
  148MOL0     C19891   7.395  11.251   6.283 -0.4828  0.2995 -0.1941
  148MOL0     C19892   7.264  11.229   6.243  0.3781 -0.1775  0.3004
  148MOL0     O19893   7.124  10.892   6.140 -0.5661  0.1852 -1.0573
  148MOL0     C19894   6.803  11.042   6.164 -0.2563  0.4910 -0.0235
  148MOL0     C19895   6.669  11.021   6.154 -0.3787  0.0804 -0.3852
  148MOL0     N19896   6.200  11.366   5.983 -0.8257  0.0736 -0.1081
  148MOL0     N19897   6.278  11.470   5.981  0.4665 -0.3563 -0.2371
  148MOL0     C19898   6.389  11.420   5.260 -0.8592  0.3320  0.1016
  148MOL0     C19899   6.360  11.362   5.135 -0.2754 -0.1370 -0.0458
  148MOL0     C19900   6.201  11.323   4.694 -0.4043 -0.2687  1.0819
  148MOL0     C19901   6.152  11.193   4.727  0.4186  0.1264 -0.0594
  148MOL0     C19902   6.107  11.105   4.623 -0.7917 -0.3096  0.1661
  148MOL0     C19903   6.125  11.150   4.489  0.3023 -0.0305 -1.2140
  148MOL0     O19904   6.075  11.070   4.390 -0.6824  0.4942  0.3133
  148MOL0     C19905   6.086  10.934   4.379  1.3614  0.0045  0.2929
  148MOL0     C19906   5.953  10.864   4.411  0.4339  0.7657  0.4808
  148MOL0     C19907   5.975  10.711   4.400 -0.3120 -0.0352  0.9349
  148MOL0     C19908   5.839  10.644   4.390  0.1461  0.0614  0.2388
  148MOL0     C19909   5.773  10.636   4.520 -0.2782 -0.2712  0.4480
  148MOL0     C19910   5.742  10.610   4.633  0.4413  0.2192  0.6030
  148MOL0     C19911   6.173  11.281   4.460  0.3689 -0.6287 -0.8469
  148MOL0     C19912   6.217  11.366   4.562  0.1134  0.8135  0.6567
  148MOL0     H19913   6.195  11.622   4.993  3.5165 -0.5186 -3.1603
  148MOL0     H19914   6.234  11.723   5.196 -0.3822 -0.5336 -0.8284
  148MOL0     H19915   6.433  11.798   5.294 -1.1828  0.1228  1.0493
  148MOL0     H19916   6.378  11.802   5.469  0.1642 -2.0676  1.8375
  148MOL0     H19917   6.654  11.689   5.385 -0.9784 -4.6983  3.6868
  148MOL0     H19918   6.615  11.854   5.444 -2.0329 -0.5632 -1.4801
  148MOL0     H19919   6.491  11.689   5.613 -0.6920  4.1227 -1.6281
  148MOL0     H19920   6.634  11.587   5.565 -1.3208 -0.4272  3.0155
  148MOL0     H19921   6.790  11.759   5.629  0.1843 -6.3823 -1.4374
  148MOL0     H19922   6.646  11.857   5.689  1.6824  0.0496  2.8440
  148MOL0     H19923   6.789  11.627   5.824  1.6102  0.6972  1.0592
  148MOL0     H19924   6.738  11.776   5.881  0.7581 -1.3846  1.6126
  148MOL0     H19925   6.521  11.731   5.916  0.0166 -1.4448  3.0939
  148MOL0     H19926   6.510  11.587   5.816 -1.3117  1.1744 -0.3152
  148MOL0     H19927   6.680  11.480   5.982  1.9647  0.7808  0.1545
  148MOL0     H19928   6.676  11.640   6.065 -5.1587  3.1626 -0.2559
  148MOL0     H19929   6.438  11.610   6.122 -1.4179  0.7593 -5.2788
  148MOL0     H19930   6.536  11.459   6.174  1.4719 -3.9446 -3.3113
  148MOL0     H19931   6.504  11.246   6.055  1.5972  2.1854 -0.1465
  148MOL0     H19932   6.286  11.084   6.129 -0.4397  1.1736  0.8160
  148MOL0     H19933   6.137  11.102   6.037 -0.1977  3.9113 -1.3053
  148MOL0     H19934   6.388  11.059   5.885 -0.5565  1.0525  0.4561
  148MOL0     H19935   6.221  11.040   5.833 -1.1061 -1.3411  1.0262
  148MOL0     H19936   6.229  10.826   5.869  1.0761  1.1426 -2.0988
  148MOL0     H19937   6.220  10.864   6.040 -2.9409  3.5237 -1.5589
  148MOL0     H19938   6.487  10.844   5.882  3.0854 -0.7957  1.7941
  148MOL0     H19939   6.405  10.714   5.986 -1.9995  0.5117  0.0518
  148MOL0     H19940   6.674  10.742   5.970  1.7076 -0.3150  0.5327
  148MOL0     H19941   6.979  10.689   6.073 -1.6585 -0.6752  0.5337
  148MOL0     H19942   6.865  10.659   5.926 -0.6038 -0.1451 -1.3189
  148MOL0     H19943   7.011  10.772   5.924  0.8744 -1.8179  0.2999
  148MOL0     H19944   7.206  10.945   6.408  2.1552 -1.9405 -2.4873
  148MOL0     H19945   7.411  11.004   6.512  0.0974 -2.4240 -0.9990
  148MOL0     H19946   7.678  11.238   6.290 -0.6386 -2.0382  0.8987
  148MOL0     H19947   7.644  11.395   6.373 -5.3604 -0.6088 -1.1701
  148MOL0     H19948   7.818  11.177   6.493 -0.2316 -1.1243 -3.0595
  148MOL0     H19949   7.891  11.297   6.383  1.4176  1.5560  2.4478
  148MOL0     H19950   7.804  11.330   6.665 -0.2236  0.3769  0.9676
  148MOL0     H19951   7.778  11.472   6.554 -2.5447 -1.8164  0.9398
  148MOL0     H19952   8.043  11.325   6.586 -2.0602 -2.1677  0.1305
  148MOL0     H19953   8.001  11.493   6.519  0.7551  2.5438  4.1454
  148MOL0     H19954   7.975  11.399   6.814  1.1354  0.0893  0.6959
  148MOL0     H19955   7.958  11.564   6.755 -2.1612 -0.9509  2.3616
  148MOL0     H19956   8.207  11.540   6.663  1.0625 -2.3289 -0.1024
  148MOL0     H19957   8.185  11.551   6.844 -1.1292  0.1284  1.3022
  148MOL0     H19958   8.197  11.291   6.712 -1.5269  0.8058 -0.1591
  148MOL0     H19959   8.263  11.322   6.870 -2.1629  0.8139  0.4995
  148MOL0     H19960   8.454  11.467   6.772 -0.2252  0.8816 -0.7795
  148MOL0     H19961   8.397  11.426   6.613 -1.7443 -0.7301 -1.2172
  148MOL0     H19962   7.447  11.338   6.243 -1.7777  0.1668 -2.2724
  148MOL0     H19963   7.224  11.302   6.172  0.5363 -0.0819  0.3106
  148MOL0     H19964   6.837  11.119   6.232 -2.2903  1.5758 -0.1689
  148MOL0     H19965   6.605  11.082   6.217 -0.0395  4.0150 -3.5068
  148MOL0     H19966   6.450  11.367   5.333  0.5298  1.6146 -0.0817
  148MOL0     H19967   6.380  11.256   5.128  0.9292 -0.1855  2.6296
  148MOL0     H19968   6.141  11.157   4.829 -1.4891  3.4249  1.0443
  148MOL0     H19969   6.071  11.003   4.636  1.1088 -0.9039  1.1150
  148MOL0     H19970   6.116  10.891   4.283  4.0668  1.6901  0.2958
  148MOL0     H19971   6.168  10.908   4.446  2.5708 -0.1177 -1.1841
  148MOL0     H19972   5.877  10.893   4.338  0.6361  2.5736  0.9516
  148MOL0     H19973   5.912  10.889   4.509  2.8827  1.9360  1.2906
  148MOL0     H19974   6.032  10.663   4.481  3.3642  0.3156 -1.2084
  148MOL0     H19975   6.035  10.687   4.312 -2.0475  1.5396 -0.7637
  148MOL0     H19976   5.859  10.539   4.364 -0.1384 -0.8927  3.4895
  148MOL0     H19977   5.780  10.679   4.304 -0.4826 -0.1183  0.5897
  148MOL0     H19978   5.703  10.582   4.729 -1.0400  0.7954  0.1933
  148MOL0     H19979   6.203  11.312   4.361  0.8509 -1.4131 -0.9587
  148MOL0     H19980   6.264  11.460   4.536  2.3953 -0.4502 -0.0395
  149MOL0     O19981   0.389   0.477   9.773 -1.1658  0.3373  0.8244
  149MOL0     C19982   0.301   0.389   9.777 -0.4431 -0.2723 -0.8383
  149MOL0     O19983   0.298   0.271   9.861  0.5808  0.2619 -0.7878
  149MOL0     C19984   0.412   0.238   9.940  0.9843  0.5476  0.3718
  149MOL0     C19985   0.520   0.161   9.893 -0.5091  0.9915  0.1700
  149MOL0     C19986   0.635   0.147   9.977  0.1928  0.8920  0.3759
  149MOL0     C19987   0.629   0.204  10.108  0.4458  0.0281  0.6459
  149MOL0     O19988   0.720   0.156  10.202 -0.8550  0.5017 -0.1475
  149MOL0     C19989   0.853   0.210  10.170 -0.1527  0.0898 -0.2228
  149MOL0     C19990   0.856   0.351  10.229 -0.4992  1.0047  0.2419
  149MOL0     C19991   0.882   0.447  10.110  0.5611  0.6768  0.7380
  149MOL0     C19992   0.903   0.586  10.160  1.2365 -0.2709 -0.0856
  149MOL0     C19993   0.773   0.668  10.194 -0.4013 -0.7641  0.1711
  149MOL0     C19994   0.731   0.757  10.085 -0.3119  0.1811  0.9526
  149MOL0     C19995   0.593   0.831  10.083 -0.8934  0.3439 -0.1141
  149MOL0     C19996   0.475   0.750  10.030 -0.5173 -0.2685 -0.0091
  149MOL0     N19997   0.354   0.827  10.017  0.2091 -0.4084  0.4782
  149MOL0     C19998   0.241   0.795   9.937  0.3872  0.0927  0.0561
  149MOL0     C19999   0.142   0.879   9.974 -0.3989 -1.4862  0.3012
  149MOL0     C20000  -0.001   0.878   9.930  0.6510 -0.4914  1.0662
  149MOL0     C20001  -0.096   0.882  10.053 -0.4831 -0.5290  0.1258
  149MOL0     C20002  -0.244   0.869  10.020  0.0058  0.6259  0.1722
  149MOL0     C20003  -0.335   0.857  10.143 -0.6061  0.0954 -0.7447
  149MOL0     O20004  -0.299   0.746  10.216 -0.5804 -0.6858  0.1858
  149MOL0     C20005  -0.370   0.708  10.327 -0.0138 -0.9320  0.5412
  149MOL0     C20006  -0.493   0.756  10.363 -0.1181  0.1187  0.5142
  149MOL0     C20007  -0.557   0.702  10.473  0.0037 -1.3014  0.5714
  149MOL0     C20008  -0.709   0.737  10.472 -0.2693  0.7479 -0.2241
  149MOL0     C20009  -0.489   0.607  10.558  0.1447  0.2755  0.3775
  149MOL0     C20010  -0.553   0.550  10.676  1.5962 -0.0589 -0.1477
  149MOL0     O20011  -0.497   0.445  10.725 -0.1501  0.2865 -0.3815
  149MOL0     C20012  -0.537   0.372  10.833 -0.1766  0.1356 -1.3529
  149MOL0     C20013  -0.646   0.402  10.914 -1.1085 -0.7743 -0.5917
  149MOL0     C20014  -0.682   0.320  11.019  0.3715 -0.0864 -0.3104
  149MOL0     C20015  -0.602   0.202  11.049 -0.9594 -0.9827  0.3402
  149MOL0     O20016  -0.637   0.091  11.130 -0.1896  0.7670  0.0285
  149MOL0     C20017  -0.777   0.100  11.182 -0.1373 -0.0960  0.6318
  149MOL0     C20018  -0.791   0.179  11.318  0.1915 -0.3893  0.2892
  149MOL0     C20019  -0.698   0.131  11.427  0.1305 -0.6091 -0.9101
  149MOL0     C20020  -0.706   0.233  11.555 -0.4971  0.1033  0.5439
  149MOL0     C20021  -0.588   0.331  11.541 -0.5987 -0.1344  0.2991
  149MOL0     C20022  -0.553   0.404  11.664 -0.1913 -0.6131 -0.4007
  149MOL0     C20023  -0.654   0.512  11.706  0.4901  0.7862  0.7178
  149MOL0     C20024  -0.616   0.586  11.831 -0.5057  1.3386 -0.8112
  149MOL0    Cl20025  -0.617   0.483  11.976  0.1390  0.6730  0.2286
  149MOL0     C20026  -0.480   0.185  10.978  0.8848 -0.0887 -0.4726
  149MOL0     C20027  -0.454   0.265  10.870  0.6486 -0.2495  0.3729
  149MOL0     O20028  -0.624   0.621  10.744  0.0889  0.7070 -0.8627
  149MOL0     C20029  -0.366   0.558  10.509  0.0595 -0.5355 -0.1600
  149MOL0     C20030  -0.311   0.616  10.397 -0.3361  1.2683 -0.6670
  149MOL0     N20031   0.201   0.974  10.063 -1.0224  0.0475  0.3134
  149MOL0     N20032   0.322   0.943  10.082  0.2408 -0.2305  0.7607
  149MOL0     C20033   0.520   0.282  10.143 -0.6843 -0.1932  0.2567
  149MOL0     C20034   0.405   0.288  10.066 -0.4929 -0.2848 -0.2913
  149MOL0     C20035   0.166   0.427   9.715 -0.5816 -0.7638  0.2411
  149MOL0     C20036   0.150   0.547   9.646 -0.3235 -0.3764 -0.1818
  149MOL0     C20037   0.021   0.598   9.611 -0.7746 -0.0149  0.6203
  149MOL0     C20038  -0.093   0.537   9.650  0.1574  0.4645 -0.9177
  149MOL0     O20039  -0.226   0.571   9.620 -0.0305 -0.1193 -0.0600
  149MOL0     C20040  -0.244   0.676   9.527  0.0072 -0.7962  1.0593
  149MOL0     C20041  -0.234   0.813   9.602 -0.7804  0.1514 -0.2343
  149MOL0     C20042  -0.314   0.925   9.537 -0.3764 -0.6038  0.8517
  149MOL0     C20043  -0.381   1.032   9.620 -0.8454  0.3094  0.2152
  149MOL0     C20044  -0.452   0.978   9.737  0.3903  0.2764  0.2327
  149MOL0     C20045  -0.516   0.913   9.820  0.0274 -1.3568  0.4839
  149MOL0     C20046  -0.085   0.419   9.723  0.5294 -0.3643 -0.1714
  149MOL0     C20047   0.041   0.374   9.762 -0.2984  0.9191  0.7965
  149MOL0     H20048   0.514   0.121   9.792  0.7168 -1.2549  0.9220
  149MOL0     H20049   0.720   0.090   9.940 -2.1479 -0.9716 -2.5676
  149MOL0     H20050   0.926   0.143  10.216 -1.4387 -1.7134 -0.6913
  149MOL0     H20051   0.876   0.211  10.063  3.4386 -1.9917  0.3634
  149MOL0     H20052   0.765   0.381  10.281 -1.6907 -2.2215  0.2757
  149MOL0     H20053   0.932   0.356  10.306 -1.1733 -2.4775  1.3084
  149MOL0     H20054   0.984   0.426  10.076 -0.3475  0.7490 -2.2934
  149MOL0     H20055   0.808   0.435  10.031  1.1362  0.9938  0.1383
  149MOL0     H20056   0.955   0.589  10.256 -1.7082 -0.1382  1.6421
  149MOL0     H20057   0.962   0.647  10.091 -0.8198  0.5659 -1.2012
  149MOL0     H20058   0.689   0.603  10.221  0.8314 -2.1036  0.9651
  149MOL0     H20059   0.801   0.725  10.284  0.2429  0.2094 -0.6220
  149MOL0     H20060   0.801   0.839  10.105  0.9967 -0.5932 -0.3290
  149MOL0     H20061   0.754   0.723   9.984  3.1957  1.8545  1.0653
  149MOL0     H20062   0.570   0.860  10.186  1.5179 -1.5108  1.0511
  149MOL0     H20063   0.609   0.927  10.033 -3.2664 -0.4904 -2.7571
  149MOL0     H20064   0.447   0.668  10.098  0.7016 -1.3420 -0.7504
  149MOL0     H20065   0.485   0.701   9.932 -0.1427 -1.3939  0.5671
  149MOL0     H20066   0.238   0.716   9.864  0.8984  1.3516 -1.3638
  149MOL0     H20067  -0.029   0.959   9.861 -2.2140 -3.2705 -1.3316
  149MOL0     H20068  -0.015   0.789   9.868  1.8892  0.6607 -1.0196
  149MOL0     H20069  -0.104   0.983  10.096 -3.0554 -0.9538  0.8518
  149MOL0     H20070  -0.060   0.807  10.123 -0.9359  0.1468  1.1117
  149MOL0     H20071  -0.264   0.776   9.966  1.9882 -0.1234  0.6347
  149MOL0     H20072  -0.284   0.950   9.958 -1.1339 -0.6705 -0.8545
  149MOL0     H20073  -0.439   0.851  10.112 -1.5131 -0.1702  2.0635
  149MOL0     H20074  -0.328   0.946  10.207  0.9310 -2.2562  2.6494
  149MOL0     H20075  -0.551   0.827  10.305 -2.1264 -1.7432  0.1146
  149MOL0     H20076  -0.770   0.648  10.493  1.3868 -1.5608 -3.9521
  149MOL0     H20077  -0.727   0.807  10.554 -3.2587 -0.7679  0.5629
  149MOL0     H20078  -0.745   0.779  10.378  0.4856  0.9574 -0.4215
  149MOL0     H20079  -0.722   0.476  10.891  0.8611  1.4809 -0.1660
  149MOL0     H20080  -0.777   0.330  11.070  0.9619 -0.7866  0.9816
  149MOL0     H20081  -0.846   0.136  11.106  0.2844  0.1364  0.3620
  149MOL0     H20082  -0.798  -0.007  11.194  1.5228 -0.8307 -2.2197
  149MOL0     H20083  -0.772   0.282  11.286 -0.2301 -0.4951 -0.3242
  149MOL0     H20084  -0.895   0.171  11.352  0.8017 -0.5238  2.2217
  149MOL0     H20085  -0.593   0.129  11.395  0.6356  2.8495  0.0478
  149MOL0     H20086  -0.727   0.028  11.449  2.9162 -1.0827  0.9847
  149MOL0     H20087  -0.800   0.288  11.554 -1.2406 -1.1253 -0.0589
  149MOL0     H20088  -0.691   0.169  11.642 -1.9129 -1.9734 -0.6535
  149MOL0     H20089  -0.607   0.399  11.458  2.0150 -4.9538 -5.0079
  149MOL0     H20090  -0.504   0.277  11.494 -2.7301 -1.1890 -2.6236
  149MOL0     H20091  -0.529   0.335  11.745  1.1512 -1.6242 -1.6089
  149MOL0     H20092  -0.462   0.458  11.638 -0.9352  0.9079  0.0284
  149MOL0     H20093  -0.749   0.461  11.723  0.7304  0.3057  0.6200
  149MOL0     H20094  -0.669   0.578  11.620  0.5306  2.6470  2.0736
  149MOL0     H20095  -0.697   0.658  11.842 -1.0555  0.5611  0.3638
  149MOL0     H20096  -0.527   0.648  11.815  3.2148 -3.6334 -1.7525
  149MOL0     H20097  -0.412   0.102  10.994 -0.8752 -1.7346 -1.1599
  149MOL0     H20098  -0.379   0.244  10.794 -2.4572 -3.0961 -2.2843
  149MOL0     H20099  -0.305   0.484  10.559  1.9704  0.8158 -0.3869
  149MOL0     H20100  -0.215   0.575  10.369 -0.5408  0.7407 -0.6170
  149MOL0     H20101   0.512   0.339  10.235  1.2563 -2.9064  2.2699
  149MOL0     H20102   0.321   0.345  10.105  0.4379  0.6444  0.4340
  149MOL0     H20103   0.240   0.600   9.614 -0.2395 -1.4346 -1.7864
  149MOL0     H20104   0.011   0.682   9.544  0.1361  0.8180  1.4933
  149MOL0     H20105  -0.176   0.679   9.441 -0.3132  2.0317  0.8264
  149MOL0     H20106  -0.338   0.670   9.472  2.8158 -0.6947 -4.4340
  149MOL0     H20107  -0.129   0.844   9.599 -0.9402  0.6175 -1.0913
  149MOL0     H20108  -0.259   0.809   9.709  0.9602  2.0611  0.3028
  149MOL0     H20109  -0.397   0.873   9.489 -1.9490  0.9589  1.7523
  149MOL0     H20110  -0.245   0.965   9.463 -2.3945 -0.7632 -1.2394
  149MOL0     H20111  -0.454   1.086   9.559  0.0050  0.0085 -1.1213
  149MOL0     H20112  -0.309   1.106   9.657 -0.3067 -0.8285  1.5272
  149MOL0     H20113  -0.579   0.853   9.883 -3.2417  0.8299 -0.4016
  149MOL0     H20114  -0.178   0.367   9.744 -2.4207  3.3079 -2.8092
  149MOL0     H20115   0.053   0.280   9.815  3.8633  0.5458 -0.3914
  150MOL0     O20116   5.469   4.259   0.568  0.2881 -0.1889 -0.2002
  150MOL0     C20117   5.526   4.244   0.672 -0.0153  1.6828 -0.7293
  150MOL0     O20118   5.654   4.201   0.690  0.8197 -0.0177 -0.1923
  150MOL0     C20119   5.751   4.249   0.602  0.9328  0.6258 -0.7569
  150MOL0     C20120   5.789   4.382   0.607 -1.2368 -0.2979 -0.6286
  150MOL0     C20121   5.872   4.435   0.507 -0.3913  0.4433 -0.2628
  150MOL0     C20122   5.923   4.357   0.407  0.2370 -0.4816 -0.3771
  150MOL0     O20123   6.005   4.399   0.309 -0.2295 -0.5828 -0.1372
  150MOL0     C20124   6.088   4.511   0.310 -0.0608  1.3595 -0.0554
  150MOL0     C20125   6.164   4.515   0.178 -0.8051  0.4080 -0.2750
  150MOL0     C20126   6.284   4.604   0.179 -0.0102  0.3519  0.3997
  150MOL0     C20127   6.349   4.599   0.039 -0.7756  1.1158  0.4484
  150MOL0     C20128   6.479   4.679   0.029  0.5485  0.2483  0.7708
  150MOL0     C20129   6.590   4.588   0.084  0.6639  0.0636  0.0488
  150MOL0     C20130   6.725   4.664   0.066 -0.6809 -0.2492  0.6129
  150MOL0     C20131   6.815   4.593  -0.036  0.5247  0.7422 -0.3972
  150MOL0     N20132   6.758   4.608  -0.165 -0.0094  0.3786  0.6603
  150MOL0     C20133   6.743   4.721  -0.235 -0.4379 -0.4896 -0.0563
  150MOL0     C20134   6.673   4.695  -0.343 -0.3230  0.3335  0.2675
  150MOL0     C20135   6.642   4.784  -0.463  0.0850 -0.2431 -0.5334
  150MOL0     C20136   6.563   4.909  -0.429 -0.1624  0.0299  0.7133
  150MOL0     C20137   6.648   5.015  -0.356 -0.1566 -0.3802  0.7624
  150MOL0     C20138   6.586   5.156  -0.362  0.2547 -0.1862 -0.1379
  150MOL0     O20139   6.552   5.211  -0.496  0.3515 -0.1084  0.3579
  150MOL0     C20140   6.658   5.263  -0.574 -0.1900  0.2321 -1.5772
  150MOL0     C20141   6.792   5.292  -0.526 -0.2150 -0.5323 -0.2160
  150MOL0     C20142   6.889   5.356  -0.608  0.8283 -1.1904  0.4203
  150MOL0     C20143   7.029   5.375  -0.541  0.8042  0.2505  0.1492
  150MOL0     C20144   6.853   5.401  -0.740 -0.6621  0.0599  0.2263
  150MOL0     C20145   6.957   5.452  -0.847 -0.3652  0.0950 -0.2766
  150MOL0     O20146   7.074   5.512  -0.816 -0.5552  0.1975  0.5826
  150MOL0     C20147   7.164   5.557  -0.910 -0.2843  0.1043  0.8690
  150MOL0     C20148   7.297   5.530  -0.890  0.3000 -0.5419 -0.6666
  150MOL0     C20149   7.394   5.570  -0.989  0.1081  0.3553  0.0204
  150MOL0     C20150   7.351   5.646  -1.104  0.7041 -0.2931 -1.4954
  150MOL0     O20151   7.443   5.694  -1.192  0.3440 -0.6375  0.4589
  150MOL0     C20152   7.403   5.779  -1.296 -0.2557  1.0564  0.0866
  150MOL0     C20153   7.524   5.837  -1.368  0.2116 -0.1176 -1.3966
  150MOL0     C20154   7.612   5.720  -1.411 -0.3113 -0.9819  0.7134
  150MOL0     C20155   7.731   5.770  -1.488 -0.1018 -0.7470  0.6475
  150MOL0     C20156   7.773   5.660  -1.588 -0.3667  1.0264 -0.0199
  150MOL0     C20157   7.691   5.672  -1.721 -0.4189 -0.3093 -0.2834
  150MOL0     C20158   7.747   5.584  -1.828  0.3378  0.6620  0.3883
  150MOL0     C20159   7.670   5.450  -1.834 -0.2492  0.5415  0.2146
  150MOL0    Cl20160   7.769   5.355  -1.942 -0.0027 -0.0788  0.8532
  150MOL0     C20161   7.215   5.676  -1.109 -0.2866 -0.5149 -0.1008
  150MOL0     C20162   7.126   5.618  -1.026 -0.0955 -0.5610  0.2866
  150MOL0     O20163   6.918   5.426  -0.961  0.1200 -0.5498  0.5092
  150MOL0     C20164   6.723   5.368  -0.782  0.1780  0.3286 -0.6777
  150MOL0     C20165   6.627   5.307  -0.699 -0.2773 -0.5674  0.7635
  150MOL0     N20166   6.645   4.563  -0.351 -0.0992 -0.3529 -0.2880
  150MOL0     N20167   6.692   4.512  -0.240  0.3565  0.6130 -0.4581
  150MOL0     C20168   5.884   4.218   0.400 -0.1982  0.6552  0.0448
  150MOL0     C20169   5.792   4.172   0.491 -0.7460  0.5912 -0.2554
  150MOL0     C20170   5.431   4.222   0.785 -0.1452 -0.1190 -0.1832
  150MOL0     C20171   5.471   4.152   0.907  1.7877 -0.0312 -0.3467
  150MOL0     C20172   5.376   4.123   1.007  0.5479 -0.7283 -0.1784
  150MOL0     C20173   5.238   4.164   0.994 -0.1441  0.2005 -0.0316
  150MOL0     O20174   5.159   4.143   1.109 -0.0024 -0.2422 -0.0300
  150MOL0     C20175   5.029   4.115   1.086  0.2610  0.7166  0.7026
  150MOL0     C20176   4.950   4.133   1.213 -0.4303 -0.0586 -0.3476
  150MOL0     C20177   4.952   4.279   1.275  0.6715  0.4143  0.4747
  150MOL0     C20178   4.889   4.379   1.187 -0.0317 -1.0715 -0.7015
  150MOL0     C20179   4.806   4.472   1.270  0.1532 -0.4739  0.5099
  150MOL0     C20180   4.769   4.560   1.344 -0.4646  0.4864  0.4835
  150MOL0     C20181   5.196   4.221   0.868  0.4386 -0.2120 -0.1106
  150MOL0     C20182   5.295   4.253   0.767 -0.1677 -0.3418 -0.0908
  150MOL0     H20183   5.764   4.441   0.694  0.7575 -1.2887  0.6798
  150MOL0     H20184   5.915   4.535   0.506 -0.6446  0.7144  3.4067
  150MOL0     H20185   6.041   4.609   0.324 -1.8588  0.6307 -0.7196
  150MOL0     H20186   6.153   4.489   0.395 -1.4566  0.3264  0.7747
  150MOL0     H20187   6.196   4.414   0.153 -0.7149  0.0294  1.2833
  150MOL0     H20188   6.082   4.550   0.115 -2.2032  1.2674  1.9391
  150MOL0     H20189   6.246   4.705   0.197 -0.6597  0.5414 -1.7065
  150MOL0     H20190   6.358   4.581   0.255  3.0564  4.2091 -1.0395
  150MOL0     H20191   6.376   4.496   0.013  0.6300  1.8497 -1.1729
  150MOL0     H20192   6.278   4.635  -0.036 -3.0278 -0.7101  1.5507
  150MOL0     H20193   6.489   4.692  -0.079  0.8187  0.9230  0.8697
  150MOL0     H20194   6.474   4.781   0.070  0.3407  0.9244 -0.8529
  150MOL0     H20195   6.581   4.552   0.186  0.4264 -2.4244 -0.7960
  150MOL0     H20196   6.573   4.507   0.012 -3.2555 -0.3774  1.2367
  150MOL0     H20197   6.701   4.765   0.031 -0.7298 -0.8454 -1.2052
  150MOL0     H20198   6.779   4.662   0.160  4.8072 -5.3699 -1.9942
  150MOL0     H20199   6.824   4.485  -0.021  0.1292  0.4208 -2.2246
  150MOL0     H20200   6.914   4.638  -0.044 -0.2599  2.2553 -2.1484
  150MOL0     H20201   6.786   4.820  -0.224 -3.1352  0.9511 -1.2065
  150MOL0     H20202   6.741   4.811  -0.502 -0.4224 -1.3188 -2.7038
  150MOL0     H20203   6.583   4.740  -0.544 -0.2961 -0.3415 -0.2018
  150MOL0     H20204   6.481   4.889  -0.360  1.7699  3.1558  4.3249
  150MOL0     H20205   6.524   4.944  -0.525  0.1066 -0.5217  0.4004
  150MOL0     H20206   6.745   5.012  -0.406 -1.3198 -6.5335 -2.0389
  150MOL0     H20207   6.671   4.998  -0.250  2.7644  1.7061  0.5835
  150MOL0     H20208   6.650   5.232  -0.316 -0.1659  0.9404 -1.3455
  150MOL0     H20209   6.489   5.151  -0.311  0.5889 -3.1312  0.3881
  150MOL0     H20210   6.824   5.253  -0.430  1.5028  1.2600  0.0137
  150MOL0     H20211   7.044   5.481  -0.518 -0.1483  1.0791 -2.6214
  150MOL0     H20212   7.029   5.312  -0.451 -2.0166 -0.4948 -0.2597
  150MOL0     H20213   7.118   5.348  -0.599  1.1472  0.8831  0.3692
  150MOL0     H20214   7.332   5.492  -0.794 -1.7031 -0.1316  0.2849
  150MOL0     H20215   7.501   5.558  -0.973  0.6055 -2.8618 -3.9914
  150MOL0     H20216   7.339   5.714  -1.355  1.1199 -3.1798  2.8385
  150MOL0     H20217   7.339   5.858  -1.256 -2.3313 -0.2741 -0.4507
  150MOL0     H20218   7.502   5.906  -1.450  3.7641  2.0576 -0.7363
  150MOL0     H20219   7.581   5.900  -1.299 -3.0264  0.5339  0.9085
  150MOL0     H20220   7.561   5.674  -1.496 -0.5160  1.2266 -0.4502
  150MOL0     H20221   7.644   5.657  -1.328  0.4059 -0.5695  0.7511
  150MOL0     H20222   7.698   5.848  -1.558 -0.7998 -0.0286  1.7487
  150MOL0     H20223   7.812   5.812  -1.427 -0.4806 -0.3782  0.9007
  150MOL0     H20224   7.757   5.564  -1.538 -0.7350  1.3267  0.4423
  150MOL0     H20225   7.880   5.669  -1.607 -0.0200  0.0693  1.3477
  150MOL0     H20226   7.584   5.655  -1.706  0.1494 -3.7007  0.7995
  150MOL0     H20227   7.701   5.776  -1.751 -1.3386 -0.9885 -3.3146
  150MOL0     H20228   7.850   5.562  -1.799 -0.5961 -2.7201  1.5308
  150MOL0     H20229   7.756   5.635  -1.925  2.6768  0.3830  0.4027
  150MOL0     H20230   7.578   5.473  -1.888  0.6141 -1.4414 -2.2650
  150MOL0     H20231   7.670   5.402  -1.735  4.6252  0.3559  0.3777
  150MOL0     H20232   7.180   5.734  -1.194  0.9469  1.0766  0.4414
  150MOL0     H20233   7.027   5.664  -1.027  0.6413  1.1339 -1.7254
  150MOL0     H20234   6.701   5.381  -0.887  0.5953 -2.3665 -1.1780
  150MOL0     H20235   6.524   5.286  -0.724 -0.8239  0.6006  1.9079
  150MOL0     H20236   5.921   4.162   0.314 -1.0615  2.2205 -1.4118
  150MOL0     H20237   5.749   4.073   0.502  0.7730  0.0860  1.8189
  150MOL0     H20238   5.568   4.115   0.936  1.9089  0.8675  0.4267
  150MOL0     H20239   5.395   4.064   1.096  0.4591  0.7830  0.8969
  150MOL0     H20240   4.985   4.181   1.011 -0.0793 -0.5542 -0.2638
  150MOL0     H20241   5.012   4.015   1.044 -3.0139 -0.0120  3.3602
  150MOL0     H20242   4.985   4.059   1.286  0.0878  1.6792  1.2456
  150MOL0     H20243   4.844   4.107   1.210 -1.1317  1.4815  3.8130
  150MOL0     H20244   5.045   4.310   1.322  0.8222  0.8363 -0.0910
  150MOL0     H20245   4.874   4.261   1.350 -1.3303  0.0751 -1.5707
  150MOL0     H20246   4.831   4.326   1.111  2.0970 -3.5821 -0.7492
  150MOL0     H20247   4.969   4.443   1.148  2.4129 -2.5863  1.4841
  150MOL0     H20248   4.735   4.638   1.409  3.3531  1.5953  1.3640
  150MOL0     H20249   5.091   4.242   0.851 -0.0928 -2.1253  0.6287
  150MOL0     H20250   5.245   4.294   0.679 -1.8155  2.3664  1.9484
  151MOL0     O20251   6.506   2.567   4.652 -0.4860  0.2470 -0.3243
  151MOL0     C20252   6.599   2.652   4.664  0.7536 -0.0739 -1.3195
  151MOL0     O20253   6.578   2.785   4.689 -0.7040 -1.0461  0.1184
  151MOL0     C20254   6.447   2.836   4.682 -0.1512 -0.3769  0.7770
  151MOL0     C20255   6.420   2.935   4.581  0.3158  0.4791  0.4621
  151MOL0     C20256   6.300   3.007   4.583 -0.5542  1.2186 -0.7330
  151MOL0     C20257   6.199   2.971   4.676 -0.6994 -0.5588 -0.0914
  151MOL0     O20258   6.080   3.025   4.663 -0.7098  0.0450  0.0883
  151MOL0     C20259   6.068   3.156   4.713 -0.0820 -0.9005  0.8698
  151MOL0     C20260   5.926   3.208   4.674 -0.5026  0.7550 -0.8651
  151MOL0     C20261   5.889   3.190   4.526  0.5239 -0.5224 -0.5680
  151MOL0     C20262   5.997   3.227   4.430 -0.1580  0.1213 -0.1387
  151MOL0     C20263   5.960   3.224   4.284 -0.0201 -0.1683 -0.2297
  151MOL0     C20264   5.955   3.087   4.219  0.1145  0.0115 -0.0685
  151MOL0     C20265   5.955   3.103   4.064  0.8414  0.3572 -0.5325
  151MOL0     C20266   5.973   2.957   4.011  0.5086 -0.2420  0.0929
  151MOL0     N20267   5.927   2.939   3.872 -0.2643  0.0527  0.0744
  151MOL0     C20268   6.005   2.907   3.768 -0.1205  0.7835  0.0810
  151MOL0     C20269   5.919   2.900   3.664  0.9806 -1.0765  0.1599
  151MOL0     C20270   5.946   2.884   3.517 -0.2882 -1.0910 -0.6080
  151MOL0     C20271   6.035   2.998   3.474  1.0821 -0.3279 -0.1650
  151MOL0     C20272   5.965   3.135   3.507  0.8346  0.0573  0.1543
  151MOL0     C20273   5.856   3.195   3.415 -0.6123 -0.0112  0.0819
  151MOL0     O20274   5.917   3.230   3.289 -0.5290 -0.0248 -0.4174
  151MOL0     C20275   5.897   3.160   3.173  0.0352 -0.5189 -0.1729
  151MOL0     C20276   5.775   3.122   3.124  0.0769  0.3957  0.3179
  151MOL0     C20277   5.758   3.042   3.011 -0.0236 -0.3858 -0.5877
  151MOL0     C20278   5.619   3.022   2.956 -0.0195  0.6363 -0.3816
  151MOL0     C20279   5.876   3.001   2.940  0.9853 -0.2723  0.9957
  151MOL0     C20280   5.868   2.902   2.828  1.0380  0.8176 -0.0477
  151MOL0     O20281   5.964   2.907   2.736 -0.2224 -0.1792 -0.3523
  151MOL0     C20282   5.947   2.850   2.609 -0.1140 -0.4868  1.1163
  151MOL0     C20283   5.825   2.830   2.536  0.0194  0.2062  0.1759
  151MOL0     C20284   5.831   2.794   2.400 -0.0511  0.8713 -0.1811
  151MOL0     C20285   5.950   2.745   2.346 -0.3287 -0.0315 -0.9628
  151MOL0     O20286   5.944   2.672   2.231  0.0404  0.1856 -0.0956
  151MOL0     C20287   5.958   2.529   2.244  1.0150  1.1706 -0.0108
  151MOL0     C20288   5.923   2.454   2.112 -0.6456 -0.4014 -0.5670
  151MOL0     C20289   5.990   2.518   1.986  0.4007  1.1744 -0.2818
  151MOL0     C20290   6.138   2.495   1.990 -0.3987  0.1767 -0.4333
  151MOL0     C20291   6.234   2.534   1.872  0.5260 -0.1387  0.4463
  151MOL0     C20292   6.227   2.452   1.746 -1.1007  0.1533  1.1576
  151MOL0     C20293   6.324   2.520   1.646  0.1319 -0.0740 -0.6093
  151MOL0     C20294   6.367   2.435   1.533  0.6599  0.4448  0.5846
  151MOL0    Cl20295   6.233   2.387   1.436  0.2186  0.4742 -0.2179
  151MOL0     C20296   6.065   2.757   2.420 -0.5230  0.2776  0.7522
  151MOL0     C20297   6.065   2.808   2.543 -0.2361  0.2504 -1.0216
  151MOL0     O20298   5.802   2.800   2.851  0.6904  0.0545  0.0025
  151MOL0     C20299   5.987   3.044   2.983 -0.7434 -0.4352 -0.4272
  151MOL0     C20300   6.009   3.125   3.091  0.8349  0.1230  0.7951
  151MOL0     N20301   5.787   2.920   3.705 -0.5278 -0.0416  0.2842
  151MOL0     N20302   5.796   2.943   3.832 -0.3580 -0.3025  0.6535
  151MOL0     C20303   6.224   2.867   4.764 -0.1427 -0.8959 -0.2170
  151MOL0     C20304   6.342   2.797   4.763  0.3483 -0.3597 -0.1643
  151MOL0     C20305   6.743   2.605   4.668  0.5252 -0.6142  0.0982
  151MOL0     C20306   6.846   2.701   4.654  0.4027 -0.3576  0.2610
  151MOL0     C20307   6.976   2.670   4.666 -0.0570  0.4375  0.2526
  151MOL0     C20308   7.018   2.540   4.704  0.5978  0.9112 -0.8604
  151MOL0     O20309   7.148   2.525   4.744 -0.8740 -0.0166  0.2231
  151MOL0     C20310   7.191   2.407   4.821  0.4228 -0.7526 -0.2167
  151MOL0     C20311   7.353   2.388   4.834  0.8269  0.0181 -0.2664
  151MOL0     C20312   7.403   2.486   4.934 -0.3684 -0.2034 -0.8291
  151MOL0     C20313   7.385   2.445   5.092  0.0388  0.7929  1.3077
  151MOL0     C20314   7.404   2.302   5.115 -0.0172  0.5321  0.5725
  151MOL0     C20315   7.427   2.182   5.125 -1.2705  0.2172  0.2456
  151MOL0     C20316   6.919   2.439   4.713  0.2555  0.8336  0.5612
  151MOL0     C20317   6.782   2.468   4.692 -0.0406 -0.0714  0.2985
  151MOL0     H20318   6.500   2.961   4.512  1.6811 -0.0528  1.7990
  151MOL0     H20319   6.271   3.077   4.506 -0.3983  0.4438 -1.5104
  151MOL0     H20320   6.090   3.161   4.820  1.2671 -1.8454  0.6665
  151MOL0     H20321   6.138   3.219   4.657 -0.4178 -1.7806 -0.6184
  151MOL0     H20322   5.853   3.149   4.731 -0.2372 -1.2517 -2.4540
  151MOL0     H20323   5.924   3.314   4.698  0.0701  1.3712 -3.2402
  151MOL0     H20324   5.845   3.091   4.510  1.8046 -1.5397  1.6861
  151MOL0     H20325   5.804   3.257   4.507 -0.1629 -1.3101 -0.3168
  151MOL0     H20326   6.030   3.328   4.453  0.5989 -0.1622  0.0425
  151MOL0     H20327   6.084   3.161   4.444 -0.8211 -0.9593 -0.9538
  151MOL0     H20328   5.860   3.268   4.278  0.2142  0.2780 -1.0760
  151MOL0     H20329   6.027   3.295   4.234 -2.0448  0.8101 -1.6852
  151MOL0     H20330   6.043   3.032   4.252 -0.4972  0.4288  2.4790
  151MOL0     H20331   5.859   3.039   4.244 -0.8339  1.8332 -0.0601
  151MOL0     H20332   5.859   3.141   4.028 -0.0910 -2.4789 -1.3309
  151MOL0     H20333   6.027   3.174   4.023 -1.7816  3.6649  0.1451
  151MOL0     H20334   5.915   2.883   4.067 -0.0921  0.2462  0.1303
  151MOL0     H20335   6.077   2.922   4.016  0.1084 -1.4597  0.2866
  151MOL0     H20336   6.108   2.873   3.776 -0.7411 -1.6590 -1.1628
  151MOL0     H20337   6.006   2.794   3.502  1.9226  0.0068  1.0881
  151MOL0     H20338   5.857   2.883   3.454 -1.0185  0.7039  0.3411
  151MOL0     H20339   6.043   2.995   3.365 -2.7840 -1.3227 -0.5765
  151MOL0     H20340   6.138   3.002   3.510  1.7746 -0.4815 -2.0548
  151MOL0     H20341   6.046   3.208   3.507  0.7053  0.2016  0.0913
  151MOL0     H20342   5.930   3.148   3.609  0.2674  5.3227 -0.4651
  151MOL0     H20343   5.812   3.286   3.458 -1.6576  0.2248 -1.4033
  151MOL0     H20344   5.770   3.126   3.412 -1.5757  0.3692  6.0926
  151MOL0     H20345   5.680   3.142   3.172  0.4126 -0.7494  1.5442
  151MOL0     H20346   5.622   3.056   2.852  1.1812  1.7022 -0.0239
  151MOL0     H20347   5.570   2.925   2.968 -3.1480  1.8480 -2.1045
  151MOL0     H20348   5.547   3.097   2.989 -0.8042 -0.9850  1.7632
  151MOL0     H20349   5.735   2.868   2.583 -0.3198 -0.5322  0.1418
  151MOL0     H20350   5.735   2.781   2.350 -1.4953 -0.6815  2.7290
  151MOL0     H20351   6.059   2.496   2.270 -0.0285 -2.6638 -0.2849
  151MOL0     H20352   5.896   2.502   2.330  0.8392 -3.2087 -1.2940
  151MOL0     H20353   5.952   2.350   2.130 -0.2164 -0.6394 -2.4737
  151MOL0     H20354   5.815   2.466   2.102 -0.5696 -0.0578 -0.9924
  151MOL0     H20355   5.963   2.623   1.981 -4.2155  0.2718  0.6213
  151MOL0     H20356   5.943   2.478   1.895  3.7345 -1.1923 -1.1271
  151MOL0     H20357   6.185   2.558   2.066  0.6692 -1.1916  0.0890
  151MOL0     H20358   6.158   2.390   2.014  0.4294  0.1868 -1.0506
  151MOL0     H20359   6.331   2.551   1.919 -1.5851 -0.1353  5.4780
  151MOL0     H20360   6.210   2.637   1.845 -0.1619 -1.1403 -3.3687
  151MOL0     H20361   6.254   2.348   1.766 -2.6560 -0.0685  2.3029
  151MOL0     H20362   6.125   2.450   1.707 -0.5942 -1.7925 -0.2496
  151MOL0     H20363   6.413   2.552   1.701  1.4784 -3.1756 -0.7857
  151MOL0     H20364   6.269   2.603   1.600  1.6675  0.6696 -1.1729
  151MOL0     H20365   6.423   2.347   1.568  0.0469  0.1296  0.7784
  151MOL0     H20366   6.436   2.481   1.462 -0.6581 -1.0937 -1.8442
  151MOL0     H20367   6.157   2.721   2.375 -1.5285 -4.0518  1.7517
  151MOL0     H20368   6.157   2.811   2.599 -1.9579 -0.4089  2.0578
  151MOL0     H20369   6.082   3.008   2.944  0.2339 -0.4755  1.7941
  151MOL0     H20370   6.106   3.154   3.130  0.8373 -0.9642  1.6425
  151MOL0     H20371   6.137   2.842   4.824  0.6857 -0.9831  1.0016
  151MOL0     H20372   6.373   2.722   4.836 -0.2644 -0.0486  0.4204
  151MOL0     H20373   6.824   2.801   4.620 -1.0530  0.1991  2.6326
  151MOL0     H20374   7.043   2.755   4.656 -0.6536  0.9807  0.8044
  151MOL0     H20375   7.147   2.407   4.921  0.2801  0.7966 -0.2566
  151MOL0     H20376   7.151   2.316   4.776 -0.4640 -0.4041 -0.1491
  151MOL0     H20377   7.410   2.387   4.741  0.6438 -2.6227 -0.4155
  151MOL0     H20378   7.355   2.284   4.868  0.5768 -0.0404 -0.4276
  151MOL0     H20379   7.360   2.585   4.916  0.3017  0.0966 -0.7811
  151MOL0     H20380   7.511   2.488   4.922 -0.5385  0.0428 -2.5892
  151MOL0     H20381   7.281   2.459   5.125 -1.0164  1.8408 -2.0754
  151MOL0     H20382   7.452   2.513   5.146  2.3875  1.4188 -2.0989
  151MOL0     H20383   7.458   2.083   5.150  2.6615  1.7381  2.3740
  151MOL0     H20384   6.926   2.335   4.743 -2.1586  1.1347  2.5386
  151MOL0     H20385   6.715   2.383   4.691 -1.2740  0.8795 -0.0139
  152MOL0     O20386   2.242   4.774   0.194 -0.7453  0.2909  0.0397
  152MOL0     C20387   2.346   4.838   0.190  0.4623 -0.7775 -0.6389
  152MOL0     O20388   2.422   4.871   0.304  0.8575  0.4384 -0.2912
  152MOL0     C20389   2.382   4.829   0.427 -0.3092  0.2605  0.2966
  152MOL0     C20390   2.486   4.775   0.502  0.8196  0.3089  0.1481
  152MOL0     C20391   2.452   4.726   0.626  0.5970  0.6159 -0.3636
  152MOL0     C20392   2.325   4.735   0.675  0.4234  1.4793 -0.3644
  152MOL0     O20393   2.288   4.716   0.813 -0.6245 -0.9846  0.2898
  152MOL0     C20394   2.384   4.650   0.892 -0.5284  0.2661 -0.2935
  152MOL0     C20395   2.353   4.654   1.046 -0.2387 -0.1246 -0.1093
  152MOL0     C20396   2.235   4.558   1.087  0.7726  0.4935  0.6646
  152MOL0     C20397   2.212   4.573   1.255  0.2913 -0.5112  0.0238
  152MOL0     C20398   2.067   4.616   1.284  0.4958  0.0906 -0.5284
  152MOL0     C20399   2.040   4.631   1.432  0.7198 -0.3718 -0.3766
  152MOL0     C20400   2.099   4.743   1.510 -0.4024 -1.1017  0.3602
  152MOL0     C20401   2.029   4.771   1.647  0.2268  0.6051 -0.9819
  152MOL0     N20402   2.091   4.873   1.738 -0.1554 -0.1737  0.7164
  152MOL0     C20403   2.137   4.991   1.693 -0.1551  0.6284  0.2776
  152MOL0     C20404   2.218   5.036   1.789  0.1533 -0.1659 -0.3821
  152MOL0     C20405   2.304   5.154   1.776  1.4781 -0.7193  0.2543
  152MOL0     C20406   2.415   5.169   1.874  1.0273 -0.1827  0.1818
  152MOL0     C20407   2.521   5.259   1.814  0.4358 -0.3203  0.0397
  152MOL0     C20408   2.658   5.220   1.869 -0.3574 -0.3053 -0.2180
  152MOL0     O20409   2.694   5.103   1.787 -0.1014  0.0510 -0.0312
  152MOL0     C20410   2.818   5.051   1.794 -0.5477 -0.4287  0.7419
  152MOL0     C20411   2.836   4.915   1.840 -0.5837 -0.1430 -0.4935
  152MOL0     C20412   2.965   4.860   1.863 -0.3306  0.3119 -0.0139
  152MOL0     C20413   2.969   4.710   1.906  0.4374  0.6984 -0.0131
  152MOL0     C20414   3.075   4.938   1.843  0.1053 -0.4646 -0.1459
  152MOL0     C20415   3.208   4.896   1.885 -0.2689 -0.3000  0.7912
  152MOL0     O20416   3.237   4.876   2.018 -0.0186 -0.1934 -0.7705
  152MOL0     C20417   3.371   4.862   2.056 -0.9865  1.0265  0.7794
  152MOL0     C20418   3.485   4.939   2.009  0.5908  0.3969 -0.1852
  152MOL0     C20419   3.610   4.888   2.047  0.8669  0.4660  0.0719
  152MOL0     C20420   3.632   4.779   2.133  0.3910 -0.1066 -0.2788
  152MOL0     O20421   3.755   4.719   2.159 -0.1788 -0.4370  0.7702
  152MOL0     C20422   3.868   4.757   2.076 -0.6788  0.4915  0.5249
  152MOL0     C20423   4.005   4.694   2.118  0.6800 -1.1718 -0.0181
  152MOL0     C20424   3.983   4.539   2.123 -0.0327 -0.4179  0.4460
  152MOL0     C20425   4.070   4.484   2.230 -0.3092 -0.7360 -0.2401
  152MOL0     C20426   4.225   4.503   2.200  0.1551  0.3645  0.2327
  152MOL0     C20427   4.296   4.401   2.289 -0.3224 -0.8095  0.0242
  152MOL0     C20428   4.315   4.457   2.432  0.4428  0.3603 -1.0973
  152MOL0     C20429   4.377   4.341   2.519  0.4252  0.1991 -0.5910
  152MOL0    Cl20430   4.388   4.380   2.694 -0.0692  0.0804 -0.4586
  152MOL0     C20431   3.516   4.716   2.184 -0.4741 -0.1470 -0.3549
  152MOL0     C20432   3.388   4.755   2.144 -0.7809 -0.4476 -0.2034
  152MOL0     O20433   3.293   4.902   1.788 -0.3677 -0.6884 -0.4592
  152MOL0     C20434   3.057   5.065   1.782  0.4537  0.6205 -0.7574
  152MOL0     C20435   2.929   5.126   1.761  0.4794 -0.8276  0.3239
  152MOL0     N20436   2.228   4.948   1.903  0.5378 -0.3931 -0.3221
  152MOL0     N20437   2.149   4.847   1.863  0.0646  0.1231  0.0701
  152MOL0     C20438   2.222   4.784   0.594  0.2472  0.7145  0.2652
  152MOL0     C20439   2.254   4.828   0.472  0.4685  0.1333  0.1964
  152MOL0     C20440   2.379   4.897   0.059  0.9267 -1.6313  0.4694
  152MOL0     C20441   2.443   5.017   0.055 -0.0263  0.0499  0.0565
  152MOL0     C20442   2.479   5.079  -0.070 -0.0966 -0.2084 -1.1437
  152MOL0     C20443   2.445   5.022  -0.187  0.2970  0.3215  0.0559
  152MOL0     O20444   2.456   5.077  -0.312 -0.4953  0.4148  0.2914
  152MOL0     C20445   2.557   5.174  -0.345 -0.6242  0.1112  0.6428
  152MOL0     C20446   2.697   5.113  -0.346  0.6613  0.7132  1.0626
  152MOL0     C20447   2.796   5.220  -0.360 -0.8658  0.0862  0.1539
  152MOL0     C20448   2.909   5.186  -0.459  0.6862  0.2325  0.3038
  152MOL0     C20449   2.862   5.190  -0.601 -0.8106 -0.1570 -1.1669
  152MOL0     C20450   2.834   5.170  -0.718  0.7843  0.5681 -0.5874
  152MOL0     C20451   2.386   4.898  -0.186  0.4588  0.0615 -0.1950
  152MOL0     C20452   2.344   4.837  -0.064 -0.2437 -0.6290  1.0643
  152MOL0     H20453   2.589   4.764   0.470  1.9982  0.4192  3.4948
  152MOL0     H20454   2.528   4.677   0.686 -0.2378  0.0191  0.2106
  152MOL0     H20455   2.408   4.553   0.848 -1.2052  0.3637 -0.8968
  152MOL0     H20456   2.476   4.709   0.888  0.2334 -0.9443 -2.0491
  152MOL0     H20457   2.436   4.607   1.100  0.7236  0.3860 -1.1100
  152MOL0     H20458   2.340   4.758   1.077 -2.0363 -0.7625  1.4590
  152MOL0     H20459   2.146   4.595   1.036  0.0717  2.4450  3.1324
  152MOL0     H20460   2.261   4.457   1.055  0.6381 -0.0126  2.0746
  152MOL0     H20461   2.230   4.477   1.303  1.7068  0.0092  0.5750
  152MOL0     H20462   2.276   4.646   1.306 -3.0681  3.7782 -1.2215
  152MOL0     H20463   2.039   4.711   1.238 -0.0536 -0.5671 -1.6042
  152MOL0     H20464   2.004   4.538   1.239  0.6818  0.3835 -1.3086
  152MOL0     H20465   1.932   4.636   1.451  0.5633 -4.5786  0.7862
  152MOL0     H20466   2.077   4.539   1.479  1.9862  0.2417 -0.1379
  152MOL0     H20467   2.205   4.723   1.530 -0.0158 -1.1201 -1.5051
  152MOL0     H20468   2.095   4.836   1.454  0.1582 -2.0660 -1.3723
  152MOL0     H20469   2.018   4.683   1.711 -3.4383  1.1337 -0.7011
  152MOL0     H20470   1.930   4.814   1.631 -0.9877 -0.3272  2.8727
  152MOL0     H20471   2.121   5.028   1.593  2.3534  2.7592  0.5646
  152MOL0     H20472   2.341   5.160   1.673 -1.5664 -0.9864 -0.9906
  152MOL0     H20473   2.249   5.249   1.774  5.1951  1.6167 -1.8717
  152MOL0     H20474   2.449   5.067   1.895  0.5038 -0.2007  0.9905
  152MOL0     H20475   2.388   5.220   1.967 -1.7011  1.1235 -1.2092
  152MOL0     H20476   2.497   5.359   1.851 -1.6150 -1.1751  1.1934
  152MOL0     H20477   2.519   5.265   1.704  0.7061 -0.5450  0.0201
  152MOL0     H20478   2.664   5.194   1.975  1.5816 -0.5620 -0.3586
  152MOL0     H20479   2.733   5.299   1.857 -1.5825  1.0428  0.5815
  152MOL0     H20480   2.748   4.868   1.881  0.6206 -1.2601  0.9233
  152MOL0     H20481   3.047   4.652   1.857 -2.3726 -2.6730 -0.9082
  152MOL0     H20482   2.988   4.708   2.013  0.5324  1.3715 -0.0108
  152MOL0     H20483   2.877   4.654   1.886  1.0749 -1.2336  2.0388
  152MOL0     H20484   3.476   5.031   1.951 -0.4636 -0.5435 -1.5833
  152MOL0     H20485   3.699   4.946   2.027  0.8390  1.6992  3.0762
  152MOL0     H20486   3.841   4.725   1.975 -1.5983 -0.2145  0.9815
  152MOL0     H20487   3.885   4.865   2.074  1.1970  0.2832  2.2006
  152MOL0     H20488   4.078   4.730   2.046  0.4531 -0.3790  0.1402
  152MOL0     H20489   4.027   4.733   2.217 -3.1119  0.5027  0.3656
  152MOL0     H20490   4.015   4.502   2.024 -3.1252 -0.0550 -0.8017
  152MOL0     H20491   3.878   4.509   2.128 -1.7551  4.1861 -2.3994
  152MOL0     H20492   4.052   4.524   2.330 -1.0004 -2.3977  0.3317
  152MOL0     H20493   4.056   4.377   2.243  1.4197 -1.1000 -1.0399
  152MOL0     H20494   4.272   4.601   2.212  1.4227 -0.1478 -0.3756
  152MOL0     H20495   4.238   4.469   2.097 -1.0929 -3.3753  1.1356
  152MOL0     H20496   4.240   4.308   2.306 -0.7102 -0.2369  2.2380
  152MOL0     H20497   4.396   4.392   2.246  0.3636  1.0096  1.1579
  152MOL0     H20498   4.223   4.490   2.481  1.5512 -1.2715  2.4998
  152MOL0     H20499   4.386   4.539   2.446  1.0339 -0.5864  2.6905
  152MOL0     H20500   4.477   4.319   2.482  1.1534  0.8814  0.8908
  152MOL0     H20501   4.312   4.254   2.505 -2.2092  1.8896  0.2426
  152MOL0     H20502   3.516   4.634   2.255 -2.1048 -2.8911 -3.2619
  152MOL0     H20503   3.296   4.709   2.177 -2.8538  3.1392 -0.4836
  152MOL0     H20504   3.142   5.112   1.734 -0.9953  0.9004 -3.2576
  152MOL0     H20505   2.918   5.227   1.722  0.9826 -1.0024 -0.2864
  152MOL0     H20506   2.122   4.809   0.627 -1.5895 -2.0242 -2.6875
  152MOL0     H20507   2.171   4.856   0.408  0.4595  1.8370  0.8970
  152MOL0     H20508   2.475   5.064   0.147  1.8311 -0.3816 -0.3224
  152MOL0     H20509   2.522   5.178  -0.065  3.0607 -1.4108 -1.8848
  152MOL0     H20510   2.540   5.212  -0.446  0.0432 -3.2223 -0.8694
  152MOL0     H20511   2.557   5.258  -0.275  0.5310  1.5392 -0.9704
  152MOL0     H20512   2.694   5.053  -0.437  0.4723 -0.5768  1.8915
  152MOL0     H20513   2.708   5.046  -0.260  0.4157 -1.0267 -0.2225
  152MOL0     H20514   2.834   5.244  -0.260  1.0373 -1.1212 -0.2256
  152MOL0     H20515   2.747   5.304  -0.411  2.2324  1.2383 -1.2573
  152MOL0     H20516   2.939   5.085  -0.429 -2.8327 -1.5718 -1.6055
  152MOL0     H20517   2.989   5.256  -0.433 -0.7903  1.0940  2.9629
  152MOL0     H20518   2.838   5.151  -0.824  3.5624 -0.9379 -0.3220
  152MOL0     H20519   2.357   4.851  -0.280  0.7219 -0.8231  0.1531
  152MOL0     H20520   2.286   4.746  -0.054 -0.3726 -0.5532  1.0109
  153MOL0     O20521   0.672   2.023   8.654 -0.0263  0.3391 -0.1591
  153MOL0     C20522   0.570   2.038   8.592  0.4326 -0.1570  1.2192
  153MOL0     O20523   0.452   1.963   8.597  0.0928  0.3294  0.0679
  153MOL0     C20524   0.446   1.851   8.677 -0.5504  1.3648  0.7956
  153MOL0     C20525   0.517   1.840   8.802  0.7138 -0.2836  0.0851
  153MOL0     C20526   0.500   1.724   8.879 -0.1259 -0.7520  0.1837
  153MOL0     C20527   0.430   1.617   8.843  0.9760 -0.5410  0.0296
  153MOL0     O20528   0.428   1.502   8.928  0.3678  0.0239 -0.1470
  153MOL0     C20529   0.294   1.455   8.956  0.4433  0.1476 -0.5481
  153MOL0     C20530   0.288   1.443   9.107  0.0573 -0.5670 -0.5086
  153MOL0     C20531   0.375   1.329   9.161 -0.7862  0.8314  1.1406
  153MOL0     C20532   0.390   1.349   9.318  0.4889  0.0410  1.2033
  153MOL0     C20533   0.255   1.338   9.382  0.7733 -0.7730  0.4113
  153MOL0     C20534   0.269   1.335   9.532  0.2788  0.3969 -0.3403
  153MOL0     C20535   0.133   1.293   9.608  0.0532 -1.6473  0.1463
  153MOL0     C20536   0.147   1.183   9.718  0.4910 -1.0372 -0.2087
  153MOL0     N20537   0.200   1.058   9.672  0.6668  0.8814  0.2211
  153MOL0     C20538   0.332   1.039   9.643 -0.1075 -0.3850  0.2306
  153MOL0     C20539   0.332   0.925   9.562  0.7258 -0.2842 -0.6533
  153MOL0     C20540   0.449   0.832   9.527 -0.1040  0.7541 -0.2094
  153MOL0     C20541   0.536   0.902   9.421  0.6727  0.9789 -0.1871
  153MOL0     C20542   0.443   0.936   9.304 -0.2662 -0.4097 -0.1734
  153MOL0     C20543   0.363   0.815   9.248 -0.2130 -0.6073  1.2586
  153MOL0     O20544   0.314   0.830   9.110 -0.0674 -0.6040  0.3074
  153MOL0     C20545   0.233   0.939   9.084 -0.4533 -0.0618  0.6844
  153MOL0     C20546   0.148   0.998   9.176  0.0069 -0.3095  0.4361
  153MOL0     C20547   0.051   1.091   9.149  0.0523  0.7143  0.0693
  153MOL0     C20548  -0.043   1.131   9.268  0.0329  0.0876 -0.9004
  153MOL0     C20549   0.038   1.138   9.014 -0.5227  0.6303  0.8507
  153MOL0     C20550  -0.062   1.232   8.966 -0.0061 -0.1677  0.2679
  153MOL0     O20551  -0.149   1.186   8.866  0.0175  0.2597  0.2318
  153MOL0     C20552  -0.235   1.270   8.819  0.5319  1.2752  0.4887
  153MOL0     C20553  -0.221   1.395   8.760 -1.1138 -0.0890  0.4010
  153MOL0     C20554  -0.342   1.460   8.721 -0.8324  0.3046 -0.2606
  153MOL0     C20555  -0.465   1.401   8.727 -0.1758  0.2903 -0.2209
  153MOL0     O20556  -0.569   1.494   8.705  0.0247  1.1543 -0.6003
  153MOL0     C20557  -0.687   1.440   8.654  0.4725 -0.3121 -0.1113
  153MOL0     C20558  -0.788   1.539   8.584  0.9521  0.3463 -0.1392
  153MOL0     C20559  -0.895   1.455   8.512  0.7384  0.4152  0.9151
  153MOL0     C20560  -0.993   1.537   8.427 -0.2555  0.8936  0.2304
  153MOL0     C20561  -1.026   1.463   8.288 -0.5400 -0.6588 -0.0551
  153MOL0     C20562  -1.121   1.342   8.307 -1.3302 -0.9928  0.0896
  153MOL0     C20563  -1.125   1.262   8.178  0.5232  0.2130  0.3311
  153MOL0     C20564  -1.228   1.153   8.187  0.8724  0.7554 -0.0266
  153MOL0    Cl20565  -1.390   1.199   8.215 -0.6398 -0.4329 -0.0747
  153MOL0     C20566  -0.481   1.275   8.765  0.5480 -0.2692 -0.4483
  153MOL0     C20567  -0.365   1.209   8.812 -0.1146 -0.7449  0.2625
  153MOL0     O20568  -0.068   1.342   9.018 -0.0376  0.2280 -0.5838
  153MOL0     C20569   0.133   1.088   8.916 -0.2723  1.2700 -0.6292
  153MOL0     C20570   0.216   0.978   8.953  0.7120 -0.4113  0.7220
  153MOL0     N20571   0.197   0.881   9.545 -0.6100 -0.3118  0.0168
  153MOL0     N20572   0.126   0.974   9.606  0.2464  0.0182  0.6361
  153MOL0     C20573   0.349   1.637   8.729  0.3533 -0.8349  0.3990
  153MOL0     C20574   0.362   1.749   8.639 -0.2092  0.0043  0.4336
  153MOL0     C20575   0.564   2.140   8.483  0.0488 -0.0952  0.4645
  153MOL0     C20576   0.695   2.186   8.431 -0.7368 -0.0995  0.7232
  153MOL0     C20577   0.700   2.277   8.320 -0.6910  1.0877 -0.7925
  153MOL0     C20578   0.581   2.327   8.269  0.3502  0.5515  0.1888
  153MOL0     O20579   0.564   2.417   8.166  0.0591 -0.5531  0.6563
  153MOL0     C20580   0.666   2.493   8.109 -0.2608 -0.6299  1.0994
  153MOL0     C20581   0.700   2.613   8.205 -0.2513 -1.5163  0.4463
  153MOL0     C20582   0.770   2.583   8.332 -0.2553  0.3516  0.2456
  153MOL0     C20583   0.794   2.702   8.426 -0.1183 -0.3017 -0.0486
  153MOL0     C20584   0.903   2.666   8.518  1.0183 -0.9144 -0.0010
  153MOL0     C20585   0.998   2.639   8.584  0.2464  0.6578 -0.9800
  153MOL0     C20586   0.460   2.283   8.329 -0.0722  0.1639 -0.0194
  153MOL0     C20587   0.443   2.186   8.431 -0.8375 -0.5222 -0.0572
  153MOL0     H20588   0.564   1.928   8.845  0.9156 -0.1164 -0.4607
  153MOL0     H20589   0.542   1.725   8.979  0.6396  0.6537 -0.1240
  153MOL0     H20590   0.218   1.532   8.936  0.7600  0.4681 -0.5369
  153MOL0     H20591   0.269   1.358   8.913 -2.1728  1.2254 -1.6746
  153MOL0     H20592   0.328   1.536   9.150 -0.3809 -0.2742 -0.7308
  153MOL0     H20593   0.184   1.433   9.138  0.5666 -2.9727  0.6654
  153MOL0     H20594   0.319   1.236   9.149  1.3865 -0.5006  0.7613
  153MOL0     H20595   0.474   1.322   9.114 -1.6518 -0.7929 -0.5972
  153MOL0     H20596   0.455   1.271   9.361 -1.1771 -2.2593 -0.2032
  153MOL0     H20597   0.432   1.448   9.336  1.7981  0.7666 -4.1969
  153MOL0     H20598   0.183   1.416   9.354  2.2177 -0.0258 -1.4381
  153MOL0     H20599   0.204   1.250   9.341 -0.5937 -0.0174  0.4253
  153MOL0     H20600   0.359   1.283   9.565  0.0517  1.4145  2.1252
  153MOL0     H20601   0.283   1.437   9.570  2.2880  0.1103 -0.2485
  153MOL0     H20602   0.099   1.388   9.650  0.2454 -1.3418 -0.3716
  153MOL0     H20603   0.058   1.256   9.537  1.7199  0.3367 -2.8673
  153MOL0     H20604   0.047   1.175   9.763 -1.4036 -0.0886 -3.8372
  153MOL0     H20605   0.216   1.212   9.798  1.3265  1.6338 -1.7559
  153MOL0     H20606   0.427   1.087   9.666 -0.9303  0.4568  2.1337
  153MOL0     H20607   0.516   0.815   9.611  2.1913 -1.5925 -2.3381
  153MOL0     H20608   0.408   0.733   9.504 -2.9815  1.7207  0.3582
  153MOL0     H20609   0.612   0.825   9.403  1.5998  1.1579  2.4193
  153MOL0     H20610   0.585   0.993   9.456  2.2059  0.2140 -0.2127
  153MOL0     H20611   0.508   0.971   9.222 -1.9279  1.2717 -0.8457
  153MOL0     H20612   0.382   1.027   9.313  0.2409  0.2193 -2.4629
  153MOL0     H20613   0.276   0.800   9.311 -3.2031  0.7571 -2.1692
  153MOL0     H20614   0.429   0.728   9.248 -0.1359 -0.6381 -1.6028
  153MOL0     H20615   0.152   0.967   9.280  0.9814 -1.1121  0.1718
  153MOL0     H20616  -0.041   1.237   9.294  2.1467 -0.3449  1.0359
  153MOL0     H20617  -0.144   1.094   9.246  0.3023 -0.5847 -1.0519
  153MOL0     H20618  -0.006   1.080   9.358 -0.2239  1.0501 -0.2362
  153MOL0     H20619  -0.128   1.451   8.756 -1.5356  0.6697 -3.7053
  153MOL0     H20620  -0.347   1.556   8.671 -0.9669 -0.3496 -1.5539
  153MOL0     H20621  -0.654   1.364   8.583  1.4903 -1.4783  1.5400
  153MOL0     H20622  -0.732   1.380   8.734 -0.1125  0.0938 -0.1273
  153MOL0     H20623  -0.827   1.611   8.656  2.6553 -0.6737  1.9239
  153MOL0     H20624  -0.730   1.604   8.516  1.7986  1.4085  1.5320
  153MOL0     H20625  -0.960   1.403   8.582 -1.1398 -0.0121 -1.0562
  153MOL0     H20626  -0.843   1.392   8.440  0.2335  2.1436 -1.0425
  153MOL0     H20627  -1.080   1.558   8.489 -0.1839  1.5495  0.1198
  153MOL0     H20628  -0.936   1.626   8.399  3.6067 -1.3770  0.1122
  153MOL0     H20629  -0.934   1.424   8.245 -1.6488 -2.9343 -0.4908
  153MOL0     H20630  -1.056   1.537   8.214  1.5900  2.3803  1.8708
  153MOL0     H20631  -1.107   1.280   8.396 -1.0354 -0.2169  0.5996
  153MOL0     H20632  -1.221   1.382   8.328 -0.6701 -0.2836  2.1047
  153MOL0     H20633  -1.024   1.223   8.160  0.6007 -0.7853  2.6285
  153MOL0     H20634  -1.155   1.330   8.097 -0.3861 -1.0852 -0.4714
  153MOL0     H20635  -1.189   1.085   8.263  1.9814 -1.1591 -2.1604
  153MOL0     H20636  -1.241   1.108   8.088 -1.5273  1.0914  0.0936
  153MOL0     H20637  -0.577   1.224   8.772 -0.4552  1.7008  1.3677
  153MOL0     H20638  -0.386   1.107   8.844 -2.0799 -0.7036 -0.7566
  153MOL0     H20639   0.128   1.131   8.816 -1.4229  1.8256 -0.3471
  153MOL0     H20640   0.265   0.932   8.868  2.0648  0.5647  0.9323
  153MOL0     H20641   0.279   1.557   8.706 -1.3938  0.8576 -0.4732
  153MOL0     H20642   0.318   1.761   8.541 -1.2493  2.4213  1.1457
  153MOL0     H20643   0.794   2.155   8.463 -1.1677 -2.6557 -0.2309
  153MOL0     H20644   0.800   2.298   8.281 -1.2967  1.4910 -2.1799
  153MOL0     H20645   0.760   2.441   8.094 -0.2783 -1.2579  2.8767
  153MOL0     H20646   0.634   2.534   8.013  3.1948  2.1350  0.9220
  153MOL0     H20647   0.619   2.686   8.212  0.4206 -0.6829 -0.1973
  153MOL0     H20648   0.767   2.673   8.143 -3.2929 -0.2430 -1.8726
  153MOL0     H20649   0.860   2.525   8.307 -1.7026 -0.8648 -2.7584
  153MOL0     H20650   0.708   2.515   8.391 -1.1507  1.8458  1.0762
  153MOL0     H20651   0.700   2.720   8.480  0.7113 -0.2536  1.4104
  153MOL0     H20652   0.836   2.789   8.374  2.4533 -1.0847  0.6186
  153MOL0     H20653   1.088   2.625   8.641 -1.6129 -7.2561  1.2698
  153MOL0     H20654   0.362   2.327   8.314  0.7671  2.7429  1.4348
  153MOL0     H20655   0.341   2.160   8.454 -1.6185  0.8883 -1.6748
  154MOL0     O20656   1.240   9.464   1.136  0.0210 -0.1710 -0.0371
  154MOL0     C20657   1.234   9.375   1.225  0.4620 -0.5316  0.2915
  154MOL0     O20658   1.219   9.398   1.353  0.1584  0.2873  0.1334
  154MOL0     C20659   1.156   9.516   1.380 -1.0045 -0.2118 -0.4360
  154MOL0     C20660   1.032   9.558   1.350 -0.1812  0.1058 -0.1274
  154MOL0     C20661   0.983   9.688   1.390  0.0540  0.0094 -1.1472
  154MOL0     C20662   1.069   9.778   1.455 -0.7153  0.1014  0.2202
  154MOL0     O20663   1.037   9.905   1.489 -0.0432 -0.0006  0.1743
  154MOL0     C20664   0.897   9.924   1.523  0.5872  0.6055  0.3770
  154MOL0     C20665   0.880  10.067   1.571  0.7737  0.4714  1.0646
  154MOL0     C20666   0.850  10.174   1.463 -0.2768 -0.6278 -0.3468
  154MOL0     C20667   0.811  10.298   1.551  0.1289  0.1285  0.8540
  154MOL0     C20668   0.804  10.419   1.454 -0.4266 -0.1197 -0.0807
  154MOL0     C20669   0.944  10.481   1.453  0.3033 -0.9469  1.1663
  154MOL0     C20670   0.946  10.617   1.374 -0.8755  0.2717  1.2231
  154MOL0     C20671   0.930  10.749   1.463 -0.0780 -0.9690  0.1049
  154MOL0     N20672   1.024  10.767   1.563  0.4428  0.4426  0.4756
  154MOL0     C20673   0.999  10.829   1.679  0.2890  0.0583 -0.2449
  154MOL0     C20674   1.114  10.846   1.749 -0.5709 -0.2179  0.4333
  154MOL0     C20675   1.134  10.909   1.892  0.4917 -0.7982  0.3385
  154MOL0     C20676   1.018  10.883   1.978  0.2013 -0.6829  0.0338
  154MOL0     C20677   1.036  10.946   2.115  0.7691 -0.8189  0.4687
  154MOL0     C20678   1.129  10.865   2.207  0.1360 -0.5305 -0.4022
  154MOL0     O20679   1.132  10.912   2.343 -0.3550  0.8646  0.6587
  154MOL0     C20680   1.192  11.029   2.387 -0.5273  0.3965 -0.3615
  154MOL0     C20681   1.184  11.054   2.528 -0.4100 -0.5685  0.6310
  154MOL0     C20682   1.225  11.177   2.581  0.3788 -0.5247 -1.2133
  154MOL0     C20683   1.158  11.196   2.716 -0.9086 -0.5646 -0.1248
  154MOL0     C20684   1.301  11.274   2.502 -0.2300 -0.3443 -0.4675
  154MOL0     C20685   1.347  11.413   2.550 -0.3008 -0.0213 -0.6253
  154MOL0     O20686   1.388  11.499   2.455 -0.2458 -0.1428  0.6902
  154MOL0     C20687   1.473  11.586   2.505 -0.4331  0.1644 -0.2496
  154MOL0     C20688   1.442  11.708   2.554 -0.6999  0.7629  0.2309
  154MOL0     C20689   1.528  11.812   2.563 -0.5339 -0.2054 -0.3003
  154MOL0     C20690   1.664  11.789   2.551 -0.6524 -0.3394 -0.2083
  154MOL0     O20691   1.749  11.884   2.588 -0.3150  0.0053  0.3129
  154MOL0     C20692   1.880  11.876   2.540 -0.0151  0.8257  0.1139
  154MOL0     C20693   1.942  12.005   2.584  1.4659 -1.3592  0.3903
  154MOL0     C20694   2.081  12.034   2.523 -0.3156 -0.1289 -1.0575
  154MOL0     C20695   2.136  12.177   2.554 -0.9348  0.7325  0.0159
  154MOL0     C20696   2.266  12.210   2.486 -0.0660 -0.1715  1.5116
  154MOL0     C20697   2.307  12.363   2.490 -0.1415 -0.1378 -0.1046
  154MOL0     C20698   2.370  12.395   2.626 -0.5492  0.4550  0.1289
  154MOL0     C20699   2.398  12.539   2.641  0.2792 -0.5133 -1.0485
  154MOL0    Cl20700   2.488  12.627   2.503  0.2430 -0.3592  0.1475
  154MOL0     C20701   1.704  11.660   2.510 -1.0631  0.4044 -0.0865
  154MOL0     C20702   1.610  11.563   2.473  0.6128  0.8381  0.1160
  154MOL0     O20703   1.319  11.446   2.666  0.0425  0.5426 -0.3175
  154MOL0     C20704   1.315  11.244   2.366  0.2646  0.8136  0.3024
  154MOL0     C20705   1.259  11.124   2.309 -0.6323  0.1636 -0.7104
  154MOL0     N20706   1.207  10.810   1.658  0.2814 -0.1847  0.4721
  154MOL0     N20707   1.157  10.755   1.557  0.0994  0.1977 -0.2168
  154MOL0     C20708   1.194   9.737   1.493 -0.2746 -0.4827 -0.1799
  154MOL0     C20709   1.237   9.609   1.460 -0.6618  0.1352  0.2639
  154MOL0     C20710   1.281   9.246   1.181  0.0684 -0.5911 -0.1632
  154MOL0     C20711   1.332   9.154   1.269 -0.7840 -0.0448  0.9294
  154MOL0     C20712   1.377   9.025   1.227  0.3288  0.9437 -0.0314
  154MOL0     C20713   1.372   8.991   1.084  0.2063 -0.2558  0.0291
  154MOL0     O20714   1.413   8.877   1.019  0.2675  0.1198 -0.5986
  154MOL0     C20715   1.479   8.781   1.103 -0.2584 -0.8203 -0.2351
  154MOL0     C20716   1.531   8.666   1.009 -0.3210  0.2257 -0.1906
  154MOL0     C20717   1.653   8.590   1.061  0.0978 -0.4337 -0.9700
  154MOL0     C20718   1.701   8.470   0.993  1.2916  0.0725  0.5456
  154MOL0     C20719   1.820   8.437   1.065  0.6551 -0.2304 -0.1726
  154MOL0     C20720   1.913   8.418   1.143 -1.6908  0.0872  0.0504
  154MOL0     C20721   1.320   9.081   1.000  0.9859 -0.8169  1.1512
  154MOL0     C20722   1.268   9.210   1.043 -0.2150 -0.0809 -1.4104
  154MOL0     H20723   0.969   9.477   1.314  1.0131 -1.0458  0.2784
  154MOL0     H20724   0.884   9.719   1.360 -1.3474  0.2491  3.0314
  154MOL0     H20725   0.833   9.904   1.437 -0.7570 -0.5480  1.5931
  154MOL0     H20726   0.862   9.853   1.598  0.9568 -0.3631 -0.3407
  154MOL0     H20727   0.798  10.062   1.643  0.9666 -0.0057  1.2539
  154MOL0     H20728   0.968  10.091   1.632  1.4020 -0.0715  0.3830
  154MOL0     H20729   0.945  10.204   1.418 -0.2450 -0.3802 -0.1128
  154MOL0     H20730   0.766  10.144   1.399 -1.4880  3.2456 -0.7856
  154MOL0     H20731   0.710  10.281   1.590 -0.8265 -2.7430 -2.3873
  154MOL0     H20732   0.863  10.314   1.646  1.2291  1.1103  0.1112
  154MOL0     H20733   0.762  10.395   1.356 -1.5531 -2.4041  0.8864
  154MOL0     H20734   0.740  10.495   1.499 -0.5945  0.2155 -0.8644
  154MOL0     H20735   0.979  10.499   1.555  2.3667  1.6331  0.1312
  154MOL0     H20736   1.017  10.409   1.412 -1.6623 -1.5912 -1.4975
  154MOL0     H20737   1.035  10.624   1.311 -0.2304 -3.2272  1.5618
  154MOL0     H20738   0.859  10.621   1.308 -1.1758 -2.8216  1.3001
  154MOL0     H20739   0.826  10.754   1.495 -0.4633 -1.6971 -0.9523
  154MOL0     H20740   0.934  10.835   1.395  1.2605  0.1908  1.5730
  154MOL0     H20741   0.901  10.864   1.713 -0.9334 -0.1016 -3.3155
  154MOL0     H20742   1.233  10.879   1.930  0.8543 -0.5637 -0.3920
  154MOL0     H20743   1.153  11.014   1.868 -3.2306  0.1370  0.8860
  154MOL0     H20744   1.009  10.775   1.995  1.7797 -0.9319 -0.4835
  154MOL0     H20745   0.926  10.912   1.928  0.5605 -2.8454 -2.0426
  154MOL0     H20746   0.940  10.944   2.168  1.3402  0.2012  1.5782
  154MOL0     H20747   1.057  11.051   2.098  1.1329 -1.1556 -1.3156
  154MOL0     H20748   1.233  10.865   2.172  0.7187  2.8155  0.9309
  154MOL0     H20749   1.097  10.760   2.201  1.8440 -1.0083 -2.4198
  154MOL0     H20750   1.126  10.987   2.591 -1.6850  1.5777  1.8635
  154MOL0     H20751   1.093  11.284   2.723 -3.0811 -2.2238  1.8760
  154MOL0     H20752   1.100  11.111   2.752 -1.0594  0.1428  1.3716
  154MOL0     H20753   1.237  11.214   2.790 -0.3606 -1.0664 -0.5732
  154MOL0     H20754   1.338  11.741   2.565 -2.3162 -3.3768 -0.8977
  154MOL0     H20755   1.500  11.910   2.598  0.3135 -0.6207  1.6372
  154MOL0     H20756   1.932  11.792   2.587 -1.6531 -0.6283 -0.5622
  154MOL0     H20757   1.890  11.871   2.431  0.0359 -1.1059  0.1672
  154MOL0     H20758   1.880  12.089   2.551  2.2259 -1.3637 -1.1508
  154MOL0     H20759   1.952  12.013   2.693  0.9632 -2.9898  0.5772
  154MOL0     H20760   2.080  12.026   2.414  1.0026  0.4173 -1.1331
  154MOL0     H20761   2.155  11.959   2.553 -0.2573  0.1808 -0.4113
  154MOL0     H20762   2.062  12.252   2.524  0.8320  2.0415 -1.2568
  154MOL0     H20763   2.164  12.186   2.659  0.1046 -2.2791  0.0811
  154MOL0     H20764   2.258  12.180   2.381  3.1727 -1.2915  1.4926
  154MOL0     H20765   2.337  12.143   2.534  0.1122  0.1423  1.6877
  154MOL0     H20766   2.365  12.393   2.401  0.4386 -2.6839 -0.6612
  154MOL0     H20767   2.221  12.428   2.471 -1.1391 -1.4952 -0.3236
  154MOL0     H20768   2.471  12.351   2.623 -0.2829  1.1206 -0.7576
  154MOL0     H20769   2.312  12.353   2.709 -0.4024 -0.4790 -0.2293
  154MOL0     H20770   2.460  12.553   2.730  0.1986 -0.6266 -0.9748
  154MOL0     H20771   2.302  12.587   2.659  0.1029 -1.3416  0.2997
  154MOL0     H20772   1.807  11.637   2.483 -1.6642 -2.5910 -0.2229
  154MOL0     H20773   1.638  11.464   2.439  1.8444  0.7298  1.3763
  154MOL0     H20774   1.359  11.314   2.296  0.5362  1.7298  1.3633
  154MOL0     H20775   1.272  11.098   2.204 -1.9775 -1.7819 -0.4604
  154MOL0     H20776   1.246   9.811   1.553 -0.7873  0.7344 -1.1833
  154MOL0     H20777   1.335   9.585   1.499 -1.2470  0.7461  2.1851
  154MOL0     H20778   1.352   9.190   1.370  2.9703 -1.7078  0.9629
  154MOL0     H20779   1.427   8.961   1.299 -1.8992 -0.9999 -0.0657
  154MOL0     H20780   1.563   8.835   1.149 -0.1721 -1.3606  0.2606
  154MOL0     H20781   1.424   8.737   1.187  2.5066 -2.1018  1.0677
  154MOL0     H20782   1.565   8.720   0.920  0.0418  1.3650  0.6135
  154MOL0     H20783   1.446   8.598   0.999 -1.2110  1.2395  0.4040
  154MOL0     H20784   1.632   8.560   1.164 -0.1274 -1.0006 -1.1780
  154MOL0     H20785   1.725   8.671   1.071 -1.1764  0.6356  0.0277
  154MOL0     H20786   1.721   8.470   0.885 -1.5681 -1.3065 -0.0839
  154MOL0     H20787   1.631   8.386   0.999  0.9070  0.3666  0.2258
  154MOL0     H20788   1.999   8.399   1.205  2.1167  1.2632 -4.3173
  154MOL0     H20789   1.332   9.053   0.896  0.6949 -0.8818  1.1346
  154MOL0     H20790   1.236   9.284   0.971  1.3495  0.3641 -1.6820
  155MOL0     O20791   2.488   6.738   5.346  0.6097  0.0755 -0.5311
  155MOL0     C20792   2.430   6.837   5.385 -1.5496 -0.4405 -0.6123
  155MOL0     O20793   2.460   6.959   5.360 -0.5548 -0.1116 -0.3097
  155MOL0     C20794   2.574   7.000   5.292  0.3906 -0.4448 -0.1624
  155MOL0     C20795   2.698   6.940   5.295  0.6857  0.9175  0.2376
  155MOL0     C20796   2.800   6.986   5.216 -0.9926 -0.6838 -1.1177
  155MOL0     C20797   2.787   7.109   5.150  0.1497  0.2295  0.8930
  155MOL0     O20798   2.879   7.148   5.058  0.1342  0.0579 -0.0671
  155MOL0     C20799   3.015   7.114   5.086 -0.5061 -0.3584  0.0110
  155MOL0     C20800   3.104   7.224   5.044  0.0737 -0.7559 -0.1271
  155MOL0     C20801   3.251   7.187   5.090 -0.2814  0.0935  0.4956
  155MOL0     C20802   3.357   7.295   5.072  0.8289 -0.3011 -0.4898
  155MOL0     C20803   3.481   7.257   5.159  0.7058  0.6566  0.5387
  155MOL0     C20804   3.559   7.384   5.194  0.5847  0.9266  0.1725
  155MOL0     C20805   3.698   7.366   5.258  0.3889 -0.0565  0.0081
  155MOL0     C20806   3.695   7.398   5.403 -0.3887  0.2496 -0.8026
  155MOL0     N20807   3.664   7.279   5.471  0.3303 -0.0895 -0.6687
  155MOL0     C20808   3.549   7.217   5.517 -0.5917  0.0847  0.4257
  155MOL0     C20809   3.597   7.112   5.597  1.1102 -0.6517  0.0403
  155MOL0     C20810   3.513   7.018   5.689  0.8088  0.1978  0.2337
  155MOL0     C20811   3.470   6.879   5.640 -0.9158 -1.0746  0.2894
  155MOL0     C20812   3.446   6.767   5.751 -0.2906  0.0679 -0.0977
  155MOL0     C20813   3.367   6.648   5.694 -0.2157  0.2314 -0.2940
  155MOL0     O20814   3.365   6.523   5.772  0.1431  0.0012  0.6644
  155MOL0     C20815   3.275   6.429   5.728  0.4426  0.1018 -0.9462
  155MOL0     C20816   3.276   6.315   5.811  1.2798  0.7472 -0.3733
  155MOL0     C20817   3.180   6.210   5.781  0.8960  0.2793 -0.0336
  155MOL0     C20818   3.183   6.077   5.858  0.6663  1.0423 -0.0630
  155MOL0     C20819   3.095   6.220   5.674 -0.1506  0.1605  0.5469
  155MOL0     C20820   3.026   6.099   5.616  0.3014 -0.5328  0.0327
  155MOL0     O20821   2.890   6.128   5.595 -0.7888  0.8490  0.1889
  155MOL0     C20822   2.806   6.040   5.532 -0.3604 -0.0866  1.1462
  155MOL0     C20823   2.726   5.954   5.611  0.4957  0.2046  0.7022
  155MOL0     C20824   2.632   5.871   5.554  0.5369  0.5762 -0.1719
  155MOL0     C20825   2.606   5.864   5.417 -0.5956 -0.2156  0.7866
  155MOL0     O20826   2.518   5.783   5.346 -0.1862 -0.0046  0.4340
  155MOL0     C20827   2.519   5.648   5.392 -0.2742 -0.4604  0.0885
  155MOL0     C20828   2.429   5.551   5.312 -0.1624  0.0952  0.1414
  155MOL0     C20829   2.472   5.407   5.346 -0.1584 -0.0838  0.2920
  155MOL0     C20830   2.355   5.324   5.288  0.2966  0.4740 -0.3430
  155MOL0     C20831   2.376   5.172   5.307 -0.0672  0.3298 -0.0119
  155MOL0     C20832   2.268   5.087   5.237  0.3239  0.3034 -0.1729
  155MOL0     C20833   2.131   5.091   5.303 -0.0359  0.2846 -0.8483
  155MOL0     C20834   2.089   4.949   5.350  0.1202 -0.0012  0.0473
  155MOL0    Cl20835   2.051   4.846   5.204  0.2751  0.2294  0.1038
  155MOL0     C20836   2.684   5.950   5.335  0.3672  0.4857  0.3232
  155MOL0     C20837   2.784   6.029   5.396  0.2168 -0.7369  0.3850
  155MOL0     O20838   3.090   6.000   5.579 -0.3334  0.2325 -0.0616
  155MOL0     C20839   3.099   6.331   5.602  0.9629 -0.0294 -0.1452
  155MOL0     C20840   3.187   6.437   5.622 -0.7622 -0.4271 -0.1942
  155MOL0     N20841   3.728   7.090   5.573 -0.3507  0.9496 -0.0199
  155MOL0     N20842   3.770   7.187   5.494 -0.7370  0.3092  0.0504
  155MOL0     C20843   2.669   7.178   5.154 -0.5731 -0.2714  0.2536
  155MOL0     C20844   2.563   7.127   5.227  0.5444  0.4126  0.8047
  155MOL0     C20845   2.309   6.813   5.468 -0.1406 -0.5492 -0.3850
  155MOL0     C20846   2.251   6.911   5.547 -0.2683  0.6999  0.8522
  155MOL0     C20847   2.145   6.882   5.629  0.4275 -0.4177  0.6877
  155MOL0     C20848   2.090   6.749   5.629  0.2233  0.8445 -0.7019
  155MOL0     O20849   1.983   6.708   5.708 -0.6801 -0.2302  0.0504
  155MOL0     C20850   1.907   6.807   5.770  0.2398  1.0969 -0.2788
  155MOL0     C20851   1.772   6.747   5.822  0.3511 -0.2258  0.3058
  155MOL0     C20852   1.684   6.869   5.871  0.7744 -0.6267  0.4628
  155MOL0     C20853   1.737   6.947   5.991 -0.0268  0.0387  0.4436
  155MOL0     C20854   1.761   6.860   6.103  0.9258  0.2768  0.2945
  155MOL0     C20855   1.770   6.801   6.208 -0.1848  0.1356 -0.6973
  155MOL0     C20856   2.135   6.657   5.536 -0.3079  1.1726  0.1992
  155MOL0     C20857   2.242   6.692   5.456  0.2494 -0.3253  0.2579
  155MOL0     H20858   2.719   6.848   5.348  2.7242  1.0933 -0.1617
  155MOL0     H20859   2.888   6.922   5.210  1.5424  1.9895  2.6762
  155MOL0     H20860   3.024   7.113   5.195 -1.5476  1.9374  0.1886
  155MOL0     H20861   3.053   7.026   5.033  1.0122  1.3865 -1.9384
  155MOL0     H20862   3.108   7.237   4.936  0.6734  0.6820  0.0451
  155MOL0     H20863   3.067   7.310   5.099 -0.2669 -2.8664  3.2517
  155MOL0     H20864   3.251   7.167   5.197  0.1302  0.1187  0.5029
  155MOL0     H20865   3.298   7.099   5.045 -1.7676 -0.6789  0.3887
  155MOL0     H20866   3.384   7.310   4.967  0.5338  0.8561 -0.4096
  155MOL0     H20867   3.313   7.389   5.106 -0.7544 -0.7819 -1.1500
  155MOL0     H20868   3.443   7.202   5.246  2.1531  2.5144  2.4466
  155MOL0     H20869   3.552   7.203   5.095  0.3321  2.5542 -1.5934
  155MOL0     H20870   3.559   7.427   5.093  0.4615 -2.1655 -1.2579
  155MOL0     H20871   3.510   7.447   5.268 -0.3145 -1.7117  1.9641
  155MOL0     H20872   3.742   7.266   5.254  0.8018  0.1080  0.3882
  155MOL0     H20873   3.773   7.429   5.210 -1.6582  1.9155 -0.7909
  155MOL0     H20874   3.631   7.484   5.422 -2.0468 -1.6071  3.0820
  155MOL0     H20875   3.791   7.435   5.441 -1.6039  2.0002  0.7475
  155MOL0     H20876   3.448   7.257   5.512 -1.3270 -1.7171  0.1698
  155MOL0     H20877   3.577   7.008   5.777 -0.0547  2.9730  1.3019
  155MOL0     H20878   3.425   7.077   5.715  2.2408  2.6880 -0.2413
  155MOL0     H20879   3.556   6.843   5.583  0.9994 -1.0761  3.0049
  155MOL0     H20880   3.384   6.887   5.572 -0.5443  0.4163 -0.0310
  155MOL0     H20881   3.395   6.808   5.838  0.8756  2.7262 -0.5614
  155MOL0     H20882   3.545   6.736   5.786 -0.3588  1.3180  1.2735
  155MOL0     H20883   3.403   6.634   5.592 -1.6291 -0.5905 -0.7144
  155MOL0     H20884   3.266   6.684   5.673 -0.0390 -0.2932 -2.1735
  155MOL0     H20885   3.344   6.300   5.895 -0.4047  0.9790  1.0970
  155MOL0     H20886   3.249   6.002   5.813 -2.5785 -1.8255 -0.4422
  155MOL0     H20887   3.213   6.087   5.963  2.1739  0.8038 -0.4476
  155MOL0     H20888   3.084   6.032   5.854  1.2641 -0.2762 -0.7235
  155MOL0     H20889   2.735   5.948   5.719  0.9001  0.0796  0.6655
  155MOL0     H20890   2.564   5.819   5.621  0.3931  1.2154  0.1819
  155MOL0     H20891   2.621   5.608   5.383  0.3434  0.9694  0.5097
  155MOL0     H20892   2.490   5.647   5.498  0.8390 -1.0998  0.4086
  155MOL0     H20893   2.326   5.562   5.345  0.8632 -0.6517  4.1002
  155MOL0     H20894   2.436   5.572   5.205 -3.7462  3.0074  0.3016
  155MOL0     H20895   2.496   5.384   5.450  0.2759  1.1897  0.4999
  155MOL0     H20896   2.556   5.385   5.280  0.2102  0.2519  0.6417
  155MOL0     H20897   2.257   5.355   5.326  0.5893  2.5889 -1.1763
  155MOL0     H20898   2.356   5.348   5.181  2.8908  0.3878 -0.4073
  155MOL0     H20899   2.394   5.154   5.414 -4.2529  1.4072  1.0600
  155MOL0     H20900   2.471   5.142   5.260  1.4747  2.3933  1.5716
  155MOL0     H20901   2.264   5.127   5.135  0.6822  1.0727  0.1128
  155MOL0     H20902   2.307   4.985   5.231  1.4806  0.5810  1.8649
  155MOL0     H20903   2.049   5.128   5.240 -2.0156 -0.9573  0.9120
  155MOL0     H20904   2.140   5.148   5.396  0.6769 -1.3948  0.1578
  155MOL0     H20905   1.995   4.971   5.402 -0.0802 -0.1104 -0.2662
  155MOL0     H20906   2.167   4.911   5.418  0.3377 -1.2937 -0.8849
  155MOL0     H20907   2.664   5.953   5.229  0.9882  2.3594  0.2227
  155MOL0     H20908   2.844   6.096   5.335 -1.6926  0.8822  0.1837
  155MOL0     H20909   3.034   6.326   5.516 -1.5225 -1.9015  1.6810
  155MOL0     H20910   3.188   6.522   5.555 -2.2028 -0.3454 -0.1501
  155MOL0     H20911   2.649   7.273   5.105 -2.0494 -1.9600 -2.6886
  155MOL0     H20912   2.463   7.168   5.224  0.4908  0.8994  4.6241
  155MOL0     H20913   2.299   7.008   5.539 -0.7104  0.7389 -2.8389
  155MOL0     H20914   2.105   6.952   5.701 -0.8680  0.5598 -0.9156
  155MOL0     H20915   1.953   6.841   5.863  2.9198 -3.6917  0.4613
  155MOL0     H20916   1.892   6.889   5.699  0.2138 -0.2305 -1.8683
  155MOL0     H20917   1.762   6.666   5.894 -3.4110  0.9366  1.3246
  155MOL0     H20918   1.738   6.717   5.723 -0.7296  2.3539 -0.2087
  155MOL0     H20919   1.582   6.835   5.893 -0.5238  2.7856  0.3011
  155MOL0     H20920   1.673   6.933   5.783 -1.8574 -0.0166  1.1408
  155MOL0     H20921   1.655   7.014   6.019  0.2768  2.0665 -2.8739
  155MOL0     H20922   1.825   7.004   5.961 -2.0089  1.2548 -4.0290
  155MOL0     H20923   1.784   6.737   6.293  0.5171  0.7946 -0.2980
  155MOL0     H20924   2.082   6.565   5.516  0.3308  0.2923  2.3248
  155MOL0     H20925   2.275   6.622   5.379 -0.4901  0.6921 -1.0236
  156MOL0     O20926   6.328   3.881  11.065  0.4316  0.3699 -0.0906
  156MOL0     C20927   6.415   3.957  11.088  0.3884 -0.5852  0.2909
  156MOL0     O20928   6.506   3.951  11.188 -0.7756  1.4597 -0.1759
  156MOL0     C20929   6.480   3.902  11.311 -0.3030  0.0262  0.5512
  156MOL0     C20930   6.597   3.868  11.384 -0.3232 -0.3629 -0.5198
  156MOL0     C20931   6.586   3.805  11.508  0.6391 -0.5309 -0.5240
  156MOL0     C20932   6.451   3.777  11.558 -1.7183 -0.0151  0.6913
  156MOL0     O20933   6.434   3.714  11.678  0.2144  0.1072 -0.2936
  156MOL0     C20934   6.533   3.729  11.780 -0.3695  0.5486 -0.0966
  156MOL0     C20935   6.490   3.663  11.915  1.0909 -1.1167  0.1739
  156MOL0     C20936   6.497   3.504  11.924  0.6320  0.2906  0.5620
  156MOL0     C20937   6.506   3.452  12.063 -0.6257  0.4346 -0.3799
  156MOL0     C20938   6.567   3.543  12.168 -0.5442 -0.0284 -0.5284
  156MOL0     C20939   6.596   3.439  12.282  0.3055  0.3791  0.3674
  156MOL0     C20940   6.645   3.498  12.418  0.0023 -0.6680  0.1508
  156MOL0     C20941   6.640   3.411  12.533 -0.1847 -0.1761 -0.8964
  156MOL0     N20942   6.690   3.491  12.653  0.1027 -0.5197  0.0427
  156MOL0     C20943   6.661   3.620  12.697 -0.4232  0.3131  0.8538
  156MOL0     C20944   6.694   3.643  12.824  0.3802 -1.2467  0.0919
  156MOL0     C20945   6.670   3.777  12.898  0.5748 -0.4113 -0.9449
  156MOL0     C20946   6.639   3.894  12.794 -0.5971  0.1994  0.4550
  156MOL0     C20947   6.628   4.035  12.872  0.4564  0.6054  0.1850
  156MOL0     C20948   6.762   4.079  12.936  0.1473 -0.6425  0.5742
  156MOL0     O20949   6.859   4.123  12.844 -0.7950  0.3902  0.5223
  156MOL0     C20950   6.891   4.262  12.840 -0.5603  0.7450 -0.4358
  156MOL0     C20951   7.003   4.299  12.771  0.5424 -0.9740  0.1890
  156MOL0     C20952   7.034   4.440  12.745 -0.3936  0.2306 -0.2280
  156MOL0     C20953   7.164   4.468  12.676  0.6614  1.7389 -0.4703
  156MOL0     C20954   6.949   4.542  12.806  0.1243 -0.4616  0.5533
  156MOL0     C20955   6.966   4.692  12.788  1.1835  0.6833 -0.1453
  156MOL0     O20956   6.899   4.774  12.876  0.3432 -0.0245  0.2176
  156MOL0     C20957   6.897   4.908  12.851 -0.2651 -0.6784  0.3732
  156MOL0     C20958   7.010   4.981  12.869 -0.4480 -0.0977  0.3051
  156MOL0     C20959   7.021   5.105  12.823  0.6284 -0.3674 -0.7068
  156MOL0     C20960   6.914   5.169  12.770  0.5447  0.0026 -0.0195
  156MOL0     O20961   6.921   5.292  12.718  0.2542  0.1888 -1.1561
  156MOL0     C20962   7.048   5.368  12.711 -0.5022  0.4526  0.4357
  156MOL0     C20963   7.040   5.493  12.623 -0.1309 -0.0278 -0.0744
  156MOL0     C20964   6.982   5.617  12.696  0.1886 -0.0728  0.4739
  156MOL0     C20965   6.992   5.749  12.610  0.7021  0.4114  0.0385
  156MOL0     C20966   6.873   5.837  12.629 -1.2444 -0.4008 -0.2519
  156MOL0     C20967   6.887   5.957  12.544 -0.9577  0.5326  0.3482
  156MOL0     C20968   6.779   6.053  12.592  0.3756 -0.8211 -0.3699
  156MOL0     C20969   6.788   6.187  12.523  0.4467  0.0327  0.2121
  156MOL0    Cl20970   6.778   6.154  12.336  0.0424  0.2887  0.0545
  156MOL0     C20971   6.800   5.100  12.750 -0.2371 -0.7793 -0.2740
  156MOL0     C20972   6.785   4.964  12.795 -0.0406  0.1487  1.2260
  156MOL0     O20973   7.021   4.725  12.689  0.3542 -0.0998 -0.8141
  156MOL0     C20974   6.845   4.495  12.883  0.2961  0.3079  0.0489
  156MOL0     C20975   6.820   4.361  12.908  0.4566 -0.4192 -0.1565
  156MOL0     N20976   6.758   3.528  12.861  0.1234  0.0857 -0.2558
  156MOL0     N20977   6.752   3.438  12.764  0.7830 -0.6019 -1.1275
  156MOL0     C20978   6.336   3.810  11.486  0.5923 -0.4904 -0.6542
  156MOL0     C20979   6.351   3.859  11.358 -0.3749 -0.2458  1.5224
  156MOL0     C20980   6.444   4.057  10.986  0.1976  0.5825  0.9481
  156MOL0     C20981   6.511   4.181  11.013 -0.2143  0.0886  0.7862
  156MOL0     C20982   6.538   4.259  10.905 -0.4990  0.1803  0.8492
  156MOL0     C20983   6.504   4.228  10.764  0.2368 -1.0401  0.3173
  156MOL0     O20984   6.517   4.309  10.650 -0.4902 -0.3557  0.0535
  156MOL0     C20985   6.497   4.453  10.666 -0.1068  0.4899  0.2560
  156MOL0     C20986   6.643   4.518  10.681  0.7960  0.2929 -0.9617
  156MOL0     C20987   6.665   4.630  10.585 -0.1907 -0.9303  0.4331
  156MOL0     C20988   6.606   4.766  10.627  0.0547 -0.2846  0.8234
  156MOL0     C20989   6.628   4.866  10.517  0.3271  0.2696 -0.0777
  156MOL0     C20990   6.652   4.951  10.438 -0.3399  0.1407  0.7671
  156MOL0     C20991   6.442   4.104  10.744  0.4284  0.2266 -1.6429
  156MOL0     C20992   6.407   4.020  10.850 -0.7424 -1.0968  0.1043
  156MOL0     H20993   6.694   3.898  11.348 -0.9818  0.5785 -1.5800
  156MOL0     H20994   6.673   3.784  11.568  1.3210  2.6806 -0.1875
  156MOL0     H20995   6.627   3.687  11.741  0.5532  0.4814  2.0752
  156MOL0     H20996   6.554   3.834  11.802 -1.4026  0.4394  1.5674
  156MOL0     H20997   6.547   3.717  11.991 -1.7219 -0.5744  2.0517
  156MOL0     H20998   6.386   3.688  11.939  0.4994 -3.2246  0.0465
  156MOL0     H20999   6.410   3.453  11.882  1.3115 -2.2207  1.9814
  156MOL0     H21000   6.576   3.473  11.855 -1.3137  2.2968 -2.8602
  156MOL0     H21001   6.403   3.441  12.098 -0.8086  0.0823 -1.0223
  156MOL0     H21002   6.550   3.352  12.056 -3.4037 -0.7277 -3.2740
  156MOL0     H21003   6.666   3.580  12.142  0.5021 -0.1280  2.8416
  156MOL0     H21004   6.492   3.619  12.193  0.7805  1.2274 -0.2056
  156MOL0     H21005   6.502   3.385  12.295 -0.2649  1.5807  1.4767
  156MOL0     H21006   6.679   3.370  12.267 -0.3533 -0.3090 -0.1243
  156MOL0     H21007   6.744   3.544  12.411  0.0312 -0.8189 -0.5183
  156MOL0     H21008   6.576   3.583  12.429  0.8860 -0.0777  1.3688
  156MOL0     H21009   6.712   3.328  12.538  0.2214  0.2177  0.2837
  156MOL0     H21010   6.544   3.360  12.545  1.5555 -3.1535  2.8246
  156MOL0     H21011   6.625   3.683  12.616  3.7615 -0.3425 -1.8364
  156MOL0     H21012   6.581   3.773  12.962  2.8588 -1.7635  2.4399
  156MOL0     H21013   6.754   3.801  12.963  0.3962  3.5839 -1.9282
  156MOL0     H21014   6.542   3.873  12.750 -0.3580 -0.4070  0.1996
  156MOL0     H21015   6.707   3.891  12.709 -1.9336  1.8447 -0.7164
  156MOL0     H21016   6.549   4.025  12.947 -1.2674 -0.2302 -1.6286
  156MOL0     H21017   6.607   4.120  12.807  0.3188  0.0860 -0.4624
  156MOL0     H21018   6.804   3.997  12.996  2.1616  0.1371  0.3053
  156MOL0     H21019   6.740   4.157  13.009 -0.3495 -0.3999  0.1706
  156MOL0     H21020   7.070   4.230  12.721 -0.8955 -1.3328 -1.3270
  156MOL0     H21021   7.225   4.384  12.644  0.7706  1.1841  1.0918
  156MOL0     H21022   7.145   4.519  12.581  1.7480 -1.5779 -2.6242
  156MOL0     H21023   7.214   4.530  12.751 -1.5092  1.5923  1.2239
  156MOL0     H21024   7.090   4.929  12.921  0.4470 -0.2339 -1.1590
  156MOL0     H21025   7.121   5.144  12.840  0.7104 -1.1875  0.8896
  156MOL0     H21026   7.081   5.388  12.813 -0.7875  1.8774  0.2731
  156MOL0     H21027   7.120   5.300  12.665  1.0799  1.1432  1.8250
  156MOL0     H21028   7.138   5.527  12.588 -0.8369 -0.1251 -2.2804
  156MOL0     H21029   6.984   5.474  12.531  0.8944 -0.2639 -0.6692
  156MOL0     H21030   7.025   5.635  12.795  2.0672 -2.3729  0.1640
  156MOL0     H21031   6.875   5.596  12.708 -0.2261  2.0221  0.8891
  156MOL0     H21032   7.072   5.807  12.657 -0.5829  0.5847  2.1521
  156MOL0     H21033   7.010   5.728  12.504 -2.4520  2.0119 -0.9299
  156MOL0     H21034   6.865   5.866  12.734 -4.1503 -0.6484 -0.3100
  156MOL0     H21035   6.783   5.786  12.592 -1.0363  0.6406 -2.3187
  156MOL0     H21036   6.979   6.014  12.558 -1.3237  1.9477 -2.2755
  156MOL0     H21037   6.866   5.923  12.442 -3.6610 -1.3423  1.4039
  156MOL0     H21038   6.783   6.071  12.699  3.2890 -1.0671 -0.3548
  156MOL0     H21039   6.683   6.007  12.567  0.8868 -0.9071 -2.3905
  156MOL0     H21040   6.883   6.239  12.538 -0.1324  1.5909 -1.2702
  156MOL0     H21041   6.712   6.255  12.561  0.4856  0.2659 -0.1318
  156MOL0     H21042   6.707   5.151  12.725  0.3848  0.7700  0.4450
  156MOL0     H21043   6.688   4.917  12.781 -0.0732  0.8229 -1.3658
  156MOL0     H21044   6.778   4.564  12.933 -0.7564 -2.1110  2.2246
  156MOL0     H21045   6.733   4.340  12.970  1.2620  1.7517  1.8410
  156MOL0     H21046   6.234   3.796  11.520 -0.3426  0.3021 -2.9120
  156MOL0     H21047   6.256   3.871  11.305 -0.4816  0.1265  1.7878
  156MOL0     H21048   6.534   4.218  11.112  2.9855  3.5804 -0.9980
  156MOL0     H21049   6.592   4.347  10.937 -0.9507  0.0855  1.9007
  156MOL0     H21050   6.443   4.491  10.579 -0.8779 -1.1389 -0.0075
  156MOL0     H21051   6.441   4.459  10.759  0.6474 -4.0443  1.2147
  156MOL0     H21052   6.717   4.439  10.674  0.6836  0.2281 -1.4200
  156MOL0     H21053   6.658   4.557  10.783  0.9076  1.9809 -1.5869
  156MOL0     H21054   6.630   4.604  10.485 -0.3367 -0.2453  0.2985
  156MOL0     H21055   6.773   4.636  10.564 -0.1459 -1.5036  0.4747
  156MOL0     H21056   6.651   4.813  10.715 -3.7656 -0.1139  2.9222
  156MOL0     H21057   6.500   4.744  10.644  0.3741 -2.6250  0.1873
  156MOL0     H21058   6.668   5.028  10.366 -1.9961  0.5082  0.7355
  156MOL0     H21059   6.402   4.086  10.645 -2.7346 -0.2193 -0.3835
  156MOL0     H21060   6.350   3.928  10.839 -3.6867  0.0998  3.4737
  157MOL0     O21061   5.859   4.856   0.955 -0.1600  0.5979  0.1581
  157MOL0     C21062   5.847   4.820   0.838  0.4877  0.2777 -0.8076
  157MOL0     O21063   5.761   4.720   0.799 -0.3358 -0.1802 -0.0804
  157MOL0     C21064   5.663   4.665   0.879  0.3502 -0.1266  0.8195
  157MOL0     C21065   5.522   4.678   0.847  0.2561 -0.3271 -0.6812
  157MOL0     C21066   5.432   4.610   0.934 -0.4006 -0.5255 -0.7191
  157MOL0     C21067   5.476   4.531   1.048 -0.2451 -0.1864  0.5443
  157MOL0     O21068   5.395   4.464   1.129  0.1183  0.3236  0.0301
  157MOL0     C21069   5.290   4.553   1.170  1.0256  0.6400  0.8681
  157MOL0     C21070   5.261   4.520   1.313  0.3439  0.6434  0.5302
  157MOL0     C21071   5.174   4.622   1.382  0.4594  0.0294 -0.2068
  157MOL0     C21072   5.136   4.580   1.524  0.0417  0.4001  0.1502
  157MOL0     C21073   5.039   4.685   1.580  0.2324 -0.9322 -0.2849
  157MOL0     C21074   5.021   4.682   1.726  0.5794  1.1068  0.0995
  157MOL0     C21075   5.151   4.706   1.801  0.0210 -0.5483 -0.2204
  157MOL0     C21076   5.228   4.839   1.769 -0.3820 -1.0403 -0.7074
  157MOL0     N21077   5.371   4.817   1.747 -0.0679 -0.2317  0.3741
  157MOL0     C21078   5.428   4.812   1.623 -0.9599  0.4563 -0.3382
  157MOL0     C21079   5.560   4.794   1.646 -0.8303 -0.4404  0.1575
  157MOL0     C21080   5.661   4.755   1.532  0.2470  0.0969 -0.6993
  157MOL0     C21081   5.676   4.865   1.426  0.2785  1.0054 -0.4485
  157MOL0     C21082   5.764   4.982   1.468 -0.3344  0.2372  0.7082
  157MOL0     C21083   5.908   4.971   1.431  1.3557 -0.1762 -0.7618
  157MOL0     O21084   5.981   5.097   1.418  0.1786  0.0593 -0.3098
  157MOL0     C21085   5.941   5.187   1.321 -0.8181 -0.1968  0.5311
  157MOL0     C21086   5.997   5.318   1.331  0.4326 -0.2395 -0.3287
  157MOL0     C21087   5.965   5.433   1.255 -0.6005 -0.2813 -0.0464
  157MOL0     C21088   6.040   5.560   1.297  0.7253  0.6158  0.5808
  157MOL0     C21089   5.876   5.416   1.147  0.2239 -1.1833  0.4740
  157MOL0     C21090   5.845   5.530   1.051  0.1815 -0.3074 -0.4687
  157MOL0     O21091   5.895   5.654   1.077 -0.4636  0.2823 -0.4310
  157MOL0     C21092   5.874   5.759   0.992 -0.9939 -0.6670  0.2746
  157MOL0     C21093   5.755   5.792   0.935  0.2601  1.0423 -0.9042
  157MOL0     C21094   5.730   5.905   0.860  0.2429 -0.2548  0.0723
  157MOL0     C21095   5.839   5.991   0.831  0.6564 -0.7383 -0.9978
  157MOL0     O21096   5.836   6.105   0.753  0.6601 -0.0313  0.6520
  157MOL0     C21097   5.761   6.098   0.634  0.5957 -1.3476  0.2671
  157MOL0     C21098   5.775   6.227   0.555 -0.1611 -0.0050 -0.2502
  157MOL0     C21099   5.665   6.321   0.603  0.8950 -1.1197 -0.9419
  157MOL0     C21100   5.702   6.467   0.557 -0.4335 -0.9486  0.5596
  157MOL0     C21101   5.586   6.559   0.577 -0.2779 -0.5525  0.2849
  157MOL0     C21102   5.637   6.698   0.542  0.2389  0.1800  0.6492
  157MOL0     C21103   5.507   6.782   0.529 -0.7385  1.1764 -0.8648
  157MOL0     C21104   5.523   6.925   0.473 -0.0700 -0.1119  0.3886
  157MOL0    Cl21105   5.374   7.022   0.481 -0.2841  0.2666 -0.2895
  157MOL0     C21106   5.958   5.960   0.891  0.5806 -0.0975  0.3030
  157MOL0     C21107   5.975   5.850   0.981 -0.0909 -0.1705  0.0018
  157MOL0     O21108   5.770   5.502   0.957 -1.1337 -0.2072 -0.0871
  157MOL0     C21109   5.823   5.284   1.119 -0.6083  0.9063 -0.8599
  157MOL0     C21110   5.851   5.177   1.208 -0.6293 -0.0234  0.1762
  157MOL0     N21111   5.573   4.782   1.778 -0.1660  0.6768 -0.2111
  157MOL0     N21112   5.469   4.810   1.844  0.6390  0.0644 -0.1706
  157MOL0     C21113   5.617   4.524   1.076  0.9538  0.1592  0.3210
  157MOL0     C21114   5.708   4.579   0.984  0.0540 -0.2862 -0.2118
  157MOL0     C21115   5.950   4.860   0.746  0.4648 -0.0550 -0.0398
  157MOL0     C21116   6.066   4.922   0.789  0.4119 -0.6677 -0.3805
  157MOL0     C21117   6.156   4.967   0.694  0.0139  0.2572 -0.7930
  157MOL0     C21118   6.139   4.947   0.563  0.2096 -1.3708 -0.7892
  157MOL0     O21119   6.219   5.024   0.484  0.2623  0.6855  0.0365
  157MOL0     C21120   6.216   5.020   0.340  0.1979 -0.3474 -0.1318
  157MOL0     C21121   6.099   5.102   0.273 -0.1953 -0.4100 -0.2716
  157MOL0     C21122   6.123   5.257   0.298  0.6198  0.3337  0.3022
  157MOL0     C21123   6.022   5.334   0.208  1.2748 -0.3686 -0.4031
  157MOL0     C21124   6.063   5.475   0.213  1.0386  1.1268  0.4828
  157MOL0     C21125   6.086   5.591   0.211  0.0436 -0.7809  0.7171
  157MOL0     C21126   6.030   4.873   0.518 -0.1819  0.3321 -1.4174
  157MOL0     C21127   5.933   4.831   0.613 -1.2270  0.7027  0.2467
  157MOL0     H21128   5.482   4.740   0.767 -0.0921 -0.4527 -0.6062
  157MOL0     H21129   5.327   4.628   0.915 -0.7783 -2.5430 -0.8166
  157MOL0     H21130   5.296   4.662   1.162 -3.2419  1.0265  0.9477
  157MOL0     H21131   5.205   4.522   1.109  2.2174  1.9033 -1.5654
  157MOL0     H21132   5.226   4.417   1.329  2.2315 -0.2638 -0.8448
  157MOL0     H21133   5.359   4.527   1.362 -0.4172 -2.2284  2.8126
  157MOL0     H21134   5.226   4.718   1.381  1.3021 -0.4209 -0.6036
  157MOL0     H21135   5.091   4.635   1.312 -0.0150 -4.1037 -0.6943
  157MOL0     H21136   5.080   4.486   1.525 -3.2850  2.2006  1.1620
  157MOL0     H21137   5.225   4.549   1.579  0.5732 -1.9477 -1.8552
  157MOL0     H21138   5.073   4.781   1.540  0.0992  0.8446  3.4525
  157MOL0     H21139   4.936   4.678   1.544 -0.7118  0.1123  2.0170
  157MOL0     H21140   4.950   4.764   1.740 -0.1541  1.1917 -3.2973
  157MOL0     H21141   4.977   4.585   1.753  0.1927  1.6094  1.3855
  157MOL0     H21142   5.133   4.712   1.909  0.4379 -2.3934 -0.0143
  157MOL0     H21143   5.221   4.622   1.793 -0.2906 -1.0006  1.4167
  157MOL0     H21144   5.207   4.913   1.846  0.4176 -0.7734 -0.7391
  157MOL0     H21145   5.180   4.892   1.685 -0.1073  0.1676 -0.1251
  157MOL0     H21146   5.385   4.816   1.523 -0.8866 -5.5964 -1.0059
  157MOL0     H21147   5.763   4.731   1.564 -0.6653 -0.5924  1.9228
  157MOL0     H21148   5.610   4.668   1.491  3.2520 -1.3737 -1.5901
  157MOL0     H21149   5.578   4.911   1.408  0.5610  1.8324  0.0947
  157MOL0     H21150   5.704   4.821   1.330 -0.2605 -1.8110  0.5801
  157MOL0     H21151   5.775   4.990   1.576 -3.0862  0.3153  1.0419
  157MOL0     H21152   5.726   5.076   1.426  2.0381 -0.2914 -3.0759
  157MOL0     H21153   5.912   4.911   1.339  0.9196 -0.1733 -0.7870
  157MOL0     H21154   5.958   4.903   1.500  1.9708 -1.3580 -2.3076
  157MOL0     H21155   6.064   5.332   1.415  1.4466 -1.9419 -0.8165
  157MOL0     H21156   5.965   5.630   1.335  0.8013  0.4331  1.0880
  157MOL0     H21157   6.105   5.546   1.385 -0.9849  0.4739  1.8823
  157MOL0     H21158   6.090   5.604   1.210  0.8179 -0.6278 -0.0104
  157MOL0     H21159   5.676   5.721   0.957  0.1774  1.7186  1.0727
  157MOL0     H21160   5.631   5.924   0.820  0.4617 -1.7387 -1.2918
  157MOL0     H21161   5.797   6.019   0.568  3.3749  1.2377 -1.5968
  157MOL0     H21162   5.657   6.075   0.658  0.2991 -1.6856 -1.2792
  157MOL0     H21163   5.874   6.272   0.548  0.5405 -1.4738 -0.0973
  157MOL0     H21164   5.745   6.196   0.455 -0.2486 -1.5981  0.2406
  157MOL0     H21165   5.658   6.324   0.712 -0.6418  0.6679 -1.0369
  157MOL0     H21166   5.567   6.290   0.563  0.1123 -2.6985  1.9042
  157MOL0     H21167   5.790   6.493   0.617 -0.8111 -0.1608  0.7838
  157MOL0     H21168   5.738   6.480   0.455  2.5361 -0.6876  1.5282
  157MOL0     H21169   5.542   6.565   0.677 -4.2932  2.7740 -1.3776
  157MOL0     H21170   5.505   6.525   0.512  0.7719  0.5691 -1.6932
  157MOL0     H21171   5.700   6.733   0.625  0.4117  0.5832  0.3475
  157MOL0     H21172   5.683   6.690   0.444 -0.6221 -0.4072  0.2809
  157MOL0     H21173   5.462   6.785   0.629 -3.0234 -1.4803 -1.7060
  157MOL0     H21174   5.437   6.728   0.465  1.7961 -1.7561 -1.3494
  157MOL0     H21175   5.558   6.920   0.369  3.9375  0.8576  1.5145
  157MOL0     H21176   5.607   6.974   0.522  3.2600 -2.5463 -2.3486
  157MOL0     H21177   6.044   6.022   0.872  0.3236  0.7073  1.6030
  157MOL0     H21178   6.074   5.840   1.025  0.6997 -0.9833 -1.8516
  157MOL0     H21179   5.747   5.259   1.046 -1.0754 -1.6201  0.4088
  157MOL0     H21180   5.802   5.088   1.171 -3.1882  2.0163 -1.6949
  157MOL0     H21181   5.638   4.472   1.169 -1.2431 -3.0995 -0.8211
  157MOL0     H21182   5.814   4.561   1.000 -0.0916 -1.7143 -0.6922
  157MOL0     H21183   6.078   4.952   0.893  0.8254  1.3433 -0.9576
  157MOL0     H21184   6.240   5.031   0.722  1.1232 -0.7447 -1.7657
  157MOL0     H21185   6.317   5.041   0.305  0.8395 -1.4752  0.9300
  157MOL0     H21186   6.222   4.922   0.292 -1.6558  0.0278 -1.2342
  157MOL0     H21187   6.001   5.062   0.300  0.3913 -2.4369 -0.9672
  157MOL0     H21188   6.096   5.078   0.166  0.7837 -0.3531 -0.3213
  157MOL0     H21189   6.227   5.270   0.269  0.6797 -1.2321 -0.2778
  157MOL0     H21190   6.100   5.287   0.401 -0.5496  1.5218 -0.2675
  157MOL0     H21191   5.920   5.332   0.247  0.2386  1.5180 -2.7668
  157MOL0     H21192   6.018   5.294   0.106 -1.9210  0.9219 -0.9179
  157MOL0     H21193   6.095   5.698   0.216 -4.0083 -0.2622  0.5454
  157MOL0     H21194   6.013   4.870   0.411 -2.2767  2.7349 -1.2472
  157MOL0     H21195   5.845   4.777   0.580  1.5071 -4.6197  0.5558
  158MOL0     O21196   4.650  10.270   9.614  0.6004  0.2510  0.2117
  158MOL0     C21197   4.574  10.262   9.713  0.6067  0.2696  0.2597
  158MOL0     O21198   4.449  10.319   9.728  0.3720  0.4333  0.1415
  158MOL0     C21199   4.405  10.407   9.625 -0.2960 -0.1907  0.0353
  158MOL0     C21200   4.379  10.354   9.500  0.3903  0.8289  0.7302
  158MOL0     C21201   4.307  10.422   9.400 -0.7662  1.2755 -0.3871
  158MOL0     C21202   4.267  10.552   9.428  0.1139 -0.1320 -0.1367
  158MOL0     O21203   4.210  10.622   9.323 -0.4951 -0.3043  0.4763
  158MOL0     C21204   4.183  10.760   9.336 -0.6956 -0.1616 -0.6303
  158MOL0     C21205   4.097  10.810   9.222  0.3921 -0.6374  0.2200
  158MOL0     C21206   4.177  10.822   9.087  0.0434 -0.4378 -0.5948
  158MOL0     C21207   4.102  10.888   8.969 -0.2960  0.2377 -0.2390
  158MOL0     C21208   4.194  10.972   8.881 -0.5996 -0.2706  0.4610
  158MOL0     C21209   4.130  11.050   8.763 -0.4744 -0.6992 -0.1885
  158MOL0     C21210   4.033  11.170   8.797  0.4862 -0.5662  0.5862
  158MOL0     C21211   3.928  11.190   8.689  0.4103 -0.0096  1.8528
  158MOL0     N21212   3.967  11.303   8.601 -0.5097 -0.8620 -0.4341
  158MOL0     C21213   3.996  11.289   8.470 -0.3300  0.2341  1.1369
  158MOL0     C21214   3.994  11.417   8.422  0.0203 -0.3736 -0.7246
  158MOL0     C21215   4.022  11.464   8.278  0.0962 -0.3170  0.3621
  158MOL0     C21216   3.914  11.416   8.172 -1.0491 -0.1609  1.0709
  158MOL0     C21217   3.914  11.507   8.057  0.5201 -0.1597 -1.0906
  158MOL0     C21218   3.832  11.454   7.945  0.3730  0.0741  0.7370
  158MOL0     O21219   3.838  11.553   7.840 -0.1402 -0.9436 -0.2109
  158MOL0     C21220   3.715  11.583   7.786 -0.1956  1.2679  0.2932
  158MOL0     C21221   3.614  11.642   7.863 -0.5066  0.1104  0.8772
  158MOL0     C21222   3.500  11.716   7.806 -1.0539  0.8841  0.2115
  158MOL0     C21223   3.414  11.790   7.909  0.3658 -0.2800  1.1156
  158MOL0     C21224   3.472  11.697   7.666 -0.1218 -0.3722  0.1056
  158MOL0     C21225   3.362  11.752   7.594  0.7640  0.0508 -0.6382
  158MOL0     O21226   3.239  11.742   7.649  0.0156 -0.0988 -0.2806
  158MOL0     C21227   3.128  11.793   7.586  1.0730 -0.3320 -0.0286
  158MOL0     C21228   3.016  11.709   7.580  0.8850 -0.6665  0.3497
  158MOL0     C21229   2.906  11.744   7.499 -0.2301  0.1798  0.1818
  158MOL0     C21230   2.908  11.860   7.426  0.7099  0.9589  0.1603
  158MOL0     O21231   2.799  11.902   7.357 -0.0111 -0.4718  0.0771
  158MOL0     C21232   2.669  11.911   7.422  0.9277 -0.4051 -0.5190
  158MOL0     C21233   2.581  12.007   7.349 -0.6128 -0.0473  0.7312
  158MOL0     C21234   2.566  11.985   7.197  0.5884 -0.2751 -0.0503
  158MOL0     C21235   2.481  12.090   7.126 -0.3928 -0.1044  0.7185
  158MOL0     C21236   2.549  12.208   7.058 -0.8522  0.4573 -0.3192
  158MOL0     C21237   2.465  12.337   7.032 -0.0563 -0.1117  0.0239
  158MOL0     C21238   2.554  12.446   6.986 -0.3272 -0.0444 -0.3040
  158MOL0     C21239   2.493  12.585   6.996  0.6551 -0.2126 -0.3318
  158MOL0    Cl21240   2.335  12.602   6.912  0.3246  0.5948 -0.3046
  158MOL0     C21241   3.018  11.946   7.431 -0.2290  0.2791 -0.2716
  158MOL0     C21242   3.129  11.906   7.507  0.6168  1.1206 -0.2168
  158MOL0     O21243   3.388  11.782   7.480 -0.1302 -1.0563 -0.4444
  158MOL0     C21244   3.586  11.643   7.583  0.1420  0.0085 -0.0209
  158MOL0     C21245   3.703  11.585   7.642  0.1689  0.6527 -1.4541
  158MOL0     N21246   3.970  11.499   8.541 -0.2950  0.0947  0.0387
  158MOL0     N21247   3.947  11.429   8.644 -0.5860 -0.4674  0.4129
  158MOL0     C21248   4.311  10.617   9.546 -0.5943  0.1976 -0.2922
  158MOL0     C21249   4.380  10.538   9.648 -0.0773  0.6087  0.7134
  158MOL0     C21250   4.620  10.189   9.837  1.1759 -0.1748  0.5286
  158MOL0     C21251   4.743  10.130   9.848  0.7067  0.5921 -0.1668
  158MOL0     C21252   4.787  10.058   9.955 -0.4832 -0.0276  0.0473
  158MOL0     C21253   4.706  10.036  10.065  0.1645  0.2089  1.3341
  158MOL0     O21254   4.749   9.971  10.171  0.1941  0.1306  0.6227
  158MOL0     C21255   4.652   9.910  10.265  0.2328 -0.2340 -0.4376
  158MOL0     C21256   4.712   9.820  10.375  0.6510 -0.1235 -0.2785
  158MOL0     C21257   4.832   9.885  10.434 -0.2868 -0.4002 -0.6055
  158MOL0     C21258   4.901   9.814  10.551 -0.3129  0.3151  0.2095
  158MOL0     C21259   4.959   9.684  10.523 -0.7583 -1.1436  0.0929
  158MOL0     C21260   4.987   9.571  10.487 -0.6228 -0.5676 -0.1016
  158MOL0     C21261   4.576  10.091  10.060  0.0762  0.5625  0.5707
  158MOL0     C21262   4.533  10.161   9.946 -0.8535 -0.4085  0.2982
  158MOL0     H21263   4.400  10.248   9.490 -1.5410  0.0759  3.3986
  158MOL0     H21264   4.281  10.368   9.310  4.1207  0.7724 -1.8239
  158MOL0     H21265   4.144  10.791   9.434  0.4086 -1.5761  0.3058
  158MOL0     H21266   4.276  10.818   9.335 -1.3682  1.0699  1.3864
  158MOL0     H21267   4.008  10.749   9.202 -0.0126  0.2526 -0.8086
  158MOL0     H21268   4.060  10.911   9.241  1.3754 -0.1057 -0.5963
  158MOL0     H21269   4.273  10.866   9.115 -0.9269  0.9495  0.7737
  158MOL0     H21270   4.196  10.722   9.048 -3.9130 -0.8266 -2.0162
  158MOL0     H21271   4.067  10.812   8.898  0.0621 -0.9142  0.7773
  158MOL0     H21272   4.018  10.949   9.004 -1.6316 -0.0643 -2.6541
  158MOL0     H21273   4.253  11.034   8.950  3.8544 -3.5476  0.0623
  158MOL0     H21274   4.256  10.895   8.835 -0.3845 -1.6949  2.9641
  158MOL0     H21275   4.214  11.090   8.704 -0.5793  1.4819  1.0296
  158MOL0     H21276   4.071  10.977   8.706  0.8535 -3.3643  1.6488
  158MOL0     H21277   3.984  11.139   8.890  0.4600 -0.3059  0.6617
  158MOL0     H21278   4.078  11.267   8.821 -1.5378  0.3238  1.0669
  158MOL0     H21279   3.824  11.211   8.715  0.0350  0.7713 -0.0653
  158MOL0     H21280   3.916  11.101   8.627 -0.4633  1.9427 -0.9917
  158MOL0     H21281   4.005  11.201   8.408  0.2946  1.5651 -0.7809
  158MOL0     H21282   4.027  11.573   8.273 -2.0575 -0.2172 -1.5331
  158MOL0     H21283   4.116  11.421   8.244 -0.8524 -2.9262  0.7890
  158MOL0     H21284   3.813  11.423   8.213 -0.8247 -2.0691  2.0507
  158MOL0     H21285   3.939  11.313   8.145 -1.1455 -0.8222  3.2814
  158MOL0     H21286   4.013  11.538   8.020  0.2943  1.7637 -0.1788
  158MOL0     H21287   3.865  11.597   8.094  1.7317 -0.9948  2.9430
  158MOL0     H21288   3.731  11.444   7.984  0.4802 -1.9127  0.6233
  158MOL0     H21289   3.859  11.353   7.912 -0.5145 -0.9749  3.0321
  158MOL0     H21290   3.629  11.661   7.968  1.5031 -0.7899  0.7946
  158MOL0     H21291   3.348  11.725   7.966  0.1369 -1.8343 -0.8152
  158MOL0     H21292   3.473  11.840   7.986  2.0540  1.1869 -0.9920
  158MOL0     H21293   3.352  11.862   7.854  2.0357  0.4714  0.1221
  158MOL0     H21294   3.017  11.603   7.605  2.4758 -0.8932 -0.4719
  158MOL0     H21295   2.815  11.686   7.486 -0.0535  0.3201 -1.9512
  158MOL0     H21296   2.628  11.810   7.428 -0.4234  0.0370 -1.7643
  158MOL0     H21297   2.691  11.949   7.523  3.8718 -2.5497 -0.1989
  158MOL0     H21298   2.480  11.994   7.390  0.3421 -1.5445  2.7967
  158MOL0     H21299   2.616  12.109   7.362 -1.6850  0.3740  0.4293
  158MOL0     H21300   2.520  11.888   7.177 -1.7124  0.4292  1.4766
  158MOL0     H21301   2.658  11.998   7.138 -0.9857  2.6240 -2.1223
  158MOL0     H21302   2.420  12.037   7.052  0.0385 -1.2048  1.1290
  158MOL0     H21303   2.408  12.133   7.196  1.3135  1.5532  1.5633
  158MOL0     H21304   2.589  12.168   6.964  1.5980 -1.1266  1.2871
  158MOL0     H21305   2.637  12.236   7.117 -3.1408 -0.1864  3.7658
  158MOL0     H21306   2.395  12.304   6.955  0.3815  2.3785 -1.5409
  158MOL0     H21307   2.419  12.374   7.124 -3.0994  0.3046 -1.5477
  158MOL0     H21308   2.574  12.427   6.880 -2.2874  0.7954 -0.8753
  158MOL0     H21309   2.643  12.443   7.049 -0.6167  0.8778  0.1686
  158MOL0     H21310   2.557  12.668   6.966 -1.3586  2.2217  1.5896
  158MOL0     H21311   2.480  12.610   7.102  2.9065  1.1091 -0.3004
  158MOL0     H21312   3.012  12.041   7.378 -3.4798 -0.4777 -1.4898
  158MOL0     H21313   3.212  11.975   7.519  2.3931 -1.1758  1.8836
  158MOL0     H21314   3.578  11.630   7.476 -0.5458  0.0890  0.0167
  158MOL0     H21315   3.778  11.535   7.582  1.7575 -0.8621  1.5725
  158MOL0     H21316   4.300  10.725   9.554  0.0463  0.2421  0.0744
  158MOL0     H21317   4.401  10.574   9.748 -1.8288 -3.0010  2.5615
  158MOL0     H21318   4.824  10.152   9.779  0.7491 -2.1070 -1.0916
  158MOL0     H21319   4.893  10.046   9.972 -0.7183  0.6958  2.3959
  158MOL0     H21320   4.584   9.981  10.312 -0.9707  0.6675 -3.3170
  158MOL0     H21321   4.586   9.845  10.208 -0.0115 -1.7291  1.4474
  158MOL0     H21322   4.746   9.724  10.334  1.4859 -1.3466  2.9620
  158MOL0     H21323   4.636   9.790  10.448 -0.6823 -1.2623 -2.0354
  158MOL0     H21324   4.804   9.983  10.472 -0.4187 -0.1191 -1.4005
  158MOL0     H21325   4.907   9.902  10.356  0.2718  0.3951  0.0859
  158MOL0     H21326   4.830   9.791  10.631 -3.0364  1.9139 -1.5572
  158MOL0     H21327   4.979   9.869  10.603 -0.7929 -0.5871  1.9710
  158MOL0     H21328   5.002   9.470  10.455 -0.4800 -0.4664 -0.3578
  158MOL0     H21329   4.505  10.091  10.141 -1.4463 -1.4054 -0.6704
  158MOL0     H21330   4.431  10.199   9.940 -0.7579 -0.3332 -0.9323
  159MOL0     O21331  10.737   6.584   6.717  0.7562  0.2369  0.0188
  159MOL0     C21332  10.828   6.600   6.637  0.4779 -0.9142 -0.5856
  159MOL0     O21333  10.914   6.498   6.601  0.3616 -0.5957 -0.7047
  159MOL0     C21334  10.880   6.360   6.613  0.9683  0.6941  0.1949
  159MOL0     C21335  10.747   6.315   6.624  0.7873 -1.1584 -0.0830
  159MOL0     C21336  10.718   6.177   6.626  0.5377  0.2169  1.0298
  159MOL0     C21337  10.813   6.080   6.606 -0.4148  0.1539  0.3571
  159MOL0     O21338  10.776   5.948   6.587  0.5310  0.1264 -0.3053
  159MOL0     C21339  10.672   5.900   6.674 -0.7889 -0.5513  0.1626
  159MOL0     C21340  10.668   5.749   6.714 -0.9451 -0.0721  0.3796
  159MOL0     C21341  10.561   5.732   6.807 -0.7653 -0.0108  0.4356
  159MOL0     C21342  10.546   5.573   6.807 -0.0115 -0.3666 -0.4122
  159MOL0     C21343  10.432   5.537   6.906  0.3920 -0.3205 -0.0863
  159MOL0     C21344  10.433   5.384   6.935 -0.4000 -0.4480 -0.6858
  159MOL0     C21345  10.548   5.339   7.019  0.6189 -0.5856  1.2298
  159MOL0     C21346  10.553   5.191   7.020  0.3082  0.5103 -0.5687
  159MOL0     N21347  10.675   5.175   7.100  0.0353 -0.7696 -0.4258
  159MOL0     C21348  10.795   5.197   7.048 -0.3012  0.0847 -0.6124
  159MOL0     C21349  10.885   5.161   7.139 -0.0978  0.8972  0.2310
  159MOL0     C21350  11.036   5.174   7.126  0.6905  0.3629  0.0438
  159MOL0     C21351  11.109   5.072   7.213  0.2002  1.0606 -0.0256
  159MOL0     C21352  11.267   5.084   7.188 -0.3628  0.0518 -0.3601
  159MOL0     C21353  11.357   5.025   7.305  0.6063  0.4496 -0.9596
  159MOL0     O21354  11.306   4.897   7.342 -0.8180  0.0179  0.0531
  159MOL0     C21355  11.397   4.792   7.336  0.0420 -0.9333  0.0247
  159MOL0     C21356  11.528   4.811   7.386 -0.1963  0.2441 -0.1725
  159MOL0     C21357  11.617   4.702   7.371 -0.3683  0.8165 -0.4174
  159MOL0     C21358  11.747   4.723   7.452 -0.2277 -0.6136 -0.1398
  159MOL0     C21359  11.583   4.579   7.296 -0.1649 -0.2988 -0.2149
  159MOL0     C21360  11.677   4.465   7.262 -0.2110  0.2152 -0.6661
  159MOL0     O21361  11.628   4.345   7.203 -0.3894 -0.4003  0.2995
  159MOL0     C21362  11.719   4.252   7.157 -0.5728 -1.4798 -0.3307
  159MOL0     C21363  11.745   4.255   7.016 -0.2058 -0.3702 -0.4234
  159MOL0     C21364  11.836   4.162   6.962 -0.5542 -0.3280 -0.4232
  159MOL0     C21365  11.924   4.093   7.045  0.6275  0.9353 -0.1687
  159MOL0     O21366  12.023   4.010   6.986 -0.1527 -0.1686  0.1761
  159MOL0     C21367  12.147   4.003   7.057  0.1521 -0.6762 -0.2195
  159MOL0     C21368  12.278   3.976   6.978 -1.0080  0.4258  0.5268
  159MOL0     C21369  12.266   3.832   6.913  0.1169  0.0335 -0.1476
  159MOL0     C21370  12.359   3.800   6.785  0.1052  0.6887  0.1441
  159MOL0     C21371  12.354   3.647   6.763 -0.3811 -0.2053  0.8570
  159MOL0     C21372  12.435   3.625   6.636 -0.2873  0.3910 -0.4392
  159MOL0     C21373  12.505   3.493   6.639  0.2399  0.5009  0.7023
  159MOL0     C21374  12.591   3.467   6.515  0.6404  0.2440 -0.0657
  159MOL0    Cl21375  12.660   3.306   6.567 -0.1409  0.1942 -0.0518
  159MOL0     C21376  11.886   4.087   7.185 -0.4583  0.7318  0.2147
  159MOL0     C21377  11.791   4.168   7.240  1.0117  0.4404 -0.4820
  159MOL0     O21378  11.790   4.488   7.296 -0.6258 -0.2953 -0.1117
  159MOL0     C21379  11.455   4.564   7.241 -0.1007  0.0022 -0.2265
  159MOL0     C21380  11.365   4.677   7.262  0.1562 -0.9071 -0.6250
  159MOL0     N21381  10.820   5.099   7.244  0.1444  1.1709 -0.0839
  159MOL0     N21382  10.696   5.108   7.223  0.8508  0.1272  0.0216
  159MOL0     C21383  10.940   6.117   6.590 -0.0775  0.5120 -0.5268
  159MOL0     C21384  10.976   6.257   6.595 -0.5380  0.2942  0.3048
  159MOL0     C21385  10.858   6.740   6.592 -0.6539  0.0307  0.1285
  159MOL0     C21386  10.982   6.765   6.534  0.2546  0.0287  0.8370
  159MOL0     C21387  11.000   6.889   6.468 -0.1293  0.2711  0.1585
  159MOL0     C21388  10.906   6.993   6.465 -1.2874  0.4396 -0.0122
  159MOL0     O21389  10.934   7.102   6.386  0.1159 -0.7708 -0.1366
  159MOL0     C21390  10.837   7.213   6.385 -0.6161  0.1728 -0.0255
  159MOL0     C21391  10.893   7.316   6.289 -0.3098 -0.5063  0.4820
  159MOL0     C21392  10.995   7.409   6.349  0.1375  0.4678  0.2705
  159MOL0     C21393  10.941   7.536   6.426 -0.2411  0.4880  0.2996
  159MOL0     C21394  10.916   7.652   6.344 -1.1371  0.3466  0.1160
  159MOL0     C21395  10.905   7.746   6.268  0.0737  0.2295 -0.4369
  159MOL0     C21396  10.784   6.972   6.535 -0.9291  0.7332 -0.4939
  159MOL0     C21397  10.765   6.847   6.597  1.0076 -0.9166  0.1170
  159MOL0     H21398  10.658   6.377   6.625  1.4202  0.2551 -4.9705
  159MOL0     H21399  10.614   6.148   6.616  0.0781  2.4558 -2.6596
  159MOL0     H21400  10.684   5.952   6.769  1.2120 -1.5619  0.5206
  159MOL0     H21401  10.579   5.917   6.618 -1.0024 -1.1206  0.3368
  159MOL0     H21402  10.635   5.699   6.623 -2.5546 -1.9934  1.9306
  159MOL0     H21403  10.769   5.712   6.737 -0.1863  2.7773  2.2380
  159MOL0     H21404  10.587   5.789   6.896 -1.7933  4.6535 -1.9333
  159MOL0     H21405  10.473   5.779   6.764 -1.6045 -3.9844 -2.9249
  159MOL0     H21406  10.527   5.545   6.703  0.6278  2.0606 -1.2542
  159MOL0     H21407  10.639   5.532   6.847  1.6537  1.6143 -2.0464
  159MOL0     H21408  10.437   5.594   6.999 -1.3034  3.5213 -2.0884
  159MOL0     H21409  10.340   5.564   6.852  0.2432  0.9851  0.7645
  159MOL0     H21410  10.344   5.366   6.995  0.1220  1.2122  0.6618
  159MOL0     H21411  10.432   5.331   6.839  0.9096  0.1882 -1.0779
  159MOL0     H21412  10.643   5.382   6.987 -0.2381  0.8986  0.5787
  159MOL0     H21413  10.529   5.378   7.119  1.2369  2.3877  0.2825
  159MOL0     H21414  10.567   5.143   6.922 -0.7404  1.5119 -1.2320
  159MOL0     H21415  10.460   5.148   7.059  0.7624 -0.5758 -0.6330
  159MOL0     H21416  10.815   5.212   6.943  1.3669 -2.4264 -0.7298
  159MOL0     H21417  11.056   5.151   7.021 -1.4226  2.3103 -0.8771
  159MOL0     H21418  11.071   5.274   7.150  2.6157  0.1083 -1.4476
  159MOL0     H21419  11.069   4.971   7.201 -2.1573  1.5478  2.4992
  159MOL0     H21420  11.085   5.092   7.318 -3.0916 -0.8301 -0.2591
  159MOL0     H21421  11.295   5.190   7.181 -0.0585 -0.0067 -0.0538
  159MOL0     H21422  11.299   5.032   7.097 -1.4920 -1.2730 -0.0299
  159MOL0     H21423  11.352   5.094   7.389 -0.1202 -2.5051  1.6026
  159MOL0     H21424  11.458   5.016   7.262  0.3624 -4.4757 -1.0363
  159MOL0     H21425  11.556   4.907   7.428 -0.4533  0.6034 -0.8164
  159MOL0     H21426  11.750   4.828   7.482 -1.2393 -0.1810 -1.4396
  159MOL0     H21427  11.737   4.666   7.545 -0.0782 -0.5123 -0.0615
  159MOL0     H21428  11.841   4.701   7.400  0.4948 -0.0642  0.8985
  159MOL0     H21429  11.680   4.312   6.951 -0.5928  2.8066  2.5001
  159MOL0     H21430  11.841   4.158   6.853 -1.3874  1.2468 -0.5438
  159MOL0     H21431  12.161   4.104   7.096 -2.3069 -0.3290 -0.0708
  159MOL0     H21432  12.129   3.944   7.148 -4.2547  0.9813  0.2463
  159MOL0     H21433  12.299   4.054   6.905  1.0151 -1.1836 -0.7250
  159MOL0     H21434  12.367   3.984   7.041  0.4085 -2.5349 -0.8939
  159MOL0     H21435  12.159   3.811   6.905 -0.3196  1.3704  1.4875
  159MOL0     H21436  12.302   3.758   6.984  0.6663  1.6266  1.2989
  159MOL0     H21437  12.327   3.857   6.698 -0.0714 -2.6248 -2.1198
  159MOL0     H21438  12.464   3.825   6.806  2.6865 -3.7420 -4.9978
  159MOL0     H21439  12.255   3.600   6.763  0.2041 -1.5039  1.7280
  159MOL0     H21440  12.408   3.601   6.846  3.2507 -0.3689 -1.3681
  159MOL0     H21441  12.361   3.621   6.557 -2.2422 -3.6836  1.2918
  159MOL0     H21442  12.504   3.707   6.617 -0.1082 -0.0652 -1.9069
  159MOL0     H21443  12.428   3.416   6.650  1.3014 -0.9952 -1.4868
  159MOL0     H21444  12.575   3.504   6.722 -0.6733  1.1166  1.4073
  159MOL0     H21445  12.670   3.539   6.489  0.6712 -0.3473 -1.7122
  159MOL0     H21446  12.523   3.466   6.430 -1.4508 -2.7928  1.4962
  159MOL0     H21447  11.943   4.025   7.253 -0.3176  1.5054  0.8180
  159MOL0     H21448  11.755   4.162   7.342  0.4663  1.8054 -0.5706
  159MOL0     H21449  11.425   4.483   7.176  1.0914 -3.5683  3.2663
  159MOL0     H21450  11.263   4.670   7.226 -0.4684  1.4855  0.5190
  159MOL0     H21451  11.003   6.034   6.561  0.1381  0.5252 -0.1080
  159MOL0     H21452  11.081   6.274   6.573 -0.9128 -0.7455 -2.7996
  159MOL0     H21453  11.059   6.689   6.528  1.0402  0.9019 -1.1720
  159MOL0     H21454  11.103   6.892   6.436 -0.5814  0.8853 -1.3351
  159MOL0     H21455  10.747   7.174   6.337 -0.9566  0.8739  0.0319
  159MOL0     H21456  10.810   7.243   6.487  0.9336  0.9697  0.1769
  159MOL0     H21457  10.807   7.374   6.255 -1.6746 -2.5819  0.1687
  159MOL0     H21458  10.933   7.267   6.199  1.6903  0.5897  0.7076
  159MOL0     H21459  11.069   7.428   6.271 -1.0252 -3.5246 -2.1208
  159MOL0     H21460  11.054   7.346   6.417  0.2521 -0.6197 -0.8127
  159MOL0     H21461  11.008   7.565   6.507  1.6594  0.6819 -1.2732
  159MOL0     H21462  10.846   7.512   6.476  0.0426 -2.0559 -0.2111
  159MOL0     H21463  10.901   7.835   6.209  1.2095 -0.1113 -1.0421
  159MOL0     H21464  10.699   7.034   6.559 -2.8422 -2.5686  2.1217
  159MOL0     H21465  10.667   6.822   6.636  1.6646 -3.9953  0.0531
  160MOL0     O21466   3.912   8.591   8.322 -0.4473 -0.3114  0.1791
  160MOL0     C21467   3.965   8.615   8.211 -0.2433 -0.5960 -0.5470
  160MOL0     O21468   3.905   8.606   8.088  0.1892  1.1730 -0.7123
  160MOL0     C21469   3.784   8.537   8.076  0.1580 -0.8479 -0.8802
  160MOL0     C21470   3.759   8.409   8.120 -0.5520 -0.6307 -1.4330
  160MOL0     C21471   3.633   8.355   8.090 -0.5170  0.7643 -0.7510
  160MOL0     C21472   3.537   8.429   8.023  0.0596 -0.5619  0.8196
  160MOL0     O21473   3.422   8.359   7.999 -0.0403 -0.1155 -0.3964
  160MOL0     C21474   3.313   8.405   7.911  0.1368  0.1878 -0.2937
  160MOL0     C21475   3.193   8.313   7.930 -0.2887 -0.1285 -0.2409
  160MOL0     C21476   3.152   8.279   8.073 -1.4018  0.0857 -0.0673
  160MOL0     C21477   3.119   8.402   8.156 -0.4142  0.7571  0.3973
  160MOL0     C21478   3.069   8.356   8.294 -0.0962 -0.4333  0.3040
  160MOL0     C21479   3.181   8.310   8.386 -0.3141 -0.0574 -0.2308
  160MOL0     C21480   3.294   8.403   8.408 -0.1696  0.1819 -0.4014
  160MOL0     C21481   3.323   8.398   8.558  0.3041 -0.3859  0.1767
  160MOL0     N21482   3.430   8.496   8.582  0.6857  0.1352  0.2141
  160MOL0     C21483   3.553   8.475   8.623 -0.5020  0.5408 -0.0119
  160MOL0     C21484   3.612   8.593   8.674  0.2208  0.8106  0.3495
  160MOL0     C21485   3.758   8.607   8.717  0.2131  0.1614  0.2423
  160MOL0     C21486   3.767   8.510   8.839 -0.2019 -0.8582  1.1217
  160MOL0     C21487   3.914   8.484   8.849 -0.5276  0.0789  0.5921
  160MOL0     C21488   3.957   8.410   8.978  0.4652 -0.3379 -1.3616
  160MOL0     O21489   3.937   8.485   9.094  0.2038  0.6916  0.1805
  160MOL0     C21490   4.043   8.533   9.165 -1.5598 -0.1222 -0.0565
  160MOL0     C21491   4.068   8.478   9.291  0.7080 -0.2720 -0.7422
  160MOL0     C21492   4.162   8.527   9.378 -0.3166 -0.8194 -0.1930
  160MOL0     C21493   4.186   8.480   9.507  0.1949 -0.1316  0.3398
  160MOL0     C21494   4.245   8.634   9.331  0.9734  0.2451  0.9867
  160MOL0     C21495   4.358   8.686   9.405 -0.5044 -0.4560 -0.4286
  160MOL0     O21496   4.352   8.819   9.436  0.2123  0.1551  0.2354
  160MOL0     C21497   4.422   8.860   9.553  0.7089  0.0765 -0.8535
  160MOL0     C21498   4.375   8.846   9.683 -0.2200  0.4380 -0.7209
  160MOL0     C21499   4.447   8.892   9.790 -0.3619 -0.6568  0.1852
  160MOL0     C21500   4.575   8.944   9.771  0.0604 -0.6620 -0.0262
  160MOL0     O21501   4.651   8.996   9.875  0.5248 -0.2886 -0.4618
  160MOL0     C21502   4.598   8.987  10.008 -0.4685 -0.7313 -0.2101
  160MOL0     C21503   4.699   9.050  10.104  0.3039  0.3361 -0.5149
  160MOL0     C21504   4.839   8.981  10.126 -0.9661 -1.0271  0.1178
  160MOL0     C21505   4.831   8.869  10.235 -0.0077  1.1755 -0.5866
  160MOL0     C21506   4.953   8.846  10.320  0.8608  0.3569  1.3502
  160MOL0     C21507   5.068   8.836  10.226 -0.2843 -0.2397 -0.5129
  160MOL0     C21508   5.171   8.719  10.264  0.5926  0.5625  0.3430
  160MOL0     C21509   5.267   8.744  10.375 -0.1670  0.0108 -0.7162
  160MOL0    Cl21510   5.387   8.861  10.310  0.6732  0.1430  0.0795
  160MOL0     C21511   4.631   8.939   9.643 -0.5243 -1.1508 -0.4690
  160MOL0     C21512   4.557   8.893   9.532 -0.3954  0.8425 -0.1316
  160MOL0     O21513   4.451   8.614   9.433 -0.2107 -0.0300 -0.7289
  160MOL0     C21514   4.229   8.681   9.198 -0.2159 -0.2284  0.5375
  160MOL0     C21515   4.129   8.623   9.116  0.3573 -0.9272  0.1232
  160MOL0     N21516   3.519   8.695   8.670 -0.4744 -0.1972  0.4125
  160MOL0     N21517   3.411   8.629   8.624 -0.7954  0.1397 -0.1077
  160MOL0     C21518   3.557   8.558   7.977  0.2596 -0.4362 -0.1390
  160MOL0     C21519   3.681   8.618   8.023  0.3787  0.7414 -0.9072
  160MOL0     C21520   4.097   8.664   8.215 -0.7314 -0.4618  0.0466
  160MOL0     C21521   4.179   8.630   8.106 -0.2704 -1.0409  0.0485
  160MOL0     C21522   4.316   8.661   8.105 -0.1023 -0.4733 -0.5512
  160MOL0     C21523   4.367   8.719   8.222  0.8675 -0.7539 -0.0445
  160MOL0     O21524   4.502   8.730   8.242 -0.2117  0.4366  0.8279
  160MOL0     C21525   4.598   8.750   8.130  0.6949 -0.0699 -0.7463
  160MOL0     C21526   4.590   8.889   8.066  0.2023 -0.3464  0.4142
  160MOL0     C21527   4.695   8.903   7.958 -0.2880  0.2340 -0.2764
  160MOL0     C21528   4.724   9.045   7.904  0.4316  1.1530  0.8353
  160MOL0     C21529   4.624   9.089   7.811  1.1481 -0.1348  0.5473
  160MOL0     C21530   4.552   9.157   7.740 -0.2094 -0.8053  1.3218
  160MOL0     C21531   4.292   8.742   8.334  0.5287  0.4619  0.3270
  160MOL0     C21532   4.150   8.709   8.337 -0.5325  0.0249 -0.3375
  160MOL0     H21533   3.842   8.354   8.165 -0.5313  0.5126  0.0214
  160MOL0     H21534   3.603   8.257   8.125 -0.1541  1.2004  0.8712
  160MOL0     H21535   3.282   8.509   7.929  3.6850  2.3457 -4.6165
  160MOL0     H21536   3.351   8.390   7.810  0.5983  0.7198 -0.2074
  160MOL0     H21537   3.106   8.355   7.878 -1.7361  0.0820  2.1968
  160MOL0     H21538   3.215   8.211   7.897 -3.6818 -0.4838 -1.7891
  160MOL0     H21539   3.070   8.207   8.072 -1.5284  0.2305 -1.8485
  160MOL0     H21540   3.228   8.221   8.127 -0.3747  1.9751  0.5944
  160MOL0     H21541   3.208   8.465   8.167  0.0332  0.0730  0.8070
  160MOL0     H21542   3.032   8.444   8.105  0.1191  0.3897 -0.8792
  160MOL0     H21543   3.035   8.440   8.355 -0.7066  0.1143 -0.7748
  160MOL0     H21544   2.998   8.275   8.279 -2.7735  2.1167 -1.9943
  160MOL0     H21545   3.146   8.277   8.484 -0.6979  1.6313  0.2354
  160MOL0     H21546   3.218   8.217   8.341  0.9237 -0.7578  2.1006
  160MOL0     H21547   3.386   8.383   8.352  0.1568  0.4085  0.0494
  160MOL0     H21548   3.259   8.504   8.385  0.8793  0.8226  0.6866
  160MOL0     H21549   3.366   8.301   8.583  1.9027  0.2356 -0.0373
  160MOL0     H21550   3.228   8.407   8.612  0.8262 -1.8766  1.4103
  160MOL0     H21551   3.619   8.389   8.617  2.5714  2.7861 -0.4985
  160MOL0     H21552   3.826   8.579   8.637 -1.9324 -0.0777 -1.5908
  160MOL0     H21553   3.789   8.709   8.744  2.7078  0.1146 -2.0213
  160MOL0     H21554   3.716   8.416   8.815 -2.0383  0.0245  1.3665
  160MOL0     H21555   3.728   8.558   8.930 -0.5638  1.8569 -0.3597
  160MOL0     H21556   3.972   8.577   8.843  2.5400 -1.7559 -1.2339
  160MOL0     H21557   3.952   8.419   8.769  0.2274 -0.4684  1.3643
  160MOL0     H21558   4.063   8.426   8.959  0.0914  1.8220 -1.9588
  160MOL0     H21559   3.932   8.304   8.988 -0.8309 -0.0408 -1.2212
  160MOL0     H21560   4.001   8.404   9.332 -0.8160  1.5328  0.1595
  160MOL0     H21561   4.106   8.414   9.541 -0.7173 -0.4084 -2.1289
  160MOL0     H21562   4.285   8.433   9.504  1.1690  1.8401  0.0896
  160MOL0     H21563   4.190   8.562   9.580 -4.1467  1.5689 -0.9860
  160MOL0     H21564   4.271   8.818   9.696  0.2228 -0.7713  0.4103
  160MOL0     H21565   4.390   8.884   9.882 -0.9040  1.3794  0.0852
  160MOL0     H21566   4.511   9.051  10.028  3.3030  3.4450  6.1321
  160MOL0     H21567   4.577   8.887  10.047 -4.0072  0.9291  2.8132
  160MOL0     H21568   4.712   9.151  10.065  2.1390 -0.1326 -1.2051
  160MOL0     H21569   4.649   9.055  10.201  0.1538  1.4067 -0.6413
  160MOL0     H21570   4.910   9.056  10.162 -0.7311 -1.9784  1.7369
  160MOL0     H21571   4.868   8.931  10.033  0.7921  0.0790  0.0237
  160MOL0     H21572   4.750   8.893  10.304  1.6763  2.9994  0.8663
  160MOL0     H21573   4.820   8.770  10.189  1.1027 -0.1994  1.9352
  160MOL0     H21574   4.949   8.765  10.393  1.5934  1.4227  2.6188
  160MOL0     H21575   4.957   8.933  10.386  0.9131 -0.5091  2.5183
  160MOL0     H21576   5.035   8.812  10.124 -1.5625 -0.3900 -0.0926
  160MOL0     H21577   5.116   8.934  10.229 -1.8772  0.6007 -0.9712
  160MOL0     H21578   5.206   8.678  10.169 -0.4684  1.1660 -0.3263
  160MOL0     H21579   5.118   8.632  10.305  2.5060  0.0806  1.9694
  160MOL0     H21580   5.317   8.652  10.406 -0.3491  0.0560 -0.2825
  160MOL0     H21581   5.207   8.797  10.451  2.1010  2.4402 -0.4921
  160MOL0     H21582   4.730   8.978   9.621 -0.4400 -1.0545  0.0484
  160MOL0     H21583   4.589   8.906   9.430 -3.2750  3.4823 -0.8584
  160MOL0     H21584   4.285   8.760   9.148  2.3783 -1.8740  0.6544
  160MOL0     H21585   4.116   8.668   9.018  0.8937  1.5335  1.0954
  160MOL0     H21586   3.489   8.607   7.908  2.5667  0.6200 -1.8206
  160MOL0     H21587   3.708   8.722   8.009 -2.6438  1.6967 -0.3372
  160MOL0     H21588   4.137   8.578   8.020 -0.0137  0.0506 -0.7571
  160MOL0     H21589   4.385   8.634   8.025 -0.1701  1.0362 -1.1444
  160MOL0     H21590   4.693   8.732   8.180  0.1576 -2.5118 -0.4236
  160MOL0     H21591   4.587   8.683   8.044 -2.6576 -0.2684 -0.2966
  160MOL0     H21592   4.617   8.964   8.141 -1.9789  1.7247 -0.7192
  160MOL0     H21593   4.489   8.908   8.027 -0.2033 -1.8557  0.6839
  160MOL0     H21594   4.660   8.836   7.879  0.1808 -3.5073  2.4462
  160MOL0     H21595   4.791   8.866   7.994  0.7857 -1.5171 -4.3234
  160MOL0     H21596   4.823   9.051   7.858  0.6528  4.2089  1.4610
  160MOL0     H21597   4.724   9.108   7.994 -3.9086  0.9865  1.1257
  160MOL0     H21598   4.468   9.216   7.711 -0.5223 -2.0431 -0.4444
  160MOL0     H21599   4.359   8.760   8.418  3.3785 -2.1296 -1.1679
  160MOL0     H21600   4.086   8.706   8.425 -0.5326 -0.7615 -0.3592
  161MOL0     O21601   5.443   2.400   9.743  0.1974  0.3345 -0.0956
  161MOL0     C21602   5.412   2.472   9.648  0.0570  0.1906 -0.4893
  161MOL0     O21603   5.285   2.475   9.589 -0.8139  0.0148  0.9637
  161MOL0     C21604   5.180   2.405   9.652  0.5711  0.0166 -0.7261
  161MOL0     C21605   5.059   2.482   9.682  0.4291  1.3056 -0.2322
  161MOL0     C21606   4.955   2.422   9.748  0.3292  0.6291 -0.1493
  161MOL0     C21607   4.951   2.281   9.768  0.6402  1.2211 -0.5890
  161MOL0     O21608   4.839   2.221   9.821 -0.5503 -0.1721  0.3420
  161MOL0     C21609   4.756   2.163   9.724 -0.1720 -0.3613 -0.2383
  161MOL0     C21610   4.612   2.126   9.768  0.0184 -0.5939 -0.5274
  161MOL0     C21611   4.506   2.099   9.653  0.0611  0.1714  0.7231
  161MOL0     C21612   4.516   1.951   9.608 -0.3656 -0.3375 -0.2946
  161MOL0     C21613   4.405   1.904   9.519  0.1532  0.6885 -0.3414
  161MOL0     C21614   4.400   1.982   9.386  0.0827  0.7467  0.3293
  161MOL0     C21615   4.290   1.935   9.292  0.0180 -0.5323 -0.3925
  161MOL0     C21616   4.301   1.991   9.149  0.9635  0.8783 -0.3006
  161MOL0     N21617   4.296   2.138   9.154  0.4605 -0.8071 -0.4227
  161MOL0     C21618   4.206   2.210   9.222 -0.6268  0.0112 -0.5345
  161MOL0     C21619   4.241   2.342   9.217  0.6359  0.1614 -0.1989
  161MOL0     C21620   4.166   2.461   9.261  0.6558 -0.0760 -0.1030
  161MOL0     C21621   4.263   2.571   9.333  1.3410  0.3535  0.9797
  161MOL0     C21622   4.323   2.519   9.463 -0.3849  0.9395 -0.2301
  161MOL0     C21623   4.444   2.585   9.512  0.2460 -0.3375  1.0215
  161MOL0     O21624   4.420   2.718   9.548  0.1176 -0.2008  0.8103
  161MOL0     C21625   4.505   2.821   9.502 -0.1250 -0.0002 -0.2789
  161MOL0     C21626   4.462   2.897   9.389  0.2706  0.2657 -0.1694
  161MOL0     C21627   4.546   2.986   9.321  0.0321  0.1731 -0.3600
  161MOL0     C21628   4.494   3.040   9.190 -0.2146 -0.2410  0.3037
  161MOL0     C21629   4.671   3.023   9.380 -1.1180  0.1101 -0.0587
  161MOL0     C21630   4.762   3.130   9.328 -1.0659 -0.0662 -1.0298
  161MOL0     O21631   4.805   3.225   9.426  0.0355 -0.0015  0.4859
  161MOL0     C21632   4.907   3.306   9.381  0.3364 -0.4218  0.9609
  161MOL0     C21633   4.886   3.434   9.342  0.1654  0.0429 -0.0941
  161MOL0     C21634   4.990   3.517   9.316  0.2191 -0.6174 -0.6219
  161MOL0     C21635   5.119   3.458   9.305 -0.0055 -0.9815  0.0192
  161MOL0     O21636   5.218   3.540   9.270  0.2851 -0.0563  0.3302
  161MOL0     C21637   5.263   3.492   9.139 -0.7563  0.1226 -0.4789
  161MOL0     C21638   5.383   3.565   9.101  0.5367 -0.1808  0.3932
  161MOL0     C21639   5.356   3.712   9.052 -0.0175 -0.8656  0.4833
  161MOL0     C21640   5.291   3.717   8.916 -0.1928 -0.0270 -1.3378
  161MOL0     C21641   5.256   3.861   8.865  0.0521 -0.1581 -0.0234
  161MOL0     C21642   5.372   3.954   8.833 -0.0666 -0.6319  0.3423
  161MOL0     C21643   5.323   4.069   8.744 -0.4578 -0.4777  0.3876
  161MOL0     C21644   5.429   4.178   8.748 -0.6428 -0.4258 -1.2932
  161MOL0    Cl21645   5.351   4.327   8.695 -0.2814 -0.2840  0.0697
  161MOL0     C21646   5.144   3.324   9.343  0.2067  0.1429 -0.1761
  161MOL0     C21647   5.034   3.247   9.379 -0.5595  0.0992 -0.5084
  161MOL0     O21648   4.808   3.106   9.219  0.5926 -0.0662 -0.3192
  161MOL0     C21649   4.716   2.955   9.498  0.0113 -0.6128 -0.5921
  161MOL0     C21650   4.638   2.852   9.553  0.8078  0.0282  0.2802
  161MOL0     N21651   4.356   2.348   9.146 -0.2177 -0.0613 -0.1906
  161MOL0     N21652   4.391   2.226   9.093  0.0497 -0.5368 -0.2233
  161MOL0     C21653   5.070   2.208   9.746  0.4158 -0.6973  0.0349
  161MOL0     C21654   5.187   2.273   9.696 -1.2712 -1.3076  0.3097
  161MOL0     C21655   5.518   2.547   9.579  0.0095  1.1135 -0.7802
  161MOL0     C21656   5.642   2.559   9.632 -0.2007  0.5683  0.3038
  161MOL0     C21657   5.741   2.643   9.577  0.4694  0.1614  0.0541
  161MOL0     C21658   5.708   2.718   9.463  0.6185 -0.3124 -0.4913
  161MOL0     O21659   5.803   2.813   9.423  0.7786 -0.5431 -0.4736
  161MOL0     C21660   5.786   2.881   9.299 -0.3445 -0.5475  0.6870
  161MOL0     C21661   5.691   3.000   9.309 -0.8399 -0.5420  0.5650
  161MOL0     C21662   5.649   3.044   9.170  0.3631 -0.4823 -0.4237
  161MOL0     C21663   5.557   3.160   9.169 -0.5987 -0.3909 -0.4753
  161MOL0     C21664   5.542   3.215   9.035  0.3495  0.1826  0.0348
  161MOL0     C21665   5.541   3.240   8.920  0.9698  0.8643  0.5134
  161MOL0     C21666   5.585   2.687   9.395  0.4817 -0.0594 -0.2874
  161MOL0     C21667   5.496   2.601   9.457 -0.1738  0.5650  0.6255
  161MOL0     H21668   5.064   2.587   9.653  0.7234  1.5433  0.6504
  161MOL0     H21669   4.866   2.481   9.765  0.0602  0.8279 -2.0276
  161MOL0     H21670   4.736   2.237   9.645 -0.2513 -0.0357  0.0844
  161MOL0     H21671   4.807   2.079   9.676 -1.8099 -0.3812 -2.0790
  161MOL0     H21672   4.619   2.052   9.848  2.1543  1.6525  1.5203
  161MOL0     H21673   4.566   2.210   9.820  1.1220  0.2485 -0.8893
  161MOL0     H21674   4.407   2.096   9.700 -0.2494 -1.1256  0.0248
  161MOL0     H21675   4.509   2.170   9.569  0.8219 -3.1751 -2.3099
  161MOL0     H21676   4.618   1.936   9.571 -0.0295 -0.0886  0.4897
  161MOL0     H21677   4.511   1.890   9.699  0.5028 -1.1142 -0.7397
  161MOL0     H21678   4.409   1.795   9.515  3.4057  0.7020 -0.6096
  161MOL0     H21679   4.312   1.928   9.572 -0.7360  0.5821 -1.7958
  161MOL0     H21680   4.382   2.090   9.395 -0.7867  0.7759 -1.2141
  161MOL0     H21681   4.494   1.958   9.336 -0.5239 -1.7498  0.2544
  161MOL0     H21682   4.301   1.826   9.289  0.2428 -0.5143 -3.5569
  161MOL0     H21683   4.198   1.963   9.344 -1.2143  2.1873 -3.7313
  161MOL0     H21684   4.242   1.931   9.080  3.1603 -1.0537 -0.6354
  161MOL0     H21685   4.398   1.968   9.103  0.3049 -1.4772 -0.6380
  161MOL0     H21686   4.110   2.178   9.261 -0.1849  0.9111  1.4421
  161MOL0     H21687   4.129   2.515   9.173 -1.9697 -1.4584  0.0692
  161MOL0     H21688   4.078   2.437   9.322 -1.2835  0.7750 -2.3893
  161MOL0     H21689   4.201   2.660   9.345  0.5802 -0.0204 -0.0040
  161MOL0     H21690   4.343   2.594   9.262  0.2769  0.2143 -0.2892
  161MOL0     H21691   4.348   2.416   9.437 -1.4774  0.9856 -1.5643
  161MOL0     H21692   4.239   2.521   9.533  0.0714 -0.5832  0.3990
  161MOL0     H21693   4.525   2.566   9.440  1.6107  0.8435  2.1760
  161MOL0     H21694   4.484   2.541   9.604  0.2525 -0.1338  1.1158
  161MOL0     H21695   4.363   2.869   9.353  1.5563  0.1221 -4.0337
  161MOL0     H21696   4.497   3.149   9.200  1.2927 -0.5021  6.2035
  161MOL0     H21697   4.538   2.980   9.110 -1.8177 -0.2304 -0.6352
  161MOL0     H21698   4.388   3.020   9.170 -0.2579 -0.0776  0.3638
  161MOL0     H21699   4.786   3.465   9.312  0.3725 -0.0453 -0.8960
  161MOL0     H21700   4.986   3.621   9.288  1.4916 -0.7488 -1.3900
  161MOL0     H21701   5.289   3.385   9.132 -2.0596 -0.1267 -5.6580
  161MOL0     H21702   5.180   3.500   9.069  1.0072  0.2183 -2.6515
  161MOL0     H21703   5.460   3.562   9.179  1.9210 -1.5691 -0.9548
  161MOL0     H21704   5.431   3.525   9.012 -2.5752 -1.1412 -0.9927
  161MOL0     H21705   5.455   3.758   9.050  0.2542 -1.3809  1.3489
  161MOL0     H21706   5.300   3.769   9.127  1.9025  0.7454  0.7703
  161MOL0     H21707   5.343   3.652   8.845 -0.4434 -2.1454  0.2915
  161MOL0     H21708   5.193   3.672   8.932  1.1704 -3.8750 -2.5324
  161MOL0     H21709   5.195   3.910   8.941 -1.1425  0.7350 -1.4981
  161MOL0     H21710   5.198   3.853   8.773  0.1858 -0.0482 -0.1178
  161MOL0     H21711   5.402   3.999   8.927  0.0067  0.0857 -0.0159
  161MOL0     H21712   5.461   3.905   8.791 -0.9736 -2.1630  0.1261
  161MOL0     H21713   5.227   4.107   8.781 -0.0209  1.6588 -0.5480
  161MOL0     H21714   5.304   4.039   8.641 -0.1848  1.8766 -0.3937
  161MOL0     H21715   5.514   4.148   8.686 -0.8821  1.1223 -2.4211
  161MOL0     H21716   5.476   4.180   8.848  3.8891 -2.8180 -3.0568
  161MOL0     H21717   5.247   3.290   9.351  0.7966  1.0421 -2.8464
  161MOL0     H21718   5.049   3.146   9.415  3.0381  0.9177  0.7399
  161MOL0     H21719   4.810   2.987   9.542 -0.3323 -0.2950 -0.0893
  161MOL0     H21720   4.679   2.793   9.634  1.5736 -0.5988 -0.5503
  161MOL0     H21721   5.067   2.102   9.769 -1.2266 -0.5881  0.4157
  161MOL0     H21722   5.282   2.222   9.683  0.9784  2.2682  1.4511
  161MOL0     H21723   5.688   2.514   9.720  0.2618  0.8752  0.2220
  161MOL0     H21724   5.832   2.672   9.630  1.0635 -0.7365 -0.4465
  161MOL0     H21725   5.879   2.907   9.246  0.4144 -0.7403  1.8881
  161MOL0     H21726   5.743   2.812   9.225  1.4470 -2.0525  0.9594
  161MOL0     H21727   5.753   3.077   9.355  0.2705 -0.3056 -1.2531
  161MOL0     H21728   5.610   2.999   9.382 -1.7509  1.8194 -0.2930
  161MOL0     H21729   5.603   2.963   9.113  4.3247 -1.2974 -2.8729
  161MOL0     H21730   5.743   3.060   9.117  0.3477 -0.7221 -0.5259
  161MOL0     H21731   5.592   3.252   9.217  1.1237  1.1814 -4.2734
  161MOL0     H21732   5.463   3.136   9.219 -0.0881  2.5459  2.2894
  161MOL0     H21733   5.547   3.260   8.815  2.2985  1.3766  0.6659
  161MOL0     H21734   5.569   2.737   9.300  2.7914 -1.1790 -1.3570
  161MOL0     H21735   5.401   2.578   9.410  1.2884 -0.7709 -1.9286
  162MOL0     O21736   6.614   9.057   5.046 -0.3054 -0.0893  1.2507
  162MOL0     C21737   6.693   9.117   4.967 -0.0010  0.9374  0.3697
  162MOL0     O21738   6.767   9.060   4.862  0.5337  1.3286  0.5110
  162MOL0     C21739   6.750   8.927   4.819 -0.5601 -0.8094 -0.1710
  162MOL0     C21740   6.778   8.891   4.686 -0.4262 -0.2552  0.0170
  162MOL0     C21741   6.777   8.751   4.629 -0.7513 -0.4617 -0.2369
  162MOL0     C21742   6.755   8.646   4.718 -1.2584  0.7103 -0.3739
  162MOL0     O21743   6.766   8.513   4.678 -0.6585  0.6924 -0.0914
  162MOL0     C21744   6.805   8.410   4.770 -0.5419  0.1573  0.2271
  162MOL0     C21745   6.857   8.304   4.671  0.3072  0.3375 -0.3467
  162MOL0     C21746   6.900   8.169   4.733 -0.6173  0.7783 -0.5562
  162MOL0     C21747   6.834   8.139   4.868 -0.8248  0.5955 -0.3706
  162MOL0     C21748   6.882   8.007   4.940 -0.4715  0.7094  0.7551
  162MOL0     C21749   7.019   8.009   5.013 -0.4852  0.7237 -1.0735
  162MOL0     C21750   7.040   7.856   5.056 -0.3316 -0.0726  0.3829
  162MOL0     C21751   7.175   7.836   5.117  0.6547  0.6279 -0.4756
  162MOL0     N21752   7.285   7.902   5.047  0.1270  0.1789 -0.8938
  162MOL0     C21753   7.345   7.844   4.942  0.0031  0.0845  0.5339
  162MOL0     C21754   7.457   7.914   4.925 -0.3571  0.1904 -0.3454
  162MOL0     C21755   7.554   7.909   4.815  0.1693  0.1476  0.5232
  162MOL0     C21756   7.626   7.779   4.804 -0.7952 -0.0935 -0.2041
  162MOL0     C21757   7.712   7.773   4.675  0.2714 -0.3180  0.4097
  162MOL0     C21758   7.812   7.661   4.665  0.4381  0.2438 -0.7775
  162MOL0     O21759   7.881   7.688   4.541  0.4355  0.2351 -0.0232
  162MOL0     C21760   7.941   7.577   4.485 -0.1160  0.4489 -1.0545
  162MOL0     C21761   7.928   7.542   4.358  0.4975 -0.6322 -1.4953
  162MOL0     C21762   8.000   7.429   4.305 -0.5272 -0.1871 -0.1159
  162MOL0     C21763   7.978   7.396   4.159 -0.3011 -0.6849  0.1913
  162MOL0     C21764   8.085   7.347   4.388 -0.3417  0.0164  0.1051
  162MOL0     C21765   8.137   7.214   4.343  0.1418 -0.0851 -1.0175
  162MOL0     O21766   8.245   7.170   4.413 -0.0823  0.7723 -0.5317
  162MOL0     C21767   8.299   7.053   4.366 -0.3673  1.0771  0.2273
  162MOL0     C21768   8.418   7.046   4.295  0.3208  0.2904 -0.1274
  162MOL0     C21769   8.466   6.922   4.250  0.2023  0.3855 -0.5398
  162MOL0     C21770   8.404   6.802   4.285 -0.7869  0.1283 -0.6400
  162MOL0     O21771   8.457   6.684   4.234  0.1147  0.2212 -0.1089
  162MOL0     C21772   8.444   6.571   4.321  0.4820  0.9604 -0.1385
  162MOL0     C21773   8.553   6.465   4.308 -0.4153 -0.1659 -0.6957
  162MOL0     C21774   8.548   6.395   4.172  0.8575  0.6011 -0.5375
  162MOL0     C21775   8.618   6.468   4.066 -0.8290 -0.6321 -0.5737
  162MOL0     C21776   8.635   6.384   3.938 -0.1113  0.2263  0.0671
  162MOL0     C21777   8.759   6.297   3.951  0.0243  0.7075  0.4978
  162MOL0     C21778   8.769   6.209   3.832  0.2400 -0.3316 -0.1144
  162MOL0     C21779   8.903   6.149   3.824 -0.2744  0.7164  0.3467
  162MOL0    Cl21780   9.035   6.282   3.828  0.0863  0.1624  0.3714
  162MOL0     C21781   8.291   6.811   4.372  0.1644  0.3675  0.3758
  162MOL0     C21782   8.243   6.933   4.408  1.1285  0.9372 -0.4258
  162MOL0     O21783   8.081   7.151   4.253 -0.4531 -0.1742  0.6274
  162MOL0     C21784   8.079   7.372   4.525  0.3366  0.5758 -0.6724
  162MOL0     C21785   8.006   7.487   4.574 -0.4244  0.1056  0.6961
  162MOL0     N21786   7.468   8.013   5.031  0.6644 -0.3688  0.6211
  162MOL0     N21787   7.356   8.000   5.102 -0.4064 -0.2144 -0.0567
  162MOL0     C21788   6.716   8.683   4.847  0.7167  0.5147  0.1760
  162MOL0     C21789   6.715   8.811   4.897  0.4696 -0.5017  0.5374
  162MOL0     C21790   6.733   9.249   4.999 -0.5366  1.3569  0.4026
  162MOL0     C21791   6.671   9.320   5.103  0.0214 -0.3896 -0.3671
  162MOL0     C21792   6.725   9.444   5.143  0.2104  0.4574 -0.9445
  162MOL0     C21793   6.824   9.506   5.073  0.8137  0.3431  0.3089
  162MOL0     O21794   6.867   9.624   5.125 -0.2030 -0.3226 -0.3357
  162MOL0     C21795   6.988   9.679   5.068  0.1626 -0.5022 -0.4624
  162MOL0     C21796   7.010   9.812   5.153  0.2687 -0.0050  0.4814
  162MOL0     C21797   7.062   9.788   5.291  0.2892  1.0130 -0.6900
  162MOL0     C21798   7.214   9.785   5.301  0.3572 -0.2483 -0.2301
  162MOL0     C21799   7.249   9.761   5.441  0.4268  0.6577  0.7069
  162MOL0     C21800   7.290   9.719   5.550 -0.8389 -1.2093  0.4551
  162MOL0     C21801   6.882   9.433   4.969  0.1581 -0.2632  0.2271
  162MOL0     C21802   6.835   9.306   4.932 -0.5194 -0.3950 -0.1333
  162MOL0     H21803   6.795   8.976   4.620 -0.5451 -0.1299  0.1473
  162MOL0     H21804   6.797   8.732   4.525 -0.9576  2.6568 -0.9655
  162MOL0     H21805   6.884   8.445   4.838 -2.2144  2.3084  1.1996
  162MOL0     H21806   6.711   8.381   4.818 -1.5777  1.7218 -0.7893
  162MOL0     H21807   6.786   8.278   4.592  0.9036 -0.1857 -0.7286
  162MOL0     H21808   6.945   8.342   4.619  0.7180 -2.3069 -1.7753
  162MOL0     H21809   6.868   8.089   4.665 -3.1095  0.3740  0.9527
  162MOL0     H21810   7.008   8.163   4.744 -0.4698 -3.3375 -2.2137
  162MOL0     H21811   6.850   8.220   4.939  1.6287 -0.3078  0.2045
  162MOL0     H21812   6.730   8.126   4.837  0.0345 -3.4341 -2.3108
  162MOL0     H21813   6.810   7.984   5.019 -0.0294  0.0578  0.9701
  162MOL0     H21814   6.862   7.919   4.878 -1.8356  0.2148  1.8362
  162MOL0     H21815   7.098   8.040   4.944  0.1193  0.9621 -0.2985
  162MOL0     H21816   7.027   8.082   5.095 -0.1389  1.1924 -1.5202
  162MOL0     H21817   6.964   7.833   5.131 -0.6607 -1.9328 -0.4660
  162MOL0     H21818   7.032   7.784   4.974 -1.4471  1.2148 -0.6954
  162MOL0     H21819   7.190   7.728   5.129  0.3560  0.6722  0.3289
  162MOL0     H21820   7.169   7.877   5.218 -0.7658  1.7719 -0.9930
  162MOL0     H21821   7.302   7.775   4.870 -0.7232  2.6608 -1.6678
  162MOL0     H21822   7.495   7.908   4.723  1.0670  0.3776 -0.0639
  162MOL0     H21823   7.620   7.996   4.812 -0.4048  0.5648 -0.3949
  162MOL0     H21824   7.561   7.694   4.823 -0.0626 -0.4574  0.7839
  162MOL0     H21825   7.689   7.774   4.893 -0.1819 -3.0067 -0.7288
  162MOL0     H21826   7.754   7.872   4.654  0.9844 -1.0384 -1.8961
  162MOL0     H21827   7.641   7.760   4.594 -1.4509 -2.4724  2.1236
  162MOL0     H21828   7.768   7.561   4.658 -0.3704  0.5591 -0.2046
  162MOL0     H21829   7.872   7.673   4.756 -1.3254 -0.9105  0.6028
  162MOL0     H21830   7.860   7.603   4.299  0.4411  1.1365  0.2963
  162MOL0     H21831   7.903   7.462   4.113 -1.0405 -1.4149  0.3221
  162MOL0     H21832   8.076   7.405   4.111 -0.3002  4.0654  0.6088
  162MOL0     H21833   7.927   7.299   4.148  0.4369 -1.1784  1.0147
  162MOL0     H21834   8.467   7.140   4.270 -1.2027  0.8442 -1.1679
  162MOL0     H21835   8.560   6.922   4.197  0.9925  0.8628  0.8273
  162MOL0     H21836   8.446   6.605   4.425 -0.7524  2.9903 -0.7305
  162MOL0     H21837   8.347   6.522   4.310 -0.7589  2.6784  2.1560
  162MOL0     H21838   8.644   6.525   4.318 -0.4377  0.1445 -2.1000
  162MOL0     H21839   8.558   6.401   4.397  2.3100 -0.7116 -1.1622
  162MOL0     H21840   8.444   6.378   4.145  0.8940 -0.4971 -0.0244
  162MOL0     H21841   8.583   6.293   4.189 -1.8647 -0.5162 -1.0927
  162MOL0     H21842   8.550   6.551   4.042 -2.1688 -0.9034  1.9246
  162MOL0     H21843   8.716   6.499   4.102 -1.4293  0.5177  0.1520
  162MOL0     H21844   8.650   6.455   3.856  2.4996  2.2179  2.0696
  162MOL0     H21845   8.555   6.321   3.899  2.0358 -1.7634 -1.2892
  162MOL0     H21846   8.851   6.354   3.968  2.6245 -3.0810  0.5820
  162MOL0     H21847   8.740   6.226   4.032 -4.5303 -3.0154 -3.2587
  162MOL0     H21848   8.749   6.265   3.740  3.2238  1.6567  0.3235
  162MOL0     H21849   8.699   6.125   3.833 -0.0352 -0.1195  2.2851
  162MOL0     H21850   8.910   6.101   3.726  0.3826  2.4281 -0.4693
  162MOL0     H21851   8.926   6.089   3.913  0.0026  1.8171  1.0374
  162MOL0     H21852   8.244   6.717   4.399 -1.3556  1.0939  0.3497
  162MOL0     H21853   8.151   6.943   4.464  1.4686  0.4902  0.2287
  162MOL0     H21854   8.132   7.305   4.591  1.1034 -1.5933 -3.3038
  162MOL0     H21855   7.994   7.519   4.676  2.4233 -0.2191  1.2285
  162MOL0     H21856   6.688   8.603   4.916  2.9646  1.1980  2.0267
  162MOL0     H21857   6.680   8.828   4.999 -1.5177 -0.8056 -0.0616
  162MOL0     H21858   6.587   9.282   5.160 -0.7947  1.9362  0.0954
  162MOL0     H21859   6.683   9.516   5.212  1.7435 -0.4842  1.0818
  162MOL0     H21860   7.071   9.609   5.078 -0.0769 -0.6708  0.4608
  162MOL0     H21861   6.984   9.726   4.969  0.0075  1.4095  0.3997
  162MOL0     H21862   6.922   9.874   5.171  1.6441  1.7455  1.4630
  162MOL0     H21863   7.075   9.890   5.112  0.2619 -0.1729  0.1467
  162MOL0     H21864   7.018   9.694   5.324  2.3450  0.3077  0.2041
  162MOL0     H21865   7.027   9.871   5.353  2.1614 -1.5156  4.2829
  162MOL0     H21866   7.265   9.871   5.257  2.9294 -1.4431  0.2021
  162MOL0     H21867   7.252   9.701   5.241  3.0049  0.9692 -0.4085
  162MOL0     H21868   7.354   9.693   5.631  1.9406  1.8628 -0.5444
  162MOL0     H21869   6.959   9.483   4.911 -0.0534  0.6744  0.7207
  162MOL0     H21870   6.899   9.251   4.864 -2.1407 -2.2906 -0.1954
  163MOL0     O21871   3.811   0.991   1.049  0.6799  0.6499  0.0027
  163MOL0     C21872   3.844   0.929   1.154  0.2700  0.2861  0.1381
  163MOL0     O21873   3.970   0.910   1.177 -1.0706  0.1771 -0.4522
  163MOL0     C21874   4.060   0.950   1.080  0.0339  0.4585 -0.3874
  163MOL0     C21875   4.081   0.861   0.975  0.5090 -0.0303  0.4987
  163MOL0     C21876   4.174   0.898   0.873  0.0790  0.3789 -0.4236
  163MOL0     C21877   4.252   1.024   0.881  0.3028 -0.5750  0.0064
  163MOL0     O21878   4.358   1.057   0.798 -0.2029 -0.7631 -0.2861
  163MOL0     C21879   4.371   1.000   0.664  0.8319  0.3976  0.3945
  163MOL0     C21880   4.460   1.092   0.576  0.1362  0.2746  0.1032
  163MOL0     C21881   4.456   1.077   0.413  0.0295 -0.3924  0.4879
  163MOL0     C21882   4.337   1.157   0.346 -0.5089  0.4612 -1.1029
  163MOL0     C21883   4.335   1.110   0.199  0.2357 -0.2948  0.2250
  163MOL0     C21884   4.206   1.151   0.121 -0.2680  1.7504  0.0533
  163MOL0     C21885   4.084   1.068   0.140 -0.1003  0.4391  0.3112
  163MOL0     C21886   3.964   1.105   0.060 -0.3773  0.7911 -0.7128
  163MOL0     N21887   3.918   1.244   0.094 -0.0301  0.2366 -0.0744
  163MOL0     C21888   3.880   1.285   0.219 -0.2540 -0.8000  0.1852
  163MOL0     C21889   3.888   1.420   0.209 -0.5076 -0.1675 -0.4397
  163MOL0     C21890   3.892   1.518   0.321  0.3760  0.2938 -0.9115
  163MOL0     C21891   4.028   1.524   0.388 -0.8629 -0.0293 -0.1491
  163MOL0     C21892   4.146   1.559   0.289  0.7469  0.3060 -0.4665
  163MOL0     C21893   4.132   1.686   0.211 -0.1897 -1.0604 -0.4871
  163MOL0     O21894   4.143   1.794   0.304  0.4473 -0.2908  0.0398
  163MOL0     C21895   4.037   1.848   0.376 -0.7147  0.6394  0.0210
  163MOL0     C21896   3.918   1.895   0.304 -0.1341  0.0668  0.2916
  163MOL0     C21897   3.807   1.945   0.377  0.9517  0.8927 -0.4213
  163MOL0     C21898   3.695   1.991   0.292  0.0885 -0.3387 -0.2379
  163MOL0     C21899   3.829   1.966   0.516  1.3656  0.6889 -0.4466
  163MOL0     C21900   3.729   2.019   0.616  0.1347 -0.3634  0.5859
  163MOL0     O21901   3.649   2.117   0.567 -0.0533  0.5985 -0.7312
  163MOL0     C21902   3.570   2.181   0.660  0.8319  0.5161  0.7933
  163MOL0     C21903   3.443   2.135   0.696 -0.0159  0.5268 -0.0086
  163MOL0     C21904   3.367   2.184   0.793 -0.2895 -0.6364  0.9769
  163MOL0     C21905   3.407   2.310   0.845  0.2201 -0.2407  0.6352
  163MOL0     O21906   3.316   2.373   0.925 -0.1493 -0.2120 -0.9020
  163MOL0     C21907   3.343   2.493   1.008 -1.7219 -0.0899  0.0635
  163MOL0     C21908   3.220   2.546   1.075  0.3757  0.1723  0.7427
  163MOL0     C21909   3.181   2.467   1.210 -0.0453 -1.1019  0.6271
  163MOL0     C21910   3.224   2.538   1.338  0.4434  0.3326  0.7551
  163MOL0     C21911   3.182   2.475   1.470  0.5913 -0.1674 -0.8849
  163MOL0     C21912   3.033   2.478   1.508 -0.1667 -0.3334  0.5813
  163MOL0     C21913   2.953   2.356   1.454 -0.6214 -1.0170  0.4168
  163MOL0     C21914   3.000   2.223   1.502  0.2138  0.0225  0.4113
  163MOL0    Cl21915   3.089   2.130   1.378  0.0188 -0.5337  0.0419
  163MOL0     C21916   3.527   2.370   0.799 -0.3029 -1.0796  0.1461
  163MOL0     C21917   3.608   2.297   0.711  0.1829  0.7405  0.4219
  163MOL0     O21918   3.729   1.977   0.743 -0.3679 -0.1143 -0.1659
  163MOL0     C21919   3.949   1.927   0.575 -0.3379 -0.3909  0.2326
  163MOL0     C21920   4.047   1.862   0.505  0.7409 -0.7553  0.1773
  163MOL0     N21921   3.922   1.452   0.074  0.8678  0.2444  0.0312
  163MOL0     N21922   3.945   1.347   0.005 -0.2205 -0.0040 -0.6291
  163MOL0     C21923   4.236   1.109   0.990  0.6371 -0.4029 -0.7989
  163MOL0     C21924   4.138   1.065   1.086  0.8469 -0.5771 -0.4845
  163MOL0     C21925   3.741   0.853   1.234  0.4602  0.5876 -0.1673
  163MOL0     C21926   3.604   0.844   1.199 -0.3501 -0.6372  0.3538
  163MOL0     C21927   3.511   0.755   1.260  0.0109  0.5025 -0.0749
  163MOL0     C21928   3.554   0.665   1.364  0.6984 -0.9260  0.3078
  163MOL0     O21929   3.473   0.594   1.449 -0.0115 -0.4118  0.1283
  163MOL0     C21930   3.328   0.572   1.431 -0.0763 -0.1358 -0.0254
  163MOL0     C21931   3.266   0.539   1.568  0.1305  0.4650 -0.2095
  163MOL0     C21932   3.113   0.531   1.579  0.3393  0.1203  0.6364
  163MOL0     C21933   3.074   0.475   1.713 -0.2726 -0.8798  0.1045
  163MOL0     C21934   2.935   0.413   1.723 -1.1968  0.9770  0.8403
  163MOL0     C21935   2.832   0.345   1.726 -0.4120  0.2276  0.4737
  163MOL0     C21936   3.685   0.667   1.398  0.2299 -0.6411 -0.6544
  163MOL0     C21937   3.773   0.753   1.330 -0.9251  0.3310 -1.0135
  163MOL0     H21938   4.015   0.776   0.970 -1.9232  1.4968  3.3422
  163MOL0     H21939   4.177   0.835   0.784  0.4363 -0.6095  0.2778
  163MOL0     H21940   4.401   0.895   0.665  3.0285  0.8447 -2.6588
  163MOL0     H21941   4.274   1.005   0.613  0.2660  1.5144  1.5226
  163MOL0     H21942   4.429   1.192   0.604  0.8251  0.4610  0.2205
  163MOL0     H21943   4.559   1.088   0.621  1.1513  1.9722 -1.8002
  163MOL0     H21944   4.550   1.119   0.375 -0.1069  0.3635  0.9488
  163MOL0     H21945   4.442   0.976   0.375 -1.8622 -0.0721  0.2300
  163MOL0     H21946   4.245   1.130   0.398 -1.4119  0.8210 -2.4371
  163MOL0     H21947   4.345   1.266   0.341  3.3740  0.3783 -0.2585
  163MOL0     H21948   4.420   1.160   0.154 -0.3250 -0.0132 -0.5492
  163MOL0     H21949   4.354   1.002   0.200 -0.7689 -0.5245  2.7230
  163MOL0     H21950   4.187   1.248   0.168  0.4171  2.5579 -1.2780
  163MOL0     H21951   4.225   1.167   0.014  2.7296 -2.0575 -0.1540
  163MOL0     H21952   4.105   0.966   0.107  0.2879 -0.6355  3.5668
  163MOL0     H21953   4.069   1.071   0.248  4.0945  0.4950  1.0285
  163MOL0     H21954   3.877   1.039   0.066 -0.6081  1.1544  0.0192
  163MOL0     H21955   3.995   1.111  -0.045 -1.0165  1.3457 -0.8721
  163MOL0     H21956   3.898   1.226   0.309 -1.0026  0.3295  1.1029
  163MOL0     H21957   3.852   1.614   0.288  0.1285 -0.1957 -2.1099
  163MOL0     H21958   3.824   1.477   0.397 -0.6115 -1.0662 -2.4317
  163MOL0     H21959   4.050   1.429   0.439  0.9121 -0.7550 -2.1228
  163MOL0     H21960   4.011   1.590   0.474 -2.3062 -0.9397  0.3162
  163MOL0     H21961   4.152   1.488   0.205 -4.4245  2.0563 -2.6997
  163MOL0     H21962   4.243   1.555   0.340  0.6704  1.6803 -0.1755
  163MOL0     H21963   4.029   1.686   0.175 -1.1563 -2.5411  2.0082
  163MOL0     H21964   4.202   1.706   0.130 -2.4111  1.2839 -1.9698
  163MOL0     H21965   3.914   1.894   0.195 -2.0168  2.5943  0.2452
  163MOL0     H21966   3.705   2.100   0.288  3.0074 -0.4160  1.9382
  163MOL0     H21967   3.677   1.945   0.194 -1.0072  3.2157 -1.8722
  163MOL0     H21968   3.598   1.966   0.335 -0.5924  2.3338 -0.0546
  163MOL0     H21969   3.406   2.058   0.629  3.5113 -1.7921  0.4314
  163MOL0     H21970   3.262   2.155   0.793 -0.6039  0.4452  1.9413
  163MOL0     H21971   3.416   2.479   1.088  2.0855 -0.3328 -3.1791
  163MOL0     H21972   3.371   2.570   0.936 -1.1147  0.6335  1.0510
  163MOL0     H21973   3.221   2.653   1.099  2.3118  0.0925  1.1822
  163MOL0     H21974   3.136   2.535   1.006  0.8266  0.8465  0.0790
  163MOL0     H21975   3.214   2.363   1.212  2.9367 -0.2243  1.6901
  163MOL0     H21976   3.071   2.468   1.215 -0.2482  3.1473 -0.5113
  163MOL0     H21977   3.334   2.533   1.337  0.4575 -4.9274  0.0855
  163MOL0     H21978   3.207   2.646   1.331  0.6195  0.4712  2.2675
  163MOL0     H21979   3.239   2.520   1.552  0.5141 -0.3495 -0.7304
  163MOL0     H21980   3.215   2.371   1.462 -3.8031 -1.6263 -2.7325
  163MOL0     H21981   3.010   2.484   1.615 -1.4291  0.9549  0.2631
  163MOL0     H21982   2.987   2.571   1.473  0.4046  0.4816  1.9130
  163MOL0     H21983   2.936   2.358   1.346 -0.0962  3.0314  0.2649
  163MOL0     H21984   2.854   2.370   1.498  0.4630  2.5718  2.1082
  163MOL0     H21985   2.913   2.157   1.510  0.4073 -0.2095  0.5847
  163MOL0     H21986   3.066   2.224   1.589  0.3725 -1.1544  0.3168
  163MOL0     H21987   3.557   2.468   0.834 -0.6694 -0.6731 -0.6638
  163MOL0     H21988   3.694   2.345   0.664  1.6499 -2.5578 -0.5521
  163MOL0     H21989   3.966   1.931   0.683 -0.1127  1.1157  0.1626
  163MOL0     H21990   4.139   1.830   0.552 -0.5611  0.8208  4.1780
  163MOL0     H21991   4.307   1.191   1.003  1.2060 -0.3556 -3.4708
  163MOL0     H21992   4.116   1.127   1.172  0.1741 -2.8347  1.0448
  163MOL0     H21993   3.576   0.903   1.112 -0.5789  0.3948  1.1142
  163MOL0     H21994   3.407   0.761   1.231  0.2557 -3.5905 -2.6049
  163MOL0     H21995   3.276   0.659   1.390  0.4916  0.7694  1.1095
  163MOL0     H21996   3.305   0.493   1.360 -4.2619 -1.0925  2.1065
  163MOL0     H21997   3.294   0.618   1.638 -0.0096  0.3210  0.0122
  163MOL0     H21998   3.312   0.444   1.598  0.3720  0.9714  1.1107
  163MOL0     H21999   3.069   0.477   1.494  1.0695  1.9255 -0.9802
  163MOL0     H22000   3.068   0.630   1.568  2.8674  1.3841  0.8129
  163MOL0     H22001   3.083   0.554   1.789  0.4807 -0.9022  0.0409
  163MOL0     H22002   3.143   0.395   1.738  0.4714 -0.4041 -0.3854
  163MOL0     H22003   2.745   0.284   1.729 -1.5844  1.8678  1.8141
  163MOL0     H22004   3.719   0.598   1.474  3.0212  0.2132 -1.0209
  163MOL0     H22005   3.879   0.743   1.349  0.2448  2.8261 -5.0779
  164MOL0     O22006   6.573   7.600   7.419  0.5347  0.2864 -0.7437
  164MOL0     C22007   6.611   7.710   7.387  0.2334  0.1514  0.2396
  164MOL0     O22008   6.636   7.812   7.474  0.0164 -0.4033  0.3963
  164MOL0     C22009   6.619   7.788   7.609  0.6312 -0.3719 -0.0504
  164MOL0     C22010   6.577   7.673   7.677  0.1535 -0.2126 -0.2991
  164MOL0     C22011   6.584   7.678   7.818 -0.3450  0.4980 -0.1132
  164MOL0     C22012   6.618   7.793   7.895  0.7478  0.6031  0.3662
  164MOL0     O22013   6.622   7.806   8.032  0.3518 -0.3040  0.0217
  164MOL0     C22014   6.548   7.706   8.114 -0.2970  0.4704  0.3195
  164MOL0     C22015   6.502   7.768   8.240  0.1622  0.9605 -0.6427
  164MOL0     C22016   6.400   7.675   8.305  0.3805  0.1207  0.5429
  164MOL0     C22017   6.307   7.729   8.411 -0.0175 -0.4347 -0.6139
  164MOL0     C22018   6.187   7.643   8.460 -0.7518  0.5509  0.7553
  164MOL0     C22019   6.091   7.728   8.555 -1.3903 -0.1111 -0.6220
  164MOL0     C22020   5.947   7.688   8.597  0.2212 -0.6099  0.1470
  164MOL0     C22021   5.855   7.699   8.472 -0.2586 -0.2441 -0.0406
  164MOL0     N22022   5.824   7.831   8.431 -0.5741 -0.6248  0.0666
  164MOL0     C22023   5.724   7.914   8.480 -0.7471 -0.7427  0.1412
  164MOL0     C22024   5.726   8.024   8.403  0.2482 -0.5327  0.2286
  164MOL0     C22025   5.620   8.144   8.419  0.1223  0.9361 -0.4556
  164MOL0     C22026   5.520   8.167   8.307  0.5569 -0.2543  0.0934
  164MOL0     C22027   5.565   8.248   8.187  0.0406 -0.2573 -0.4893
  164MOL0     C22028   5.459   8.245   8.084 -0.2027  0.2961  0.3557
  164MOL0     O22029   5.355   8.327   8.127 -0.3506  0.4058  0.5510
  164MOL0     C22030   5.233   8.289   8.092 -0.0171  0.5443  0.0601
  164MOL0     C22031   5.125   8.322   8.176  1.0726 -0.2995  0.0018
  164MOL0     C22032   4.992   8.298   8.136 -0.0883 -0.3077 -0.1854
  164MOL0     C22033   4.883   8.348   8.235 -0.2872 -0.4996 -0.3521
  164MOL0     C22034   4.964   8.215   8.017 -0.2334  0.9908 -0.3876
  164MOL0     C22035   4.838   8.147   7.986 -0.5136  0.3135  0.4369
  164MOL0     O22036   4.839   8.056   7.881 -0.4997  0.2695  0.2371
  164MOL0     C22037   4.732   8.068   7.796 -0.7519 -0.5368  0.6985
  164MOL0     C22038   4.697   7.960   7.721 -0.7208 -0.3467  0.0509
  164MOL0     C22039   4.594   7.960   7.623  0.9933 -0.0348 -0.6236
  164MOL0     C22040   4.516   8.069   7.606  1.3987 -0.6013 -0.6120
  164MOL0     O22041   4.411   8.061   7.515  0.1746 -0.1922  0.0613
  164MOL0     C22042   4.323   8.164   7.501 -0.3821  0.4700  0.2325
  164MOL0     C22043   4.190   8.138   7.422 -0.4980  0.5508 -0.3733
  164MOL0     C22044   4.064   8.162   7.489  1.0933  0.0378  0.0070
  164MOL0     C22045   3.963   8.079   7.407 -0.2872  0.0058 -1.1083
  164MOL0     C22046   3.824   8.126   7.450  0.4587 -0.5741  1.1901
  164MOL0     C22047   3.718   8.037   7.405 -0.6191  0.7553  0.3313
  164MOL0     C22048   3.583   8.039   7.471  0.1632 -1.0578  0.0985
  164MOL0     C22049   3.584   8.024   7.617 -0.8635 -0.0401 -0.6458
  164MOL0    Cl22050   3.421   7.959   7.673 -0.5834 -0.0606 -0.0025
  164MOL0     C22051   4.545   8.186   7.683 -0.4570 -0.5389 -0.8220
  164MOL0     C22052   4.650   8.181   7.782  1.3007 -0.6116  0.0623
  164MOL0     O22053   4.750   8.163   8.068  0.3678 -0.3342 -0.3230
  164MOL0     C22054   5.074   8.173   7.943 -0.4915 -0.4951  0.0843
  164MOL0     C22055   5.202   8.220   7.979  0.4971 -0.7472  0.2923
  164MOL0     N22056   5.843   8.020   8.321  0.6463 -0.2641  0.7106
  164MOL0     N22057   5.893   7.901   8.331 -0.7172 -1.3994  0.0955
  164MOL0     C22058   6.646   7.907   7.820  0.2775  0.0982  0.2525
  164MOL0     C22059   6.647   7.904   7.683  0.1310  0.1646  0.9037
  164MOL0     C22060   6.620   7.732   7.234  0.3221 -0.0853 -0.7289
  164MOL0     C22061   6.591   7.860   7.182 -0.6180  1.1128 -0.4362
  164MOL0     C22062   6.591   7.882   7.046  1.0279  0.4109  0.6439
  164MOL0     C22063   6.601   7.781   6.948  0.1013 -0.2493  0.4473
  164MOL0     O22064   6.590   7.791   6.810 -0.2784  0.3066  1.4721
  164MOL0     C22065   6.488   7.876   6.771  0.2076 -0.7662  0.2459
  164MOL0     C22066   6.547   7.993   6.691  1.2267 -0.9300  0.1476
  164MOL0     C22067   6.667   7.944   6.604  0.1734 -0.6690  0.2879
  164MOL0     C22068   6.800   7.963   6.680  0.0850 -0.0637 -0.3700
  164MOL0     C22069   6.881   8.065   6.626  0.4234 -0.2096  0.7578
  164MOL0     C22070   6.936   8.151   6.571  0.1063  0.6478  0.3241
  164MOL0     C22071   6.637   7.654   6.998  0.4023 -0.0848  1.1483
  164MOL0     C22072   6.645   7.632   7.136  0.8636  0.7944  0.6258
  164MOL0     H22073   6.550   7.576   7.636 -2.3006  1.2998 -2.5551
  164MOL0     H22074   6.565   7.587   7.873  3.8551  0.2812  1.3055
  164MOL0     H22075   6.470   7.658   8.054  1.7432 -2.3506 -0.2464
  164MOL0     H22076   6.624   7.635   8.147  0.3291  1.1551  0.3901
  164MOL0     H22077   6.586   7.790   8.306 -0.4720 -2.1662  1.4327
  164MOL0     H22078   6.457   7.862   8.208  1.9647  2.8080  1.8943
  164MOL0     H22079   6.341   7.640   8.220  2.1438  2.9144 -2.0185
  164MOL0     H22080   6.460   7.593   8.348  0.1660  0.5868  1.7684
  164MOL0     H22081   6.360   7.751   8.504 -2.3689 -1.7858  1.1450
  164MOL0     H22082   6.267   7.827   8.383 -0.7634 -0.0465  1.5683
  164MOL0     H22083   6.126   7.627   8.370  1.5920  2.5865 -1.3474
  164MOL0     H22084   6.217   7.543   8.491 -0.7320 -0.0993 -1.2246
  164MOL0     H22085   6.153   7.742   8.644  0.5942  0.7373 -2.0690
  164MOL0     H22086   6.090   7.831   8.518  1.0486  0.6989  1.3137
  164MOL0     H22087   5.939   7.590   8.647  1.3540 -0.8007 -0.0202
  164MOL0     H22088   5.915   7.764   8.669  0.6793  2.2239 -2.4445
  164MOL0     H22089   5.767   7.639   8.499 -0.1323 -0.7341 -0.6955
  164MOL0     H22090   5.906   7.651   8.388  3.1380  0.9797  1.1764
  164MOL0     H22091   5.648   7.907   8.558 -2.5243  2.0194 -1.1935
  164MOL0     H22092   5.562   8.116   8.508  1.4793  3.4863  1.3473
  164MOL0     H22093   5.679   8.230   8.454  1.3558 -0.0185 -0.0949
  164MOL0     H22094   5.419   8.202   8.331  0.0870 -1.3941 -0.1537
  164MOL0     H22095   5.494   8.068   8.269  1.2471 -1.3391  2.3134
  164MOL0     H22096   5.653   8.200   8.144 -1.7678  0.2243 -5.4752
  164MOL0     H22097   5.589   8.349   8.220 -0.7783  0.0186 -0.7152
  164MOL0     H22098   5.426   8.143   8.064 -1.5559  0.8800 -0.5561
  164MOL0     H22099   5.499   8.279   7.988  0.6470 -2.2010 -0.2538
  164MOL0     H22100   5.153   8.359   8.274 -0.6692  1.2695 -0.0288
  164MOL0     H22101   4.832   8.426   8.178 -0.0777 -0.3539 -0.3394
  164MOL0     H22102   4.813   8.268   8.262 -1.0767  0.4340  0.4618
  164MOL0     H22103   4.923   8.389   8.328 -1.0137 -1.5237  0.4415
  164MOL0     H22104   4.759   7.874   7.743  2.5618  2.3589  2.3895
  164MOL0     H22105   4.575   7.863   7.578  4.4521 -0.8686 -0.6153
  164MOL0     H22106   4.280   8.184   7.600 -2.2751 -1.5898 -0.0707
  164MOL0     H22107   4.376   8.251   7.463 -0.7058  0.0244 -1.3206
  164MOL0     H22108   4.187   8.199   7.331  0.2995  0.4615 -0.4633
  164MOL0     H22109   4.186   8.036   7.381 -0.3027  0.7257 -0.8393
  164MOL0     H22110   4.035   8.267   7.494  0.4165 -0.1696  0.6064
  164MOL0     H22111   4.061   8.115   7.587  0.7320 -0.8975 -0.4334
  164MOL0     H22112   3.973   8.090   7.299 -2.1728  2.3140 -1.1124
  164MOL0     H22113   3.984   7.973   7.424  0.9753  0.0313 -2.2829
  164MOL0     H22114   3.802   8.222   7.404 -0.9718 -1.9937 -1.2695
  164MOL0     H22115   3.809   8.144   7.557 -0.1703  3.8913  0.5238
  164MOL0     H22116   3.704   8.054   7.297  1.1964 -0.0983 -0.0758
  164MOL0     H22117   3.754   7.936   7.427  4.3394  2.6051  2.3009
  164MOL0     H22118   3.519   7.968   7.419  0.0168 -0.7588 -0.1328
  164MOL0     H22119   3.544   8.139   7.449  1.5900 -0.5470 -0.2013
  164MOL0     H22120   3.607   8.106   7.685  1.2099 -1.6585  0.7592
  164MOL0     H22121   3.657   7.948   7.648 -1.5214  0.2172  1.7345
  164MOL0     H22122   4.487   8.277   7.674 -0.2122 -0.2160  0.5635
  164MOL0     H22123   4.670   8.273   7.836 -0.9903 -0.4968  0.8173
  164MOL0     H22124   5.079   8.118   7.850 -2.9262  1.4001 -1.2683
  164MOL0     H22125   5.266   8.196   7.895 -1.4418 -3.3927 -0.5654
  164MOL0     H22126   6.664   8.002   7.870  1.5215  0.4229 -0.7439
  164MOL0     H22127   6.666   7.996   7.628 -0.2871 -1.0399 -1.3985
  164MOL0     H22128   6.565   7.947   7.243 -0.1485  2.1394 -1.6751
  164MOL0     H22129   6.580   7.982   7.005 -1.2462 -0.3952 -0.9113
  164MOL0     H22130   6.417   7.823   6.708 -1.0260  2.0998 -0.9169
  164MOL0     H22131   6.419   7.912   6.848 -0.6947  3.3983 -2.2099
  164MOL0     H22132   6.597   8.062   6.759 -0.1270 -1.8170  2.1396
  164MOL0     H22133   6.472   8.048   6.634  0.2022 -0.9396  1.4498
  164MOL0     H22134   6.657   7.999   6.510 -2.0351 -3.2268 -1.1294
  164MOL0     H22135   6.656   7.839   6.576  3.1459 -2.1063  3.7106
  164MOL0     H22136   6.857   7.871   6.659  1.2218  0.9511 -1.9979
  164MOL0     H22137   6.797   7.961   6.789 -2.6830  0.2534 -0.3657
  164MOL0     H22138   6.989   8.231   6.522 -0.0844  0.9265  0.5678
  164MOL0     H22139   6.649   7.575   6.923  2.3439  0.6724  0.5983
  164MOL0     H22140   6.663   7.530   7.170  0.5751  1.0140  1.4500
  165MOL0     O22141   9.983   4.999  11.239 -0.3100 -0.5401  0.6333
  165MOL0     C22142   9.886   4.961  11.306 -0.6760 -0.6969  0.0832
  165MOL0     O22143   9.876   4.841  11.361 -0.2443 -0.3982 -0.1162
  165MOL0     C22144   9.981   4.770  11.420 -0.3490  0.5241  1.5923
  165MOL0     C22145  10.058   4.812  11.528  0.0625  0.6510  0.3834
  165MOL0     C22146  10.155   4.727  11.597  0.1603  0.2290  0.1268
  165MOL0     C22147  10.164   4.589  11.561 -0.2512  0.2630  0.7454
  165MOL0     O22148  10.229   4.483  11.624 -0.2841 -0.4870  0.2956
  165MOL0     C22149  10.280   4.515  11.754  1.5068  0.1363 -0.6070
  165MOL0     C22150  10.346   4.384  11.808  0.9143 -0.1799 -0.6519
  165MOL0     C22151  10.251   4.268  11.808 -0.1588  0.1934 -0.3352
  165MOL0     C22152  10.304   4.148  11.722  0.4942  0.1737 -0.5782
  165MOL0     C22153  10.219   4.031  11.743  0.7268  0.2583  0.0058
  165MOL0     C22154  10.289   3.891  11.703 -0.0397  0.7822 -0.4691
  165MOL0     C22155  10.299   3.886  11.553  0.7579 -0.8640 -0.0735
  165MOL0     C22156  10.391   3.778  11.494  0.4611 -0.9566 -0.2737
  165MOL0     N22157  10.528   3.794  11.543  1.0039 -0.3982  0.7080
  165MOL0     C22158  10.594   3.717  11.629  0.4450 -0.1328 -0.1811
  165MOL0     C22159  10.718   3.765  11.642  0.3432 -0.4597  0.0493
  165MOL0     C22160  10.838   3.711  11.725  0.1215  0.1844 -0.7967
  165MOL0     C22161  10.944   3.636  11.646  0.0278  0.1520 -0.0183
  165MOL0     C22162  11.056   3.566  11.737 -0.7972 -0.1466  0.1595
  165MOL0     C22163  11.148   3.682  11.791  0.5091  0.0465  0.9592
  165MOL0     O22164  11.198   3.639  11.915  0.0967 -1.0369 -0.7167
  165MOL0     C22165  11.325   3.601  11.935 -0.2264  0.3058  0.1042
  165MOL0     C22166  11.416   3.560  11.841 -0.3197 -0.9093 -0.7059
  165MOL0     C22167  11.542   3.518  11.875 -0.9789  0.6009 -0.0145
  165MOL0     C22168  11.653   3.502  11.765  0.5799  0.0825  0.3099
  165MOL0     C22169  11.587   3.516  12.020  0.4330 -1.0409 -0.0871
  165MOL0     C22170  11.727   3.497  12.074 -1.0330 -0.2046 -0.4703
  165MOL0     O22171  11.750   3.530  12.205  0.3587 -0.9031  0.1065
  165MOL0     C22172  11.873   3.496  12.260 -0.0949 -0.3646  1.1380
  165MOL0     C22173  11.904   3.369  12.285  0.1948 -0.7526 -0.0268
  165MOL0     C22174  12.028   3.322  12.341  0.9567 -1.1030 -0.8520
  165MOL0     C22175  12.120   3.429  12.374 -0.6957 -0.0832  0.1876
  165MOL0     O22176  12.247   3.396  12.424  0.1742  0.4757 -1.3902
  165MOL0     C22177  12.313   3.502  12.493  0.6832 -0.9474  0.6195
  165MOL0     C22178  12.415   3.428  12.584  1.2460 -0.5713  0.6951
  165MOL0     C22179  12.498   3.526  12.664  0.2024  0.8751  0.6870
  165MOL0     C22180  12.612   3.463  12.736  0.4390  2.0209  0.5925
  165MOL0     C22181  12.710   3.561  12.802  0.4305  0.1904  0.5131
  165MOL0     C22182  12.645   3.606  12.937  0.2525 -0.4710 -0.0249
  165MOL0     C22183  12.672   3.501  13.048  0.2488 -0.6056  0.0893
  165MOL0     C22184  12.608   3.548  13.181  0.5832  0.3830  0.4414
  165MOL0    Cl22185  12.645   3.423  13.301  0.0880  0.1778 -0.5679
  165MOL0     C22186  12.086   3.565  12.336  0.5779 -0.2599  0.4230
  165MOL0     C22187  11.962   3.598  12.280 -0.5051  0.3617 -1.0412
  165MOL0     O22188  11.815   3.469  11.994 -0.3524 -0.1713 -0.1747
  165MOL0     C22189  11.487   3.552  12.114  0.1870  0.2196  0.0480
  165MOL0     C22190  11.362   3.591  12.071  0.0979  0.9697  0.3257
  165MOL0     N22191  10.727   3.873  11.553  0.3651  0.0209  0.0488
  165MOL0     N22192  10.612   3.885  11.494  0.0999 -1.0655 -0.0998
  165MOL0     C22193  10.091   4.549  11.447  0.3440  0.4410  0.0381
  165MOL0     C22194  10.003   4.634  11.387  0.9150  0.7213 -0.1820
  165MOL0     C22195   9.774   5.066  11.328  0.7072 -0.4878  0.9203
  165MOL0     C22196   9.653   5.031  11.391 -0.9173 -0.0803 -0.5476
  165MOL0     C22197   9.561   5.125  11.416  0.7958 -0.6579 -0.3648
  165MOL0     C22198   9.576   5.258  11.384  0.2844 -0.2690  0.2032
  165MOL0     O22199   9.462   5.342  11.398 -0.2837 -0.1531 -0.2457
  165MOL0     C22200   9.470   5.486  11.379 -0.3740  0.3793 -0.6756
  165MOL0     C22201   9.347   5.542  11.306  0.2919 -0.0541 -0.9108
  165MOL0     C22202   9.323   5.455  11.182  0.0926  0.1498  0.0186
  165MOL0     C22203   9.199   5.355  11.195 -1.4822  0.6727  0.9236
  165MOL0     C22204   9.080   5.423  11.243  0.0043  0.7377  0.5215
  165MOL0     C22205   8.993   5.477  11.296  1.1708 -0.4718  0.2025
  165MOL0     C22206   9.702   5.295  11.328 -0.1290  0.1840 -0.3109
  165MOL0     C22207   9.806   5.199  11.309 -0.2791 -0.7567 -0.1491
  165MOL0     H22208  10.048   4.918  11.546  4.8493  2.0917 -3.2716
  165MOL0     H22209  10.222   4.765  11.674  3.2735 -0.8941 -1.8724
  165MOL0     H22210  10.348   4.599  11.768  0.8247  1.0855 -2.5423
  165MOL0     H22211  10.194   4.531  11.820  0.7994  0.9697 -1.6960
  165MOL0     H22212  10.431   4.353  11.746  2.3281 -0.5644  1.3654
  165MOL0     H22213  10.393   4.401  11.906  0.2434  0.8384 -0.4929
  165MOL0     H22214  10.237   4.241  11.913  0.6887  1.5268  0.1516
  165MOL0     H22215  10.152   4.303  11.778  0.2775  3.0375  1.2468
  165MOL0     H22216  10.318   4.183  11.619 -0.2182 -0.9431 -1.0705
  165MOL0     H22217  10.403   4.132  11.766  1.4453  2.6853 -1.6103
  165MOL0     H22218  10.184   4.015  11.845  0.0590 -1.7840 -0.4815
  165MOL0     H22219  10.126   4.044  11.687  1.4008  0.1801 -1.1870
  165MOL0     H22220  10.390   3.894  11.746 -1.2446  0.2157  2.6207
  165MOL0     H22221  10.243   3.801  11.746 -0.3901  1.1650 -0.0403
  165MOL0     H22222  10.200   3.870  11.510  1.3461 -1.0595 -1.4076
  165MOL0     H22223  10.335   3.979  11.507 -0.2312 -1.1149 -1.4323
  165MOL0     H22224  10.393   3.795  11.386  1.2264 -1.5869 -0.3744
  165MOL0     H22225  10.349   3.678  11.508  1.2721 -1.2791 -0.0497
  165MOL0     H22226  10.563   3.617  11.659  0.0352 -0.5321 -1.8040
  165MOL0     H22227  10.878   3.786  11.795  1.2393  1.6503 -2.8984
  165MOL0     H22228  10.804   3.629  11.788  3.9980 -2.7370 -2.1247
  165MOL0     H22229  10.991   3.705  11.575  3.6012 -1.7494  0.2426
  165MOL0     H22230  10.900   3.556  11.587 -2.3294  0.2860  1.4407
  165MOL0     H22231  11.109   3.485  11.687 -1.8744 -2.9482  3.2197
  165MOL0     H22232  10.994   3.516  11.812 -1.9988 -0.0503 -0.7325
  165MOL0     H22233  11.090   3.773  11.812  0.1469 -0.3191  1.5700
  165MOL0     H22234  11.213   3.708  11.706 -2.0696 -2.7325 -2.1362
  165MOL0     H22235  11.385   3.564  11.737 -5.1400 -1.9489  0.4573
  165MOL0     H22236  11.630   3.537  11.664 -0.9293  2.1386  1.3016
  165MOL0     H22237  11.734   3.570  11.793 -0.4247  0.3894  2.7364
  165MOL0     H22238  11.698   3.403  11.754  0.8761  0.2616 -0.1463
  165MOL0     H22239  11.824   3.301  12.257 -0.4200 -0.9524  2.0791
  165MOL0     H22240  12.064   3.223  12.365  1.5768 -0.7121 -0.1087
  165MOL0     H22241  12.365   3.560  12.416  1.5353 -3.2967 -0.6728
  165MOL0     H22242  12.236   3.549  12.556  2.7321  3.4825  0.2150
  165MOL0     H22243  12.363   3.363  12.655 -2.1826  1.5980  0.4302
  165MOL0     H22244  12.482   3.359  12.533  0.1385 -2.3948  1.5965
  165MOL0     H22245  12.434   3.577  12.737 -2.6530 -2.0601  0.4976
  165MOL0     H22246  12.536   3.602  12.595  1.2145  0.4989  0.8173
  165MOL0     H22247  12.572   3.387  12.804 -0.2126 -0.1197 -1.9962
  165MOL0     H22248  12.676   3.404  12.670  0.0013  3.5822 -1.3093
  165MOL0     H22249  12.731   3.640  12.729  1.1579 -2.0567 -1.8620
  165MOL0     H22250  12.808   3.514  12.814 -0.4447 -1.3743  1.9785
  165MOL0     H22251  12.696   3.699  12.962 -1.5499 -0.0548  2.4502
  165MOL0     H22252  12.541   3.633  12.918  0.6227 -0.1834 -1.8762
  165MOL0     H22253  12.780   3.485  13.064  0.8454  0.8135 -2.1212
  165MOL0     H22254  12.635   3.400  13.028 -1.1545  0.0234 -0.5309
  165MOL0     H22255  12.500   3.550  13.163  0.6870  2.3780 -0.2822
  165MOL0     H22256  12.650   3.647  13.204 -0.7113  0.7695  1.2282
  165MOL0     H22257  12.157   3.645  12.351 -0.7383  0.8473  0.9408
  165MOL0     H22258  11.934   3.702  12.266  0.1567  1.2927  3.1762
  165MOL0     H22259  11.508   3.546  12.220  2.6160 -0.7479 -0.4244
  165MOL0     H22260  11.283   3.627  12.137 -3.4308 -3.2055 -1.1700
  165MOL0     H22261  10.098   4.443  11.427  0.4867  0.4787 -0.1109
  165MOL0     H22262   9.937   4.603  11.306 -0.3861  2.3342  0.1958
  165MOL0     H22263   9.627   4.928  11.413 -3.1523  0.3202 -1.1425
  165MOL0     H22264   9.467   5.094  11.463 -0.1167 -0.2180 -1.8316
  165MOL0     H22265   9.493   5.534  11.475  3.2381 -0.5145 -0.9422
  165MOL0     H22266   9.553   5.512  11.313 -0.5022 -0.7373 -1.2980
  165MOL0     H22267   9.368   5.646  11.280  0.1009  0.3627  0.4752
  165MOL0     H22268   9.272   5.539  11.386  0.1745 -1.4808 -1.0605
  165MOL0     H22269   9.412   5.399  11.152 -1.1594  0.0819 -4.2830
  165MOL0     H22270   9.298   5.520  11.098 -1.4586 -0.7584 -0.2561
  165MOL0     H22271   9.229   5.289  11.277 -0.0454 -1.3078 -1.0765
  165MOL0     H22272   9.197   5.294  11.105  1.0380  0.9081  0.6554
  165MOL0     H22273   8.919   5.531  11.351 -1.7068 -1.1581 -2.6808
  165MOL0     H22274   9.729   5.396  11.297  0.0826  0.2808  0.1871
  165MOL0     H22275   9.904   5.230  11.273  0.1757 -0.0703  1.5880
  166MOL0     O22276   2.635   8.339   9.439  0.8058  0.1962  0.0501
  166MOL0     C22277   2.586   8.270   9.530  0.4854 -1.0249  0.0532
  166MOL0     O22278   2.455   8.232   9.537  0.0803  0.2143  0.1267
  166MOL0     C22279   2.376   8.256   9.434 -0.0817 -0.3734 -1.0188
  166MOL0     C22280   2.392   8.215   9.303  0.7456 -0.1088  0.4479
  166MOL0     C22281   2.313   8.242   9.199  1.1710  0.5998 -0.2139
  166MOL0     C22282   2.187   8.287   9.227 -0.0567 -0.4266 -0.4963
  166MOL0     O22283   2.092   8.322   9.127  0.5515  0.4650  0.8832
  166MOL0     C22284   2.126   8.286   8.992  1.5068  0.4011 -0.4467
  166MOL0     C22285   2.006   8.299   8.891  0.4321 -0.3456 -0.0092
  166MOL0     C22286   1.969   8.452   8.880  0.1903  1.0295  0.9829
  166MOL0     C22287   1.846   8.450   8.788 -0.6118  0.6672  0.0348
  166MOL0     C22288   1.797   8.602   8.787 -0.3728 -0.2107  0.3001
  166MOL0     C22289   1.881   8.683   8.690 -0.1945  0.4729  0.1681
  166MOL0     C22290   1.831   8.826   8.670 -0.5944  0.6375 -0.3348
  166MOL0     C22291   1.904   8.917   8.577  0.1792 -0.5242  0.3908
  166MOL0     N22292   1.843   9.048   8.574  0.5050 -0.2550  0.0693
  166MOL0     C22293   1.735   9.076   8.491  0.3128  0.1346  0.2010
  166MOL0     C22294   1.743   9.214   8.492  1.0904  0.3067 -0.3766
  166MOL0     C22295   1.649   9.288   8.391 -0.5007 -0.2964  0.3597
  166MOL0     C22296   1.734   9.383   8.300  0.7700 -0.3371 -0.9395
  166MOL0     C22297   1.872   9.340   8.262 -0.0962 -0.2197  0.3173
  166MOL0     C22298   1.884   9.237   8.144 -0.0106  0.6517 -0.3486
  166MOL0     O22299   1.858   9.298   8.020  0.0082  0.7506  0.4513
  166MOL0     C22300   1.812   9.210   7.922 -0.5226 -0.3615 -0.2535
  166MOL0     C22301   1.877   9.091   7.890  0.1241  0.1566 -0.1771
  166MOL0     C22302   1.824   8.995   7.799 -0.2490 -0.4439  0.9800
  166MOL0     C22303   1.910   8.871   7.764 -0.8319 -0.1689  0.5983
  166MOL0     C22304   1.697   9.009   7.751  0.5014  0.9089  0.1355
  166MOL0     C22305   1.620   8.912   7.665  0.3621  0.6906  0.2188
  166MOL0     O22306   1.627   8.777   7.687 -0.3451 -0.9525  0.3143
  166MOL0     C22307   1.584   8.698   7.585  0.2241  0.0591 -1.0571
  166MOL0     C22308   1.518   8.577   7.619 -0.1380 -1.0344 -0.0943
  166MOL0     C22309   1.482   8.491   7.515 -0.5993  1.0280  0.4901
  166MOL0     C22310   1.499   8.518   7.382 -0.9651 -0.2554 -1.0379
  166MOL0     O22311   1.455   8.414   7.299  1.1136 -0.1909 -0.1514
  166MOL0     C22312   1.414   8.459   7.168  0.2228 -0.0811  0.4355
  166MOL0     C22313   1.454   8.331   7.085 -0.1560 -0.7130 -1.1779
  166MOL0     C22314   1.606   8.310   7.072  0.7467 -0.3320 -0.7268
  166MOL0     C22315   1.641   8.196   6.978  0.4682  0.1817 -0.8303
  166MOL0     C22316   1.784   8.142   7.017 -0.1608 -0.7710  0.4685
  166MOL0     C22317   1.825   8.033   6.923 -0.7609 -0.6774 -1.5099
  166MOL0     C22318   1.952   7.953   6.966 -0.1034 -0.7986  0.4783
  166MOL0     C22319   1.982   7.857   6.853  0.7486  0.0466 -0.8379
  166MOL0    Cl22320   2.061   7.950   6.714  0.0545 -0.1358 -0.4626
  166MOL0     C22321   1.568   8.640   7.345 -0.3822 -0.0645 -0.4109
  166MOL0     C22322   1.613   8.726   7.445  0.4853 -0.3113  0.0371
  166MOL0     O22323   1.535   8.967   7.583 -0.2877 -0.5881 -0.5828
  166MOL0     C22324   1.628   9.130   7.792 -0.1583 -0.1287  0.2415
  166MOL0     C22325   1.690   9.234   7.872 -0.0116  0.3195  0.2063
  166MOL0     N22326   1.824   9.254   8.591  0.0218  0.3444 -0.2461
  166MOL0     N22327   1.889   9.153   8.637  0.9983 -0.4699  1.3113
  166MOL0     C22328   2.158   8.341   9.354 -0.2518 -0.7707 -1.2338
  166MOL0     C22329   2.253   8.322   9.459  0.4734  0.3061  0.3354
  166MOL0     C22330   2.668   8.222   9.648 -0.9198 -0.1400 -0.6688
  166MOL0     C22331   2.646   8.101   9.720 -0.8918 -0.8218  0.0223
  166MOL0     C22332   2.715   8.068   9.835 -0.2844  0.5618  0.0004
  166MOL0     C22333   2.820   8.144   9.877  0.9190  0.7129  0.6823
  166MOL0     O22334   2.901   8.092   9.982 -0.4690 -0.0354 -0.7181
  166MOL0     C22335   3.046   8.117   9.971  0.1249 -0.1332 -0.8060
  166MOL0     C22336   3.133   8.049   9.863 -0.3982 -0.1603 -0.4950
  166MOL0     C22337   3.108   7.892   9.856 -1.2884  0.0246  0.6347
  166MOL0     C22338   3.242   7.821   9.809  0.0294  1.2049 -0.2179
  166MOL0     C22339   3.282   7.872   9.674  0.8774  0.3329 -0.3218
  166MOL0     C22340   3.314   7.919   9.567  0.7982  0.4466 -0.1198
  166MOL0     C22341   2.850   8.262   9.807  0.4542 -0.3349  0.6060
  166MOL0     C22342   2.773   8.303   9.698 -0.1119 -1.1953 -0.1721
  166MOL0     H22343   2.486   8.165   9.282  1.1835  0.6824  0.5074
  166MOL0     H22344   2.329   8.211   9.097 -1.8850 -0.7208 -0.4028
  166MOL0     H22345   2.211   8.347   8.959  1.8008  1.9802  2.7629
  166MOL0     H22346   2.161   8.183   8.987 -2.7535 -1.3267  0.3044
  166MOL0     H22347   2.021   8.241   8.800  0.3204  0.7897 -0.7634
  166MOL0     H22348   1.923   8.242   8.934  0.4578  1.3231  2.5250
  166MOL0     H22349   1.955   8.491   8.982 -3.4550 -0.8610  1.3632
  166MOL0     H22350   2.055   8.497   8.830 -0.8350  0.6150 -1.2623
  166MOL0     H22351   1.878   8.426   8.687 -0.2980  0.1811  0.2453
  166MOL0     H22352   1.762   8.396   8.834 -0.9075  0.6112 -0.5614
  166MOL0     H22353   1.696   8.608   8.745  1.0203  2.2796 -3.2733
  166MOL0     H22354   1.802   8.642   8.888  0.4706 -1.7291  0.8820
  166MOL0     H22355   1.979   8.689   8.738 -0.5632  2.4497  0.7639
  166MOL0     H22356   1.894   8.630   8.595 -0.7966 -1.6188  1.2084
  166MOL0     H22357   1.728   8.823   8.634 -0.1840  2.2844 -1.7421
  166MOL0     H22358   1.834   8.878   8.766 -1.6061  3.2977 -1.6381
  166MOL0     H22359   1.909   8.877   8.475 -1.9676 -0.2477  0.1483
  166MOL0     H22360   2.000   8.940   8.625  0.2491  2.1717 -0.8841
  166MOL0     H22361   1.670   9.021   8.424  1.6245  1.7813 -2.6072
  166MOL0     H22362   1.583   9.219   8.337 -1.5713  1.4883 -0.7212
  166MOL0     H22363   1.581   9.354   8.445  1.0904  3.7556 -2.1012
  166MOL0     H22364   1.744   9.477   8.355 -0.7494  0.5211 -2.0369
  166MOL0     H22365   1.668   9.413   8.218 -2.1420  0.7338  1.6085
  166MOL0     H22366   1.927   9.314   8.353 -0.4138  1.6880  1.1051
  166MOL0     H22367   1.922   9.434   8.233  1.4822 -1.3063 -0.6703
  166MOL0     H22368   1.809   9.160   8.166 -1.3169  2.3913  1.7157
  166MOL0     H22369   1.987   9.200   8.145 -0.2238 -0.0128  1.2462
  166MOL0     H22370   1.976   9.064   7.928 -0.6448 -0.8005  1.2593
  166MOL0     H22371   2.000   8.874   7.826  0.6301 -2.7076 -1.2314
  166MOL0     H22372   1.853   8.778   7.759 -0.0633 -0.6886  1.2553
  166MOL0     H22373   1.949   8.889   7.663 -1.9319  2.4863  0.5750
  166MOL0     H22374   1.501   8.554   7.724 -0.2793  3.0201  0.9590
  166MOL0     H22375   1.423   8.402   7.536 -1.3665  1.6405  1.0329
  166MOL0     H22376   1.313   8.501   7.157  0.4580  0.4732  0.3213
  166MOL0     H22377   1.487   8.532   7.130 -0.7003  0.2017 -0.8534
  166MOL0     H22378   1.407   8.240   7.124  1.0224 -0.3349  1.3643
  166MOL0     H22379   1.405   8.334   6.987 -0.5267  1.6550 -0.9815
  166MOL0     H22380   1.646   8.292   7.172  0.2687  1.7535 -0.1003
  166MOL0     H22381   1.653   8.403   7.040  0.4880 -0.5436 -1.7841
  166MOL0     H22382   1.582   8.113   7.016  0.2666  0.8156  0.2784
  166MOL0     H22383   1.614   8.206   6.872 -0.4538  0.8685 -0.5474
  166MOL0     H22384   1.794   8.099   7.117  1.1192  0.5501  0.9582
  166MOL0     H22385   1.863   8.217   7.006  0.3731 -1.5861 -1.6787
  166MOL0     H22386   1.739   7.965   6.914 -1.2202  0.0564 -2.8859
  166MOL0     H22387   1.837   8.076   6.823 -0.8370 -1.7452 -2.0010
  166MOL0     H22388   1.934   7.909   7.065  4.7868  2.4976  3.2037
  166MOL0     H22389   2.046   8.008   6.965 -1.0974  1.0107  1.1285
  166MOL0     H22390   1.881   7.821   6.829  0.4197  2.1512 -3.0029
  166MOL0     H22391   2.049   7.779   6.888  0.0565  0.4966  1.6747
  166MOL0     H22392   1.590   8.661   7.241  0.4983  0.7655 -0.0709
  166MOL0     H22393   1.670   8.817   7.428  1.6334 -0.8325  0.9866
  166MOL0     H22394   1.520   9.136   7.779 -0.1408 -0.1299  0.0899
  166MOL0     H22395   1.633   9.319   7.910 -0.2828  0.0809  0.3391
  166MOL0     H22396   2.065   8.394   9.369  1.1528  2.2955 -2.3633
  166MOL0     H22397   2.229   8.351   9.561 -3.5729 -0.5958 -0.1953
  166MOL0     H22398   2.572   8.023   9.701 -0.8499 -2.4143  5.0798
  166MOL0     H22399   2.685   7.986   9.899  1.6872  0.2692  0.5964
  166MOL0     H22400   3.063   8.225   9.964  3.2789  0.0332  4.2573
  166MOL0     H22401   3.087   8.077  10.064 -2.2831 -2.2960 -0.5705
  166MOL0     H22402   3.239   8.059   9.887 -0.1128 -1.4596 -1.1132
  166MOL0     H22403   3.120   8.088   9.762  1.2094  1.4987 -0.1073
  166MOL0     H22404   3.025   7.879   9.785 -1.0821 -0.6521  0.5082
  166MOL0     H22405   3.060   7.853   9.946  0.4562  1.1286  2.1088
  166MOL0     H22406   3.230   7.712   9.812 -1.7728  1.3299  3.5764
  166MOL0     H22407   3.319   7.851   9.880 -1.4834  0.5692  1.7995
  166MOL0     H22408   3.343   7.962   9.474 -2.5063 -1.8183 -2.4021
  166MOL0     H22409   2.934   8.328   9.829  0.6581  0.9578 -3.2626
  166MOL0     H22410   2.797   8.396   9.648  4.0802 -1.8756  0.2053
  167MOL0     O22411   9.414   9.514   0.819 -0.1106 -0.1538  0.1147
  167MOL0     C22412   9.316   9.487   0.755 -0.1379 -0.0765 -0.6973
  167MOL0     O22413   9.186   9.450   0.795 -0.2760  0.7187  0.2092
  167MOL0     C22414   9.159   9.463   0.929  1.1365  0.2106 -0.0585
  167MOL0     C22415   9.106   9.359   0.999 -0.2799  0.0335 -0.3285
  167MOL0     C22416   9.069   9.362   1.134 -0.8073  0.8310 -0.3319
  167MOL0     C22417   9.094   9.485   1.205 -0.0805  0.4512 -0.4393
  167MOL0     O22418   9.073   9.493   1.342 -0.0972 -0.2106  0.0276
  167MOL0     C22419   9.127   9.606   1.419  0.6490  0.7988 -0.1979
  167MOL0     C22420   9.125   9.585   1.569  0.0329  0.8498 -1.5027
  167MOL0     C22421   9.252   9.520   1.623 -0.6764  1.0381 -0.9848
  167MOL0     C22422   9.248   9.504   1.777 -0.9631 -0.1305  0.1201
  167MOL0     C22423   9.370   9.428   1.829  0.8751  0.6721  0.0942
  167MOL0     C22424   9.498   9.453   1.762  0.2016  0.0673  0.2813
  167MOL0     C22425   9.624   9.377   1.806 -0.0898  0.8777 -0.2774
  167MOL0     C22426   9.737   9.400   1.708 -0.2315  0.5486  0.7840
  167MOL0     N22427   9.837   9.295   1.740  0.9051  0.6005 -0.0140
  167MOL0     C22428   9.822   9.162   1.699 -0.8820 -0.5303  0.1242
  167MOL0     C22429   9.944   9.121   1.704 -0.5036  0.2726 -0.1487
  167MOL0     C22430  10.007   8.985   1.653  0.7104 -0.2521  0.0386
  167MOL0     C22431  10.047   8.981   1.502  0.8187 -0.5165 -0.4193
  167MOL0     C22432  10.114   8.841   1.463 -0.1546 -0.7006 -0.6097
  167MOL0     C22433  10.012   8.720   1.460  0.1998  0.6031 -0.3003
  167MOL0     O22434  10.095   8.607   1.437 -0.2745  0.1863  0.4544
  167MOL0     C22435  10.020   8.505   1.409  0.5732  0.3770 -0.6068
  167MOL0     C22436   9.944   8.446   1.514 -0.4453  0.2602  0.1341
  167MOL0     C22437   9.858   8.340   1.478  0.1781 -0.2131 -0.0975
  167MOL0     C22438   9.774   8.276   1.591 -0.5099  0.0241 -0.6097
  167MOL0     C22439   9.866   8.281   1.350  0.7943 -0.1145 -0.8957
  167MOL0     C22440   9.788   8.168   1.308 -0.2436 -0.5263  1.5958
  167MOL0     O22441   9.836   8.054   1.251 -0.8856 -0.0336  0.7864
  167MOL0     C22442   9.751   7.963   1.191 -0.2791 -0.6401 -0.0966
  167MOL0     C22443   9.669   7.878   1.265  0.4031  0.0784  0.0529
  167MOL0     C22444   9.563   7.796   1.202 -0.3874  0.1574 -1.1599
  167MOL0     C22445   9.544   7.801   1.064 -0.3763 -1.4318  1.2602
  167MOL0     O22446   9.440   7.752   0.986  0.1060  0.4046  0.3159
  167MOL0     C22447   9.403   7.617   1.026 -0.6148  0.1562 -0.8899
  167MOL0     C22448   9.258   7.612   1.061 -1.7845 -0.5232 -0.1071
  167MOL0     C22449   9.231   7.694   1.188  0.6346  0.1979 -0.0720
  167MOL0     C22450   9.081   7.730   1.173 -0.0955  0.5216 -0.7120
  167MOL0     C22451   9.033   7.827   1.285 -0.4615  0.5641  1.3686
  167MOL0     C22452   9.045   7.761   1.426  0.1807 -0.3411  0.4100
  167MOL0     C22453   8.972   7.836   1.538 -0.3527 -0.1222  0.7705
  167MOL0     C22454   8.983   7.760   1.667  0.0824  0.6831 -0.3162
  167MOL0    Cl22455   8.916   7.598   1.646 -0.4388 -0.0109  0.1039
  167MOL0     C22456   9.641   7.879   0.990 -0.5234  0.8266 -0.8388
  167MOL0     C22457   9.743   7.954   1.049 -0.4849 -0.0481 -0.4913
  167MOL0     O22458   9.668   8.168   1.346 -0.6543  0.7292  0.5653
  167MOL0     C22459   9.955   8.328   1.252  0.0887  0.4467 -0.1405
  167MOL0     C22460  10.029   8.441   1.278 -0.0479  0.3829  0.3490
  167MOL0     N22461  10.029   9.215   1.760  1.2735 -0.4537 -0.1194
  167MOL0     N22462   9.964   9.328   1.771  0.5119  0.1939  0.2792
  167MOL0     C22463   9.147   9.593   1.131  0.0091 -0.6789  0.2142
  167MOL0     C22464   9.172   9.583   0.995  0.1914 -0.4218 -0.0775
  167MOL0     C22465   9.333   9.475   0.608 -0.3036 -0.5883  0.6406
  167MOL0     C22466   9.416   9.550   0.537  0.0681 -0.3291  0.5106
  167MOL0     C22467   9.429   9.552   0.391  0.8088 -0.3090  0.5422
  167MOL0     C22468   9.360   9.461   0.315  1.1518 -0.0205  0.4888
  167MOL0     O22469   9.367   9.454   0.177 -0.2051 -0.1093  0.0871
  167MOL0     C22470   9.318   9.339   0.097 -0.0259 -0.4770 -0.9557
  167MOL0     C22471   9.394   9.350  -0.033  0.0015 -0.0302 -0.5625
  167MOL0     C22472   9.535   9.285   0.009  0.2250  0.2060  0.3780
  167MOL0     C22473   9.634   9.267  -0.103  0.3878  1.0590 -0.6167
  167MOL0     C22474   9.649   9.376  -0.206 -0.5048 -0.1243  0.4303
  167MOL0     C22475   9.652   9.456  -0.299  0.0319 -0.6246  1.1697
  167MOL0     C22476   9.278   9.372   0.391 -0.0654  0.0903 -0.0935
  167MOL0     C22477   9.263   9.379   0.528 -0.0397  0.2640  0.1085
  167MOL0     H22478   9.074   9.270   0.946 -1.5506 -0.3379  1.0012
  167MOL0     H22479   9.018   9.281   1.184  1.4495 -2.0872 -2.4446
  167MOL0     H22480   9.229   9.634   1.390  1.1081  1.6697  2.1255
  167MOL0     H22481   9.067   9.692   1.390  1.3137  0.7969 -1.6913
  167MOL0     H22482   9.121   9.680   1.623 -1.0160  0.6586 -1.2170
  167MOL0     H22483   9.031   9.542   1.606  0.7311 -1.9834 -2.8004
  167MOL0     H22484   9.265   9.418   1.584  0.7677 -0.7875  3.6348
  167MOL0     H22485   9.340   9.578   1.596  0.3907 -0.0286  0.0937
  167MOL0     H22486   9.258   9.600   1.828 -1.9708  1.1162 -1.9097
  167MOL0     H22487   9.149   9.469   1.807 -0.6162 -0.2182  1.2044
  167MOL0     H22488   9.379   9.429   1.938 -0.1220 -1.9146  0.2764
  167MOL0     H22489   9.345   9.324   1.806  0.7519  0.4801  1.0881
  167MOL0     H22490   9.482   9.439   1.655 -1.6888 -0.7364  0.6266
  167MOL0     H22491   9.512   9.559   1.784 -2.8324  0.4356  0.8780
  167MOL0     H22492   9.646   9.413   1.906 -3.1720  3.4900 -0.3799
  167MOL0     H22493   9.607   9.270   1.825  0.8289  0.7853  0.0636
  167MOL0     H22494   9.771   9.502   1.727  1.8228  0.2621 -0.9493
  167MOL0     H22495   9.703   9.394   1.604 -2.5126  1.9527  1.3910
  167MOL0     H22496   9.732   9.115   1.661 -0.7579  1.5686 -3.2126
  167MOL0     H22497  10.100   8.956   1.702  0.2570 -3.6344 -0.8793
  167MOL0     H22498   9.934   8.914   1.691  0.9173 -0.0479  0.8430
  167MOL0     H22499  10.122   9.059   1.488 -2.6636  3.7096  2.1685
  167MOL0     H22500   9.962   9.006   1.438  2.6298 -0.5427 -2.9867
  167MOL0     H22501  10.196   8.818   1.532 -1.1026 -0.3595  0.6913
  167MOL0     H22502  10.160   8.859   1.366  1.4368  2.1994  0.5438
  167MOL0     H22503   9.933   8.729   1.385  0.3805 -1.4287 -0.7848
  167MOL0     H22504   9.955   8.713   1.553 -1.1227 -1.6624 -1.2235
  167MOL0     H22505   9.950   8.495   1.610 -0.6629  2.3753 -0.8698
  167MOL0     H22506   9.802   8.173   1.615 -0.3028  0.3902  0.8494
  167MOL0     H22507   9.800   8.323   1.687  0.9339 -1.7493 -0.0735
  167MOL0     H22508   9.669   8.298   1.573 -1.4697 -2.8825  0.7668
  167MOL0     H22509   9.671   7.876   1.373 -2.4384  0.3600  0.1882
  167MOL0     H22510   9.498   7.737   1.266 -0.0669  1.2115  0.1817
  167MOL0     H22511   9.411   7.554   0.937 -4.1344  0.3421 -1.4590
  167MOL0     H22512   9.457   7.561   1.102 -0.8245 -1.4114 -1.8650
  167MOL0     H22513   9.204   7.661   0.980  0.4009  3.4293  0.5563
  167MOL0     H22514   9.229   7.507   1.072 -0.3113 -0.9193  0.2281
  167MOL0     H22515   9.280   7.791   1.191 -0.8474  0.9533  0.2926
  167MOL0     H22516   9.251   7.640   1.281  0.2850  2.4300  1.3707
  167MOL0     H22517   9.062   7.788   1.082 -2.9107  3.3927  1.4788
  167MOL0     H22518   9.026   7.636   1.162  1.6523 -0.6313 -0.0266
  167MOL0     H22519   8.930   7.856   1.263 -0.6367  0.7524  2.3869
  167MOL0     H22520   9.099   7.913   1.273  0.9824 -0.9124 -3.2549
  167MOL0     H22521   8.990   7.666   1.418 -0.2381  0.0039 -1.3845
  167MOL0     H22522   9.141   7.726   1.465  0.1439 -1.7840 -0.6773
  167MOL0     H22523   8.866   7.850   1.512  0.1375  2.2886 -0.1824
  167MOL0     H22524   8.999   7.941   1.542 -4.2039  1.0213  1.2261
  167MOL0     H22525   8.938   7.818   1.748 -3.1529  1.9508 -2.7937
  167MOL0     H22526   9.087   7.753   1.702 -0.4140  0.2580  1.1173
  167MOL0     H22527   9.654   7.872   0.882 -2.7306 -1.9545 -1.0420
  167MOL0     H22528   9.810   7.996   0.976  0.8038 -2.3414 -0.7451
  167MOL0     H22529   9.950   8.289   1.151  0.9568 -0.0661  0.0035
  167MOL0     H22530  10.100   8.480   1.206 -2.0555 -0.4248 -2.2279
  167MOL0     H22531   9.162   9.689   1.179 -1.7736 -0.3812  0.2685
  167MOL0     H22532   9.200   9.676   0.947 -4.2813  0.4754 -1.3945
  167MOL0     H22533   9.476   9.608   0.606  1.9600 -0.2070 -1.1401
  167MOL0     H22534   9.500   9.618   0.341  0.1997 -0.4161 -0.4911
  167MOL0     H22535   9.330   9.241   0.144 -1.5713 -0.2768 -0.0743
  167MOL0     H22536   9.214   9.354   0.065  0.5913  0.8155 -2.4916
  167MOL0     H22537   9.404   9.449  -0.079  1.8404 -0.8441 -2.0544
  167MOL0     H22538   9.334   9.291  -0.102  0.7342 -0.3995 -0.8916
  167MOL0     H22539   9.525   9.184   0.051 -2.8640  0.5261  0.6675
  167MOL0     H22540   9.579   9.346   0.088 -3.3579  1.5026  1.5921
  167MOL0     H22541   9.592   9.185  -0.164  2.7481 -0.3693 -0.4406
  167MOL0     H22542   9.726   9.230  -0.056 -1.1350 -1.3553  0.6999
  167MOL0     H22543   9.650   9.525  -0.381 -1.1002  1.8038  3.0904
  167MOL0     H22544   9.241   9.293   0.327 -0.9294  0.4279 -0.0195
  167MOL0     H22545   9.187   9.316   0.574  0.4194 -0.2714  0.1421
  168MOL0     O22546   1.538   9.674   8.436 -0.0547  0.1135 -0.0212
  168MOL0     C22547   1.458   9.761   8.394 -0.3203  0.3774 -0.3590
  168MOL0     O22548   1.473   9.828   8.271 -0.2039  0.0963  0.4822
  168MOL0     C22549   1.593   9.828   8.202 -0.2457 -0.2575  0.3658
  168MOL0     C22550   1.714   9.850   8.263  0.0552  0.2539 -0.7808
  168MOL0     C22551   1.838   9.858   8.200  0.4969  0.1222 -0.3787
  168MOL0     C22552   1.847   9.840   8.057  0.6560  0.1202  0.3862
  168MOL0     O22553   1.969   9.840   7.984  0.5730  0.3623 -0.1586
  168MOL0     C22554   2.076   9.899   8.054 -0.2851  0.9900 -0.4806
  168MOL0     C22555   2.177   9.943   7.943 -0.9470 -0.1968 -0.6205
  168MOL0     C22556   2.295  10.026   8.016 -0.0918  0.6158  0.2695
  168MOL0     C22557   2.387  10.095   7.919 -0.4411  0.3017  0.1094
  168MOL0     C22558   2.526  10.137   7.970 -0.7471 -0.4036 -0.2333
  168MOL0     C22559   2.532  10.253   8.072 -0.2962 -0.6256 -0.7028
  168MOL0     C22560   2.443  10.247   8.202  0.0934  0.2566  0.3637
  168MOL0     C22561   2.485  10.347   8.307  0.0270  0.0714 -1.3007
  168MOL0     N22562   2.380  10.419   8.383  0.3484 -0.6249  0.8024
  168MOL0     C22563   2.398  10.462   8.513  0.7070 -0.3426  0.3033
  168MOL0     C22564   2.284  10.525   8.552  0.0185 -0.2425  0.2421
  168MOL0     C22565   2.245  10.607   8.673  1.0462  0.5383  0.4472
  168MOL0     C22566   2.225  10.759   8.630 -0.3806 -0.4041  0.2126
  168MOL0     C22567   2.273  10.851   8.746 -0.8975 -0.5609  0.5753
  168MOL0     C22568   2.417  10.837   8.786  0.3584  0.3921 -0.5526
  168MOL0     O22569   2.451  10.953   8.858 -0.8016 -0.4776  0.9325
  168MOL0     C22570   2.426  10.953   8.988 -0.0613  0.2640 -0.2386
  168MOL0     C22571   2.477  10.857   9.082  0.1605  0.0714 -0.4840
  168MOL0     C22572   2.435  10.857   9.214 -0.1446 -0.3526  0.6564
  168MOL0     C22573   2.503  10.757   9.302 -0.2484  1.0282  0.0265
  168MOL0     C22574   2.332  10.945   9.249  0.7350  0.5832  0.0978
  168MOL0     C22575   2.280  10.957   9.388  0.1088 -0.1141 -0.0852
  168MOL0     O22576   2.207  11.077   9.427 -0.3838  0.0598  0.1117
  168MOL0     C22577   2.186  11.102   9.561 -0.5181 -0.6486 -0.4304
  168MOL0     C22578   2.238  11.032   9.668 -0.2528  0.0288 -0.2266
  168MOL0     C22579   2.207  11.068   9.799  0.0416  0.3173  0.6086
  168MOL0     C22580   2.109  11.168   9.815  1.2426 -1.9038 -0.3911
  168MOL0     O22581   2.087  11.202   9.949 -0.0995  0.0271 -0.4644
  168MOL0     C22582   2.178  11.174  10.062 -0.3092 -0.9082 -0.0066
  168MOL0     C22583   2.110  11.243  10.182 -0.6360  0.0945 -0.0187
  168MOL0     C22584   2.154  11.205  10.325  0.3298 -0.2948 -0.3478
  168MOL0     C22585   2.299  11.256  10.356  0.7057 -0.0152  0.4043
  168MOL0     C22586   2.338  11.240  10.503 -0.7271 -0.4803  0.1181
  168MOL0     C22587   2.484  11.283  10.530  0.5267  0.5738  0.6685
  168MOL0     C22588   2.523  11.252  10.679  0.6373 -0.6068 -0.7320
  168MOL0     C22589   2.470  11.343  10.786 -0.2131 -0.0698  0.1697
  168MOL0    Cl22590   2.520  11.274  10.951 -0.6866 -0.0905  0.3380
  168MOL0     C22591   2.059  11.240   9.716  0.2119  0.1191  0.3859
  168MOL0     C22592   2.102  11.216   9.588  0.6265 -1.4660 -0.2136
  168MOL0     O22593   2.284  10.856   9.454 -0.5622  0.2254  0.1836
  168MOL0     C22594   2.284  11.037   9.151 -0.1258  0.2468  0.5002
  168MOL0     C22595   2.330  11.040   9.025  0.0669  0.7135  0.6910
  168MOL0     N22596   2.190  10.510   8.453 -0.1619 -0.9246 -0.4806
  168MOL0     N22597   2.245  10.439   8.353 -0.8291 -0.6331 -0.0522
  168MOL0     C22598   1.724   9.806   7.997 -0.7382  0.4046  0.6627
  168MOL0     C22599   1.602   9.810   8.064 -0.7302 -0.2155  0.1686
  168MOL0     C22600   1.322   9.763   8.448  0.3581 -0.3468  0.0047
  168MOL0     C22601   1.209   9.832   8.394  0.3713 -0.3436 -0.0852
  168MOL0     C22602   1.086   9.828   8.452 -1.2772  0.3308  0.6775
  168MOL0     C22603   1.073   9.762   8.568  0.2159 -0.5103  0.3402
  168MOL0     O22604   0.940   9.763   8.613  0.2110  0.5591 -0.2640
  168MOL0     C22605   0.904   9.704   8.737 -0.1821 -0.0701 -0.0285
  168MOL0     C22606   0.765   9.737   8.783  0.1406 -0.1828  0.1299
  168MOL0     C22607   0.756   9.871   8.855  1.3514 -0.4503  1.0099
  168MOL0     C22608   0.603   9.888   8.879 -0.5633  0.1682 -0.6404
  168MOL0     C22609   0.547   9.959   8.767 -0.5529  0.1443  0.0886
  168MOL0     C22610   0.495  10.006   8.673  0.0902 -0.0875  0.1189
  168MOL0     C22611   1.180   9.704   8.637  0.4883  0.4520 -0.4603
  168MOL0     C22612   1.302   9.693   8.562 -0.0082 -0.0362 -0.0105
  168MOL0     H22613   1.706   9.870   8.369 -0.0553 -1.4678 -0.4257
  168MOL0     H22614   1.915   9.880   8.273 -0.1532 -0.0018  0.3556
  168MOL0     H22615   2.046   9.986   8.113 -2.5586 -1.4413  2.2453
  168MOL0     H22616   2.123   9.835   8.130 -0.1440  2.4921  0.7463
  168MOL0     H22617   2.214   9.858   7.885 -2.0574 -0.5559 -0.8253
  168MOL0     H22618   2.128  10.003   7.866 -0.5463 -2.2116 -2.5644
  168MOL0     H22619   2.248  10.094   8.088 -2.2860 -0.2472 -0.2605
  168MOL0     H22620   2.355   9.953   8.070 -0.6791 -2.2627 -2.6440
  168MOL0     H22621   2.406  10.023   7.839 -0.3101 -2.6120  2.5748
  168MOL0     H22622   2.339  10.183   7.876  3.1969  1.7724 -1.3833
  168MOL0     H22623   2.573  10.053   8.022 -1.1660 -1.3692 -1.3695
  168MOL0     H22624   2.587  10.159   7.881 -0.6081  1.2290  0.2230
  168MOL0     H22625   2.637  10.257   8.102 -0.4436 -0.8358 -0.1551
  168MOL0     H22626   2.502  10.347   8.025  0.8292 -0.9392 -2.1397
  168MOL0     H22627   2.339  10.274   8.182  0.2625  2.7634  2.2788
  168MOL0     H22628   2.439  10.143   8.233 -1.9713  0.4267  0.7655
  168MOL0     H22629   2.553  10.420   8.262  0.8056  0.6439  0.7017
  168MOL0     H22630   2.539  10.290   8.383  0.0440  3.1708  1.2058
  168MOL0     H22631   2.486  10.455   8.575  1.6710 -1.7235 -1.1445
  168MOL0     H22632   2.149  10.564   8.700  1.3068  0.1562  0.7737
  168MOL0     H22633   2.318  10.600   8.754  0.6251  3.5065  1.2034
  168MOL0     H22634   2.118  10.778   8.618 -0.4116 -0.2113  0.7864
  168MOL0     H22635   2.265  10.769   8.528 -0.5607 -2.8296 -0.1403
  168MOL0     H22636   2.224  10.841   8.843  1.4984 -0.8544  1.8288
  168MOL0     H22637   2.264  10.951   8.702 -1.4362 -1.3790 -1.2673
  168MOL0     H22638   2.466  10.826   8.688  0.6414 -1.2112 -0.2535
  168MOL0     H22639   2.433  10.752   8.852 -1.6622  0.5134  0.1372
  168MOL0     H22640   2.533  10.770   9.048  2.4396  0.5416  1.7184
  168MOL0     H22641   2.594  10.719   9.255  0.7125  5.5084 -2.3301
  168MOL0     H22642   2.528  10.809   9.396  0.7306  0.4226  0.1083
  168MOL0     H22643   2.439  10.674   9.334 -0.8514  0.7404 -1.8535
  168MOL0     H22644   2.317  10.960   9.654 -1.8578 -2.0757  1.0188
  168MOL0     H22645   2.255  11.030   9.888  2.4903 -0.7163 -1.0741
  168MOL0     H22646   2.193  11.069  10.089 -0.8300 -1.3937 -1.5005
  168MOL0     H22647   2.274  11.225  10.052 -1.4558  2.3421  3.1991
  168MOL0     H22648   2.133  11.350  10.184  0.1161 -0.0557 -0.0071
  168MOL0     H22649   2.002  11.229  10.176 -0.8924  0.7944  2.0802
  168MOL0     H22650   2.139  11.097  10.335 -2.9955 -0.1349 -2.1601
  168MOL0     H22651   2.084  11.258  10.390 -0.0693 -0.3926 -0.6929
  168MOL0     H22652   2.364  11.204  10.285 -1.0770  0.4521 -1.6744
  168MOL0     H22653   2.307  11.365  10.343  1.7473 -0.2188 -0.9388
  168MOL0     H22654   2.322  11.135  10.529  1.2383 -1.0964 -0.9519
  168MOL0     H22655   2.270  11.303  10.562 -0.4710 -0.2064  0.1224
  168MOL0     H22656   2.546  11.219  10.466 -0.6529  0.0365  0.0159
  168MOL0     H22657   2.493  11.390  10.509  0.3304  0.5662  0.5423
  168MOL0     H22658   2.631  11.254  10.697  0.8459 -2.2417 -1.5758
  168MOL0     H22659   2.494  11.148  10.700  1.3902 -0.3476  1.9240
  168MOL0     H22660   2.361  11.338  10.782 -0.1923 -2.7632  1.1387
  168MOL0     H22661   2.508  11.446  10.777  1.1125 -0.6728 -1.7829
  168MOL0     H22662   2.004  11.330   9.740  1.4148  0.7077  0.9731
  168MOL0     H22663   2.054  11.275   9.510 -2.4935 -0.8642  1.9588
  168MOL0     H22664   2.214  11.120   9.158  3.0887  3.6208 -2.8235
  168MOL0     H22665   2.294  11.115   8.955  0.9068  0.4063 -0.0854
  168MOL0     H22666   1.729   9.792   7.889 -1.2867  0.4223  0.6351
  168MOL0     H22667   1.506   9.801   8.016 -2.1572 -3.7756  3.2335
  168MOL0     H22668   1.227   9.889   8.303 -0.4539 -0.4621 -0.3309
  168MOL0     H22669   1.008   9.893   8.414 -0.2610  1.1552 -0.0637
  168MOL0     H22670   0.913   9.595   8.738 -0.3816 -0.0882  1.6293
  168MOL0     H22671   0.972   9.731   8.819 -1.3509  1.3884  0.4949
  168MOL0     H22672   0.752   9.666   8.866  0.9895  2.0685  2.3092
  168MOL0     H22673   0.695   9.732   8.699  0.5835 -0.9985 -0.2006
  168MOL0     H22674   0.792   9.951   8.791  1.4229 -2.4308 -1.5764
  168MOL0     H22675   0.802   9.875   8.955  1.6494  0.4549  0.8486
  168MOL0     H22676   0.578   9.946   8.968  1.6066 -4.2171  3.2595
  168MOL0     H22677   0.547   9.796   8.898 -0.5197  0.6871  2.3477
  168MOL0     H22678   0.452  10.020   8.576  0.5605  1.8771  0.1491
  168MOL0     H22679   1.165   9.656   8.733 -0.1492  3.7157  1.2241
  168MOL0     H22680   1.388   9.643   8.607 -0.3464 -0.6725 -0.0584
  169MOL0     O22681   3.642   8.222  10.570  0.3575 -0.2981 -0.1758
  169MOL0     C22682   3.664   8.267  10.691  0.3776  0.1402  1.3572
  169MOL0     O22683   3.604   8.382  10.742 -0.4260  0.7552  0.3508
  169MOL0     C22684   3.514   8.466  10.683  0.1790  0.5048  0.9931
  169MOL0     C22685   3.434   8.423  10.578  0.0012  0.1197  0.1950
  169MOL0     C22686   3.336   8.517  10.540  1.0081 -0.1784  0.3251
  169MOL0     C22687   3.314   8.638  10.602 -0.4308  0.3801  1.0002
  169MOL0     O22688   3.223   8.733  10.575 -0.6348  0.0888 -0.5125
  169MOL0     C22689   3.133   8.726  10.464 -0.4859  0.7816  0.5165
  169MOL0     C22690   2.986   8.711  10.507 -1.0042  0.0241  0.4246
  169MOL0     C22691   2.902   8.696  10.373 -0.3083  0.4384  0.2320
  169MOL0     C22692   2.759   8.728  10.422  0.1415 -0.6340  0.1240
  169MOL0     C22693   2.639   8.668  10.335 -0.5400  1.2125 -0.3178
  169MOL0     C22694   2.504   8.686  10.414 -0.9984 -0.9072  0.1942
  169MOL0     C22695   2.453   8.829  10.402 -0.7129  0.0475 -0.0838
  169MOL0     C22696   2.313   8.825  10.476 -0.5209  0.3939  0.1095
  169MOL0     N22697   2.206   8.754  10.398 -0.5804 -0.3553 -0.4964
  169MOL0     C22698   2.157   8.808  10.281 -1.4407 -0.4291 -0.2193
  169MOL0     C22699   2.042   8.743  10.242 -0.1110  1.0473 -0.0128
  169MOL0     C22700   1.939   8.777  10.130 -0.7605 -0.3155 -0.6286
  169MOL0     C22701   1.783   8.776  10.172  0.3072  0.3343  0.2331
  169MOL0     C22702   1.707   8.648  10.149  0.2519 -0.5899  0.2737
  169MOL0     C22703   1.654   8.628  10.006  0.1615 -0.4322  0.0210
  169MOL0     O22704   1.533   8.697  10.002  0.9296  0.1460 -0.4087
  169MOL0     C22705   1.451   8.697   9.889 -0.1144 -0.1540 -0.0896
  169MOL0     C22706   1.467   8.605   9.783 -0.0541 -0.4543 -0.0955
  169MOL0     C22707   1.396   8.603   9.664 -0.0296  0.2867  0.7275
  169MOL0     C22708   1.434   8.503   9.556  0.8179 -0.5149  0.0364
  169MOL0     C22709   1.298   8.708   9.643 -0.7918  1.3315 -0.4526
  169MOL0     C22710   1.212   8.733   9.525  0.4424 -0.4488  0.4169
  169MOL0     O22711   1.227   8.654   9.419 -0.3479 -0.3090  0.3859
  169MOL0     C22712   1.146   8.681   9.316  0.1315  0.5543  0.1638
  169MOL0     C22713   1.017   8.620   9.309 -0.4368 -0.3301  0.0803
  169MOL0     C22714   0.952   8.639   9.186 -0.4646  0.0203 -0.4072
  169MOL0     C22715   0.995   8.719   9.085 -1.2144 -0.4234  0.2036
  169MOL0     O22716   0.921   8.706   8.976  0.0196  0.3832 -0.2830
  169MOL0     C22717   0.943   8.801   8.875  0.0803  0.1039  0.7359
  169MOL0     C22718   0.839   8.782   8.760 -0.4776  0.6065 -0.4533
  169MOL0     C22719   0.894   8.827   8.627  0.0312 -0.4474 -0.1362
  169MOL0     C22720   0.899   8.979   8.632 -0.1787  0.0232  0.8735
  169MOL0     C22721   0.976   9.048   8.510 -0.4660  0.3647 -1.6167
  169MOL0     C22722   0.956   9.198   8.515  0.9477 -0.4452 -0.2494
  169MOL0     C22723   1.000   9.266   8.381 -0.2466  0.3240  0.0739
  169MOL0     C22724   1.027   9.412   8.401 -0.8103 -0.3554 -0.5183
  169MOL0    Cl22725   0.875   9.499   8.457  0.6975  0.2775  0.1669
  169MOL0     C22726   1.124   8.773   9.095  0.3663 -0.3055  0.0605
  169MOL0     C22727   1.193   8.761   9.212 -0.5232  0.8218  0.0166
  169MOL0     O22728   1.141   8.833   9.519 -0.3527 -0.7068 -0.6159
  169MOL0     C22729   1.276   8.800   9.756 -0.2807 -0.2730  0.0423
  169MOL0     C22730   1.347   8.792   9.872 -0.8638 -0.5109  0.2806
  169MOL0     N22731   2.023   8.652  10.342 -0.9962  0.3581 -0.0388
  169MOL0     N22732   2.124   8.646  10.425  0.1873  0.3671 -0.0985
  169MOL0     C22733   3.395   8.672  10.710 -0.1976 -0.5803 -0.1655
  169MOL0     C22734   3.492   8.589  10.747 -0.5325  0.2934  0.3635
  169MOL0     C22735   3.747   8.196  10.790 -0.2722  0.0582  0.1547
  169MOL0     C22736   3.780   8.269  10.901 -0.4524 -0.1714 -0.9010
  169MOL0     C22737   3.865   8.214  10.998  1.3106 -0.1604  0.0509
  169MOL0     C22738   3.921   8.089  10.983 -0.2228  0.4526 -0.9860
  169MOL0     O22739   4.008   8.051  11.088  0.2201  0.3856 -0.6820
  169MOL0     C22740   4.107   7.959  11.051  0.4216  0.5084  0.1819
  169MOL0     C22741   4.211   7.972  11.161  0.1476 -1.1630  0.1530
  169MOL0     C22742   4.316   8.079  11.129 -0.2278  0.3143  0.2488
  169MOL0     C22743   4.428   8.050  11.234  0.6020  0.1963 -0.1049
  169MOL0     C22744   4.511   8.175  11.252 -0.3232  0.0908 -0.2356
  169MOL0     C22745   4.592   8.269  11.273  1.1530 -0.4060  0.4387
  169MOL0     C22746   3.882   8.015  10.870 -0.1544 -0.1171  0.7906
  169MOL0     C22747   3.789   8.069  10.777 -1.1368  1.3575 -0.0340
  169MOL0     H22748   3.441   8.333  10.517  0.2406  1.0791 -1.2673
  169MOL0     H22749   3.257   8.487  10.471  0.2157 -0.4322  1.3231
  169MOL0     H22750   3.142   8.820  10.410  1.6795  0.5161  0.3351
  169MOL0     H22751   3.158   8.650  10.390 -0.2832  1.7220 -0.3920
  169MOL0     H22752   2.975   8.633  10.583  3.2180 -1.8842 -0.6451
  169MOL0     H22753   2.964   8.810  10.550  0.9943  0.3800  0.7108
  169MOL0     H22754   2.936   8.755  10.287  0.1484 -1.9004 -1.3049
  169MOL0     H22755   2.908   8.593  10.337  0.8331  0.3296  0.7008
  169MOL0     H22756   2.742   8.672  10.515  0.7546 -4.2033 -1.7095
  169MOL0     H22757   2.756   8.835  10.442  0.3110 -0.6789  0.4021
  169MOL0     H22758   2.651   8.704  10.232 -1.2762 -4.1492 -2.6173
  169MOL0     H22759   2.661   8.563  10.313  2.7977  1.6756  0.2711
  169MOL0     H22760   2.432   8.617  10.369  0.7988  0.1365 -4.9722
  169MOL0     H22761   2.516   8.659  10.520 -3.3999 -2.4374  0.1679
  169MOL0     H22762   2.529   8.888  10.453 -0.8651  0.6029 -0.4887
  169MOL0     H22763   2.440   8.856  10.296 -1.0056  1.1905  0.2328
  169MOL0     H22764   2.284   8.930  10.493 -1.0817  0.0839  1.1669
  169MOL0     H22765   2.321   8.797  10.581  3.2321  1.1294  0.1439
  169MOL0     H22766   2.206   8.896  10.240  1.6625 -0.3305  3.2430
  169MOL0     H22767   1.966   8.876  10.093 -0.7791 -0.0715 -0.0067
  169MOL0     H22768   1.960   8.708  10.048 -3.6312 -1.5405 -0.4644
  169MOL0     H22769   1.735   8.856  10.115 -0.3203  1.3026  2.0380
  169MOL0     H22770   1.773   8.810  10.276 -2.9577 -0.2510  0.1890
  169MOL0     H22771   1.623   8.638  10.218 -0.1112  0.5492  0.0163
  169MOL0     H22772   1.760   8.553  10.161  0.4683 -0.3642  1.1761
  169MOL0     H22773   1.626   8.522   9.995 -3.4438  0.2330  1.6704
  169MOL0     H22774   1.729   8.650   9.929  1.8724 -0.2470  1.6811
  169MOL0     H22775   1.556   8.542   9.781  0.0613 -0.2874 -0.2827
  169MOL0     H22776   1.361   8.422   9.562 -1.1980  1.1588 -0.7956
  169MOL0     H22777   1.440   8.550   9.458  3.4336 -0.9529 -0.0973
  169MOL0     H22778   1.531   8.457   9.579  0.6529 -0.3018  1.2513
  169MOL0     H22779   0.980   8.550   9.382 -1.8175 -0.8631 -1.0795
  169MOL0     H22780   0.860   8.584   9.165 -0.5259 -0.3946  0.8757
  169MOL0     H22781   0.933   8.902   8.918 -0.5217  1.4284 -2.2439
  169MOL0     H22782   1.042   8.791   8.831 -0.3535 -2.0307  0.1368
  169MOL0     H22783   0.811   8.677   8.747 -0.1937  0.1589  1.9478
  169MOL0     H22784   0.747   8.840   8.778 -1.3033  0.4701 -3.6839
  169MOL0     H22785   0.837   8.781   8.546  1.0982  0.4850 -1.4657
  169MOL0     H22786   0.994   8.784   8.617  0.5988  0.8443 -0.2711
  169MOL0     H22787   0.791   9.001   8.631 -0.1671  0.3784 -2.1911
  169MOL0     H22788   0.953   9.006   8.723 -0.2504  2.2643  0.3095
  169MOL0     H22789   0.934   9.019   8.413 -0.7942 -1.5066 -0.9531
  169MOL0     H22790   1.081   9.020   8.518 -0.7212 -0.1002  0.6218
  169MOL0     H22791   0.854   9.222   8.546  1.8976  2.5664  0.9707
  169MOL0     H22792   1.016   9.243   8.594  1.5044 -0.7376 -0.5008
  169MOL0     H22793   0.932   9.253   8.296  1.8966 -3.5175 -1.2458
  169MOL0     H22794   1.098   9.224   8.357 -0.1157  0.6200  0.0877
  169MOL0     H22795   1.066   9.452   8.307  2.3752 -1.3824  0.2494
  169MOL0     H22796   1.103   9.419   8.479 -1.1927 -0.4325 -0.1329
  169MOL0     H22797   1.183   8.820   9.017  0.3504 -4.7964 -3.0139
  169MOL0     H22798   1.299   8.783   9.215 -0.3082  1.0344 -3.9277
  169MOL0     H22799   1.218   8.892   9.752  0.8122  0.7550  3.6755
  169MOL0     H22800   1.340   8.856   9.960  0.0777 -2.3006  1.7158
  169MOL0     H22801   3.379   8.771  10.750  3.0148 -0.5610  1.3969
  169MOL0     H22802   3.555   8.599  10.835  0.4150 -2.0477  0.0323
  169MOL0     H22803   3.732   8.362  10.932 -4.3032 -2.4464  0.6765
  169MOL0     H22804   3.883   8.281  11.081 -0.2151 -0.1922  0.4218
  169MOL0     H22805   4.065   7.858  11.054 -0.9243  1.0368  0.0023
  169MOL0     H22806   4.145   7.979  10.950 -2.0249  1.3368 -0.6647
  169MOL0     H22807   4.256   7.873  11.167  2.1740 -0.3045  0.2304
  169MOL0     H22808   4.159   8.002  11.252  0.7886  2.4986 -0.4991
  169MOL0     H22809   4.282   8.182  11.135  2.3426  1.5862 -3.5733
  169MOL0     H22810   4.365   8.072  11.032  3.0568  1.3911  1.7027
  169MOL0     H22811   4.483   7.967  11.190  1.8781  1.2203 -0.5006
  169MOL0     H22812   4.376   8.012  11.323 -2.5830 -1.7160 -2.5228
  169MOL0     H22813   4.646   8.359  11.292 -0.5596  0.3505  2.0827
  169MOL0     H22814   3.922   7.917  10.847 -2.5253 -0.6467 -1.6203
  169MOL0     H22815   3.772   8.006  10.690  1.7762  1.1291 -0.5303
  170MOL0     O22816   7.900   7.641   6.164  0.0989  0.2262  0.4178
  170MOL0     C22817   8.014   7.668   6.208  0.1942 -0.4903  0.1465
  170MOL0     O22818   8.069   7.622   6.325  0.2698  0.3075  0.1698
  170MOL0     C22819   8.007   7.533   6.403 -0.6601 -0.3858 -0.1059
  170MOL0     C22820   8.094   7.446   6.471 -0.2205 -0.1086 -0.2478
  170MOL0     C22821   8.039   7.345   6.558 -0.4351  0.2077 -0.5400
  170MOL0     C22822   7.909   7.322   6.562  0.3074  0.7036  0.5392
  170MOL0     O22823   7.841   7.216   6.629 -0.2669  0.2547 -0.5281
  170MOL0     C22824   7.919   7.112   6.695  0.4838  1.0571 -1.2024
  170MOL0     C22825   7.836   6.995   6.765 -0.8323  0.1244  1.0627
  170MOL0     C22826   7.800   6.888   6.656 -0.5056  0.0162  0.2103
  170MOL0     C22827   7.907   6.771   6.627  0.4441  1.1553 -0.3380
  170MOL0     C22828   7.858   6.654   6.542 -0.1513 -0.6568  0.3753
  170MOL0     C22829   7.783   6.546   6.621  0.1089  0.5986  0.9686
  170MOL0     C22830   7.756   6.417   6.535 -0.6677 -0.2477 -0.6810
  170MOL0     C22831   7.738   6.294   6.622 -0.5202 -0.3765  0.8093
  170MOL0     N22832   7.873   6.244   6.667 -0.2201  0.0277 -0.2345
  170MOL0     C22833   7.974   6.197   6.591 -0.0357  0.5353  0.2637
  170MOL0     C22834   8.079   6.179   6.672 -0.0578 -0.2092 -0.4255
  170MOL0     C22835   8.221   6.142   6.648 -0.9142  0.4910  0.1184
  170MOL0     C22836   8.311   6.266   6.668 -0.5349  0.4849 -0.0044
  170MOL0     C22837   8.298   6.387   6.576 -0.2728 -0.3681  0.1201
  170MOL0     C22838   8.417   6.477   6.617  0.4636 -0.4226  0.0355
  170MOL0     O22839   8.431   6.578   6.522 -0.3706  0.0709  0.9301
  170MOL0     C22840   8.490   6.562   6.402  0.0758  1.0585 -0.0508
  170MOL0     C22841   8.496   6.680   6.321  0.0588  1.2193  0.0715
  170MOL0     C22842   8.575   6.675   6.209 -0.0120 -0.6849 -0.1422
  170MOL0     C22843   8.597   6.810   6.134  0.7846 -0.1058  0.4437
  170MOL0     C22844   8.642   6.561   6.165  0.2436  0.2280 -0.1883
  170MOL0     C22845   8.719   6.558   6.043  0.1485 -0.5281  0.3055
  170MOL0     O22846   8.695   6.454   5.958  0.8282 -1.1235 -0.3711
  170MOL0     C22847   8.747   6.451   5.835 -0.9151 -0.9433  0.3652
  170MOL0     C22848   8.871   6.408   5.821  0.2518 -0.1730 -0.4233
  170MOL0     C22849   8.928   6.391   5.686 -0.1267 -0.8303 -0.8288
  170MOL0     C22850   8.853   6.423   5.573 -0.0838 -0.3462 -0.5782
  170MOL0     O22851   8.902   6.412   5.448  0.4509 -1.0206 -0.5793
  170MOL0     C22852   8.923   6.537   5.375 -0.7384 -0.4886 -0.3793
  170MOL0     C22853   9.072   6.567   5.327 -0.0982  0.6166  0.7235
  170MOL0     C22854   9.142   6.422   5.306 -1.3202  0.0406  0.0774
  170MOL0     C22855   9.080   6.354   5.183 -0.1590 -0.8127  0.6174
  170MOL0     C22856   9.169   6.237   5.135 -1.6295  0.6615  0.4189
  170MOL0     C22857   9.291   6.269   5.051  0.2519 -0.0470 -0.1254
  170MOL0     C22858   9.388   6.146   5.032 -0.8752  0.3942 -0.4178
  170MOL0     C22859   9.493   6.184   4.925  0.1641  0.4011 -0.5056
  170MOL0    Cl22860   9.619   6.066   4.906 -0.4078  0.3334  0.5982
  170MOL0     C22861   8.719   6.458   5.589  0.3990 -0.2431 -0.4720
  170MOL0     C22862   8.668   6.476   5.720 -0.4634 -0.1325 -0.5672
  170MOL0     O22863   8.811   6.638   6.027 -0.6764  0.1060 -0.2938
  170MOL0     C22864   8.612   6.442   6.231 -0.8949 -0.4931 -0.4343
  170MOL0     C22865   8.545   6.443   6.357  0.2492  0.1500 -0.0448
  170MOL0     N22866   8.043   6.223   6.799 -0.6972  1.1108  0.0707
  170MOL0     N22867   7.918   6.269   6.791  0.3743 -0.0820  0.0470
  170MOL0     C22868   7.824   7.418   6.505  0.6323  0.3664 -0.8996
  170MOL0     C22869   7.874   7.524   6.433 -0.0665  0.2256  0.1975
  170MOL0     C22870   8.084   7.790   6.147 -0.0927  0.6999  0.3483
  170MOL0     C22871   8.216   7.832   6.185 -0.2866  0.1578 -0.7014
  170MOL0     C22872   8.286   7.926   6.111  0.5777  0.1927 -0.0488
  170MOL0     C22873   8.228   7.993   5.998  0.2233  0.3504 -0.1672
  170MOL0     O22874   8.296   8.102   5.945  0.4711 -0.6969  0.2170
  170MOL0     C22875   8.256   8.160   5.821 -0.9287 -0.9661 -0.3562
  170MOL0     C22876   8.304   8.084   5.698  0.1119  0.5760 -0.2426
  170MOL0     C22877   8.453   8.040   5.711  0.4185  0.1093 -0.7326
  170MOL0     C22878   8.498   7.976   5.590 -0.6423  0.1542  1.0158
  170MOL0     C22879   8.645   8.007   5.567 -0.6228  1.0983  0.0267
  170MOL0     C22880   8.762   8.023   5.561  0.3437 -0.5455 -0.4232
  170MOL0     C22881   8.092   7.963   5.968 -0.5713 -0.1895  0.1641
  170MOL0     C22882   8.022   7.854   6.042 -0.4901 -0.6609  0.6526
  170MOL0     H22883   8.202   7.454   6.458  0.0185 -0.3842  1.3399
  170MOL0     H22884   8.101   7.279   6.617  0.9135  0.4192 -1.6785
  170MOL0     H22885   7.991   7.066   6.626 -0.7105  0.5049 -2.1263
  170MOL0     H22886   7.983   7.156   6.771  2.5845 -1.8785 -1.1165
  170MOL0     H22887   7.893   6.965   6.854 -0.2338  0.7991  0.9138
  170MOL0     H22888   7.746   7.039   6.811  0.8282  5.1388  0.1294
  170MOL0     H22889   7.698   6.855   6.678 -0.0368 -1.6681  0.0422
  170MOL0     H22890   7.796   6.932   6.557  0.8569  1.5067  0.7696
  170MOL0     H22891   8.006   6.807   6.596  1.5434 -1.9441 -0.6990
  170MOL0     H22892   7.926   6.731   6.727  0.9941 -3.4105 -2.0623
  170MOL0     H22893   7.787   6.688   6.466  1.5161  1.1129 -0.4635
  170MOL0     H22894   7.948   6.625   6.488  0.1637 -0.7197  0.9273
  170MOL0     H22895   7.835   6.506   6.708  0.9495 -0.4470  0.0147
  170MOL0     H22896   7.687   6.584   6.659  0.0977 -0.7039  2.3226
  170MOL0     H22897   7.659   6.440   6.490 -1.8221  0.2898  1.8499
  170MOL0     H22898   7.845   6.411   6.473  0.7715 -1.2544  1.3696
  170MOL0     H22899   7.679   6.220   6.567  1.7284  0.3285 -2.8983
  170MOL0     H22900   7.684   6.317   6.714 -1.5915 -1.5327  0.4935
  170MOL0     H22901   7.970   6.164   6.487 -0.9107 -1.6790  0.9663
  170MOL0     H22902   8.244   6.074   6.731  1.9658  0.0219 -0.9686
  170MOL0     H22903   8.243   6.083   6.559  1.5255 -3.0638  2.7788
  170MOL0     H22904   8.416   6.235   6.673 -0.3674  1.1795  2.5780
  170MOL0     H22905   8.300   6.303   6.771  1.0505 -1.4992  0.9605
  170MOL0     H22906   8.201   6.432   6.597 -0.7127 -0.9289 -0.6682
  170MOL0     H22907   8.316   6.373   6.468  1.1168 -0.7156  0.3718
  170MOL0     H22908   8.517   6.433   6.626  0.0872 -1.2614  0.1188
  170MOL0     H22909   8.397   6.520   6.715  4.2478 -0.3569  0.9557
  170MOL0     H22910   8.436   6.763   6.357 -0.7594  0.9468 -0.6264
  170MOL0     H22911   8.515   6.882   6.134  2.1435  1.5169  0.5627
  170MOL0     H22912   8.683   6.855   6.185  1.9610  1.3201 -2.5506
  170MOL0     H22913   8.614   6.809   6.026 -2.0300 -0.2590 -0.0688
  170MOL0     H22914   8.926   6.400   5.914  0.0104  1.2242 -0.1352
  170MOL0     H22915   9.034   6.378   5.665  1.0383  3.5215  1.0775
  170MOL0     H22916   8.875   6.532   5.277 -0.9379  1.1849 -0.3836
  170MOL0     H22917   8.887   6.628   5.423  3.2096  2.6184 -2.7396
  170MOL0     H22918   9.062   6.626   5.235  1.1752  2.0155  1.4478
  170MOL0     H22919   9.135   6.623   5.396 -0.3715  2.0268 -0.1269
  170MOL0     H22920   9.137   6.364   5.398  1.2922  3.4174  2.6694
  170MOL0     H22921   9.246   6.439   5.275 -1.3189 -3.9118 -2.7272
  170MOL0     H22922   8.977   6.323   5.199 -0.5666  0.7323  1.1043
  170MOL0     H22923   9.079   6.427   5.101  0.2997 -1.4471  0.0325
  170MOL0     H22924   9.104   6.166   5.084  1.1766  0.5469 -3.4696
  170MOL0     H22925   9.198   6.182   5.224  0.8653  3.8328  1.7955
  170MOL0     H22926   9.254   6.299   4.953 -1.1181  1.6364  0.8642
  170MOL0     H22927   9.361   6.340   5.095  2.5437 -3.6155  2.6075
  170MOL0     H22928   9.337   6.054   5.004 -0.8821  0.6185 -1.1672
  170MOL0     H22929   9.446   6.141   5.125 -1.7521  2.7852  0.3440
  170MOL0     H22930   9.532   6.283   4.953 -3.6254  1.5464  1.4142
  170MOL0     H22931   9.441   6.200   4.830 -0.6660  1.8817  0.1614
  170MOL0     H22932   8.676   6.489   5.494  0.5637  1.3695 -0.0471
  170MOL0     H22933   8.565   6.510   5.710 -0.4553 -0.4342 -1.7780
  170MOL0     H22934   8.644   6.345   6.194  1.8148  1.2379 -3.0774
  170MOL0     H22935   8.540   6.349   6.411  0.9895  0.5858  0.7923
  170MOL0     H22936   7.718   7.407   6.526  0.8120  1.7248  1.0153
  170MOL0     H22937   7.798   7.590   6.390 -4.1865 -2.2594  2.9516
  170MOL0     H22938   8.264   7.792   6.274  0.7750 -0.0133 -1.3426
  170MOL0     H22939   8.390   7.953   6.127 -0.2512  3.5803  0.4903
  170MOL0     H22940   8.155   8.202   5.821 -1.4579 -2.0908  1.9539
  170MOL0     H22941   8.325   8.245   5.810 -0.7073 -1.4028 -3.0018
  170MOL0     H22942   8.301   8.148   5.609 -2.6021  0.9481  0.0438
  170MOL0     H22943   8.249   7.992   5.681  1.4097 -0.0994 -0.9955
  170MOL0     H22944   8.480   7.979   5.798  0.3915 -0.3986 -1.0766
  170MOL0     H22945   8.518   8.127   5.721  2.0352 -0.9707 -1.3744
  170MOL0     H22946   8.449   8.009   5.498  0.1515 -1.0726  0.1216
  170MOL0     H22947   8.480   7.868   5.592  0.2693 -0.0380 -0.0941
  170MOL0     H22948   8.868   8.044   5.562 -0.0825  1.9619 -0.7391
  170MOL0     H22949   8.042   8.023   5.892  5.1768  2.7399 -1.8544
  170MOL0     H22950   7.927   7.816   6.004 -0.2769 -0.6238  0.0708
  171MOL0     O22951   5.768  10.096   2.905 -0.7501  0.0792 -0.3520
  171MOL0     C22952   5.833  10.036   2.992  0.6923  0.9469 -0.7084
  171MOL0     O22953   5.834   9.895   3.007 -0.9554  0.5710 -0.2912
  171MOL0     C22954   5.772   9.802   2.929  0.3339 -0.4361 -0.0830
  171MOL0     C22955   5.630   9.811   2.918  0.7160 -0.7810 -0.2519
  171MOL0     C22956   5.553   9.725   2.845 -0.5621 -0.1190 -0.1535
  171MOL0     C22957   5.625   9.621   2.769  0.1660  0.0806 -0.0829
  171MOL0     O22958   5.544   9.554   2.678  0.3645 -0.1614  0.1279
  171MOL0     C22959   5.567   9.417   2.653 -0.5484 -1.0078  0.0863
  171MOL0     C22960   5.452   9.374   2.564 -0.4934  0.2521 -0.4407
  171MOL0     C22961   5.483   9.429   2.420  0.6690 -0.2302  0.8900
  171MOL0     C22962   5.347   9.444   2.341 -0.9153 -0.2527  0.0694
  171MOL0     C22963   5.253   9.547   2.404 -0.0610 -0.9577 -1.0021
  171MOL0     C22964   5.164   9.604   2.313 -0.3874  0.0105  0.5164
  171MOL0     C22965   5.102   9.735   2.375  0.8075 -1.2422  0.6299
  171MOL0     C22966   4.996   9.712   2.484  0.4625 -0.7877 -0.0281
  171MOL0     N22967   4.903   9.832   2.508 -0.3468  0.5701 -0.1381
  171MOL0     C22968   4.764   9.827   2.490 -0.5694  1.1454  0.0158
  171MOL0     C22969   4.723   9.945   2.540  0.7236 -0.1518  0.9005
  171MOL0     C22970   4.575   9.981   2.538 -0.7523  0.3765 -0.3711
  171MOL0     C22971   4.486   9.902   2.639  0.4642 -0.0662  0.6571
  171MOL0     C22972   4.538   9.878   2.782 -0.3853 -0.3147 -0.0804
  171MOL0     C22973   4.538   9.996   2.876 -0.0689 -0.6385 -0.5253
  171MOL0     O22974   4.645  10.003   2.960  0.0383  0.2720 -0.3902
  171MOL0     C22975   4.626  10.084   3.063 -0.9525  0.1060 -0.4601
  171MOL0     C22976   4.542  10.195   3.070  0.4609  0.0884 -0.5284
  171MOL0     C22977   4.544  10.278   3.182  0.2664  0.1157 -0.5754
  171MOL0     C22978   4.457  10.405   3.171  0.5143 -0.6875 -0.4577
  171MOL0     C22979   4.631  10.258   3.290 -0.3074 -0.6630 -0.5314
  171MOL0     C22980   4.659  10.346   3.402  0.3801  0.1791 -0.1547
  171MOL0     O22981   4.634  10.480   3.397 -0.0824 -1.1067 -0.2279
  171MOL0     C22982   4.646  10.555   3.505  0.1108 -0.0574 -0.1541
  171MOL0     C22983   4.569  10.526   3.618  0.1670  0.2646 -0.3337
  171MOL0     C22984   4.589  10.586   3.740 -0.0166  0.1115  0.1249
  171MOL0     C22985   4.690  10.677   3.756 -0.2849 -0.9886  0.5530
  171MOL0     O22986   4.720  10.744   3.872  0.0709  0.1020 -0.6241
  171MOL0     C22987   4.789  10.662   3.971 -0.4028  0.0895  0.7483
  171MOL0     C22988   4.894  10.747   4.036 -0.6103 -1.0121  0.2510
  171MOL0     C22989   5.019  10.728   3.947 -0.8705  0.0363 -0.0596
  171MOL0     C22990   5.114  10.855   3.971  0.5136 -0.4538  0.7788
  171MOL0     C22991   5.067  10.974   3.895 -0.1761  0.1578  0.2597
  171MOL0     C22992   5.184  11.072   3.868 -0.0887  0.6631  0.7250
  171MOL0     C22993   5.144  11.179   3.767  0.2996 -1.4780 -0.5552
  171MOL0     C22994   5.254  11.283   3.753  0.7974  0.6205  0.0162
  171MOL0    Cl22995   5.254  11.386   3.903 -0.4068 -0.2148 -0.0663
  171MOL0     C22996   4.775  10.703   3.646 -0.1822 -1.1346  0.0904
  171MOL0     C22997   4.753  10.654   3.512 -0.9439 -0.4699 -0.2722
  171MOL0     O22998   4.690  10.280   3.503 -0.2219  0.0473  0.7369
  171MOL0     C22999   4.713  10.144   3.278 -0.7806 -0.1708  0.1726
  171MOL0     C23000   4.718  10.063   3.169  0.4293  1.3796 -0.1106
  171MOL0     N23001   4.833  10.025   2.578 -0.1469  0.3744 -0.2969
  171MOL0     N23002   4.934   9.953   2.567 -0.4225 -0.5748 -0.1458
  171MOL0     C23003   5.763   9.611   2.779 -0.3659 -0.2708 -0.1341
  171MOL0     C23004   5.840   9.700   2.863  0.7460  0.0895  0.3279
  171MOL0     C23005   5.890  10.123   3.097 -0.0487  0.0038  0.2006
  171MOL0     C23006   5.942  10.243   3.050  0.2037 -0.2216 -0.2899
  171MOL0     C23007   5.998  10.341   3.137  0.1965 -0.0489  0.5848
  171MOL0     C23008   6.017  10.310   3.268 -0.6833 -0.5442  0.4624
  171MOL0     O23009   6.093  10.400   3.331  0.3932 -0.9594  0.0728
  171MOL0     C23010   6.048  10.488   3.436  0.2529 -0.5494  0.0276
  171MOL0     C23011   6.129  10.456   3.566 -0.2724  0.1237 -0.6713
  171MOL0     C23012   6.270  10.486   3.539  1.2820  0.1491  0.0769
  171MOL0     C23013   6.355  10.454   3.656  0.0857 -0.1280 -0.5413
  171MOL0     C23014   6.499  10.470   3.626 -0.1658 -0.6256  0.4265
  171MOL0     C23015   6.616  10.474   3.596  0.4390  0.3427  0.1299
  171MOL0     C23016   5.967  10.190   3.320  0.2617 -0.3686 -0.5482
  171MOL0     C23017   5.895  10.102   3.235 -0.3821  1.2479 -0.3921
  171MOL0     H23018   5.589   9.902   2.961  2.4981  0.9589 -1.9882
  171MOL0     H23019   5.451   9.760   2.837  0.3425  3.7188  2.2861
  171MOL0     H23020   5.664   9.397   2.605  2.1304  1.1196  3.9631
  171MOL0     H23021   5.558   9.354   2.742  1.1031  1.6104  2.3064
  171MOL0     H23022   5.447   9.265   2.560  2.7990 -0.0420  0.1159
  171MOL0     H23023   5.365   9.423   2.608 -0.4624 -0.0615 -0.0326
  171MOL0     H23024   5.526   9.530   2.418  2.4153 -0.9321  1.2975
  171MOL0     H23025   5.561   9.367   2.375 -1.3910 -1.1585 -1.6931
  171MOL0     H23026   5.369   9.470   2.237 -0.0601 -1.1478  0.0082
  171MOL0     H23027   5.301   9.345   2.348  0.3368 -1.1845 -3.1785
  171MOL0     H23028   5.199   9.505   2.490 -0.9285 -0.8679 -1.4890
  171MOL0     H23029   5.313   9.625   2.451 -0.6350 -1.4659  0.6299
  171MOL0     H23030   5.214   9.635   2.221  0.3084 -1.6622  0.3050
  171MOL0     H23031   5.087   9.539   2.269  0.9057  1.0249 -3.7537
  171MOL0     H23032   5.178   9.801   2.419 -0.7144  1.5992 -0.7616
  171MOL0     H23033   5.059   9.791   2.292 -2.9903 -3.0316  1.1851
  171MOL0     H23034   5.046   9.685   2.578 -0.7118 -0.8605  0.5896
  171MOL0     H23035   4.938   9.622   2.467 -0.5043 -0.6322  2.1286
  171MOL0     H23036   4.702   9.745   2.457 -0.8431  1.6078 -0.6463
  171MOL0     H23037   4.563  10.089   2.544  1.9945  0.7238  0.1236
  171MOL0     H23038   4.541   9.940   2.442  1.1663 -2.6855  0.1304
  171MOL0     H23039   4.480   9.801   2.599 -2.0021 -0.2587  1.3989
  171MOL0     H23040   4.383   9.939   2.646  0.8631  0.7787  3.4686
  171MOL0     H23041   4.631   9.823   2.766 -0.1533  0.5933 -2.3057
  171MOL0     H23042   4.477   9.801   2.830 -0.2161 -0.5882 -0.2981
  171MOL0     H23043   4.449   9.985   2.940  0.6656 -1.7400  0.3429
  171MOL0     H23044   4.532  10.086   2.813 -0.4760 -0.1106  0.2439
  171MOL0     H23045   4.482  10.217   2.982 -0.4150 -0.8303 -0.1796
  171MOL0     H23046   4.516  10.483   3.122 -1.5131  0.9192 -0.4690
  171MOL0     H23047   4.366  10.393   3.111 -2.1564  1.0001  2.8790
  171MOL0     H23048   4.420  10.446   3.265  0.0357 -0.6600 -0.6548
  171MOL0     H23049   4.484  10.460   3.608 -0.1521  0.8701 -1.8277
  171MOL0     H23050   4.523  10.552   3.820  0.8972 -4.7228 -0.8398
  171MOL0     H23051   4.719  10.632   4.049 -2.0454 -1.0731 -1.0728
  171MOL0     H23052   4.824  10.564   3.936 -2.0053  0.1786 -1.3073
  171MOL0     H23053   4.874  10.854   4.044 -2.9778 -1.5457  2.6261
  171MOL0     H23054   4.917  10.705   4.134 -4.2937  0.7884  2.0624
  171MOL0     H23055   4.999  10.730   3.840 -2.8975  3.1370  0.2547
  171MOL0     H23056   5.069  10.632   3.958  0.0557  0.5605  0.4303
  171MOL0     H23057   5.114  10.889   4.075 -1.8016  2.2872  0.0267
  171MOL0     H23058   5.210  10.814   3.938 -1.6153 -2.2572 -4.1630
  171MOL0     H23059   5.001  11.034   3.958  2.1252  0.9358  2.0796
  171MOL0     H23060   5.034  10.942   3.796  1.4520 -1.3463  0.1409
  171MOL0     H23061   5.205  11.120   3.964  1.5550  0.3614  0.5407
  171MOL0     H23062   5.267  11.009   3.834 -1.1684 -3.5420  4.8377
  171MOL0     H23063   5.052  11.227   3.802  1.1141  0.5132 -1.0733
  171MOL0     H23064   5.135  11.139   3.665  0.4406 -0.5338 -0.9465
  171MOL0     H23065   5.232  11.354   3.673 -1.1277 -2.4880 -2.4599
  171MOL0     H23066   5.348  11.236   3.723  1.2990 -0.5943  3.0563
  171MOL0     H23067   4.855  10.775   3.659 -0.9744 -0.1356 -0.3500
  171MOL0     H23068   4.823  10.668   3.430  0.7876 -0.9740  1.0446
  171MOL0     H23069   4.789  10.134   3.355  0.8637  1.1331 -1.2179
  171MOL0     H23070   4.783   9.977   3.178 -0.0873  1.0045  0.1281
  171MOL0     H23071   5.808   9.531   2.721  1.5380 -0.9793  2.1410
  171MOL0     H23072   5.948   9.706   2.855  0.7743 -2.1352 -4.0669
  171MOL0     H23073   5.969  10.264   2.946  2.0519 -0.0130  0.1951
  171MOL0     H23074   6.043  10.427   3.089  0.0015 -0.7937 -1.0154
  171MOL0     H23075   6.052  10.595   3.410  2.2157 -0.4800  0.4560
  171MOL0     H23076   5.940  10.469   3.442  0.5786 -2.2094  1.5240
  171MOL0     H23077   6.117  10.356   3.607  1.7855  0.8557  1.9744
  171MOL0     H23078   6.087  10.522   3.642 -0.1492  1.0281 -1.3741
  171MOL0     H23079   6.272  10.591   3.509 -2.3235  0.0996 -0.7897
  171MOL0     H23080   6.297  10.425   3.453 -2.2922 -0.2087 -0.9267
  171MOL0     H23081   6.349  10.349   3.684  1.6940 -0.0393  0.2817
  171MOL0     H23082   6.342  10.519   3.743  0.8073 -1.9948  1.0406
  171MOL0     H23083   6.715  10.486   3.556  1.8488 -1.3437  2.8011
  171MOL0     H23084   5.967  10.182   3.428 -2.8255 -0.9036 -0.5049
  171MOL0     H23085   5.851  10.017   3.287 -1.8507  3.9398  3.2146
  172MOL0     O23086   5.632   3.166  11.340  0.1550 -0.1774  0.3728
  172MOL0     C23087   5.595   3.065  11.399  0.8345 -0.3796  0.1164
  172MOL0     O23088   5.469   3.035  11.428  0.0976  0.1769 -0.8540
  172MOL0     C23089   5.387   3.131  11.481  1.3862  0.4623 -1.0810
  172MOL0     C23090   5.426   3.256  11.528 -0.6779  0.5245  0.0073
  172MOL0     C23091   5.338   3.346  11.578 -0.7366 -0.3467  0.1425
  172MOL0     C23092   5.208   3.325  11.576  0.0282 -0.6938 -0.8014
  172MOL0     O23093   5.112   3.411  11.631  0.0331 -0.0921  0.3146
  172MOL0     C23094   5.138   3.550  11.576 -0.3234  0.3364  0.1916
  172MOL0     C23095   5.018   3.638  11.602  0.1891 -0.3065 -0.4841
  172MOL0     C23096   4.887   3.602  11.536 -0.1165  0.6173 -0.0094
  172MOL0     C23097   4.801   3.721  11.523 -0.2279  0.0514  0.9632
  172MOL0     C23098   4.770   3.801  11.649 -0.1379  0.5968  0.7619
  172MOL0     C23099   4.646   3.884  11.637  0.6642 -1.3119  0.3636
  172MOL0     C23100   4.608   3.944  11.768 -0.0288 -0.3584  0.2164
  172MOL0     C23101   4.514   4.063  11.761  0.2188  0.2372  0.7201
  172MOL0     N23102   4.476   4.114  11.893 -0.5053  0.4432  0.2556
  172MOL0     C23103   4.483   4.245  11.936  0.5653  0.8841 -0.6171
  172MOL0     C23104   4.413   4.255  12.055  0.2519 -0.3588 -0.3327
  172MOL0     C23105   4.374   4.376  12.137  0.5408  0.0348  0.3370
  172MOL0     C23106   4.415   4.352  12.282 -0.3222 -0.3922  0.9793
  172MOL0     C23107   4.560   4.361  12.296  0.2245 -0.5769 -1.2012
  172MOL0     C23108   4.612   4.381  12.435  0.5411  1.3163 -0.7458
  172MOL0     O23109   4.661   4.500  12.475 -0.3319 -0.0326 -0.1140
  172MOL0     C23110   4.781   4.542  12.422 -0.2196  0.4114  0.0809
  172MOL0     C23111   4.808   4.681  12.431  0.8559 -0.0413 -0.4424
  172MOL0     C23112   4.929   4.738  12.389 -0.2817 -0.2233  0.1765
  172MOL0     C23113   4.947   4.896  12.406 -0.4534 -0.4411 -0.4234
  172MOL0     C23114   5.021   4.661  12.308  0.5040 -0.0825 -0.1467
  172MOL0     C23115   5.136   4.718  12.235  0.1046  0.1890 -0.4495
  172MOL0     O23116   5.167   4.654  12.126  0.5377  0.2662  0.2978
  172MOL0     C23117   5.274   4.696  12.053  0.0932 -1.5324 -0.1474
  172MOL0     C23118   5.306   4.834  12.025 -0.6105 -0.3454  0.7241
  172MOL0     C23119   5.430   4.872  11.963  0.0261 -0.5659 -0.0901
  172MOL0     C23120   5.518   4.782  11.925 -0.7188  0.0486 -1.0408
  172MOL0     O23121   5.640   4.817  11.877  0.3135 -0.3592 -0.4440
  172MOL0     C23122   5.638   4.844  11.737  0.0183  0.2014 -0.4207
  172MOL0     C23123   5.570   4.738  11.651 -0.0500 -0.3703 -0.7096
  172MOL0     C23124   5.657   4.615  11.642 -0.4402 -0.1930 -0.0122
  172MOL0     C23125   5.576   4.479  11.625 -0.3147 -0.2303  0.0973
  172MOL0     C23126   5.671   4.356  11.626  0.6149  0.0516  0.3997
  172MOL0     C23127   5.588   4.231  11.621  1.2160 -0.2234  0.2045
  172MOL0     C23128   5.527   4.191  11.750  0.0033  0.3108  0.4729
  172MOL0     C23129   5.525   4.038  11.786  0.6015  0.6905  0.0965
  172MOL0    Cl23130   5.400   3.968  11.679 -0.2287  0.2130 -0.1920
  172MOL0     C23131   5.485   4.652  11.948  0.5510  0.4807 -0.8777
  172MOL0     C23132   5.366   4.607  12.008  0.2114  0.0540 -0.3297
  172MOL0     O23133   5.208   4.802  12.303  0.1007  0.4775  0.2016
  172MOL0     C23134   4.985   4.522  12.296 -0.5550  0.3115 -0.3008
  172MOL0     C23135   4.870   4.463  12.351 -0.2065 -0.6246  0.0061
  172MOL0     N23136   4.359   4.126  12.072  0.4035  0.4094  0.2413
  172MOL0     N23137   4.389   4.057  11.974 -0.2184 -0.2736  0.5668
  172MOL0     C23138   5.159   3.198  11.539 -0.2522 -0.0419 -0.6997
  172MOL0     C23139   5.248   3.096  11.488 -0.1711  0.8598  1.1564
  172MOL0     C23140   5.705   2.977  11.439  0.2021 -0.4653  0.1366
  172MOL0     C23141   5.840   3.019  11.431  0.3849  0.1473  0.3306
  172MOL0     C23142   5.950   2.940  11.465 -0.3108  0.2802 -0.4128
  172MOL0     C23143   5.930   2.809  11.511  0.4156 -0.3345  0.0962
  172MOL0     O23144   6.032   2.721  11.534 -0.7492 -0.8456  0.3531
  172MOL0     C23145   6.107   2.763  11.653 -0.5177  0.1152  0.3878
  172MOL0     C23146   6.027   2.765  11.780  0.6998 -0.3869 -0.3954
  172MOL0     C23147   5.983   2.619  11.819 -0.2905 -0.6728  0.4470
  172MOL0     C23148   5.904   2.612  11.954 -0.3090 -0.4938  0.2296
  172MOL0     C23149   5.771   2.673  11.946  0.0809  0.4104 -0.3459
  172MOL0     C23150   5.649   2.710  11.941 -1.3107  0.3020 -0.3882
  172MOL0     C23151   5.797   2.768  11.524  0.9359  0.3233 -0.6567
  172MOL0     C23152   5.684   2.850  11.500  0.4397 -0.3883  0.6715
  172MOL0     H23153   5.529   3.291  11.526 -1.2766  2.4275  0.7245
  172MOL0     H23154   5.380   3.436  11.622  0.5114 -0.8664  0.0632
  172MOL0     H23155   5.219   3.601  11.628  0.6412  0.1768 -1.1165
  172MOL0     H23156   5.165   3.563  11.471  3.5240  1.6243  1.1946
  172MOL0     H23157   5.021   3.652  11.711  2.0776 -2.1736 -0.2216
  172MOL0     H23158   5.045   3.731  11.553  0.2597  0.4531  0.9318
  172MOL0     H23159   4.896   3.559  11.436  2.8910 -0.2618  0.5311
  172MOL0     H23160   4.842   3.522  11.595  2.3270 -3.3227 -2.9443
  172MOL0     H23161   4.837   3.798  11.454  0.7227 -1.1921  0.0419
  172MOL0     H23162   4.706   3.687  11.481  2.3303 -2.2226 -3.8496
  172MOL0     H23163   4.748   3.724  11.724 -1.2040  0.4730  0.3356
  172MOL0     H23164   4.859   3.856  11.682  1.6445 -0.5007 -1.8831
  172MOL0     H23165   4.667   3.959  11.561 -0.9504  0.1056  1.2298
  172MOL0     H23166   4.560   3.828  11.597 -1.9517  1.0255  2.3253
  172MOL0     H23167   4.555   3.869  11.828 -3.0285  0.5257 -1.1300
  172MOL0     H23168   4.702   3.979  11.813 -0.8098  3.1365 -0.5128
  172MOL0     H23169   4.421   4.044  11.706  0.5697  2.6111 -0.8468
  172MOL0     H23170   4.557   4.148  11.707 -0.9161  1.5009  1.7233
  172MOL0     H23171   4.540   4.316  11.877  1.0100  1.6637  0.6985
  172MOL0     H23172   4.404   4.469  12.087 -2.2649 -0.7053 -3.1388
  172MOL0     H23173   4.266   4.389  12.135  0.0987 -2.3290  3.1829
  172MOL0     H23174   4.402   4.246  12.307  0.9626 -0.3803  1.7702
  172MOL0     H23175   4.357   4.418  12.347 -1.0674  2.3646 -2.2138
  172MOL0     H23176   4.595   4.448  12.239 -1.2471  1.6709  1.1286
  172MOL0     H23177   4.617   4.284  12.244  2.0918  1.1857 -1.9064
  172MOL0     H23178   4.685   4.302  12.457 -0.2787  0.6235 -0.4629
  172MOL0     H23179   4.533   4.359  12.508  2.2258 -0.4915  0.6738
  172MOL0     H23180   4.734   4.747  12.475 -0.0686  1.2840 -3.6839
  172MOL0     H23181   5.010   4.917  12.493  1.3981 -0.7574 -1.6340
  172MOL0     H23182   4.999   4.930  12.316  2.1226 -2.7348  0.0550
  172MOL0     H23183   4.852   4.942  12.436 -0.1551 -1.4424  2.3335
  172MOL0     H23184   5.241   4.919  12.044  2.0080  1.7723  0.7004
  172MOL0     H23185   5.456   4.973  11.934  1.5303 -1.6222 -2.8908
  172MOL0     H23186   5.598   4.945  11.724  0.6528  1.0254  3.1242
  172MOL0     H23187   5.738   4.854  11.694  2.3407  2.1080  4.6799
  172MOL0     H23188   5.475   4.700  11.691 -0.5535  1.2743 -0.2467
  172MOL0     H23189   5.541   4.784  11.556  2.6546  2.3420 -0.3715
  172MOL0     H23190   5.715   4.615  11.735 -0.5043  0.5967  0.0276
  172MOL0     H23191   5.743   4.614  11.575 -0.4180 -3.1757 -0.1084
  172MOL0     H23192   5.488   4.482  11.691 -1.0781  1.6247 -0.9353
  172MOL0     H23193   5.526   4.482  11.528  0.7779 -2.0775 -0.5705
  172MOL0     H23194   5.738   4.347  11.712  1.0859 -1.4292 -0.1009
  172MOL0     H23195   5.729   4.355  11.533  0.8166 -2.2978  0.4963
  172MOL0     H23196   5.509   4.245  11.546 -1.5366  0.5483  3.0431
  172MOL0     H23197   5.657   4.153  11.589  2.5245  2.5863 -5.0724
  172MOL0     H23198   5.424   4.229  11.751 -0.6188 -1.2514 -0.2510
  172MOL0     H23199   5.588   4.243  11.824  0.6470  3.3628 -2.0028
  172MOL0     H23200   5.494   4.028  11.891  2.9798 -0.9662  0.7155
  172MOL0     H23201   5.621   3.992  11.763  0.3719  0.9033 -1.3831
  172MOL0     H23202   5.549   4.569  11.919  1.9710  1.6566 -1.2212
  172MOL0     H23203   5.351   4.499  12.007 -0.3961  0.1158  1.0141
  172MOL0     H23204   5.056   4.471  12.231 -1.9088  1.0843 -2.5013
  172MOL0     H23205   4.861   4.358  12.324  2.7420 -0.3799 -2.4905
  172MOL0     H23206   5.053   3.180  11.552 -0.7475  1.3829 -2.3883
  172MOL0     H23207   5.215   3.007  11.435  0.6590  3.1167 -3.7562
  172MOL0     H23208   5.860   3.122  11.404 -0.1735 -0.0326 -0.7970
  172MOL0     H23209   6.050   2.982  11.462  0.1800 -0.7909  0.4301
  172MOL0     H23210   6.181   2.684  11.671  0.0253  0.6204  0.3936
  172MOL0     H23211   6.163   2.856  11.636 -2.1692  0.6376 -3.1028
  172MOL0     H23212   5.940   2.828  11.761  0.1099 -2.0820 -4.1587
  172MOL0     H23213   6.086   2.805  11.863  2.3016  2.2509 -2.6729
  172MOL0     H23214   6.070   2.557  11.843 -1.1733 -2.0759  0.1955
  172MOL0     H23215   5.935   2.570  11.733  2.9104  0.9143 -2.4730
  172MOL0     H23216   5.966   2.664  12.027 -0.1444  1.1600 -1.0292
  172MOL0     H23217   5.894   2.509  11.989  0.9122 -1.2626 -1.5493
  172MOL0     H23218   5.551   2.752  11.930 -1.3222  0.5906  0.6506
  172MOL0     H23219   5.787   2.662  11.544  3.0959 -0.3374 -2.5813
  172MOL0     H23220   5.588   2.803  11.520 -0.3515  0.0504 -1.7660
  173MOL0     O23221   1.039   7.600   5.324  0.2167 -0.1318  0.2903
  173MOL0     C23222   1.115   7.551   5.405 -0.9860 -0.1741  0.4604
  173MOL0     O23223   1.108   7.412   5.445  0.5185 -0.0002 -0.0107
  173MOL0     C23224   1.008   7.328   5.413  0.7247 -0.0859 -0.1491
  173MOL0     C23225   1.025   7.214   5.339  0.0057 -0.3804  0.1168
  173MOL0     C23226   0.912   7.133   5.297  0.2171  0.9974 -0.2953
  173MOL0     C23227   0.787   7.169   5.344  0.2193  0.0258  1.2356
  173MOL0     O23228   0.687   7.088   5.300  0.7286 -0.6066  0.4989
  173MOL0     C23229   0.555   7.147   5.282 -0.3703 -0.3146 -0.2616
  173MOL0     C23230   0.457   7.053   5.199 -0.1301 -0.0142 -0.6058
  173MOL0     C23231   0.501   7.045   5.047 -0.2064 -0.3721 -0.6660
  173MOL0     C23232   0.399   7.096   4.941 -0.1908 -0.9626  0.0066
  173MOL0     C23233   0.450   7.078   4.802  0.9546  0.0926  0.4896
  173MOL0     C23234   0.598   7.093   4.782  0.1176 -0.3083 -0.0135
  173MOL0     C23235   0.640   7.048   4.631  0.0859 -0.9631 -0.4859
  173MOL0     C23236   0.605   6.906   4.592 -0.5544 -0.1949  0.1312
  173MOL0     N23237   0.703   6.810   4.643  0.0643  1.1400 -0.7644
  173MOL0     C23238   0.800   6.746   4.570 -0.5264  0.7483  0.8028
  173MOL0     C23239   0.868   6.659   4.657 -0.2533  0.6564  0.6099
  173MOL0     C23240   1.002   6.592   4.633 -0.2197  0.8040  0.3171
  173MOL0     C23241   1.107   6.687   4.566 -0.6721 -0.5828  0.2616
  173MOL0     C23242   1.166   6.795   4.656  0.3712  0.2959  1.4980
  173MOL0     C23243   1.261   6.877   4.572  0.0331  0.1040  0.0379
  173MOL0     O23244   1.350   6.930   4.663  0.8887  0.4636 -0.7601
  173MOL0     C23245   1.458   7.003   4.625  0.0501  0.8022  0.1897
  173MOL0     C23246   1.473   7.038   4.495 -0.1974  0.1591 -0.9210
  173MOL0     C23247   1.591   7.105   4.458 -0.2537 -0.1583  0.0430
  173MOL0     C23248   1.625   7.112   4.317  0.1663 -0.0724 -0.3663
  173MOL0     C23249   1.677   7.151   4.562 -0.4805 -0.0743 -0.3041
  173MOL0     C23250   1.815   7.199   4.541 -0.5221 -0.1572  0.0334
  173MOL0     O23251   1.911   7.109   4.513 -0.6326 -0.1236 -0.0285
  173MOL0     C23252   2.040   7.158   4.481  0.1009  0.8806 -0.3202
  173MOL0     C23253   2.122   7.228   4.569 -0.2475 -1.2550 -0.0498
  173MOL0     C23254   2.242   7.294   4.528 -0.7400  0.9403  0.4496
  173MOL0     C23255   2.272   7.274   4.397 -0.6216 -0.1164 -1.1016
  173MOL0     O23256   2.393   7.339   4.359 -0.0766  0.0132 -0.3230
  173MOL0     C23257   2.448   7.304   4.228 -0.5446  0.2804  0.0672
  173MOL0     C23258   2.588   7.374   4.210  0.2305  0.3192 -0.3550
  173MOL0     C23259   2.636   7.356   4.067 -0.2692 -0.2913  0.9404
  173MOL0     C23260   2.774   7.422   4.033 -0.4775  0.3593 -0.1962
  173MOL0     C23261   2.777   7.578   4.030 -0.0412 -0.6009  0.0120
  173MOL0     C23262   2.914   7.615   3.972 -0.1420 -0.5855 -0.1526
  173MOL0     C23263   2.916   7.588   3.815 -0.0536  0.4692  0.6017
  173MOL0     C23264   3.058   7.562   3.762 -0.1635  0.8571  0.5496
  173MOL0    Cl23265   3.106   7.400   3.811 -0.3024  0.0100  0.0683
  173MOL0     C23266   2.194   7.189   4.314 -0.4957 -0.7510  0.4054
  173MOL0     C23267   2.073   7.133   4.351  0.1002 -0.2685 -0.3874
  173MOL0     O23268   1.826   7.322   4.551  0.1064  0.1977  1.2303
  173MOL0     C23269   1.646   7.138   4.693 -0.5488 -0.2067 -1.3024
  173MOL0     C23270   1.538   7.052   4.727  0.0812  0.4468  0.3572
  173MOL0     N23271   0.810   6.673   4.778  0.1986  0.1740  0.5195
  173MOL0     N23272   0.708   6.755   4.767 -0.3401 -0.5831 -0.8184
  173MOL0     C23273   0.769   7.287   5.415 -0.0663  0.4454 -0.0332
  173MOL0     C23274   0.876   7.366   5.449 -0.3120  0.2398 -0.1528
  173MOL0     C23275   1.209   7.638   5.471 -0.0879  1.1588 -0.0992
  173MOL0     C23276   1.307   7.588   5.557 -0.5870 -0.3679  0.0302
  173MOL0     C23277   1.403   7.672   5.616 -0.5898  0.2094  0.7319
  173MOL0     C23278   1.391   7.814   5.590 -0.4495 -0.3305 -0.1031
  173MOL0     O23279   1.477   7.909   5.642 -0.7206 -0.3288 -0.0338
  173MOL0     C23280   1.591   7.871   5.719  1.1850 -1.1036 -0.8081
  173MOL0     C23281   1.703   7.821   5.630  0.9074 -1.1923  0.1150
  173MOL0     C23282   1.765   7.921   5.541 -0.3292  0.0399 -0.3684
  173MOL0     C23283   1.811   8.051   5.608 -0.5012 -0.3920 -0.5627
  173MOL0     C23284   1.914   8.024   5.712  0.0094 -0.4839 -0.5700
  173MOL0     C23285   2.001   8.022   5.798 -0.4968 -0.4742  1.4017
  173MOL0     C23286   1.304   7.858   5.490 -0.5429 -0.8208  0.1132
  173MOL0     C23287   1.223   7.767   5.425  0.7187 -0.5461 -0.4622
  173MOL0     H23288   1.118   7.170   5.304 -1.2683 -0.8012 -3.1204
  173MOL0     H23289   0.936   7.047   5.236  0.0088  0.9422 -0.3009
  173MOL0     H23290   0.505   7.170   5.377 -2.2020 -0.7425 -1.0751
  173MOL0     H23291   0.565   7.231   5.212  3.3610  0.2691  0.7176
  173MOL0     H23292   0.455   6.953   5.242 -2.2049  0.8234  1.4718
  173MOL0     H23293   0.353   7.090   5.199 -0.8391 -1.9248 -0.5744
  173MOL0     H23294   0.596   7.098   5.035  0.0184 -0.2862  1.1889
  173MOL0     H23295   0.530   6.940   5.041  4.1638  0.4783  1.4990
  173MOL0     H23296   0.300   7.050   4.949 -1.5760  1.8174 -0.0757
  173MOL0     H23297   0.375   7.200   4.964 -0.9690 -0.9507 -0.7795
  173MOL0     H23298   0.414   6.978   4.775  0.4827  0.0444  1.2596
  173MOL0     H23299   0.389   7.142   4.737 -2.1522 -2.3159  0.7904
  173MOL0     H23300   0.630   7.197   4.794 -2.5100  1.0297 -3.1611
  173MOL0     H23301   0.649   7.025   4.851 -0.7886  0.5631  1.5852
  173MOL0     H23302   0.593   7.116   4.559 -2.6516  1.5695  3.3134
  173MOL0     H23303   0.749   7.057   4.619  0.1867  0.2670  0.9846
  173MOL0     H23304   0.616   6.891   4.485  2.2966 -0.6394  0.4215
  173MOL0     H23305   0.504   6.879   4.625 -1.8086  2.2807 -1.4315
  173MOL0     H23306   0.838   6.774   4.472  2.1441  2.2189  2.1463
  173MOL0     H23307   1.052   6.547   4.719  1.6961 -0.1808 -1.2111
  173MOL0     H23308   0.991   6.500   4.574  1.8734 -0.9907  2.5070
  173MOL0     H23309   1.084   6.741   4.474 -2.6125 -1.4992  0.1711
  173MOL0     H23310   1.188   6.624   4.529 -0.5770 -0.5040  0.3327
  173MOL0     H23311   1.223   6.744   4.733  3.0184  0.4668 -0.2164
  173MOL0     H23312   1.089   6.857   4.703 -0.2086 -1.0543  2.3992
  173MOL0     H23313   1.196   6.949   4.521  1.5022 -0.0713 -2.2534
  173MOL0     H23314   1.311   6.812   4.500  1.3054  2.0646 -0.9456
  173MOL0     H23315   1.417   7.005   4.407  0.0152 -0.7003 -0.7433
  173MOL0     H23316   1.572   7.036   4.259 -0.4884  0.4460 -0.4574
  173MOL0     H23317   1.588   7.206   4.276 -1.4067  0.5706  2.2810
  173MOL0     H23318   1.732   7.090   4.309  0.1508 -1.2840  1.8490
  173MOL0     H23319   2.071   7.226   4.665 -1.4349 -0.4586 -0.6330
  173MOL0     H23320   2.300   7.348   4.603  5.5059 -1.9569 -1.6152
  173MOL0     H23321   2.460   7.196   4.217  1.8557  0.5849 -1.0581
  173MOL0     H23322   2.379   7.344   4.154 -0.4452  1.5098  0.6218
  173MOL0     H23323   2.588   7.481   4.234  0.1806  1.3151 -4.1428
  173MOL0     H23324   2.651   7.322   4.283  1.7979  2.8534  0.2458
  173MOL0     H23325   2.561   7.394   3.997  0.5333 -0.2805  0.0645
  173MOL0     H23326   2.655   7.250   4.045 -1.2008 -0.4090  0.6723
  173MOL0     H23327   2.845   7.384   4.107 -3.3104 -0.2033  2.4094
  173MOL0     H23328   2.807   7.381   3.936  0.4209  0.6150 -0.0053
  173MOL0     H23329   2.765   7.630   4.125  1.0741  1.0489 -0.7039
  173MOL0     H23330   2.696   7.620   3.969 -2.4866 -0.9957  2.7525
  173MOL0     H23331   2.928   7.718   4.005 -2.6503 -0.5341  1.0297
  173MOL0     H23332   2.991   7.552   4.017  0.4418 -0.9956 -1.6564
  173MOL0     H23333   2.879   7.681   3.772 -4.8706 -0.7970  1.3958
  173MOL0     H23334   2.847   7.508   3.788  2.4346 -2.0370  1.1752
  173MOL0     H23335   3.132   7.635   3.795 -1.2703  1.4156  1.9170
  173MOL0     H23336   3.049   7.572   3.654 -3.8658 -3.8661  0.0953
  173MOL0     H23337   2.217   7.172   4.209 -2.6726  0.2087 -0.2701
  173MOL0     H23338   2.011   7.076   4.282  3.2156 -2.8998 -1.2846
  173MOL0     H23339   1.709   7.186   4.767 -1.7954  1.3981 -1.2345
  173MOL0     H23340   1.513   7.023   4.828  0.2456 -1.5816 -0.1466
  173MOL0     H23341   0.671   7.311   5.455 -0.1571  1.3627 -0.7560
  173MOL0     H23342   0.870   7.463   5.496  0.3710 -0.1754  0.8171
  173MOL0     H23343   1.317   7.483   5.582 -1.8207 -0.4614  0.2045
  173MOL0     H23344   1.476   7.631   5.684 -0.0624 -2.4849 -1.2882
  173MOL0     H23345   1.634   7.950   5.782 -2.2126  0.3471 -0.0224
  173MOL0     H23346   1.558   7.793   5.789 -0.3048 -0.4063 -0.6777
  173MOL0     H23347   1.669   7.741   5.564  2.0648 -1.8390  0.2655
  173MOL0     H23348   1.787   7.775   5.683  0.4779 -1.9166  0.1749
  173MOL0     H23349   1.695   7.940   5.459  1.3984 -1.8486 -2.4179
  173MOL0     H23350   1.853   7.888   5.485  0.2141 -0.3845  0.7179
  173MOL0     H23351   1.721   8.106   5.635 -2.1185 -2.6535 -1.0824
  173MOL0     H23352   1.857   8.115   5.532  0.1329 -1.5283 -1.1719
  173MOL0     H23353   2.069   8.023   5.881  1.0094 -0.1866  0.2165
  173MOL0     H23354   1.305   7.964   5.464 -3.9533 -0.7065 -0.0655
  173MOL0     H23355   1.164   7.810   5.344 -2.5459  1.4728  2.6510
  174MOL0     O23356   0.077   5.588   2.693 -0.5871 -0.1637  0.3094
  174MOL0     C23357   0.011   5.484   2.690  0.7958 -0.8879 -0.8510
  174MOL0     O23358  -0.120   5.480   2.698  0.0456  0.3941 -0.0548
  174MOL0     C23359  -0.201   5.587   2.677 -0.3219 -1.0845  0.6323
  174MOL0     C23360  -0.235   5.634   2.549 -0.3627 -0.8318  0.5387
  174MOL0     C23361  -0.309   5.754   2.530  0.6078 -0.6003 -0.2013
  174MOL0     C23362  -0.364   5.817   2.637 -0.1076 -0.9174 -0.5887
  174MOL0     O23363  -0.443   5.929   2.607  0.5280 -0.5632 -0.7140
  174MOL0     C23364  -0.448   6.036   2.704 -0.4296 -0.6245 -0.0797
  174MOL0     C23365  -0.517   6.162   2.637 -0.5063 -0.1734  0.2563
  174MOL0     C23366  -0.425   6.240   2.540  0.0800 -0.2980  0.6391
  174MOL0     C23367  -0.348   6.359   2.608 -0.0687 -0.0601  0.1817
  174MOL0     C23368  -0.251   6.438   2.514  0.4127  0.1243 -0.5985
  174MOL0     C23369  -0.319   6.554   2.439 -0.2649  0.1712 -0.1387
  174MOL0     C23370  -0.358   6.679   2.529 -0.9478  0.1316 -0.1227
  174MOL0     C23371  -0.427   6.784   2.443 -0.4415  0.7136 -0.0146
  174MOL0     N23372  -0.344   6.832   2.331  0.7307  0.1884 -0.0139
  174MOL0     C23373  -0.231   6.901   2.349 -0.2093  0.0398 -0.4155
  174MOL0     C23374  -0.209   6.950   2.220 -0.6733  0.2423  0.5635
  174MOL0     C23375  -0.090   7.035   2.165  0.2604 -0.3461  0.1311
  174MOL0     C23376  -0.101   7.180   2.211  0.0571  0.0554  0.6796
  174MOL0     C23377   0.022   7.250   2.137  0.3799 -0.5437 -0.6769
  174MOL0     C23378   0.161   7.220   2.181 -0.5419  1.3162 -0.2046
  174MOL0     O23379   0.254   7.211   2.064  0.5135 -0.3477  0.2489
  174MOL0     C23380   0.269   7.336   2.005 -0.3489 -0.4530 -0.3359
  174MOL0     C23381   0.283   7.342   1.870  0.4515  0.2922 -0.4534
  174MOL0     C23382   0.292   7.458   1.794 -0.3007 -0.1148 -0.3163
  174MOL0     C23383   0.305   7.437   1.647 -0.2161 -0.5369 -0.7449
  174MOL0     C23384   0.273   7.582   1.861  0.1282 -1.3702 -0.3955
  174MOL0     C23385   0.255   7.711   1.790 -0.5355 -0.0323  0.0686
  174MOL0     O23386   0.170   7.704   1.681 -0.1606 -0.4919 -0.0371
  174MOL0     C23387   0.147   7.823   1.624  0.5387 -0.5426  1.0568
  174MOL0     C23388   0.196   7.865   1.502 -1.0147  0.3020 -0.0768
  174MOL0     C23389   0.153   7.988   1.450  0.2412  0.6763  0.0584
  174MOL0     C23390   0.066   8.074   1.514 -0.1560 -0.3516 -0.2296
  174MOL0     O23391   0.054   8.194   1.456  0.0943  0.4235  0.6225
  174MOL0     C23392  -0.015   8.307   1.519  0.6089 -0.6525  0.4458
  174MOL0     C23393   0.052   8.437   1.473  1.3247 -0.1313 -0.4649
  174MOL0     C23394  -0.016   8.545   1.557  0.3712 -0.1076  0.0557
  174MOL0     C23395   0.006   8.692   1.513  0.3914 -0.0544 -0.3982
  174MOL0     C23396  -0.070   8.791   1.608  0.7051  0.6766  0.9319
  174MOL0     C23397  -0.091   8.927   1.541  0.3618  0.8285 -0.0182
  174MOL0     C23398  -0.101   9.044   1.639  0.3950 -0.2700  0.1838
  174MOL0     C23399  -0.134   9.166   1.551 -0.4011  0.1497 -0.6614
  174MOL0    Cl23400  -0.087   9.311   1.661  0.1965 -0.1157 -0.1249
  174MOL0     C23401   0.017   8.032   1.639 -0.2185  0.5777 -0.2214
  174MOL0     C23402   0.053   7.902   1.686  0.3393 -0.7764 -0.4655
  174MOL0     O23403   0.300   7.817   1.842  0.4813  0.2820  0.7308
  174MOL0     C23404   0.283   7.584   2.002  1.3668 -0.2472  0.3962
  174MOL0     C23405   0.270   7.465   2.072  0.2487 -0.7366  0.1754
  174MOL0     N23406  -0.308   6.906   2.140 -0.0149  0.5617  0.4351
  174MOL0     N23407  -0.381   6.823   2.202  0.1038  0.0613  0.2156
  174MOL0     C23408  -0.340   5.770   2.768 -0.3118 -0.1109  0.2438
  174MOL0     C23409  -0.253   5.666   2.783  0.0979  0.3455  0.0488
  174MOL0     C23410   0.078   5.352   2.651  1.3142 -0.3376 -0.2526
  174MOL0     C23411   0.008   5.245   2.595  0.8293 -0.2372  0.2029
  174MOL0     C23412   0.072   5.128   2.555 -1.1645 -0.5532 -0.2762
  174MOL0     C23413   0.211   5.103   2.583  0.2876 -0.4384 -0.3119
  174MOL0     O23414   0.265   4.983   2.548  0.3378  0.2066  0.5938
  174MOL0     C23415   0.405   4.973   2.541  0.8085  0.1392  0.3498
  174MOL0     C23416   0.474   5.078   2.450  0.1142  0.1229 -0.3954
  174MOL0     C23417   0.627   5.077   2.470  0.9799  0.9695 -0.4938
  174MOL0     C23418   0.688   5.146   2.587  0.4522  0.3434 -0.1444
  174MOL0     C23419   0.833   5.122   2.584 -0.1106 -0.1531 -0.4481
  174MOL0     C23420   0.955   5.105   2.587  0.7415 -0.1390 -0.2784
  174MOL0     C23421   0.274   5.209   2.649  0.6858  0.6892  0.0282
  174MOL0     C23422   0.216   5.333   2.677 -0.1524 -0.1970  0.1734
  174MOL0     H23423  -0.191   5.588   2.461  0.7028 -1.0753  1.1726
  174MOL0     H23424  -0.313   5.805   2.435 -1.3415  1.5654  0.9581
  174MOL0     H23425  -0.511   6.011   2.790  0.2036 -0.7392  0.3509
  174MOL0     H23426  -0.354   6.073   2.745  0.3256 -3.5106  1.0341
  174MOL0     H23427  -0.601   6.120   2.580 -0.4088 -1.4431  1.0189
  174MOL0     H23428  -0.549   6.233   2.713 -1.2179 -0.6802  0.4385
  174MOL0     H23429  -0.353   6.166   2.504 -0.1143 -0.9985  1.6275
  174MOL0     H23430  -0.475   6.277   2.450  1.7991  1.1240  0.2099
  174MOL0     H23431  -0.421   6.421   2.660 -1.3895 -0.7955 -0.7213
  174MOL0     H23432  -0.298   6.316   2.695  3.0351 -1.1050 -1.8921
  174MOL0     H23433  -0.164   6.477   2.567 -0.1157 -0.5244  0.8139
  174MOL0     H23434  -0.199   6.371   2.445  3.6446  1.3381  0.4631
  174MOL0     H23435  -0.273   6.595   2.349 -1.6330 -0.8198 -1.3413
  174MOL0     H23436  -0.415   6.510   2.410  0.5022 -0.4258 -1.8845
  174MOL0     H23437  -0.420   6.644   2.613 -2.3980  1.5520 -0.5417
  174MOL0     H23438  -0.268   6.726   2.569 -0.7134 -0.5015  0.1140
  174MOL0     H23439  -0.449   6.866   2.511  2.6263 -0.6117  2.8382
  174MOL0     H23440  -0.522   6.748   2.403  1.0648 -0.1360 -3.2033
  174MOL0     H23441  -0.165   6.928   2.431 -0.6879  1.6576 -0.5356
  174MOL0     H23442   0.005   6.995   2.199  0.1926 -0.2593  0.4275
  174MOL0     H23443  -0.086   7.030   2.056 -1.8882  0.9662 -0.0648
  174MOL0     H23444  -0.091   7.190   2.320 -0.9938 -1.0281  0.8912
  174MOL0     H23445  -0.192   7.219   2.166  0.8608  0.4702 -0.6361
  174MOL0     H23446   0.007   7.358   2.133  2.7979 -0.1258 -0.1332
  174MOL0     H23447   0.009   7.213   2.034 -1.2952  1.7168 -1.3592
  174MOL0     H23448   0.167   7.122   2.228  0.5599  0.5122 -1.9087
  174MOL0     H23449   0.203   7.298   2.246  2.1657  0.4291 -0.7428
  174MOL0     H23450   0.272   7.250   1.814  3.6163  0.4811 -1.5758
  174MOL0     H23451   0.218   7.377   1.616 -1.2221  1.0180 -1.0659
  174MOL0     H23452   0.289   7.533   1.597 -2.3319  0.4051  1.5348
  174MOL0     H23453   0.394   7.377   1.625 -1.3393 -2.3200 -0.6679
  174MOL0     H23454   0.270   7.809   1.446 -5.1800 -3.4765 -2.4606
  174MOL0     H23455   0.209   8.034   1.369 -1.4613  3.5914  0.4006
  174MOL0     H23456  -0.122   8.292   1.502  0.7441 -0.9189 -0.1908
  174MOL0     H23457   0.004   8.300   1.626  4.8260  0.0186 -0.1019
  174MOL0     H23458   0.161   8.427   1.480  1.2370 -2.9694 -1.8536
  174MOL0     H23459   0.028   8.456   1.368 -1.4691  0.5796  0.2288
  174MOL0     H23460   0.022   8.529   1.658 -0.0768 -2.3970 -0.0841
  174MOL0     H23461  -0.125   8.537   1.555  0.2950  0.8957 -0.2674
  174MOL0     H23462   0.113   8.713   1.519  0.9831 -2.3029 -2.0037
  174MOL0     H23463  -0.032   8.706   1.411 -1.2577 -1.9459 -0.1025
  174MOL0     H23464  -0.010   8.785   1.700 -0.0915 -1.5114  1.3534
  174MOL0     H23465  -0.167   8.746   1.629  0.5566  0.5389 -0.0314
  174MOL0     H23466  -0.007   8.938   1.471  2.1622  3.1559  2.3021
  174MOL0     H23467  -0.180   8.931   1.478 -1.9703  2.6591  3.1308
  174MOL0     H23468  -0.007   9.047   1.695  0.2404  0.0561  0.4274
  174MOL0     H23469  -0.179   9.033   1.715  0.3044 -0.9585  0.0038
  174MOL0     H23470  -0.241   9.179   1.532 -1.1372 -3.2512  0.4495
  174MOL0     H23471  -0.070   9.169   1.462 -1.1802  3.1811 -1.2374
  174MOL0     H23472  -0.048   8.079   1.712 -2.8367 -1.2965 -1.1665
  174MOL0     H23473   0.016   7.862   1.780  2.6429 -1.1638  0.3339
  174MOL0     H23474   0.292   7.684   2.044  0.8925 -0.1155  0.1903
  174MOL0     H23475   0.285   7.462   2.179  0.7122 -1.5190  0.0941
  174MOL0     H23476  -0.375   5.817   2.860  0.3754 -0.6064  0.7757
  174MOL0     H23477  -0.229   5.638   2.885  4.0141  1.9329 -0.2618
  174MOL0     H23478  -0.093   5.272   2.565  0.5815 -2.6228 -1.3053
  174MOL0     H23479   0.012   5.057   2.499  0.1621  0.0248 -2.5563
  174MOL0     H23480   0.443   4.987   2.642  0.1055 -1.8312  0.9386
  174MOL0     H23481   0.423   4.870   2.508 -0.3937 -1.2594  3.6867
  174MOL0     H23482   0.437   5.179   2.475  1.6860  0.0074  2.8812
  174MOL0     H23483   0.441   5.063   2.347 -2.2566  0.0569  0.3074
  174MOL0     H23484   0.661   5.126   2.378 -0.9834 -3.2518 -3.8425
  174MOL0     H23485   0.670   4.977   2.473 -0.3405  0.2367 -2.7441
  174MOL0     H23486   0.644   5.104   2.678 -0.8191 -0.4371 -1.0877
  174MOL0     H23487   0.671   5.254   2.584 -3.3184 -0.1361 -1.9753
  174MOL0     H23488   1.062   5.103   2.578  0.7076 -3.2598 -1.0853
  174MOL0     H23489   0.376   5.189   2.679 -0.4492 -3.7508  1.6864
  174MOL0     H23490   0.277   5.419   2.700  1.0168 -1.2424  1.1360
  175MOL0     O23491   6.322   5.699   0.396  0.3210 -0.3472 -0.1671
  175MOL0     C23492   6.222   5.764   0.440  0.5393 -0.3990 -0.1990
  175MOL0     O23493   6.137   5.724   0.535  0.1849  0.2566  0.3488
  175MOL0     C23494   6.148   5.597   0.590 -0.8212  0.3399 -0.0448
  175MOL0     C23495   6.079   5.597   0.710  0.5277  0.1555 -0.2841
  175MOL0     C23496   6.063   5.481   0.782  0.2125  1.1013  0.3543
  175MOL0     C23497   6.132   5.363   0.746  0.5161  0.4904  0.5769
  175MOL0     O23498   6.130   5.253   0.829  0.1646 -0.0832 -0.1847
  175MOL0     C23499   6.187   5.274   0.959 -0.2212 -0.0504  0.3144
  175MOL0     C23500   6.328   5.347   0.961  1.1922 -0.0499 -0.1855
  175MOL0     C23501   6.399   5.310   1.088 -0.1873  0.5484  0.0683
  175MOL0     C23502   6.356   5.372   1.216  0.7679 -0.0835 -0.0898
  175MOL0     C23503   6.386   5.528   1.232  0.5068 -0.9141 -0.6172
  175MOL0     C23504   6.535   5.550   1.269 -0.5215  0.5974 -0.2430
  175MOL0     C23505   6.565   5.696   1.298  1.1161  0.1497 -0.5409
  175MOL0     C23506   6.548   5.734   1.444  0.7895 -0.3644  0.3995
  175MOL0     N23507   6.581   5.876   1.455  0.1222 -0.9197  0.4223
  175MOL0     C23508   6.707   5.929   1.449  0.8386 -0.7709  0.6413
  175MOL0     C23509   6.690   6.064   1.454  0.3087  0.1301  0.5358
  175MOL0     C23510   6.803   6.169   1.446  0.2023  0.3597 -0.0288
  175MOL0     C23511   6.813   6.274   1.557  0.3117  0.7476  0.9080
  175MOL0     C23512   6.715   6.400   1.540 -0.7981  0.3653 -0.0944
  175MOL0     C23513   6.688   6.452   1.402  0.0990 -0.1345 -0.0222
  175MOL0     O23514   6.809   6.463   1.321 -0.0183 -0.2100 -0.4060
  175MOL0     C23515   6.888   6.569   1.332 -1.8095 -0.4950  0.9393
  175MOL0     C23516   6.996   6.572   1.246 -0.8386 -0.0200 -0.0029
  175MOL0     C23517   7.095   6.678   1.252 -0.3165  0.2700 -0.0719
  175MOL0     C23518   7.180   6.674   1.131 -0.3919 -0.3435 -0.5827
  175MOL0     C23519   7.082   6.783   1.344  0.7242 -0.4811 -0.8284
  175MOL0     C23520   7.169   6.913   1.353  1.0156  0.2764  0.0549
  175MOL0     O23521   7.105   7.015   1.423  0.7130  0.0498 -0.2835
  175MOL0     C23522   7.173   7.133   1.433  0.4215  0.1467  0.9192
  175MOL0     C23523   7.107   7.247   1.391  0.1803  0.0716 -0.5097
  175MOL0     C23524   7.155   7.370   1.427 -0.0069 -0.6995  0.0469
  175MOL0     C23525   7.276   7.381   1.498  0.8190 -0.1466  0.5928
  175MOL0     O23526   7.319   7.504   1.543 -0.2126  0.2931 -1.1298
  175MOL0     C23527   7.464   7.523   1.540 -0.3565 -0.1862  0.3088
  175MOL0     C23528   7.481   7.677   1.519 -0.3088  0.2079 -0.1280
  175MOL0     C23529   7.631   7.727   1.538 -1.0383 -1.2057  0.7844
  175MOL0     C23530   7.651   7.795   1.669  0.1415 -0.0542 -0.0461
  175MOL0     C23531   7.799   7.819   1.696  0.3450  0.4977  0.1739
  175MOL0     C23532   7.837   7.952   1.627 -0.1047  0.2861 -0.2698
  175MOL0     C23533   7.977   7.992   1.678  0.9097 -0.0023  0.2344
  175MOL0     C23534   8.074   7.881   1.639 -0.3305  0.1080 -1.1754
  175MOL0    Cl23535   8.241   7.926   1.687  0.5417  0.2512 -0.1275
  175MOL0     C23536   7.345   7.271   1.541  0.6399  0.0408  0.0549
  175MOL0     C23537   7.292   7.142   1.501 -0.1136 -0.4099  0.3948
  175MOL0     O23538   7.267   6.924   1.279 -0.8646  0.7007  0.1762
  175MOL0     C23539   6.959   6.785   1.420  0.0709  0.0225 -0.6962
  175MOL0     C23540   6.870   6.685   1.413  0.3087  0.1113  0.4111
  175MOL0     N23541   6.554   6.096   1.468  0.3068  0.1339 -0.0442
  175MOL0     N23542   6.495   5.987   1.475 -0.5855  0.3090 -0.5670
  175MOL0     C23543   6.214   5.364   0.637 -0.0107  0.4937 -1.0942
  175MOL0     C23544   6.218   5.483   0.559 -0.3812 -0.0809  0.1094
  175MOL0     C23545   6.212   5.906   0.386 -0.4275 -0.6449 -1.2576
  175MOL0     C23546   6.148   6.001   0.471 -1.2784  0.1134 -0.0564
  175MOL0     C23547   6.126   6.132   0.415 -0.2828  0.4838  1.2263
  175MOL0     C23548   6.181   6.165   0.288  0.1130 -0.5460  0.3580
  175MOL0     O23549   6.164   6.288   0.245 -0.5235 -0.2330  0.0316
  175MOL0     C23550   6.035   6.351   0.260  0.3806 -0.1173 -0.4774
  175MOL0     C23551   6.037   6.481   0.187  0.4985 -0.4364 -0.7317
  175MOL0     C23552   5.902   6.551   0.168 -0.1334 -0.4236 -0.2297
  175MOL0     C23553   5.916   6.699   0.198 -0.2686 -0.4362 -0.1665
  175MOL0     C23554   5.807   6.776   0.134  0.0739  0.0044 -0.4242
  175MOL0     C23555   5.711   6.834   0.086 -0.4690  0.6096  0.8837
  175MOL0     C23556   6.258   6.076   0.218 -0.3352  1.3463 -0.7809
  175MOL0     C23557   6.265   5.951   0.270  0.1180  0.0855 -0.0030
  175MOL0     H23558   6.027   5.684   0.749  0.0681 -2.0527  4.7913
  175MOL0     H23559   5.997   5.481   0.868 -0.6292  4.1167 -0.1825
  175MOL0     H23560   6.118   5.332   1.023 -0.8016 -0.5632  0.1694
  175MOL0     H23561   6.198   5.178   1.012 -1.1042  0.0716  0.7434
  175MOL0     H23562   6.380   5.292   0.882  0.9813 -0.8201  0.2061
  175MOL0     H23563   6.316   5.455   0.949  0.2350  0.1082  1.8882
  175MOL0     H23564   6.380   5.203   1.102 -2.5024  0.8866  0.0192
  175MOL0     H23565   6.507   5.313   1.071 -0.2172 -0.0039 -0.2248
  175MOL0     H23566   6.250   5.348   1.230  0.5259  0.2188 -1.2581
  175MOL0     H23567   6.402   5.325   1.303 -0.3776 -0.1970  0.4745
  175MOL0     H23568   6.359   5.590   1.146  2.0536  2.2212  0.9469
  175MOL0     H23569   6.330   5.557   1.322  2.7777 -5.6521  2.7166
  175MOL0     H23570   6.567   5.486   1.351  0.1066  0.1962 -0.7863
  175MOL0     H23571   6.596   5.521   1.182 -2.7764 -4.9070 -0.3528
  175MOL0     H23572   6.673   5.705   1.280  1.5196 -2.9356 -0.1906
  175MOL0     H23573   6.514   5.774   1.242  2.1705  1.3614  0.1411
  175MOL0     H23574   6.604   5.673   1.516 -0.3269 -0.5517  1.1200
  175MOL0     H23575   6.440   5.730   1.455  0.5647 -0.7167 -1.6138
  175MOL0     H23576   6.804   5.883   1.431  0.7195 -1.1478  0.9434
  175MOL0     H23577   6.892   6.105   1.446 -0.5349 -0.8888 -3.0747
  175MOL0     H23578   6.802   6.225   1.352 -0.7983 -1.5525 -1.2301
  175MOL0     H23579   6.916   6.311   1.557  1.6177 -2.3825 -1.9238
  175MOL0     H23580   6.786   6.230   1.654 -2.2355  2.5424  1.1169
  175MOL0     H23581   6.731   6.482   1.611  1.5794 -1.6344  1.8495
  175MOL0     H23582   6.619   6.354   1.565 -0.3854 -0.9667 -0.8908
  175MOL0     H23583   6.656   6.553   1.429  0.8056  0.7594 -2.2978
  175MOL0     H23584   6.608   6.390   1.361  0.0896 -0.3038  0.2472
  175MOL0     H23585   7.001   6.495   1.170 -2.0479  1.4490 -1.6409
  175MOL0     H23586   7.152   6.616   1.043  1.6133 -0.3816 -1.2580
  175MOL0     H23587   7.207   6.774   1.096 -0.4298 -0.7942 -1.9487
  175MOL0     H23588   7.281   6.639   1.156 -0.6819 -0.1734  0.8805
  175MOL0     H23589   7.011   7.243   1.339  0.8612 -0.0570 -1.8050
  175MOL0     H23590   7.094   7.458   1.412 -0.3815 -0.8405  0.7407
  175MOL0     H23591   7.509   7.494   1.636 -0.9702  1.2195  1.0570
  175MOL0     H23592   7.511   7.467   1.459 -2.2874 -1.3989 -0.0545
  175MOL0     H23593   7.452   7.702   1.416 -1.5886  0.6844  0.3337
  175MOL0     H23594   7.432   7.741   1.593 -0.0840 -1.1423  1.2273
  175MOL0     H23595   7.658   7.804   1.465  0.1232 -3.8778 -1.8323
  175MOL0     H23596   7.703   7.644   1.534 -1.8884 -2.2713  4.0271
  175MOL0     H23597   7.599   7.891   1.672  2.2651  1.2662 -1.7700
  175MOL0     H23598   7.615   7.731   1.749  0.2972  0.3735  0.3698
  175MOL0     H23599   7.862   7.736   1.662  2.5840  1.3574  1.9729
  175MOL0     H23600   7.824   7.824   1.802  0.9445 -4.8311  0.5834
  175MOL0     H23601   7.839   7.936   1.519  0.6574  1.2456 -0.4022
  175MOL0     H23602   7.766   8.033   1.645 -2.5147 -1.4891 -1.1943
  175MOL0     H23603   7.971   8.004   1.786 -0.0213 -0.1976  0.2166
  175MOL0     H23604   8.001   8.085   1.626 -1.1757  0.3103 -0.2824
  175MOL0     H23605   8.085   7.868   1.531 -0.5286  0.9667 -1.3065
  175MOL0     H23606   8.038   7.785   1.678 -1.3814  0.1000 -2.1328
  175MOL0     H23607   7.444   7.281   1.584  1.2003 -0.0658 -1.1579
  175MOL0     H23608   7.343   7.062   1.553  0.2990  0.0296  0.6729
  175MOL0     H23609   6.929   6.867   1.485  2.5163 -0.4275  1.1478
  175MOL0     H23610   6.779   6.691   1.472  0.1089 -1.6807  0.3447
  175MOL0     H23611   6.274   5.284   0.596  0.0831  1.5378 -3.1334
  175MOL0     H23612   6.282   5.472   0.471  0.3993 -0.5487  0.7247
  175MOL0     H23613   6.095   5.966   0.559 -0.7821 -1.2501 -0.2701
  175MOL0     H23614   6.072   6.191   0.488  0.6319  0.7976  1.6613
  175MOL0     H23615   5.968   6.286   0.203 -0.5605 -0.1353  0.6247
  175MOL0     H23616   6.001   6.346   0.364  1.4644 -1.1644 -0.1466
  175MOL0     H23617   6.084   6.468   0.089 -1.2660 -1.1267 -1.5341
  175MOL0     H23618   6.102   6.544   0.248 -2.3832 -0.0521  2.2097
  175MOL0     H23619   5.818   6.494   0.208  2.6150 -3.4423  1.7913
  175MOL0     H23620   5.882   6.562   0.061  0.8382  1.1024 -0.2861
  175MOL0     H23621   6.009   6.739   0.156 -0.4028 -1.2363 -1.2408
  175MOL0     H23622   5.911   6.716   0.306 -0.2603 -0.3083 -0.1859
  175MOL0     H23623   5.640   6.883   0.023  2.8408  0.3036 -3.5407
  175MOL0     H23624   6.317   6.123   0.141 -0.9466  0.7728 -1.6254
  175MOL0     H23625   6.332   5.887   0.215 -0.9893 -1.5191  0.4503
  176MOL0     O23626   1.951   8.981   0.349  0.3857 -0.7664  0.5624
  176MOL0     C23627   2.054   8.932   0.316 -0.3060  1.1713  0.4018
  176MOL0     O23628   2.073   8.885   0.186 -0.3271 -0.7077 -0.2846
  176MOL0     C23629   1.972   8.883   0.094 -0.1652 -1.0531 -0.3889
  176MOL0     C23630   1.995   8.940  -0.031 -0.1906  0.1155 -0.2387
  176MOL0     C23631   1.897   8.949  -0.130  0.0305  0.7398  0.0178
  176MOL0     C23632   1.773   8.890  -0.103  0.4353  0.5852  0.0052
  176MOL0     O23633   1.688   8.882  -0.209 -0.8966  0.3528  0.2244
  176MOL0     C23634   1.551   8.851  -0.206 -0.0490  0.2994 -0.3109
  176MOL0     C23635   1.463   8.970  -0.181  0.1478 -0.2977 -0.2583
  176MOL0     C23636   1.317   8.929  -0.140  0.9321  0.3146  0.2476
  176MOL0     C23637   1.219   9.047  -0.175  0.8931  0.7295  0.0289
  176MOL0     C23638   1.245   9.185  -0.107 -0.4547  0.1154  0.3708
  176MOL0     C23639   1.118   9.275  -0.106 -0.5041  0.0018 -0.0834
  176MOL0     C23640   1.154   9.418  -0.125  0.0486  0.3112 -0.2945
  176MOL0     C23641   1.221   9.472   0.001  0.3242 -0.4171  0.9131
  176MOL0     N23642   1.352   9.413   0.042 -0.0303  0.5094 -0.0085
  176MOL0     C23643   1.476   9.415  -0.014  0.3722  0.6036  0.2963
  176MOL0     C23644   1.548   9.331   0.065 -0.7573 -0.2082 -0.1250
  176MOL0     C23645   1.695   9.286   0.042  0.0618 -0.4939  0.1254
  176MOL0     C23646   1.784   9.312   0.163  0.1269  0.2083  0.9001
  176MOL0     C23647   1.851   9.454   0.157 -0.5742  0.1095 -0.7861
  176MOL0     C23648   1.915   9.475   0.303  0.2233  0.4712  0.5156
  176MOL0     O23649   2.001   9.580   0.309  0.3532 -0.6787  0.8650
  176MOL0     C23650   1.968   9.712   0.314 -0.0733  0.3151 -0.0782
  176MOL0     C23651   2.070   9.804   0.305  0.0357 -0.5038 -0.5726
  176MOL0     C23652   2.050   9.939   0.296 -0.1717  0.2436  0.2287
  176MOL0     C23653   2.158  10.038   0.271  0.1759 -0.1628  0.2139
  176MOL0     C23654   1.920   9.993   0.298  0.2586  1.2929 -0.6420
  176MOL0     C23655   1.895  10.141   0.307  0.0206 -0.0781 -0.7229
  176MOL0     O23656   1.970  10.198   0.402 -0.6329  0.3470  1.1784
  176MOL0     C23657   1.921  10.322   0.442 -0.5491 -1.2598 -0.0438
  176MOL0     C23658   2.018  10.423   0.429  0.8171  0.2309 -0.2811
  176MOL0     C23659   1.995  10.554   0.476 -0.6195  0.2414  0.2318
  176MOL0     C23660   1.875  10.578   0.546 -0.8678 -0.3085 -0.3529
  176MOL0     O23661   1.859  10.705   0.581 -0.6700  0.1384  0.4634
  176MOL0     C23662   1.735  10.761   0.618  0.5570  0.0425 -0.3962
  176MOL0     C23663   1.749  10.911   0.611  0.0662 -0.6750 -0.8954
  176MOL0     C23664   1.718  10.984   0.745  0.1964 -0.1403  0.5991
  176MOL0     C23665   1.703  11.135   0.723  0.2021 -0.0309 -0.3544
  176MOL0     C23666   1.708  11.216   0.857 -0.2263  0.2364  0.1833
  176MOL0     C23667   1.681  11.378   0.825 -0.7674 -0.1143  0.2985
  176MOL0     C23668   1.653  11.455   0.952  0.1642 -0.3479  0.0708
  176MOL0     C23669   1.529  11.407   1.036  0.8395  0.2377  0.5063
  176MOL0    Cl23670   1.494  11.523   1.169  0.7790  0.1313  0.7847
  176MOL0     C23671   1.777  10.474   0.556  0.4176 -0.1517 -0.4680
  176MOL0     C23672   1.808  10.350   0.512  0.4919  0.8162  0.0437
  176MOL0     O23673   1.802  10.186   0.252 -0.1068 -0.6900  0.0243
  176MOL0     C23674   1.810   9.899   0.306  0.1344  0.2531 -0.1347
  176MOL0     C23675   1.825   9.760   0.308  0.0932  0.1305 -0.1833
  176MOL0     N23676   1.475   9.308   0.181 -0.2834  0.2964  0.6981
  176MOL0     N23677   1.357   9.357   0.165  0.1399 -0.9002  0.0670
  176MOL0     C23678   1.744   8.826   0.016 -0.0588  0.0845  0.3064
  176MOL0     C23679   1.844   8.830   0.111  1.0053  0.2576 -1.8600
  176MOL0     C23680   2.169   8.951   0.407 -0.9119 -1.1453  0.4202
  176MOL0     C23681   2.291   8.889   0.375  0.1924 -0.0569  0.1144
  176MOL0     C23682   2.407   8.898   0.462  0.0126  0.3350  0.0626
  176MOL0     C23683   2.407   8.969   0.578  0.9036 -0.0662  0.7839
  176MOL0     O23684   2.520   8.970   0.653  0.1008  0.5397  0.0934
  176MOL0     C23685   2.519   8.999   0.797  0.2298  0.0259 -0.5420
  176MOL0     C23686   2.617   8.905   0.871  0.3556  0.2746 -0.7096
  176MOL0     C23687   2.750   8.963   0.868  0.0187 -0.2683 -0.3557
  176MOL0     C23688   2.854   8.902   0.962  0.8512 -0.7028  0.1690
  176MOL0     C23689   2.826   8.885   1.103  0.1911 -0.5893 -0.3061
  176MOL0     C23690   2.800   8.873   1.221  0.3000  0.5398 -0.1911
  176MOL0     C23691   2.284   9.033   0.617  0.5527 -0.1012 -0.3112
  176MOL0     C23692   2.170   9.024   0.526 -0.9045 -0.2574 -0.0891
  176MOL0     H23693   2.088   8.981  -0.070  0.2082 -1.3660 -0.9430
  176MOL0     H23694   1.913   8.991  -0.228 -2.7092  1.7746 -0.0693
  176MOL0     H23695   1.525   8.811  -0.304  0.1267 -1.8623  0.4684
  176MOL0     H23696   1.528   8.768  -0.139  1.1633  2.1169  2.5626
  176MOL0     H23697   1.504   9.021  -0.093 -0.2084 -0.6223  0.0993
  176MOL0     H23698   1.466   9.042  -0.263  0.8082  2.3020  1.8951
  176MOL0     H23699   1.285   8.847  -0.204 -2.7096  0.3769  1.7199
  176MOL0     H23700   1.306   8.902  -0.034  2.7028 -1.3770  0.0594
  176MOL0     H23701   1.214   9.070  -0.281  4.4508  2.2996  0.0600
  176MOL0     H23702   1.123   9.008  -0.140  0.6356  1.8631  0.6402
  176MOL0     H23703   1.276   9.155  -0.006  1.9160 -1.8344 -0.8284
  176MOL0     H23704   1.325   9.230  -0.167  0.6536 -0.3380  1.4616
  176MOL0     H23705   1.060   9.244  -0.193 -0.2500  1.1039 -0.6744
  176MOL0     H23706   1.050   9.258  -0.023 -2.4776 -1.0480 -1.8229
  176MOL0     H23707   1.212   9.431  -0.217  1.3768  1.2462  0.6309
  176MOL0     H23708   1.076   9.491  -0.147  1.3369  1.4058 -1.5122
  176MOL0     H23709   1.155   9.471   0.088  1.5341 -3.6081  1.9644
  176MOL0     H23710   1.238   9.578  -0.020  2.8003 -0.7740  0.7591
  176MOL0     H23711   1.512   9.453  -0.109 -2.2870  0.1695 -0.9746
  176MOL0     H23712   1.698   9.179   0.017 -2.1556 -0.4743 -0.4171
  176MOL0     H23713   1.736   9.341  -0.043  2.5106  0.2032  1.6464
  176MOL0     H23714   1.865   9.241   0.180  1.9092  1.6842 -1.0403
  176MOL0     H23715   1.717   9.307   0.250 -1.3098  0.8700 -0.1270
  176MOL0     H23716   1.783   9.534   0.128 -0.3294  0.2582 -0.9541
  176MOL0     H23717   1.934   9.467   0.087 -1.8666  1.8877 -2.0712
  176MOL0     H23718   1.955   9.377   0.330 -0.0553 -0.1158 -1.0905
  176MOL0     H23719   1.830   9.491   0.371 -1.3810 -0.9898 -1.0412
  176MOL0     H23720   2.174   9.775   0.315  0.2628  0.7113  0.8773
  176MOL0     H23721   2.206  10.084   0.358 -0.6952  1.1574  0.0173
  176MOL0     H23722   2.237   9.979   0.223 -2.1102 -4.7797  1.5539
  176MOL0     H23723   2.132  10.117   0.200 -0.8095  0.2308  0.9818
  176MOL0     H23724   2.106  10.403   0.370 -0.6153 -2.9869 -1.5452
  176MOL0     H23725   2.053  10.640   0.443 -2.0697  1.3108  0.3641
  176MOL0     H23726   1.661  10.748   0.538  1.2265 -1.8027 -0.7712
  176MOL0     H23727   1.702  10.710   0.709  1.1735 -2.8590 -1.6711
  176MOL0     H23728   1.854  10.929   0.583  1.6632 -2.9927  2.7970
  176MOL0     H23729   1.698  10.957   0.526  0.7251 -2.7027 -2.4556
  176MOL0     H23730   1.800  10.970   0.816 -0.1836 -2.8386  0.6024
  176MOL0     H23731   1.628  10.944   0.794 -0.8038 -0.4172 -1.3478
  176MOL0     H23732   1.789  11.167   0.662  1.1203  0.3993  1.1096
  176MOL0     H23733   1.606  11.150   0.673  0.4982  0.3079 -0.8486
  176MOL0     H23734   1.797  11.193   0.916 -1.2758 -1.3645  1.1991
  176MOL0     H23735   1.624  11.184   0.919  1.0194 -0.9848  1.2989
  176MOL0     H23736   1.773  11.413   0.776 -0.9547 -0.4075 -0.2792
  176MOL0     H23737   1.597  11.387   0.755  0.1483 -2.0230 -1.1403
  176MOL0     H23738   1.643  11.558   0.917 -1.2265 -0.3059  0.5281
  176MOL0     H23739   1.744  11.452   1.012  0.0553  0.7481  0.3191
  176MOL0     H23740   1.544  11.304   1.071  2.2448  0.3483  0.2880
  176MOL0     H23741   1.438  11.404   0.975 -0.8004 -0.6380  2.8655
  176MOL0     H23742   1.680  10.498   0.599  1.0517  0.5091  0.6325
  176MOL0     H23743   1.736  10.274   0.540  3.6032 -3.3552 -2.1359
  176MOL0     H23744   1.716   9.944   0.334  2.9031  4.7480  3.1677
  176MOL0     H23745   1.741   9.692   0.314  0.0526  0.2220  0.3769
  176MOL0     H23746   1.648   8.775   0.015  0.2693 -0.6634 -2.8076
  176MOL0     H23747   1.833   8.781   0.208  5.3181  2.0943 -0.1934
  176MOL0     H23748   2.302   8.830   0.284  0.8210 -2.8667  1.8937
  176MOL0     H23749   2.498   8.851   0.425 -0.4961  0.5213 -1.4895
  176MOL0     H23750   2.544   9.104   0.814 -1.9372  0.7926 -1.7078
  176MOL0     H23751   2.417   8.982   0.834  0.6419  0.5563  0.9053
  176MOL0     H23752   2.621   8.810   0.817  1.4738  0.7958 -1.5971
  176MOL0     H23753   2.591   8.890   0.976  2.3315 -2.0155 -0.4849
  176MOL0     H23754   2.731   9.062   0.911 -1.3547 -0.0983 -1.2994
  176MOL0     H23755   2.802   8.963   0.772  3.7141 -0.8152  1.4855
  176MOL0     H23756   2.944   8.964   0.969  1.0659 -1.1250  1.4100
  176MOL0     H23757   2.873   8.801   0.923  2.2620 -0.4702  0.1805
  176MOL0     H23758   2.764   8.880   1.321 -1.3514 -1.1874 -0.6168
  176MOL0     H23759   2.278   9.096   0.705 -0.4853 -0.5884 -0.0124
  176MOL0     H23760   2.081   9.076   0.560 -1.1101 -1.5076  1.4594
  177MOL0     O23761   2.940   1.480   6.439 -0.2538 -0.6578 -0.6474
  177MOL0     C23762   3.016   1.501   6.530 -0.4761 -0.5003 -0.4507
  177MOL0     O23763   3.023   1.614   6.592  0.4002  0.0029 -0.4421
  177MOL0     C23764   2.949   1.717   6.552 -0.1008 -0.1605 -0.3504
  177MOL0     C23765   2.827   1.749   6.604  1.6967 -0.4684 -0.0083
  177MOL0     C23766   2.752   1.859   6.567  0.5859 -0.1983  0.1385
  177MOL0     C23767   2.795   1.952   6.471  0.1457  0.1740  0.7333
  177MOL0     O23768   2.709   2.059   6.445 -0.2071 -0.1807  0.2184
  177MOL0     C23769   2.773   2.184   6.407 -0.8223 -0.0457  0.9670
  177MOL0     C23770   2.723   2.295   6.482  0.3882  0.6042 -0.6635
  177MOL0     C23771   2.570   2.313   6.441  0.4615  0.2510 -0.1913
  177MOL0     C23772   2.570   2.406   6.316  0.9825  0.3332  0.4079
  177MOL0     C23773   2.441   2.485   6.304  0.6417 -0.8469  0.3088
  177MOL0     C23774   2.320   2.405   6.254 -0.5677  1.0496 -0.0009
  177MOL0     C23775   2.305   2.396   6.105  0.3405  0.1426 -1.1038
  177MOL0     C23776   2.176   2.325   6.071  0.2167 -0.2814 -0.4877
  177MOL0     N23777   2.158   2.321   5.925  0.5617  0.2885 -0.3849
  177MOL0     C23778   2.144   2.425   5.840 -0.0315  0.2495  0.4598
  177MOL0     C23779   2.102   2.371   5.726 -1.1981  0.1677  0.5732
  177MOL0     C23780   2.087   2.453   5.604  0.5718  0.1902  0.3257
  177MOL0     C23781   2.215   2.491   5.547 -0.3387  0.6652  0.7530
  177MOL0     C23782   2.185   2.561   5.417 -0.6318 -0.7369  0.4140
  177MOL0     C23783   2.318   2.592   5.347  0.0957 -0.0405  0.3508
  177MOL0     O23784   2.410   2.480   5.334  0.8340  0.4339 -0.0346
  177MOL0     C23785   2.522   2.501   5.266 -0.2424  0.6959 -0.2623
  177MOL0     C23786   2.587   2.618   5.229 -0.2617  1.0138 -0.4982
  177MOL0     C23787   2.709   2.616   5.168 -1.1114  0.4770  0.8048
  177MOL0     C23788   2.790   2.740   5.128  0.6389 -0.4889 -0.7928
  177MOL0     C23789   2.774   2.494   5.133 -0.6397 -0.1764  0.3365
  177MOL0     C23790   2.903   2.480   5.064  0.1877  0.7477 -0.2614
  177MOL0     O23791   2.911   2.538   4.942  0.2421  0.0871 -0.3674
  177MOL0     C23792   3.022   2.526   4.865 -0.2605 -0.4952 -0.5535
  177MOL0     C23793   3.015   2.505   4.723 -0.8395  0.5259 -0.1045
  177MOL0     C23794   3.128   2.500   4.640  0.1669 -0.5806  0.2772
  177MOL0     C23795   3.252   2.527   4.692  0.2290  0.1386 -0.0708
  177MOL0     O23796   3.361   2.526   4.611 -0.8127  0.0130  0.5855
  177MOL0     C23797   3.349   2.514   4.476  0.2834 -0.9820  0.8711
  177MOL0     C23798   3.487   2.512   4.410 -0.5023 -0.1845  0.0621
  177MOL0     C23799   3.573   2.633   4.454 -0.6676 -0.8953 -0.4485
  177MOL0     C23800   3.693   2.659   4.364 -0.2803  0.1020  0.3498
  177MOL0     C23801   3.785   2.755   4.432  0.1857  0.3462 -0.1316
  177MOL0     C23802   3.928   2.774   4.365  0.6387 -0.5920  0.9194
  177MOL0     C23803   4.005   2.896   4.425 -0.2175 -0.2383 -0.0811
  177MOL0     C23804   4.108   2.951   4.330  0.8220 -0.0429  0.3059
  177MOL0    Cl23805   4.239   3.017   4.421 -0.4431  0.2782 -0.1050
  177MOL0     C23806   3.264   2.562   4.831 -0.3582 -0.6908 -1.0199
  177MOL0     C23807   3.153   2.561   4.910  0.0522 -0.7026 -0.0837
  177MOL0     O23808   2.994   2.420   5.126 -0.2206  0.2299  0.0225
  177MOL0     C23809   2.712   2.379   5.168  1.0113 -0.2720 -0.1589
  177MOL0     C23810   2.590   2.380   5.238 -0.1577  0.6923  0.3184
  177MOL0     N23811   2.098   2.230   5.733  0.9995  0.1986  0.1445
  177MOL0     N23812   2.131   2.209   5.855  0.2893  0.0505  0.0208
  177MOL0     C23813   2.913   1.923   6.406 -0.0476 -0.4814 -0.1394
  177MOL0     C23814   2.988   1.809   6.455 -0.8830 -0.6055  0.5376
  177MOL0     C23815   3.102   1.397   6.571  0.6246 -0.1545  0.5377
  177MOL0     C23816   3.221   1.430   6.643  0.5187 -0.3416  0.9394
  177MOL0     C23817   3.316   1.348   6.687 -0.2779 -0.5642  0.7150
  177MOL0     C23818   3.304   1.216   6.657  0.7295  0.0535  0.2227
  177MOL0     O23819   3.410   1.136   6.678 -0.0181 -0.3017 -0.0623
  177MOL0     C23820   3.402   1.055   6.799  0.5856 -0.5264  0.1878
  177MOL0     C23821   3.377   0.908   6.770 -0.1674  0.1333  0.0676
  177MOL0     C23822   3.364   0.829   6.908  0.3105  0.3673 -0.6057
  177MOL0     C23823   3.327   0.684   6.895 -0.0808  0.9379 -0.0912
  177MOL0     C23824   3.329   0.624   7.030 -0.2559 -0.8358 -0.2428
  177MOL0     C23825   3.322   0.561   7.139  0.8924  0.6864  0.0215
  177MOL0     C23826   3.183   1.176   6.602  0.0778  0.1084  0.3031
  177MOL0     C23827   3.079   1.261   6.557  0.0991  0.6274  0.3772
  177MOL0     H23828   2.789   1.680   6.678 -0.3705  0.0098 -0.5501
  177MOL0     H23829   2.652   1.874   6.608 -0.5554 -2.7173 -1.4938
  177MOL0     H23830   2.879   2.164   6.427 -0.6552  0.9768  1.1474
  177MOL0     H23831   2.761   2.204   6.301  0.1967 -0.2942  0.7951
  177MOL0     H23832   2.719   2.260   6.586 -1.3689 -0.9251 -1.1816
  177MOL0     H23833   2.784   2.385   6.469 -0.2878  1.3400  0.9412
  177MOL0     H23834   2.532   2.216   6.407 -0.5094  0.7605 -0.5910
  177MOL0     H23835   2.510   2.350   6.525 -1.3737 -1.2031 -0.7840
  177MOL0     H23836   2.656   2.474   6.317  0.8678  0.5681 -1.4831
  177MOL0     H23837   2.584   2.345   6.226 -0.0503 -0.9553  1.0822
  177MOL0     H23838   2.420   2.515   6.407 -2.5806  1.1232 -0.7412
  177MOL0     H23839   2.456   2.572   6.239 -3.0702  2.0712  2.9199
  177MOL0     H23840   2.329   2.304   6.297  1.2018  1.4984  0.8209
  177MOL0     H23841   2.235   2.454   6.302 -0.1686  2.7979 -1.0049
  177MOL0     H23842   2.304   2.498   6.065  2.5298 -0.1197 -1.9691
  177MOL0     H23843   2.391   2.341   6.067  0.1033 -0.9732 -0.0828
  177MOL0     H23844   2.091   2.377   6.116  1.6700 -1.3602  4.0413
  177MOL0     H23845   2.180   2.222   6.107 -0.7641  0.6308  2.5317
  177MOL0     H23846   2.144   2.531   5.863  1.5714  0.2929  0.3564
  177MOL0     H23847   2.036   2.402   5.521 -0.2212  2.4803 -0.6854
  177MOL0     H23848   2.028   2.541   5.634 -2.8968  0.4950 -5.7450
  177MOL0     H23849   2.277   2.402   5.532 -0.8954  0.0537  1.9897
  177MOL0     H23850   2.257   2.566   5.616 -4.2804  0.7398  3.3549
  177MOL0     H23851   2.117   2.647   5.420 -1.5996 -1.1554 -3.6306
  177MOL0     H23852   2.122   2.499   5.351  0.3044 -1.0587 -0.1997
  177MOL0     H23853   2.365   2.669   5.409  0.2407 -2.1993  3.1575
  177MOL0     H23854   2.290   2.626   5.247 -3.7065 -0.4385  1.1367
  177MOL0     H23855   2.544   2.715   5.249 -0.3634  0.8426  0.1200
  177MOL0     H23856   2.742   2.821   5.183 -0.9883 -0.9945 -1.4184
  177MOL0     H23857   2.897   2.727   5.146  0.2958 -4.0507 -0.6142
  177MOL0     H23858   2.768   2.769   5.025 -0.5103  2.1806  0.1233
  177MOL0     H23859   2.920   2.478   4.679  0.2073  0.3124 -2.3676
  177MOL0     H23860   3.124   2.471   4.535 -0.0988 -0.7016  0.3215
  177MOL0     H23861   3.297   2.423   4.443  0.5188  0.4050 -4.1950
  177MOL0     H23862   3.289   2.597   4.440  0.2495 -1.1179  0.6101
  177MOL0     H23863   3.537   2.417   4.432  4.2796  1.2657 -2.9740
  177MOL0     H23864   3.462   2.530   4.305  2.5590  1.0338 -0.5707
  177MOL0     H23865   3.610   2.614   4.555  1.1545 -0.6220 -1.0323
  177MOL0     H23866   3.507   2.720   4.462  0.3333 -0.2370  0.8329
  177MOL0     H23867   3.745   2.564   4.348  0.4087  0.1941  1.8473
  177MOL0     H23868   3.674   2.700   4.265  0.2645 -0.8164 -0.1496
  177MOL0     H23869   3.797   2.727   4.537  1.8363 -0.2483 -0.4538
  177MOL0     H23870   3.723   2.845   4.433 -2.4963 -1.2771 -2.4352
  177MOL0     H23871   3.990   2.684   4.361  2.0389  0.3828 -1.2176
  177MOL0     H23872   3.900   2.795   4.261  2.8613 -2.6294 -0.1917
  177MOL0     H23873   4.049   2.859   4.518 -0.7172 -0.5051  0.0570
  177MOL0     H23874   3.941   2.984   4.443  0.4303 -0.1342  1.9211
  177MOL0     H23875   4.055   3.025   4.270  0.0490 -0.2843  0.6762
  177MOL0     H23876   4.156   2.881   4.261  1.8903  1.1793 -0.2258
  177MOL0     H23877   3.356   2.602   4.871 -2.0802  1.6928  0.8232
  177MOL0     H23878   3.155   2.584   5.016  1.8497  1.8621 -0.5764
  177MOL0     H23879   2.770   2.289   5.149 -1.0196 -2.1612  2.0115
  177MOL0     H23880   2.546   2.282   5.256  0.7723  0.4237  1.3132
  177MOL0     H23881   2.941   1.968   6.311 -0.7912 -1.1331 -0.6765
  177MOL0     H23882   3.080   1.794   6.400 -1.8383 -2.8414 -0.5765
  177MOL0     H23883   3.242   1.535   6.658 -1.7773  0.2481  0.3862
  177MOL0     H23884   3.402   1.382   6.744 -1.9073  0.3691  2.7634
  177MOL0     H23885   3.501   1.066   6.844  0.0998  1.0458  0.9474
  177MOL0     H23886   3.335   1.100   6.873  0.6727  0.5702 -0.3726
  177MOL0     H23887   3.468   0.887   6.713 -0.0501 -0.1416  0.3497
  177MOL0     H23888   3.278   0.893   6.727 -0.4714 -2.0684  1.3733
  177MOL0     H23889   3.294   0.883   6.973 -1.7250  1.1920 -3.2654
  177MOL0     H23890   3.467   0.835   6.945  0.1608 -0.0123 -0.1233
  177MOL0     H23891   3.409   0.636   6.841  1.5482  1.7037  1.5673
  177MOL0     H23892   3.228   0.664   6.854  0.3310 -2.8499  0.3972
  177MOL0     H23893   3.294   0.515   7.232  1.4104  2.2069  0.9756
  177MOL0     H23894   3.169   1.071   6.581  0.1343 -0.0717  1.1118
  177MOL0     H23895   3.008   1.202   6.501  0.7024  0.3875 -0.1360
  178MOL0     O23896   9.629   5.850   2.960  0.2909 -0.4421  0.6678
  178MOL0     C23897   9.527   5.812   3.027  0.1295 -0.1804  0.6303
  178MOL0     O23898   9.415   5.739   2.980  0.4518 -0.3992  0.0480
  178MOL0     C23899   9.387   5.710   2.843 -1.0236 -1.0533 -0.4757
  178MOL0     C23900   9.478   5.737   2.747 -0.4690  0.1143  0.4170
  178MOL0     C23901   9.448   5.726   2.609 -0.0192  0.3427 -0.7160
  178MOL0     C23902   9.325   5.680   2.566  0.1788  0.5982 -0.3883
  178MOL0     O23903   9.295   5.661   2.433  0.5558  0.5298  0.1109
  178MOL0     C23904   9.395   5.670   2.330  0.9494 -0.0241 -0.4124
  178MOL0     C23905   9.347   5.698   2.181  0.1225 -0.2297  0.4996
  178MOL0     C23906   9.225   5.612   2.138  0.1202 -0.3668 -0.1989
  178MOL0     C23907   9.238   5.460   2.135 -0.9775 -0.4475 -0.3090
  178MOL0     C23908   9.101   5.390   2.140 -0.7871  0.3287  0.7057
  178MOL0     C23909   9.104   5.241   2.097 -0.4791  0.2514  0.5782
  178MOL0     C23910   9.196   5.159   2.186  0.9576  0.6124 -0.4212
  178MOL0     C23911   9.165   5.009   2.147  0.1187  1.0067 -0.1001
  178MOL0     N23912   9.033   4.958   2.207 -1.2471  0.3312 -0.8389
  178MOL0     C23913   9.013   4.900   2.330  0.7576 -0.5234  1.1155
  178MOL0     C23914   8.871   4.880   2.328 -0.2557  0.4857  0.3825
  178MOL0     C23915   8.781   4.833   2.435  0.9269 -0.3246 -0.5434
  178MOL0     C23916   8.858   4.736   2.533  0.1126  0.0366 -0.0273
  178MOL0     C23917   8.746   4.671   2.630 -0.2908  0.6602  0.2803
  178MOL0     C23918   8.825   4.606   2.745 -0.4752  0.6277  0.1803
  178MOL0     O23919   8.861   4.702   2.840  0.2204  0.2557 -0.0391
  178MOL0     C23920   8.907   4.657   2.959 -0.3626 -0.1520  0.0537
  178MOL0     C23921   8.858   4.716   3.082 -0.2293 -0.2403  0.1997
  178MOL0     C23922   8.906   4.666   3.199 -1.2367 -0.8645 -0.2417
  178MOL0     C23923   8.845   4.729   3.325  0.1384  1.0130  0.2942
  178MOL0     C23924   9.003   4.560   3.207  0.1893 -0.2221  0.4634
  178MOL0     C23925   9.054   4.495   3.328  0.4394 -0.1324 -0.3008
  178MOL0     O23926   9.093   4.374   3.317  0.4182  0.1328  0.1612
  178MOL0     C23927   9.211   4.335   3.376  0.1119 -0.3047 -0.7304
  178MOL0     C23928   9.311   4.289   3.287 -0.2976  0.0474 -0.2826
  178MOL0     C23929   9.423   4.217   3.340  0.0460 -1.1623  0.4375
  178MOL0     C23930   9.445   4.201   3.474 -0.3827  0.0721 -0.8804
  178MOL0     O23931   9.546   4.129   3.531  0.4873 -0.3581  0.5432
  178MOL0     C23932   9.674   4.094   3.480 -0.0386  0.4002 -0.0300
  178MOL0     C23933   9.738   3.988   3.557 -0.4764  0.0355 -0.3934
  178MOL0     C23934   9.868   3.920   3.501 -0.2311 -0.5705 -0.0421
  178MOL0     C23935   9.921   3.802   3.589 -0.1149 -0.0996  0.3843
  178MOL0     C23936  10.058   3.749   3.528 -0.4449 -0.0462 -0.1937
  178MOL0     C23937  10.052   3.728   3.375  0.2104  1.1737  0.2202
  178MOL0     C23938  10.162   3.639   3.305  0.4841 -0.2132 -0.2502
  178MOL0     C23939  10.296   3.678   3.352 -0.2077  0.0602  0.0129
  178MOL0    Cl23940  10.344   3.850   3.358 -0.2024  0.0133 -0.0375
  178MOL0     C23941   9.345   4.243   3.563 -0.7847 -0.5038  0.7779
  178MOL0     C23942   9.230   4.305   3.512 -0.5864 -0.7316 -1.0018
  178MOL0     O23943   9.071   4.553   3.434  0.3027  0.3785  0.1337
  178MOL0     C23944   9.047   4.505   3.081 -0.5041 -0.2082 -0.8774
  178MOL0     C23945   8.999   4.564   2.962  0.1956  0.4285  0.7860
  178MOL0     N23946   8.819   4.939   2.217  0.9004 -0.3508 -1.1072
  178MOL0     N23947   8.916   4.966   2.145  0.9423 -0.2119  0.1509
  178MOL0     C23948   9.230   5.655   2.670 -0.2775 -0.2630 -0.1953
  178MOL0     C23949   9.256   5.672   2.805  0.4245 -0.1906  0.4790
  178MOL0     C23950   9.513   5.844   3.169 -0.5255 -0.0144 -0.2090
  178MOL0     C23951   9.591   5.941   3.228 -0.7866 -1.2366  0.0823
  178MOL0     C23952   9.595   5.963   3.365 -0.0549  0.7352 -0.6488
  178MOL0     C23953   9.503   5.891   3.446 -0.4728  0.8969  0.0140
  178MOL0     O23954   9.497   5.900   3.585  0.3608 -0.0929 -0.6296
  178MOL0     C23955   9.623   5.859   3.650 -1.1066  0.3782  0.3209
  178MOL0     C23956   9.617   5.893   3.798 -0.4992  1.1700  0.3232
  178MOL0     C23957   9.599   6.042   3.820  0.4057  0.2958  0.2167
  178MOL0     C23958   9.739   6.095   3.848 -1.0780  1.2573  0.2335
  178MOL0     C23959   9.752   6.239   3.837 -0.6912 -0.2107  0.3489
  178MOL0     C23960   9.771   6.361   3.842 -0.3893 -0.3741  0.9338
  178MOL0     C23961   9.410   5.809   3.381  0.1797 -0.8212 -0.1160
  178MOL0     C23962   9.419   5.779   3.242 -0.7042 -0.4894 -0.4118
  178MOL0     H23963   9.580   5.771   2.763 -0.3694 -0.8085  1.9805
  178MOL0     H23964   9.531   5.741   2.541  2.6731 -0.5209  2.1352
  178MOL0     H23965   9.464   5.753   2.352 -1.2650  1.1367  2.9616
  178MOL0     H23966   9.442   5.572   2.319 -2.4803 -1.8317 -0.3033
  178MOL0     H23967   9.324   5.805   2.176 -0.9120 -0.4240  0.9435
  178MOL0     H23968   9.437   5.679   2.121  2.8479  2.1075  3.5525
  178MOL0     H23969   9.139   5.636   2.202 -0.5331 -1.7580 -0.5010
  178MOL0     H23970   9.197   5.655   2.041  0.0032  3.4284  1.3298
  178MOL0     H23971   9.284   5.440   2.037 -1.4489 -1.1630 -0.3921
  178MOL0     H23972   9.313   5.409   2.196  0.8858  0.8559 -1.3849
  178MOL0     H23973   9.065   5.392   2.243  4.2251  3.3411  2.7830
  178MOL0     H23974   9.043   5.451   2.071  2.9550  0.3232 -2.8277
  178MOL0     H23975   9.000   5.209   2.104 -0.9568  1.8949  1.7915
  178MOL0     H23976   9.140   5.237   1.994 -0.2189 -1.4294  0.7061
  178MOL0     H23977   9.303   5.166   2.168  1.2049 -5.6876 -4.5526
  178MOL0     H23978   9.158   5.175   2.287 -0.8828  0.4805 -1.0502
  178MOL0     H23979   9.245   4.940   2.177 -2.3308 -0.5783  3.4341
  178MOL0     H23980   9.168   4.993   2.039  1.5668 -2.8816  0.3474
  178MOL0     H23981   9.078   4.858   2.406 -1.3367 -0.4413  3.0617
  178MOL0     H23982   8.731   4.917   2.485 -0.6991  0.4110 -3.2109
  178MOL0     H23983   8.703   4.773   2.388 -0.5079  0.9706  0.0717
  178MOL0     H23984   8.931   4.797   2.587 -0.9809  1.2665  0.0889
  178MOL0     H23985   8.906   4.648   2.490 -0.6931  1.0527 -3.2257
  178MOL0     H23986   8.689   4.590   2.584  0.0947  0.0451  0.8749
  178MOL0     H23987   8.673   4.743   2.668 -1.6832 -0.2598 -0.5501
  178MOL0     H23988   8.907   4.553   2.696  1.4314  2.1127  1.6219
  178MOL0     H23989   8.765   4.532   2.799 -1.3262  1.7653  0.8251
  178MOL0     H23990   8.776   4.788   3.081  1.1784  1.4315 -0.3934
  178MOL0     H23991   8.834   4.651   3.401  0.4405  0.2489 -0.4282
  178MOL0     H23992   8.922   4.798   3.362  0.6758 -0.2831  1.7154
  178MOL0     H23993   8.751   4.784   3.311 -1.9455 -2.4256 -0.2182
  178MOL0     H23994   9.296   4.296   3.179  2.0477  0.5361 -0.6329
  178MOL0     H23995   9.512   4.186   3.285  1.4466  0.9430  1.3417
  178MOL0     H23996   9.660   4.056   3.378  1.4186  1.3476 -0.6047
  178MOL0     H23997   9.740   4.181   3.473  0.3300  0.0403 -1.3555
  178MOL0     H23998   9.767   4.040   3.648  0.3841  0.9924 -1.1873
  178MOL0     H23999   9.669   3.905   3.578  1.0318 -1.2236 -0.2290
  178MOL0     H24000   9.948   3.994   3.492 -2.2234  1.8054  0.6756
  178MOL0     H24001   9.833   3.881   3.405  1.0674 -1.7438 -0.0567
  178MOL0     H24002   9.953   3.846   3.684 -0.4556  1.3409 -0.1408
  178MOL0     H24003   9.852   3.718   3.596 -0.8242  0.4174 -0.2673
  178MOL0     H24004  10.076   3.651   3.572 -2.3385 -1.5730 -2.5858
  178MOL0     H24005  10.140   3.815   3.558 -0.6921 -0.2553  0.9962
  178MOL0     H24006   9.954   3.683   3.356  0.8036 -0.1101  0.0728
  178MOL0     H24007  10.045   3.828   3.331  2.2492  2.1333  1.9122
  178MOL0     H24008  10.150   3.652   3.196 -0.7832  1.8533  0.0698
  178MOL0     H24009  10.145   3.535   3.335  0.7197  0.0102  0.6603
  178MOL0     H24010  10.360   3.627   3.280 -1.4432  1.5304 -2.2315
  178MOL0     H24011  10.315   3.645   3.455 -1.4254  3.1819  1.3968
  178MOL0     H24012   9.365   4.220   3.667  2.7220 -2.1134 -0.0973
  178MOL0     H24013   9.143   4.330   3.571  1.1924 -0.2896  1.6108
  178MOL0     H24014   9.104   4.413   3.076 -0.1722  0.0281 -1.6323
  178MOL0     H24015   9.029   4.525   2.865 -1.4066 -0.7208  0.7167
  178MOL0     H24016   9.129   5.625   2.645 -0.7743  0.1992  1.1519
  178MOL0     H24017   9.165   5.664   2.864 -0.7578  0.9322 -1.0852
  178MOL0     H24018   9.652   6.004   3.165  0.0003 -1.6760  0.3811
  178MOL0     H24019   9.660   6.039   3.407 -0.8612  0.2129  1.6939
  178MOL0     H24020   9.639   5.752   3.643 -1.0347  0.4746 -1.4616
  178MOL0     H24021   9.704   5.913   3.600  0.3621 -1.0353  1.1357
  178MOL0     H24022   9.709   5.865   3.851  1.4626  4.1457 -1.2468
  178MOL0     H24023   9.525   5.852   3.842 -2.4153  2.6007 -2.0565
  178MOL0     H24024   9.527   6.060   3.901 -1.3010 -2.8851 -0.4163
  178MOL0     H24025   9.568   6.086   3.725  0.2358 -1.1220 -0.4176
  178MOL0     H24026   9.816   6.057   3.781 -3.0878 -0.2624 -1.3682
  178MOL0     H24027   9.774   6.075   3.949  1.8477 -0.8231 -1.0487
  178MOL0     H24028   9.775   6.468   3.836  0.7347 -0.5032 -2.1035
  178MOL0     H24029   9.339   5.761   3.447  0.6464 -1.0700  0.2111
  178MOL0     H24030   9.358   5.700   3.199  1.0125 -2.4528  0.5535
  179MOL0     O24031   4.852  10.124   1.792  0.3741 -1.3248 -0.9324
  179MOL0     C24032   4.973  10.105   1.789 -0.2156 -0.0607 -0.5118
  179MOL0     O24033   5.062  10.186   1.841 -0.1837 -0.4439  0.4445
  179MOL0     C24034   5.035  10.320   1.866  0.6945  0.1259 -0.4198
  179MOL0     C24035   4.952  10.394   1.769  0.6995 -0.2164  0.1994
  179MOL0     C24036   4.922  10.530   1.791  0.0091  0.2944  0.4389
  179MOL0     C24037   4.959  10.587   1.902  0.1766  0.2039 -1.0340
  179MOL0     O24038   4.947  10.724   1.924 -0.2667 -0.2968  1.0620
  179MOL0     C24039   5.028  10.801   1.826  1.1444 -0.6996  0.2598
  179MOL0     C24040   4.946  10.869   1.714 -1.1276  0.9054  0.3069
  179MOL0     C24041   4.844  10.960   1.781 -0.4511  0.3467 -0.3612
  179MOL0     C24042   4.775  11.039   1.665 -0.1322 -0.4795  0.7276
  179MOL0     C24043   4.703  11.165   1.717  0.9297 -0.5121 -0.9326
  179MOL0     C24044   4.571  11.128   1.799 -0.1288  0.9072 -0.3818
  179MOL0     C24045   4.480  11.245   1.829 -0.2406  0.1391 -0.4164
  179MOL0     C24046   4.342  11.188   1.870 -0.1922 -0.1067  0.2576
  179MOL0     N24047   4.250  11.302   1.876 -0.6660  0.4694 -0.2608
  179MOL0     C24048   4.228  11.381   1.990 -0.2074 -0.1209  0.3933
  179MOL0     C24049   4.151  11.479   1.946 -0.0295  0.5210  0.1064
  179MOL0     C24050   4.092  11.591   2.026 -0.5257 -0.1296  0.1573
  179MOL0     C24051   4.176  11.725   2.010 -0.1062 -0.5285  0.4250
  179MOL0     C24052   4.159  11.791   1.872  0.3983  0.4391  0.5450
  179MOL0     C24053   4.280  11.781   1.784  0.1789 -0.1988  0.0321
  179MOL0     O24054   4.281  11.885   1.676 -1.3238  0.3832 -0.8312
  179MOL0     C24055   4.214  11.875   1.565  0.1801 -0.1041 -0.3023
  179MOL0     C24056   4.222  11.985   1.484 -0.1141  0.5587  0.2134
  179MOL0     C24057   4.144  11.992   1.372 -0.4056 -0.1007 -0.4477
  179MOL0     C24058   4.162  12.126   1.301  0.0820 -0.2665 -0.1107
  179MOL0     C24059   4.055  11.885   1.345  0.3516  0.3009  0.4453
  179MOL0     C24060   3.972  11.878   1.228  0.0957 -0.0436  0.0783
  179MOL0     O24061   3.907  11.763   1.204  0.4827 -0.0845  0.7507
  179MOL0     C24062   3.792  11.770   1.127 -0.1889  0.4205  0.2077
  179MOL0     C24063   3.696  11.872   1.136 -1.1380  0.0118  0.2447
  179MOL0     C24064   3.575  11.863   1.069 -0.4374 -0.4349 -0.0153
  179MOL0     C24065   3.565  11.781   0.954 -0.2738 -0.1829 -0.9484
  179MOL0     O24066   3.447  11.791   0.881  0.0497 -0.8971  0.1682
  179MOL0     C24067   3.446  11.747   0.748  0.2017  0.5427  0.6744
  179MOL0     C24068   3.320  11.802   0.672 -0.7687 -0.3219  0.9347
  179MOL0     C24069   3.193  11.724   0.712 -0.1882  0.1926 -0.0987
  179MOL0     C24070   3.062  11.798   0.705  0.2699 -0.4323  0.1368
  179MOL0     C24071   2.932  11.711   0.724  0.5939  0.5829  0.0546
  179MOL0     C24072   2.908  11.642   0.854  1.5740  0.3565 -0.8842
  179MOL0     C24073   2.899  11.739   0.971 -0.3905 -0.1441 -0.2098
  179MOL0     C24074   2.870  11.676   1.111  0.5143 -0.1408  0.8756
  179MOL0    Cl24075   2.871  11.795   1.253  0.0943 -0.1717  0.3302
  179MOL0     C24076   3.659  11.680   0.950  0.4168  0.6520 -0.7321
  179MOL0     C24077   3.767  11.673   1.036 -0.2907 -0.4716 -0.9895
  179MOL0     O24078   3.964  11.983   1.166  0.2747 -0.7477 -0.4532
  179MOL0     C24079   4.062  11.766   1.427  1.1549 -1.5556  0.4298
  179MOL0     C24080   4.144  11.763   1.533  1.2690  0.4064 -0.4087
  179MOL0     N24081   4.117  11.460   1.812 -0.4872  0.0248  0.4914
  179MOL0     N24082   4.179  11.352   1.776 -0.4710  0.2231  0.4931
  179MOL0     C24083   5.043  10.527   1.997 -0.0350 -0.6110 -0.9553
  179MOL0     C24084   5.086  10.390   1.968 -1.0034 -0.3442 -0.1622
  179MOL0     C24085   5.014   9.968   1.751 -0.8430  0.9442 -0.3547
  179MOL0     C24086   5.139   9.907   1.791  0.8038 -0.4662  0.0747
  179MOL0     C24087   5.155   9.775   1.764 -0.4712 -0.4741  0.5522
  179MOL0     C24088   5.067   9.700   1.691 -1.1182  0.8317 -0.1141
  179MOL0     O24089   5.094   9.565   1.684  0.6630 -0.6545 -0.3631
  179MOL0     C24090   5.116   9.524   1.552  0.2693 -0.2546  0.2200
  179MOL0     C24091   5.199   9.394   1.556  1.1750 -0.2327 -0.4092
  179MOL0     C24092   5.235   9.326   1.424 -0.6298 -0.5965  0.3340
  179MOL0     C24093   5.334   9.395   1.336  0.7904  0.2057  0.6938
  179MOL0     C24094   5.477   9.391   1.381  0.3957 -0.0092  0.8006
  179MOL0     C24095   5.600   9.383   1.390 -0.3556 -0.1907  0.7176
  179MOL0     C24096   4.948   9.757   1.645 -0.0308  0.2703 -0.5688
  179MOL0     C24097   4.919   9.891   1.683 -0.8902  0.6848 -0.8157
  179MOL0     H24098   4.917  10.347   1.678  2.4507 -1.5893  0.1856
  179MOL0     H24099   4.868  10.587   1.717  1.2627 -1.4597 -1.9880
  179MOL0     H24100   5.080  10.878   1.883  5.0016 -1.1716 -2.2723
  179MOL0     H24101   5.107  10.751   1.769 -0.4415 -0.1358 -2.6569
  179MOL0     H24102   5.017  10.932   1.660 -0.5685 -1.4238 -1.8949
  179MOL0     H24103   4.913  10.792   1.643  0.5631 -1.0977  1.5746
  179MOL0     H24104   4.781  10.887   1.832  1.1728 -0.9043 -0.0541
  179MOL0     H24105   4.896  11.028   1.850 -1.1122  2.2049 -1.6144
  179MOL0     H24106   4.851  11.067   1.591 -1.5711 -1.8655 -1.4205
  179MOL0     H24107   4.701  10.980   1.610  0.2281 -3.4652  3.2180
  179MOL0     H24108   4.772  11.205   1.791 -1.4548 -0.7803  1.5603
  179MOL0     H24109   4.673  11.230   1.634 -0.6541  0.9930  0.7297
  179MOL0     H24110   4.517  11.048   1.749 -0.3328  1.8850 -1.7714
  179MOL0     H24111   4.619  11.097   1.893  7.2523  4.2535 -2.2641
  179MOL0     H24112   4.522  11.323   1.893  1.2410 -0.1657 -0.9820
  179MOL0     H24113   4.467  11.306   1.740 -4.4810 -2.2121 -1.6513
  179MOL0     H24114   4.368  11.136   1.962  1.6864  0.4292  0.0804
  179MOL0     H24115   4.304  11.114   1.799  1.1746 -2.2037  1.6038
  179MOL0     H24116   4.255  11.365   2.093  1.5305 -1.7550 -0.2524
  179MOL0     H24117   3.987  11.585   1.996 -0.1569 -4.9177 -1.0230
  179MOL0     H24118   4.099  11.558   2.130  1.1289 -0.5821 -0.0597
  179MOL0     H24119   4.284  11.719   2.021  0.4937  4.0063 -1.2041
  179MOL0     H24120   4.147  11.784   2.098  2.2209  0.6621  0.4587
  179MOL0     H24121   4.144  11.898   1.887  0.9625  0.2380  2.9916
  179MOL0     H24122   4.079  11.743   1.815  1.2811  0.9822 -1.2279
  179MOL0     H24123   4.285  11.681   1.738  2.6625 -1.6051  2.9673
  179MOL0     H24124   4.375  11.798   1.835  0.2807  2.5515 -0.8936
  179MOL0     H24125   4.293  12.067   1.491  0.6879  0.1958 -2.5682
  179MOL0     H24126   4.253  12.181   1.325 -1.1418  0.9238  2.1022
  179MOL0     H24127   4.161  12.110   1.192  2.1402 -1.0229 -0.0547
  179MOL0     H24128   4.075  12.190   1.322 -0.4428 -0.2781 -2.0075
  179MOL0     H24129   3.719  11.965   1.186 -0.3362  1.1989 -2.1738
  179MOL0     H24130   3.497  11.935   1.090 -0.3880  0.5610 -2.8298
  179MOL0     H24131   3.536  11.777   0.694 -0.1329  0.2929 -0.0399
  179MOL0     H24132   3.445  11.639   0.731 -0.2617  0.9029 -2.0357
  179MOL0     H24133   3.306  11.907   0.698  0.1093  0.9155 -3.0653
  179MOL0     H24134   3.335  11.785   0.566 -0.5545 -1.1347  1.0874
  179MOL0     H24135   3.219  11.692   0.814  4.3869 -2.6078 -1.7975
  179MOL0     H24136   3.190  11.631   0.655 -3.2801 -0.2713  0.6785
  179MOL0     H24137   3.067  11.887   0.768  1.7337 -0.3335 -0.0847
  179MOL0     H24138   3.045  11.829   0.602 -0.1570  2.6885  1.0673
  179MOL0     H24139   2.935  11.643   0.638  2.3994  0.0564  0.4794
  179MOL0     H24140   2.846  11.778   0.718  1.1384  1.5164  1.8673
  179MOL0     H24141   2.810  11.593   0.854  0.7009  1.7908  3.1217
  179MOL0     H24142   2.984  11.565   0.874 -0.6073 -1.6137  0.2879
  179MOL0     H24143   2.826  11.817   0.948 -0.6384  0.3528  2.0346
  179MOL0     H24144   2.995  11.789   0.988 -1.0979  0.6562  1.7004
  179MOL0     H24145   2.937  11.595   1.140  1.7845 -1.3043 -4.2651
  179MOL0     H24146   2.772  11.632   1.092  0.5286  0.8269 -1.9952
  179MOL0     H24147   3.643  11.604   0.873 -1.6382  0.5616 -0.2811
  179MOL0     H24148   3.833  11.587   1.042 -0.4241 -0.6144 -1.5824
  179MOL0     H24149   3.998  11.682   1.403 -0.6178 -0.0541 -0.3278
  179MOL0     H24150   4.141  11.673   1.592  0.0926  2.0034  2.1294
  179MOL0     H24151   5.079  10.572   2.089 -4.1339 -2.1335  1.6858
  179MOL0     H24152   5.141  10.339   2.047 -0.6118 -0.1932 -0.3343
  179MOL0     H24153   5.212   9.963   1.848  5.0391 -1.3788 -3.8609
  179MOL0     H24154   5.250   9.735   1.799  0.5333 -1.3481 -2.8451
  179MOL0     H24155   5.019   9.506   1.505 -0.7413  0.1472  2.0868
  179MOL0     H24156   5.164   9.605   1.496 -0.3084 -0.0760 -0.0207
  179MOL0     H24157   5.147   9.318   1.614  0.8432  0.9193  0.8402
  179MOL0     H24158   5.290   9.419   1.612 -0.1020  1.3824  1.0287
  179MOL0     H24159   5.143   9.319   1.365 -0.3236  1.9134 -0.5604
  179MOL0     H24160   5.274   9.225   1.436 -1.2238 -1.0779 -1.4408
  179MOL0     H24161   5.308   9.500   1.321  0.1123 -0.2968 -2.3276
  179MOL0     H24162   5.321   9.354   1.236 -0.3250  0.2662  0.7974
  179MOL0     H24163   5.707   9.379   1.393 -0.3494 -1.6649 -0.1743
  179MOL0     H24164   4.872   9.707   1.585 -1.1610  2.5635 -1.1550
  179MOL0     H24165   4.823   9.933   1.654  0.2310  4.6689  0.5244
  180MOL0     O24166   2.426   4.397   2.923  0.1177  0.4520 -1.1228
  180MOL0     C24167   2.501   4.495   2.947  0.1805 -0.1193  0.2731
  180MOL0     O24168   2.597   4.494   3.049 -0.3736  0.3507  0.1888
  180MOL0     C24169   2.634   4.386   3.125 -1.6430  1.0977  0.3565
  180MOL0     C24170   2.712   4.427   3.234 -0.3852  0.5824 -0.4581
  180MOL0     C24171   2.754   4.323   3.320  0.4240  0.4170  0.1364
  180MOL0     C24172   2.731   4.182   3.292  1.0053  0.1801  0.4624
  180MOL0     O24173   2.769   4.093   3.390 -0.9369  0.1184  0.0529
  180MOL0     C24174   2.693   3.972   3.413 -0.5123  0.3971 -0.4387
  180MOL0     C24175   2.543   3.989   3.444  0.6848 -0.3435 -0.4244
  180MOL0     C24176   2.511   4.110   3.542  0.8920  0.1227 -0.9643
  180MOL0     C24177   2.359   4.111   3.591 -0.4055 -0.0224  0.0248
  180MOL0     C24178   2.337   4.207   3.701  0.9621  0.6103  0.0527
  180MOL0     C24179   2.192   4.206   3.745 -0.1782  0.2844  0.3182
  180MOL0     C24180   2.106   4.333   3.702  0.2367 -0.1121  0.9242
  180MOL0     C24181   2.142   4.453   3.784 -0.1218  0.0551  0.8181
  180MOL0     N24182   2.057   4.570   3.754  0.0608  0.2682 -0.0895
  180MOL0     C24183   2.087   4.666   3.658 -0.3905 -0.3193 -0.2975
  180MOL0     C24184   1.996   4.768   3.674  0.0148 -0.9392 -1.2415
  180MOL0     C24185   1.960   4.878   3.582 -0.3781  0.6173  0.5326
  180MOL0     C24186   1.927   4.840   3.435 -1.0191  0.7448  0.6249
  180MOL0     C24187   1.779   4.808   3.413 -0.1593  0.1535  0.8078
  180MOL0     C24188   1.681   4.928   3.409  0.3130 -0.6306  0.4235
  180MOL0     O24189   1.734   5.061   3.435  1.4311  0.6867  0.0104
  180MOL0     C24190   1.761   5.132   3.319 -0.0921 -0.2626 -1.3370
  180MOL0     C24191   1.751   5.279   3.334  0.3734  0.1057  0.1384
  180MOL0     C24192   1.761   5.377   3.233 -1.0655 -0.1340  1.1563
  180MOL0     C24193   1.748   5.524   3.266 -0.0966 -1.7889 -0.1328
  180MOL0     C24194   1.794   5.333   3.096  0.5576 -0.3942 -0.4547
  180MOL0     C24195   1.831   5.421   2.984 -0.0522  0.2023  0.4765
  180MOL0     O24196   1.912   5.374   2.886  0.1567 -0.6811 -0.4389
  180MOL0     C24197   1.941   5.459   2.782 -0.5615 -0.2783  0.0976
  180MOL0     C24198   1.849   5.465   2.683  0.3480 -1.2614 -0.2465
  180MOL0     C24199   1.880   5.554   2.572  0.1724  0.8372 -0.4983
  180MOL0     C24200   1.993   5.638   2.568  0.6153 -1.0225  0.0142
  180MOL0     O24201   2.034   5.733   2.475  0.1413  0.1944  0.1846
  180MOL0     C24202   1.971   5.731   2.350 -0.0313  0.6006  0.2071
  180MOL0     C24203   2.030   5.628   2.247 -1.3718  0.0432 -0.3605
  180MOL0     C24204   2.163   5.691   2.219 -0.8721 -0.1846  0.5079
  180MOL0     C24205   2.229   5.626   2.100 -0.5727 -0.6774 -0.3837
  180MOL0     C24206   2.373   5.664   2.067  0.3682 -0.7623  0.0051
  180MOL0     C24207   2.440   5.604   1.948  0.2087  0.9806 -0.5567
  180MOL0     C24208   2.597   5.609   1.971  1.2760  0.0230 -0.4425
  180MOL0     C24209   2.670   5.610   1.831  0.1450 -0.5097 -0.6648
  180MOL0    Cl24210   2.628   5.744   1.725  0.4365 -0.1173  0.2561
  180MOL0     C24211   2.071   5.636   2.684  0.4139  0.7445 -0.2682
  180MOL0     C24212   2.053   5.539   2.785 -0.0891 -0.0135  0.4765
  180MOL0     O24213   1.770   5.528   2.978 -1.0903 -0.4721  0.1563
  180MOL0     C24214   1.816   5.189   3.082  0.5656 -0.9134 -0.3285
  180MOL0     C24215   1.796   5.094   3.187 -0.5735 -0.2624 -0.4450
  180MOL0     N24216   1.910   4.736   3.774 -0.0267 -0.0502 -0.1484
  180MOL0     N24217   1.952   4.630   3.821 -0.4586 -0.7365  0.5898
  180MOL0     C24218   2.667   4.148   3.172 -1.6697 -0.1170  0.0059
  180MOL0     C24219   2.616   4.249   3.087 -0.0119 -0.3855 -1.1600
  180MOL0     C24220   2.500   4.613   2.860 -0.8937 -0.2080  0.5068
  180MOL0     C24221   2.526   4.746   2.909 -0.2350  0.0816  0.9817
  180MOL0     C24222   2.518   4.847   2.807 -0.5276  0.1070  0.3575
  180MOL0     C24223   2.520   4.823   2.667  0.1841 -0.4115 -0.1471
  180MOL0     O24224   2.534   4.935   2.588  0.1037 -0.9475  0.5319
  180MOL0     C24225   2.572   4.911   2.449 -0.1869  0.3718  0.2455
  180MOL0     C24226   2.450   4.887   2.356  0.6023  0.2473  0.2022
  180MOL0     C24227   2.494   4.816   2.226  0.3451 -0.2153  0.7363
  180MOL0     C24228   2.608   4.876   2.150 -0.0406 -0.6227 -0.5401
  180MOL0     C24229   2.743   4.845   2.204  0.6199 -1.1592 -0.4928
  180MOL0     C24230   2.850   4.844   2.246  0.3155  0.1967 -0.2897
  180MOL0     C24231   2.500   4.698   2.625  0.3416 -0.0548  0.4574
  180MOL0     C24232   2.483   4.595   2.722 -0.8404 -0.0204  0.9551
  180MOL0     H24233   2.742   4.524   3.271  1.1595  0.1390 -0.4816
  180MOL0     H24234   2.799   4.355   3.413 -0.7527  0.6482  0.6313
  180MOL0     H24235   2.717   3.891   3.344  1.9830 -0.5306  1.3672
  180MOL0     H24236   2.744   3.926   3.498 -2.7327  0.8097  1.2204
  180MOL0     H24237   2.482   4.004   3.355 -1.7027 -0.4375  1.0899
  180MOL0     H24238   2.504   3.900   3.495 -2.1617  0.5697 -0.7972
  180MOL0     H24239   2.578   4.114   3.628  1.6757  1.0125 -1.5905
  180MOL0     H24240   2.520   4.204   3.486 -5.0050  1.4490 -0.3697
  180MOL0     H24241   2.300   4.140   3.504 -3.5917  2.4793  2.7484
  180MOL0     H24242   2.334   4.009   3.623  0.2516  0.4218  2.1980
  180MOL0     H24243   2.394   4.188   3.792  3.2400  1.5879 -1.0830
  180MOL0     H24244   2.360   4.309   3.668 -1.4879  1.3966  0.5708
  180MOL0     H24245   2.133   4.116   3.726 -1.5864  1.6547 -2.3730
  180MOL0     H24246   2.195   4.202   3.855  0.1981 -1.0208  0.2694
  180MOL0     H24247   2.128   4.354   3.597 -1.8782 -1.5594  0.1261
  180MOL0     H24248   2.000   4.318   3.723  0.4062  2.4585  4.4577
  180MOL0     H24249   2.250   4.474   3.778 -0.1085  0.1470  1.3541
  180MOL0     H24250   2.124   4.429   3.889 -0.5764 -1.2202  0.4711
  180MOL0     H24251   2.160   4.670   3.577  1.4432  2.2146  1.3280
  180MOL0     H24252   1.880   4.940   3.622 -1.9316 -2.1127  1.9165
  180MOL0     H24253   2.047   4.945   3.582 -0.1872  0.4496 -1.4864
  180MOL0     H24254   1.984   4.753   3.400 -2.6319  0.0506 -0.3855
  180MOL0     H24255   1.961   4.917   3.365 -1.4036 -0.4376 -0.9131
  180MOL0     H24256   1.751   4.746   3.499 -2.0153 -1.3483 -0.7723
  180MOL0     H24257   1.754   4.751   3.323  1.4655  2.0406 -0.9397
  180MOL0     H24258   1.606   4.905   3.485  1.7003  0.9557  2.3965
  180MOL0     H24259   1.641   4.929   3.308  0.8347  0.4249  0.2089
  180MOL0     H24260   1.732   5.316   3.435 -0.6706 -1.5560  0.6039
  180MOL0     H24261   1.832   5.585   3.232 -1.8522 -0.7828 -3.1458
  180MOL0     H24262   1.669   5.559   3.198 -0.0411 -2.8023 -0.7317
  180MOL0     H24263   1.731   5.547   3.372  2.6202 -0.0789  0.0452
  180MOL0     H24264   1.773   5.389   2.691 -0.6728 -0.4187 -1.5441
  180MOL0     H24265   1.808   5.540   2.492 -1.4164  0.4727  0.9349
  180MOL0     H24266   1.863   5.715   2.356 -0.0183  0.2818 -0.4005
  180MOL0     H24267   1.975   5.833   2.313 -3.7084  1.5086  1.7819
  180MOL0     H24268   2.053   5.538   2.305 -0.6922  0.5917  0.2382
  180MOL0     H24269   1.966   5.608   2.160  3.7236 -0.4471 -4.4766
  180MOL0     H24270   2.233   5.672   2.300 -1.6994 -2.3232  0.8043
  180MOL0     H24271   2.153   5.799   2.207 -0.7105 -0.3325 -1.3413
  180MOL0     H24272   2.236   5.521   2.131 -2.1350 -0.4391  0.9337
  180MOL0     H24273   2.156   5.630   2.019 -1.7777 -2.5868  0.5241
  180MOL0     H24274   2.429   5.653   2.161  4.4597 -0.9139 -2.1860
  180MOL0     H24275   2.391   5.772   2.059  0.3337 -0.5108  2.3883
  180MOL0     H24276   2.400   5.505   1.924  0.9899  0.4468  0.2654
  180MOL0     H24277   2.415   5.671   1.865  2.6533  0.9603 -1.3879
  180MOL0     H24278   2.632   5.541   2.050 -5.8377 -1.1226  2.4554
  180MOL0     H24279   2.618   5.710   2.007  2.2331  0.0693 -1.0917
  180MOL0     H24280   2.654   5.508   1.795 -0.4847 -0.8450  0.4998
  180MOL0     H24281   2.777   5.623   1.844 -0.2009  0.9397  1.4213
  180MOL0     H24282   2.158   5.697   2.706  1.1236 -1.1213  2.7054
  180MOL0     H24283   2.115   5.539   2.874  0.6571 -2.5423  0.0413
  180MOL0     H24284   1.841   5.146   2.985 -1.8356  0.2648 -1.5679
  180MOL0     H24285   1.812   4.992   3.153 -2.1989 -0.8718  0.5506
  180MOL0     H24286   2.663   4.046   3.136  0.3882 -0.5762  0.9377
  180MOL0     H24287   2.563   4.207   3.001 -0.6394 -3.7400  0.6743
  180MOL0     H24288   2.545   4.761   3.015  1.4146  1.3614  0.5567
  180MOL0     H24289   2.524   4.954   2.827 -1.3072  0.0552  0.8809
  180MOL0     H24290   2.613   5.001   2.403 -2.7336  2.7111  2.2154
  180MOL0     H24291   2.638   4.825   2.439 -0.0951  0.0245  2.9680
  180MOL0     H24292   2.390   4.976   2.333 -0.7550 -1.5441 -4.0267
  180MOL0     H24293   2.391   4.814   2.412 -3.4079  2.1956 -1.1098
  180MOL0     H24294   2.410   4.801   2.158  2.1553  0.3401 -1.7555
  180MOL0     H24295   2.534   4.718   2.257  2.8680 -0.4338 -2.6200
  180MOL0     H24296   2.601   4.985   2.139 -2.4322 -0.6662  0.0078
  180MOL0     H24297   2.611   4.836   2.049 -0.8470  0.7853 -1.1458
  180MOL0     H24298   2.953   4.830   2.273  0.9797 -1.4939 -3.2007
  180MOL0     H24299   2.492   4.665   2.522  0.9509 -0.5412  0.5627
  180MOL0     H24300   2.465   4.493   2.690  1.5800 -0.2626  0.1921
  181MOL0     O24301   7.001  11.114   4.337  0.3344 -0.3717 -0.7200
  181MOL0     C24302   6.994  11.083   4.453 -0.3016  0.1386  0.2488
  181MOL0     O24303   6.950  10.964   4.499  0.4892  0.0706  0.5991
  181MOL0     C24304   6.889  10.875   4.410  0.0854 -0.1266 -0.5022
  181MOL0     C24305   6.810  10.917   4.303  0.0386 -0.0711  0.0324
  181MOL0     C24306   6.754  10.827   4.215  0.4985 -0.4298 -1.1801
  181MOL0     C24307   6.757  10.687   4.235  0.3924 -0.0236 -0.1778
  181MOL0     O24308   6.711  10.591   4.156 -0.8596  0.7157 -0.0405
  181MOL0     C24309   6.663  10.623   4.028  0.5212 -0.3108 -0.0958
  181MOL0     C24310   6.762  10.645   3.906 -0.5207 -0.0239  0.1945
  181MOL0     C24311   6.847  10.514   3.874 -0.2061  0.2683  0.3635
  181MOL0     C24312   6.948  10.499   3.991  0.7012  0.0312  0.5408
  181MOL0     C24313   7.084  10.432   3.930  0.1613 -0.9741 -0.6323
  181MOL0     C24314   7.049  10.300   3.878 -0.0473  0.9835 -0.8771
  181MOL0     C24315   7.171  10.224   3.824  0.1791 -0.6217  0.0189
  181MOL0     C24316   7.230  10.272   3.695 -0.4056  0.3281  1.7468
  181MOL0     N24317   7.140  10.331   3.587 -0.0655  0.3800  0.1381
  181MOL0     C24318   7.123  10.469   3.561 -0.8543  0.2909  1.0645
  181MOL0     C24319   7.028  10.466   3.471  0.5923 -0.4458  0.2927
  181MOL0     C24320   6.965  10.593   3.396 -1.2028  0.1572 -0.4693
  181MOL0     C24321   7.035  10.618   3.256 -0.0891 -0.4980 -0.8213
  181MOL0     C24322   7.012  10.512   3.147  0.1876 -0.3559  0.0832
  181MOL0     C24323   6.867  10.485   3.130  0.5180 -0.7366 -0.2654
  181MOL0     O24324   6.856  10.397   3.017 -0.3345 -0.5681 -0.7484
  181MOL0     C24325   6.740  10.329   2.985  0.5023 -0.8183 -0.0242
  181MOL0     C24326   6.619  10.331   3.064  0.2124 -0.0100  0.7445
  181MOL0     C24327   6.502  10.263   3.017  0.1256 -0.3125 -0.1601
  181MOL0     C24328   6.381  10.269   3.105 -0.7840 -0.1936  0.2003
  181MOL0     C24329   6.497  10.210   2.883  0.6966  0.5934 -0.8271
  181MOL0     C24330   6.377  10.150   2.819 -0.2212 -0.2054 -0.6825
  181MOL0     O24331   6.389  10.113   2.684 -0.1350 -0.0105  0.7877
  181MOL0     C24332   6.284  10.062   2.603 -0.1419 -0.4623 -0.5493
  181MOL0     C24333   6.151  10.033   2.638  0.3040 -0.2772 -0.4427
  181MOL0     C24334   6.064   9.983   2.539  0.2971  0.2281 -0.3946
  181MOL0     C24335   6.109   9.967   2.404 -0.0028  0.3013  0.6314
  181MOL0     O24336   6.036   9.919   2.297 -0.8347  0.5150 -0.0948
  181MOL0     C24337   5.900   9.872   2.321 -0.5318  0.4561 -0.3932
  181MOL0     C24338   5.903   9.734   2.386 -0.1975  0.7977  0.1581
  181MOL0     C24339   6.009   9.648   2.322  0.0883 -0.1488  0.0416
  181MOL0     C24340   6.007   9.515   2.396 -0.0748 -1.1595  0.3523
  181MOL0     C24341   6.101   9.409   2.328 -0.3495  0.2340 -0.3533
  181MOL0     C24342   6.250   9.453   2.338 -0.0358 -0.3943  0.2633
  181MOL0     C24343   6.339   9.334   2.324 -0.8271 -0.5124 -0.0580
  181MOL0     C24344   6.482   9.363   2.358 -0.0230 -0.3192  0.2732
  181MOL0    Cl24345   6.564   9.206   2.326  0.0251 -0.2288  0.0263
  181MOL0     C24346   6.236  10.009   2.367  0.9883 -0.9494 -0.0122
  181MOL0     C24347   6.320  10.046   2.468  0.1866 -0.4403  0.7864
  181MOL0     O24348   6.269  10.138   2.878 -0.4258 -0.3582  0.6004
  181MOL0     C24349   6.627  10.211   2.810  0.2111 -0.6237 -0.6358
  181MOL0     C24350   6.743  10.258   2.868 -1.6660  0.8914 -0.1378
  181MOL0     N24351   6.997  10.340   3.422 -0.2722  0.5371 -0.3500
  181MOL0     N24352   7.068  10.261   3.499  0.4060  0.1084 -0.2875
  181MOL0     C24353   6.819  10.647   4.360  0.3453 -0.0802  0.5921
  181MOL0     C24354   6.863  10.744   4.455  0.4318 -0.0387  0.0882
  181MOL0     C24355   7.032  11.176   4.565  0.1400 -0.4282 -0.3383
  181MOL0     C24356   7.019  11.140   4.702 -0.6482  0.7870 -0.3541
  181MOL0     C24357   7.071  11.216   4.807  0.2101 -0.2829  0.0864
  181MOL0     C24358   7.128  11.336   4.771 -0.4301 -0.6238  0.7796
  181MOL0     O24359   7.184  11.426   4.863 -0.0654  0.1760 -0.7730
  181MOL0     C24360   7.193  11.387   4.997 -0.6922 -0.1388 -0.0441
  181MOL0     C24361   7.278  11.495   5.070 -0.3183  0.4257  0.6781
  181MOL0     C24362   7.419  11.507   5.023 -0.6271  0.2944 -0.2587
  181MOL0     C24363   7.487  11.620   5.106  0.9331 -0.1011  0.5627
  181MOL0     C24364   7.434  11.744   5.070  0.4476  0.5321  1.0860
  181MOL0     C24365   7.388  11.845   5.020 -0.0094  1.2209 -1.0147
  181MOL0     C24366   7.126  11.379   4.638  0.2157 -0.0848 -0.9138
  181MOL0     C24367   7.072  11.308   4.535 -1.1331  0.2574 -0.4653
  181MOL0     H24368   6.803  11.023   4.282 -0.3320  0.0704  0.8279
  181MOL0     H24369   6.709  10.865   4.124 -0.5895 -1.7899 -1.2491
  181MOL0     H24370   6.594  10.542   4.000 -0.1570 -0.0522  0.7735
  181MOL0     H24371   6.600  10.711   4.041 -0.8150 -1.2993  0.3663
  181MOL0     H24372   6.699  10.672   3.821 -2.5312  2.6944  2.3714
  181MOL0     H24373   6.826  10.734   3.908 -3.0267  1.8828  0.9199
  181MOL0     H24374   6.778  10.429   3.871 -1.9109  1.6123 -0.9207
  181MOL0     H24375   6.902  10.529   3.780  2.5243  1.8922  2.0756
  181MOL0     H24376   6.967  10.600   4.027 -3.7264  0.9401  0.9829
  181MOL0     H24377   6.899  10.443   4.072  1.4131 -0.0866  0.8938
  181MOL0     H24378   7.123  10.501   3.854 -1.3092 -1.1647 -1.6033
  181MOL0     H24379   7.168  10.428   4.000  1.9801 -0.8682 -2.6915
  181MOL0     H24380   7.011  10.243   3.963  3.0476 -0.8749 -0.5875
  181MOL0     H24381   6.973  10.312   3.799  0.3614  2.8736 -1.0387
  181MOL0     H24382   7.250  10.217   3.899 -0.1023  1.4128  0.5776
  181MOL0     H24383   7.148  10.122   3.792  0.3551  0.7411 -5.4779
  181MOL0     H24384   7.277  10.190   3.640  1.4002  1.0396  2.1687
  181MOL0     H24385   7.302  10.353   3.710 -0.4836  0.1474  3.1802
  181MOL0     H24386   7.182  10.553   3.596  2.9354 -1.0934 -1.3879
  181MOL0     H24387   6.857  10.574   3.396 -0.9859 -1.1519  0.4947
  181MOL0     H24388   6.992  10.676   3.461  1.5979 -0.6853 -0.4162
  181MOL0     H24389   7.139  10.648   3.270  0.9886 -4.0480 -0.0241
  181MOL0     H24390   6.980  10.706   3.220 -1.6564 -1.0401  0.1233
  181MOL0     H24391   7.073  10.423   3.166  1.4192 -0.0516 -2.0108
  181MOL0     H24392   7.047  10.558   3.053  0.5556  1.4954  1.0698
  181MOL0     H24393   6.811  10.577   3.108  0.7882 -0.9376 -1.8710
  181MOL0     H24394   6.835  10.433   3.221  1.4987 -1.7751 -0.4886
  181MOL0     H24395   6.609  10.387   3.156 -1.2268  1.4506 -0.2333
  181MOL0     H24396   6.375  10.182   3.171  0.9042  0.0162  0.6668
  181MOL0     H24397   6.389  10.353   3.175  1.5674 -1.6953  1.8906
  181MOL0     H24398   6.285  10.274   3.053 -0.3951 -3.4248 -0.9997
  181MOL0     H24399   6.112  10.053   2.738 -1.6661  2.8974 -1.7104
  181MOL0     H24400   5.970   9.940   2.572  1.0616 -0.4124  1.0162
  181MOL0     H24401   5.845   9.944   2.383  0.6376  1.9113 -1.0148
  181MOL0     H24402   5.854   9.864   2.222 -0.9497  0.3159 -0.1886
  181MOL0     H24403   5.926   9.751   2.491 -2.5243  1.2959  0.6339
  181MOL0     H24404   5.804   9.691   2.367 -0.0270  1.1147 -1.6716
  181MOL0     H24405   6.098   9.712   2.325 -2.8032  4.5919 -2.6919
  181MOL0     H24406   5.999   9.632   2.215  1.5613 -2.5764  0.1747
  181MOL0     H24407   6.044   9.533   2.498  0.7453  0.7339 -0.2133
  181MOL0     H24408   5.909   9.468   2.396  0.6992 -2.8861 -0.5685
  181MOL0     H24409   6.076   9.390   2.223 -0.0966 -3.2099  0.0707
  181MOL0     H24410   6.086   9.317   2.386  0.0014 -1.6143 -3.0043
  181MOL0     H24411   6.273   9.530   2.264  1.5117 -1.2717 -0.2291
  181MOL0     H24412   6.270   9.512   2.427  0.0213 -0.7465  0.4878
  181MOL0     H24413   6.329   9.280   2.230  0.0202 -1.4108  0.3572
  181MOL0     H24414   6.298   9.259   2.392 -2.2880 -2.8377 -3.2865
  181MOL0     H24415   6.474   9.395   2.462 -2.2006  2.6633 -0.6602
  181MOL0     H24416   6.521   9.442   2.293  0.1918 -1.8795 -1.5893
  181MOL0     H24417   6.269  10.012   2.263 -1.6601 -0.4504 -0.9199
  181MOL0     H24418   6.423  10.075   2.450  0.8494 -2.3573  1.2460
  181MOL0     H24419   6.629  10.153   2.718 -2.5201 -0.5819 -0.8148
  181MOL0     H24420   6.840  10.247   2.820 -1.3255  0.1679  0.6719
  181MOL0     H24421   6.824  10.541   4.384 -1.9622 -0.5833 -0.8434
  181MOL0     H24422   6.888  10.699   4.550  1.2870 -2.1517 -1.0640
  181MOL0     H24423   6.954  11.057   4.727 -2.3906  1.5097 -2.2145
  181MOL0     H24424   7.073  11.194   4.913 -2.9798  2.0719  0.7821
  181MOL0     H24425   7.092  11.390   5.038 -1.2958 -3.2283 -1.0354
  181MOL0     H24426   7.233  11.286   5.011 -1.7198 -0.4388  0.8259
  181MOL0     H24427   7.275  11.459   5.174 -1.6035  2.0430  1.2519
  181MOL0     H24428   7.231  11.592   5.050  2.9001  1.8297 -0.6671
  181MOL0     H24429   7.430  11.527   4.916 -0.9547  1.8588 -0.0316
  181MOL0     H24430   7.479  11.417   5.038 -0.4288  0.6581  1.2991
  181MOL0     H24431   7.592  11.636   5.079  1.3513 -1.4210  1.3311
  181MOL0     H24432   7.486  11.594   5.212  1.6697 -3.9025 -0.2362
  181MOL0     H24433   7.354  11.936   4.973  1.2231  1.5464 -1.3235
  181MOL0     H24434   7.171  11.477   4.625  2.4416 -0.6009  1.9108
  181MOL0     H24435   7.085  11.340   4.432  1.2342 -0.0623 -0.3201
  182MOL0     O24436   0.339  10.973   8.519 -0.5293  0.1767 -0.3859
  182MOL0     C24437   0.227  10.935   8.481  0.5768 -0.6721 -0.4591
  182MOL0     O24438   0.195  10.911   8.346  0.2597 -0.2566 -0.3317
  182MOL0     C24439   0.278  10.947   8.248  0.0466 -0.0077  0.2321
  182MOL0     C24440   0.401  10.885   8.222  0.9615  0.6122 -0.0974
  182MOL0     C24441   0.473  10.928   8.112  0.1026 -1.5550  0.7933
  182MOL0     C24442   0.425  11.033   8.028 -0.3339  0.3356  0.1662
  182MOL0     O24443   0.497  11.071   7.920 -0.0234 -0.3295  0.9285
  182MOL0     C24444   0.451  11.029   7.787 -0.2778  0.1074 -0.0348
  182MOL0     C24445   0.546  11.091   7.679  0.0837  1.3928  0.5165
  182MOL0     C24446   0.531  11.245   7.683  0.3449  1.4158  0.1765
  182MOL0     C24447   0.632  11.290   7.569 -0.1421 -0.0098  0.4274
  182MOL0     C24448   0.632  11.445   7.551 -1.1504  0.5237  0.3390
  182MOL0     C24449   0.712  11.494   7.428 -0.4304 -0.3158 -0.8569
  182MOL0     C24450   0.704  11.647   7.434  0.5577  0.3715  0.7069
  182MOL0     C24451   0.591  11.694   7.347  0.6102 -0.1351  0.7245
  182MOL0     N24452   0.562  11.837   7.330 -1.5261  0.0576  0.1995
  182MOL0     C24453   0.497  11.898   7.223  0.7019  0.1498  0.2142
  182MOL0     C24454   0.550  12.014   7.208 -0.2701  0.5202 -0.5408
  182MOL0     C24455   0.527  12.109   7.088  0.0591 -0.5405 -0.9011
  182MOL0     C24456   0.611  12.060   6.963 -0.3097  0.0105 -0.2510
  182MOL0     C24457   0.765  12.088   6.977  0.3911 -1.1481  0.2411
  182MOL0     C24458   0.821  12.233   6.990  0.4374 -0.8330  0.0262
  182MOL0     O24459   0.778  12.283   7.119 -0.1797  0.0777  0.4760
  182MOL0     C24460   0.844  12.395   7.169 -0.2199  0.6103 -0.9631
  182MOL0     C24461   0.932  12.472   7.093 -0.7678 -1.0409  0.5375
  182MOL0     C24462   0.995  12.583   7.151 -0.3971  0.6899 -0.6567
  182MOL0     C24463   1.089  12.667   7.068  0.1988  0.4478  0.1702
  182MOL0     C24464   0.979  12.611   7.291 -0.2169  1.0555 -0.5428
  182MOL0     C24465   1.060  12.720   7.366  1.2686  0.9374  0.3862
  182MOL0     O24466   1.187  12.735   7.324  0.2051 -0.2960 -0.1962
  182MOL0     C24467   1.265  12.840   7.369 -0.6168 -0.5216 -0.7506
  182MOL0     C24468   1.337  12.827   7.486  0.2037  0.8337  0.4043
  182MOL0     C24469   1.433  12.920   7.522 -0.8113  0.0416 -0.1789
  182MOL0     C24470   1.471  13.024   7.432  0.6360 -0.0261 -0.0483
  182MOL0     O24471   1.566  13.125   7.447 -0.4511 -0.0117 -0.2346
  182MOL0     C24472   1.638  13.128   7.573 -0.1585  0.8651 -0.2940
  182MOL0     C24473   1.736  13.250   7.572  0.3685  0.6606  0.6369
  182MOL0     C24474   1.659  13.380   7.522 -0.2645  0.7317 -0.5329
  182MOL0     C24475   1.737  13.506   7.562 -0.5290 -0.5540  0.1714
  182MOL0     C24476   1.639  13.621   7.587 -0.9685  0.3613 -0.4872
  182MOL0     C24477   1.720  13.731   7.646  0.5836  0.1634  0.2394
  182MOL0     C24478   1.645  13.861   7.670  0.0506  0.2188 -0.0054
  182MOL0     C24479   1.630  13.947   7.551  0.7328 -0.1465 -0.7762
  182MOL0    Cl24480   1.553  14.103   7.597 -0.3590 -0.0094  0.0959
  182MOL0     C24481   1.399  13.036   7.320  0.2578  0.2423  0.5329
  182MOL0     C24482   1.298  12.944   7.276 -0.5435  0.4949 -0.2210
  182MOL0     O24483   1.010  12.776   7.464  0.0810  0.9182 -0.4195
  182MOL0     C24484   0.890  12.529   7.359  0.4347  0.5790 -0.7410
  182MOL0     C24485   0.820  12.427   7.299  0.6594  1.8856 -0.1995
  182MOL0     N24486   0.631  12.049   7.316  1.1463  0.3723 -0.6339
  182MOL0     N24487   0.631  11.936   7.387 -0.1929  0.1876 -0.3601
  182MOL0     C24488   0.314  11.106   8.066 -0.5877  0.4554  0.1170
  182MOL0     C24489   0.234  11.062   8.169 -0.2723  0.4952 -0.4303
  182MOL0     C24490   0.119  10.926   8.588  0.2441 -0.4701 -0.2799
  182MOL0     C24491  -0.012  10.912   8.537 -1.3863 -0.6928  0.8367
  182MOL0     C24492  -0.121  10.896   8.632 -0.0817 -1.5123 -0.2165
  182MOL0     C24493  -0.096  10.896   8.769  0.3132 -0.0395 -0.2917
  182MOL0     O24494  -0.187  10.870   8.874 -1.0409  0.3016 -0.3896
  182MOL0     C24495  -0.319  10.818   8.838  0.5382 -0.1173 -0.3791
  182MOL0     C24496  -0.380  10.742   8.958 -0.0069 -0.2066  0.2299
  182MOL0     C24497  -0.515  10.676   8.931 -0.5346 -0.7103  0.4008
  182MOL0     C24498  -0.570  10.620   9.054  0.2619  1.2315 -0.4811
  182MOL0     C24499  -0.487  10.522   9.128 -0.1439  0.4260  0.4126
  182MOL0     C24500  -0.419  10.463   9.217  1.4346 -0.8879  0.9035
  182MOL0     C24501   0.037  10.907   8.810 -0.4019 -0.2716 -0.1300
  182MOL0     C24502   0.141  10.927   8.727  0.8564 -0.5308  0.6391
  182MOL0     H24503   0.439  10.797   8.271 -2.0798 -0.8832 -0.1711
  182MOL0     H24504   0.566  10.882   8.081  0.1987 -0.1242 -1.2070
  182MOL0     H24505   0.449  10.920   7.781 -0.9688  0.1063  0.2146
  182MOL0     H24506   0.350  11.064   7.765 -0.2649  1.1351  1.3981
  182MOL0     H24507   0.648  11.056   7.701 -1.4542 -3.4936  1.1008
  182MOL0     H24508   0.514  11.053   7.581  2.1207  1.2193 -0.1317
  182MOL0     H24509   0.428  11.259   7.650  0.4978 -1.8630 -2.1825
  182MOL0     H24510   0.568  11.287   7.778  2.7870 -2.8446  1.3655
  182MOL0     H24511   0.735  11.255   7.580 -0.4597 -2.5763 -3.2463
  182MOL0     H24512   0.597  11.244   7.476 -1.2301  1.6369 -0.0218
  182MOL0     H24513   0.527  11.477   7.560 -1.3790 -0.8725  4.6345
  182MOL0     H24514   0.675  11.482   7.645 -4.2199 -0.0647  2.1201
  182MOL0     H24515   0.817  11.469   7.444 -0.7644  0.3161  3.4569
  182MOL0     H24516   0.686  11.455   7.329  0.6874 -1.1165 -0.8567
  182MOL0     H24517   0.689  11.680   7.537 -2.8168 -0.8273  0.7263
  182MOL0     H24518   0.799  11.683   7.393  0.8202  1.7471  2.4006
  182MOL0     H24519   0.497  11.654   7.385 -0.0031 -0.0948 -0.6974
  182MOL0     H24520   0.603  11.658   7.244 -1.5056  2.1027 -0.4225
  182MOL0     H24521   0.442  11.857   7.139  2.5330  1.9038 -1.9732
  182MOL0     H24522   0.420  12.112   7.062  0.1653 -0.7629 -1.3766
  182MOL0     H24523   0.558  12.213   7.104  1.3038 -0.3609 -3.9075
  182MOL0     H24524   0.574  12.129   6.888  2.4106  0.9636 -0.8452
  182MOL0     H24525   0.587  11.956   6.938  0.0427 -1.1482  3.5302
  182MOL0     H24526   0.816  12.053   6.886  0.7091  0.6241 -0.2944
  182MOL0     H24527   0.802  12.025   7.058 -0.4161 -2.5591 -0.4516
  182MOL0     H24528   0.789  12.300   6.910  3.2153  0.4889 -0.1072
  182MOL0     H24529   0.930  12.229   6.985  0.7736  1.6124  2.5788
  182MOL0     H24530   0.944  12.451   6.987 -4.0833 -0.4628 -0.0703
  182MOL0     H24531   1.192  12.637   7.089  0.5485  1.2402 -0.3723
  182MOL0     H24532   1.060  12.648   6.964  0.6862 -1.4841  0.3474
  182MOL0     H24533   1.074  12.769   7.105  0.4225  0.9087 -0.9882
  182MOL0     H24534   1.325  12.738   7.546  1.2489 -1.3802 -2.4319
  182MOL0     H24535   1.481  12.891   7.614 -1.0523  1.8171  0.5367
  182MOL0     H24536   1.568  13.130   7.658 -0.8047  0.0785 -0.7898
  182MOL0     H24537   1.690  13.033   7.589  0.6292  1.4662  0.8659
  182MOL0     H24538   1.779  13.262   7.672  1.3558 -1.2290  0.4788
  182MOL0     H24539   1.824  13.219   7.515  0.5996  0.4197  1.1168
  182MOL0     H24540   1.557  13.390   7.559  0.3063  1.1703  0.9796
  182MOL0     H24541   1.639  13.374   7.414 -0.3517  4.0761 -0.8122
  182MOL0     H24542   1.800  13.497   7.651  0.4756  0.3427 -0.4213
  182MOL0     H24543   1.808  13.500   7.479 -1.2972 -2.8730 -0.4150
  182MOL0     H24544   1.558  13.589   7.653  0.1010  0.7668  1.0941
  182MOL0     H24545   1.601  13.647   7.488 -3.9985 -1.2337  0.1346
  182MOL0     H24546   1.768  13.715   7.742 -1.6422  1.8282  1.7429
  182MOL0     H24547   1.804  13.756   7.581 -0.9530  1.8716 -1.2253
  182MOL0     H24548   1.695  13.923   7.746 -0.3404 -0.1581  0.5665
  182MOL0     H24549   1.545  13.846   7.711  0.6727 -2.3000  0.7483
  182MOL0     H24550   1.580  13.893   7.470  2.7844 -3.8222  0.1706
  182MOL0     H24551   1.731  13.963   7.512 -0.8462  3.0069 -4.2143
  182MOL0     H24552   1.431  13.116   7.253  0.5711 -0.9388 -0.7895
  182MOL0     H24553   1.251  12.950   7.178 -1.6532 -1.2321  0.1572
  182MOL0     H24554   0.881  12.540   7.467 -0.0919 -1.1681 -0.5750
  182MOL0     H24555   0.764  12.361   7.364  2.2867 -1.1544 -1.6950
  182MOL0     H24556   0.268  11.185   8.008 -0.4043  0.6424  0.2206
  182MOL0     H24557   0.139  11.113   8.185 -1.5578 -2.1404  0.9238
  182MOL0     H24558  -0.028  10.910   8.430 -2.9882 -2.4943  1.0398
  182MOL0     H24559  -0.220  10.874   8.593  0.3440 -3.0802 -0.4891
  182MOL0     H24560  -0.382  10.907   8.827  2.5199  1.7639  2.1864
  182MOL0     H24561  -0.318  10.756   8.748  0.8299  2.3606 -2.1734
  182MOL0     H24562  -0.381  10.804   9.048 -2.0683 -0.4169  0.4036
  182MOL0     H24563  -0.306  10.672   8.998 -1.9915 -1.0662  2.6365
  182MOL0     H24564  -0.494  10.605   8.851  3.2349  0.6584 -0.0610
  182MOL0     H24565  -0.586  10.751   8.896  0.9034  2.4770  3.5750
  182MOL0     H24566  -0.648  10.559   9.008 -1.4967  0.4425  3.1697
  182MOL0     H24567  -0.622  10.688   9.122 -3.1757 -0.7456 -0.8879
  182MOL0     H24568  -0.372  10.413   9.299  0.2049 -2.8983  0.4578
  182MOL0     H24569   0.052  10.897   8.917  0.4560  2.5862  0.0957
  182MOL0     H24570   0.243  10.934   8.764 -0.0093 -1.1109  3.3352
  183MOL0     O24571  10.270   6.967   6.706  0.2324 -0.9035  0.0028
  183MOL0     C24572  10.195   6.908   6.781  0.3783 -0.2925  0.0453
  183MOL0     O24573  10.140   6.946   6.909 -0.3546  0.3347  0.5093
  183MOL0     C24574  10.174   7.065   6.971 -0.0911 -0.4480  0.4508
  183MOL0     C24575  10.260   7.168   6.927 -0.4954 -0.1220 -0.4251
  183MOL0     C24576  10.296   7.275   7.003  0.4812 -0.3822 -0.9571
  183MOL0     C24577  10.247   7.287   7.134 -0.0077 -0.0409  0.0666
  183MOL0     O24578  10.284   7.394   7.212  0.0312  0.1741 -0.3611
  183MOL0     C24579  10.205   7.420   7.329  0.1422 -0.4203  0.0089
  183MOL0     C24580  10.232   7.560   7.395  0.3716 -0.8851 -0.6161
  183MOL0     C24581  10.138   7.589   7.506  0.0213  0.6199  0.8828
  183MOL0     C24582  10.198   7.646   7.631 -0.9263  0.4964 -0.5672
  183MOL0     C24583  10.186   7.797   7.616  0.1495  0.1829 -0.7983
  183MOL0     C24584  10.226   7.859   7.748  0.8733 -0.3002 -0.8073
  183MOL0     C24585  10.215   8.010   7.760  0.2162 -0.1785  0.7116
  183MOL0     C24586  10.342   8.070   7.679  0.0117 -0.3216 -0.5465
  183MOL0     N24587  10.330   8.213   7.652  0.1635  0.2034  0.2740
  183MOL0     C24588  10.292   8.313   7.737  0.9038  0.1807 -0.4498
  183MOL0     C24589  10.304   8.425   7.668 -0.2492 -0.6247  0.5884
  183MOL0     C24590  10.277   8.562   7.705 -0.6887  0.2576  0.1445
  183MOL0     C24591  10.137   8.580   7.755 -0.0770 -0.4413  0.0235
  183MOL0     C24592  10.106   8.731   7.789 -0.2164  0.0240  0.3981
  183MOL0     C24593  10.075   8.819   7.674 -1.7272  0.2022  0.0916
  183MOL0     O24594  10.185   8.834   7.594 -0.7077  0.3747 -0.3988
  183MOL0     C24595  10.154   8.916   7.484 -0.1647 -0.0606 -0.4770
  183MOL0     C24596  10.059   9.020   7.470  0.0833  0.4165 -0.4583
  183MOL0     C24597  10.044   9.099   7.359  0.3937  0.8585  0.1651
  183MOL0     C24598   9.932   9.196   7.366  0.5213  0.3848 -0.8248
  183MOL0     C24599  10.130   9.079   7.247  0.6224 -0.3796 -0.1273
  183MOL0     C24600  10.127   9.150   7.113  0.4910 -0.1319  0.4084
  183MOL0     O24601  10.243   9.156   7.038  0.1732  0.3589 -0.3459
  183MOL0     C24602  10.236   9.223   6.919 -0.7030 -1.5837 -1.1238
  183MOL0     C24603  10.245   9.360   6.927  0.0352  0.8036 -0.1160
  183MOL0     C24604  10.250   9.444   6.821 -0.5769  0.0213 -0.1793
  183MOL0     C24605  10.253   9.384   6.693  0.2924  0.8065 -0.2444
  183MOL0     O24606  10.258   9.468   6.583  0.1453 -0.7218  0.0689
  183MOL0     C24607  10.267   9.412   6.453 -0.0764  0.4704 -0.1840
  183MOL0     C24608  10.268   9.505   6.338  1.2634 -0.2340 -0.2329
  183MOL0     C24609  10.160   9.614   6.355 -0.7148 -0.0700 -0.1505
  183MOL0     C24610  10.190   9.732   6.255 -0.7806 -0.7632  0.3734
  183MOL0     C24611  10.073   9.834   6.238 -0.5823  0.9270  0.3774
  183MOL0     C24612  10.110   9.926   6.134 -0.6009 -1.1197  1.0297
  183MOL0     C24613  10.009  10.037   6.083 -0.0503  0.2456 -0.0064
  183MOL0     C24614   9.863   9.993   6.053  0.6194  0.4499  0.2188
  183MOL0    Cl24615   9.846   9.848   5.947  0.0809  0.2157  0.2912
  183MOL0     C24616  10.243   9.242   6.683  0.3072  0.0703 -0.5388
  183MOL0     C24617  10.244   9.159   6.796  0.2561  0.8800  0.5411
  183MOL0     O24618  10.024   9.220   7.085 -0.3024  0.2527 -0.0239
  183MOL0     C24619  10.225   8.990   7.257  0.1976  0.5230 -0.0952
  183MOL0     C24620  10.247   8.917   7.378 -0.1971 -0.3121 -0.3018
  183MOL0     N24621  10.360   8.393   7.543 -0.2244 -0.6743 -0.5387
  183MOL0     N24622  10.377   8.264   7.536  0.2832 -0.6218 -0.5565
  183MOL0     C24623  10.167   7.181   7.179 -0.3375 -0.7033  0.0240
  183MOL0     C24624  10.130   7.077   7.098  0.1267  0.4649  1.0442
  183MOL0     C24625  10.149   6.770   6.738 -0.0360  0.4887 -0.4936
  183MOL0     C24626  10.074   6.689   6.818 -0.9210  0.2645 -0.4413
  183MOL0     C24627  10.017   6.572   6.764  0.1819 -0.5062  1.3145
  183MOL0     C24628  10.027   6.543   6.631  0.9103  0.2699 -0.3570
  183MOL0     O24629   9.939   6.460   6.562  0.7381 -0.3482 -0.3336
  183MOL0     C24630   9.807   6.424   6.613 -0.9066 -0.4155 -0.6176
  183MOL0     C24631   9.722   6.351   6.505  0.1946  1.3024  0.4240
  183MOL0     C24632   9.585   6.319   6.558  0.8935 -1.1140 -0.5328
  183MOL0     C24633   9.584   6.235   6.684  0.1025  0.0587 -0.4559
  183MOL0     C24634   9.449   6.181   6.721 -0.7691  0.7458 -0.1355
  183MOL0     C24635   9.347   6.122   6.752  0.6810  1.3848  0.4906
  183MOL0     C24636  10.112   6.625   6.552  0.3358 -1.1141  0.3007
  183MOL0     C24637  10.174   6.731   6.606  1.2689 -1.0617  0.2892
  183MOL0     H24638  10.295   7.148   6.826 -0.1794 -1.2021 -0.1151
  183MOL0     H24639  10.363   7.345   6.953  0.5700  0.1188 -0.1558
  183MOL0     H24640  10.099   7.405   7.308 -0.1088 -1.3775  1.7756
  183MOL0     H24641  10.228   7.338   7.398 -2.1924 -0.4314  0.8640
  183MOL0     H24642  10.339   7.562   7.420  0.4662 -2.5488 -0.7323
  183MOL0     H24643  10.210   7.639   7.323  0.1787  0.8259  1.2290
  183MOL0     H24644  10.060   7.649   7.459 -0.1696  1.3651  2.1018
  183MOL0     H24645  10.085   7.498   7.538 -5.0473  1.7462 -2.9675
  183MOL0     H24646  10.146   7.611   7.721 -3.4485  2.7718 -1.0367
  183MOL0     H24647  10.306   7.628   7.629 -1.2707 -2.2539 -3.3207
  183MOL0     H24648  10.258   7.816   7.536  2.3090 -2.0683  0.4776
  183MOL0     H24649  10.081   7.820   7.599 -0.2878 -0.4475  0.8318
  183MOL0     H24650  10.158   7.827   7.828  0.5891  0.6729 -0.6486
  183MOL0     H24651  10.329   7.829   7.770  1.2913  2.1405  1.0003
  183MOL0     H24652  10.127   8.058   7.717  1.0237 -0.4482 -1.3266
  183MOL0     H24653  10.213   8.037   7.866  1.1659  1.8318  0.2768
  183MOL0     H24654  10.364   8.024   7.582 -1.5198 -0.6624 -0.7690
  183MOL0     H24655  10.430   8.056   7.743 -0.2311 -0.0580 -0.1530
  183MOL0     H24656  10.253   8.297   7.837 -0.2485  1.3321 -0.6878
  183MOL0     H24657  10.337   8.601   7.789 -0.5386  0.0466  0.1357
  183MOL0     H24658  10.304   8.635   7.628  0.6432  0.3105  0.6328
  183MOL0     H24659  10.125   8.517   7.844  1.3438 -0.8572 -0.0584
  183MOL0     H24660  10.068   8.539   7.680 -0.5797 -0.3877  0.4544
  183MOL0     H24661  10.192   8.764   7.848  1.1309  0.8976 -1.9307
  183MOL0     H24662  10.007   8.720   7.835 -1.2508  0.2878 -1.6359
  183MOL0     H24663  10.045   8.918   7.709 -0.8287  0.3821  0.3598
  183MOL0     H24664   9.993   8.776   7.614 -0.5693  0.7794 -2.0280
  183MOL0     H24665  10.002   9.055   7.556  2.4072 -0.1026  1.4100
  183MOL0     H24666   9.952   9.280   7.299  3.1790 -0.6830 -1.4489
  183MOL0     H24667   9.838   9.143   7.349 -0.2005  1.4722 -0.4026
  183MOL0     H24668   9.946   9.235   7.468 -0.8201 -0.5880 -0.2308
  183MOL0     H24669  10.236   9.407   7.024 -0.6114  1.9615 -0.7269
  183MOL0     H24670  10.244   9.550   6.846  0.4442  0.3395 -1.2297
  183MOL0     H24671  10.359   9.353   6.453 -0.1063 -0.1302  5.3956
  183MOL0     H24672  10.187   9.340   6.431 -0.8169  1.4307 -0.6969
  183MOL0     H24673  10.354   9.573   6.341  0.9591  0.1313  0.3086
  183MOL0     H24674  10.259   9.447   6.245  1.7072 -1.6414  0.5720
  183MOL0     H24675  10.176   9.668   6.448  0.6639  0.3390 -0.6030
  183MOL0     H24676  10.058   9.579   6.337 -0.4092 -0.5680 -1.0015
  183MOL0     H24677  10.286   9.776   6.283 -0.3652  0.4577 -2.5480
  183MOL0     H24678  10.210   9.686   6.157 -1.4735 -0.7611  0.2274
  183MOL0     H24679  10.066   9.897   6.327  0.1527  1.6597 -0.0637
  183MOL0     H24680   9.980   9.779   6.226  0.4077 -0.8844  0.6024
  183MOL0     H24681  10.199   9.974   6.176 -0.6659  1.2944 -1.3472
  183MOL0     H24682  10.142   9.875   6.043  2.4769  2.0742  0.1388
  183MOL0     H24683  10.056  10.087   5.998 -0.9336  0.9324 -0.1134
  183MOL0     H24684  10.007  10.115   6.161  2.7385 -1.1860  1.6643
  183MOL0     H24685   9.805  10.081   6.022 -2.2329 -0.5348  2.2854
  183MOL0     H24686   9.827   9.961   6.151  1.2930 -0.9508  0.0238
  183MOL0     H24687  10.242   9.187   6.589 -2.6272 -2.3674  0.7605
  183MOL0     H24688  10.235   9.051   6.794  0.8260  0.6542  3.8406
  183MOL0     H24689  10.288   8.957   7.176 -0.7373  0.3779 -0.7802
  183MOL0     H24690  10.320   8.837   7.387 -0.0318 -0.1846 -0.5079
  183MOL0     H24691  10.121   7.188   7.277 -0.6253 -2.2830  0.0180
  183MOL0     H24692  10.065   6.999   7.136 -0.8144  1.3375  1.2472
  183MOL0     H24693  10.045   6.716   6.919 -1.3188 -3.4571  0.5920
  183MOL0     H24694   9.937   6.520   6.814 -0.9101 -0.1073  0.0354
  183MOL0     H24695   9.836   6.344   6.682 -2.9011 -0.1604  0.5948
  183MOL0     H24696   9.746   6.505   6.653 -0.1499 -1.0776  2.1041
  183MOL0     H24697   9.771   6.262   6.465 -1.1161 -0.3327  2.2495
  183MOL0     H24698   9.711   6.409   6.413 -1.0070  0.3975 -0.0275
  183MOL0     H24699   9.527   6.275   6.477  1.2730 -2.1382 -0.2661
  183MOL0     H24700   9.531   6.408   6.593  1.7990 -1.0684  0.8292
  183MOL0     H24701   9.621   6.290   6.771 -3.5919  3.2638 -0.6391
  183MOL0     H24702   9.643   6.145   6.665  0.2897 -0.0131  0.4431
  183MOL0     H24703   9.260   6.070   6.788  0.4137  1.6057  0.1717
  183MOL0     H24704  10.123   6.613   6.445 -1.9169  1.3992 -0.3340
  183MOL0     H24705  10.225   6.802   6.541 -0.9970  1.7903  1.3628
  184MOL0     O24706  10.022   5.534   6.433 -0.1306 -0.3929 -0.4827
  184MOL0     C24707   9.959   5.438   6.391  0.8547 -0.9409 -0.8042
  184MOL0     O24708   9.921   5.427   6.256 -0.1348  0.3646  0.6105
  184MOL0     C24709   9.973   5.526   6.178  0.3317  0.2142  0.2401
  184MOL0     C24710   9.896   5.626   6.118  0.9026 -0.7378 -0.2685
  184MOL0     C24711   9.949   5.719   6.032 -0.0024  0.0882 -0.1567
  184MOL0     C24712  10.084   5.724   6.006  0.0973  0.1021  0.4927
  184MOL0     O24713  10.132   5.817   5.924 -0.2556 -0.4364  0.1511
  184MOL0     C24714  10.265   5.874   5.954  0.7175  0.1392  0.3778
  184MOL0     C24715  10.253   5.990   6.053  0.3923 -0.2387  0.2582
  184MOL0     C24716  10.198   6.109   5.964  0.5575 -0.0646 -1.1632
  184MOL0     C24717  10.172   6.226   6.050  0.7434 -0.4554 -0.1555
  184MOL0     C24718  10.167   6.350   5.972 -0.2717 -0.2159  0.1114
  184MOL0     C24719  10.301   6.412   5.902  0.7193  0.0531  0.0692
  184MOL0     C24720  10.266   6.547   5.831 -0.5097 -0.7659 -0.4756
  184MOL0     C24721  10.385   6.598   5.747  0.0592  0.3751  0.7131
  184MOL0     N24722  10.339   6.709   5.666  0.2064 -0.4369  0.5072
  184MOL0     C24723  10.307   6.711   5.528 -0.0203  0.2241 -0.3471
  184MOL0     C24724  10.300   6.847   5.505  0.1113 -0.8913  0.1770
  184MOL0     C24725  10.299   6.917   5.372 -0.6810  0.3473  0.2682
  184MOL0     C24726  10.432   6.902   5.304  0.6935 -0.7132 -0.0799
  184MOL0     C24727  10.419   6.932   5.151  0.3411  0.7127 -0.2341
  184MOL0     C24728  10.397   7.085   5.140  0.5208  0.2551  0.5175
  184MOL0     O24729  10.349   7.129   5.014  0.1547  0.3149  1.1312
  184MOL0     C24730  10.285   7.245   4.977 -0.3981 -0.3256 -0.8583
  184MOL0     C24731  10.270   7.365   5.046 -0.7679  0.1203 -0.2822
  184MOL0     C24732  10.200   7.470   4.992 -0.6102 -0.2602 -0.2242
  184MOL0     C24733  10.179   7.588   5.080 -0.1921 -0.4435 -1.2377
  184MOL0     C24734  10.152   7.461   4.857  0.6143  0.4088 -0.4414
  184MOL0     C24735  10.087   7.572   4.785 -0.4770 -0.1581 -0.1301
  184MOL0     O24736  10.026   7.542   4.665  0.4965 -0.6413  0.0284
  184MOL0     C24737   9.973   7.643   4.587  0.6588 -0.9334 -1.2863
  184MOL0     C24738  10.042   7.761   4.543  0.1967  0.0377  0.9165
  184MOL0     C24739   9.994   7.858   4.447  0.5019  0.2955  0.0358
  184MOL0     C24740   9.868   7.839   4.391  0.3521  0.2335  0.2673
  184MOL0     O24741   9.804   7.931   4.313 -0.5056 -0.2966  1.0855
  184MOL0     C24742   9.724   8.014   4.392 -0.3104  0.1645  0.4972
  184MOL0     C24743   9.666   8.128   4.318 -0.4243 -1.0107  0.0154
  184MOL0     C24744   9.763   8.239   4.295 -1.0084  0.4675 -0.3028
  184MOL0     C24745   9.708   8.348   4.197  0.3938 -0.6237  0.7386
  184MOL0     C24746   9.797   8.458   4.140 -0.7407  0.2177 -0.0147
  184MOL0     C24747   9.725   8.537   4.019 -0.0911  0.1315  0.0171
  184MOL0     C24748   9.805   8.656   3.973 -1.1890 -0.4114  0.5910
  184MOL0     C24749   9.924   8.615   3.882 -0.8073  0.4934 -0.0388
  184MOL0    Cl24750   9.866   8.507   3.755 -0.0989  0.5163  0.1153
  184MOL0     C24751   9.799   7.719   4.432  0.0482 -0.3747  0.2938
  184MOL0     C24752   9.846   7.629   4.525  0.6010  1.2771  1.2521
  184MOL0     O24753  10.098   7.684   4.829 -0.9146 -0.0793  0.5349
  184MOL0     C24754  10.170   7.342   4.788 -0.1694 -0.1699  0.6614
  184MOL0     C24755  10.237   7.234   4.850 -0.1189 -0.2170  0.6766
  184MOL0     N24756  10.303   6.912   5.626 -0.5724 -0.1569 -0.6217
  184MOL0     N24757  10.330   6.829   5.724 -0.5693  0.0548  0.4115
  184MOL0     C24758  10.163   5.623   6.058 -0.1573 -0.0303 -0.5921
  184MOL0     C24759  10.107   5.517   6.135  0.2937 -1.0160 -0.0350
  184MOL0     C24760   9.906   5.340   6.486  0.1191 -0.4176 -0.0043
  184MOL0     C24761   9.946   5.351   6.623 -0.3284  1.1480  0.0223
  184MOL0     C24762   9.911   5.246   6.700 -0.2875 -0.3848  0.4707
  184MOL0     C24763   9.837   5.140   6.654 -1.0459  0.5824 -0.5035
  184MOL0     O24764   9.838   5.036   6.747 -1.2224  0.5859  0.1226
  184MOL0     C24765   9.743   4.938   6.730  0.3014 -0.4420  0.1216
  184MOL0     C24766   9.738   4.833   6.839  0.1834  0.4307 -0.6663
  184MOL0     C24767   9.874   4.786   6.887 -0.3642 -0.9709 -0.2120
  184MOL0     C24768   9.945   4.711   6.779  0.0965 -0.3822 -0.2077
  184MOL0     C24769   9.873   4.590   6.731  0.3381  0.4105 -0.3882
  184MOL0     C24770   9.801   4.499   6.695 -0.1064 -0.6180 -0.6854
  184MOL0     C24771   9.789   5.135   6.523 -0.8761  0.0028 -1.0691
  184MOL0     C24772   9.822   5.240   6.439 -0.5560 -0.7203  0.1983
  184MOL0     H24773   9.789   5.617   6.133  1.0306 -2.4056 -0.1932
  184MOL0     H24774   9.876   5.790   5.993  0.1386  0.5244  0.3643
  184MOL0     H24775  10.338   5.805   5.998  0.2870  0.6917  2.0365
  184MOL0     H24776  10.300   5.909   5.856 -1.5008  0.2078 -0.4483
  184MOL0     H24777  10.201   5.947   6.139  2.2405 -2.7840  0.2486
  184MOL0     H24778  10.353   6.022   6.083  0.9145 -1.2184 -0.3741
  184MOL0     H24779  10.260   6.149   5.883  1.1266  2.1315  0.2722
  184MOL0     H24780  10.101   6.076   5.924 -0.4176  1.0373  0.1946
  184MOL0     H24781  10.075   6.217   6.100  2.0362 -1.9229  2.2991
  184MOL0     H24782  10.247   6.246   6.128  0.0952 -2.1354  0.9525
  184MOL0     H24783  10.085   6.351   5.899 -0.4779  4.1462  0.1607
  184MOL0     H24784  10.136   6.430   6.040 -0.3770  0.9165 -1.2412
  184MOL0     H24785  10.372   6.420   5.985 -0.2821  3.4533  0.7580
  184MOL0     H24786  10.339   6.336   5.833  0.7468 -0.3606  0.5276
  184MOL0     H24787  10.173   6.543   5.774 -0.8610  0.5233 -0.0247
  184MOL0     H24788  10.235   6.629   5.897  2.1821 -2.2624  3.0092
  184MOL0     H24789  10.415   6.512   5.687  0.7588  1.7853 -1.0383
  184MOL0     H24790  10.469   6.628   5.811  0.0242  2.6645 -0.2116
  184MOL0     H24791  10.303   6.629   5.457 -3.6082  1.0820 -1.2978
  184MOL0     H24792  10.216   6.879   5.313  0.6240 -1.2970 -0.5832
  184MOL0     H24793  10.289   7.026   5.384 -2.5315  0.0046  2.6041
  184MOL0     H24794  10.463   6.798   5.321 -0.7254 -1.0009  0.9173
  184MOL0     H24795  10.509   6.966   5.348 -0.3091  0.6972 -0.3346
  184MOL0     H24796  10.339   6.873   5.105 -0.8738 -0.1436  2.7552
  184MOL0     H24797  10.504   6.900   5.089  1.2472 -1.7744  2.0983
  184MOL0     H24798  10.496   7.130   5.146  0.7371 -0.3711  1.9842
  184MOL0     H24799  10.339   7.128   5.222 -1.8235 -1.2494 -0.2502
  184MOL0     H24800  10.305   7.347   5.147  1.6664 -0.8625 -1.2200
  184MOL0     H24801  10.074   7.618   5.091 -0.4486 -2.0570  2.5507
  184MOL0     H24802  10.215   7.574   5.182 -2.2867  2.0039 -0.0537
  184MOL0     H24803  10.233   7.671   5.035 -0.4876  0.8949  0.7337
  184MOL0     H24804  10.142   7.782   4.578  1.2402 -1.2500 -1.1358
  184MOL0     H24805  10.050   7.947   4.422  1.9339 -0.1217  1.5451
  184MOL0     H24806   9.643   7.950   4.428 -1.0243  1.1970  0.7424
  184MOL0     H24807   9.788   8.058   4.470  3.9804  1.4420 -3.3057
  184MOL0     H24808   9.628   8.084   4.225  0.0116 -3.5298  0.9537
  184MOL0     H24809   9.585   8.176   4.373  1.4141  2.6527 -0.1126
  184MOL0     H24810   9.850   8.201   4.241 -0.8450 -0.4988  0.6089
  184MOL0     H24811   9.782   8.284   4.393 -0.9108 -2.3941  1.0885
  184MOL0     H24812   9.667   8.293   4.112 -0.9306  0.2949  0.7549
  184MOL0     H24813   9.626   8.400   4.247  0.6109  3.1805 -2.4334
  184MOL0     H24814   9.892   8.416   4.106 -1.9635 -1.9583 -0.9216
  184MOL0     H24815   9.815   8.526   4.224  2.2226 -0.3263 -0.0897
  184MOL0     H24816   9.721   8.463   3.938  1.7535  1.1763 -1.0749
  184MOL0     H24817   9.626   8.567   4.055 -0.7634 -1.8738  0.0021
  184MOL0     H24818   9.833   8.717   4.058 -0.4792  1.5002 -0.9412
  184MOL0     H24819   9.747   8.714   3.900  1.0232 -0.2686 -1.1823
  184MOL0     H24820  10.000   8.560   3.937 -1.4725 -0.0988  0.3009
  184MOL0     H24821   9.983   8.695   3.835  4.1804 -4.1700 -2.8164
  184MOL0     H24822   9.694   7.721   4.406  0.2256  1.8124 -0.4719
  184MOL0     H24823   9.799   7.532   4.540 -0.3183  1.6674  0.9509
  184MOL0     H24824  10.149   7.323   4.684  1.6264 -2.1832  0.5887
  184MOL0     H24825  10.253   7.149   4.783 -0.7099 -0.7449  1.1993
  184MOL0     H24826  10.266   5.608   6.026  0.0822  0.8351 -0.2376
  184MOL0     H24827  10.167   5.433   6.165 -0.3825 -2.6410 -2.8602
  184MOL0     H24828  10.018   5.417   6.670  0.9969 -0.6928  0.6969
  184MOL0     H24829   9.955   5.247   6.800 -1.2372 -1.7579  0.9346
  184MOL0     H24830   9.644   4.984   6.719  1.6880  2.5356 -1.3057
  184MOL0     H24831   9.768   4.885   6.638 -0.3868 -2.6493  1.1345
  184MOL0     H24832   9.670   4.752   6.811 -0.0101  0.1238  0.6213
  184MOL0     H24833   9.682   4.873   6.925 -0.8668  0.8862 -1.5309
  184MOL0     H24834   9.867   4.703   6.958  3.7632 -1.3514 -0.0249
  184MOL0     H24835   9.936   4.866   6.927  2.4111 -2.6569 -0.8641
  184MOL0     H24836  10.032   4.680   6.838 -1.1437  0.3964  2.1829
  184MOL0     H24837   9.983   4.766   6.693  2.3240 -0.9506  0.3400
  184MOL0     H24838   9.741   4.417   6.664  1.4258 -2.5661  1.1917
  184MOL0     H24839   9.716   5.060   6.495 -1.4533 -1.0979  2.8067
  184MOL0     H24840   9.783   5.243   6.337 -1.1499  0.3988  0.4412
  185MOL0     O24841   2.857  10.878   4.658  0.3875 -0.2070  0.2638
  185MOL0     C24842   2.773  10.953   4.611 -0.2010  0.7679  0.2993
  185MOL0     O24843   2.708  11.048   4.675  0.4337 -0.0598  0.8801
  185MOL0     C24844   2.749  11.089   4.801 -0.0370  0.0715  0.3666
  185MOL0     C24845   2.759  11.003   4.915 -0.0520  0.2950 -0.2628
  185MOL0     C24846   2.788  11.066   5.043  0.2947  0.7071 -0.5849
  185MOL0     C24847   2.821  11.199   5.055  0.8515 -1.1636  0.5612
  185MOL0     O24848   2.880  11.261   5.163  0.2312 -0.5350 -0.4034
  185MOL0     C24849   2.824  11.229   5.294  0.2861 -0.3781 -0.8168
  185MOL0     C24850   2.879  11.313   5.420  0.8219 -0.4273  0.0482
  185MOL0     C24851   2.894  11.462   5.404  0.6094 -0.1909  0.4949
  185MOL0     C24852   2.947  11.525   5.532  0.5150 -0.1502  0.0212
  185MOL0     C24853   2.968  11.678   5.518  0.1869 -0.1342 -0.7681
  185MOL0     C24854   3.066  11.720   5.623 -0.4307 -0.0684 -0.0432
  185MOL0     C24855   3.106  11.875   5.610 -1.2080 -0.5482  0.3712
  185MOL0     C24856   3.212  11.935   5.706  0.4774 -0.5479  0.1406
  185MOL0     N24857   3.345  11.885   5.670  0.0796 -0.4369 -1.3096
  185MOL0     C24858   3.421  11.941   5.574  0.1042  0.9292  0.6264
  185MOL0     C24859   3.557  11.913   5.603 -0.4217 -0.0646  0.0744
  185MOL0     C24860   3.671  11.950   5.508 -0.5492 -0.0054  0.5237
  185MOL0     C24861   3.647  12.080   5.419 -1.5141 -0.6521  0.1146
  185MOL0     C24862   3.621  12.208   5.497  0.4857  0.0235 -0.2697
  185MOL0     C24863   3.596  12.316   5.394 -0.5846 -0.4028 -0.0805
  185MOL0     O24864   3.702  12.349   5.310  0.2125 -0.0324  0.4747
  185MOL0     C24865   3.804  12.433   5.356 -0.4838 -0.0922  0.4701
  185MOL0     C24866   3.793  12.535   5.443 -0.3947  0.9441  0.6330
  185MOL0     C24867   3.906  12.608   5.492 -0.4287  0.1107  0.3867
  185MOL0     C24868   3.900  12.731   5.583  0.2711  0.3264  0.1446
  185MOL0     C24869   4.034  12.575   5.436  0.5166 -0.5072 -1.0606
  185MOL0     C24870   4.166  12.646   5.455 -0.5215  0.4584 -0.6264
  185MOL0     O24871   4.267  12.631   5.360  0.6330 -0.8687  0.9471
  185MOL0     C24872   4.380  12.708   5.366  0.5980  0.1294  0.3356
  185MOL0     C24873   4.414  12.793   5.257  0.6342 -0.2894  0.1643
  185MOL0     C24874   4.514  12.892   5.276  0.2261  1.0467 -0.6010
  185MOL0     C24875   4.587  12.913   5.402  0.9082 -0.5018  0.2722
  185MOL0     O24876   4.695  12.999   5.418  0.5649 -0.1706 -0.6072
  185MOL0     C24877   4.777  13.024   5.303  0.0544  0.1977  0.4074
  185MOL0     C24878   4.791  13.173   5.269  0.8279 -0.4998 -0.9016
  185MOL0     C24879   4.683  13.218   5.186  0.4551  0.3127  0.2734
  185MOL0     C24880   4.708  13.177   5.039 -0.0282  0.3877  0.3282
  185MOL0     C24881   4.595  13.237   4.956  0.1072 -0.6987 -0.5128
  185MOL0     C24882   4.602  13.197   4.809 -0.2544 -0.0307 -0.1391
  185MOL0     C24883   4.479  13.182   4.732 -0.1754  1.6582  0.1852
  185MOL0     C24884   4.415  13.320   4.703 -0.0908  0.0893 -0.4521
  185MOL0    Cl24885   4.490  13.388   4.557 -0.1077  0.1928  0.0722
  185MOL0     C24886   4.558  12.815   5.497 -0.1151 -0.6828 -0.1922
  185MOL0     C24887   4.460  12.717   5.480  0.6277  0.1425 -0.4656
  185MOL0     O24888   4.180  12.717   5.553  0.3939  0.0089 -0.2627
  185MOL0     C24889   4.033  12.465   5.351 -0.2659 -0.5962 -0.2821
  185MOL0     C24890   3.921  12.406   5.300  0.1456 -0.4607  0.4023
  185MOL0     N24891   3.557  11.845   5.720  0.6605 -0.0343 -0.6801
  185MOL0     N24892   3.439  11.835   5.763  0.4286 -0.5337 -0.1241
  185MOL0     C24893   2.802  11.279   4.950 -0.2174 -0.7258 -0.1353
  185MOL0     C24894   2.766  11.228   4.825 -0.0320 -0.6111  0.4338
  185MOL0     C24895   2.723  10.915   4.474 -0.9153 -0.7228 -0.0499
  185MOL0     C24896   2.772  10.804   4.394  0.4277  0.6346 -0.4035
  185MOL0     C24897   2.707  10.771   4.275  0.0386 -0.2662  0.1612
  185MOL0     C24898   2.597  10.853   4.226  0.4694 -0.3209 -0.7429
  185MOL0     O24899   2.521  10.814   4.114 -0.1887 -0.4808 -0.3313
  185MOL0     C24900   2.536  10.688   4.053 -0.1731 -0.5373  0.6333
  185MOL0     C24901   2.429  10.687   3.940 -1.8096 -0.6257  0.0519
  185MOL0     C24902   2.494  10.638   3.807 -0.1511  0.1952  0.0135
  185MOL0     C24903   2.533  10.485   3.795 -0.2543 -0.0806  0.0816
  185MOL0     C24904   2.403  10.416   3.811 -0.4905 -0.0759  0.0553
  185MOL0     C24905   2.299  10.360   3.802  0.0828  0.1234  0.0334
  185MOL0     C24906   2.559  10.962   4.293 -0.3134 -0.4972 -1.3284
  185MOL0     C24907   2.623  10.990   4.417 -0.7855 -0.1284  0.2291
  185MOL0     H24908   2.727  10.899   4.911 -0.4935  0.4202 -0.0419
  185MOL0     H24909   2.799  10.999   5.128 -3.2884 -0.9170 -1.2387
  185MOL0     H24910   2.718  11.253   5.292  0.5476  1.0066  0.4611
  185MOL0     H24911   2.808  11.126   5.328 -1.1334  0.2084  0.3479
  185MOL0     H24912   2.816  11.284   5.504  1.7180 -0.7889  0.6122
  185MOL0     H24913   2.975  11.279   5.461  1.3543  1.4169  0.4670
  185MOL0     H24914   2.960  11.464   5.317  1.3280  0.1883  1.0462
  185MOL0     H24915   2.805  11.521   5.378  0.1272 -0.9187  0.4534
  185MOL0     H24916   2.881  11.514   5.618  3.1510  1.5459  2.4371
  185MOL0     H24917   3.047  11.486   5.555  0.9858  0.7993 -0.3836
  185MOL0     H24918   2.992  11.695   5.412 -5.0093  3.3544 -1.7637
  185MOL0     H24919   2.875  11.733   5.538 -0.1047 -2.0441  4.9694
  185MOL0     H24920   3.019  11.715   5.722  1.5436  2.3599  1.1610
  185MOL0     H24921   3.154  11.656   5.628 -1.3796 -1.2880  1.9508
  185MOL0     H24922   3.146  11.905   5.513  1.3216  1.0378  1.8271
  185MOL0     H24923   3.019  11.941   5.612  2.2792  4.5862  1.6169
  185MOL0     H24924   3.182  11.920   5.811  0.9251  1.0746  0.5222
  185MOL0     H24925   3.213  12.043   5.694 -4.2239 -0.5163 -2.7628
  185MOL0     H24926   3.384  11.984   5.482 -1.3489 -1.2458  0.1315
  185MOL0     H24927   3.765  11.962   5.562 -0.7143  1.9691  0.4566
  185MOL0     H24928   3.681  11.866   5.438 -1.6369  0.8105 -0.6654
  185MOL0     H24929   3.561  12.063   5.354 -0.6182  1.9680 -1.9534
  185MOL0     H24930   3.724  12.093   5.341 -1.4799  2.4883  0.5317
  185MOL0     H24931   3.700  12.241   5.565 -0.4534 -0.0987  0.8970
  185MOL0     H24932   3.534  12.187   5.560  1.7335 -0.1161  1.4731
  185MOL0     H24933   3.558  12.406   5.443 -1.2194  1.6410 -3.9049
  185MOL0     H24934   3.520  12.279   5.324 -0.1959 -0.6031 -0.3995
  185MOL0     H24935   3.701  12.566   5.491  1.2005  1.4335  3.6141
  185MOL0     H24936   3.957  12.820   5.553 -0.3922  1.2299  1.4656
  185MOL0     H24937   3.793  12.745   5.598 -0.3771 -0.3444 -3.2279
  185MOL0     H24938   3.954  12.693   5.670  1.0667  0.0192 -0.4706
  185MOL0     H24939   4.346  12.781   5.174  2.1457 -1.3261 -0.9827
  185MOL0     H24940   4.524  12.962   5.194  0.0735  2.4565  0.5446
  185MOL0     H24941   4.874  12.993   5.343  1.1791  1.2003 -1.3588
  185MOL0     H24942   4.747  12.976   5.209  2.0133  1.9733 -1.2628
  185MOL0     H24943   4.788  13.225   5.365  0.0637  0.1701 -1.2741
  185MOL0     H24944   4.885  13.202   5.221  1.0563  0.0297 -0.1537
  185MOL0     H24945   4.675  13.327   5.184 -4.0745  0.1549  0.4152
  185MOL0     H24946   4.591  13.172   5.222  0.9386  0.6770  2.0433
  185MOL0     H24947   4.799  13.235   5.019 -0.7458  1.2619 -0.5435
  185MOL0     H24948   4.727  13.072   5.016 -0.9636  0.1551  0.5482
  185MOL0     H24949   4.595  13.345   4.971  1.7434 -1.0762  3.4136
  185MOL0     H24950   4.504  13.189   4.995 -1.1242  0.4937 -1.8056
  185MOL0     H24951   4.659  13.276   4.761  1.6198  0.6848  2.9363
  185MOL0     H24952   4.668  13.111   4.796  1.2824  1.1934 -0.7223
  185MOL0     H24953   4.402  13.132   4.791  2.0617 -2.0561  0.2528
  185MOL0     H24954   4.497  13.134   4.635 -3.9116  1.4611 -0.5398
  185MOL0     H24955   4.435  13.394   4.781 -2.0463  0.9627 -0.6965
  185MOL0     H24956   4.308  13.305   4.684 -0.0658 -1.0632  0.2404
  185MOL0     H24957   4.617  12.836   5.586 -1.8719  2.3141  0.4242
  185MOL0     H24958   4.443  12.655   5.568  2.8973 -0.2344 -0.2410
  185MOL0     H24959   4.130  12.440   5.308  0.7823  1.7769  0.4959
  185MOL0     H24960   3.922  12.334   5.219  0.2376  4.5598 -4.6908
  185MOL0     H24961   2.809  11.386   4.968  2.0962 -1.3655  4.1761
  185MOL0     H24962   2.743  11.311   4.759  1.1676 -1.5654 -1.2715
  185MOL0     H24963   2.854  10.743   4.431  3.2790  2.7056 -2.8048
  185MOL0     H24964   2.741  10.679   4.228 -1.8729  0.2633 -2.5310
  185MOL0     H24965   2.638  10.683   4.016  1.0246  0.6747  3.4812
  185MOL0     H24966   2.533  10.602   4.121  0.3969  0.0783  1.4539
  185MOL0     H24967   2.391  10.788   3.922 -1.4538 -0.4392  0.3347
  185MOL0     H24968   2.339  10.629   3.963 -2.0354 -1.1245 -1.9024
  185MOL0     H24969   2.582  10.700   3.788  0.8548 -1.2055 -0.0505
  185MOL0     H24970   2.421  10.670   3.733  0.2313  2.2280  0.4601
  185MOL0     H24971   2.591  10.450   3.881 -1.3148 -3.7209 -0.5388
  185MOL0     H24972   2.576  10.460   3.698 -0.2445  0.7942 -0.1511
  185MOL0     H24973   2.200  10.320   3.793 -0.4253  1.2004  0.6324
  185MOL0     H24974   2.487  11.025   4.242 -0.7783 -0.2092 -0.3433
  185MOL0     H24975   2.580  11.073   4.472 -1.2306 -0.2856  0.1274
  186MOL0     O24976   0.454   2.478  10.542 -0.2542 -0.0032  0.0044
  186MOL0     C24977   0.427   2.467  10.655 -0.8930 -0.2415  0.1577
  186MOL0     O24978   0.513   2.457  10.762  0.1447 -0.1403  0.9868
  186MOL0     C24979   0.647   2.434  10.737  0.4586  1.3892 -0.4079
  186MOL0     C24980   0.738   2.537  10.730 -0.4904 -0.7103 -0.0684
  186MOL0     C24981   0.876   2.507  10.712 -0.5154  0.9434  0.2182
  186MOL0     C24982   0.916   2.375  10.674  0.0087 -0.3620  0.2487
  186MOL0     O24983   1.034   2.335  10.627 -0.7835  0.1995 -0.2823
  186MOL0     C24984   1.110   2.422  10.543  0.1264  0.0642  0.1149
  186MOL0     C24985   1.221   2.335  10.491 -0.7211 -0.4573 -0.0355
  186MOL0     C24986   1.322   2.398  10.404 -0.2833  0.8514  0.5305
  186MOL0     C24987   1.392   2.506  10.463  0.1539  0.0918 -0.1593
  186MOL0     C24988   1.481   2.570  10.368  0.6776 -0.0819 -0.0919
  186MOL0     C24989   1.589   2.656  10.416  0.0202 -0.0244  0.1821
  186MOL0     C24990   1.646   2.743  10.311  0.3052  0.0569  0.0137
  186MOL0     C24991   1.785   2.790  10.337  0.0643  0.3797  0.1053
  186MOL0     N24992   1.879   2.683  10.303  0.0348  0.0244  0.5825
  186MOL0     C24993   1.992   2.719  10.231  0.5492  0.2138 -0.7390
  186MOL0     C24994   2.070   2.609  10.254  0.7453 -0.4732 -0.2060
  186MOL0     C24995   2.208   2.610  10.233 -0.2845  0.3086  0.6124
  186MOL0     C24996   2.241   2.628  10.085 -0.0715 -0.8334  1.0690
  186MOL0     C24997   2.379   2.684  10.059  0.0238  0.9902  0.1230
  186MOL0     C24998   2.489   2.627  10.143 -1.0405  0.5005 -0.2838
  186MOL0     O24999   2.619   2.690  10.113  0.1326 -0.5884 -0.5487
  186MOL0     C25000   2.729   2.645  10.184 -0.4363  0.8430 -0.2110
  186MOL0     C25001   2.852   2.720  10.176  0.2076  0.4212  0.6521
  186MOL0     C25002   2.965   2.693  10.259 -0.1662 -0.0969  0.1699
  186MOL0     C25003   3.085   2.801  10.257  0.2840  0.3602 -1.0150
  186MOL0     C25004   2.954   2.588  10.359 -0.6378  0.9707  0.7210
  186MOL0     C25005   3.062   2.546  10.445 -1.2999 -0.4312 -0.2322
  186MOL0     O25006   3.043   2.424  10.501 -0.1263 -0.4815 -0.0013
  186MOL0     C25007   3.126   2.367  10.589 -0.5341 -0.0463  0.1098
  186MOL0     C25008   3.070   2.301  10.689 -0.0394 -0.1300 -0.5679
  186MOL0     C25009   3.141   2.216  10.781  0.2949 -0.5941 -0.1559
  186MOL0     C25010   3.280   2.200  10.771  0.3228 -1.4000 -0.2080
  186MOL0     O25011   3.330   2.109  10.859  0.0357  0.3517  0.1099
  186MOL0     C25012   3.479   2.106  10.859  0.8234  0.4146  0.0285
  186MOL0     C25013   3.545   1.984  10.929 -0.7004  0.4240 -0.5638
  186MOL0     C25014   3.487   1.853  10.871  0.4996  0.2103 -0.0862
  186MOL0     C25015   3.580   1.738  10.914 -0.0648  0.5925 -0.6686
  186MOL0     C25016   3.560   1.612  10.835  0.1809  0.6260  0.3828
  186MOL0     C25017   3.650   1.617  10.714  0.1367  0.1027 -0.4379
  186MOL0     C25018   3.626   1.498  10.617  0.2920  0.0625  0.4536
  186MOL0     C25019   3.663   1.523  10.475 -0.2083  1.1195  0.5454
  186MOL0    Cl25020   3.583   1.399  10.382  0.2193 -0.0088  0.5487
  186MOL0     C25021   3.341   2.291  10.686 -0.3895 -0.2160  0.2696
  186MOL0     C25022   3.262   2.366  10.589 -1.1736  0.1402  0.2625
  186MOL0     O25023   3.149   2.623  10.482  0.1936  0.0682 -0.1627
  186MOL0     C25024   2.832   2.509  10.361  0.4942 -0.6697  0.4935
  186MOL0     C25025   2.725   2.542  10.273 -0.3928  0.1746  0.9335
  186MOL0     N25026   1.990   2.503  10.294 -0.1705 -0.1006  0.5181
  186MOL0     N25027   1.877   2.550  10.331  0.5236  0.1281  0.4490
  186MOL0     C25028   0.817   2.266  10.676  0.4746 -1.7241  0.8237
  186MOL0     C25029   0.687   2.300  10.704  0.4683  0.1609 -0.3112
  186MOL0     C25030   0.289   2.477  10.692 -0.5242 -0.7207 -0.3561
  186MOL0     C25031   0.247   2.416  10.808 -0.2523  0.3171 -0.0405
  186MOL0     C25032   0.125   2.447  10.866 -0.0829 -0.2860 -0.1345
  186MOL0     C25033   0.033   2.535  10.798 -0.6035  0.1089  0.6472
  186MOL0     O25034  -0.094   2.565  10.862 -1.7463  0.4169 -0.7336
  186MOL0     C25035  -0.192   2.652  10.798  0.4621  1.0321 -0.3305
  186MOL0     C25036  -0.254   2.739  10.908  1.8213  0.3179  0.2722
  186MOL0     C25037  -0.295   2.669  11.037  0.4542 -0.8919 -1.0106
  186MOL0     C25038  -0.395   2.559  11.014 -0.4581 -0.7050  0.2246
  186MOL0     C25039  -0.419   2.477  11.133  0.5467  0.2395 -0.2666
  186MOL0     C25040  -0.448   2.401  11.227  0.1635 -0.0516 -0.3901
  186MOL0     C25041   0.075   2.582  10.672 -0.6101 -0.2980 -1.4178
  186MOL0     C25042   0.201   2.556  10.632 -1.2922  0.5621  0.1571
  186MOL0     H25043   0.697   2.634  10.757  1.2200  0.8365 -2.5710
  186MOL0     H25044   0.938   2.595  10.702  0.3310  0.1691 -1.7929
  186MOL0     H25045   1.054   2.470  10.462 -0.9104 -1.3343 -0.0300
  186MOL0     H25046   1.144   2.508  10.602  0.2389  2.8540 -3.6741
  186MOL0     H25047   1.283   2.289  10.569  0.7001 -3.3664 -2.6826
  186MOL0     H25048   1.184   2.247  10.438 -0.0262 -0.5227 -0.4261
  186MOL0     H25049   1.395   2.320  10.379  0.4072  1.9236 -0.9972
  186MOL0     H25050   1.272   2.433  10.313 -1.9930  1.6468  1.7300
  186MOL0     H25051   1.330   2.589  10.499  1.0632  0.9659 -0.5679
  186MOL0     H25052   1.449   2.475  10.551 -2.1802  3.0725  2.6601
  186MOL0     H25053   1.524   2.485  10.314  0.8212 -3.8527  5.2004
  186MOL0     H25054   1.416   2.626  10.300  1.1955  3.4051  2.0722
  186MOL0     H25055   1.553   2.726  10.493 -0.5549 -0.3246  0.1913
  186MOL0     H25056   1.671   2.603  10.466 -1.0631 -1.0704  0.9077
  186MOL0     H25057   1.655   2.683  10.221 -0.7153  0.3643 -0.3057
  186MOL0     H25058   1.576   2.826  10.299 -4.1728 -3.2684  0.6131
  186MOL0     H25059   1.804   2.811  10.443  1.5022  1.8487 -0.4191
  186MOL0     H25060   1.814   2.882  10.286  2.6920 -0.9682 -1.0301
  186MOL0     H25061   2.030   2.813  10.193 -0.8067  1.7863  1.5728
  186MOL0     H25062   2.253   2.694  10.288  0.3890 -0.1321  0.7404
  186MOL0     H25063   2.257   2.522  10.275 -1.3109  0.6454  2.6818
  186MOL0     H25064   2.169   2.700  10.046  1.6763  0.2030 -0.3932
  186MOL0     H25065   2.231   2.536  10.027 -0.0202 -2.1219  2.9935
  186MOL0     H25066   2.384   2.793  10.056 -2.7902  1.1869 -0.8912
  186MOL0     H25067   2.404   2.651   9.958  1.0159 -0.6246  0.8695
  186MOL0     H25068   2.501   2.520  10.126 -0.8555  0.6723 -1.2685
  186MOL0     H25069   2.480   2.634  10.252  1.7436 -0.7038  0.1249
  186MOL0     H25070   2.866   2.813  10.121 -0.7490 -0.4768 -1.1663
  186MOL0     H25071   3.104   2.841  10.357 -0.2521 -1.2791 -0.2317
  186MOL0     H25072   3.180   2.748  10.251  0.1640 -0.5538  2.8200
  186MOL0     H25073   3.076   2.879  10.180 -0.6119  0.5335 -0.7453
  186MOL0     H25074   2.962   2.312  10.700 -0.3459 -1.6650 -1.6942
  186MOL0     H25075   3.076   2.157  10.845 -1.2951 -0.8335 -1.8989
  186MOL0     H25076   3.503   2.097  10.753 -2.3965 -0.6863 -0.7061
  186MOL0     H25077   3.529   2.195  10.899  0.4802  0.7147 -0.2102
  186MOL0     H25078   3.649   2.003  10.899 -0.8014  0.9700 -0.5886
  186MOL0     H25079   3.537   1.992  11.038 -2.3856  1.6369 -0.7218
  186MOL0     H25080   3.481   1.853  10.762 -1.7080 -2.2749 -0.0469
  186MOL0     H25081   3.383   1.856  10.905  0.8947  0.3672  1.1647
  186MOL0     H25082   3.684   1.771  10.914  0.8020 -1.8999 -1.2187
  186MOL0     H25083   3.554   1.709  11.016  1.6883 -0.0406 -0.3666
  186MOL0     H25084   3.462   1.587  10.794 -0.4695  0.0239  2.1868
  186MOL0     H25085   3.586   1.524  10.895 -0.9022 -0.8299 -1.1805
  186MOL0     H25086   3.644   1.714  10.662  2.5873  0.4409 -0.1929
  186MOL0     H25087   3.746   1.586  10.755 -0.7198 -3.0874 -0.5890
  186MOL0     H25088   3.519   1.479  10.610  0.4242 -0.6043  0.1622
  186MOL0     H25089   3.675   1.404  10.646 -0.7950 -0.2519  1.3573
  186MOL0     H25090   3.771   1.525  10.457 -0.3235  4.9885 -0.5446
  186MOL0     H25091   3.628   1.623  10.448  0.4798  1.4444  0.8211
  186MOL0     H25092   3.447   2.316  10.693 -0.3773  0.2672 -1.1577
  186MOL0     H25093   3.321   2.431  10.524 -0.5055  1.3857  2.0291
  186MOL0     H25094   2.811   2.430  10.434 -4.6238 -0.4264 -0.3116
  186MOL0     H25095   2.639   2.476  10.274 -0.0821 -0.2655 -0.0330
  186MOL0     H25096   0.857   2.167  10.654  1.3912 -1.2092  0.1476
  186MOL0     H25097   0.613   2.224  10.685 -0.3508  1.0859 -0.8941
  186MOL0     H25098   0.303   2.336  10.854 -0.7804 -0.7088 -1.1188
  186MOL0     H25099   0.091   2.399  10.957 -0.3912  0.7321  0.3034
  186MOL0     H25100  -0.153   2.720  10.722  4.8701 -0.4013  0.3598
  186MOL0     H25101  -0.269   2.588  10.754 -0.0300 -0.0378  1.9278
  186MOL0     H25102  -0.336   2.801  10.870  1.3937 -0.1845  0.3528
  186MOL0     H25103  -0.187   2.821  10.932  0.4114  1.5498  0.1275
  186MOL0     H25104  -0.350   2.744  11.094  0.3841 -0.5066 -1.5708
  186MOL0     H25105  -0.209   2.626  11.089 -0.1276 -1.5320 -0.5514
  186MOL0     H25106  -0.352   2.497  10.935  0.4157  1.7042 -1.2976
  186MOL0     H25107  -0.488   2.607  10.982  0.6331  0.5575 -1.1879
  186MOL0     H25108  -0.492   2.343  11.305 -1.3377 -0.3160 -1.3887
  186MOL0     H25109   0.021   2.646  10.602 -1.1650  2.4337  1.3170
  186MOL0     H25110   0.234   2.609  10.543  0.0119  0.5942  0.6438
  187MOL0     O25111  10.020   3.473  10.281 -0.2026  0.5704 -1.1198
  187MOL0     C25112   9.912   3.436  10.317 -0.0539  0.2068 -0.2892
  187MOL0     O25113   9.891   3.326  10.395 -0.6893 -0.8617  0.5906
  187MOL0     C25114   9.977   3.227  10.398  0.3483  0.5274  0.1040
  187MOL0     C25115   9.991   3.177  10.526  0.6894  0.5202  0.7893
  187MOL0     C25116  10.079   3.077  10.554 -0.5131  0.4988  0.3033
  187MOL0     C25117  10.165   3.030  10.447 -0.3128  0.0063 -0.0132
  187MOL0     O25118  10.250   2.927  10.484  0.3462  0.0395  0.2980
  187MOL0     C25119  10.337   2.867  10.389  0.2489 -0.2813  0.8600
  187MOL0     C25120  10.399   2.743  10.463 -0.0283  0.2858 -0.2783
  187MOL0     C25121  10.305   2.638  10.525 -0.0934  0.7371  0.3659
  187MOL0     C25122  10.396   2.559  10.630 -0.5176 -0.4084 -0.9399
  187MOL0     C25123  10.316   2.500  10.745 -0.0374 -0.0132 -0.6666
  187MOL0     C25124  10.303   2.611  10.855  0.3955 -0.5813  0.0735
  187MOL0     C25125  10.210   2.571  10.980 -0.7244  0.3321  0.3900
  187MOL0     C25126  10.062   2.546  10.936 -0.6311 -0.2832 -0.2269
  187MOL0     N25127   9.992   2.668  10.906 -0.6054  0.3449 -0.1193
  187MOL0     C25128  10.026   2.794  10.959  0.0167  0.5310 -0.3053
  187MOL0     C25129   9.932   2.878  10.911  0.4458  0.0484 -0.4089
  187MOL0     C25130   9.914   3.019  10.955 -0.6690  0.9553 -0.3318
  187MOL0     C25131   9.779   3.069  10.923 -0.1614 -0.2552 -0.9440
  187MOL0     C25132   9.760   3.219  10.944  0.3175 -0.2377 -0.2663
  187MOL0     C25133   9.615   3.260  10.939  0.2110 -0.8697  0.5480
  187MOL0     O25134   9.567   3.264  11.070 -0.4545  0.0431  0.5762
  187MOL0     C25135   9.436   3.242  11.086  0.5432 -0.2472 -0.4824
  187MOL0     C25136   9.331   3.291  11.003  0.1347  0.8773  0.4946
  187MOL0     C25137   9.199   3.283  11.043  0.1537 -0.3008 -0.3823
  187MOL0     C25138   9.099   3.351  10.956  0.2361 -0.2724  0.6102
  187MOL0     C25139   9.165   3.239  11.171 -1.1135  0.1731  0.2249
  187MOL0     C25140   9.032   3.250  11.232 -0.3946  0.7986 -0.2206
  187MOL0     O25141   8.988   3.133  11.282  0.3266  0.9698 -0.3752
  187MOL0     C25142   8.860   3.108  11.322  0.6341 -0.6252 -0.6408
  187MOL0     C25143   8.850   2.992  11.390  0.2612 -0.1780 -0.1928
  187MOL0     C25144   8.731   2.945  11.442 -0.3956  0.6574 -0.3697
  187MOL0     C25145   8.610   3.007  11.415 -0.6075 -0.5775 -0.2073
  187MOL0     O25146   8.496   2.966  11.478 -0.7439 -0.3821 -0.1990
  187MOL0     C25147   8.374   2.995  11.417 -1.6780 -0.4247 -1.0707
  187MOL0     C25148   8.280   2.950  11.530  0.6905 -0.3181 -0.6017
  187MOL0     C25149   8.121   2.981  11.509 -0.5836 -0.3683  0.9235
  187MOL0     C25150   8.056   2.886  11.409 -0.2537  0.4883  0.5033
  187MOL0     C25151   7.906   2.906  11.412 -0.2042 -0.7658  0.6473
  187MOL0     C25152   7.826   2.878  11.534  0.1433 -0.4367  0.0894
  187MOL0     C25153   7.863   2.743  11.589 -1.1728 -0.1745  0.5933
  187MOL0     C25154   7.776   2.699  11.698 -0.1371 -0.5200  0.0059
  187MOL0    Cl25155   7.621   2.649  11.639  0.4126  0.3111  0.1326
  187MOL0     C25156   8.613   3.120  11.328 -0.5280 -0.0235  0.4925
  187MOL0     C25157   8.737   3.178  11.285 -0.8146 -0.8920 -0.4244
  187MOL0     O25158   8.979   3.360  11.259 -0.0921 -0.6369 -0.0530
  187MOL0     C25159   9.264   3.193  11.253  0.3165  0.0219 -0.5799
  187MOL0     C25160   9.397   3.183  11.210 -0.7954 -0.0064 -0.1164
  187MOL0     N25161   9.849   2.811  10.823  0.5938  0.1858 -0.4729
  187MOL0     N25162   9.882   2.682  10.825  0.4486 -0.2528 -0.9048
  187MOL0     C25163  10.154   3.083  10.321 -0.4438 -0.8139  0.4865
  187MOL0     C25164  10.061   3.181  10.299 -0.5544  0.3268 -0.2139
  187MOL0     C25165   9.791   3.524  10.277 -0.1739 -0.0392  0.0692
  187MOL0     C25166   9.667   3.474  10.315 -0.7272  0.3321  0.7047
  187MOL0     C25167   9.559   3.559  10.286  0.1773 -1.3320  0.1394
  187MOL0     C25168   9.569   3.687  10.228  0.2773  0.2155 -0.6921
  187MOL0     O25169   9.450   3.745  10.197 -0.0741  0.0328 -0.2005
  187MOL0     C25170   9.426   3.879  10.250  0.5766 -0.0573 -0.7929
  187MOL0     C25171   9.423   3.883  10.413 -0.1358 -1.0054  0.0946
  187MOL0     C25172   9.305   3.794  10.464  0.2100 -0.0306  0.8327
  187MOL0     C25173   9.326   3.784  10.612  0.0251 -0.3892  0.6809
  187MOL0     C25174   9.234   3.683  10.666 -0.2661 -0.0024  0.7540
  187MOL0     C25175   9.145   3.605  10.691 -0.4976  0.8059 -0.2368
  187MOL0     C25176   9.691   3.737  10.195  0.1523  0.5460 -0.3080
  187MOL0     C25177   9.802   3.661  10.229 -0.1728  0.2310 -0.4655
  187MOL0     H25178   9.918   3.213  10.598  0.8849 -0.2334  1.3755
  187MOL0     H25179  10.080   3.022  10.647  1.8840  0.5136  0.3595
  187MOL0     H25180  10.259   2.845  10.315 -1.4530  1.2642  2.1024
  187MOL0     H25181  10.416   2.930  10.348  0.6351  2.9089  5.7651
  187MOL0     H25182  10.454   2.685  10.388  1.6643 -1.2145  1.9838
  187MOL0     H25183  10.473   2.782  10.533 -0.0327 -0.4562  0.1551
  187MOL0     H25184  10.210   2.674  10.565 -1.0828 -1.3387  0.0324
  187MOL0     H25185  10.271   2.569  10.447  1.5718  0.7906 -0.4524
  187MOL0     H25186  10.462   2.480  10.594  1.2609 -0.4043  2.0203
  187MOL0     H25187  10.465   2.631  10.674  1.8751 -2.6376 -0.8599
  187MOL0     H25188  10.217   2.465  10.713 -0.3067  1.3580 -1.3700
  187MOL0     H25189  10.354   2.404  10.781 -1.9047 -0.6323 -0.2309
  187MOL0     H25190  10.405   2.616  10.895  0.8274 -1.5748 -0.8639
  187MOL0     H25191  10.274   2.703  10.804  0.5072 -0.1183  0.8255
  187MOL0     H25192  10.261   2.478  11.008 -0.1117  0.0934 -1.3949
  187MOL0     H25193  10.224   2.645  11.059  0.6374  3.2458 -2.3827
  187MOL0     H25194  10.010   2.500  11.021  2.9800  0.9508  2.9489
  187MOL0     H25195  10.057   2.485  10.846 -0.9916 -0.6783  0.0553
  187MOL0     H25196  10.110   2.816  11.024  1.5833  0.5660 -2.2513
  187MOL0     H25197   9.940   3.031  11.060  5.0499  1.2965 -1.4486
  187MOL0     H25198   9.985   3.088  10.909 -0.0485  1.6826  1.6222
  187MOL0     H25199   9.708   3.011  10.984 -2.5191  1.0310 -2.3203
  187MOL0     H25200   9.745   3.055  10.820  0.5635 -1.4578 -1.0493
  187MOL0     H25201   9.808   3.272  10.861 -1.9297  0.6394 -1.0690
  187MOL0     H25202   9.801   3.270  11.032  1.5456  3.4501 -2.7395
  187MOL0     H25203   9.549   3.201  10.875  1.2293 -0.5864 -0.8223
  187MOL0     H25204   9.626   3.360  10.896  0.6770  0.9669  4.5355
  187MOL0     H25205   9.351   3.338  10.906  1.3536  0.2424  0.4272
  187MOL0     H25206   9.138   3.369  10.855 -3.3928  0.7054 -0.8056
  187MOL0     H25207   9.021   3.276  10.940 -1.8058  1.9536 -0.4755
  187MOL0     H25208   9.071   3.444  11.006 -1.2295  0.8423 -2.0454
  187MOL0     H25209   8.947   2.944  11.396 -1.0599 -2.9879 -0.1008
  187MOL0     H25210   8.748   2.852  11.496  2.3999  1.1189 -0.3211
  187MOL0     H25211   8.350   3.099  11.391  1.7201  1.5052  2.4614
  187MOL0     H25212   8.385   2.926  11.333 -0.7026  0.0208 -1.3275
  187MOL0     H25213   8.296   2.844  11.554  0.3971 -0.6223 -1.6620
  187MOL0     H25214   8.311   3.003  11.620 -1.0420 -1.3056  0.6326
  187MOL0     H25215   8.110   3.083  11.470 -2.1334 -0.4105  1.1968
  187MOL0     H25216   8.075   2.978  11.608 -0.8387 -2.6257  0.7862
  187MOL0     H25217   8.087   2.909  11.307  2.2616 -0.9888  0.8474
  187MOL0     H25218   8.083   2.781  11.424 -0.3598  0.1028 -1.6771
  187MOL0     H25219   7.867   2.865  11.318 -0.6464 -0.5903  0.7541
  187MOL0     H25220   7.896   3.015  11.420  0.1143 -0.7091  0.2973
  187MOL0     H25221   7.849   2.954  11.608 -3.7426 -0.4093  1.5277
  187MOL0     H25222   7.717   2.884  11.523 -0.3599 -2.8387  2.6795
  187MOL0     H25223   7.956   2.755  11.644 -0.1104 -2.5284 -0.5680
  187MOL0     H25224   7.874   2.660  11.518  2.7122  0.4469  0.2629
  187MOL0     H25225   7.762   2.781  11.769  0.0799 -0.3421 -0.1543
  187MOL0     H25226   7.831   2.629  11.761 -0.2055  1.7210  2.7509
  187MOL0     H25227   8.525   3.171  11.291  0.9655  2.4025  0.0297
  187MOL0     H25228   8.733   3.268  11.225  1.3453 -1.5108 -1.6122
  187MOL0     H25229   9.244   3.169  11.357  0.0255  4.9425  0.7379
  187MOL0     H25230   9.477   3.152  11.277 -0.3426  1.2450 -0.0534
  187MOL0     H25231  10.200   3.044  10.231  0.1952  2.5140 -0.7392
  187MOL0     H25232  10.041   3.205  10.195 -1.5820 -0.2135 -0.1492
  187MOL0     H25233   9.660   3.374  10.355  0.9313  0.0818  0.4234
  187MOL0     H25234   9.456   3.525  10.293 -0.6516  0.0086 -3.4374
  187MOL0     H25235   9.499   3.947  10.206 -1.9269  1.5120 -2.7985
  187MOL0     H25236   9.327   3.905  10.211  0.1336  2.0062  1.4436
  187MOL0     H25237   9.417   3.986  10.450 -0.0777 -1.3455  1.0833
  187MOL0     H25238   9.524   3.847  10.432  0.3996 -0.5193 -1.6757
  187MOL0     H25239   9.314   3.695  10.418 -0.1411 -0.6037  1.9725
  187MOL0     H25240   9.206   3.827  10.433  0.2038 -0.5857  0.2418
  187MOL0     H25241   9.298   3.880  10.658  0.9957  0.4941 -0.5108
  187MOL0     H25242   9.430   3.766  10.638  0.6867 -0.9600 -2.1225
  187MOL0     H25243   9.060   3.540  10.694 -2.1713  2.8333 -1.0392
  187MOL0     H25244   9.694   3.832  10.143  0.0074  1.0463  0.5814
  187MOL0     H25245   9.907   3.682  10.207  0.5347 -1.6691  0.8642
  188MOL0     O25246  10.959   7.364   1.043  0.2123  0.5502  1.2770
  188MOL0     C25247  11.022   7.261   1.063  0.5361  0.1585 -0.7314
  188MOL0     O25248  11.074   7.185   0.972 -1.1009  0.0561  0.3875
  188MOL0     C25249  11.059   7.227   0.839  0.4068 -0.5952  0.6227
  188MOL0     C25250  11.135   7.317   0.782 -0.3770  0.7252 -0.0485
  188MOL0     C25251  11.116   7.360   0.643 -0.3079  0.6247  0.3622
  188MOL0     C25252  11.019   7.298   0.563 -1.2624 -0.9175 -0.5981
  188MOL0     O25253  10.993   7.335   0.436 -0.3051  0.6130 -0.7144
  188MOL0     C25254  11.072   7.441   0.380 -0.3959 -0.7627  0.4882
  188MOL0     C25255  11.024   7.485   0.234 -0.5604  0.5533 -0.7128
  188MOL0     C25256  10.913   7.590   0.229 -0.0952 -0.0369 -0.5691
  188MOL0     C25257  10.784   7.544   0.301  0.0288 -0.4415  0.1937
  188MOL0     C25258  10.700   7.466   0.190  0.5542 -0.6328  1.1311
  188MOL0     C25259  10.558   7.432   0.239 -0.6125  0.0352 -0.4964
  188MOL0     C25260  10.500   7.550   0.310 -0.1110  0.0528  0.3864
  188MOL0     C25261  10.354   7.523   0.353 -0.5576 -0.7652 -0.7704
  188MOL0     N25262  10.272   7.565   0.243 -0.8207 -0.5409 -0.1552
  188MOL0     C25263  10.229   7.700   0.224  0.4779  0.0210  0.7248
  188MOL0     C25264  10.167   7.686   0.100 -0.4335  0.0636  0.4067
  188MOL0     C25265  10.084   7.781   0.019 -0.1668 -0.4334  0.8116
  188MOL0     C25266   9.995   7.879   0.097 -0.4543 -0.2261  1.3326
  188MOL0     C25267   9.893   7.801   0.173  0.2608  0.1937  0.1128
  188MOL0     C25268   9.767   7.875   0.200  0.0414 -0.7248  0.8781
  188MOL0     O25269   9.687   7.792   0.290 -1.3534 -0.3860  0.2368
  188MOL0     C25270   9.573   7.849   0.336  0.2412  0.2532  0.9107
  188MOL0     C25271   9.542   7.811   0.470  0.5698  1.0467  0.2943
  188MOL0     C25272   9.418   7.835   0.525 -0.5510 -0.4094 -0.1299
  188MOL0     C25273   9.390   7.760   0.650  0.9301  0.7606  0.1321
  188MOL0     C25274   9.334   7.934   0.456  0.3764  0.8625  0.6980
  188MOL0     C25275   9.197   7.972   0.501  0.4074 -0.5751  0.0405
  188MOL0     O25276   9.162   7.959   0.634  0.4496 -0.5390 -0.0040
  188MOL0     C25277   9.037   7.991   0.677 -0.3766 -0.7882  0.3691
  188MOL0     C25278   8.957   7.905   0.743 -0.3727  0.4599 -0.8321
  188MOL0     C25279   8.829   7.945   0.779 -0.1728 -0.2891  0.0885
  188MOL0     C25280   8.792   8.083   0.772 -0.4875  0.1757 -0.3610
  188MOL0     O25281   8.682   8.138   0.813 -0.2920 -0.4851  1.2174
  188MOL0     C25282   8.634   8.098   0.939  0.0483  0.5269  0.1799
  188MOL0     C25283   8.715   8.159   1.059 -0.7935  0.3203 -0.8194
  188MOL0     C25284   8.669   8.296   1.107  0.1016  0.8785  0.6953
  188MOL0     C25285   8.643   8.408   1.000  0.6975 -0.3662 -0.2408
  188MOL0     C25286   8.562   8.527   1.055 -0.7916 -0.3969  0.6189
  188MOL0     C25287   8.418   8.486   1.084  0.4338 -0.2806  0.4685
  188MOL0     C25288   8.347   8.621   1.112 -0.4973 -0.2618 -0.1201
  188MOL0     C25289   8.202   8.618   1.149  0.2558 -0.0003  0.0316
  188MOL0    Cl25290   8.171   8.468   1.259  0.2459  0.4028 -0.0720
  188MOL0     C25291   8.875   8.170   0.707  1.0361  0.2047  0.2994
  188MOL0     C25292   9.003   8.131   0.658  0.4294  0.7020  0.3189
  188MOL0     O25293   9.118   8.011   0.417 -0.2635 -0.2337 -0.0255
  188MOL0     C25294   9.382   7.992   0.332  0.3854  0.3664 -0.0406
  188MOL0     C25295   9.506   7.946   0.277  0.5731 -0.9558 -0.4320
  188MOL0     N25296  10.184   7.561   0.050  0.5425 -0.0334  0.7459
  188MOL0     N25297  10.252   7.491   0.129 -0.4531 -0.1090 -0.4403
  188MOL0     C25298  10.942   7.202   0.621 -0.7205  0.3065 -0.9134
  188MOL0     C25299  10.958   7.174   0.759 -0.0135  0.1695  0.2213
  188MOL0     C25300  11.024   7.220   1.204 -0.5452 -1.0459  0.3932
  188MOL0     C25301  11.115   7.123   1.256  0.9632  0.2109 -0.2233
  188MOL0     C25302  11.116   7.086   1.393  0.0859  0.5025 -0.1316
  188MOL0     C25303  11.037   7.146   1.488 -0.0219 -0.0688  0.2855
  188MOL0     O25304  11.044   7.117   1.625  0.0218  0.0514  0.2021
  188MOL0     C25305  11.177   7.099   1.690 -0.1885 -0.3284 -0.6767
  188MOL0     C25306  11.262   7.228   1.690  1.3115  0.5023  0.0454
  188MOL0     C25307  11.394   7.198   1.760 -0.0347  0.1507 -0.3768
  188MOL0     C25308  11.471   7.322   1.751  0.1538 -0.7462 -0.4025
  188MOL0     C25309  11.425   7.446   1.821 -0.5695 -0.4115  0.2821
  188MOL0     C25310  11.392   7.547   1.877  0.5091  0.9686 -0.1561
  188MOL0     C25311  10.958   7.250   1.440  0.0188 -0.1204 -0.4485
  188MOL0     C25312  10.941   7.278   1.302 -0.2829 -0.8245 -1.2396
  188MOL0     H25313  11.209   7.382   0.828  0.6854  2.2752 -3.5637
  188MOL0     H25314  11.164   7.453   0.616 -0.7943  0.3957 -1.4166
  188MOL0     H25315  11.081   7.538   0.429  2.5342  0.4167 -2.0371
  188MOL0     H25316  11.175   7.405   0.368 -0.3372  0.0312 -1.9026
  188MOL0     H25317  11.117   7.525   0.191  0.8879  1.7517  3.1266
  188MOL0     H25318  10.996   7.394   0.180  3.5588 -3.4132  2.9346
  188MOL0     H25319  10.947   7.686   0.269  1.8291 -1.2970  0.9979
  188MOL0     H25320  10.904   7.620   0.124  3.5542 -1.3979 -1.4205
  188MOL0     H25321  10.806   7.489   0.393 -0.1446  1.2364  1.2895
  188MOL0     H25322  10.735   7.638   0.330 -0.6390 -0.7652  0.1281
  188MOL0     H25323  10.699   7.526   0.099  0.3952 -0.7299  1.0687
  188MOL0     H25324  10.753   7.374   0.162 -1.7290 -1.1980 -1.8200
  188MOL0     H25325  10.499   7.400   0.152 -0.8953  0.4771 -0.4665
  188MOL0     H25326  10.554   7.358   0.320  1.0138  0.6827  0.2293
  188MOL0     H25327  10.554   7.558   0.404 -1.0921 -0.4569  1.0124
  188MOL0     H25328  10.513   7.642   0.251  0.2180  0.9760  1.8482
  188MOL0     H25329  10.330   7.574   0.447  1.1468  1.7615 -1.6001
  188MOL0     H25330  10.339   7.415   0.368  1.5414 -0.9865 -0.0251
  188MOL0     H25331  10.235   7.782   0.295  1.6598  1.3436 -0.8322
  188MOL0     H25332  10.154   7.835  -0.046  1.3064 -2.7710  0.3440
  188MOL0     H25333  10.012   7.728  -0.045 -0.5944  1.9072 -0.7932
  188MOL0     H25334   9.944   7.939   0.021 -0.5788 -0.2994  1.3598
  188MOL0     H25335  10.067   7.924   0.165  3.9024 -2.0151 -1.6525
  188MOL0     H25336   9.925   7.771   0.274 -2.2224 -1.7687  0.4312
  188MOL0     H25337   9.859   7.711   0.122  0.5608 -0.4265  0.9784
  188MOL0     H25338   9.708   7.899   0.112  0.6523 -3.7739 -0.5022
  188MOL0     H25339   9.801   7.966   0.249  1.3668 -0.4550 -0.4726
  188MOL0     H25340   9.611   7.740   0.513  0.0947  0.3778 -0.0348
  188MOL0     H25341   9.480   7.750   0.712  1.9325  0.9128 -1.2663
  188MOL0     H25342   9.322   7.819   0.713 -0.1730  0.7268 -0.9897
  188MOL0     H25343   9.346   7.662   0.631 -2.5409  2.2322 -0.2120
  188MOL0     H25344   8.987   7.807   0.778 -1.8250 -0.2239 -1.4192
  188MOL0     H25345   8.759   7.872   0.819 -2.2489  1.1404 -0.7734
  188MOL0     H25346   8.534   8.136   0.959 -0.3086 -0.6267  0.6899
  188MOL0     H25347   8.620   7.989   0.940 -2.7117  0.7897 -0.8392
  188MOL0     H25348   8.728   8.095   1.147  1.7833  2.4095  0.4561
  188MOL0     H25349   8.820   8.167   1.029  0.0608  1.1762  2.0463
  188MOL0     H25350   8.725   8.342   1.189 -1.9348  1.7193  1.6834
  188MOL0     H25351   8.573   8.273   1.153 -1.2419 -1.1168 -2.7443
  188MOL0     H25352   8.738   8.451   0.969  2.5523 -2.4642  2.0503
  188MOL0     H25353   8.585   8.370   0.915 -2.1109  1.4773  0.6930
  188MOL0     H25354   8.556   8.615   0.990 -1.7907 -0.9395 -0.0472
  188MOL0     H25355   8.611   8.569   1.144 -1.1144  0.7277  0.2798
  188MOL0     H25356   8.379   8.440   0.993  0.7218  2.2229 -1.0230
  188MOL0     H25357   8.420   8.414   1.166 -2.0059 -2.6421 -1.3450
  188MOL0     H25358   8.364   8.683   1.024  0.6439  0.2635  0.4461
  188MOL0     H25359   8.391   8.662   1.204  2.5102 -0.3748 -1.3852
  188MOL0     H25360   8.146   8.601   1.056  4.4400 -2.1898 -2.3645
  188MOL0     H25361   8.172   8.715   1.189  1.9699  1.0226 -1.0408
  188MOL0     H25362   8.853   8.276   0.704 -1.7965 -0.1721  2.8019
  188MOL0     H25363   9.078   8.192   0.609  0.2208 -2.5594 -4.8151
  188MOL0     H25364   9.310   8.052   0.277  0.7007  0.3038 -0.5228
  188MOL0     H25365   9.530   7.995   0.183 -2.4411 -1.2563 -1.4816
  188MOL0     H25366  10.855   7.154   0.577 -0.2144 -0.0650 -1.5174
  188MOL0     H25367  10.897   7.102   0.813  0.3610 -1.1461 -1.0405
  188MOL0     H25368  11.179   7.074   1.184  2.4145  1.4129  0.1817
  188MOL0     H25369  11.181   7.002   1.419  0.9768  1.3821  0.5376
  188MOL0     H25370  11.168   7.069   1.795  1.9268  2.2926  0.3741
  188MOL0     H25371  11.231   7.019   1.639 -0.5160 -0.7666 -0.3385
  188MOL0     H25372  11.206   7.300   1.750 -1.1871 -1.8386  0.7500
  188MOL0     H25373  11.281   7.254   1.585  1.1181  0.7001  0.0601
  188MOL0     H25374  11.431   7.109   1.708 -0.7915  0.1664 -0.9658
  188MOL0     H25375  11.365   7.179   1.864  0.2192  1.7766  0.0211
  188MOL0     H25376  11.483   7.362   1.650 -0.4853  1.9678  0.5036
  188MOL0     H25377  11.572   7.300   1.787  0.9150  1.4115 -1.0334
  188MOL0     H25378  11.367   7.638   1.929  0.6548  0.9405 -0.0356
  188MOL0     H25379  10.890   7.290   1.515 -2.6511 -3.3152 -0.9292
  188MOL0     H25380  10.883   7.368   1.282  1.8421  1.8817  3.0991
  189MOL0     O25381   7.537   0.605   5.803 -0.7758  0.1141  0.2271
  189MOL0     C25382   7.641   0.536   5.801 -0.2533  1.7691  0.0589
  189MOL0     O25383   7.644   0.395   5.797 -0.1017  0.5166  0.1530
  189MOL0     C25384   7.527   0.318   5.826 -0.4201  0.1650 -0.1066
  189MOL0     C25385   7.413   0.334   5.910 -0.1992 -1.0186  0.2155
  189MOL0     C25386   7.315   0.237   5.924 -0.7214  0.2213 -0.0141
  189MOL0     C25387   7.317   0.121   5.838 -0.9830 -0.9752  0.2294
  189MOL0     O25388   7.216   0.035   5.835 -1.0282  0.5434 -0.3287
  189MOL0     C25389   7.118   0.034   5.948 -0.1149  0.6098 -0.4045
  189MOL0     C25390   7.056  -0.111   5.957  0.0177 -0.2611 -0.5955
  189MOL0     C25391   6.975  -0.158   5.841  0.7308 -0.2031 -0.5028
  189MOL0     C25392   6.915  -0.309   5.867 -0.2725  0.5695  0.9371
  189MOL0     C25393   6.824  -0.349   5.754 -0.0218 -0.3162 -0.0003
  189MOL0     C25394   6.688  -0.279   5.761  0.0501 -0.5169  0.3968
  189MOL0     C25395   6.600  -0.328   5.642 -0.2002  0.4815  0.3517
  189MOL0     C25396   6.465  -0.242   5.651 -0.0811 -0.1441 -0.5332
  189MOL0     N25397   6.352  -0.321   5.590 -0.5320  0.8234  0.5102
  189MOL0     C25398   6.241  -0.258   5.529 -1.0066 -0.4754  0.1492
  189MOL0     C25399   6.158  -0.367   5.499  0.6338 -0.1950  0.8201
  189MOL0     C25400   6.022  -0.348   5.442 -0.3391  0.1686  0.7074
  189MOL0     C25401   6.004  -0.282   5.308 -0.3121 -0.5397  0.5101
  189MOL0     C25402   6.045  -0.360   5.182  0.5592  0.9207  0.5457
  189MOL0     C25403   5.972  -0.496   5.177  0.4366 -0.6301  1.0007
  189MOL0     O25404   5.978  -0.557   5.045 -0.1971  0.6545  0.4444
  189MOL0     C25405   5.948  -0.693   5.030  0.6419  0.5858 -0.0092
  189MOL0     C25406   5.916  -0.791   5.133  0.5652 -0.6851  0.0134
  189MOL0     C25407   5.894  -0.930   5.100 -0.1509  0.3739 -0.2311
  189MOL0     C25408   5.823  -1.018   5.212 -0.2066  0.1392  1.0691
  189MOL0     C25409   5.908  -0.971   4.968  0.3469 -0.0465  0.1806
  189MOL0     C25410   5.899  -1.109   4.910 -0.8956 -0.4347 -0.3242
  189MOL0     O25411   5.920  -1.121   4.777 -0.1767  0.5374 -0.2011
  189MOL0     C25412   5.964  -1.244   4.731  0.2944 -0.0221  0.2627
  189MOL0     C25413   5.907  -1.300   4.614  0.1255  0.0382 -0.6922
  189MOL0     C25414   5.981  -1.405   4.546  0.1491  0.0888  0.8173
  189MOL0     C25415   6.095  -1.468   4.602  0.3575 -0.2313  0.4117
  189MOL0     O25416   6.160  -1.571   4.540  0.3218  0.1967  0.3305
  189MOL0     C25417   6.289  -1.609   4.586  0.0731 -0.5099 -0.4428
  189MOL0     C25418   6.357  -1.671   4.462 -1.6129 -0.1582  0.4226
  189MOL0     C25419   6.502  -1.705   4.509  0.4167 -0.2269  0.0852
  189MOL0     C25420   6.580  -1.782   4.402 -0.7179  0.0985  0.2276
  189MOL0     C25421   6.734  -1.803   4.428 -0.4999  0.3708  0.1675
  189MOL0     C25422   6.747  -1.930   4.513 -0.2675 -0.3194  0.2572
  189MOL0     C25423   6.898  -1.951   4.543  0.7093 -0.2039 -0.4013
  189MOL0     C25424   6.947  -1.855   4.646  0.9846 -0.1484  0.4533
  189MOL0    Cl25425   7.118  -1.905   4.690  0.3660 -0.0747  0.4016
  189MOL0     C25426   6.137  -1.411   4.725 -0.9592  0.4234  0.3734
  189MOL0     C25427   6.076  -1.304   4.782 -0.2742 -0.3115  0.6509
  189MOL0     O25428   5.889  -1.199   4.979 -0.5712  0.6210 -0.2478
  189MOL0     C25429   5.942  -0.875   4.880  0.8414 -0.2767  1.4008
  189MOL0     C25430   5.963  -0.747   4.910  0.0555  0.8268 -0.9902
  189MOL0     N25431   6.217  -0.489   5.536  0.0712  0.0462 -0.6837
  189MOL0     N25432   6.325  -0.457   5.601  0.2237  0.6113  0.2075
  189MOL0     C25433   7.430   0.097   5.761 -0.7954 -0.2402  0.6128
  189MOL0     C25434   7.531   0.193   5.761 -0.3202  0.0122  0.9016
  189MOL0     C25435   7.774   0.600   5.817 -0.4839 -0.8096  0.4283
  189MOL0     C25436   7.909   0.544   5.818 -0.5309 -0.0657  0.1338
  189MOL0     C25437   8.024   0.620   5.831 -0.6319  0.0177  0.7541
  189MOL0     C25438   8.024   0.756   5.876 -0.2665  0.2617  0.4955
  189MOL0     O25439   8.141   0.820   5.912  0.0552 -0.3956  0.6195
  189MOL0     C25440   8.138   0.923   6.011 -0.6951 -0.0911 -0.5521
  189MOL0     C25441   8.272   1.003   6.021 -1.3620 -0.1370 -0.2469
  189MOL0     C25442   8.396   0.927   6.061 -0.8561 -0.8383 -0.7694
  189MOL0     C25443   8.497   1.024   6.135  0.7134 -0.5291  0.7323
  189MOL0     C25444   8.604   1.091   6.054  0.3537  0.1172  0.6425
  189MOL0     C25445   8.693   1.155   5.991  0.6940  0.0576 -0.0481
  189MOL0     C25446   7.894   0.805   5.882  0.4836 -0.5760 -0.1161
  189MOL0     C25447   7.776   0.737   5.852  0.6305  0.9297  0.1182
  189MOL0     H25448   7.401   0.422   5.973 -1.7622 -0.9073 -0.1926
  189MOL0     H25449   7.243   0.271   5.998  0.4176 -0.7115  1.6122
  189MOL0     H25450   7.166   0.050   6.045 -2.0665 -1.0677  0.9339
  189MOL0     H25451   7.042   0.110   5.926  0.4840  2.0188  2.0235
  189MOL0     H25452   7.144  -0.174   5.969  2.2831  2.8834  0.6707
  189MOL0     H25453   7.001  -0.105   6.051  0.3884 -1.4714 -0.2903
  189MOL0     H25454   6.895  -0.084   5.832 -2.1273 -2.8542  1.0027
  189MOL0     H25455   7.045  -0.159   5.757 -0.8341  2.5048 -1.9738
  189MOL0     H25456   6.993  -0.385   5.881 -0.0724  0.9403  1.9590
  189MOL0     H25457   6.862  -0.318   5.963 -0.9565  2.0082  0.7219
  189MOL0     H25458   6.871  -0.351   5.655 -0.1088 -2.4484 -0.0538
  189MOL0     H25459   6.799  -0.454   5.772  0.1322 -0.3311  0.1319
  189MOL0     H25460   6.639  -0.317   5.851 -0.5484 -2.3527 -0.6562
  189MOL0     H25461   6.690  -0.170   5.751  0.1245 -0.7203 -3.4846
  189MOL0     H25462   6.658  -0.301   5.552  1.0865  1.5421  1.4543
  189MOL0     H25463   6.582  -0.435   5.649  1.8901  0.1131  0.8409
  189MOL0     H25464   6.457  -0.144   5.604 -0.7147 -1.2264 -2.8639
  189MOL0     H25465   6.437  -0.239   5.757  1.6477  2.6811 -0.0814
  189MOL0     H25466   6.233  -0.151   5.514  4.4618  0.0486 -0.9579
  189MOL0     H25467   5.969  -0.443   5.456 -0.3257 -0.0938 -0.8725
  189MOL0     H25468   5.984  -0.282   5.521  1.9391  3.1570 -0.5022
  189MOL0     H25469   6.073  -0.198   5.309 -0.7403 -0.1084 -1.3320
  189MOL0     H25470   5.901  -0.246   5.296  0.3245  0.4664 -3.3868
  189MOL0     H25471   6.146  -0.393   5.208  1.1387  2.4167  0.2811
  189MOL0     H25472   6.042  -0.310   5.085  0.2175  2.8125  1.4870
  189MOL0     H25473   5.868  -0.467   5.193 -0.1877 -0.2540 -2.7028
  189MOL0     H25474   6.021  -0.559   5.251  0.0765 -4.1338 -1.4882
  189MOL0     H25475   5.907  -0.756   5.235  2.7855  1.2855 -0.3760
  189MOL0     H25476   5.878  -1.110   5.232  1.5198  1.1846  1.3448
  189MOL0     H25477   5.826  -0.971   5.311  4.3385  0.3223  1.0412
  189MOL0     H25478   5.717  -1.038   5.197  0.0433 -1.5906  1.4495
  189MOL0     H25479   5.828  -1.243   4.566  1.7302 -0.5796 -4.3648
  189MOL0     H25480   5.942  -1.434   4.449  1.2163  0.5860  0.2289
  189MOL0     H25481   6.344  -1.516   4.607 -1.2333  0.1756  0.0460
  189MOL0     H25482   6.290  -1.677   4.672 -1.4756 -0.1956 -0.1519
  189MOL0     H25483   6.313  -1.767   4.432 -0.3593 -0.4557 -0.5524
  189MOL0     H25484   6.362  -1.600   4.380  3.7816  3.8334  3.5434
  189MOL0     H25485   6.495  -1.761   4.603 -1.2183 -1.8977 -0.9766
  189MOL0     H25486   6.548  -1.607   4.528 -1.2722  0.3762  1.2770
  189MOL0     H25487   6.531  -1.876   4.373  0.1984 -0.7301  1.2797
  189MOL0     H25488   6.567  -1.726   4.309 -2.9460 -5.6543 -3.4786
  189MOL0     H25489   6.768  -1.720   4.490  2.8379 -2.6483  2.8457
  189MOL0     H25490   6.785  -1.801   4.332  2.7308 -2.1998  1.6121
  189MOL0     H25491   6.686  -1.919   4.602 -0.4811  3.0799 -0.1723
  189MOL0     H25492   6.707  -2.010   4.451  0.6419 -1.9103  1.6358
  189MOL0     H25493   6.956  -1.952   4.451 -0.0310 -0.7840 -0.8777
  189MOL0     H25494   6.902  -2.052   4.584  2.1598 -0.0718 -0.1641
  189MOL0     H25495   6.890  -1.883   4.735  0.6813  0.5161  0.4740
  189MOL0     H25496   6.942  -1.751   4.612  0.3049 -0.0479  0.8335
  189MOL0     H25497   6.227  -1.449   4.771  0.1480 -1.7708 -3.2024
  189MOL0     H25498   6.123  -1.263   4.871  0.9977  4.1726 -1.7594
  189MOL0     H25499   5.960  -0.892   4.774  0.8283 -2.8881  1.7630
  189MOL0     H25500   6.008  -0.681   4.836 -2.2851  3.7544 -0.0199
  189MOL0     H25501   7.418   0.015   5.690 -1.8987  2.6217 -2.7747
  189MOL0     H25502   7.609   0.174   5.687  1.1986  0.5631  2.3116
  189MOL0     H25503   7.912   0.436   5.820  0.7389 -0.0682 -0.6988
  189MOL0     H25504   8.117   0.567   5.847 -0.1061  1.0562  1.2991
  189MOL0     H25505   8.065   1.002   5.995  1.8651  2.4689 -0.4744
  189MOL0     H25506   8.128   0.879   6.111  2.3861 -0.0006 -0.0957
  189MOL0     H25507   8.254   1.095   6.077  0.8174  1.6936 -2.3339
  189MOL0     H25508   8.303   1.031   5.919  1.0942 -0.9381  0.2065
  189MOL0     H25509   8.452   0.883   5.978 -2.9212 -2.9264 -1.1675
  189MOL0     H25510   8.371   0.845   6.129 -1.9974 -0.1626 -0.3356
  189MOL0     H25511   8.561   0.963   6.199  3.8865  0.6570 -1.0612
  189MOL0     H25512   8.441   1.099   6.192  0.1993 -2.0963  2.3660
  189MOL0     H25513   8.771   1.203   5.934  2.7616 -1.7179  1.1172
  189MOL0     H25514   7.889   0.906   5.920 -0.5779 -1.1931  1.5010
  189MOL0     H25515   7.680   0.786   5.870  1.3254  1.6873  2.0526
  190MOL0     O25516   8.392   0.905   5.096  0.2987  0.1769  0.0927
  190MOL0     C25517   8.301   0.897   5.018  1.1364 -0.5139 -0.3830
  190MOL0     O25518   8.201   0.995   5.003  0.1893  0.0707 -0.0813
  190MOL0     C25519   8.233   1.114   5.065  0.2602  0.6502 -0.3949
  190MOL0     C25520   8.318   1.215   5.021 -0.0327 -0.9064  0.5302
  190MOL0     C25521   8.326   1.337   5.092 -0.6120 -0.4728 -0.2377
  190MOL0     C25522   8.247   1.360   5.205 -0.7055  0.1539  0.7521
  190MOL0     O25523   8.256   1.481   5.269  0.4497  0.0250 -0.5151
  190MOL0     C25524   8.274   1.466   5.413 -0.1238  0.1482 -0.5760
  190MOL0     C25525   8.291   1.608   5.482 -0.3699 -0.3274  0.4714
  190MOL0     C25526   8.160   1.690   5.476  0.0290 -0.3231 -0.0166
  190MOL0     C25527   8.057   1.641   5.580  0.3271 -0.0544 -0.1754
  190MOL0     C25528   7.944   1.743   5.598  0.6760  0.7339  0.7880
  190MOL0     C25529   7.848   1.751   5.481  0.5903 -0.6019  0.4022
  190MOL0     C25530   7.775   1.890   5.489  0.8302 -0.0771  1.2748
  190MOL0     C25531   7.661   1.913   5.396 -0.9445 -0.3253  0.7495
  190MOL0     N25532   7.712   1.953   5.267 -0.0179 -0.1446  0.0972
  190MOL0     C25533   7.750   2.073   5.227 -0.0345  0.6281 -0.0067
  190MOL0     C25534   7.755   2.066   5.094  0.2962  0.1567  0.4646
  190MOL0     C25535   7.788   2.181   5.010  0.7474 -0.8663 -0.4664
  190MOL0     C25536   7.919   2.153   4.936  0.6545 -0.3687  0.3448
  190MOL0     C25537   8.038   2.201   5.010 -0.2516  0.0218 -0.2965
  190MOL0     C25538   8.164   2.161   4.938 -0.6908 -0.1444 -0.0947
  190MOL0     O25539   8.255   2.271   4.942 -0.0178 -0.2008  0.1898
  190MOL0     C25540   8.387   2.253   4.906 -0.5971 -0.6601  0.2933
  190MOL0     C25541   8.437   2.165   4.814 -0.1346  0.3273 -0.3234
  190MOL0     C25542   8.565   2.182   4.760 -0.6014 -0.2964  0.3375
  190MOL0     C25543   8.595   2.086   4.650  0.3551 -0.3501 -0.2598
  190MOL0     C25544   8.649   2.279   4.798 -0.7937 -0.3429 -0.5526
  190MOL0     C25545   8.792   2.303   4.753 -0.0293  0.0085 -0.4129
  190MOL0     O25546   8.860   2.190   4.717 -0.0046  0.2136  0.5990
  190MOL0     C25547   8.993   2.215   4.679 -1.0833 -0.8986 -0.0494
  190MOL0     C25548   9.087   2.232   4.769  0.3607  0.9519 -0.1817
  190MOL0     C25549   9.214   2.271   4.733 -0.1048  0.1390 -0.2591
  190MOL0     C25550   9.256   2.251   4.594  0.5947  0.3302 -0.4808
  190MOL0     O25551   9.375   2.303   4.560 -0.4316  0.9676 -0.0166
  190MOL0     C25552   9.423   2.307   4.423  0.8131 -0.1161  0.3646
  190MOL0     C25553   9.571   2.324   4.424 -0.8519 -0.1540 -0.1143
  190MOL0     C25554   9.608   2.457   4.495 -0.5960 -0.9865  0.3789
  190MOL0     C25555   9.745   2.456   4.564 -0.2041  0.5034 -0.5085
  190MOL0     C25556   9.774   2.582   4.629  0.4232  0.4487  1.0202
  190MOL0     C25557   9.724   2.582   4.766 -0.5039  0.9466 -0.6305
  190MOL0     C25558   9.771   2.696   4.857  0.4891  0.4365 -0.9288
  190MOL0     C25559   9.705   2.707   4.982 -0.2733  0.4941 -0.6024
  190MOL0    Cl25560   9.532   2.756   4.956 -0.0953  0.3045 -0.2680
  190MOL0     C25561   9.157   2.221   4.501  0.1761 -0.1127 -0.1811
  190MOL0     C25562   9.026   2.210   4.537 -0.2800 -1.7434 -0.5275
  190MOL0     O25563   8.834   2.416   4.745  0.1302 -1.0471  0.0728
  190MOL0     C25564   8.602   2.359   4.904  0.7297  0.0379 -0.0268
  190MOL0     C25565   8.475   2.347   4.959  0.1951  0.0114  0.7223
  190MOL0     N25566   7.723   1.940   5.048  0.5005  0.0937 -0.6314
  190MOL0     N25567   7.680   1.882   5.152 -0.2055  0.5657 -0.1613
  190MOL0     C25568   8.153   1.267   5.231  0.1133  0.6501 -0.4238
  190MOL0     C25569   8.153   1.144   5.174 -0.3175  0.2232  0.3926
  190MOL0     C25570   8.281   0.771   4.954  0.5947  0.0136 -0.6492
  190MOL0     C25571   8.386   0.670   4.960  1.0334 -0.1901  0.7077
  190MOL0     C25572   8.379   0.550   4.881  0.6076  0.4886 -0.3581
  190MOL0     C25573   8.258   0.521   4.808 -0.5785  0.5849 -0.3940
  190MOL0     O25574   8.240   0.406   4.729 -0.3333 -1.0047 -0.2354
  190MOL0     C25575   8.358   0.343   4.667  0.0983 -0.1505 -0.2580
  190MOL0     C25576   8.406   0.420   4.539  0.4173 -1.1131  0.1434
  190MOL0     C25577   8.287   0.404   4.435  0.0155 -0.8743 -0.2051
  190MOL0     C25578   8.300   0.322   4.317 -0.1552 -1.4329 -0.2076
  190MOL0     C25579   8.404   0.380   4.227 -0.7369 -1.1361  0.0948
  190MOL0     C25580   8.477   0.462   4.166 -1.0324  0.5615 -0.2647
  190MOL0     C25581   8.156   0.618   4.820 -1.0237  0.1656 -0.9585
  190MOL0     C25582   8.168   0.740   4.892 -0.3059 -1.3242  0.7261
  190MOL0     H25583   8.368   1.205   4.925  0.7241  4.4417  0.0808
  190MOL0     H25584   8.383   1.426   5.072 -0.9386 -0.7416 -2.5933
  190MOL0     H25585   8.185   1.415   5.451  0.6718 -2.4063 -1.9128
  190MOL0     H25586   8.362   1.409   5.446 -2.5322 -2.6824  1.4932
  190MOL0     H25587   8.337   1.604   5.581  2.3160  3.2938 -0.4324
  190MOL0     H25588   8.374   1.663   5.437  0.9131 -0.5119  2.4521
  190MOL0     H25589   8.191   1.789   5.508  2.3120 -0.9010 -0.2552
  190MOL0     H25590   8.117   1.695   5.375  2.0601 -2.9441 -1.1479
  190MOL0     H25591   8.016   1.544   5.548  0.6474  0.3905 -2.0306
  190MOL0     H25592   8.112   1.629   5.674 -0.1059 -1.7216 -0.0967
  190MOL0     H25593   7.882   1.716   5.683 -2.3355  0.6063 -1.2773
  190MOL0     H25594   7.993   1.838   5.620  2.0379  0.6056 -1.3225
  190MOL0     H25595   7.892   1.741   5.382 -0.6503  3.3472 -0.7376
  190MOL0     H25596   7.771   1.674   5.490  0.0932 -0.3444 -1.2740
  190MOL0     H25597   7.739   1.915   5.589  1.3064  0.3084  1.3558
  190MOL0     H25598   7.852   1.963   5.463  0.0055  0.3328 -0.1005
  190MOL0     H25599   7.581   1.976   5.436 -2.1127  0.3075 -2.3089
  190MOL0     H25600   7.623   1.811   5.399  0.6588 -0.9333  2.3695
  190MOL0     H25601   7.790   2.155   5.286  0.1696 -0.6486  1.6956
  190MOL0     H25602   7.707   2.184   4.937  1.6294  0.1947 -1.4469
  190MOL0     H25603   7.789   2.268   5.075  1.0586 -1.5733  0.4946
  190MOL0     H25604   7.894   2.203   4.842 -2.8212 -2.3267  0.0354
  190MOL0     H25605   7.921   2.046   4.917  3.5221  0.0090 -2.0575
  190MOL0     H25606   8.032   2.155   5.109 -0.6863 -2.4089 -1.3814
  190MOL0     H25607   8.043   2.310   5.018 -2.7050  0.2597 -1.1844
  190MOL0     H25608   8.142   2.122   4.839 -0.6724 -2.4728  0.7524
  190MOL0     H25609   8.214   2.084   4.998 -0.6416  0.5426  0.7672
  190MOL0     H25610   8.371   2.090   4.771 -0.6834  1.4132 -1.4256
  190MOL0     H25611   8.669   2.125   4.579  2.5078  2.2284  3.0483
  190MOL0     H25612   8.631   1.992   4.694 -0.0996 -0.6314 -0.4805
  190MOL0     H25613   8.515   2.059   4.581  0.7742 -0.0947 -0.8570
  190MOL0     H25614   9.056   2.220   4.872 -0.4676 -2.5352 -0.7092
  190MOL0     H25615   9.281   2.280   4.817 -2.5548  1.6320  1.6741
  190MOL0     H25616   9.399   2.208   4.381  0.3476  0.2050 -0.1434
  190MOL0     H25617   9.378   2.392   4.371  0.0930 -1.0511 -0.5874
  190MOL0     H25618   9.625   2.245   4.476 -0.1654  1.5231  1.8742
  190MOL0     H25619   9.606   2.343   4.322  2.9513  0.4768  1.1650
  190MOL0     H25620   9.526   2.481   4.564 -1.5379  0.9966 -1.3276
  190MOL0     H25621   9.605   2.534   4.418 -0.8240 -1.0208  0.3530
  190MOL0     H25622   9.742   2.378   4.640 -4.7890 -0.2282 -1.1602
  190MOL0     H25623   9.830   2.433   4.498 -1.3408 -2.2742 -1.1632
  190MOL0     H25624   9.723   2.666   4.579 -0.5360  0.2413  1.6209
  190MOL0     H25625   9.882   2.594   4.630  0.4917 -0.0238  2.8322
  190MOL0     H25626   9.616   2.577   4.752 -0.5082 -0.2776 -0.2484
  190MOL0     H25627   9.753   2.487   4.812 -3.6811 -0.9902 -2.2868
  190MOL0     H25628   9.759   2.791   4.804  1.7126  0.8361 -0.5299
  190MOL0     H25629   9.876   2.671   4.872  0.5142  0.3843 -1.1997
  190MOL0     H25630   9.758   2.772   5.052 -0.8258  2.4807 -1.9701
  190MOL0     H25631   9.705   2.606   5.024 -1.0798 -0.7312 -3.3105
  190MOL0     H25632   9.167   2.241   4.395 -1.6451 -1.2415 -0.5957
  190MOL0     H25633   8.945   2.221   4.465 -2.5479 -3.5941  1.5504
  190MOL0     H25634   8.675   2.424   4.951  1.1125  1.3913 -2.3131
  190MOL0     H25635   8.447   2.413   5.040  4.3272  0.4068  2.0930
  190MOL0     H25636   8.087   1.292   5.313  1.8856 -1.7956  1.9601
  190MOL0     H25637   8.090   1.075   5.229 -1.8510  1.2032 -0.0717
  190MOL0     H25638   8.478   0.673   5.017  0.6204  0.7611  1.3667
  190MOL0     H25639   8.463   0.482   4.886  0.9138  0.7975 -1.1921
  190MOL0     H25640   8.440   0.335   4.739 -0.9049  0.8147  1.0543
  190MOL0     H25641   8.327   0.240   4.647  1.3988 -0.6947  0.4277
  190MOL0     H25642   8.502   0.379   4.506  1.2390  2.4510 -2.4514
  190MOL0     H25643   8.426   0.527   4.550  2.2865 -1.4759  0.7443
  190MOL0     H25644   8.261   0.504   4.398  0.4988 -1.5552 -2.5360
  190MOL0     H25645   8.201   0.375   4.496  1.2230  2.3498  3.4004
  190MOL0     H25646   8.201   0.323   4.272 -1.2449  2.7689  1.7421
  190MOL0     H25647   8.334   0.223   4.347 -0.9238 -1.8909 -0.8185
  190MOL0     H25648   8.538   0.513   4.094 -0.2090 -2.7298 -2.0988
  190MOL0     H25649   8.072   0.590   4.757  1.0299 -0.8743 -3.4262
  190MOL0     H25650   8.101   0.826   4.892 -1.4946 -2.2216  1.7867
  191MOL0     O25651   2.326   8.609   8.536  0.7752  0.5565 -0.5100
  191MOL0     C25652   2.394   8.545   8.452  0.4244 -0.3014 -0.6613
  191MOL0     O25653   2.374   8.417   8.416 -0.0411 -0.8597 -0.0326
  191MOL0     C25654   2.254   8.357   8.436  0.4575  0.3691 -1.3579
  191MOL0     C25655   2.146   8.397   8.363  0.3296  1.1926  0.1258
  191MOL0     C25656   2.025   8.315   8.360 -0.5971  0.5241 -0.5908
  191MOL0     C25657   2.008   8.208   8.450 -0.5035  0.5051  0.2321
  191MOL0     O25658   1.897   8.128   8.468 -0.6023  0.3929  0.1691
  191MOL0     C25659   1.874   8.042   8.355  0.6859  0.6228  0.1629
  191MOL0     C25660   1.935   7.904   8.362  0.1096  0.3952  0.0886
  191MOL0     C25661   2.094   7.895   8.380 -0.0945  0.6856  0.0977
  191MOL0     C25662   2.143   7.766   8.323 -0.8212  0.8686 -0.2091
  191MOL0     C25663   2.251   7.711   8.418 -0.0379  1.6087  0.3794
  191MOL0     C25664   2.268   7.556   8.393 -0.3987  0.6746 -0.0118
  191MOL0     C25665   2.373   7.495   8.480  0.2556  0.2577  0.5655
  191MOL0     C25666   2.312   7.431   8.604  0.8141 -0.3154  0.1529
  191MOL0     N25667   2.407   7.353   8.683  0.1761 -0.8661 -0.5567
  191MOL0     C25668   2.448   7.382   8.806  0.4354  0.3161 -0.6798
  191MOL0     C25669   2.526   7.283   8.840 -0.6205 -1.0421  0.1109
  191MOL0     C25670   2.594   7.275   8.973 -0.1742  0.7029 -0.5334
  191MOL0     C25671   2.553   7.153   9.066 -0.4729 -0.0929 -0.9442
  191MOL0     C25672   2.586   7.008   9.007  0.2032  0.3091 -0.0870
  191MOL0     C25673   2.730   6.986   8.956 -0.7593 -0.4857  1.0969
  191MOL0     O25674   2.827   6.969   9.063  0.1027  0.5512  0.5103
  191MOL0     C25675   2.961   7.012   9.051  0.7093 -0.7368 -1.5260
  191MOL0     C25676   3.030   7.004   8.939  0.4835  0.2745  0.1180
  191MOL0     C25677   3.154   7.066   8.918  0.4836  0.8852  0.0806
  191MOL0     C25678   3.226   7.018   8.789  1.1755 -0.2100 -0.5647
  191MOL0     C25679   3.222   7.131   9.027  0.0852 -0.1837 -0.1305
  191MOL0     C25680   3.362   7.198   9.030  0.1759  0.1617 -1.0079
  191MOL0     O25681   3.401   7.238   9.156 -0.7372 -0.0713  0.5162
  191MOL0     C25682   3.532   7.274   9.159  0.5147 -0.1337 -0.2472
  191MOL0     C25683   3.584   7.389   9.099  0.4680 -0.9375  0.1135
  191MOL0     C25684   3.722   7.418   9.094  0.6447 -1.2370  0.0217
  191MOL0     C25685   3.813   7.331   9.163  0.8875 -0.4459 -0.4850
  191MOL0     O25686   3.952   7.343   9.150 -0.1291  0.2205 -0.2310
  191MOL0     C25687   4.008   7.264   9.045 -0.4417 -0.1687 -0.1713
  191MOL0     C25688   4.129   7.341   9.003  0.7264  0.1601  0.9079
  191MOL0     C25689   4.250   7.354   9.096  0.3991 -1.6357  0.6231
  191MOL0     C25690   4.354   7.233   9.095 -0.2336  0.0674  0.8620
  191MOL0     C25691   4.493   7.283   9.064 -0.7277 -0.1465  0.2262
  191MOL0     C25692   4.597   7.176   9.073 -0.7214 -0.1957 -0.0301
  191MOL0     C25693   4.656   7.157   9.220  0.9626  0.8702 -0.6345
  191MOL0     C25694   4.660   7.013   9.258  0.3137  0.9386  0.6395
  191MOL0    Cl25695   4.496   6.948   9.293  0.2615 -0.1688 -0.4421
  191MOL0     C25696   3.757   7.218   9.222  0.4082  0.6405 -0.1301
  191MOL0     C25697   3.621   7.180   9.216 -0.0581  0.4348  0.1847
  191MOL0     O25698   3.438   7.195   8.933  0.7216 -0.0922 -0.3842
  191MOL0     C25699   3.153   7.132   9.149  0.1113 -0.3614 -1.4263
  191MOL0     C25700   3.022   7.081   9.153  0.1717 -0.2633  0.4616
  191MOL0     N25701   2.555   7.196   8.733  0.3863 -0.3416  0.0299
  191MOL0     N25702   2.463   7.234   8.644 -0.6572 -1.2127 -0.2640
  191MOL0     C25703   2.116   8.185   8.534  0.9488 -0.9249 -0.3690
  191MOL0     C25704   2.236   8.252   8.524  0.0544 -1.3218 -0.6183
  191MOL0     C25705   2.518   8.604   8.413 -0.4025 -0.5109 -0.8212
  191MOL0     C25706   2.595   8.546   8.315 -0.4999 -0.6062  0.8720
  191MOL0     C25707   2.713   8.604   8.275 -0.7665 -0.6072  0.6851
  191MOL0     C25708   2.754   8.733   8.316  1.2753 -0.3559  0.7360
  191MOL0     O25709   2.876   8.767   8.286  0.0571 -0.3468 -0.6060
  191MOL0     C25710   2.963   8.824   8.389  1.1625  0.5987 -0.3228
  191MOL0     C25711   3.095   8.856   8.315  0.3142  0.1767  0.0982
  191MOL0     C25712   3.192   8.745   8.296  0.5830 -0.6442  0.9609
  191MOL0     C25713   3.300   8.772   8.205 -0.0681 -0.2959 -0.1445
  191MOL0     C25714   3.269   8.799   8.058 -0.4740 -0.4203 -0.3013
  191MOL0     C25715   3.251   8.824   7.945  0.2995 -0.2522  0.4130
  191MOL0     C25716   2.672   8.798   8.411  0.8523  1.1847 -0.4570
  191MOL0     C25717   2.559   8.728   8.462 -0.7537 -0.5555 -0.1901
  191MOL0     H25718   2.159   8.478   8.292  2.1917  0.7293 -0.1162
  191MOL0     H25719   1.950   8.348   8.289  0.2877 -2.1590 -2.9834
  191MOL0     H25720   1.768   8.019   8.346  1.1737 -2.0783  0.4435
  191MOL0     H25721   1.905   8.102   8.269  1.7710  1.0781  0.8433
  191MOL0     H25722   1.874   7.861   8.442 -1.5569  0.9798 -0.8117
  191MOL0     H25723   1.910   7.843   8.274 -1.6631  1.4817 -0.2126
  191MOL0     H25724   2.157   7.977   8.344  2.8202 -0.0513  3.0696
  191MOL0     H25725   2.119   7.902   8.486  2.2761 -0.2815 -0.3415
  191MOL0     H25726   2.057   7.700   8.309 -0.0023 -0.1730 -0.4600
  191MOL0     H25727   2.189   7.772   8.224  0.4267  0.2081  0.3153
  191MOL0     H25728   2.346   7.760   8.397  1.9486 -2.6237 -1.7202
  191MOL0     H25729   2.224   7.721   8.524  0.3855 -0.0122  0.6681
  191MOL0     H25730   2.168   7.511   8.398 -0.2723  0.3684  4.7183
  191MOL0     H25731   2.288   7.519   8.293 -0.9881 -2.9015  1.0672
  191MOL0     H25732   2.421   7.418   8.419  1.4568  1.6037 -0.2615
  191MOL0     H25733   2.457   7.562   8.500 -0.5174  2.1671 -1.9945
  191MOL0     H25734   2.233   7.364   8.570  3.3620 -1.4857 -4.2977
  191MOL0     H25735   2.274   7.507   8.673  2.6129  0.2995  0.5155
  191MOL0     H25736   2.405   7.457   8.871  2.6919  0.9586  0.1533
  191MOL0     H25737   2.701   7.288   8.956 -0.3471  0.0128 -2.3140
  191MOL0     H25738   2.561   7.349   9.046  2.5956 -0.6610  2.3285
  191MOL0     H25739   2.448   7.169   9.090 -0.1192  0.9566  0.0030
  191MOL0     H25740   2.607   7.172   9.159 -0.9143  1.6377 -0.9979
  191MOL0     H25741   2.534   6.983   8.914 -1.9332  1.5500  0.7243
  191MOL0     H25742   2.545   6.926   9.068  0.8680 -0.7102 -0.9683
  191MOL0     H25743   2.761   7.072   8.896 -1.0102 -3.6535 -4.1886
  191MOL0     H25744   2.740   6.895   8.896 -0.9688 -1.6437  2.7725
  191MOL0     H25745   2.984   6.930   8.875 -1.2225  0.3644  1.1709
  191MOL0     H25746   3.174   6.936   8.739  4.0348 -2.7985  0.3341
  191MOL0     H25747   3.233   7.105   8.723 -0.8991 -0.1534 -0.7674
  191MOL0     H25748   3.323   6.972   8.813  2.0727  1.3386 -1.0580
  191MOL0     H25749   3.515   7.453   9.045 -1.2732 -1.8472  1.1624
  191MOL0     H25750   3.749   7.505   9.036 -2.3759 -0.1880  0.0142
  191MOL0     H25751   4.038   7.163   9.074  1.3475 -0.0196 -1.3893
  191MOL0     H25752   3.942   7.253   8.958 -0.0434 -1.8875 -0.2931
  191MOL0     H25753   4.162   7.299   8.907 -0.1836  1.1599  0.1382
  191MOL0     H25754   4.103   7.440   8.965 -0.8817 -0.6181 -0.1661
  191MOL0     H25755   4.222   7.361   9.202  1.4491 -0.8442  0.8712
  191MOL0     H25756   4.302   7.447   9.073  0.3884 -1.8066 -0.1100
  191MOL0     H25757   4.348   7.191   9.196 -1.2911 -1.9143  0.0127
  191MOL0     H25758   4.327   7.150   9.030  0.3130 -1.3044  2.2995
  191MOL0     H25759   4.526   7.364   9.130 -1.2617 -0.9497  1.4965
  191MOL0     H25760   4.486   7.324   8.962  0.2253  3.0218  1.3012
  191MOL0     H25761   4.546   7.087   9.035  0.0349 -1.2195  1.2782
  191MOL0     H25762   4.677   7.202   9.002  0.6654 -1.7094  0.9059
  191MOL0     H25763   4.585   7.214   9.280  1.8609  0.0915  1.2255
  191MOL0     H25764   4.758   7.193   9.229  1.7566 -1.3223 -0.2915
  191MOL0     H25765   4.728   6.988   9.340  1.8156 -3.3163 -1.5696
  191MOL0     H25766   4.704   6.954   9.176 -0.3285 -0.0125  0.9538
  191MOL0     H25767   3.813   7.141   9.274 -0.6406 -0.7538 -0.9951
  191MOL0     H25768   3.584   7.085   9.254 -1.6822  0.5008 -1.0924
  191MOL0     H25769   3.196   7.170   9.241  2.1886 -0.9669 -2.0926
  191MOL0     H25770   2.973   7.096   9.248 -0.8526  0.1014 -0.1094
  191MOL0     H25771   2.123   8.103   8.606 -0.9938  1.1857  2.4791
  191MOL0     H25772   2.323   8.215   8.578  0.4916  1.6935  0.9366
  191MOL0     H25773   2.568   8.456   8.262 -0.1305  0.4777 -1.2524
  191MOL0     H25774   2.774   8.544   8.208 -0.3121  1.0599 -0.4709
  191MOL0     H25775   2.926   8.906   8.451  2.9528  0.0776  1.5709
  191MOL0     H25776   2.982   8.736   8.452  1.2331 -0.8664 -2.3169
  191MOL0     H25777   3.145   8.923   8.386  2.4002  1.1399 -2.1502
  191MOL0     H25778   3.061   8.905   8.224  0.6583  0.2976  0.0315
  191MOL0     H25779   3.130   8.662   8.261  0.3364 -1.4283  3.1398
  191MOL0     H25780   3.240   8.712   8.388  3.2528  0.7422  0.1738
  191MOL0     H25781   3.378   8.696   8.210 -0.1789 -0.3247  2.0993
  191MOL0     H25782   3.333   8.868   8.247 -1.5823 -0.2082  0.9381
  191MOL0     H25783   3.233   8.863   7.847 -0.6193  0.9678  1.0324
  191MOL0     H25784   2.696   8.897   8.448  2.0282  1.6054 -2.2230
  191MOL0     H25785   2.502   8.774   8.542 -3.4512 -0.9231 -1.7732
  192MOL0     O25786   2.158   3.186   3.849  0.2608 -0.7091  0.4454
  192MOL0     C25787   2.123   3.249   3.749 -0.2410 -0.0720 -0.5872
  192MOL0     O25788   2.195   3.254   3.642 -1.1328  0.2220  0.1384
  192MOL0     C25789   2.310   3.180   3.631 -0.5376 -0.4135  0.4872
  192MOL0     C25790   2.438   3.239   3.644 -0.8090  0.6633  0.8600
  192MOL0     C25791   2.561   3.163   3.611 -0.9021  1.0939 -0.6433
  192MOL0     C25792   2.540   3.031   3.563 -0.4474  1.1948 -0.5069
  192MOL0     O25793   2.650   2.976   3.512  0.2861  0.7499  0.3612
  192MOL0     C25794   2.630   2.875   3.410 -0.4095  0.2592  0.0576
  192MOL0     C25795   2.768   2.846   3.345  0.4795  0.9060  0.4110
  192MOL0     C25796   2.759   2.735   3.242 -0.4762 -0.8007  1.6348
  192MOL0     C25797   2.855   2.615   3.268  0.5639  0.1861 -0.6184
  192MOL0     C25798   2.916   2.556   3.141 -0.2823  0.7305 -0.0073
  192MOL0     C25799   3.019   2.649   3.071  0.0027  0.6559  1.0351
  192MOL0     C25800   3.080   2.563   2.948 -0.2645  1.0604 -0.8688
  192MOL0     C25801   3.159   2.647   2.850 -0.8161  0.2926  0.6267
  192MOL0     N25802   3.083   2.752   2.783 -0.0028  0.4447 -0.1897
  192MOL0     C25803   3.138   2.868   2.738  0.0544 -0.1369 -0.5203
  192MOL0     C25804   3.038   2.937   2.676 -0.1709 -0.2942 -0.4295
  192MOL0     C25805   3.030   3.074   2.616  0.3074 -0.1502 -0.1002
  192MOL0     C25806   3.126   3.077   2.499 -0.2760  0.8298 -0.9505
  192MOL0     C25807   3.139   3.193   2.406 -1.4856 -0.6334  0.1152
  192MOL0     C25808   2.997   3.258   2.392 -0.8498 -0.7140 -0.1046
  192MOL0     O25809   3.007   3.349   2.286  0.0836  0.1087 -0.5140
  192MOL0     C25810   2.895   3.421   2.249 -0.7064 -1.0004 -0.2459
  192MOL0     C25811   2.845   3.411   2.120  0.8745  0.1511 -0.1398
  192MOL0     C25812   2.722   3.469   2.088  0.3110  0.6848  0.3479
  192MOL0     C25813   2.686   3.463   1.937 -0.6435 -0.3783 -0.2107
  192MOL0     C25814   2.651   3.539   2.189 -0.4491 -1.3852 -0.7688
  192MOL0     C25815   2.517   3.581   2.178  0.0699 -0.3711 -0.0987
  192MOL0     O25816   2.448   3.596   2.297  0.1321 -0.5192  0.4661
  192MOL0     C25817   2.341   3.682   2.297 -0.0801  0.1479  0.2932
  192MOL0     C25818   2.333   3.793   2.382 -0.1136  1.0034 -0.2378
  192MOL0     C25819   2.230   3.883   2.385 -0.0921  0.2224 -0.4844
  192MOL0     C25820   2.121   3.851   2.301  0.1048  0.4365  0.2547
  192MOL0     O25821   2.013   3.926   2.290  0.3647 -0.6071  0.0165
  192MOL0     C25822   1.951   3.988   2.403  0.6736  0.1122  0.3129
  192MOL0     C25823   1.813   4.045   2.355  0.7345  0.3628 -0.8435
  192MOL0     C25824   1.726   3.933   2.281  0.2531 -0.1585  0.5738
  192MOL0     C25825   1.589   3.985   2.220  0.6509  0.2090  0.1605
  192MOL0     C25826   1.596   4.025   2.072  0.0499 -0.0022  0.7463
  192MOL0     C25827   1.471   4.096   2.030 -0.1951  1.5890 -0.0257
  192MOL0     C25828   1.472   4.112   1.877  0.0537  0.8352 -0.1447
  192MOL0     C25829   1.326   4.134   1.835 -0.1437  0.4009  0.9947
  192MOL0    Cl25830   1.236   3.987   1.868  0.1613 -0.0930 -0.0694
  192MOL0     C25831   2.121   3.736   2.219 -0.5530  0.6726 -0.2661
  192MOL0     C25832   2.227   3.649   2.228  0.7152  0.3759 -0.3906
  192MOL0     O25833   2.479   3.614   2.067 -0.1720  0.1511  0.1261
  192MOL0     C25834   2.711   3.541   2.320 -0.5430 -0.1256  0.4375
  192MOL0     C25835   2.827   3.486   2.346  0.5002  0.0772 -0.1570
  192MOL0     N25836   2.923   2.858   2.680 -0.5189  0.8945 -0.3680
  192MOL0     N25837   2.950   2.744   2.740 -0.4216  0.8697 -0.7905
  192MOL0     C25838   2.414   2.970   3.565 -0.4040 -0.2725  0.4985
  192MOL0     C25839   2.303   3.048   3.602 -0.2485  0.4886  0.1936
  192MOL0     C25840   2.009   3.343   3.752  0.1293  0.3086  0.5533
  192MOL0     C25841   1.916   3.342   3.860 -0.7307 -0.0366 -0.3532
  192MOL0     C25842   1.798   3.418   3.849  1.0171  0.6600  1.1768
  192MOL0     C25843   1.775   3.499   3.738  0.4757 -0.9502 -0.1609
  192MOL0     O25844   1.655   3.561   3.731  0.2632  0.1148 -0.7521
  192MOL0     C25845   1.668   3.696   3.700  0.4675 -0.2618 -0.4401
  192MOL0     C25846   1.557   3.772   3.758  1.3219 -0.0023 -0.3104
  192MOL0     C25847   1.529   3.901   3.694 -0.8696  0.1428 -0.6390
  192MOL0     C25848   1.400   3.965   3.754  0.6417  0.8520 -0.1506
  192MOL0     C25849   1.289   3.884   3.710 -0.4334 -0.4895 -0.6781
  192MOL0     C25850   1.207   3.812   3.676 -0.0085 -0.1212  0.0468
  192MOL0     C25851   1.864   3.496   3.634  0.4809 -0.4245 -0.1812
  192MOL0     C25852   1.983   3.429   3.638 -0.7325  1.1612  0.1523
  192MOL0     H25853   2.445   3.340   3.684  0.6578  1.2016 -0.6076
  192MOL0     H25854   2.660   3.207   3.612 -0.3227 -0.1636 -0.5077
  192MOL0     H25855   2.583   2.785   3.450 -2.5732  0.8370 -1.0445
  192MOL0     H25856   2.558   2.905   3.334 -1.7184  2.3562  2.0231
  192MOL0     H25857   2.812   2.935   3.299  0.2329  1.0375  0.4296
  192MOL0     H25858   2.835   2.820   3.428 -0.6709  2.1671  1.7938
  192MOL0     H25859   2.656   2.704   3.223  0.7017 -3.6625 -0.8885
  192MOL0     H25860   2.788   2.770   3.143  1.1401 -1.9783  1.6657
  192MOL0     H25861   2.937   2.639   3.336  0.9908 -2.9709  0.1481
  192MOL0     H25862   2.784   2.544   3.313 -0.8097  2.7987  1.6307
  192MOL0     H25863   2.959   2.459   3.166  3.1170  2.1220  0.0289
  192MOL0     H25864   2.834   2.533   3.072 -1.5213 -0.0765  1.6819
  192MOL0     H25865   2.968   2.734   3.025 -1.2224 -0.2198  0.7258
  192MOL0     H25866   3.094   2.689   3.140 -0.0164  4.4380 -0.8944
  192MOL0     H25867   3.149   2.489   2.990 -0.5986  2.3721  2.3613
  192MOL0     H25868   2.996   2.518   2.894  2.6946 -1.4786 -3.6855
  192MOL0     H25869   3.196   2.572   2.778 -4.2708  0.5914 -1.7348
  192MOL0     H25870   3.247   2.690   2.897  0.6525 -2.3903  0.5238
  192MOL0     H25871   3.229   2.916   2.773 -1.1985 -0.4731  3.7603
  192MOL0     H25872   2.925   3.079   2.586  0.5251  3.2877 -0.6407
  192MOL0     H25873   3.049   3.148   2.694  0.7771  1.2301 -1.4703
  192MOL0     H25874   3.098   2.990   2.439  0.5845  0.7139 -1.1916
  192MOL0     H25875   3.223   3.042   2.535 -0.2937 -2.9631 -3.9909
  192MOL0     H25876   3.179   3.162   2.309 -1.7215  3.1822 -1.4035
  192MOL0     H25877   3.211   3.264   2.449 -1.9623 -1.0948  1.7588
  192MOL0     H25878   2.987   3.313   2.486  0.3599 -0.4881 -0.0839
  192MOL0     H25879   2.916   3.188   2.373 -2.4726  0.7523  1.0886
  192MOL0     H25880   2.910   3.364   2.047 -1.7545 -1.7428 -1.4041
  192MOL0     H25881   2.749   3.404   1.870  2.0877  4.0604 -2.0659
  192MOL0     H25882   2.583   3.430   1.924 -0.3710 -1.5529  0.4521
  192MOL0     H25883   2.696   3.570   1.917 -3.4868  0.4405  2.0491
  192MOL0     H25884   2.416   3.811   2.450 -1.2600 -1.2278  1.9024
  192MOL0     H25885   2.242   3.966   2.454  0.8039 -0.8566  0.7143
  192MOL0     H25886   1.942   3.912   2.482 -1.5217  0.1562  0.1521
  192MOL0     H25887   2.014   4.070   2.437  0.7229  0.3607 -0.3678
  192MOL0     H25888   1.745   4.079   2.433 -1.6505 -1.0500 -2.1937
  192MOL0     H25889   1.830   4.128   2.285 -1.4159 -0.0738 -1.9705
  192MOL0     H25890   1.712   3.850   2.350 -1.5314 -1.2023 -0.9856
  192MOL0     H25891   1.784   3.888   2.200 -2.4615  0.1976 -1.7120
  192MOL0     H25892   1.513   3.907   2.226  2.4518 -1.8210 -1.3899
  192MOL0     H25893   1.551   4.066   2.283  0.5933  0.0664  0.3069
  192MOL0     H25894   1.615   3.942   2.004  0.0903  0.4312  0.2182
  192MOL0     H25895   1.676   4.099   2.060 -0.5168  0.4802 -0.1877
  192MOL0     H25896   1.390   4.036   2.072  1.9482 -0.7148  1.1256
  192MOL0     H25897   1.465   4.194   2.079 -2.0392  1.9821 -0.9806
  192MOL0     H25898   1.494   4.016   1.829  2.0915  2.4863 -2.8424
  192MOL0     H25899   1.544   4.191   1.856  2.5746 -0.9872  1.0411
  192MOL0     H25900   1.316   4.150   1.727 -1.6338  1.4647  1.2664
  192MOL0     H25901   1.279   4.217   1.888 -1.0685  0.4846  0.0858
  192MOL0     H25902   2.042   3.721   2.147  1.6527 -2.4540 -2.2683
  192MOL0     H25903   2.215   3.560   2.166  1.8780  1.5308 -2.3762
  192MOL0     H25904   2.674   3.587   2.411  2.4841 -1.1313  2.3203
  192MOL0     H25905   2.869   3.505   2.444  6.5078 -4.9172 -1.1321
  192MOL0     H25906   2.383   2.870   3.539 -2.9150  0.3846  0.6717
  192MOL0     H25907   2.201   3.015   3.586 -0.3773  1.0231 -0.1045
  192MOL0     H25908   1.921   3.286   3.953 -4.8383  2.5869  1.7644
  192MOL0     H25909   1.718   3.423   3.922 -1.3314 -1.2259 -1.0881
  192MOL0     H25910   1.766   3.741   3.715  0.2361  0.8518 -1.9772
  192MOL0     H25911   1.642   3.717   3.595 -3.0627  1.0944  0.5757
  192MOL0     H25912   1.587   3.786   3.862  3.2784 -0.3479 -0.7697
  192MOL0     H25913   1.464   3.715   3.750  1.1496  0.3052 -0.5128
  192MOL0     H25914   1.512   3.898   3.586 -0.9636 -0.2564 -0.6162
  192MOL0     H25915   1.612   3.969   3.716 -1.8900  0.3614  3.1193
  192MOL0     H25916   1.392   4.070   3.725  0.0393  0.5518 -1.0960
  192MOL0     H25917   1.398   3.964   3.863  0.1416  0.3490 -0.1630
  192MOL0     H25918   1.133   3.749   3.630  1.5590 -0.7362 -1.8085
  192MOL0     H25919   1.851   3.561   3.549 -0.6232  0.3269  0.5248
  192MOL0     H25920   2.041   3.444   3.547  0.8618  1.1215  1.1265
  193MOL0     O25921   9.145  11.342   9.303  0.2235 -0.2743  1.5031
  193MOL0     C25922   9.108  11.294   9.197 -0.4245 -0.8158  0.9232
  193MOL0     O25923   9.094  11.160   9.164 -0.6888 -0.8495 -0.4394
  193MOL0     C25924   9.144  11.063   9.243 -0.5978 -1.0447  0.4074
  193MOL0     C25925   9.248  11.064   9.331  0.3152  1.2367 -0.1794
  193MOL0     C25926   9.288  10.947   9.405  0.6612  0.3202 -0.4124
  193MOL0     C25927   9.229  10.827   9.376 -0.2930 -0.6800  0.3426
  193MOL0     O25928   9.267  10.715   9.441 -0.2402 -0.3203  0.3511
  193MOL0     C25929   9.268  10.726   9.587 -0.3187  0.4476  0.1911
  193MOL0     C25930   9.208  10.595   9.651  0.5847 -0.5920  0.2545
  193MOL0     C25931   9.264  10.461   9.627  0.0087  0.8927  0.5374
  193MOL0     C25932   9.378  10.430   9.723  0.2805  0.1501 -0.1175
  193MOL0     C25933   9.435  10.279   9.728 -0.9714  0.2541 -0.1980
  193MOL0     C25934   9.513  10.257   9.590  0.6188 -0.4161 -0.0289
  193MOL0     C25935   9.609  10.138   9.592 -0.2488 -1.2248 -0.5347
  193MOL0     C25936   9.542  10.016   9.550  1.5670 -0.3128  0.2861
  193MOL0     N25937   9.406  10.001   9.599  0.5743  0.1569 -0.7089
  193MOL0     C25938   9.283  10.051   9.544 -0.0391 -0.3056 -0.0225
  193MOL0     C25939   9.196  10.024   9.638  0.4920  0.0031 -0.0413
  193MOL0     C25940   9.052  10.056   9.631 -0.7342  1.2728  0.6380
  193MOL0     C25941   9.013  10.145   9.753  0.2391  0.2099  0.0036
  193MOL0     C25942   8.857  10.165   9.750 -0.9624  0.3256 -0.0258
  193MOL0     C25943   8.807  10.271   9.659  0.9279 -0.4394  0.1990
  193MOL0     O25944   8.902  10.367   9.601 -0.2602  0.2720 -1.1364
  193MOL0     C25945   8.891  10.405   9.469 -0.4543  0.9946  0.3433
  193MOL0     C25946   8.780  10.468   9.419  0.4002  0.6055 -0.2860
  193MOL0     C25947   8.765  10.493   9.285 -0.3754 -0.4023 -0.0831
  193MOL0     C25948   8.624  10.514   9.230 -0.1088 -0.5868  0.5712
  193MOL0     C25949   8.877  10.474   9.203 -0.0918  0.0950 -0.1602
  193MOL0     C25950   8.893  10.534   9.072  1.1162 -0.7142  0.1312
  193MOL0     O25951   8.825  10.657   9.046 -0.5097  0.5987 -0.2667
  193MOL0     C25952   8.831  10.717   8.927  0.1476  1.2011 -0.5380
  193MOL0     C25953   8.712  10.753   8.866  0.8049  0.7835  0.7480
  193MOL0     C25954   8.706  10.821   8.739  0.4576  0.7489 -0.6140
  193MOL0     C25955   8.823  10.850   8.674 -1.1568  0.1954 -0.5928
  193MOL0     O25956   8.820  10.914   8.553  0.3378 -0.0459  0.2538
  193MOL0     C25957   8.778  11.040   8.568 -0.2678 -0.3780  0.8343
  193MOL0     C25958   8.827  11.103   8.435  0.3471  0.1099  0.0978
  193MOL0     C25959   8.807  11.254   8.444  0.3127 -0.0022 -0.1242
  193MOL0     C25960   8.674  11.305   8.401 -0.1842 -0.0511 -0.4595
  193MOL0     C25961   8.675  11.456   8.399 -0.0950  0.4372 -0.6583
  193MOL0     C25962   8.532  11.505   8.372  0.9977 -1.0551 -0.2016
  193MOL0     C25963   8.527  11.656   8.366 -0.0597 -0.0452  0.1344
  193MOL0     C25964   8.399  11.708   8.312  0.2300 -0.2131 -0.5174
  193MOL0    Cl25965   8.401  11.880   8.303 -0.2829 -0.0838  0.1828
  193MOL0     C25966   8.948  10.812   8.727  0.8385 -1.1216  0.0528
  193MOL0     C25967   8.954  10.746   8.856 -1.1903 -0.0084 -0.1474
  193MOL0     O25968   8.950  10.469   8.982 -0.6261  0.8476  0.2043
  193MOL0     C25969   8.999  10.426   9.250 -0.4597 -0.0444 -1.4055
  193MOL0     C25970   8.999  10.388   9.384  0.0598  0.0321 -0.0249
  193MOL0     N25971   9.255   9.974   9.752  0.2548 -0.0377 -0.2038
  193MOL0     N25972   9.374   9.947   9.723 -0.8633 -0.7363  0.0080
  193MOL0     C25973   9.115  10.826   9.300  0.0144  0.1960  0.5523
  193MOL0     C25974   9.072  10.944   9.230 -0.0287  0.5586  0.2333
  193MOL0     C25975   9.093  11.386   9.086  0.4486 -0.6081 -0.5835
  193MOL0     C25976   9.041  11.330   8.962 -0.4522  1.0931 -0.7336
  193MOL0     C25977   9.018  11.413   8.857  0.5753  0.3275 -0.4136
  193MOL0     C25978   9.050  11.553   8.857 -0.0522  0.2387 -0.0981
  193MOL0     O25979   9.007  11.649   8.775  0.5621 -0.2131  0.1517
  193MOL0     C25980   8.978  11.617   8.640  0.3344 -0.1829 -0.8900
  193MOL0     C25981   9.100  11.574   8.559 -0.5451 -0.2503  0.3192
  193MOL0     C25982   9.112  11.646   8.419 -0.6512  0.1925  0.4951
  193MOL0     C25983   9.250  11.643   8.346  0.2493  1.3519 -0.0689
  193MOL0     C25984   9.267  11.512   8.273 -1.1621 -0.1394  0.6883
  193MOL0     C25985   9.299  11.407   8.216 -0.3946  0.8049 -0.0285
  193MOL0     C25986   9.112  11.596   8.965  0.1778 -0.5260 -0.2207
  193MOL0     C25987   9.124  11.517   9.085 -1.1362  0.9984  0.1536
  193MOL0     H25988   9.308  11.153   9.343  1.5033  0.2558  1.6769
  193MOL0     H25989   9.366  10.939   9.480  1.7853  0.0916 -1.5723
  193MOL0     H25990   9.368  10.748   9.625 -0.1949 -1.6968  1.2897
  193MOL0     H25991   9.205  10.810   9.617 -0.7737  0.3747 -0.5483
  193MOL0     H25992   9.195  10.609   9.758  1.5393 -0.8970  0.4186
  193MOL0     H25993   9.115  10.586   9.594  3.3979 -0.5488 -4.9767
  193MOL0     H25994   9.178  10.394   9.633 -0.4169  1.3791 -0.0239
  193MOL0     H25995   9.313  10.463   9.529  1.5565  4.1037  1.2139
  193MOL0     H25996   9.465  10.493   9.704 -0.8156  1.3135 -1.5211
  193MOL0     H25997   9.346  10.467   9.821 -1.4436  4.6219 -2.1041
  193MOL0     H25998   9.496  10.267   9.818 -0.2804  1.5021 -0.4704
  193MOL0     H25999   9.345  10.218   9.735  1.0075 -3.1009 -1.4778
  193MOL0     H26000   9.442  10.244   9.508 -0.0206  0.1872  0.4123
  193MOL0     H26001   9.575  10.344   9.567  3.5397 -1.2663  3.6488
  193MOL0     H26002   9.699  10.156   9.533 -1.0403  2.9422 -0.7942
  193MOL0     H26003   9.650  10.139   9.693 -3.4298  1.8394  0.9586
  193MOL0     H26004   9.599   9.935   9.597  1.3322  0.2313  1.5487
  193MOL0     H26005   9.543  10.012   9.441  1.5273 -0.3091  0.2851
  193MOL0     H26006   9.254  10.088   9.446  0.0876 -4.1414 -1.6733
  193MOL0     H26007   9.028  10.099   9.533 -1.9263 -1.1000 -0.1766
  193MOL0     H26008   9.002   9.960   9.645  3.4880 -1.3058 -0.3060
  193MOL0     H26009   9.069  10.238   9.741  2.0873 -0.5735  1.9355
  193MOL0     H26010   9.042  10.106   9.851  0.0704  1.3461  0.5211
  193MOL0     H26011   8.823  10.178   9.853  0.9962 -3.2759  1.2338
  193MOL0     H26012   8.815  10.077   9.702  1.1915  0.2504 -1.9729
  193MOL0     H26013   8.725  10.326   9.706  0.7825 -0.9987  0.6046
  193MOL0     H26014   8.748  10.222   9.581  0.3266  0.5829  0.0009
  193MOL0     H26015   8.689  10.483   9.476  0.5286 -0.4890  0.2353
  193MOL0     H26016   8.587  10.411   9.227 -0.3677 -0.6361  3.0692
  193MOL0     H26017   8.573  10.579   9.301  0.3976  1.8093 -1.1386
  193MOL0     H26018   8.621  10.541   9.124 -1.1328 -0.6962  0.5716
  193MOL0     H26019   8.620  10.733   8.920 -0.5570  1.7870 -1.0907
  193MOL0     H26020   8.611  10.852   8.698  1.6025  5.5426 -0.2113
  193MOL0     H26021   8.670  11.055   8.572 -0.0930  2.6559 -1.7864
  193MOL0     H26022   8.819  11.097   8.652  0.6533  3.4057 -1.8615
  193MOL0     H26023   8.935  11.092   8.425  0.1230 -0.8075 -1.8911
  193MOL0     H26024   8.787  11.065   8.341  1.4012 -0.5055 -0.1160
  193MOL0     H26025   8.880  11.311   8.386  0.1124  0.8888  0.4746
  193MOL0     H26026   8.826  11.282   8.548  2.9466 -0.6665 -0.3684
  193MOL0     H26027   8.670  11.272   8.297  2.6667  0.6375 -0.8903
  193MOL0     H26028   8.601  11.250   8.460  0.8270 -2.1990 -1.0839
  193MOL0     H26029   8.744  11.491   8.322  0.1656 -2.1806 -1.7093
  193MOL0     H26030   8.710  11.487   8.498 -0.4280 -3.4841  0.8666
  193MOL0     H26031   8.496  11.462   8.277 -2.8900  1.5795 -0.1561
  193MOL0     H26032   8.457  11.475   8.445  0.4433  3.0430  1.1281
  193MOL0     H26033   8.603  11.691   8.297 -3.6070  0.2936 -3.9892
  193MOL0     H26034   8.539  11.701   8.465 -4.9784  1.1768  0.4440
  193MOL0     H26035   8.319  11.674   8.379  0.6059  0.9418  0.5662
  193MOL0     H26036   8.374  11.669   8.213  0.5504  2.9480 -1.9955
  193MOL0     H26037   9.036  10.848   8.675  1.2056 -3.8134 -1.3726
  193MOL0     H26038   9.052  10.734   8.901 -0.6691  3.9797  0.1465
  193MOL0     H26039   9.090  10.440   9.193  0.4124  1.3520  0.2088
  193MOL0     H26040   9.093  10.351   9.424 -0.6080  1.6130  3.3398
  193MOL0     H26041   9.071  10.731   9.273  0.0179  0.2182  0.4685
  193MOL0     H26042   8.997  10.929   9.154  2.2100 -2.0750 -1.6404
  193MOL0     H26043   9.008  11.229   8.937  1.0985  0.8635 -2.0226
  193MOL0     H26044   8.994  11.354   8.769 -3.4050 -1.6803  1.7241
  193MOL0     H26045   8.906  11.535   8.636  2.5003 -2.1608 -1.8038
  193MOL0     H26046   8.923  11.700   8.596 -1.0339  0.2622  1.4461
  193MOL0     H26047   9.087  11.466   8.546 -0.5510 -0.1526 -0.5143
  193MOL0     H26048   9.194  11.584   8.614 -1.2248 -0.3025  1.5184
  193MOL0     H26049   9.101  11.750   8.451  0.3740  0.3269  0.4404
  193MOL0     H26050   9.033  11.609   8.353  2.0028 -3.5715 -0.9396
  193MOL0     H26051   9.334  11.642   8.416 -0.4524 -0.6905  0.8291
  193MOL0     H26052   9.252  11.728   8.278  1.4310  3.0327  1.9523
  193MOL0     H26053   9.351  11.316   8.191  0.2161  0.2061  3.0464
  193MOL0     H26054   9.153  11.697   8.968 -0.0207 -0.3285 -2.3868
  193MOL0     H26055   9.179  11.551   9.172  0.7363  3.7169 -1.9391
  194MOL0     O26056   0.240  10.496  10.591 -0.2565  0.9506  0.0546
  194MOL0     C26057   0.127  10.482  10.542 -0.0253  0.6246  0.1594
  194MOL0     O26058   0.026  10.402  10.600 -0.0850  0.2206  0.6737
  194MOL0     C26059   0.047  10.314  10.712  0.3126 -1.6313  0.2169
  194MOL0     C26060   0.170  10.270  10.763 -0.1132  0.0009 -0.0022
  194MOL0     C26061   0.172  10.181  10.871  0.5390 -0.1019 -0.3164
  194MOL0     C26062   0.050  10.129  10.922 -0.1675  0.3158  0.4686
  194MOL0     O26063   0.046  10.034  11.019  0.1532 -0.4557 -0.2332
  194MOL0     C26064   0.150   9.993  11.113 -0.9132  0.4389  0.6194
  194MOL0     C26065   0.090   9.877  11.201 -0.7844  0.1043 -0.0774
  194MOL0     C26066   0.007   9.936  11.313  0.0565 -0.1696  0.2717
  194MOL0     C26067  -0.113   9.837  11.330  0.4413  0.1608  0.1321
  194MOL0     C26068  -0.236   9.895  11.406 -0.2544  0.9910 -0.5986
  194MOL0     C26069  -0.197   9.888  11.559  0.4315  0.9367  0.0140
  194MOL0     C26070  -0.316   9.932  11.641 -0.5756  0.6941 -0.0145
  194MOL0     C26071  -0.442   9.847  11.623 -0.0930 -0.3568 -0.5284
  194MOL0     N26072  -0.412   9.699  11.618 -0.4591 -0.5847 -0.0761
  194MOL0     C26073  -0.391   9.622  11.506  0.0581  1.1252 -0.7094
  194MOL0     C26074  -0.369   9.493  11.565 -0.4335  0.1549 -0.5889
  194MOL0     C26075  -0.331   9.379  11.477 -0.1222 -0.7140  0.4932
  194MOL0     C26076  -0.448   9.312  11.400 -0.3819 -0.0264  0.7841
  194MOL0     C26077  -0.558   9.254  11.499 -0.5410 -0.0903  0.0721
  194MOL0     C26078  -0.600   9.101  11.488 -0.0543 -0.2871 -0.8426
  194MOL0     O26079  -0.711   9.067  11.579 -0.1935  0.1744  0.5356
  194MOL0     C26080  -0.754   8.939  11.574 -0.4452  0.9899  0.3001
  194MOL0     C26081  -0.706   8.845  11.483 -0.3241 -0.3684  0.9951
  194MOL0     C26082  -0.745   8.710  11.486  1.1249 -0.7932 -0.6143
  194MOL0     C26083  -0.694   8.629  11.373  0.1717 -0.0204  0.1260
  194MOL0     C26084  -0.842   8.663  11.574 -1.3071  0.4488 -0.8450
  194MOL0     C26085  -0.882   8.524  11.587  0.4997 -0.3867 -1.0369
  194MOL0     O26086  -1.013   8.517  11.566 -0.4653 -0.6028  0.5515
  194MOL0     C26087  -1.063   8.395  11.542  0.9671  0.1452 -0.4396
  194MOL0     C26088  -1.013   8.319  11.427 -0.3161 -0.2023  0.6471
  194MOL0     C26089  -1.094   8.213  11.370  0.0175 -0.1611 -0.7417
  194MOL0     C26090  -1.207   8.171  11.441 -0.1533  0.0311  0.8526
  194MOL0     O26091  -1.291   8.079  11.374  0.9844  0.2107  0.0340
  194MOL0     C26092  -1.382   8.134  11.274  0.2210  0.1507 -0.0660
  194MOL0     C26093  -1.373   8.043  11.143  0.2589 -0.1522  0.9189
  194MOL0     C26094  -1.473   8.070  11.038 -0.0982 -0.3157  0.5424
  194MOL0     C26095  -1.601   7.994  11.093  0.6443 -0.2866  0.7047
  194MOL0     C26096  -1.696   7.966  10.969  0.2895  0.3888 -0.1189
  194MOL0     C26097  -1.831   7.911  11.019 -0.1562  0.3319 -0.2780
  194MOL0     C26098  -1.822   7.758  11.061  0.5654 -0.0690 -0.1028
  194MOL0     C26099  -1.958   7.686  11.036  0.0851  0.1137  0.6586
  194MOL0    Cl26100  -1.947   7.520  11.112  0.2181  0.1149 -0.4589
  194MOL0     C26101  -1.255   8.241  11.552 -0.6166 -0.4463 -0.6003
  194MOL0     C26102  -1.190   8.361  11.598  0.3887 -0.2566  0.0794
  194MOL0     O26103  -0.802   8.435  11.601 -0.8160  0.0830 -0.0844
  194MOL0     C26104  -0.898   8.760  11.663 -0.2144 -1.0666 -0.4383
  194MOL0     C26105  -0.854   8.898  11.661  0.1834 -0.2100  0.7528
  194MOL0     N26106  -0.363   9.504  11.703  0.2642  0.0615  0.5725
  194MOL0     N26107  -0.404   9.627  11.735 -0.0135  0.3349  0.0766
  194MOL0     C26108  -0.067  10.166  10.865  0.1492  0.5546 -0.3339
  194MOL0     C26109  -0.072  10.248  10.757 -1.4926 -0.6776 -0.3969
  194MOL0     C26110   0.090  10.551  10.423  1.1223 -0.4179 -0.3342
  194MOL0     C26111   0.201  10.605  10.341 -0.1504  0.5555 -0.0261
  194MOL0     C26112   0.175  10.640  10.204 -0.0904  0.5050 -0.0543
  194MOL0     C26113   0.042  10.634  10.159 -0.7767 -1.0584 -0.7594
  194MOL0     O26114   0.015  10.695  10.032  0.3438 -0.1035  0.4651
  194MOL0     C26115   0.014  10.614   9.918 -0.0063 -0.2570  0.6837
  194MOL0     C26116   0.118  10.643   9.808 -0.6945 -0.1851  0.1849
  194MOL0     C26117   0.059  10.682   9.682 -0.5988  0.5529 -0.6806
  194MOL0     C26118  -0.010  10.821   9.687  0.1337  1.6012  0.2364
  194MOL0     C26119  -0.072  10.835   9.555  0.6765  0.5421  0.0450
  194MOL0     C26120  -0.124  10.852   9.447 -0.4985 -0.5341 -0.3691
  194MOL0     C26121  -0.063  10.599  10.243  1.0822  0.4706 -0.6667
  194MOL0     C26122  -0.041  10.558  10.370  0.6690 -0.2067 -0.2562
  194MOL0     H26123   0.266  10.304  10.726 -0.8342  0.1368 -1.8468
  194MOL0     H26124   0.268  10.158  10.916 -0.7052 -0.3318  2.3826
  194MOL0     H26125   0.235   9.952  11.058  2.3640  2.8409  3.4937
  194MOL0     H26126   0.194  10.066  11.182 -1.9900 -0.7138  2.6214
  194MOL0     H26127   0.032   9.808  11.139  0.3453 -2.1156  1.2499
  194MOL0     H26128   0.167   9.809  11.237  1.4374  2.6623  0.3489
  194MOL0     H26129   0.070   9.952  11.402  0.8197 -3.1290  0.3723
  194MOL0     H26130  -0.023  10.038  11.286  0.1016 -0.5199 -1.1554
  194MOL0     H26131  -0.154   9.825  11.229  0.6107 -2.5815  0.3116
  194MOL0     H26132  -0.077   9.739  11.363 -0.6172 -1.2130 -2.5310
  194MOL0     H26133  -0.265   9.996  11.375 -3.1459  0.7766  1.0881
  194MOL0     H26134  -0.331   9.846  11.385  0.9029 -0.5151 -2.6408
  194MOL0     H26135  -0.165   9.787  11.585  1.1551  1.3029  0.5640
  194MOL0     H26136  -0.131   9.970  11.589  1.8690 -0.7948  1.8858
  194MOL0     H26137  -0.294   9.920  11.748  0.1996 -0.0526 -0.2376
  194MOL0     H26138  -0.345  10.035  11.622 -0.9336  0.6723  0.3902
  194MOL0     H26139  -0.481   9.874  11.525  1.0091 -3.3079 -1.8778
  194MOL0     H26140  -0.513   9.858  11.706 -1.3391 -1.9843 -1.3493
  194MOL0     H26141  -0.412   9.634  11.400 -4.2223  0.6474 -0.1020
  194MOL0     H26142  -0.252   9.398  11.403  1.1079 -2.0469  1.4157
  194MOL0     H26143  -0.287   9.295  11.530  2.3646 -1.6228 -2.6788
  194MOL0     H26144  -0.408   9.225  11.347 -1.4936  0.2467 -0.5857
  194MOL0     H26145  -0.494   9.378  11.325  2.7508 -0.8802 -2.1302
  194MOL0     H26146  -0.649   9.312  11.479 -0.8269  0.1172  1.8245
  194MOL0     H26147  -0.527   9.279  11.601 -2.3519  1.3883  0.3155
  194MOL0     H26148  -0.504   9.055  11.514  0.7894  0.7294 -2.0594
  194MOL0     H26149  -0.617   9.084  11.381 -0.6667  1.9368 -1.1380
  194MOL0     H26150  -0.642   8.871  11.399  0.6300 -3.6339  0.5879
  194MOL0     H26151  -0.591   8.661  11.353  0.0916  0.4380  0.4310
  194MOL0     H26152  -0.686   8.523  11.399 -1.1158  0.3388  2.1846
  194MOL0     H26153  -0.756   8.637  11.283 -3.2612  0.2825  2.3129
  194MOL0     H26154  -0.921   8.351  11.379  0.0189 -0.0983  1.3407
  194MOL0     H26155  -1.076   8.174  11.270 -3.1982 -0.2435 -1.4166
  194MOL0     H26156  -1.484   8.137  11.313  0.3618 -0.9878  0.4492
  194MOL0     H26157  -1.356   8.238  11.252  1.4898 -0.1970 -0.3282
  194MOL0     H26158  -1.274   8.061  11.098 -0.8895 -0.5705 -1.9678
  194MOL0     H26159  -1.380   7.938  11.172  1.6318 -0.0209  1.8306
  194MOL0     H26160  -1.438   8.038  10.940  1.6798  1.5935  0.4871
  194MOL0     H26161  -1.476   8.178  11.023  5.4833  0.1530  0.6797
  194MOL0     H26162  -1.582   7.893  11.130  1.2558 -0.5324 -0.2392
  194MOL0     H26163  -1.643   8.044  11.181  0.6640  1.0809 -0.0361
  194MOL0     H26164  -1.647   7.904  10.894 -0.5974  0.4364 -0.7577
  194MOL0     H26165  -1.723   8.050  10.905  2.2408  0.9872 -0.2067
  194MOL0     H26166  -1.873   7.960  11.107 -0.1396 -0.8183  0.3878
  194MOL0     H26167  -1.896   7.914  10.931 -1.3832  0.7534  0.6243
  194MOL0     H26168  -1.796   7.739  11.165  1.0394 -1.7893 -0.4945
  194MOL0     H26169  -1.747   7.711  10.997 -0.4081  1.7128 -2.7433
  194MOL0     H26170  -1.983   7.670  10.931 -1.3389  0.9431  0.8468
  194MOL0     H26171  -2.032   7.745  11.091  0.5912 -1.0065  2.6665
  194MOL0     H26172  -1.343   8.199  11.600 -1.8492  2.0441 -0.5128
  194MOL0     H26173  -1.240   8.416  11.676  0.5411  1.4180 -0.9431
  194MOL0     H26174  -0.976   8.733  11.733  1.1354  0.6893  1.9080
  194MOL0     H26175  -0.882   8.978  11.730  0.3062  0.8015 -0.3322
  194MOL0     H26176  -0.164  10.128  10.895 -0.3600  0.7625 -1.6504
  194MOL0     H26177  -0.168  10.279  10.718 -1.9574 -0.7634  0.6560
  194MOL0     H26178   0.300  10.618  10.384 -0.4465  3.0229  0.0232
  194MOL0     H26179   0.249  10.673  10.132 -0.5193  1.1951 -0.1944
  194MOL0     H26180   0.035  10.512   9.953 -2.1050 -0.5696  1.1520
  194MOL0     H26181  -0.085  10.601   9.874 -1.2495  0.4272  3.1048
  194MOL0     H26182   0.176  10.550   9.797 -2.6403 -1.8081  2.5749
  194MOL0     H26183   0.178  10.720   9.857  0.9603 -2.7796  2.5402
  194MOL0     H26184  -0.005  10.602   9.644 -0.4694 -0.3198  0.8738
  194MOL0     H26185   0.135  10.703   9.606 -2.1883  1.7759 -2.0289
  194MOL0     H26186   0.065  10.898   9.707 -0.2117  1.6801  1.2897
  194MOL0     H26187  -0.088  10.809   9.762 -1.4187 -1.5960 -1.6685
  194MOL0     H26188  -0.181  10.880   9.361 -1.9630  1.1870  1.0833
  194MOL0     H26189  -0.160  10.600  10.195  0.3829  1.8143  0.6948
  194MOL0     H26190  -0.123  10.532  10.437 -1.1784 -1.1425 -2.6968
  195MOL0     O26191  11.251   0.323   2.847  0.2119  0.2849  0.1440
  195MOL0     C26192  11.283   0.218   2.805 -0.2442 -0.1351 -0.0995
  195MOL0     O26193  11.315   0.105   2.874  0.3248 -0.3813  0.0703
  195MOL0     C26194  11.357   0.114   3.008 -0.3688  0.4681 -0.4989
  195MOL0     C26195  11.424   0.220   3.065  0.3556 -0.0615  0.7057
  195MOL0     C26196  11.461   0.233   3.195 -0.1243 -0.1148 -0.3101
  195MOL0     C26197  11.434   0.121   3.281 -0.3379 -0.0738 -0.2742
  195MOL0     O26198  11.483   0.116   3.412 -0.5403 -0.2363 -0.0348
  195MOL0     C26199  11.576   0.212   3.475 -0.4712  0.7672  0.8737
  195MOL0     C26200  11.654   0.151   3.591 -0.5573 -0.3565 -0.3234
  195MOL0     C26201  11.567   0.087   3.703 -1.0859  0.1642 -0.0983
  195MOL0     C26202  11.603  -0.061   3.710 -0.1325 -0.1220  0.9447
  195MOL0     C26203  11.493  -0.136   3.783 -0.3543 -0.8109 -0.8283
  195MOL0     C26204  11.539  -0.281   3.805 -0.7991  0.2957  0.2922
  195MOL0     C26205  11.414  -0.366   3.849  0.5087 -0.1457  0.9153
  195MOL0     C26206  11.468  -0.510   3.876  0.0234 -0.2164 -0.7901
  195MOL0     N26207  11.413  -0.563   3.993 -0.5053  0.0532  0.6293
  195MOL0     C26208  11.289  -0.621   3.978  0.6271 -0.5436 -0.9999
  195MOL0     C26209  11.277  -0.668   4.103  1.1484  0.1384  0.3442
  195MOL0     C26210  11.152  -0.746   4.150  0.2273  0.4002 -0.6754
  195MOL0     C26211  11.184  -0.877   4.228  0.3931  0.4228 -0.4427
  195MOL0     C26212  11.064  -0.966   4.235  0.0264  0.0238 -0.5567
  195MOL0     C26213  10.997  -0.976   4.370 -0.5716 -0.3426  0.5756
  195MOL0     O26214  10.946  -0.856   4.415 -0.0577 -0.0768 -0.9885
  195MOL0     C26215  10.865  -0.858   4.530  0.5949 -0.0803 -0.0449
  195MOL0     C26216  10.801  -0.976   4.577  0.0569 -0.1542 -0.4624
  195MOL0     C26217  10.700  -0.977   4.682 -0.5478 -0.1816  0.0491
  195MOL0     C26218  10.630  -1.106   4.721 -0.4926 -1.0489 -0.7201
  195MOL0     C26219  10.674  -0.841   4.733 -0.1799  0.6647  0.2971
  195MOL0     C26220  10.584  -0.822   4.860  0.6352  0.0729 -0.8950
  195MOL0     O26221  10.578  -0.702   4.933 -0.0703 -0.5613 -0.1167
  195MOL0     C26222  10.522  -0.699   5.060  0.2521 -0.1126 -0.0978
  195MOL0     C26223  10.560  -0.788   5.157  0.6392 -0.7395  0.7616
  195MOL0     C26224  10.506  -0.781   5.289 -0.3253  0.5228  0.6561
  195MOL0     C26225  10.421  -0.673   5.314  0.3244 -0.5350 -1.1748
  195MOL0     O26226  10.390  -0.670   5.451  0.7643 -0.0626  0.2326
  195MOL0     C26227  10.373  -0.537   5.515  0.8178 -0.1568 -0.5364
  195MOL0     C26228  10.358  -0.559   5.671  0.3040  0.7102 -0.4806
  195MOL0     C26229  10.347  -0.423   5.749  0.1621 -0.1195 -1.1369
  195MOL0     C26230  10.416  -0.430   5.888  0.3841  0.7565 -0.0999
  195MOL0     C26231  10.383  -0.553   5.979 -1.0741  0.4788 -0.0878
  195MOL0     C26232  10.360  -0.500   6.120  0.4944 -0.1327 -0.2988
  195MOL0     C26233  10.341  -0.625   6.212  1.2344  0.4359  0.1401
  195MOL0     C26234  10.231  -0.603   6.315  0.7422 -0.5165 -0.1302
  195MOL0    Cl26235  10.267  -0.458   6.405  0.0855  0.0951 -0.3004
  195MOL0     C26236  10.401  -0.573   5.221  0.1208  0.9321 -1.0986
  195MOL0     C26237  10.450  -0.590   5.097  0.5895  0.4693  0.8395
  195MOL0     O26238  10.517  -0.919   4.897 -0.5843 -0.9487 -0.0264
  195MOL0     C26239  10.729  -0.726   4.678  0.0893  0.2744 -0.0722
  195MOL0     C26240  10.830  -0.733   4.583 -0.0854 -0.7270  0.2688
  195MOL0     N26241  11.380  -0.626   4.193  0.8493  0.8524  0.6675
  195MOL0     N26242  11.461  -0.568   4.116 -0.2464  0.5889 -0.0727
  195MOL0     C26243  11.360   0.012   3.227  0.3653  0.2736 -0.5912
  195MOL0     C26244  11.315   0.013   3.094  0.5333  0.6207  0.6099
  195MOL0     C26245  11.287   0.205   2.657 -1.1493 -1.1409 -1.3119
  195MOL0     C26246  11.282   0.314   2.570 -0.1363  0.9810  1.3556
  195MOL0     C26247  11.275   0.292   2.431 -0.0711 -0.0775  0.6183
  195MOL0     C26248  11.295   0.164   2.372 -0.7264 -0.0311  0.8433
  195MOL0     O26249  11.291   0.132   2.240  0.4621 -0.8735 -0.2370
  195MOL0     C26250  11.300   0.235   2.146 -0.7930 -0.0873  0.3796
  195MOL0     C26251  11.408   0.176   2.054  0.1539  0.0605 -0.0040
  195MOL0     C26252  11.381   0.033   1.988 -0.5266 -0.3136 -0.0528
  195MOL0     C26253  11.283   0.058   1.865 -0.5985  0.4058 -0.3445
  195MOL0     C26254  11.288  -0.039   1.758  0.6483 -0.3644  0.3117
  195MOL0     C26255  11.308  -0.114   1.669 -0.6482  0.1829 -0.6676
  195MOL0     C26256  11.312   0.062   2.465 -0.0655 -0.5848 -0.1080
  195MOL0     C26257  11.295   0.074   2.603  0.2394 -0.3575  0.5973
  195MOL0     H26258  11.467   0.297   3.001  3.6983 -2.3368 -0.0871
  195MOL0     H26259  11.515   0.321   3.227 -0.1019  0.0494 -0.7825
  195MOL0     H26260  11.642   0.241   3.393 -2.3231  1.7732 -0.3357
  195MOL0     H26261  11.518   0.300   3.504 -1.0865  2.1175 -3.6433
  195MOL0     H26262  11.726   0.079   3.551  0.0908  0.3108 -0.3735
  195MOL0     H26263  11.712   0.226   3.646 -1.4372 -0.0776  0.2401
  195MOL0     H26264  11.595   0.144   3.792  1.5886 -2.5161  0.9776
  195MOL0     H26265  11.460   0.108   3.698 -0.5504  4.1347  1.4437
  195MOL0     H26266  11.618  -0.115   3.617  0.6461 -2.0061  2.1008
  195MOL0     H26267  11.699  -0.069   3.762 -0.1457  2.7463  1.5658
  195MOL0     H26268  11.489  -0.085   3.879  1.3287  0.1503 -1.2183
  195MOL0     H26269  11.402  -0.141   3.723 -0.8501  0.1291 -0.1638
  195MOL0     H26270  11.583  -0.317   3.711  1.2754  1.4894  0.7373
  195MOL0     H26271  11.609  -0.266   3.887  0.4051  2.5670 -1.0319
  195MOL0     H26272  11.373  -0.324   3.942  0.6109 -0.8893  1.3032
  195MOL0     H26273  11.344  -0.364   3.765  1.5509  2.2463  0.0165
  195MOL0     H26274  11.576  -0.525   3.879  0.2969  0.9563 -2.5977
  195MOL0     H26275  11.430  -0.567   3.791 -1.1366  0.2404 -0.6007
  195MOL0     H26276  11.213  -0.613   3.901 -2.1136  1.1380  1.6269
  195MOL0     H26277  11.074  -0.688   4.200 -1.4834 -3.3171  1.3757
  195MOL0     H26278  11.098  -0.772   4.058  1.9982 -1.1022 -1.3579
  195MOL0     H26279  11.207  -0.849   4.332 -1.0488 -0.3534  0.1250
  195MOL0     H26280  11.269  -0.932   4.188  1.2921  2.1293 -0.9459
  195MOL0     H26281  11.084  -1.070   4.207 -3.6571 -1.8909  2.9076
  195MOL0     H26282  10.981  -0.924   4.178 -0.6919 -1.0967 -0.3721
  195MOL0     H26283  11.071  -0.992   4.449  0.3927  0.7213 -0.0683
  195MOL0     H26284  10.923  -1.051   4.343 -0.8034  0.4738 -1.2332
  195MOL0     H26285  10.825  -1.068   4.524 -0.4871 -1.6026  1.6915
  195MOL0     H26286  10.524  -1.083   4.738 -0.7816 -2.0923 -1.0337
  195MOL0     H26287  10.649  -1.190   4.654 -1.7242 -0.7807 -1.4492
  195MOL0     H26288  10.694  -1.122   4.808 -0.7967  1.4965  0.0687
  195MOL0     H26289  10.632  -0.866   5.136 -0.2722 -1.8386  1.5765
  195MOL0     H26290  10.523  -0.868   5.353 -0.6278 -1.3625 -1.6909
  195MOL0     H26291  10.465  -0.481   5.494 -0.9161  2.1423 -2.5147
  195MOL0     H26292  10.287  -0.488   5.470 -0.1048 -0.7805  0.4923
  195MOL0     H26293  10.269  -0.620   5.683  2.1462 -2.0152  0.3863
  195MOL0     H26294  10.435  -0.622   5.717 -0.8006  0.5080  1.1792
  195MOL0     H26295  10.240  -0.412   5.767 -0.4915 -3.5574 -2.1024
  195MOL0     H26296  10.370  -0.333   5.691  2.2891 -2.6898 -4.6230
  195MOL0     H26297  10.523  -0.443   5.872 -0.0127 -0.8860 -1.7880
  195MOL0     H26298  10.399  -0.341   5.949 -0.3887 -1.3887  3.0921
  195MOL0     H26299  10.464  -0.626   5.968  0.4308  2.0364  0.2867
  195MOL0     H26300  10.291  -0.608   5.956 -0.9690 -0.7091  2.0355
  195MOL0     H26301  10.438  -0.431   6.155  0.2905 -0.1518  0.1999
  195MOL0     H26302  10.275  -0.433   6.130 -0.1486 -0.8413 -0.8831
  195MOL0     H26303  10.428  -0.652   6.273 -0.3402  0.9594  2.7835
  195MOL0     H26304  10.318  -0.712   6.150  0.8584  0.2805  0.4870
  195MOL0     H26305  10.229  -0.684   6.388  2.5813 -0.4527  0.0374
  195MOL0     H26306  10.131  -0.599   6.273  1.5900  1.6842 -2.2034
  195MOL0     H26307  10.340  -0.486   5.242 -0.5491  0.3602 -0.6211
  195MOL0     H26308  10.423  -0.515   5.024  4.1830 -0.7731 -2.0471
  195MOL0     H26309  10.704  -0.633   4.726  1.6310  0.1440  1.0849
  195MOL0     H26310  10.892  -0.650   4.550 -3.2175  1.5312 -0.3695
  195MOL0     H26311  11.343  -0.076   3.288 -1.3303 -0.7888 -2.4745
  195MOL0     H26312  11.254  -0.064   3.050  2.8224  0.1670 -2.0648
  195MOL0     H26313  11.267   0.414   2.609 -0.5208  1.4264  0.1196
  195MOL0     H26314  11.251   0.387   2.385  1.3791  1.1787  2.3300
  195MOL0     H26315  11.209   0.252   2.087  0.9049  2.3683 -1.7300
  195MOL0     H26316  11.330   0.336   2.177 -1.2261  0.2207 -0.1893
  195MOL0     H26317  11.486   0.159   2.128 -1.9274 -0.8377  2.1347
  195MOL0     H26318  11.435   0.253   1.982  0.3327  0.7333  0.7737
  195MOL0     H26319  11.329  -0.029   2.062 -1.5126  0.0628 -0.4069
  195MOL0     H26320  11.471  -0.021   1.958 -1.4847 -1.5815 -0.7394
  195MOL0     H26321  11.299   0.161   1.830  3.2026  0.5849  1.3516
  195MOL0     H26322  11.185   0.053   1.912  0.7230 -1.4361  2.4423
  195MOL0     H26323  11.317  -0.173   1.580 -2.5891 -1.4797  0.1826
  195MOL0     H26324  11.308  -0.042   2.434 -0.5850  0.0725 -2.3884
  195MOL0     H26325  11.306  -0.014   2.665  1.0772  0.7859  2.1197
  196MOL0     O26326   3.414   3.323   4.992  0.4814  0.1531  0.4669
  196MOL0     C26327   3.409   3.263   5.102  0.1864 -0.0384  0.4219
  196MOL0     O26328   3.418   3.323   5.224  0.6432  0.2998  0.2003
  196MOL0     C26329   3.415   3.457   5.237  0.7027  0.8807  1.0610
  196MOL0     C26330   3.486   3.524   5.331 -0.6582 -0.0457  0.7068
  196MOL0     C26331   3.483   3.662   5.344 -0.6693 -0.4120 -0.1395
  196MOL0     C26332   3.412   3.731   5.251 -0.2365 -1.0326  0.8141
  196MOL0     O26333   3.428   3.865   5.253 -0.4162 -0.6869  0.6176
  196MOL0     C26334   3.342   3.946   5.167  0.2183  0.6338 -0.3284
  196MOL0     C26335   3.363   4.094   5.203  0.3827  0.6655  0.2635
  196MOL0     C26336   3.410   4.190   5.093 -0.6363 -0.0397  0.4831
  196MOL0     C26337   3.473   4.326   5.146 -0.1840 -0.6507 -0.6859
  196MOL0     C26338   3.512   4.416   5.033 -0.0999 -0.5247  0.1150
  196MOL0     C26339   3.573   4.547   5.078 -0.7669 -0.4065  0.5516
  196MOL0     C26340   3.642   4.645   4.973  0.7838 -1.3054 -0.8902
  196MOL0     C26341   3.791   4.635   4.961  0.4792  0.1460  0.3213
  196MOL0     N26342   3.837   4.524   4.870  1.1178 -0.0496  1.1006
  196MOL0     C26343   3.768   4.478   4.758 -0.5617 -0.2450  0.8960
  196MOL0     C26344   3.814   4.350   4.743  0.5811 -1.0489 -0.4242
  196MOL0     C26345   3.775   4.259   4.639  0.0270 -0.7702  0.2041
  196MOL0     C26346   3.622   4.257   4.606  0.4539  0.5041 -0.0150
  196MOL0     C26347   3.526   4.179   4.714 -0.2259 -0.6290 -0.1110
  196MOL0     C26348   3.558   4.029   4.717  0.3586  0.0378 -0.0031
  196MOL0     O26349   3.534   3.953   4.592  0.8748 -0.6095 -0.2198
  196MOL0     C26350   3.572   3.826   4.578  0.1276 -0.1857 -0.3465
  196MOL0     C26351   3.589   3.783   4.446 -0.9358 -0.1060 -0.7045
  196MOL0     C26352   3.609   3.651   4.415 -1.1541  0.2953 -0.0090
  196MOL0     C26353   3.630   3.627   4.273  0.5626 -0.1584 -0.5288
  196MOL0     C26354   3.614   3.554   4.520  1.1160  1.1344 -0.3069
  196MOL0     C26355   3.646   3.414   4.497 -1.2081  0.5400 -0.2692
  196MOL0     O26356   3.685   3.336   4.604 -0.1587  0.6962  0.8394
  196MOL0     C26357   3.666   3.195   4.616  0.0582 -0.2191 -1.4551
  196MOL0     C26358   3.731   3.145   4.731 -0.1009  0.4859  0.6692
  196MOL0     C26359   3.719   3.017   4.773 -1.1524 -0.6138 -0.5998
  196MOL0     C26360   3.636   2.924   4.698 -0.4869 -0.6652  0.4069
  196MOL0     O26361   3.611   2.801   4.740  0.3107  0.1370 -0.0872
  196MOL0     C26362   3.696   2.737   4.834  0.1307  1.0201 -0.9742
  196MOL0     C26363   3.646   2.604   4.888 -0.1410  0.0929 -0.6603
  196MOL0     C26364   3.744   2.536   4.970  0.1094 -0.4499  0.2458
  196MOL0     C26365   3.699   2.393   5.010 -0.5775 -0.2503  0.6032
  196MOL0     C26366   3.801   2.330   5.099  1.0176 -0.3289 -0.2761
  196MOL0     C26367   3.752   2.242   5.205 -0.3943 -0.3538 -0.0684
  196MOL0     C26368   3.662   2.124   5.152  0.8602  0.1988 -0.0811
  196MOL0     C26369   3.745   1.997   5.127 -0.1092  0.5272  0.4305
  196MOL0    Cl26370   3.677   1.880   5.011  0.4042  0.2056 -0.0620
  196MOL0     C26371   3.559   2.971   4.594 -0.2314  0.3918  0.2018
  196MOL0     C26372   3.581   3.106   4.550 -0.0854 -0.0078  0.5473
  196MOL0     O26373   3.623   3.369   4.384  1.0588  0.7634  0.7645
  196MOL0     C26374   3.603   3.593   4.651  0.9206 -0.0733 -0.0454
  196MOL0     C26375   3.567   3.723   4.679  0.4517 -0.0492 -0.5863
  196MOL0     N26376   3.906   4.337   4.840 -0.1358 -0.3158 -0.0044
  196MOL0     N26377   3.934   4.437   4.914  0.4069 -0.5211 -0.1224
  196MOL0     C26378   3.334   3.665   5.157 -0.1635 -0.0253 -0.2467
  196MOL0     C26379   3.325   3.526   5.156  0.4536 -1.3349 -0.6498
  196MOL0     C26380   3.411   3.118   5.104  0.7265 -0.4668 -0.4878
  196MOL0     C26381   3.370   3.061   5.220 -0.2358 -0.1816 -0.5365
  196MOL0     C26382   3.372   2.922   5.234 -0.2447 -0.7825  0.2689
  196MOL0     C26383   3.411   2.843   5.132  0.4978  0.1819 -0.1281
  196MOL0     O26384   3.393   2.705   5.128  0.0174  0.3422  0.5815
  196MOL0     C26385   3.446   2.644   5.249  1.0443  0.0553  0.2180
  196MOL0     C26386   3.332   2.567   5.311 -0.3255  0.0957 -0.0531
  196MOL0     C26387   3.326   2.433   5.243 -0.0131  0.9130 -0.7427
  196MOL0     C26388   3.236   2.325   5.321 -0.5610  0.0417 -0.4376
  196MOL0     C26389   3.317   2.258   5.422 -0.1127  0.5221 -0.3168
  196MOL0     C26390   3.396   2.217   5.504  0.3360  0.1715  0.6137
  196MOL0     C26391   3.435   2.908   5.016 -0.3421 -0.4114  0.4986
  196MOL0     C26392   3.442   3.040   4.995  0.0579 -0.1194 -0.4898
  196MOL0     H26393   3.547   3.462   5.396  1.2604 -1.6978 -2.4350
  196MOL0     H26394   3.541   3.713   5.421  1.1501  0.6952 -2.1234
  196MOL0     H26395   3.363   3.923   5.062  1.1012 -3.2555  0.5564
  196MOL0     H26396   3.240   3.913   5.187  1.6207 -4.3615  0.0028
  196MOL0     H26397   3.274   4.126   5.257  1.4993 -1.9444  4.0477
  196MOL0     H26398   3.448   4.092   5.271  1.7079 -1.1064 -1.3228
  196MOL0     H26399   3.492   4.135   5.046 -1.4983 -1.2656  0.3540
  196MOL0     H26400   3.329   4.200   5.020  1.4412  0.4492 -1.9026
  196MOL0     H26401   3.412   4.394   5.205 -0.2602  2.2401 -3.7935
  196MOL0     H26402   3.548   4.306   5.222 -3.8056 -1.6233  2.9682
  196MOL0     H26403   3.587   4.361   4.975  2.7805  2.9768  0.2256
  196MOL0     H26404   3.420   4.435   4.976 -0.0839  0.9581  0.5562
  196MOL0     H26405   3.495   4.597   5.135 -0.4041  1.6385 -0.6308
  196MOL0     H26406   3.652   4.519   5.148 -3.2103  1.2446  4.3297
  196MOL0     H26407   3.591   4.629   4.877 -1.4264 -0.6069  0.1116
  196MOL0     H26408   3.621   4.748   5.004 -1.5619 -2.4069  1.5706
  196MOL0     H26409   3.849   4.661   5.050  3.2722 -0.3548 -1.2573
  196MOL0     H26410   3.806   4.724   4.900  0.5062  1.3149  1.9540
  196MOL0     H26411   3.703   4.538   4.695  1.0222  1.4354  0.7807
  196MOL0     H26412   3.831   4.293   4.552 -1.1126  1.6013  0.3227
  196MOL0     H26413   3.809   4.162   4.675 -3.3876 -2.0401  0.3478
  196MOL0     H26414   3.618   4.205   4.510 -1.9869 -0.5426  0.5580
  196MOL0     H26415   3.584   4.359   4.606  0.8274  0.6447  0.1061
  196MOL0     H26416   3.422   4.192   4.681  0.4337 -0.9506 -2.5444
  196MOL0     H26417   3.544   4.228   4.810 -0.2584 -4.4466  2.0129
  196MOL0     H26418   3.498   3.980   4.794 -0.2294  0.3262 -0.2719
  196MOL0     H26419   3.664   4.030   4.743 -0.0956  0.7312  1.9117
  196MOL0     H26420   3.577   3.851   4.363 -1.3278 -1.3780 -1.7276
  196MOL0     H26421   3.639   3.717   4.212 -3.5748  0.2291 -0.8175
  196MOL0     H26422   3.714   3.558   4.255 -0.2700 -1.6501  0.9696
  196MOL0     H26423   3.538   3.575   4.244  2.5700 -2.9369 -2.4426
  196MOL0     H26424   3.757   3.237   4.783 -1.2788  0.4678  1.3113
  196MOL0     H26425   3.771   3.002   4.867 -0.2952  0.2063 -0.9223
  196MOL0     H26426   3.800   2.726   4.803 -0.2056  0.8021 -2.0476
  196MOL0     H26427   3.689   2.797   4.925  0.6805  0.8345 -0.8030
  196MOL0     H26428   3.555   2.608   4.949  1.4363  0.1750  1.8547
  196MOL0     H26429   3.626   2.546   4.798  0.3834  0.4719 -1.0296
  196MOL0     H26430   3.760   2.605   5.054  2.6643  1.8750 -1.9291
  196MOL0     H26431   3.836   2.525   4.911 -0.7019 -1.3993 -0.8729
  196MOL0     H26432   3.603   2.402   5.062 -0.6060 -0.3094  0.5602
  196MOL0     H26433   3.676   2.331   4.923  1.9577 -1.5327  0.7481
  196MOL0     H26434   3.860   2.415   5.136  3.3740 -1.3688 -1.4491
  196MOL0     H26435   3.862   2.276   5.026 -0.5854 -1.3440 -0.9153
  196MOL0     H26436   3.836   2.202   5.262 -2.5117 -2.4802  1.7964
  196MOL0     H26437   3.697   2.295   5.283  0.8646  0.9180 -0.0092
  196MOL0     H26438   3.612   2.157   5.061 -1.0218  2.9416  1.8082
  196MOL0     H26439   3.580   2.109   5.222  1.6768  0.0529  0.8624
  196MOL0     H26440   3.750   1.953   5.227  1.0237  2.7201  1.4113
  196MOL0     H26441   3.845   2.028   5.096 -0.8930  1.9556 -0.8008
  196MOL0     H26442   3.503   2.907   4.526 -0.1448 -1.8321  2.0994
  196MOL0     H26443   3.525   3.145   4.465  3.0841  1.5290 -1.0071
  196MOL0     H26444   3.609   3.522   4.732  1.1299 -2.0740 -1.7419
  196MOL0     H26445   3.552   3.746   4.784  0.6325 -0.3529 -0.4909
  196MOL0     H26446   3.276   3.716   5.082 -1.0853 -2.1506 -1.0637
  196MOL0     H26447   3.258   3.476   5.087 -0.5321 -3.6503  1.8296
  196MOL0     H26448   3.326   3.124   5.297  0.5849 -0.9802  0.6374
  196MOL0     H26449   3.337   2.879   5.328  1.7406  0.0697  1.4656
  196MOL0     H26450   3.535   2.582   5.239  2.2397  1.4784  1.6314
  196MOL0     H26451   3.476   2.715   5.326 -0.7699 -2.1919  3.2596
  196MOL0     H26452   3.240   2.621   5.286 -1.8388 -2.5078 -0.4339
  196MOL0     H26453   3.354   2.560   5.418 -0.0016 -0.9427 -0.1770
  196MOL0     H26454   3.422   2.387   5.216 -0.3474 -3.1935  3.7567
  196MOL0     H26455   3.265   2.445   5.153  1.3525  0.9198 -1.6956
  196MOL0     H26456   3.208   2.253   5.245  0.4662  0.1642 -0.9529
  196MOL0     H26457   3.151   2.360   5.380  0.2441 -0.6261  1.1802
  196MOL0     H26458   3.441   2.173   5.591 -0.4261  0.5482  1.2009
  196MOL0     H26459   3.443   2.856   4.922  2.5009 -2.7576  1.8785
  196MOL0     H26460   3.473   3.080   4.898  0.2267  0.5078 -0.1859
  197MOL0     O26461   7.860   6.391   9.004  0.4089 -1.3684 -0.6345
  197MOL0     C26462   7.801   6.479   8.948 -0.4433  0.3068  1.1593
  197MOL0     O26463   7.729   6.461   8.827  0.3126 -0.2967 -1.8812
  197MOL0     C26464   7.679   6.341   8.801 -0.4019  0.3046 -0.0409
  197MOL0     C26465   7.537   6.323   8.794 -0.3862  0.9629 -0.1391
  197MOL0     C26466   7.486   6.190   8.774 -0.2568  0.2306 -0.9536
  197MOL0     C26467   7.583   6.079   8.774 -0.4073 -0.2069  0.7226
  197MOL0     O26468   7.527   5.956   8.776 -0.6108  0.3896 -0.6875
  197MOL0     C26469   7.608   5.834   8.744 -0.2741 -0.9259  0.2974
  197MOL0     C26470   7.533   5.706   8.765  1.1478  1.0105 -0.0156
  197MOL0     C26471   7.628   5.598   8.739 -0.5104  0.8364  0.1639
  197MOL0     C26472   7.565   5.458   8.738 -0.4436 -0.7062  0.0538
  197MOL0     C26473   7.674   5.353   8.703  0.6637  0.1131  0.0213
  197MOL0     C26474   7.615   5.251   8.606  0.7477  0.1952 -0.4185
  197MOL0     C26475   7.713   5.150   8.560  0.3121  0.0731  0.9002
  197MOL0     C26476   7.652   5.031   8.488  0.1065 -0.9452  1.2317
  197MOL0     N26477   7.584   4.931   8.581  0.0273 -0.1680  0.8746
  197MOL0     C26478   7.627   4.809   8.620 -0.5823  0.9144  0.6711
  197MOL0     C26479   7.520   4.750   8.672 -0.1159 -0.6516 -0.0779
  197MOL0     C26480   7.525   4.614   8.732 -0.1740  0.1033  0.8198
  197MOL0     C26481   7.518   4.513   8.610 -0.3693  0.3126 -0.5255
  197MOL0     C26482   7.375   4.502   8.533 -0.2524 -0.6169 -0.9901
  197MOL0     C26483   7.268   4.458   8.638 -0.2241  0.2678  0.5194
  197MOL0     O26484   7.304   4.329   8.699 -0.6181  0.1402  0.5307
  197MOL0     C26485   7.243   4.308   8.822 -0.4385 -0.2859  0.4181
  197MOL0     C26486   7.101   4.307   8.836  0.3237 -1.1024 -0.6378
  197MOL0     C26487   7.041   4.260   8.953  0.0700 -0.7423 -1.1004
  197MOL0     C26488   6.893   4.274   8.951  0.4642 -1.0613 -0.3923
  197MOL0     C26489   7.119   4.204   9.057 -0.1538 -0.9302 -0.2668
  197MOL0     C26490   7.070   4.149   9.185  0.0921  0.4800  0.4172
  197MOL0     O26491   7.160   4.080   9.266 -0.8549 -0.6307  0.3347
  197MOL0     C26492   7.116   4.035   9.393  0.5119 -0.1602  1.4894
  197MOL0     C26493   7.039   4.106   9.481 -0.4842 -0.2454 -0.5348
  197MOL0     C26494   7.028   4.071   9.619 -0.5714  0.7630 -0.7436
  197MOL0     C26495   7.073   3.942   9.662 -0.0120  0.6274 -0.0599
  197MOL0     O26496   7.058   3.890   9.788 -0.3230  0.2532  0.4127
  197MOL0     C26497   6.939   3.939   9.851  0.1700  0.0781 -0.3184
  197MOL0     C26498   6.986   4.029   9.962 -0.2708  0.6622  0.4562
  197MOL0     C26499   7.091   4.144   9.936 -0.2315 -0.2961 -1.0963
  197MOL0     C26500   7.185   4.162  10.053 -0.2921 -0.2968  0.2367
  197MOL0     C26501   7.117   4.208  10.179 -0.3265 -0.8705 -0.3992
  197MOL0     C26502   7.023   4.341  10.170 -0.4889 -0.2305 -0.4174
  197MOL0     C26503   6.953   4.382  10.302 -0.0827  1.2032  0.9187
  197MOL0     C26504   6.904   4.524  10.320  0.0978 -0.4428 -0.3585
  197MOL0    Cl26505   7.029   4.619  10.422  0.1297 -0.0123  0.7863
  197MOL0     C26506   7.138   3.866   9.566 -0.8560  0.6605  0.1792
  197MOL0     C26507   7.163   3.910   9.438  0.2819 -0.4094 -0.4739
  197MOL0     O26508   6.958   4.179   9.215  0.1511 -0.0766  0.0563
  197MOL0     C26509   7.258   4.202   9.037 -0.1188 -1.9959  0.1763
  197MOL0     C26510   7.321   4.244   8.915  0.1215  0.1511 -0.2549
  197MOL0     N26511   7.410   4.835   8.673  0.2888  0.1586  0.0960
  197MOL0     N26512   7.448   4.938   8.602 -0.3347  0.4030 -0.0606
  197MOL0     C26513   7.721   6.096   8.794 -0.0857 -0.0576  0.0172
  197MOL0     C26514   7.768   6.228   8.808 -1.1513  0.6867  0.7333
  197MOL0     C26515   7.814   6.626   8.985 -0.6289  0.2491 -1.1041
  197MOL0     C26516   7.873   6.668   9.109 -0.5109 -0.1278  0.0794
  197MOL0     C26517   7.876   6.803   9.141 -0.6315 -0.3137 -0.5140
  197MOL0     C26518   7.812   6.897   9.073 -1.1339  0.2412 -0.3275
  197MOL0     O26519   7.813   7.028   9.113 -0.8297 -1.1469  0.1557
  197MOL0     C26520   7.683   7.100   9.088 -0.3381  0.7043  0.9594
  197MOL0     C26521   7.692   7.195   8.973 -0.6982 -0.9376  1.0051
  197MOL0     C26522   7.756   7.333   9.025 -0.2828 -0.1580 -0.8584
  197MOL0     C26523   7.770   7.437   8.914 -0.0401  0.7833  0.4586
  197MOL0     C26524   7.876   7.397   8.822  0.0803 -0.9735 -0.4308
  197MOL0     C26525   7.975   7.363   8.764  0.0556 -0.6624 -0.5073
  197MOL0     C26526   7.753   6.854   8.949  0.1965  0.5829  0.0552
  197MOL0     C26527   7.760   6.719   8.905 -0.1353  0.5361  0.6195
  197MOL0     H26528   7.464   6.403   8.805 -0.3814  0.8280  1.0504
  197MOL0     H26529   7.380   6.171   8.761  0.0155 -2.6379  0.1957
  197MOL0     H26530   7.650   5.847   8.644 -0.0615 -0.7269  0.4110
  197MOL0     H26531   7.690   5.823   8.816  0.7329 -1.5641 -0.9047
  197MOL0     H26532   7.493   5.692   8.866 -1.1908  2.3504 -0.7054
  197MOL0     H26533   7.444   5.708   8.702 -0.2955 -1.8285  1.7046
  197MOL0     H26534   7.673   5.610   8.640  0.6499 -4.2160 -0.1672
  197MOL0     H26535   7.706   5.594   8.816 -2.0697 -0.9517  1.7254
  197MOL0     H26536   7.531   5.429   8.837  0.0729 -0.1704  0.3954
  197MOL0     H26537   7.483   5.462   8.666 -1.6220 -0.4196  1.3717
  197MOL0     H26538   7.757   5.397   8.648  0.1510 -0.5904 -1.3575
  197MOL0     H26539   7.702   5.298   8.794  0.1141  0.2449  0.2764
  197MOL0     H26540   7.526   5.204   8.647  0.0309  1.3809 -0.5724
  197MOL0     H26541   7.578   5.309   8.521  2.0918 -0.2549 -1.3427
  197MOL0     H26542   7.780   5.201   8.491 -0.4422  1.1228  0.9246
  197MOL0     H26543   7.769   5.118   8.648  1.5855  0.6812  0.3382
  197MOL0     H26544   7.732   4.981   8.434  1.3061  0.6314  1.4885
  197MOL0     H26545   7.582   5.065   8.411 -0.8773  1.4426  3.0502
  197MOL0     H26546   7.725   4.766   8.600 -2.7945 -4.1860 -0.9243
  197MOL0     H26547   7.617   4.600   8.790 -0.1173 -0.8089  0.5236
  197MOL0     H26548   7.450   4.601   8.811 -0.6253 -0.3464  0.3265
  197MOL0     H26549   7.542   4.416   8.653  0.6880 -1.1277 -4.0560
  197MOL0     H26550   7.589   4.540   8.531  1.5909 -2.4607  0.1521
  197MOL0     H26551   7.387   4.441   8.444  3.9272  0.7220 -1.5551
  197MOL0     H26552   7.344   4.604   8.509 -0.3640 -0.0803  1.1551
  197MOL0     H26553   7.167   4.453   8.598 -0.0156  1.3649 -0.1943
  197MOL0     H26554   7.272   4.536   8.715  2.4171  1.8974 -1.1031
  197MOL0     H26555   7.030   4.337   8.760 -0.0181  2.4419  0.8486
  197MOL0     H26556   6.832   4.188   8.981 -3.5399  1.6011 -0.1212
  197MOL0     H26557   6.882   4.346   9.032  4.1132 -1.8073  0.9638
  197MOL0     H26558   6.857   4.319   8.858 -0.1064 -0.8138 -0.0538
  197MOL0     H26559   7.005   4.206   9.454 -1.0792 -0.4000 -0.3767
  197MOL0     H26560   6.977   4.140   9.685 -0.6986  0.6963 -0.7708
  197MOL0     H26561   6.863   3.989   9.791  0.0239  0.4132  0.1420
  197MOL0     H26562   6.876   3.858   9.890 -0.9509 -0.0316 -2.2522
  197MOL0     H26563   6.893   4.078   9.991 -0.8121  2.0903 -3.1848
  197MOL0     H26564   7.028   3.956  10.032 -0.9174 -1.9810 -1.7545
  197MOL0     H26565   7.047   4.242   9.919 -3.2282 -1.1731  0.9385
  197MOL0     H26566   7.149   4.110   9.849  1.5955  0.8344 -0.3906
  197MOL0     H26567   7.247   4.075  10.076 -0.8243 -1.2629 -1.7835
  197MOL0     H26568   7.249   4.245  10.021 -3.1392  2.8579  2.0159
  197MOL0     H26569   7.196   4.215  10.254  2.4181 -1.7916 -2.9734
  197MOL0     H26570   7.065   4.120  10.217  0.2609 -1.3587 -0.7067
  197MOL0     H26571   7.093   4.424  10.160  0.8516 -0.8747  2.5457
  197MOL0     H26572   6.944   4.318  10.097 -1.6478 -0.6339  0.9017
  197MOL0     H26573   7.022   4.365  10.384  0.4452 -1.7807 -0.0348
  197MOL0     H26574   6.869   4.318  10.331  0.8398  0.1591  1.3279
  197MOL0     H26575   6.807   4.532  10.370  0.8840  0.9232  1.0278
  197MOL0     H26576   6.896   4.552  10.215 -1.2339 -0.4045 -0.2693
  197MOL0     H26577   7.150   3.767   9.609 -0.2093  0.9543  0.6834
  197MOL0     H26578   7.218   3.860   9.359 -1.1316  0.8205 -2.3186
  197MOL0     H26579   7.331   4.177   9.113  1.4801 -0.7246 -0.8782
  197MOL0     H26580   7.428   4.234   8.900 -0.2423 -2.2601 -1.7407
  197MOL0     H26581   7.793   6.016   8.805 -1.6084 -1.3935  0.6206
  197MOL0     H26582   7.872   6.254   8.797 -1.3833  0.6111 -2.6422
  197MOL0     H26583   7.908   6.599   9.185  0.1291  0.6024  0.4519
  197MOL0     H26584   7.924   6.833   9.233 -1.5914  1.4284 -0.5414
  197MOL0     H26585   7.603   7.030   9.064 -1.2182  2.4514 -1.6069
  197MOL0     H26586   7.661   7.160   9.177  1.1159  0.8033  1.2858
  197MOL0     H26587   7.591   7.206   8.934 -0.1615  1.3490  0.0871
  197MOL0     H26588   7.743   7.143   8.891 -1.1037  0.2472 -0.0120
  197MOL0     H26589   7.855   7.315   9.066 -0.4065  1.9423  0.5199
  197MOL0     H26590   7.685   7.371   9.099 -0.3167  0.2401 -1.0900
  197MOL0     H26591   7.807   7.532   8.953  2.3990  0.1009 -0.0500
  197MOL0     H26592   7.676   7.454   8.860  0.0467  1.4089  0.4951
  197MOL0     H26593   8.058   7.331   8.705 -1.4157 -4.1544 -0.9594
  197MOL0     H26594   7.723   6.921   8.870  2.1487  0.3903 -0.9097
  197MOL0     H26595   7.719   6.705   8.806 -4.0910  1.7755  1.9120
  198MOL0     O26596   4.267   4.894   8.748  0.0115  0.0693 -0.1400
  198MOL0     C26597   4.390   4.874   8.743  0.7090 -0.1948 -0.3140
  198MOL0     O26598   4.460   4.809   8.843 -0.5238 -0.0400  0.6568
  198MOL0     C26599   4.391   4.752   8.952 -0.7841  0.1481  0.4038
  198MOL0     C26600   4.436   4.627   8.998  0.2956 -0.2289  1.0812
  198MOL0     C26601   4.403   4.583   9.126  0.4930 -0.0034  0.7962
  198MOL0     C26602   4.343   4.666   9.216  0.3333 -0.1260 -0.5126
  198MOL0     O26603   4.308   4.600   9.338  1.0314  0.1362  0.1366
  198MOL0     C26604   4.168   4.579   9.359  0.2753  0.5880 -0.2695
  198MOL0     C26605   4.090   4.491   9.253  0.1975  0.2066 -0.6446
  198MOL0     C26606   3.945   4.465   9.281  0.9971  0.5462 -0.5376
  198MOL0     C26607   3.896   4.344   9.209 -0.2251  0.0323  0.8729
  198MOL0     C26608   3.740   4.323   9.239  0.7838 -0.5260 -0.1669
  198MOL0     C26609   3.680   4.205   9.167 -0.3331 -0.0362  1.4731
  198MOL0     C26610   3.531   4.176   9.205 -0.9586  0.5420  0.1755
  198MOL0     C26611   3.523   4.124   9.349  0.1770  0.6901  0.6653
  198MOL0     N26612   3.411   4.027   9.371 -0.0315  0.8753  0.0847
  198MOL0     C26613   3.294   4.065   9.425 -0.1823 -0.2729  0.3435
  198MOL0     C26614   3.221   3.954   9.421  0.1782  0.1388  0.6500
  198MOL0     C26615   3.088   3.949   9.480 -0.1152 -0.5538 -0.1082
  198MOL0     C26616   3.007   3.846   9.404 -0.6715 -0.7973 -0.6324
  198MOL0     C26617   2.898   3.781   9.484  0.0897  0.0328  0.1651
  198MOL0     C26618   2.786   3.872   9.546 -0.5043  0.6273  0.3854
  198MOL0     O26619   2.710   3.912   9.439  0.4663  0.3791  0.3878
  198MOL0     C26620   2.575   3.924   9.458  0.8825  0.2035  0.2056
  198MOL0     C26621   2.539   4.031   9.540 -0.2519 -0.2654 -0.1361
  198MOL0     C26622   2.404   4.059   9.563 -0.4582 -0.2257  0.2348
  198MOL0     C26623   2.382   4.197   9.630  0.2105  0.3518 -0.2895
  198MOL0     C26624   2.297   3.972   9.513 -0.6142 -0.7869 -0.5280
  198MOL0     C26625   2.147   3.990   9.542  0.5885 -1.3940  0.5051
  198MOL0     O26626   2.110   4.115   9.609 -0.6337  0.2553 -0.3780
  198MOL0     C26627   1.978   4.134   9.607 -0.0012  0.0586 -1.2380
  198MOL0     C26628   1.917   4.203   9.501 -0.4496  0.0359 -0.8724
  198MOL0     C26629   1.775   4.210   9.495 -0.0261  0.3229 -0.4325
  198MOL0     C26630   1.689   4.170   9.607 -0.2733 -0.3665  0.0780
  198MOL0     O26631   1.557   4.191   9.598 -0.6835  0.1540  0.2587
  198MOL0     C26632   1.474   4.092   9.639 -0.8475 -0.0523 -0.8542
  198MOL0     C26633   1.344   4.084   9.570  0.3066 -0.3419  0.5542
  198MOL0     C26634   1.354   4.058   9.420 -0.4519 -0.3219  0.8023
  198MOL0     C26635   1.224   3.986   9.376  0.7845 -0.1921  0.5983
  198MOL0     C26636   1.094   4.057   9.412 -0.2507 -0.5861 -0.8062
  198MOL0     C26637   1.072   4.207   9.355  0.6758 -0.1773  0.0313
  198MOL0     C26638   0.937   4.235   9.280  0.0013 -0.0481 -0.0431
  198MOL0     C26639   0.950   4.330   9.156  1.2609 -0.6447 -0.0358
  198MOL0    Cl26640   0.998   4.492   9.240 -0.2139 -0.2089 -0.3921
  198MOL0     C26641   1.751   4.113   9.720  0.6441  0.2715 -0.7207
  198MOL0     C26642   1.896   4.100   9.725 -0.2663  0.1307  0.3462
  198MOL0     O26643   2.067   3.899   9.517 -0.1721 -0.8098  0.0283
  198MOL0     C26644   2.338   3.867   9.435 -0.7120 -0.1140  0.8548
  198MOL0     C26645   2.475   3.843   9.416 -0.9551  0.9139  0.0214
  198MOL0     N26646   3.304   3.858   9.377  0.3361  0.6837  0.3272
  198MOL0     N26647   3.419   3.897   9.350 -0.2822 -0.0601  0.0881
  198MOL0     C26648   4.309   4.802   9.173 -0.2134  0.5497 -0.1720
  198MOL0     C26649   4.324   4.832   9.039  1.1512 -0.1520 -0.2171
  198MOL0     C26650   4.465   4.900   8.615  0.0576 -0.2038  0.5072
  198MOL0     C26651   4.590   4.857   8.577  0.3761 -0.8425 -0.5851
  198MOL0     C26652   4.643   4.879   8.452 -0.4783 -0.1906  1.1265
  198MOL0     C26653   4.588   4.967   8.359 -0.1034  0.0786 -0.8368
  198MOL0     O26654   4.643   4.988   8.233  0.1844 -0.1479  0.2364
  198MOL0     C26655   4.576   5.058   8.130  0.1144 -0.8549 -0.6281
  198MOL0     C26656   4.675   5.081   8.015 -0.4335 -0.5173  0.7496
  198MOL0     C26657   4.697   4.942   7.936 -0.1556  0.4269  1.8386
  198MOL0     C26658   4.821   4.964   7.851 -0.1622 -0.3115 -0.1601
  198MOL0     C26659   4.795   5.057   7.746 -1.1829 -0.5155 -0.2175
  198MOL0     C26660   4.765   5.136   7.658  0.7169 -0.2037 -0.6500
  198MOL0     C26661   4.456   5.010   8.395  0.0517  0.6470 -0.2391
  198MOL0     C26662   4.397   4.972   8.518 -0.4612 -0.4149  0.3075
  198MOL0     H26663   4.482   4.562   8.925 -0.6735  3.5604 -3.4026
  198MOL0     H26664   4.437   4.484   9.155 -2.5836 -0.8151  1.9948
  198MOL0     H26665   4.176   4.529   9.456  3.4437 -0.8090 -1.1180
  198MOL0     H26666   4.115   4.673   9.378 -1.5240 -0.1400 -1.3912
  198MOL0     H26667   4.101   4.544   9.158  1.3979 -2.0256 -1.8339
  198MOL0     H26668   4.131   4.391   9.237 -1.2223 -0.2417 -1.7558
  198MOL0     H26669   3.917   4.447   9.385  1.2706  1.1125 -0.3667
  198MOL0     H26670   3.890   4.555   9.253  3.2739  3.1269  2.5301
  198MOL0     H26671   3.919   4.346   9.103 -1.3955 -1.2700  0.5619
  198MOL0     H26672   3.946   4.256   9.251  1.1567  0.8608  1.0099
  198MOL0     H26673   3.719   4.318   9.346  0.2363  1.4940 -0.1216
  198MOL0     H26674   3.691   4.417   9.209  0.5141 -1.1900 -1.9597
  198MOL0     H26675   3.694   4.226   9.060  0.6712  0.3597  1.6698
  198MOL0     H26676   3.740   4.116   9.188  0.9174 -1.1665 -4.7713
  198MOL0     H26677   3.465   4.262   9.189 -1.1100  0.2819 -0.6613
  198MOL0     H26678   3.492   4.109   9.128 -2.6979  1.6159  0.0608
  198MOL0     H26679   3.513   4.200   9.426  1.8408  0.8550  0.7562
  198MOL0     H26680   3.611   4.063   9.371 -0.3223  0.1291  1.1292
  198MOL0     H26681   3.271   4.164   9.464 -2.6714 -0.5000 -0.3826
  198MOL0     H26682   3.100   3.935   9.588  1.7681 -0.6531 -0.2872
  198MOL0     H26683   3.044   4.047   9.461  3.4063  1.0838 -0.7102
  198MOL0     H26684   3.078   3.769   9.372  2.5473  2.4534 -1.9706
  198MOL0     H26685   2.970   3.907   9.321  0.4857  2.4026  1.0393
  198MOL0     H26686   2.944   3.740   9.574  0.6223  1.8140  0.7576
  198MOL0     H26687   2.853   3.692   9.439 -2.3745  0.6471  1.2589
  198MOL0     H26688   2.834   3.952   9.603  1.2836  0.3030 -0.6060
  198MOL0     H26689   2.727   3.793   9.593  1.8555 -1.3027  0.3181
  198MOL0     H26690   2.623   4.088   9.579 -1.1750  1.2792 -0.3255
  198MOL0     H26691   2.478   4.248   9.640 -0.3165  1.7037 -1.6723
  198MOL0     H26692   2.325   4.266   9.568  1.6421 -0.2428 -2.4206
  198MOL0     H26693   2.329   4.195   9.725  1.9897 -2.9586  0.7936
  198MOL0     H26694   1.977   4.243   9.420 -0.2389  1.6231  0.0250
  198MOL0     H26695   1.727   4.243   9.403  3.4974  2.9916 -1.5236
  198MOL0     H26696   1.524   3.996   9.625 -1.3513 -0.9118  2.3663
  198MOL0     H26697   1.459   4.095   9.747 -2.3190  1.6641 -1.0622
  198MOL0     H26698   1.307   3.989   9.611  0.4410 -1.0773 -0.9589
  198MOL0     H26699   1.279   4.170   9.586  1.3882  0.8496 -1.1896
  198MOL0     H26700   1.443   4.000   9.390 -1.8373 -2.1223 -0.0217
  198MOL0     H26701   1.364   4.156   9.374 -1.6939  0.0432  1.2891
  198MOL0     H26702   1.231   3.978   9.267  2.6382 -0.5085  0.7085
  198MOL0     H26703   1.228   3.884   9.415  0.7517 -0.7099 -0.7207
  198MOL0     H26704   1.069   4.041   9.518  1.5653 -1.8437 -0.5262
  198MOL0     H26705   1.020   3.991   9.366 -1.8182  0.7467 -0.3256
  198MOL0     H26706   1.081   4.285   9.431 -3.6253  0.0059  0.5593
  198MOL0     H26707   1.151   4.231   9.283  1.6362 -0.3798  0.9857
  198MOL0     H26708   0.869   4.275   9.356  0.8892 -0.5755  1.0632
  198MOL0     H26709   0.899   4.135   9.254  0.6194 -0.5544  0.9245
  198MOL0     H26710   0.848   4.337   9.115  1.0252  1.0440  0.7276
  198MOL0     H26711   1.015   4.303   9.072 -2.8294 -2.6348 -2.9645
  198MOL0     H26712   1.699   4.097   9.814  0.8266 -1.0831 -0.8406
  198MOL0     H26713   1.934   4.035   9.803  0.0067 -0.4824 -0.2869
  198MOL0     H26714   2.266   3.803   9.384  2.4036  0.2834 -4.7275
  198MOL0     H26715   2.486   3.752   9.358 -3.3621  1.1447 -0.9308
  198MOL0     H26716   4.280   4.879   9.245 -1.1231 -1.5480  1.8637
  198MOL0     H26717   4.291   4.932   9.015  0.8567  0.7148  3.2003
  198MOL0     H26718   4.641   4.801   8.655 -1.7443 -0.7068  0.9891
  198MOL0     H26719   4.745   4.848   8.436 -1.1042 -0.5264 -3.2272
  198MOL0     H26720   4.488   4.996   8.109 -0.1539 -1.2058  1.3408
  198MOL0     H26721   4.545   5.151   8.177 -2.6049 -0.7116 -2.5070
  198MOL0     H26722   4.771   5.118   8.052 -1.7690  0.9346  3.0595
  198MOL0     H26723   4.637   5.164   7.954  0.3832  0.9436  2.1424
  198MOL0     H26724   4.616   4.906   7.873  1.0266  1.0936 -0.1427
  198MOL0     H26725   4.721   4.859   8.004  0.5856  0.5106  1.6870
  198MOL0     H26726   4.858   4.873   7.803  1.6648  0.7749 -0.8830
  198MOL0     H26727   4.903   4.996   7.916 -0.2584 -0.8833  0.2526
  198MOL0     H26728   4.732   5.199   7.578  0.1496  0.3149 -0.0185
  198MOL0     H26729   4.399   5.065   8.321  3.5777  2.9467 -1.4952
  198MOL0     H26730   4.296   5.008   8.537 -0.2592  0.2349  0.1782
  199MOL0     O26731   8.027   6.809  11.383  0.0597  0.4701 -0.5788
  199MOL0     C26732   8.115   6.893  11.354  0.8426 -0.7887  0.1567
  199MOL0     O26733   8.093   7.009  11.288 -0.9646  0.0505 -0.1055
  199MOL0     C26734   7.969   7.042  11.238 -0.0389 -0.8440 -0.1014
  199MOL0     C26735   7.938   7.036  11.104  0.6589  0.3536 -0.0705
  199MOL0     C26736   7.806   7.051  11.058 -0.1786 -0.7686 -0.3307
  199MOL0     C26737   7.710   7.073  11.153  0.3305 -0.0754 -0.0346
  199MOL0     O26738   7.580   7.065  11.111  0.0940  0.2691 -0.7569
  199MOL0     C26739   7.534   7.141  10.993 -0.6046 -0.5570  0.2366
  199MOL0     C26740   7.381   7.152  10.996 -0.8004 -0.4311  0.4888
  199MOL0     C26741   7.317   7.176  10.860  0.3361  0.1777 -0.1744
  199MOL0     C26742   7.195   7.268  10.882  0.1224 -0.8357 -0.0577
  199MOL0     C26743   7.120   7.302  10.749  0.0225 -0.4070 -0.3500
  199MOL0     C26744   7.048   7.198  10.669  0.0184  0.8875  0.6115
  199MOL0     C26745   6.967   7.255  10.550  0.0242  0.3336  0.3490
  199MOL0     C26746   6.960   7.157  10.435 -0.4996 -0.2010  0.0835
  199MOL0     N26747   6.885   7.031  10.461  0.9889  0.8633 -0.8262
  199MOL0     C26748   6.761   7.014  10.420  0.8872 -0.4714 -0.4010
  199MOL0     C26749   6.730   6.888  10.455 -0.5429 -0.2635 -0.4082
  199MOL0     C26750   6.606   6.828  10.423  1.1826  0.8428 -0.4807
  199MOL0     C26751   6.485   6.917  10.474  0.0687 -0.2118  0.4024
  199MOL0     C26752   6.358   6.830  10.479 -0.6338  1.0726  0.0991
  199MOL0     C26753   6.287   6.822  10.347  0.3122  0.4869 -0.6572
  199MOL0     O26754   6.152   6.788  10.379 -0.4851 -0.4888 -0.0521
  199MOL0     C26755   6.054   6.870  10.340  1.2911  0.5904  0.3764
  199MOL0     C26756   6.063   6.995  10.260  0.2546  0.6527 -1.3343
  199MOL0     C26757   5.943   7.058  10.218 -0.5517 -0.0595  0.1585
  199MOL0     C26758   5.960   7.197  10.163  1.3009  0.8196 -0.1706
  199MOL0     C26759   5.817   6.989  10.225  0.0521 -0.2293 -0.1411
  199MOL0     C26760   5.692   7.041  10.157 -0.3037  0.2884  0.2020
  199MOL0     O26761   5.589   6.956  10.191 -0.2970  0.6259 -0.5263
  199MOL0     C26762   5.464   7.004  10.178 -0.1680 -0.0736 -0.5058
  199MOL0     C26763   5.421   7.141  10.193  0.1220  0.4505 -0.6197
  199MOL0     C26764   5.291   7.162  10.155  0.3644 -0.7223 -0.3926
  199MOL0     C26765   5.206   7.060  10.107  0.2017 -0.6702  1.1861
  199MOL0     O26766   5.079   7.077  10.059  0.3969  0.7517 -0.0904
  199MOL0     C26767   5.049   7.197   9.990 -0.1818 -0.5163 -0.1806
  199MOL0     C26768   5.124   7.204   9.859  0.7278  0.6642 -0.1592
  199MOL0     C26769   5.111   7.334   9.777 -0.6997 -0.1727 -0.7133
  199MOL0     C26770   5.220   7.447   9.811 -0.6479  1.0229 -0.3177
  199MOL0     C26771   5.179   7.569   9.730  0.3525 -0.1796 -0.2097
  199MOL0     C26772   5.270   7.689   9.759 -0.3758 -0.8089 -0.1357
  199MOL0     C26773   5.221   7.812   9.680  0.1275 -0.3498  0.0042
  199MOL0     C26774   5.240   7.943   9.749  0.1533  0.1324 -0.1904
  199MOL0    Cl26775   5.192   8.072   9.641 -0.2085  0.2052 -0.6062
  199MOL0     C26776   5.250   6.931  10.114 -0.0854 -0.1334  0.7867
  199MOL0     C26777   5.375   6.901  10.146 -0.2979  0.4000  1.1361
  199MOL0     O26778   5.697   7.127  10.072 -0.3022  0.3759 -0.1233
  199MOL0     C26779   5.813   6.867  10.286  0.0420 -0.4949  0.8617
  199MOL0     C26780   5.926   6.812  10.350 -0.8043 -0.1164 -0.8355
  199MOL0     N26781   6.835   6.837  10.530  0.5594 -0.0081 -0.4771
  199MOL0     N26782   6.931   6.923  10.523  0.2699 -0.1191  0.1364
  199MOL0     C26783   7.754   7.106  11.279  0.2397  0.1398 -0.2784
  199MOL0     C26784   7.872   7.083  11.329 -0.3109  0.8452 -0.3307
  199MOL0     C26785   8.252   6.861  11.379  0.0390  0.0481  0.2685
  199MOL0     C26786   8.362   6.955  11.367 -0.3951  0.0385  0.9089
  199MOL0     C26787   8.492   6.924  11.403 -0.6556  0.5426  0.0684
  199MOL0     C26788   8.521   6.791  11.432  0.4127 -0.1090 -0.5981
  199MOL0     O26789   8.655   6.761  11.442  0.2175  0.2894  0.3393
  199MOL0     C26790   8.695   6.671  11.339 -0.1243  0.7985 -0.3697
  199MOL0     C26791   8.846   6.651  11.359  0.4830 -0.7826 -0.2257
  199MOL0     C26792   8.922   6.783  11.310 -1.2993 -0.5327  0.5735
  199MOL0     C26793   9.073   6.761  11.318  0.0466 -0.2190  0.4076
  199MOL0     C26794   9.130   6.633  11.268 -0.3461 -0.7943  0.9547
  199MOL0     C26795   9.170   6.530  11.221 -0.9360 -0.0745 -0.4230
  199MOL0     C26796   8.415   6.692  11.431 -0.0670 -0.0439 -0.3991
  199MOL0     C26797   8.282   6.730  11.406 -0.3640 -0.0723 -0.6061
  199MOL0     H26798   8.022   7.007  11.041  1.1453  0.3618  0.5567
  199MOL0     H26799   7.768   7.036  10.958 -0.3333 -2.2544 -0.0732
  199MOL0     H26800   7.576   7.242  10.988  1.1147 -1.2963 -2.9687
  199MOL0     H26801   7.559   7.081  10.905  1.4761  0.9656 -0.2957
  199MOL0     H26802   7.351   7.054  11.036  1.1974 -1.8803 -1.3251
  199MOL0     H26803   7.361   7.240  11.058  0.8789 -0.3134  0.9425
  199MOL0     H26804   7.384   7.225  10.789  1.9307  0.6671  1.5938
  199MOL0     H26805   7.281   7.080  10.824 -2.5273  1.1411 -0.1818
  199MOL0     H26806   7.132   7.221  10.958  0.9503 -2.1295 -0.1334
  199MOL0     H26807   7.224   7.365  10.924  0.0139 -1.3250  1.1920
  199MOL0     H26808   7.039   7.375  10.761 -1.6150 -1.4113 -3.9026
  199MOL0     H26809   7.189   7.345  10.677  1.2138 -0.3092  0.8166
  199MOL0     H26810   7.123   7.135  10.621 -0.6573 -0.5970  1.4429
  199MOL0     H26811   6.981   7.143  10.735 -0.7667 -0.6245 -1.3539
  199MOL0     H26812   6.865   7.278  10.584  0.4493  0.0154  1.9282
  199MOL0     H26813   7.002   7.352  10.514  0.7476  0.0272  0.2206
  199MOL0     H26814   7.062   7.127  10.407 -1.9382 -2.0877 -3.9665
  199MOL0     H26815   6.925   7.208  10.345  1.4439 -0.5551 -0.9315
  199MOL0     H26816   6.693   7.087  10.378 -0.0548  0.1032  1.9603
  199MOL0     H26817   6.605   6.819  10.314 -0.5299 -0.0525 -0.4286
  199MOL0     H26818   6.602   6.725  10.460 -3.7384  0.2404 -1.8958
  199MOL0     H26819   6.472   7.005  10.411 -0.6245  0.3290  1.2685
  199MOL0     H26820   6.504   6.957  10.574 -3.0659  1.7047  0.3762
  199MOL0     H26821   6.280   6.877  10.539 -2.2501  0.4577 -1.4261
  199MOL0     H26822   6.368   6.731  10.525 -2.1428  1.3265  1.0681
  199MOL0     H26823   6.330   6.752  10.275 -0.8387 -1.3515  0.3517
  199MOL0     H26824   6.302   6.912  10.287  1.2696  0.0561 -1.0976
  199MOL0     H26825   6.158   7.044  10.245  2.0195 -0.8060  3.3488
  199MOL0     H26826   5.927   7.201  10.059 -1.5741  0.6004  0.6491
  199MOL0     H26827   5.901   7.274  10.214 -0.4651  0.5122 -1.6560
  199MOL0     H26828   6.066   7.222  10.174  2.0120 -2.2400  1.0907
  199MOL0     H26829   5.483   7.226  10.219  0.9804 -0.2095 -0.4603
  199MOL0     H26830   5.255   7.264  10.164  3.0584  0.2563  0.4378
  199MOL0     H26831   4.941   7.193   9.975 -0.5769  0.5283  1.9368
  199MOL0     H26832   5.073   7.280  10.057  0.4258 -0.0575 -0.9426
  199MOL0     H26833   5.233   7.204   9.868  0.6429 -0.1747  1.3395
  199MOL0     H26834   5.088   7.119   9.800 -0.4810  0.4507  0.8494
  199MOL0     H26835   5.013   7.379   9.795 -0.3617  0.1818  0.3173
  199MOL0     H26836   5.114   7.325   9.668 -1.2052  1.4112 -0.8963
  199MOL0     H26837   5.223   7.459   9.920  0.8480 -4.4014  0.5459
  199MOL0     H26838   5.324   7.416   9.793 -0.3930  0.5163  1.7205
  199MOL0     H26839   5.077   7.580   9.767 -0.1342 -2.8955 -0.5339
  199MOL0     H26840   5.181   7.532   9.628  0.4243  0.4207 -0.4313
  199MOL0     H26841   5.264   7.714   9.865  4.5942  1.7595 -0.1656
  199MOL0     H26842   5.378   7.685   9.744 -0.0353 -0.5714  2.0553
  199MOL0     H26843   5.114   7.806   9.659  0.4784  0.0671 -2.2036
  199MOL0     H26844   5.263   7.825   9.580 -0.8311 -2.9206 -0.8238
  199MOL0     H26845   5.347   7.956   9.770 -0.3938  4.2013  0.7962
  199MOL0     H26846   5.198   7.951   9.850  1.8513  0.7929  0.5218
  199MOL0     H26847   5.178   6.856  10.084 -0.5726  0.3053  0.8545
  199MOL0     H26848   5.398   6.797  10.128  1.8345  1.0103 -0.1183
  199MOL0     H26849   5.721   6.809  10.293 -0.4630  0.2236  0.3337
  199MOL0     H26850   5.917   6.716  10.399 -0.2159 -0.1042 -0.6998
  199MOL0     H26851   7.675   7.141  11.345 -2.9839 -3.2739 -1.9182
  199MOL0     H26852   7.908   7.109  11.428  2.1623  0.4575 -1.0532
  199MOL0     H26853   8.349   7.056  11.330 -3.4042 -0.8248 -0.7367
  199MOL0     H26854   8.578   6.988  11.390  1.2454 -1.7262  0.7889
  199MOL0     H26855   8.647   6.573  11.339  2.7712 -0.7362  0.7815
  199MOL0     H26856   8.680   6.726  11.245  0.9612 -0.4105 -1.2846
  199MOL0     H26857   8.873   6.562  11.301 -0.5205  0.6853 -3.1724
  199MOL0     H26858   8.867   6.647  11.466 -1.6182 -2.4485  0.1800
  199MOL0     H26859   8.894   6.869  11.372  0.2773 -0.7905  1.6937
  199MOL0     H26860   8.906   6.792  11.202 -1.2189 -2.0273  0.4176
  199MOL0     H26861   9.077   6.774  11.427  0.8611 -3.5924  0.9122
  199MOL0     H26862   9.123   6.845  11.270  0.1742 -0.5809 -0.0970
  199MOL0     H26863   9.206   6.434  11.192  1.4205  0.4948  0.4164
  199MOL0     H26864   8.419   6.590  11.469 -4.4541 -0.3576 -0.2836
  199MOL0     H26865   8.212   6.648  11.407  1.8459 -2.0731 -0.2128
  200MOL0     O26866   5.718   9.935   3.870 -0.5967  0.6690  0.0466
  200MOL0     C26867   5.602   9.968   3.843  0.9233 -0.6820 -1.0617
  200MOL0     O26868   5.503  10.008   3.932  0.4985 -0.5943  0.2077
  200MOL0     C26869   5.539  10.028   4.066 -0.6554 -0.3079  0.3478
  200MOL0     C26870   5.451   9.978   4.160 -0.5797 -0.1373  0.8562
  200MOL0     C26871   5.467  10.010   4.294 -0.0529 -0.1364 -0.3796
  200MOL0     C26872   5.579  10.085   4.341 -1.1956  0.1546 -0.2293
  200MOL0     O26873   5.599  10.115   4.472  0.7950  0.2864 -0.0638
  200MOL0     C26874   5.499  10.206   4.524  0.9272  0.3512  0.8484
  200MOL0     C26875   5.539  10.353   4.524 -0.2145  0.2071  0.2716
  200MOL0     C26876   5.439  10.440   4.593  0.4246 -0.2548 -0.1185
  200MOL0     C26877   5.366  10.518   4.480  0.8280 -0.4818  0.0973
  200MOL0     C26878   5.259  10.612   4.536 -0.6605 -0.5205 -0.3496
  200MOL0     C26879   5.311  10.754   4.544  0.1585  0.9523  0.3633
  200MOL0     C26880   5.200  10.841   4.599 -0.0556 -0.8477  0.1144
  200MOL0     C26881   5.084  10.866   4.501 -0.4523  0.7463 -0.1562
  200MOL0     N26882   4.969  10.781   4.536 -0.6007  0.9676  0.6810
  200MOL0     C26883   4.853  10.769   4.449 -0.0449 -0.1225 -0.4809
  200MOL0     C26884   4.755  10.714   4.521 -0.6219  0.3721 -0.0693
  200MOL0     C26885   4.621  10.652   4.476 -0.2659  0.0307  0.1119
  200MOL0     C26886   4.509  10.698   4.573 -0.4560 -0.8359  0.5147
  200MOL0     C26887   4.380  10.612   4.576  0.5250  0.8192 -0.3045
  200MOL0     C26888   4.277  10.655   4.682 -0.3071 -0.5116 -0.2959
  200MOL0     O26889   4.338  10.664   4.818  0.0499  0.1229 -0.3195
  200MOL0     C26890   4.250  10.652   4.920  0.0247  0.2202 -1.2339
  200MOL0     C26891   4.303  10.624   5.050 -0.0818  0.3651  0.4156
  200MOL0     C26892   4.219  10.602   5.162 -0.0464 -0.1443 -0.2423
  200MOL0     C26893   4.289  10.572   5.292 -0.0045 -0.6726 -0.7220
  200MOL0     C26894   4.086  10.606   5.146 -0.1549  0.7616  1.0536
  200MOL0     C26895   3.984  10.552   5.241 -0.6624  0.2824  0.9800
  200MOL0     O26896   3.854  10.543   5.196  0.8590  0.1690  0.5231
  200MOL0     C26897   3.757  10.473   5.261 -0.0844 -0.1859  0.3372
  200MOL0     C26898   3.662  10.545   5.342 -0.0362  1.2773 -0.5846
  200MOL0     C26899   3.558  10.472   5.419 -0.8600 -1.6938  1.0580
  200MOL0     C26900   3.553  10.338   5.397  1.1551 -0.5617 -0.2638
  200MOL0     O26901   3.460  10.254   5.461 -0.1998 -0.2579  0.2692
  200MOL0     C26902   3.405  10.288   5.596 -0.3614  0.5878  0.3251
  200MOL0     C26903   3.326  10.172   5.655 -0.4762 -0.1429 -0.6572
  200MOL0     C26904   3.253  10.083   5.551 -0.6151 -1.3859  0.3151
  200MOL0     C26905   3.182   9.962   5.610  0.0308 -0.2755 -1.0099
  200MOL0     C26906   3.123   9.876   5.505 -0.1327  0.2271 -0.1200
  200MOL0     C26907   3.100   9.734   5.560  0.0563  0.7148  0.9465
  200MOL0     C26908   3.003   9.643   5.471 -0.2509 -0.1428  0.5616
  200MOL0     C26909   3.029   9.642   5.313 -0.6559 -1.1485 -0.6787
  200MOL0    Cl26910   2.910   9.556   5.210  0.0542  0.1519 -0.3935
  200MOL0     C26911   3.631  10.272   5.301 -1.1610 -0.2274 -0.4828
  200MOL0     C26912   3.733  10.334   5.243 -0.6389  1.1818 -0.1903
  200MOL0     O26913   4.021  10.509   5.347 -0.2586 -0.2443 -0.3548
  200MOL0     C26914   4.030  10.656   5.025 -0.2956 -0.8639  0.2842
  200MOL0     C26915   4.108  10.665   4.909  0.4092 -0.3938 -0.8842
  200MOL0     N26916   4.821  10.686   4.644 -0.3334  0.5716  0.0581
  200MOL0     N26917   4.943  10.724   4.657  0.7609  0.2501  0.4692
  200MOL0     C26918   5.669  10.134   4.248 -0.5609 -0.5227 -0.0456
  200MOL0     C26919   5.651  10.108   4.112 -0.3468  0.2345  0.1793
  200MOL0     C26920   5.565   9.963   3.703  0.3593 -0.1810  1.0395
  200MOL0     C26921   5.641   9.905   3.597  0.3019 -0.0842  0.1129
  200MOL0     C26922   5.590   9.899   3.472 -0.7898 -0.0721 -0.0768
  200MOL0     C26923   5.463   9.944   3.442 -0.5432  0.4657  0.4575
  200MOL0     O26924   5.417   9.953   3.315 -0.2293 -0.7520  0.3499
  200MOL0     C26925   5.444   9.841   3.223  0.3620 -0.1462  0.2758
  200MOL0     C26926   5.325   9.824   3.132  0.0979 -0.0046  0.7254
  200MOL0     C26927   5.185   9.797   3.206 -0.8667 -0.1709 -0.2554
  200MOL0     C26928   5.098   9.920   3.192  0.2236 -0.3440 -0.1711
  200MOL0     C26929   5.040   9.945   3.060  0.3575 -0.2806  1.9231
  200MOL0     C26930   4.997   9.993   2.958 -0.7937 -0.1984  0.0943
  200MOL0     C26931   5.386  10.001   3.534  1.0133  0.0412  0.5879
  200MOL0     C26932   5.430  10.013   3.665 -0.1278 -0.1362 -0.0239
  200MOL0     H26933   5.365   9.932   4.113 -1.3686  2.7474 -0.7931
  200MOL0     H26934   5.399   9.976   4.372 -3.0785  1.8143 -2.0141
  200MOL0     H26935   5.399  10.208   4.479 -0.1823 -1.5763  3.0304
  200MOL0     H26936   5.482  10.179   4.629 -1.3751 -2.7061 -0.1720
  200MOL0     H26937   5.636  10.363   4.574 -0.5663 -0.2731  1.0696
  200MOL0     H26938   5.553  10.381   4.419  0.0239 -3.1219 -0.6838
  200MOL0     H26939   5.373  10.378   4.653  1.9256 -0.9941  0.8401
  200MOL0     H26940   5.477  10.510   4.668 -1.5182  3.6772 -2.4828
  200MOL0     H26941   5.440  10.580   4.428  2.3163 -1.9937  0.3113
  200MOL0     H26942   5.322  10.455   4.402  0.6635  2.2421 -2.1987
  200MOL0     H26943   5.169  10.618   4.474 -1.0450  4.8068  0.2773
  200MOL0     H26944   5.228  10.581   4.636 -2.2280  1.0355 -0.3154
  200MOL0     H26945   5.391  10.766   4.617 -0.5037  1.3553  1.0428
  200MOL0     H26946   5.365  10.785   4.454 -1.7229 -1.6562 -1.8567
  200MOL0     H26947   5.171  10.803   4.697 -3.2155  0.3120 -0.2548
  200MOL0     H26948   5.246  10.938   4.620 -2.8455  0.5345  0.3079
  200MOL0     H26949   5.117  10.843   4.399  0.6709  1.8407 -0.0629
  200MOL0     H26950   5.055  10.971   4.498  1.8317  1.4206 -1.1798
  200MOL0     H26951   4.840  10.800   4.346 -0.6013 -0.6911 -0.5859
  200MOL0     H26952   4.598  10.672   4.371 -0.2953  0.6181  0.2282
  200MOL0     H26953   4.633  10.543   4.481  1.8536  0.1930 -0.4761
  200MOL0     H26954   4.471  10.799   4.551  1.1503  0.4100  2.9952
  200MOL0     H26955   4.559  10.719   4.668 -0.5726  0.8129  0.2479
  200MOL0     H26956   4.398  10.506   4.601 -4.2544  0.4368  2.6925
  200MOL0     H26957   4.333  10.620   4.478  0.2532  0.1992 -0.2297
  200MOL0     H26958   4.201  10.577   4.684  1.8753 -2.7637 -0.0150
  200MOL0     H26959   4.241  10.753   4.650  2.2435  0.0219 -1.8017
  200MOL0     H26960   4.411  10.617   5.051  0.0929  0.9338 -2.9611
  200MOL0     H26961   4.270  10.645   5.370  1.0579 -1.0254 -0.1092
  200MOL0     H26962   4.276  10.474   5.339  2.2777 -1.2864 -1.2266
  200MOL0     H26963   4.396  10.572   5.267  0.3004 -1.8155  0.4879
  200MOL0     H26964   3.672  10.653   5.349 -0.8379  1.4059 -1.3084
  200MOL0     H26965   3.491  10.528   5.484 -1.9422  0.2005 -1.5202
  200MOL0     H26966   3.479  10.319   5.671 -1.6274  2.4354  0.8931
  200MOL0     H26967   3.338  10.372   5.574 -0.2722 -0.2683 -4.0949
  200MOL0     H26968   3.401  10.118   5.713  0.6849  2.6225  0.6367
  200MOL0     H26969   3.263  10.225   5.727  0.4779  1.3058 -0.8373
  200MOL0     H26970   3.314  10.044   5.469  0.2114  0.4083  0.0227
  200MOL0     H26971   3.182  10.156   5.510  4.0792  3.3470 -0.5693
  200MOL0     H26972   3.237   9.893   5.674 -5.1804 -2.1294  2.0842
  200MOL0     H26973   3.100  10.000   5.672  0.9455  0.7302 -0.3969
  200MOL0     H26974   3.194   9.867   5.422  1.2444 -2.1477  1.2026
  200MOL0     H26975   3.024   9.912   5.475 -1.8508 -2.9099  1.2521
  200MOL0     H26976   3.197   9.684   5.567 -0.0453  0.3046 -0.3449
  200MOL0     H26977   3.052   9.752   5.657 -0.2921  2.8019  0.4261
  200MOL0     H26978   2.899   9.675   5.485 -1.2163 -2.6697 -0.3266
  200MOL0     H26979   3.011   9.539   5.503 -0.5764  0.0116  1.1716
  200MOL0     H26980   3.126   9.602   5.280 -0.9192 -0.4382 -2.4221
  200MOL0     H26981   3.038   9.749   5.294  3.2992 -0.9789  1.0828
  200MOL0     H26982   3.626  10.164   5.303  0.4445 -0.3211 -0.3844
  200MOL0     H26983   3.808  10.274   5.192  1.6009  1.9005  2.0486
  200MOL0     H26984   3.923  10.666   5.014  0.0809  1.6800 -2.1781
  200MOL0     H26985   4.056  10.676   4.815 -0.5937  1.4128 -0.1643
  200MOL0     H26986   5.756  10.185   4.286  0.3823 -0.7318 -1.7943
  200MOL0     H26987   5.721  10.150   4.040 -0.3067 -0.1867 -0.0375
  200MOL0     H26988   5.743   9.872   3.616  0.6327 -0.5579 -2.1710
  200MOL0     H26989   5.655   9.868   3.391  1.2939  1.0807  1.0921
  200MOL0     H26990   5.539   9.860   3.173  2.4000  0.8481  4.1037
  200MOL0     H26991   5.466   9.748   3.276  1.4765 -0.1789 -0.2060
  200MOL0     H26992   5.340   9.740   3.064  0.1986  2.1094 -2.0582
  200MOL0     H26993   5.320   9.911   3.065 -0.6874 -1.8225 -1.7207
  200MOL0     H26994   5.201   9.776   3.312  3.1549 -1.1900 -0.8665
  200MOL0     H26995   5.136   9.704   3.175  1.0169 -0.4073 -2.9091
  200MOL0     H26996   5.148  10.013   3.222 -2.3534  0.4404  2.1613
  200MOL0     H26997   5.011   9.913   3.258  0.4434  3.4012  0.7547
  200MOL0     H26998   4.952  10.036   2.871 -2.3363 -1.7299  0.0851
  200MOL0     H26999   5.295  10.049   3.500  1.8149  0.2384 -1.4457
  200MOL0     H27000   5.367  10.057   3.741 -1.2968 -3.3416  1.0664
  201MOL0     O27001   8.902   2.382   1.994  0.0454 -0.4415  0.0712
  201MOL0     C27002   8.994   2.454   1.959 -0.3256  0.7214  0.9016
  201MOL0     O27003   9.043   2.454   1.830 -0.1473  0.5887  0.2183
  201MOL0     C27004   8.992   2.366   1.735 -0.0600 -0.8216 -0.0669
  201MOL0     C27005   8.989   2.229   1.745 -0.5494  0.3933 -0.1176
  201MOL0     C27006   8.936   2.153   1.639  1.7147  0.2493  0.1780
  201MOL0     C27007   8.877   2.207   1.523  1.0514 -0.2192 -0.6151
  201MOL0     O27008   8.816   2.117   1.438  0.2766  0.3938  0.0776
  201MOL0     C27009   8.792   2.153   1.300 -1.6060  0.2771 -0.0379
  201MOL0     C27010   8.656   2.214   1.279  0.1082  0.7060 -0.3331
  201MOL0     C27011   8.547   2.119   1.320 -0.1908 -0.2766 -0.4158
  201MOL0     C27012   8.542   1.986   1.240  0.3739  0.4162  0.5135
  201MOL0     C27013   8.407   1.920   1.258  0.4732 -0.0164 -0.7703
  201MOL0     C27014   8.404   1.762   1.235  0.6142 -0.1317  0.9672
  201MOL0     C27015   8.509   1.688   1.318  0.6201 -0.5559  0.5223
  201MOL0     C27016   8.468   1.664   1.464  0.5181  0.2826 -0.7364
  201MOL0     N27017   8.462   1.772   1.566 -0.2433 -0.6532  0.0213
  201MOL0     C27018   8.552   1.875   1.570  0.4670  0.1866 -0.1066
  201MOL0     C27019   8.525   1.943   1.691  0.9955 -0.4438 -0.9172
  201MOL0     C27020   8.589   2.070   1.748 -0.0798 -0.0594 -0.7161
  201MOL0     C27021   8.558   2.097   1.897  0.3801  0.7103 -0.7044
  201MOL0     C27022   8.644   2.007   1.983 -0.6165  0.0232  0.2609
  201MOL0     C27023   8.612   2.040   2.126 -0.2031  0.9447  0.1596
  201MOL0     O27024   8.683   1.973   2.230  0.2245 -0.2225  0.0158
  201MOL0     C27025   8.662   1.837   2.258 -0.3792 -0.1626  0.1853
  201MOL0     C27026   8.709   1.783   2.376 -0.3612  0.2605  0.4230
  201MOL0     C27027   8.704   1.642   2.404 -0.1921 -1.4211 -0.1530
  201MOL0     C27028   8.751   1.604   2.540  0.0948  0.7581 -0.4600
  201MOL0     C27029   8.651   1.543   2.312  0.6359  0.1925  0.3943
  201MOL0     C27030   8.637   1.397   2.326  0.0145  0.9766  0.3052
  201MOL0     O27031   8.583   1.343   2.216  0.2729 -0.2897 -0.1232
  201MOL0     C27032   8.535   1.213   2.210 -0.4045 -0.3049  0.3743
  201MOL0     C27033   8.591   1.098   2.253 -0.7316  0.4461 -0.0425
  201MOL0     C27034   8.534   0.973   2.217  0.5570  0.1157  0.6238
  201MOL0     C27035   8.417   0.958   2.138  0.5206 -0.7235  0.8053
  201MOL0     O27036   8.380   0.833   2.097 -0.4229  0.5040  0.3687
  201MOL0     C27037   8.303   0.816   1.975 -0.3670  0.5970 -0.1715
  201MOL0     C27038   8.385   0.862   1.854  0.5911  0.6931  0.1456
  201MOL0     C27039   8.293   0.849   1.729  0.3506  1.1986 -0.2651
  201MOL0     C27040   8.377   0.888   1.610 -0.7422 -0.4907  0.1735
  201MOL0     C27041   8.289   0.897   1.493  0.3727 -0.3710  0.0656
  201MOL0     C27042   8.374   0.917   1.368 -0.0973  0.4822 -0.1592
  201MOL0     C27043   8.289   0.898   1.245 -1.0245 -0.1907  0.1599
  201MOL0     C27044   8.312   1.005   1.138 -0.9397 -0.7797 -0.0476
  201MOL0    Cl27045   8.301   0.933   0.973  0.1628 -0.1210 -0.0934
  201MOL0     C27046   8.364   1.085   2.091  0.0129 -0.3027  0.0050
  201MOL0     C27047   8.419   1.206   2.133 -0.1069 -0.3501 -0.1027
  201MOL0     O27048   8.658   1.336   2.430 -0.7443  0.9310  0.2043
  201MOL0     C27049   8.584   1.604   2.201  0.3572 -0.6482 -0.4133
  201MOL0     C27050   8.596   1.746   2.179  0.2479  1.2765 -0.0653
  201MOL0     N27051   8.415   1.875   1.750  0.4028  0.3616  1.2961
  201MOL0     N27052   8.376   1.781   1.671 -0.3705  0.3652 -0.9483
  201MOL0     C27053   8.877   2.343   1.522  0.2676 -0.7322  0.4313
  201MOL0     C27054   8.938   2.421   1.630 -0.7706  0.1138  1.6443
  201MOL0     C27055   9.064   2.530   2.062  0.2275 -0.0416 -0.4790
  201MOL0     C27056   9.203   2.557   2.065  0.5911  0.6708  0.3775
  201MOL0     C27057   9.262   2.642   2.164  1.0551 -0.9764  0.9330
  201MOL0     C27058   9.180   2.710   2.262  0.7004 -0.7391 -0.2843
  201MOL0     O27059   9.227   2.796   2.361 -0.4214  0.6473  0.2356
  201MOL0     C27060   9.363   2.837   2.349 -0.0930  0.3453 -0.0478
  201MOL0     C27061   9.464   2.756   2.441  0.6015 -0.5544 -0.5590
  201MOL0     C27062   9.391   2.712   2.571  0.3725  0.2405  0.3995
  201MOL0     C27063   9.334   2.819   2.659 -0.0189 -0.0607  0.3083
  201MOL0     C27064   9.285   2.767   2.782 -0.3427 -0.1087 -0.2445
  201MOL0     C27065   9.239   2.707   2.877  0.0308  0.4274  0.3194
  201MOL0     C27066   9.043   2.674   2.260  1.0518 -0.2547  0.2423
  201MOL0     C27067   8.982   2.592   2.163 -0.4077 -0.4459 -0.7870
  201MOL0     H27068   9.037   2.179   1.828 -2.7621 -1.3317  0.2320
  201MOL0     H27069   8.936   2.045   1.646  2.9625  0.3738  3.1561
  201MOL0     H27070   8.867   2.226   1.267 -0.0877 -0.5396  1.4745
  201MOL0     H27071   8.821   2.070   1.235 -0.7153 -0.6640  1.5101
  201MOL0     H27072   8.655   2.300   1.346  1.0804  0.3359  0.1810
  201MOL0     H27073   8.645   2.254   1.178 -0.3012  0.0282 -0.5693
  201MOL0     H27074   8.566   2.098   1.426 -0.9917  1.4755  0.1255
  201MOL0     H27075   8.450   2.170   1.317  1.7179  4.1419  1.9533
  201MOL0     H27076   8.545   2.007   1.132 -3.8916 -0.8843 -0.0441
  201MOL0     H27077   8.629   1.935   1.281 -0.3304  0.9523  2.7795
  201MOL0     H27078   8.374   1.937   1.361 -0.6287 -0.1399 -1.0839
  201MOL0     H27079   8.326   1.961   1.195  1.2413 -0.4681 -2.0892
  201MOL0     H27080   8.305   1.722   1.259 -0.2686  0.8527 -0.7916
  201MOL0     H27081   8.427   1.747   1.129  0.8967 -1.2199  1.1722
  201MOL0     H27082   8.511   1.587   1.276  0.2448 -0.4267  0.1914
  201MOL0     H27083   8.613   1.721   1.310  0.8808 -1.5551 -0.5234
  201MOL0     H27084   8.518   1.573   1.496  1.2770  0.2093 -2.0521
  201MOL0     H27085   8.366   1.624   1.463  0.0246  1.4874 -0.8453
  201MOL0     H27086   8.637   1.896   1.506 -0.4220  0.1527 -1.3396
  201MOL0     H27087   8.697   2.078   1.728 -0.0290 -1.9093 -1.3551
  201MOL0     H27088   8.530   2.146   1.695 -1.8331 -0.5990  0.3926
  201MOL0     H27089   8.451   2.085   1.916  0.2513  3.5001  0.8497
  201MOL0     H27090   8.581   2.201   1.923  2.6932 -0.3182  1.8970
  201MOL0     H27091   8.749   2.037   1.974 -1.1332  1.4803 -1.3349
  201MOL0     H27092   8.629   1.900   1.968 -0.8934  0.2270 -1.0428
  201MOL0     H27093   8.506   2.022   2.144 -1.0783 -1.0119 -5.1620
  201MOL0     H27094   8.620   2.146   2.151 -0.4795  0.3748  2.9215
  201MOL0     H27095   8.767   1.845   2.444  2.0810 -1.5034  0.0693
  201MOL0     H27096   8.750   1.496   2.557 -1.1312  1.0210  1.5268
  201MOL0     H27097   8.852   1.644   2.540 -0.0902  1.2472 -1.0962
  201MOL0     H27098   8.689   1.647   2.620 -1.0708 -0.3517 -0.7331
  201MOL0     H27099   8.688   1.112   2.299  0.3876 -0.4335 -2.0098
  201MOL0     H27100   8.591   0.882   2.235  3.5755  1.3128 -1.9774
  201MOL0     H27101   8.267   0.713   1.972  2.7862 -0.5841 -1.5870
  201MOL0     H27102   8.215   0.881   1.977 -0.8736 -0.0082 -1.5213
  201MOL0     H27103   8.422   0.964   1.844  6.4699 -1.0814 -0.7166
  201MOL0     H27104   8.471   0.794   1.859  0.3133  0.4143  1.3860
  201MOL0     H27105   8.193   0.892   1.742  0.0500  0.3883  0.1443
  201MOL0     H27106   8.263   0.745   1.715 -4.4024  1.9527  2.2267
  201MOL0     H27107   8.426   0.986   1.621  1.1827 -0.6838 -4.6154
  201MOL0     H27108   8.453   0.814   1.584 -0.7176  0.1462 -1.7401
  201MOL0     H27109   8.216   0.978   1.505  0.0988 -0.2938 -1.8267
  201MOL0     H27110   8.217   0.815   1.484  0.9055 -0.6709 -1.9972
  201MOL0     H27111   8.419   1.016   1.369 -0.5858  0.7378  2.2773
  201MOL0     H27112   8.457   0.846   1.363 -2.2220 -2.1644 -0.5050
  201MOL0     H27113   8.183   0.913   1.268 -1.6498  1.3322 -3.1634
  201MOL0     H27114   8.316   0.802   1.201 -2.6324 -1.1486  1.1492
  201MOL0     H27115   8.411   1.049   1.150 -1.9686  1.2513  1.5695
  201MOL0     H27116   8.237   1.085   1.141 -0.6965 -0.3555 -2.7216
  201MOL0     H27117   8.279   1.099   2.026  0.3104  0.3344 -0.2477
  201MOL0     H27118   8.374   1.293   2.084  1.4019  0.0297 -0.8685
  201MOL0     H27119   8.524   1.546   2.131 -1.6752  0.4245  0.3622
  201MOL0     H27120   8.543   1.772   2.088 -1.6277  0.5719  0.7718
  201MOL0     H27121   8.829   2.393   1.438  0.1707 -1.7251 -0.1153
  201MOL0     H27122   8.968   2.520   1.598  1.2657 -0.8657  0.3816
  201MOL0     H27123   9.259   2.520   1.979 -0.5652  0.6118 -0.3743
  201MOL0     H27124   9.370   2.651   2.157  0.9929 -1.3004 -0.9127
  201MOL0     H27125   9.390   2.845   2.243  0.4913  2.7789  0.2322
  201MOL0     H27126   9.375   2.944   2.368  3.4758  0.5235 -2.3068
  201MOL0     H27127   9.553   2.819   2.452 -0.2448  0.5679 -0.0322
  201MOL0     H27128   9.487   2.661   2.391 -1.5319 -1.9107  0.8971
  201MOL0     H27129   9.462   2.657   2.633 -2.0114 -0.4694  2.7323
  201MOL0     H27130   9.317   2.635   2.546  1.7326 -1.4995  1.4975
  201MOL0     H27131   9.243   2.853   2.609 -1.2680  0.4992  2.7808
  201MOL0     H27132   9.392   2.912   2.664 -2.4699  1.4901  2.3285
  201MOL0     H27133   9.196   2.663   2.964 -3.0744  0.4418 -1.0668
  201MOL0     H27134   8.971   2.705   2.334  3.4500 -0.3345  2.7738
  201MOL0     H27135   8.876   2.567   2.170 -0.3717 -0.2034  2.0638
  202MOL0     O27136   0.013   4.922   9.734 -0.7325 -0.2585  0.1141
  202MOL0     C27137   0.059   4.816   9.690 -0.0775  0.0966  0.2673
  202MOL0     O27138   0.165   4.799   9.617 -0.2142 -0.5430  0.1890
  202MOL0     C27139   0.255   4.891   9.571  0.0651 -0.8238  0.7385
  202MOL0     C27140   0.337   4.844   9.476  0.0968 -0.7560 -0.1045
  202MOL0     C27141   0.450   4.911   9.438  0.2521 -0.4113  0.0481
  202MOL0     C27142   0.467   5.045   9.480  0.6004  0.9816  0.9580
  202MOL0     O27143   0.560   5.127   9.418  0.4057  0.5955  0.9716
  202MOL0     C27144   0.495   5.239   9.352 -0.0132  0.1334 -0.7562
  202MOL0     C27145   0.575   5.293   9.231 -0.5204 -0.3211 -0.6930
  202MOL0     C27146   0.496   5.347   9.111 -0.3400 -0.4552  0.6453
  202MOL0     C27147   0.402   5.457   9.153 -0.3998 -0.2011 -0.1993
  202MOL0     C27148   0.326   5.508   9.032  0.1824 -0.5327  0.3811
  202MOL0     C27149   0.229   5.618   9.090 -0.2820  1.4978  0.6006
  202MOL0     C27150   0.130   5.680   8.999 -0.4305  0.8883  0.2758
  202MOL0     C27151   0.187   5.774   8.890  1.0758 -0.5145 -0.7540
  202MOL0     N27152   0.180   5.914   8.932 -0.3340 -0.8143 -0.2728
  202MOL0     C27153   0.272   5.974   9.010 -0.6880 -0.3430 -0.3986
  202MOL0     C27154   0.257   6.111   8.999 -0.0777  0.0562  0.4108
  202MOL0     C27155   0.340   6.211   9.068 -0.3032  0.3544  0.5271
  202MOL0     C27156   0.308   6.208   9.216  0.6631  0.2180  0.0653
  202MOL0     C27157   0.354   6.336   9.284 -0.9920  0.7821  0.5010
  202MOL0     C27158   0.493   6.388   9.246 -0.1964 -0.3058 -0.4502
  202MOL0     O27159   0.496   6.455   9.120 -0.1267  0.2922  0.2614
  202MOL0     C27160   0.459   6.586   9.109  1.2267 -0.7355  0.4917
  202MOL0     C27161   0.450   6.676   9.218  0.2478  0.2801  0.9256
  202MOL0     C27162   0.389   6.802   9.205  0.4757  1.4261  0.3678
  202MOL0     C27163   0.375   6.882   9.330 -0.0196  0.1228 -0.6748
  202MOL0     C27164   0.360   6.853   9.083  0.1554  0.1954  0.7640
  202MOL0     C27165   0.294   6.986   9.061 -0.2931  0.5030 -0.4742
  202MOL0     O27166   0.174   7.003   9.137 -0.1666 -0.5010  1.0016
  202MOL0     C27167   0.127   7.132   9.146  0.4480 -0.2732 -0.9432
  202MOL0     C27168  -0.003   7.178   9.131  0.4921  0.0593  0.1404
  202MOL0     C27169  -0.041   7.307   9.155 -0.0629  0.3369 -0.7499
  202MOL0     C27170   0.045   7.388   9.228 -0.7025  0.2005 -0.7398
  202MOL0     O27171   0.012   7.517   9.248  0.2449 -0.1372 -0.1365
  202MOL0     C27172   0.088   7.611   9.331  0.0453  0.8641  0.6866
  202MOL0     C27173   0.188   7.684   9.240  1.1110 -0.3353  0.8573
  202MOL0     C27174   0.118   7.803   9.151 -1.4188  0.8344 -0.3591
  202MOL0     C27175   0.163   7.947   9.180  1.0939 -0.0394  0.6959
  202MOL0     C27176   0.301   7.967   9.118  0.2331  0.2359 -0.3579
  202MOL0     C27177   0.360   8.100   9.148  0.0287 -1.0002  1.1605
  202MOL0     C27178   0.498   8.127   9.073 -0.3537  0.6601  0.3562
  202MOL0     C27179   0.549   8.274   9.066 -0.4658 -0.5011 -0.1621
  202MOL0    Cl27180   0.633   8.321   9.218  0.1043  0.2529 -0.0654
  202MOL0     C27181   0.173   7.340   9.254  0.0329 -0.0888  0.3007
  202MOL0     C27182   0.217   7.217   9.204  0.3125 -0.2220  0.3892
  202MOL0     O27183   0.337   7.055   8.975 -0.7079 -0.7702  0.3919
  202MOL0     C27184   0.377   6.769   8.968 -0.1896 -1.3658 -0.8713
  202MOL0     C27185   0.425   6.639   8.982  1.1553 -0.0199 -0.6692
  202MOL0     N27186   0.160   6.129   8.902 -0.4316 -0.7033  0.3174
  202MOL0     N27187   0.118   6.011   8.863  0.8433  0.0419  0.4435
  202MOL0     C27188   0.390   5.088   9.592 -0.1416 -0.5325  0.2387
  202MOL0     C27189   0.282   5.011   9.640  0.9933  0.2231  0.2964
  202MOL0     C27190  -0.018   4.695   9.695 -0.5231 -0.0564 -0.7955
  202MOL0     C27191  -0.068   4.635   9.578  0.1396 -0.4634 -0.3306
  202MOL0     C27192  -0.157   4.533   9.593 -0.4681  0.4167  0.3676
  202MOL0     C27193  -0.214   4.495   9.720  0.0282  0.1841  0.2616
  202MOL0     O27194  -0.311   4.393   9.735 -0.1788  0.7337 -0.9123
  202MOL0     C27195  -0.364   4.329   9.620 -0.2869 -0.1579  0.1654
  202MOL0     C27196  -0.501   4.278   9.648 -0.0385  0.5570 -0.8294
  202MOL0     C27197  -0.560   4.228   9.523  0.1607  0.6108 -0.0977
  202MOL0     C27198  -0.684   4.319   9.479  0.1932 -0.3511 -0.4514
  202MOL0     C27199  -0.707   4.312   9.341  0.6562 -0.5557  0.4052
  202MOL0     C27200  -0.732   4.300   9.219 -0.6151 -0.0992 -0.1357
  202MOL0     C27201  -0.151   4.548   9.834  1.0867 -0.7440  0.5736
  202MOL0     C27202  -0.050   4.641   9.824  0.0733 -0.2428 -0.3009
  202MOL0     H27203   0.317   4.741   9.447 -1.4427  0.0291 -2.0891
  202MOL0     H27204   0.508   4.866   9.358  0.1545 -0.5191  0.0383
  202MOL0     H27205   0.396   5.209   9.316  0.9341 -2.9502 -1.0461
  202MOL0     H27206   0.484   5.317   9.428 -0.7912 -1.4343  0.8220
  202MOL0     H27207   0.616   5.386   9.273 -1.1874 -0.1043 -0.5042
  202MOL0     H27208   0.648   5.217   9.203 -3.3807 -2.3847 -3.1919
  202MOL0     H27209   0.555   5.374   9.022  0.6498  1.4647  1.8184
  202MOL0     H27210   0.434   5.262   9.081  0.7372 -0.6512 -1.1987
  202MOL0     H27211   0.327   5.430   9.228 -3.4128  1.1190 -2.5434
  202MOL0     H27212   0.459   5.536   9.203 -2.5769  2.0465 -1.0750
  202MOL0     H27213   0.390   5.547   8.952  0.2112 -0.5244  0.4078
  202MOL0     H27214   0.255   5.434   8.993  1.3121 -1.1681 -0.5268
  202MOL0     H27215   0.156   5.577   9.161 -0.4581  1.4206  0.3767
  202MOL0     H27216   0.287   5.691   9.147  3.6236  0.5855 -1.8497
  202MOL0     H27217   0.085   5.592   8.952 -1.5120 -0.7023  3.9646
  202MOL0     H27218   0.059   5.730   9.066  0.8309  3.1855 -0.0004
  202MOL0     H27219   0.136   5.756   8.795  0.7242  1.6696 -1.0326
  202MOL0     H27220   0.293   5.758   8.867  1.6263  0.6147  0.8458
  202MOL0     H27221   0.339   5.917   9.073 -0.9876  1.2490  1.4586
  202MOL0     H27222   0.446   6.193   9.046 -0.6830 -2.7932  0.7164
  202MOL0     H27223   0.318   6.309   9.025  2.5608 -0.1514 -2.4492
  202MOL0     H27224   0.353   6.122   9.268 -1.4881  0.6098  2.7548
  202MOL0     H27225   0.202   6.187   9.234  0.6457 -0.5052 -0.7732
  202MOL0     H27226   0.350   6.319   9.392 -1.0970  3.4764  0.9838
  202MOL0     H27227   0.287   6.416   9.250  0.5235  1.5005 -0.9126
  202MOL0     H27228   0.562   6.304   9.254 -0.4163 -0.3860  0.9968
  202MOL0     H27229   0.526   6.460   9.322 -0.2409  0.3965 -1.0887
  202MOL0     H27230   0.487   6.650   9.317 -0.7772  0.3915  1.3433
  202MOL0     H27231   0.386   6.990   9.315 -1.9028  0.1045 -2.7044
  202MOL0     H27232   0.276   6.859   9.373  0.4319 -1.1507 -0.2673
  202MOL0     H27233   0.440   6.849   9.411 -0.2193 -1.2706 -1.0538
  202MOL0     H27234  -0.067   7.106   9.082 -0.2456  0.5975  0.3076
  202MOL0     H27235  -0.139   7.338   9.121 -1.0303 -1.8050 -0.1304
  202MOL0     H27236   0.021   7.685   9.377 -2.7469  1.9015 -4.3434
  202MOL0     H27237   0.142   7.562   9.412 -0.9296 -2.7231 -0.6346
  202MOL0     H27238   0.250   7.745   9.306  0.0158  0.0453  1.5649
  202MOL0     H27239   0.235   7.611   9.173 -1.7727  1.2810 -3.4186
  202MOL0     H27240   0.009   7.803   9.163 -1.5180  1.0420 -1.1461
  202MOL0     H27241   0.140   7.782   9.046  0.0946  1.3539 -0.1670
  202MOL0     H27242   0.088   8.015   9.139  0.1172 -0.1617  2.1982
  202MOL0     H27243   0.167   7.971   9.286  3.8298  0.1433  0.6247
  202MOL0     H27244   0.302   7.943   9.012  1.6507  0.1791 -0.3461
  202MOL0     H27245   0.380   7.904   9.160  0.2245  0.6951  0.3718
  202MOL0     H27246   0.289   8.178   9.119  1.0371 -1.0070 -1.5524
  202MOL0     H27247   0.378   8.113   9.255  0.3881 -0.1052  1.0013
  202MOL0     H27248   0.497   8.095   8.968  1.5338 -2.0563  1.0620
  202MOL0     H27249   0.573   8.067   9.125  2.0787  2.6547 -0.6661
  202MOL0     H27250   0.469   8.340   9.032  0.3310  0.6801  0.1674
  202MOL0     H27251   0.618   8.292   8.983 -1.3216 -2.3067 -1.3173
  202MOL0     H27252   0.239   7.409   9.307  0.7147  1.4234 -2.3610
  202MOL0     H27253   0.320   7.182   9.210  0.7194  1.0096  0.8272
  202MOL0     H27254   0.369   6.806   8.866 -1.0778 -2.1473 -1.0994
  202MOL0     H27255   0.428   6.582   8.890  1.9877 -0.7092 -0.2349
  202MOL0     H27256   0.413   5.186   9.632  1.4752  0.3476 -2.6127
  202MOL0     H27257   0.228   5.063   9.718 -1.4295  2.8342 -2.8489
  202MOL0     H27258  -0.037   4.671   9.480  3.0131 -2.3701 -0.2363
  202MOL0     H27259  -0.194   4.467   9.516 -0.6931 -1.8464  2.3197
  202MOL0     H27260  -0.380   4.406   9.544 -2.9086 -1.0862 -0.3214
  202MOL0     H27261  -0.293   4.255   9.583  2.4042  2.4709 -0.3129
  202MOL0     H27262  -0.567   4.356   9.688 -2.8035 -1.9068 -0.2250
  202MOL0     H27263  -0.491   4.195   9.719 -0.5211 -0.6815 -2.1600
  202MOL0     H27264  -0.602   4.129   9.545  0.1957  0.3895 -1.0254
  202MOL0     H27265  -0.495   4.216   9.437  1.5929 -1.6356  1.1899
  202MOL0     H27266  -0.673   4.425   9.500 -0.3144  0.6315 -4.3430
  202MOL0     H27267  -0.778   4.281   9.521 -0.2898  1.3675  0.0831
  202MOL0     H27268  -0.737   4.317   9.113 -0.5604  2.1489  0.1711
  202MOL0     H27269  -0.176   4.514   9.935 -0.2028 -2.7192 -0.3514
  202MOL0     H27270  -0.014   4.688   9.915  3.1078 -1.9617 -0.4762
  203MOL0     O27271   8.479   2.449   0.529 -0.1261 -0.1333 -0.5672
  203MOL0     C27272   8.409   2.445   0.429  0.1397 -0.6846 -0.9151
  203MOL0     O27273   8.386   2.547   0.328 -0.1143 -0.7912 -0.3498
  203MOL0     C27274   8.412   2.684   0.364  0.2876 -0.5360  0.1273
  203MOL0     C27275   8.358   2.733   0.487  1.0417  0.0174  0.3193
  203MOL0     C27276   8.342   2.870   0.500 -0.6839  1.2310 -0.6311
  203MOL0     C27277   8.389   2.956   0.408  0.2487  0.0582  1.4402
  203MOL0     O27278   8.357   3.090   0.405  0.1422  0.3299 -0.1754
  203MOL0     C27279   8.334   3.159   0.533  0.8784  0.0620 -0.2090
  203MOL0     C27280   8.329   3.319   0.504 -0.3855  0.3958 -0.4182
  203MOL0     C27281   8.254   3.390   0.611  1.0860  0.0390 -1.3675
  203MOL0     C27282   8.282   3.541   0.619  0.7254 -0.7512 -1.5706
  203MOL0     C27283   8.161   3.623   0.679 -0.1049 -0.3888 -0.1829
  203MOL0     C27284   8.209   3.768   0.685 -0.3825 -1.0363  0.0812
  203MOL0     C27285   8.121   3.878   0.741 -1.1141  0.7148  0.4279
  203MOL0     C27286   8.138   3.865   0.897  0.3378  0.6033 -0.0295
  203MOL0     N27287   8.066   3.967   0.969 -0.8530 -0.3365 -0.1500
  203MOL0     C27288   7.930   3.995   0.963 -0.0387 -0.3394 -0.5357
  203MOL0     C27289   7.919   4.097   1.057  0.0207  0.3143  0.4857
  203MOL0     C27290   7.801   4.184   1.098 -0.3183 -0.9692 -0.2820
  203MOL0     C27291   7.804   4.313   0.995  0.2106  1.0035 -0.2432
  203MOL0     C27292   7.671   4.389   1.006  0.4243 -0.2075 -0.3561
  203MOL0     C27293   7.683   4.529   0.940  0.2518 -0.0445 -0.5609
  203MOL0     O27294   7.561   4.600   0.946  0.5902  0.4997  0.4292
  203MOL0     C27295   7.568   4.723   1.004 -0.6393  0.1723 -0.3801
  203MOL0     C27296   7.496   4.746   1.122  0.0910 -0.8634 -0.0228
  203MOL0     C27297   7.503   4.870   1.181  0.5801 -0.9050  0.1796
  203MOL0     C27298   7.402   4.893   1.299  0.9711 -0.1211 -0.2973
  203MOL0     C27299   7.580   4.982   1.124  0.6507  0.2641  0.0850
  203MOL0     C27300   7.592   5.118   1.191  0.0411 -0.7857 -0.4004
  203MOL0     O27301   7.644   5.222   1.115 -0.4182  0.0650 -0.5672
  203MOL0     C27302   7.601   5.350   1.154  0.7083  0.3320  0.6456
  203MOL0     C27303   7.654   5.419   1.264 -0.3254  0.0221 -0.1468
  203MOL0     C27304   7.640   5.556   1.274  0.4581 -0.0051 -0.1028
  203MOL0     C27305   7.553   5.631   1.183 -0.0094 -0.3678 -0.3888
  203MOL0     O27306   7.543   5.768   1.189 -0.8657  0.2085  0.1399
  203MOL0     C27307   7.507   5.850   1.077  0.7027  0.3928  1.1389
  203MOL0     C27308   7.480   5.986   1.143  0.5998  0.0277  0.2749
  203MOL0     C27309   7.338   5.999   1.192  0.1219  0.4931 -0.1274
  203MOL0     C27310   7.330   6.112   1.298 -0.4031  0.6796  0.7128
  203MOL0     C27311   7.212   6.201   1.262  0.7954 -0.1782  0.1837
  203MOL0     C27312   7.159   6.262   1.387 -2.0926  0.3821 -0.4105
  203MOL0     C27313   7.275   6.354   1.446 -0.2410 -0.1124  0.5280
  203MOL0     C27314   7.218   6.462   1.535  0.2137 -0.5346 -0.2053
  203MOL0    Cl27315   7.212   6.383   1.699  0.3925 -0.5626 -0.5379
  203MOL0     C27316   7.490   5.555   1.083  0.2907 -0.3440  0.2958
  203MOL0     C27317   7.513   5.420   1.063 -0.6361 -0.4197 -0.0442
  203MOL0     O27318   7.555   5.126   1.305  0.4100  0.0602 -0.0333
  203MOL0     C27319   7.652   4.962   0.998  0.7116  0.7534 -0.7678
  203MOL0     C27320   7.642   4.829   0.945 -0.5420 -0.2540  0.3861
  203MOL0     N27321   8.037   4.108   1.134  0.2870  0.2873 -0.0736
  203MOL0     N27322   8.115   4.016   1.087  0.2754 -0.0275 -0.0114
  203MOL0     C27323   8.454   2.909   0.287  0.8208  0.2881 -0.8365
  203MOL0     C27324   8.465   2.771   0.268 -0.2586 -0.4402 -0.6863
  203MOL0     C27325   8.370   2.307   0.389  0.6581 -0.1564  0.8644
  203MOL0     C27326   8.286   2.283   0.273  0.3885  0.4666 -0.1146
  203MOL0     C27327   8.230   2.156   0.242  0.2754  0.1060  0.9333
  203MOL0     C27328   8.269   2.045   0.327  0.2577  0.7290  0.1112
  203MOL0     O27329   8.238   1.910   0.307 -0.1745  0.4524 -0.3337
  203MOL0     C27330   8.188   1.874   0.181  0.4156  0.3873  0.1204
  203MOL0     C27331   8.036   1.908   0.166 -0.2065 -0.9437  0.2328
  203MOL0     C27332   7.943   1.795   0.120 -1.3639 -0.2114  0.0244
  203MOL0     C27333   7.793   1.806   0.134 -0.5079  0.5983  0.6692
  203MOL0     C27334   7.734   1.918   0.060  0.1858  1.2549 -0.0534
  203MOL0     C27335   7.689   2.018   0.015 -0.3853  0.0943  0.1176
  203MOL0     C27336   8.349   2.069   0.439 -0.3125 -0.8145  0.5495
  203MOL0     C27337   8.396   2.195   0.463 -0.1610  1.0885  0.2784
  203MOL0     H27338   8.308   2.659   0.549 -1.7589  1.0190 -0.5809
  203MOL0     H27339   8.281   2.902   0.584 -1.8047 -0.8707 -0.5860
  203MOL0     H27340   8.242   3.121   0.578  0.2335  1.0027 -0.6956
  203MOL0     H27341   8.419   3.143   0.600  1.7995  0.8245 -1.1427
  203MOL0     H27342   8.432   3.354   0.495 -0.5406  1.2644  0.9168
  203MOL0     H27343   8.277   3.328   0.408 -1.9223 -0.9446  0.2351
  203MOL0     H27344   8.150   3.383   0.581  0.5211  1.9747 -0.0485
  203MOL0     H27345   8.261   3.339   0.708  1.7870 -0.1864 -1.5255
  203MOL0     H27346   8.369   3.556   0.685 -2.4937 -2.8695  3.7973
  203MOL0     H27347   8.303   3.577   0.518  2.6754 -0.7339 -1.2109
  203MOL0     H27348   8.079   3.626   0.606 -0.1664  3.5674 -0.1586
  203MOL0     H27349   8.120   3.590   0.775 -0.6220  3.8155  1.2514
  203MOL0     H27350   8.303   3.764   0.742 -1.0514 -3.6665  1.1544
  203MOL0     H27351   8.237   3.787   0.581 -2.1415  1.3568 -0.0348
  203MOL0     H27352   8.167   3.975   0.719  0.3539 -0.1627 -0.6119
  203MOL0     H27353   8.016   3.867   0.714 -0.9088 -1.3939  0.2861
  203MOL0     H27354   8.242   3.868   0.930  0.3237 -1.1000  0.2958
  203MOL0     H27355   8.092   3.769   0.924 -0.0553  0.3900 -1.3887
  203MOL0     H27356   7.854   3.956   0.896 -1.4935  1.5061 -0.0351
  203MOL0     H27357   7.712   4.124   1.078 -1.8494  0.6383  1.3910
  203MOL0     H27358   7.797   4.204   1.206  0.7792 -0.3963 -0.3307
  203MOL0     H27359   7.818   4.273   0.894  1.8789 -2.1974  1.0850
  203MOL0     H27360   7.887   4.379   1.025  0.1524  1.5036 -1.1610
  203MOL0     H27361   7.640   4.406   1.109 -1.5754 -1.7455 -0.6361
  203MOL0     H27362   7.602   4.324   0.951  1.8383 -1.3207 -0.8666
  203MOL0     H27363   7.727   4.520   0.840 -1.3157  0.7304 -1.3490
  203MOL0     H27364   7.768   4.576   0.991 -0.3147 -1.1037  1.4535
  203MOL0     H27365   7.442   4.657   1.151  3.1294 -3.1603 -0.8481
  203MOL0     H27366   7.322   4.964   1.280  1.0771  0.0047 -0.2736
  203MOL0     H27367   7.342   4.803   1.314  1.1662  0.1812  2.9444
  203MOL0     H27368   7.452   4.930   1.389 -1.9705  1.4866  0.7836
  203MOL0     H27369   7.707   5.360   1.340  0.6512  1.2598  0.1732
  203MOL0     H27370   7.674   5.610   1.362 -1.0741  1.4436 -0.3403
  203MOL0     H27371   7.591   5.849   1.007 -1.1730 -0.9452 -1.2566
  203MOL0     H27372   7.418   5.823   1.019  0.7834  2.1005  0.1652
  203MOL0     H27373   7.537   5.992   1.236 -3.2867 -2.1839  3.1005
  203MOL0     H27374   7.490   6.065   1.068 -3.0407 -1.3175 -1.8995
  203MOL0     H27375   7.320   5.899   1.230  3.5137 -0.1901 -0.0327
  203MOL0     H27376   7.273   6.016   1.105  0.0999 -1.1906 -0.4739
  203MOL0     H27377   7.307   6.070   1.397 -0.2219  1.9946  1.3227
  203MOL0     H27378   7.423   6.169   1.306  0.9945 -0.6672 -3.2318
  203MOL0     H27379   7.127   6.141   1.228 -2.0649  3.6394 -0.0310
  203MOL0     H27380   7.219   6.281   1.187 -0.0343 -1.2618 -1.1063
  203MOL0     H27381   7.068   6.321   1.374 -0.7972  2.3015 -1.1844
  203MOL0     H27382   7.143   6.179   1.456  3.2586 -1.0155 -0.4287
  203MOL0     H27383   7.334   6.399   1.365  0.1051  1.7489  1.7603
  203MOL0     H27384   7.353   6.303   1.504 -1.5109 -0.0353  2.3844
  203MOL0     H27385   7.118   6.489   1.498 -0.3223 -3.3336 -1.0604
  203MOL0     H27386   7.281   6.550   1.553 -2.5532  1.2662  1.4746
  203MOL0     H27387   7.438   5.608   1.004  3.3199  2.4020 -0.0791
  203MOL0     H27388   7.471   5.366   0.978  1.8691  1.4422 -2.6501
  203MOL0     H27389   7.704   5.042   0.946  2.4908  0.3387  0.2731
  203MOL0     H27390   7.680   4.799   0.848 -0.4087  2.0995 -0.3469
  203MOL0     H27391   8.491   2.986   0.220  1.2724  0.7087 -0.1196
  203MOL0     H27392   8.512   2.752   0.171 -1.2908  0.1753 -1.3176
  203MOL0     H27393   8.251   2.361   0.207 -0.6002  0.4084  0.3292
  203MOL0     H27394   8.163   2.146   0.157 -2.0975  0.6431  2.6201
  203MOL0     H27395   8.241   1.924   0.100 -1.3552  0.9906 -0.7071
  203MOL0     H27396   8.199   1.766   0.165 -0.1496  0.2161  0.8345
  203MOL0     H27397   8.030   1.993   0.097 -2.8708 -2.3161 -1.3957
  203MOL0     H27398   8.002   1.945   0.263 -1.1917 -0.7558 -0.1766
  203MOL0     H27399   7.955   1.701   0.174  0.3372 -1.1995 -1.9030
  203MOL0     H27400   7.975   1.761   0.021 -1.9282  1.3782 -0.7262
  203MOL0     H27401   7.776   1.816   0.241 -2.4580 -2.6834  0.7980
  203MOL0     H27402   7.749   1.710   0.106 -0.7070  0.8681  0.0355
  203MOL0     H27403   7.660   2.117  -0.015 -1.0487  0.2848  1.3069
  203MOL0     H27404   8.388   1.989   0.501 -0.3827  1.1358  3.3010
  203MOL0     H27405   8.457   2.186   0.553 -1.4698 -2.0184  0.9921
  204MOL0     O27406   3.666   6.678   0.858  0.0756 -0.1045  0.5761
  204MOL0     C27407   3.741   6.622   0.784 -0.2614 -1.0873 -0.2477
  204MOL0     O27408   3.869   6.655   0.779  0.1419  0.0432 -0.1546
  204MOL0     C27409   3.929   6.778   0.821  0.6343 -0.1703  0.5194
  204MOL0     C27410   4.061   6.764   0.837 -0.2702  0.6283 -0.2608
  204MOL0     C27411   4.138   6.868   0.887  0.4392 -0.3128  1.0624
  204MOL0     C27412   4.086   6.997   0.905  0.3106  1.1328  1.2252
  204MOL0     O27413   4.152   7.114   0.934 -0.3627 -0.0432  0.8393
  204MOL0     C27414   4.299   7.099   0.944  0.6321  0.4084 -1.1707
  204MOL0     C27415   4.372   7.237   0.973 -0.4205  0.5401 -0.2650
  204MOL0     C27416   4.525   7.212   0.964  0.6664  0.5167  0.6789
  204MOL0     C27417   4.567   7.101   1.064  0.4710  0.1961 -0.5296
  204MOL0     C27418   4.717   7.084   1.078 -0.9460  0.7723 -0.3382
  204MOL0     C27419   4.756   6.975   1.180 -0.6619 -0.6058 -0.8233
  204MOL0     C27420   4.913   6.962   1.191 -0.3415  0.0798  0.1042
  204MOL0     C27421   4.990   6.924   1.057  0.4782  1.3469 -0.1363
  204MOL0     N27422   5.115   6.875   1.093 -0.7784  0.3537 -0.7780
  204MOL0     C27423   5.166   6.760   1.051 -0.1738  0.2641  0.1466
  204MOL0     C27424   5.275   6.730   1.123 -0.0223 -0.7533  0.1330
  204MOL0     C27425   5.357   6.609   1.125 -0.1955  0.1815  1.3410
  204MOL0     C27426   5.489   6.640   1.061  0.5995 -0.1162 -0.8922
  204MOL0     C27427   5.562   6.519   1.034 -0.7704 -0.4106 -0.0456
  204MOL0     C27428   5.704   6.572   0.977  0.4182  0.7493  0.5941
  204MOL0     O27429   5.789   6.455   0.959  0.0833  0.1570 -0.3612
  204MOL0     C27430   5.907   6.463   0.880  0.5281 -1.4945  0.0400
  204MOL0     C27431   5.956   6.585   0.817 -0.8445 -0.6510 -0.6235
  204MOL0     C27432   6.079   6.585   0.755  1.1544  0.3123  0.9224
  204MOL0     C27433   6.117   6.709   0.680  0.1204 -0.1427  0.3134
  204MOL0     C27434   6.157   6.463   0.746 -0.2130 -0.1873  0.1849
  204MOL0     C27435   6.288   6.456   0.679  0.1552 -1.0668  0.5457
  204MOL0     O27436   6.331   6.333   0.628  0.2117 -0.3784 -0.3103
  204MOL0     C27437   6.444   6.344   0.538  0.0187  0.0045 -0.7944
  204MOL0     C27438   6.446   6.425   0.424  0.3878  0.1432 -0.3812
  204MOL0     C27439   6.556   6.429   0.340  1.1893  0.2764  0.2416
  204MOL0     C27440   6.667   6.355   0.385 -0.8126  0.6620  0.4759
  204MOL0     O27441   6.783   6.346   0.310  0.3095 -0.1203  0.6720
  204MOL0     C27442   6.778   6.351   0.168 -0.3061  1.0113 -0.6306
  204MOL0     C27443   6.922   6.347   0.127 -0.4584 -0.2696  0.5651
  204MOL0     C27444   6.943   6.376  -0.020  0.4045 -0.6472  0.2276
  204MOL0     C27445   7.071   6.309  -0.070  0.5059 -0.2228  0.3602
  204MOL0     C27446   7.141   6.395  -0.176  0.3439  0.2285 -0.3861
  204MOL0     C27447   7.251   6.305  -0.248 -0.1804  0.2530 -0.1606
  204MOL0     C27448   7.330   6.391  -0.345 -0.5454  0.0783  0.0249
  204MOL0     C27449   7.358   6.315  -0.472 -0.4731 -0.6416  0.5628
  204MOL0    Cl27450   7.463   6.174  -0.425  0.4169 -0.3980  0.2927
  204MOL0     C27451   6.654   6.261   0.486  0.0085 -0.0487 -0.8886
  204MOL0     C27452   6.546   6.258   0.566  0.2095 -0.6095 -0.2644
  204MOL0     O27453   6.358   6.557   0.693  0.6000 -0.2993  0.2590
  204MOL0     C27454   6.102   6.343   0.805  0.8529  0.2777 -0.4683
  204MOL0     C27455   5.979   6.346   0.874  0.0027  0.2454 -0.2572
  204MOL0     N27456   5.303   6.841   1.198  0.1986  1.0572 -0.0477
  204MOL0     N27457   5.205   6.927   1.177  0.4922 -0.0772  0.2528
  204MOL0     C27458   3.946   7.005   0.898  0.5831  0.7533  0.4557
  204MOL0     C27459   3.869   6.902   0.850  0.0549  0.1079  0.9614
  204MOL0     C27460   3.676   6.534   0.686 -0.6677 -0.6329  0.6375
  204MOL0     C27461   3.535   6.508   0.684  0.2226  1.0357  0.6285
  204MOL0     C27462   3.482   6.396   0.610  0.4498 -0.7335 -0.4646
  204MOL0     C27463   3.562   6.334   0.511 -0.0509 -1.3832 -0.7326
  204MOL0     O27464   3.497   6.260   0.410 -0.6926  0.7690  0.6460
  204MOL0     C27465   3.551   6.270   0.276 -1.0004  0.2801  0.2940
  204MOL0     C27466   3.515   6.407   0.222 -0.2439 -0.5012 -0.2955
  204MOL0     C27467   3.538   6.403   0.065 -0.4316  0.3823  0.2587
  204MOL0     C27468   3.683   6.433   0.023 -0.2635  0.3709  0.1365
  204MOL0     C27469   3.701   6.401  -0.118 -0.0880  0.1138  0.7494
  204MOL0     C27470   3.693   6.386  -0.237  0.0087 -0.0709 -0.3960
  204MOL0     C27471   3.696   6.353   0.513 -0.0873 -1.2543 -0.3122
  204MOL0     C27472   3.757   6.443   0.597  0.2379  0.0177 -0.0189
  204MOL0     H27473   4.098   6.664   0.818 -0.3851  0.4463  0.4528
  204MOL0     H27474   4.245   6.853   0.876  0.4220  0.5788 -0.7212
  204MOL0     H27475   4.297   7.025   1.024  0.4507  1.3846 -0.2495
  204MOL0     H27476   4.335   7.065   0.846 -1.5570  1.0323 -2.2463
  204MOL0     H27477   4.332   7.307   0.899  2.4890 -0.1468 -2.6582
  204MOL0     H27478   4.351   7.280   1.072 -0.6512 -0.7301  0.2579
  204MOL0     H27479   4.551   7.184   0.862 -2.0168 -1.7435  0.4936
  204MOL0     H27480   4.568   7.309   0.990  0.5362 -0.0796  3.4353
  204MOL0     H27481   4.536   7.124   1.166  2.5520 -3.2140  1.0967
  204MOL0     H27482   4.517   7.007   1.040 -1.4781  1.7816 -3.1767
  204MOL0     H27483   4.760   7.042   0.987  0.0338 -0.7097  0.7707
  204MOL0     H27484   4.777   7.171   1.106  1.6820 -1.8404  2.9967
  204MOL0     H27485   4.722   6.999   1.282  0.0993 -1.5179 -0.3469
  204MOL0     H27486   4.710   6.879   1.155  2.1177 -2.4150  0.4668
  204MOL0     H27487   4.954   7.058   1.224  2.5410 -0.7173 -0.8779
  204MOL0     H27488   4.930   6.884   1.266 -1.2372 -0.8624 -0.6505
  204MOL0     H27489   5.003   7.016   1.000 -0.6268  2.1133  0.8146
  204MOL0     H27490   4.946   6.852   0.987  0.4744  1.6733 -0.4754
  204MOL0     H27491   5.121   6.692   0.979 -0.7401 -0.4963  1.1920
  204MOL0     H27492   5.368   6.563   1.223  1.4258  1.2355  1.7035
  204MOL0     H27493   5.300   6.536   1.067  1.1183 -0.8508  1.3198
  204MOL0     H27494   5.551   6.702   1.126 -0.2669  2.2242 -2.1858
  204MOL0     H27495   5.472   6.688   0.964  1.2069  1.4515 -0.2388
  204MOL0     H27496   5.515   6.452   0.962  1.7327 -1.6065 -0.7116
  204MOL0     H27497   5.570   6.463   1.127 -2.0678 -2.0169 -0.8527
  204MOL0     H27498   5.758   6.649   1.034  2.9712  1.7265 -2.7502
  204MOL0     H27499   5.681   6.611   0.877 -1.0755  0.0392  0.6530
  204MOL0     H27500   5.887   6.669   0.808 -3.1898 -2.2452  1.1480
  204MOL0     H27501   6.031   6.776   0.668  1.5893  1.6508 -0.8812
  204MOL0     H27502   6.202   6.756   0.731  0.7825 -1.1995  0.2174
  204MOL0     H27503   6.139   6.688   0.575 -2.2451  0.7428 -0.4322
  204MOL0     H27504   6.350   6.473   0.403  0.3527 -0.3054 -1.2873
  204MOL0     H27505   6.548   6.495   0.254 -1.0014  2.1806  1.7700
  204MOL0     H27506   6.728   6.261   0.130  3.2555 -1.8299  0.7715
  204MOL0     H27507   6.726   6.446   0.151 -1.2941  0.4483 -0.8639
  204MOL0     H27508   6.985   6.421   0.176  0.1091  0.2800 -0.9314
  204MOL0     H27509   6.952   6.246   0.156  2.4139 -0.1532 -1.5817
  204MOL0     H27510   6.948   6.484  -0.038  0.4356 -0.9588 -1.8968
  204MOL0     H27511   6.856   6.328  -0.065  0.7463 -0.5088 -0.6022
  204MOL0     H27512   7.146   6.285   0.006  0.8007  0.2520  0.2194
  204MOL0     H27513   7.034   6.213  -0.108  0.2931  0.4766 -1.2556
  204MOL0     H27514   7.193   6.476  -0.124  0.0927  0.1285  0.0331
  204MOL0     H27515   7.071   6.427  -0.254 -1.3306  0.3291  1.0918
  204MOL0     H27516   7.316   6.255  -0.176  2.3194  3.0918 -0.2535
  204MOL0     H27517   7.199   6.222  -0.296 -0.2162 -1.0960  2.0597
  204MOL0     H27518   7.417   6.437  -0.298  0.6106 -2.3868  0.4102
  204MOL0     H27519   7.271   6.473  -0.389 -2.2167 -0.5672  0.9629
  204MOL0     H27520   7.406   6.385  -0.541  1.8226  0.8325  3.4342
  204MOL0     H27521   7.269   6.278  -0.523 -1.1655  0.3351  1.0337
  204MOL0     H27522   6.730   6.190   0.514 -0.0395  0.9244  1.9856
  204MOL0     H27523   6.524   6.186   0.645  4.0038 -1.9314 -0.2303
  204MOL0     H27524   6.153   6.248   0.802  0.3610  0.0417 -2.1588
  204MOL0     H27525   5.932   6.255   0.911  4.2513 -1.7755  0.8299
  204MOL0     H27526   3.887   7.094   0.917 -0.2054  1.2136 -3.3425
  204MOL0     H27527   3.761   6.908   0.839 -0.3420 -1.5450  3.2861
  204MOL0     H27528   3.461   6.542   0.755 -0.2867 -1.1843  1.2657
  204MOL0     H27529   3.377   6.372   0.629  0.7616 -1.1441  0.8366
  204MOL0     H27530   3.660   6.270   0.268 -0.9571 -0.3313  0.8261
  204MOL0     H27531   3.524   6.194   0.202  3.1377  0.1324 -1.3319
  204MOL0     H27532   3.575   6.482   0.274  1.0872 -2.4109  1.0708
  204MOL0     H27533   3.408   6.422   0.237 -0.2212  1.3952 -1.6159
  204MOL0     H27534   3.475   6.478   0.016  1.7332  3.0020  1.2218
  204MOL0     H27535   3.521   6.304   0.023  0.3208  0.0345  0.7644
  204MOL0     H27536   3.757   6.377   0.082  2.1075  2.2573 -0.9026
  204MOL0     H27537   3.714   6.537   0.027 -0.3562  0.4478 -1.0487
  204MOL0     H27538   3.690   6.360  -0.341 -3.9754 -2.3697  0.0859
  204MOL0     H27539   3.765   6.312   0.440 -1.8939 -0.4344 -2.6115
  204MOL0     H27540   3.865   6.449   0.604  0.1591  2.5424 -0.2552
  205MOL0     O27541   5.811   3.362   7.939 -0.0694 -0.5458  0.3393
  205MOL0     C27542   5.751   3.255   7.956 -0.1897  0.0377  0.5150
  205MOL0     O27543   5.786   3.136   7.900 -0.5593 -0.4698 -1.3469
  205MOL0     C27544   5.851   3.129   7.779 -0.1100  0.1658 -0.6927
  205MOL0     C27545   5.825   3.229   7.684 -0.2065  0.5319  0.7246
  205MOL0     C27546   5.854   3.214   7.542  0.1483 -0.6099 -0.6090
  205MOL0     C27547   5.925   3.100   7.507 -0.3373  0.6584  0.0962
  205MOL0     O27548   5.953   3.078   7.377 -0.1706  0.1025  0.3370
  205MOL0     C27549   6.060   3.165   7.328  0.2334  0.1215 -0.4197
  205MOL0     C27550   6.193   3.135   7.401 -0.0340 -0.3913 -0.8046
  205MOL0     C27551   6.313   3.193   7.329  0.1642 -0.0159 -0.8364
  205MOL0     C27552   6.433   3.197   7.416  0.3225 -0.6001 -0.5673
  205MOL0     C27553   6.561   3.210   7.345  0.2944 -0.4470  0.9732
  205MOL0     C27554   6.684   3.173   7.417  0.8865 -0.5337 -0.8208
  205MOL0     C27555   6.690   3.025   7.451 -0.4637 -0.4642 -0.6712
  205MOL0     C27556   6.834   3.011   7.505 -0.9601  0.2305 -1.2158
  205MOL0     N27557   6.865   2.871   7.540 -0.1486 -0.6689  0.1888
  205MOL0     C27558   6.873   2.765   7.448 -0.3094 -0.1432  0.5924
  205MOL0     C27559   6.918   2.663   7.523 -0.2378  0.5487  0.4114
  205MOL0     C27560   6.952   2.528   7.471 -0.5793 -0.6641 -0.0941
  205MOL0     C27561   6.826   2.457   7.460  0.3805 -0.0614  0.2645
  205MOL0     C27562   6.767   2.423   7.598 -0.0541 -0.0736 -0.0596
  205MOL0     C27563   6.645   2.324   7.595 -0.3883  0.8885  0.0161
  205MOL0     O27564   6.541   2.378   7.515  0.6153 -1.1620  0.3874
  205MOL0     C27565   6.442   2.441   7.587  1.0583  0.1362  0.9892
  205MOL0     C27566   6.419   2.582   7.576 -0.2638 -0.1203  0.5730
  205MOL0     C27567   6.319   2.647   7.647  0.0974  0.5327  0.5527
  205MOL0     C27568   6.315   2.803   7.641  0.5117  0.1632  1.3408
  205MOL0     C27569   6.233   2.566   7.737  0.7902 -1.1543 -0.1946
  205MOL0     C27570   6.126   2.616   7.829  0.1626 -0.3520 -0.5242
  205MOL0     O27571   6.049   2.522   7.878  0.3364 -0.1165  0.2711
  205MOL0     C27572   5.923   2.560   7.917 -0.7286  0.1239  0.3212
  205MOL0     C27573   5.816   2.544   7.825  0.9192 -0.2766  0.3133
  205MOL0     C27574   5.684   2.571   7.864  1.2473  0.4380 -1.1895
  205MOL0     C27575   5.655   2.624   7.999 -0.2505  0.4829  0.9978
  205MOL0     O27576   5.530   2.647   8.040 -0.4144  0.4555  0.3080
  205MOL0     C27577   5.444   2.534   8.029  0.5139 -0.3390  0.4410
  205MOL0     C27578   5.316   2.576   8.092  0.1810 -0.1658  0.2587
  205MOL0     C27579   5.256   2.703   8.020  1.2289  0.0763 -0.5492
  205MOL0     C27580   5.110   2.707   8.074  0.0850 -0.4614 -0.0906
  205MOL0     C27581   5.028   2.826   8.019 -0.5584  0.4618 -1.5311
  205MOL0     C27582   4.978   2.812   7.872 -0.3181 -0.3945 -0.4518
  205MOL0     C27583   4.916   2.944   7.832  0.9834 -0.5738  0.2858
  205MOL0     C27584   4.781   2.971   7.895 -0.6179  0.1932 -0.0139
  205MOL0    Cl27585   4.652   2.859   7.825 -0.1590  0.4164 -0.1553
  205MOL0     C27586   5.763   2.619   8.088 -0.9914 -0.0878 -0.8045
  205MOL0     C27587   5.899   2.588   8.054  1.0456  0.1070  0.6224
  205MOL0     O27588   6.103   2.734   7.832  0.8931  0.6766 -0.2394
  205MOL0     C27589   6.260   2.436   7.747 -0.0647  1.1209  0.7176
  205MOL0     C27590   6.357   2.369   7.677  0.5087 -0.7405 -0.1732
  205MOL0     N27591   6.932   2.700   7.661 -0.3327 -0.0866 -0.5213
  205MOL0     N27592   6.886   2.818   7.667  0.3617 -0.3831 -0.4270
  205MOL0     C27593   5.944   2.994   7.600  0.2380 -0.7370  0.4375
  205MOL0     C27594   5.912   3.013   7.736 -0.1858  0.1226  0.0948
  205MOL0     C27595   5.638   3.245   8.050  0.2521 -0.3591 -0.5967
  205MOL0     C27596   5.568   3.131   8.078  0.6088  1.0314 -0.2379
  205MOL0     C27597   5.455   3.130   8.168  0.0759  0.5617  0.6556
  205MOL0     C27598   5.419   3.245   8.231  0.5530  0.8015  1.1912
  205MOL0     O27599   5.318   3.238   8.321  0.3325 -0.2068 -0.2629
  205MOL0     C27600   5.211   3.327   8.275 -0.0791 -0.1775  0.2462
  205MOL0     C27601   5.079   3.275   8.336 -0.4912 -0.5659  0.0256
  205MOL0     C27602   5.027   3.146   8.273  0.5602 -0.2436  1.0292
  205MOL0     C27603   4.905   3.102   8.350  1.0375  0.7220  1.2977
  205MOL0     C27604   4.773   3.122   8.274 -0.3878 -1.0221 -0.0793
  205MOL0     C27605   4.661   3.121   8.234  0.0466  0.1674 -0.0859
  205MOL0     C27606   5.484   3.366   8.199  0.2911  0.4834 -0.5517
  205MOL0     C27607   5.593   3.364   8.114  0.1329 -0.0714  0.6102
  205MOL0     H27608   5.764   3.314   7.711 -2.1013  0.2874 -2.3290
  205MOL0     H27609   5.819   3.285   7.466  1.6215  0.5766 -0.2211
  205MOL0     H27610   6.058   3.126   7.226 -2.3117  0.4896 -0.5784
  205MOL0     H27611   6.038   3.273   7.331  0.7742  0.2192  0.1425
  205MOL0     H27612   6.185   3.192   7.494  1.6578  2.1117 -2.0811
  205MOL0     H27613   6.205   3.028   7.421 -0.0744 -0.5144 -1.4266
  205MOL0     H27614   6.324   3.135   7.237 -3.4949  0.4832 -1.7492
  205MOL0     H27615   6.301   3.294   7.288 -1.6133 -0.4593 -1.5187
  205MOL0     H27616   6.421   3.284   7.481 -0.3945  0.0511 -1.5409
  205MOL0     H27617   6.439   3.104   7.474  3.2110  0.9851  1.9479
  205MOL0     H27618   6.555   3.147   7.256  2.4626  0.7438 -0.0934
  205MOL0     H27619   6.559   3.316   7.317 -2.1641 -0.3051  1.4749
  205MOL0     H27620   6.768   3.203   7.354  2.2252  0.3822  1.2894
  205MOL0     H27621   6.679   3.233   7.508  1.5519  2.5611 -2.6809
  205MOL0     H27622   6.623   2.995   7.533 -0.0065 -0.4844 -0.3037
  205MOL0     H27623   6.674   2.971   7.357 -1.0893  0.3088 -1.0281
  205MOL0     H27624   6.846   3.073   7.595 -2.9113 -3.6253  2.0367
  205MOL0     H27625   6.907   3.048   7.433  1.7107 -1.0557  0.6242
  205MOL0     H27626   6.846   2.774   7.344 -0.4504 -0.4766  0.5971
  205MOL0     H27627   7.000   2.532   7.373  0.2089 -3.4035  0.1160
  205MOL0     H27628   7.019   2.482   7.545  1.5943  0.7013 -1.1109
  205MOL0     H27629   6.841   2.357   7.419 -0.3097 -0.9662  2.0689
  205MOL0     H27630   6.749   2.499   7.395 -0.2266 -1.8914 -0.2591
  205MOL0     H27631   6.740   2.511   7.657  0.4836 -2.0268  3.3781
  205MOL0     H27632   6.857   2.385   7.647  2.2010  1.7928 -2.4406
  205MOL0     H27633   6.621   2.291   7.697  0.7321 -1.1090 -0.2999
  205MOL0     H27634   6.668   2.234   7.537 -0.0494 -0.1785  1.7127
  205MOL0     H27635   6.485   2.647   7.519  1.4462 -2.8709 -0.8532
  205MOL0     H27636   6.349   2.839   7.739  0.6191 -1.1205  1.7918
  205MOL0     H27637   6.383   2.842   7.565 -0.6872 -0.0069  0.1444
  205MOL0     H27638   6.217   2.846   7.621  0.7025  0.6301  1.4057
  205MOL0     H27639   5.836   2.513   7.723  3.1044  0.5497  0.4532
  205MOL0     H27640   5.609   2.579   7.786 -0.3391 -0.4304  0.1772
  205MOL0     H27641   5.432   2.516   7.922  2.4935 -2.5974  0.5000
  205MOL0     H27642   5.487   2.448   8.082  2.0699 -0.8126 -1.4345
  205MOL0     H27643   5.247   2.491   8.083 -1.3553  1.0836 -0.2556
  205MOL0     H27644   5.336   2.597   8.197  1.7087  0.2034 -0.0896
  205MOL0     H27645   5.252   2.699   7.911  1.4356 -0.0597 -0.5521
  205MOL0     H27646   5.307   2.796   8.049  2.3476 -0.5969 -0.2998
  205MOL0     H27647   5.056   2.614   8.053  0.0036 -0.2187 -0.9931
  205MOL0     H27648   5.114   2.717   8.183  0.3680 -1.6562  0.0220
  205MOL0     H27649   5.072   2.921   8.049 -2.6928  0.1317  3.6952
  205MOL0     H27650   4.948   2.827   8.094 -0.4875  0.1489 -1.4461
  205MOL0     H27651   5.062   2.801   7.803 -1.4013  2.3812 -2.4013
  205MOL0     H27652   4.908   2.728   7.867  2.4785 -3.1291  1.9813
  205MOL0     H27653   4.885   2.971   7.730  0.8157  2.8750  1.1015
  205MOL0     H27654   4.988   3.021   7.861  0.6330 -0.1632  0.0872
  205MOL0     H27655   4.763   3.078   7.886 -1.4724 -0.0933 -2.5547
  205MOL0     H27656   4.792   2.934   7.997 -0.8715 -2.3510 -0.8339
  205MOL0     H27657   5.732   2.632   8.191 -1.6197 -0.0786 -0.9877
  205MOL0     H27658   5.980   2.589   8.126 -1.0355 -0.3017  3.1349
  205MOL0     H27659   6.197   2.374   7.811  0.1141  0.4560  0.2588
  205MOL0     H27660   6.371   2.262   7.693  0.1369 -0.9022 -0.8716
  205MOL0     H27661   5.996   2.908   7.558 -1.9633 -0.7384 -2.5910
  205MOL0     H27662   5.896   2.924   7.795 -0.3261  0.3634  0.4227
  205MOL0     H27663   5.583   3.037   8.026 -0.0945  0.9698 -0.3404
  205MOL0     H27664   5.409   3.034   8.187  2.5505 -0.6513  1.0302
  205MOL0     H27665   5.226   3.431   8.306 -1.0739  0.4289 -1.1880
  205MOL0     H27666   5.197   3.328   8.167  2.0069  0.2406 -0.0588
  205MOL0     H27667   4.995   3.345   8.331  0.5172  0.6243 -0.6694
  205MOL0     H27668   5.094   3.267   8.444 -1.0500 -1.4615  0.0532
  205MOL0     H27669   5.104   3.069   8.288 -0.1206 -1.4990 -1.4328
  205MOL0     H27670   5.015   3.149   8.165  0.7056 -3.5118  0.8183
  205MOL0     H27671   4.891   3.134   8.454 -5.0775  0.2693  0.9370
  205MOL0     H27672   4.920   2.994   8.346 -0.4174  0.4643 -3.3666
  205MOL0     H27673   4.559   3.117   8.203  0.7592  0.0971 -2.6050
  205MOL0     H27674   5.452   3.458   8.246  1.2972  0.5386  0.0509
  205MOL0     H27675   5.640   3.457   8.084 -0.5363 -0.3293 -1.3175
  206MOL0     O27676   7.469   1.772   3.925 -0.0430  0.6434  0.3328
  206MOL0     C27677   7.366   1.709   3.918  0.1180  0.6113  0.8194
  206MOL0     O27678   7.240   1.761   3.942  0.9493 -0.0366 -0.1322
  206MOL0     C27679   7.225   1.894   3.978  0.2002 -0.1805 -0.5494
  206MOL0     C27680   7.301   2.001   3.929  0.2100  0.9976  1.3002
  206MOL0     C27681   7.289   2.127   3.986 -0.1540  0.3473 -0.0837
  206MOL0     C27682   7.207   2.153   4.098 -0.0535 -0.2326  0.5362
  206MOL0     O27683   7.201   2.276   4.157 -0.7224  0.0399  0.2238
  206MOL0     C27684   7.258   2.396   4.098  0.5205  0.1539  0.1640
  206MOL0     C27685   7.220   2.529   4.182 -0.2951  0.4671 -0.8026
  206MOL0     C27686   7.080   2.583   4.142 -0.5944 -0.7253 -0.4550
  206MOL0     C27687   7.038   2.695   4.237 -0.0084 -0.7991  0.3916
  206MOL0     C27688   6.893   2.730   4.202  0.2346 -1.0105  1.0596
  206MOL0     C27689   6.782   2.646   4.279 -0.2327 -0.5387  0.3354
  206MOL0     C27690   6.642   2.705   4.280  0.0093 -0.5115 -0.4563
  206MOL0     C27691   6.567   2.735   4.157 -0.3775 -0.7513  0.4222
  206MOL0     N27692   6.423   2.743   4.185 -0.0711 -0.2479 -0.5167
  206MOL0     C27693   6.334   2.640   4.180 -0.0699  0.2179  0.6396
  206MOL0     C27694   6.216   2.692   4.226 -0.3051  0.4148  0.2304
  206MOL0     C27695   6.083   2.616   4.239 -0.0732 -0.2712 -0.3563
  206MOL0     C27696   6.050   2.602   4.382  0.3804 -0.2217  0.0050
  206MOL0     C27697   6.004   2.727   4.463 -0.3834 -0.4428 -0.4017
  206MOL0     C27698   5.859   2.770   4.431 -0.1295  0.0947 -0.1583
  206MOL0     O27699   5.752   2.700   4.509 -0.2025  0.0481 -0.4189
  206MOL0     C27700   5.717   2.756   4.628 -0.4293 -0.6329 -0.0261
  206MOL0     C27701   5.582   2.729   4.666 -0.4929  0.1592 -0.0521
  206MOL0     C27702   5.520   2.800   4.769 -1.1053  0.9946  0.5559
  206MOL0     C27703   5.376   2.765   4.809 -0.7108  0.4406 -0.2554
  206MOL0     C27704   5.602   2.882   4.847  0.0979 -0.8115 -0.6631
  206MOL0     C27705   5.548   2.995   4.940  0.1404  1.1092 -0.5047
  206MOL0     O27706   5.466   2.958   5.047 -0.3374  0.0397 -0.6842
  206MOL0     C27707   5.383   3.040   5.112  0.4078 -0.6248  0.4682
  206MOL0     C27708   5.287   3.131   5.049 -0.5011 -0.0983 -0.3344
  206MOL0     C27709   5.208   3.208   5.137  0.1629 -0.8290 -0.6185
  206MOL0     C27710   5.209   3.206   5.274 -1.1294  0.4212  0.2866
  206MOL0     O27711   5.124   3.283   5.349 -0.2360  0.0489 -0.1897
  206MOL0     C27712   5.166   3.323   5.477 -0.3400  0.5567  0.2366
  206MOL0     C27713   5.057   3.394   5.561  0.0117 -0.6516 -0.5832
  206MOL0     C27714   4.931   3.300   5.586  0.1108 -0.5798  0.6482
  206MOL0     C27715   4.854   3.347   5.707  0.4457  0.2187 -0.0612
  206MOL0     C27716   4.766   3.472   5.693 -0.2280 -0.0362 -0.0859
  206MOL0     C27717   4.681   3.499   5.819 -0.0847 -0.1586 -0.4007
  206MOL0     C27718   4.754   3.575   5.936  0.1340 -0.3131  0.6405
  206MOL0     C27719   4.642   3.593   6.040  0.0841 -0.0013 -0.1929
  206MOL0    Cl27720   4.706   3.649   6.203 -0.3970  0.1239 -0.7859
  206MOL0     C27721   5.311   3.125   5.328  0.6402  0.2701  0.1802
  206MOL0     C27722   5.384   3.038   5.248 -0.5138  0.3131 -0.7476
  206MOL0     O27723   5.591   3.109   4.923  0.6872  0.2610  0.4877
  206MOL0     C27724   5.740   2.890   4.819  0.2841  0.3836 -0.4838
  206MOL0     C27725   5.800   2.820   4.716  0.4443 -1.0350  0.0891
  206MOL0     N27726   6.225   2.828   4.233 -0.8863 -0.1492 -0.0701
  206MOL0     N27727   6.348   2.856   4.212 -0.7555  0.6149 -0.0552
  206MOL0     C27728   7.140   2.042   4.149  0.3628  0.7660 -0.8750
  206MOL0     C27729   7.157   1.913   4.102 -0.3747 -0.2518  0.0953
  206MOL0     C27730   7.376   1.573   3.863  0.4875 -1.0117 -0.0955
  206MOL0     C27731   7.498   1.506   3.845  0.2148 -0.1174  0.4388
  206MOL0     C27732   7.501   1.376   3.796 -0.3135 -0.5121 -0.7964
  206MOL0     C27733   7.392   1.316   3.750  0.6224  0.2769 -0.9304
  206MOL0     O27734   7.422   1.194   3.683  0.2841  0.3816  0.2955
  206MOL0     C27735   7.320   1.107   3.629 -0.2281  0.7416  0.5049
  206MOL0     C27736   7.257   1.002   3.727 -0.4382  0.5718  0.3324
  206MOL0     C27737   7.343   0.877   3.736 -0.9708 -0.9999 -0.0108
  206MOL0     C27738   7.294   0.775   3.836  0.1272 -0.0292 -0.8163
  206MOL0     C27739   7.363   0.644   3.832  0.5329  0.1583  0.4638
  206MOL0     C27740   7.417   0.536   3.819  0.5203 -0.4307  0.2537
  206MOL0     C27741   7.270   1.378   3.758 -0.4558 -1.4636  0.5266
  206MOL0     C27742   7.258   1.502   3.814 -0.3890 -0.2604  0.3849
  206MOL0     H27743   7.356   1.989   3.836  0.7678  1.0305  1.6200
  206MOL0     H27744   7.349   2.207   3.946  0.7048 -0.5939 -0.7346
  206MOL0     H27745   7.367   2.396   4.096  0.5487  0.0017 -3.0867
  206MOL0     H27746   7.224   2.400   3.994  0.0164  0.6997  0.3450
  206MOL0     H27747   7.239   2.512   4.288 -0.8851  0.3142 -0.7131
  206MOL0     H27748   7.290   2.609   4.156 -3.2758  3.4778 -0.3450
  206MOL0     H27749   7.082   2.612   4.037  5.1410 -0.2703 -0.5224
  206MOL0     H27750   7.018   2.493   4.157  1.7029 -1.9396  3.2532
  206MOL0     H27751   7.045   2.665   4.342  2.8527  2.3613  1.2990
  206MOL0     H27752   7.113   2.772   4.217 -1.0324 -0.4441 -2.5034
  206MOL0     H27753   6.878   2.834   4.229  1.2941 -0.3540 -0.6936
  206MOL0     H27754   6.883   2.722   4.093  2.0579 -0.7836  0.8536
  206MOL0     H27755   6.778   2.542   4.246 -0.7756 -0.5166  0.3294
  206MOL0     H27756   6.803   2.654   4.386 -1.0715  1.4257  0.4020
  206MOL0     H27757   6.583   2.635   4.340  1.2617  1.5145  3.4365
  206MOL0     H27758   6.648   2.798   4.336 -1.2382  0.6044 -2.0716
  206MOL0     H27759   6.592   2.662   4.079  2.1617 -1.0495  1.3963
  206MOL0     H27760   6.602   2.825   4.107 -0.0814  0.1973  2.2593
  206MOL0     H27761   6.356   2.538   4.149 -0.0569  0.8893 -1.6997
  206MOL0     H27762   6.010   2.670   4.177 -0.2543 -0.1952 -0.0803
  206MOL0     H27763   6.098   2.517   4.197 -0.3889 -0.7461  0.6164
  206MOL0     H27764   6.138   2.553   4.425  1.1287  0.5567 -0.5936
  206MOL0     H27765   5.969   2.530   4.394 -1.8621  1.4230 -3.5959
  206MOL0     H27766   6.072   2.809   4.438  0.2642 -1.5247 -2.4440
  206MOL0     H27767   6.018   2.717   4.571  1.5504 -0.0171 -0.5726
  206MOL0     H27768   5.838   2.758   4.324  4.0069  0.2141 -1.1597
  206MOL0     H27769   5.854   2.878   4.450 -0.0165 -0.2898  2.4351
  206MOL0     H27770   5.519   2.655   4.617 -0.1463  1.1964 -2.2023
  206MOL0     H27771   5.341   2.682   4.747 -0.2243 -0.9498  1.2705
  206MOL0     H27772   5.373   2.730   4.913  2.9354  0.0954 -0.1474
  206MOL0     H27773   5.324   2.857   4.780  0.7967 -0.0745 -5.5408
  206MOL0     H27774   5.279   3.145   4.941 -4.1047  0.6566 -0.0883
  206MOL0     H27775   5.141   3.279   5.089 -0.6929 -1.6367 -0.6465
  206MOL0     H27776   5.197   3.237   5.537 -2.2214 -1.3773 -1.3724
  206MOL0     H27777   5.254   3.388   5.478 -2.7471  4.1918 -1.4995
  206MOL0     H27778   5.096   3.422   5.659 -1.1916  4.3017 -1.2449
  206MOL0     H27779   5.033   3.490   5.513  2.1034  0.4150  0.3771
  206MOL0     H27780   4.958   3.196   5.608 -2.5520 -1.4453  0.1943
  206MOL0     H27781   4.871   3.306   5.494  1.0994  3.5899  0.0562
  206MOL0     H27782   4.786   3.264   5.729  0.1568  1.0350  2.4293
  206MOL0     H27783   4.922   3.351   5.793  0.6762  1.1354 -0.2799
  206MOL0     H27784   4.706   3.444   5.606  2.7931 -2.1182 -1.6663
  206MOL0     H27785   4.828   3.560   5.675  0.0048 -0.2150 -0.1646
  206MOL0     H27786   4.595   3.561   5.790 -1.4708 -2.1480 -0.7204
  206MOL0     H27787   4.634   3.409   5.860 -1.0921  0.7478  0.5130
  206MOL0     H27788   4.788   3.673   5.901 -1.9159  0.9075  1.9035
  206MOL0     H27789   4.837   3.518   5.978 -0.7107 -1.3980  0.8692
  206MOL0     H27790   4.611   3.489   6.053  4.4104 -1.9719 -3.2871
  206MOL0     H27791   4.552   3.648   6.011  0.7701  1.7016  0.7636
  206MOL0     H27792   5.319   3.131   5.436 -1.7589  2.3223  0.3525
  206MOL0     H27793   5.450   2.967   5.298 -0.8825 -0.4731 -1.3499
  206MOL0     H27794   5.812   2.944   4.880 -0.8577 -0.1191  1.3996
  206MOL0     H27795   5.906   2.826   4.693 -0.1197 -1.1186 -2.8914
  206MOL0     H27796   7.081   2.056   4.240  1.9495 -2.2142  0.7634
  206MOL0     H27797   7.119   1.823   4.151 -1.1916 -0.4496 -0.8727
  206MOL0     H27798   7.587   1.555   3.881 -0.3001 -0.8312  2.8464
  206MOL0     H27799   7.600   1.331   3.803  0.4753  1.4667  3.0230
  206MOL0     H27800   7.238   1.172   3.598  0.4355  1.6256  0.5562
  206MOL0     H27801   7.350   1.059   3.535  0.0369  1.3797  0.2506
  206MOL0     H27802   7.161   0.968   3.687  1.1359 -2.3415 -1.2816
  206MOL0     H27803   7.239   1.043   3.827  1.1794  1.3908  0.3209
  206MOL0     H27804   7.438   0.921   3.769 -1.3971  0.1617 -0.3025
  206MOL0     H27805   7.362   0.823   3.643 -2.8032  2.3615 -2.5693
  206MOL0     H27806   7.190   0.752   3.815  0.2588 -2.6683  0.8822
  206MOL0     H27807   7.302   0.813   3.938  0.8249 -1.3972 -0.3236
  206MOL0     H27808   7.469   0.442   3.824  2.9170  0.7959  0.1442
  206MOL0     H27809   7.191   1.330   3.702  0.4639 -1.8581 -0.4785
  206MOL0     H27810   7.162   1.551   3.824 -0.8455 -1.0394 -0.0850
  207MOL0     O27811   0.992   9.859   2.486  0.2619 -0.4252 -0.5027
  207MOL0     C27812   0.970   9.738   2.453 -0.4346 -1.8445  0.2675
  207MOL0     O27813   0.874   9.657   2.491  0.4376 -0.3143 -0.5213
  207MOL0     C27814   0.763   9.695   2.575 -0.3533 -0.4162 -0.1303
  207MOL0     C27815   0.760   9.806   2.661  0.1463  0.0583  0.6891
  207MOL0     C27816   0.653   9.830   2.749  0.2634 -0.5210 -0.1915
  207MOL0     C27817   0.537   9.748   2.759 -0.5994  0.5224 -0.2513
  207MOL0     O27818   0.443   9.752   2.854  0.4747 -0.1240  0.2148
  207MOL0     C27819   0.390   9.881   2.896 -0.8543 -0.4170 -0.2941
  207MOL0     C27820   0.437   9.938   3.022 -0.1132 -0.6133 -0.2748
  207MOL0     C27821   0.402   9.870   3.148  0.1376  0.6611 -0.3166
  207MOL0     C27822   0.287   9.944   3.238 -0.2154  0.2960 -0.0445
  207MOL0     C27823   0.255   9.854   3.364 -0.8489 -1.2021  0.4677
  207MOL0     C27824   0.159   9.925   3.463 -0.4458 -0.1936 -1.0596
  207MOL0     C27825   0.136   9.832   3.574  0.1109 -0.3917 -0.0507
  207MOL0     C27826   0.025   9.891   3.663 -0.2618 -0.7051  0.4408
  207MOL0     N27827  -0.022   9.807   3.773 -0.5606 -0.2272 -0.4434
  207MOL0     C27828  -0.082   9.688   3.752  0.1877  0.0100  0.7021
  207MOL0     C27829  -0.094   9.640   3.876 -0.9193 -0.0484  0.0740
  207MOL0     C27830  -0.149   9.503   3.902 -0.0546 -0.4106  0.6227
  207MOL0     C27831  -0.287   9.491   3.967 -0.1201  0.0010 -0.9962
  207MOL0     C27832  -0.308   9.591   4.079 -0.1811 -0.0194 -0.4586
  207MOL0     C27833  -0.445   9.569   4.150  1.3287  0.3082 -0.7725
  207MOL0     O27834  -0.518   9.459   4.079 -0.0543 -0.0547  0.0458
  207MOL0     C27835  -0.655   9.489   4.067 -0.4323  0.0731 -0.3723
  207MOL0     C27836  -0.728   9.518   4.184 -0.7336 -0.1632 -1.4975
  207MOL0     C27837  -0.868   9.531   4.180  0.7320  0.0514  0.7504
  207MOL0     C27838  -0.932   9.533   4.310 -0.7206 -0.2938  0.5088
  207MOL0     C27839  -0.935   9.527   4.056 -0.3356 -0.0261 -0.5023
  207MOL0     C27840  -1.082   9.542   4.038 -0.0272 -0.1023  0.7164
  207MOL0     O27841  -1.124   9.513   3.908  0.1088 -0.2270 -0.6328
  207MOL0     C27842  -1.262   9.501   3.876 -0.0072 -0.1800 -0.1677
  207MOL0     C27843  -1.356   9.458   3.966  1.0188  0.2207 -0.5206
  207MOL0     C27844  -1.487   9.437   3.932  0.3216 -0.6909 -0.2696
  207MOL0     C27845  -1.530   9.456   3.803  0.0857  0.2357 -1.0106
  207MOL0     O27846  -1.664   9.431   3.776  0.1528 -0.4835 -0.2499
  207MOL0     C27847  -1.716   9.487   3.661 -0.2176  0.2249  0.4893
  207MOL0     C27848  -1.858   9.460   3.640  0.1562 -0.2031  1.1419
  207MOL0     C27849  -1.918   9.553   3.541  0.7729 -1.1355 -0.6550
  207MOL0     C27850  -2.053   9.494   3.484 -1.1187 -0.7636  0.1290
  207MOL0     C27851  -2.138   9.603   3.409 -0.9744 -0.3696  0.0451
  207MOL0     C27852  -2.264   9.547   3.345  0.1471  0.0175 -0.2225
  207MOL0     C27853  -2.356   9.662   3.306 -0.5193 -0.4607 -0.2144
  207MOL0     C27854  -2.491   9.596   3.271 -0.4253 -0.7382  0.0829
  207MOL0    Cl27855  -2.598   9.599   3.415  0.2017 -0.2906 -0.0293
  207MOL0     C27856  -1.436   9.486   3.706  0.4333  0.2463 -0.3685
  207MOL0     C27857  -1.303   9.503   3.740 -0.8139 -0.2263 -1.0831
  207MOL0     O27858  -1.146   9.610   4.121  0.4005  0.8917  0.0182
  207MOL0     C27859  -0.857   9.511   3.944 -0.6128 -0.1814 -0.4514
  207MOL0     C27860  -0.719   9.492   3.943  0.6715 -0.5990 -0.9774
  207MOL0     N27861  -0.034   9.725   3.972 -0.1652 -0.5397  0.4925
  207MOL0     N27862   0.010   9.826   3.900 -0.4225  0.8198  1.1020
  207MOL0     C27863   0.540   9.637   2.667 -1.1451 -0.6045  0.5285
  207MOL0     C27864   0.650   9.614   2.589 -0.5678 -0.0091  0.2272
  207MOL0     C27865   1.066   9.684   2.351 -0.1911  0.3801  0.6264
  207MOL0     C27866   1.049   9.554   2.310  0.4563 -0.0797  0.0757
  207MOL0     C27867   1.124   9.502   2.202  0.1299 -0.1365  0.6619
  207MOL0     C27868   1.238   9.576   2.153 -0.4996 -0.4367 -0.0841
  207MOL0     O27869   1.330   9.540   2.053  0.2214  0.5312  0.1555
  207MOL0     C27870   1.300   9.424   1.965 -0.0782  0.2134 -0.1507
  207MOL0     C27871   1.363   9.442   1.831 -0.0695 -0.3847  0.2205
  207MOL0     C27872   1.511   9.446   1.812 -0.6405 -0.3684 -0.1209
  207MOL0     C27873   1.581   9.310   1.856  0.5533 -0.0646 -0.0064
  207MOL0     C27874   1.721   9.309   1.809  0.0686 -0.3207 -0.6179
  207MOL0     C27875   1.833   9.297   1.760  0.8639  0.2844 -0.3330
  207MOL0     C27876   1.261   9.710   2.212  0.4053 -0.3488  0.4668
  207MOL0     C27877   1.180   9.761   2.312 -0.3565 -0.8077  0.1235
  207MOL0     H27878   0.837   9.882   2.659 -0.8898  1.1685  1.4994
  207MOL0     H27879   0.667   9.922   2.805 -0.5053  0.0891 -0.9905
  207MOL0     H27880   0.397   9.961   2.822 -2.4615 -1.5352 -1.7301
  207MOL0     H27881   0.281   9.867   2.894 -0.6660 -2.0260 -2.6413
  207MOL0     H27882   0.545   9.927   3.010  0.0763  0.5365  0.2293
  207MOL0     H27883   0.408  10.043   3.027  0.6237 -0.4471  0.9480
  207MOL0     H27884   0.364   9.770   3.127 -0.6543  0.6342  1.1571
  207MOL0     H27885   0.487   9.863   3.217 -0.9098 -0.4657  0.9115
  207MOL0     H27886   0.324  10.031   3.293  1.4527 -1.5272  1.9157
  207MOL0     H27887   0.195   9.957   3.181 -0.7584 -3.6747 -0.3452
  207MOL0     H27888   0.220   9.756   3.333  2.2821 -1.8637 -1.3195
  207MOL0     H27889   0.348   9.831   3.416 -0.3092  0.3130  0.2328
  207MOL0     H27890   0.206  10.017   3.499 -0.6179 -0.0428 -1.2192
  207MOL0     H27891   0.068   9.949   3.406  1.3545  2.9924 -2.9434
  207MOL0     H27892   0.100   9.734   3.541 -1.1391  0.3694 -1.0613
  207MOL0     H27893   0.229   9.816   3.628 -0.6230 -0.2244  1.3119
  207MOL0     H27894  -0.052   9.919   3.590 -0.7878 -2.6614  0.1892
  207MOL0     H27895   0.055   9.988   3.704  0.7485 -1.0771  0.5993
  207MOL0     H27896  -0.106   9.631   3.662  0.3581 -0.0348  0.6852
  207MOL0     H27897  -0.140   9.451   3.806  2.5036  1.8598 -0.5166
  207MOL0     H27898  -0.075   9.455   3.968  0.8556  0.7577  0.4710
  207MOL0     H27899  -0.289   9.385   3.994 -0.7048 -0.7740 -3.7777
  207MOL0     H27900  -0.365   9.492   3.891 -1.1360  0.4559  0.0290
  207MOL0     H27901  -0.310   9.687   4.027  2.5175  0.4127  0.0656
  207MOL0     H27902  -0.226   9.595   4.152 -1.3997 -0.0299  0.9645
  207MOL0     H27903  -0.508   9.657   4.162  0.2463 -0.6083  0.7318
  207MOL0     H27904  -0.433   9.535   4.253  0.2164  1.0422 -0.3785
  207MOL0     H27905  -0.673   9.500   4.276 -0.0041  1.7082 -1.5117
  207MOL0     H27906  -0.954   9.635   4.341 -1.1330 -0.1583 -0.1986
  207MOL0     H27907  -1.022   9.472   4.323 -0.0181 -1.2306  1.1107
  207MOL0     H27908  -0.856   9.488   4.375 -0.9186 -1.0306  0.2444
  207MOL0     H27909  -1.329   9.444   4.070 -0.9037 -4.9121 -0.3861
  207MOL0     H27910  -1.560   9.422   4.011 -1.4699  2.8581 -1.0446
  207MOL0     H27911  -1.712   9.596   3.668  0.3638  0.2277  0.1107
  207MOL0     H27912  -1.656   9.436   3.585 -1.9136 -1.8434  0.4482
  207MOL0     H27913  -1.847   9.355   3.609  5.4541 -0.3886  2.7428
  207MOL0     H27914  -1.917   9.474   3.731 -2.4589 -0.7910 -0.3394
  207MOL0     H27915  -1.862   9.580   3.451  0.2589  3.8129  0.2287
  207MOL0     H27916  -1.942   9.643   3.600  0.8878 -0.3789 -1.7414
  207MOL0     H27917  -2.025   9.414   3.415 -2.1030  0.5296 -1.8808
  207MOL0     H27918  -2.114   9.460   3.568 -1.2430 -3.6919 -1.0537
  207MOL0     H27919  -2.068   9.643   3.335 -2.5311 -0.5725 -1.5891
  207MOL0     H27920  -2.178   9.677   3.478 -4.8882 -1.1656 -1.1319
  207MOL0     H27921  -2.227   9.497   3.255 -0.9716 -1.7148  0.2309
  207MOL0     H27922  -2.317   9.476   3.408  1.2218 -1.1915 -0.6305
  207MOL0     H27923  -2.317   9.708   3.215  0.5257 -0.1217  0.3880
  207MOL0     H27924  -2.355   9.744   3.379  1.3436 -1.3914  0.8750
  207MOL0     H27925  -2.467   9.493   3.243 -0.9007 -1.3659  1.8310
  207MOL0     H27926  -2.548   9.645   3.192  0.1777 -2.9817 -1.8740
  207MOL0     H27927  -1.450   9.478   3.599 -1.0989 -1.5583 -0.0779
  207MOL0     H27928  -1.228   9.511   3.662 -1.2092  4.2606 -1.2555
  207MOL0     H27929  -0.897   9.500   3.844 -1.9179  1.4318 -0.1530
  207MOL0     H27930  -0.663   9.471   3.852  4.5238  0.3367  0.9462
  207MOL0     H27931   0.461   9.564   2.678 -2.1104  0.6439  2.4866
  207MOL0     H27932   0.659   9.519   2.538  2.3707 -0.1587  0.8365
  207MOL0     H27933   0.965   9.499   2.351  1.0085 -1.4272 -0.5675
  207MOL0     H27934   1.100   9.404   2.161 -1.5078  0.8388 -0.8430
  207MOL0     H27935   1.320   9.332   2.020  0.7130 -0.2192 -1.1136
  207MOL0     H27936   1.193   9.423   1.946  0.2600 -1.3987 -2.3619
  207MOL0     H27937   1.346   9.543   1.793  3.8674 -0.2977 -1.8504
  207MOL0     H27938   1.309   9.374   1.765  0.3014 -1.5911  1.1242
  207MOL0     H27939   1.542   9.527   1.879 -0.8854 -0.0909 -0.3415
  207MOL0     H27940   1.535   9.461   1.706  0.3915 -4.9593 -0.7524
  207MOL0     H27941   1.524   9.228   1.811  0.2138 -1.5742  2.9126
  207MOL0     H27942   1.575   9.285   1.962  1.5677  0.5309  0.2089
  207MOL0     H27943   1.936   9.301   1.734  1.3771  1.7934  1.6810
  207MOL0     H27944   1.340   9.771   2.169  0.0765  1.7932  2.7053
  207MOL0     H27945   1.205   9.857   2.354  1.5527 -0.5714 -1.4424
  208MOL0     O27946  11.247   4.270   0.450  0.0680 -0.2392  0.1571
  208MOL0     C27947  11.347   4.273   0.526 -0.2425 -0.3070  0.3830
  208MOL0     O27948  11.473   4.225   0.493  0.1358  0.1748 -0.4284
  208MOL0     C27949  11.474   4.127   0.392 -0.3076  0.0651 -0.3111
  208MOL0     C27950  11.442   4.154   0.264  0.1358  0.3471  0.8500
  208MOL0     C27951  11.438   4.055   0.169 -0.2859  0.6298 -0.0967
  208MOL0     C27952  11.481   3.922   0.202  1.0393  0.5975  0.5749
  208MOL0     O27953  11.506   3.825   0.107 -0.3524  0.1825 -0.0335
  208MOL0     C27954  11.568   3.867  -0.014  0.6831 -0.5267 -0.4736
  208MOL0     C27955  11.490   3.823  -0.134  0.4495 -0.8780  0.1969
  208MOL0     C27956  11.348   3.886  -0.135 -0.3501 -0.0687 -0.4303
  208MOL0     C27957  11.295   3.900  -0.281  0.9349 -0.2271 -0.4470
  208MOL0     C27958  11.247   3.760  -0.341 -0.4288 -0.4096  0.1988
  208MOL0     C27959  11.147   3.782  -0.456 -0.5577 -0.1857  0.2564
  208MOL0     C27960  11.122   3.644  -0.516  0.0506  0.1753  0.3432
  208MOL0     C27961  11.010   3.663  -0.633  0.5902  0.0053 -0.3250
  208MOL0     N27962  10.969   3.526  -0.669  0.1791 -0.0331  0.0116
  208MOL0     C27963  10.902   3.439  -0.590  0.0952 -0.1083  1.4575
  208MOL0     C27964  10.879   3.331  -0.678 -0.3286  0.2379  0.2664
  208MOL0     C27965  10.828   3.189  -0.649  1.0218  0.6324  0.4663
  208MOL0     C27966  10.935   3.072  -0.681  0.4577  0.8974 -0.2573
  208MOL0     C27967  10.864   2.933  -0.651 -1.3472 -0.0265 -0.1149
  208MOL0     C27968  10.721   2.916  -0.715 -0.1397 -0.4999 -0.2241
  208MOL0     O27969  10.718   2.891  -0.859  0.4489 -0.5893  1.0132
  208MOL0     C27970  10.810   2.801  -0.914 -0.0813 -0.7794 -0.4148
  208MOL0     C27971  10.773   2.670  -0.941 -0.6128 -0.2436 -0.2042
  208MOL0     C27972  10.861   2.576  -0.992  0.7380  0.0260  0.3486
  208MOL0     C27973  10.793   2.448  -1.040 -0.9973  0.0022  0.4027
  208MOL0     C27974  10.990   2.614  -1.015 -0.0467  0.3561  0.9418
  208MOL0     C27975  11.089   2.522  -1.076  0.7609 -0.9583  0.6975
  208MOL0     O27976  11.218   2.563  -1.041  0.5922  0.0062  0.6475
  208MOL0     C27977  11.328   2.506  -1.100 -0.1129  0.0973  0.4048
  208MOL0     C27978  11.355   2.374  -1.076  0.6593  0.3776 -0.5410
  208MOL0     C27979  11.472   2.310  -1.131  0.5397  0.0863 -0.8806
  208MOL0     C27980  11.561   2.388  -1.209  0.5621  0.3988 -1.0081
  208MOL0     O27981  11.678   2.324  -1.246 -0.7705 -0.0036  0.1644
  208MOL0     C27982  11.784   2.411  -1.291  0.6108 -1.0216  0.1724
  208MOL0     C27983  11.902   2.321  -1.325  0.0624 -0.1706 -0.3077
  208MOL0     C27984  11.936   2.217  -1.219  0.2015  0.0379  1.0417
  208MOL0     C27985  12.093   2.184  -1.229  0.7916  0.6443 -0.6357
  208MOL0     C27986  12.139   2.111  -1.353  0.8574 -0.4279  0.4838
  208MOL0     C27987  12.292   2.071  -1.352 -0.1220  0.2689 -0.5938
  208MOL0     C27988  12.383   2.186  -1.394  0.2968  0.7504  0.0764
  208MOL0     C27989  12.512   2.181  -1.314 -0.3418 -0.1287  0.6965
  208MOL0    Cl27990  12.630   2.085  -1.416 -0.1859 -0.2146  0.2441
  208MOL0     C27991  11.532   2.526  -1.235 -0.8060  0.5900  0.7595
  208MOL0     C27992  11.405   2.579  -1.183  1.0308  0.7019 -0.2275
  208MOL0     O27993  11.057   2.432  -1.147 -0.0138  0.4829 -0.1790
  208MOL0     C27994  11.038   2.737  -0.972 -0.1085  0.1317 -0.9907
  208MOL0     C27995  10.944   2.829  -0.937 -0.2140 -1.2095 -0.7990
  208MOL0     N27996  10.930   3.364  -0.801 -0.2472 -0.3515  0.1048
  208MOL0     N27997  10.982   3.476  -0.795 -0.8992 -0.3009  0.0071
  208MOL0     C27998  11.514   3.895   0.343 -0.3403  0.1784  1.4616
  208MOL0     C27999  11.516   4.001   0.442 -0.0763  0.0334  0.6263
  208MOL0     C28000  11.332   4.355   0.654  0.7205 -0.1882  0.0215
  208MOL0     C28001  11.210   4.355   0.713 -0.9643 -0.1876 -0.0634
  208MOL0     C28002  11.176   4.437   0.815  0.0148 -0.5219  0.2951
  208MOL0     C28003  11.267   4.538   0.859  0.5273 -0.6735  0.1308
  208MOL0     O28004  11.225   4.620   0.963  0.4117  0.1768  0.4279
  208MOL0     C28005  11.319   4.707   1.030 -1.0693  0.4373 -0.3731
  208MOL0     C28006  11.343   4.826   0.939 -0.1442 -0.2163  0.3722
  208MOL0     C28007  11.458   4.909   0.979  0.6665 -0.7088 -0.1754
  208MOL0     C28008  11.595   4.833   0.959 -0.5696  0.0718 -0.3081
  208MOL0     C28009  11.709   4.918   1.002  0.2306  0.2694 -0.2139
  208MOL0     C28010  11.796   4.967   1.060 -0.3713  0.2734 -0.3229
  208MOL0     C28011  11.391   4.535   0.803 -0.6174 -0.0889  0.2570
  208MOL0     C28012  11.431   4.435   0.708  0.0267 -0.1212  0.1690
  208MOL0     H28013  11.408   4.252   0.233  2.0879  0.5234 -0.9457
  208MOL0     H28014  11.425   4.091   0.068 -2.4151  0.4998  0.0830
  208MOL0     H28015  11.590   3.974  -0.017 -2.7990  0.3503  0.3648
  208MOL0     H28016  11.668   3.828  -0.032  0.4501 -0.6852 -1.5052
  208MOL0     H28017  11.539   3.845  -0.229  1.3221 -0.8364  0.6487
  208MOL0     H28018  11.474   3.715  -0.145 -0.6769 -0.6706 -0.3351
  208MOL0     H28019  11.273   3.824  -0.084 -2.1364  0.5339 -2.2092
  208MOL0     H28020  11.346   3.986  -0.092  3.8968 -0.1355  0.2806
  208MOL0     H28021  11.209   3.968  -0.281 -0.2335 -1.6010 -2.5958
  208MOL0     H28022  11.359   3.951  -0.354  1.4081  1.7743  1.2677
  208MOL0     H28023  11.334   3.700  -0.369  1.3998  2.4779 -0.7602
  208MOL0     H28024  11.191   3.701  -0.268  1.2890 -0.4399  1.5575
  208MOL0     H28025  11.063   3.830  -0.404  0.9573  2.7843  0.1787
  208MOL0     H28026  11.191   3.850  -0.529  0.5310 -1.8070 -0.6670
  208MOL0     H28027  11.212   3.610  -0.569  1.2497  0.9357  1.8005
  208MOL0     H28028  11.092   3.571  -0.440 -1.8948  0.1009 -0.4410
  208MOL0     H28029  11.062   3.716  -0.713 -2.8853  0.5590 -2.4260
  208MOL0     H28030  10.928   3.721  -0.590  1.6332  0.5370  1.0183
  208MOL0     H28031  10.891   3.457  -0.483  0.6914 -1.4819  1.7791
  208MOL0     H28032  10.789   3.201  -0.548  0.8634 -0.7770  0.5850
  208MOL0     H28033  10.744   3.187  -0.719  0.9896  2.3434  0.4080
  208MOL0     H28034  11.015   3.081  -0.608  0.6606  1.6960 -0.5647
  208MOL0     H28035  10.980   3.093  -0.779  1.0385  1.9588  0.2217
  208MOL0     H28036  10.854   2.913  -0.544  1.9995  2.3490  0.7665
  208MOL0     H28037  10.928   2.852  -0.686 -1.1286 -0.7242  1.7635
  208MOL0     H28038  10.654   3.001  -0.695  0.7542  0.5092 -1.4086
  208MOL0     H28039  10.677   2.824  -0.676  1.6567 -1.9206 -1.3877
  208MOL0     H28040  10.676   2.642  -0.903 -0.0343 -0.0077  1.5345
  208MOL0     H28041  10.684   2.449  -1.033 -1.2011  0.7720 -1.8762
  208MOL0     H28042  10.805   2.428  -1.147 -0.3792  1.4952  0.1668
  208MOL0     H28043  10.821   2.360  -0.982 -3.2675 -1.3853 -0.4785
  208MOL0     H28044  11.293   2.316  -1.009  0.4316  1.7285  0.4456
  208MOL0     H28045  11.496   2.210  -1.096  0.5449 -0.5614 -2.6700
  208MOL0     H28046  11.756   2.450  -1.389 -1.2125 -1.6743  0.4083
  208MOL0     H28047  11.809   2.486  -1.215 -1.7858 -2.3035  2.3857
  208MOL0     H28048  11.882   2.287  -1.427  0.2829 -3.0740  0.5183
  208MOL0     H28049  11.985   2.392  -1.335  0.3414 -0.3855  0.3992
  208MOL0     H28050  11.883   2.122  -1.231  0.8998 -0.2370  0.0817
  208MOL0     H28051  11.912   2.271  -1.126 -0.5977  2.4095 -0.4424
  208MOL0     H28052  12.145   2.280  -1.219 -0.5448  1.1747  1.9352
  208MOL0     H28053  12.126   2.130  -1.140 -0.9318  0.7018  0.0710
  208MOL0     H28054  12.110   2.178  -1.435  1.5986  0.1118  0.6506
  208MOL0     H28055  12.076   2.024  -1.375 -2.3625  1.9081 -0.3188
  208MOL0     H28056  12.306   2.025  -1.254 -0.5158  0.7636 -0.3044
  208MOL0     H28057  12.303   1.991  -1.426 -0.6254 -2.0464  1.7034
  208MOL0     H28058  12.330   2.277  -1.368  1.2949  0.5209  3.2789
  208MOL0     H28059  12.406   2.189  -1.501 -2.4925  1.8298 -0.5782
  208MOL0     H28060  12.502   2.136  -1.215  1.8780 -1.1231  0.5370
  208MOL0     H28061  12.562   2.278  -1.307 -1.2718  0.3201  1.3247
  208MOL0     H28062  11.592   2.590  -1.299  1.5136 -3.1380 -1.0944
  208MOL0     H28063  11.387   2.685  -1.199 -1.1942  0.2608 -1.1058
  208MOL0     H28064  11.143   2.763  -0.984 -0.1935  1.1675  0.2817
  208MOL0     H28065  10.979   2.932  -0.941 -3.4525  0.0420  0.3842
  208MOL0     H28066  11.524   3.796   0.386 -1.0902 -0.3318  0.5143
  208MOL0     H28067  11.542   3.978   0.544  0.1039  1.7345  0.9948
  208MOL0     H28068  11.131   4.289   0.679 -0.6668 -1.4592  1.6139
  208MOL0     H28069  11.084   4.414   0.868  1.1767 -0.9503  2.2375
  208MOL0     H28070  11.280   4.742   1.127  0.2765  2.8499 -0.6244
  208MOL0     H28071  11.406   4.648   1.060 -1.9062 -0.2202  0.8583
  208MOL0     H28072  11.257   4.894   0.941  1.9563  2.6248  2.3334
  208MOL0     H28073  11.356   4.801   0.833 -1.4184 -1.0131  0.3711
  208MOL0     H28074  11.451   4.926   1.087 -1.4233  0.3961 -0.4456
  208MOL0     H28075  11.453   5.007   0.931 -2.0620  1.3267  3.6846
  208MOL0     H28076  11.620   4.815   0.854  2.0656 -0.1655  0.2944
  208MOL0     H28077  11.600   4.735   1.007  1.2467 -1.0150 -2.5559
  208MOL0     H28078  11.863   5.019   1.125  0.4928  0.1089 -1.0731
  208MOL0     H28079  11.466   4.609   0.833 -2.4728  2.1638 -0.3435
  208MOL0     H28080  11.530   4.432   0.663  0.0561 -1.5053  0.2916
  209MOL0     O28081   1.874  10.671   4.759  0.0491  0.3680 -0.1016
  209MOL0     C28082   1.853  10.553   4.750 -0.0689  0.8842 -0.8310
  209MOL0     O28083   1.811  10.488   4.646  0.1069 -0.6703  0.6055
  209MOL0     C28084   1.760  10.546   4.527  0.0886 -0.5107 -0.6112
  209MOL0     C28085   1.764  10.678   4.495 -0.1935 -0.0115  0.9177
  209MOL0     C28086   1.705  10.724   4.381  0.1144  0.0156 -0.2260
  209MOL0     C28087   1.630  10.635   4.304 -0.9311  0.2358 -0.3621
  209MOL0     O28088   1.587  10.663   4.174  0.0866 -0.4835 -0.0222
  209MOL0     C28089   1.449  10.662   4.140 -0.2379  0.9968  0.3879
  209MOL0     C28090   1.391  10.808   4.124  0.1988 -0.2046 -0.1369
  209MOL0     C28091   1.248  10.808   4.189 -0.3808 -0.7422 -0.4357
  209MOL0     C28092   1.150  10.886   4.096  0.7355 -0.0196  0.1870
  209MOL0     C28093   1.008  10.876   4.134  0.6599 -0.1902 -0.5133
  209MOL0     C28094   0.980  10.934   4.271 -0.6135 -0.2086 -0.5490
  209MOL0     C28095   0.833  10.903   4.305  0.3614 -0.5011 -0.1371
  209MOL0     C28096   0.739  10.995   4.227  1.1729  0.2497  1.1531
  209MOL0     N28097   0.753  11.144   4.243 -0.6887  1.0904 -0.4096
  209MOL0     C28098   0.731  11.208   4.357 -1.1832  0.4840  0.0848
  209MOL0     C28099   0.785  11.334   4.338  0.6219  0.2792  0.4649
  209MOL0     C28100   0.754  11.444   4.435  0.3557  0.2790  0.3619
  209MOL0     C28101   0.694  11.580   4.369 -0.1109  0.9618  0.4085
  209MOL0     C28102   0.802  11.676   4.316 -0.0074 -0.3107  0.4729
  209MOL0     C28103   0.750  11.817   4.269 -0.2517 -0.5730  0.4559
  209MOL0     O28104   0.629  11.785   4.189  0.1004 -0.1538  0.0464
  209MOL0     C28105   0.560  11.881   4.122  0.4657  0.0559 -0.5683
  209MOL0     C28106   0.598  12.016   4.117  0.0266 -0.8092  0.1179
  209MOL0     C28107   0.530  12.103   4.032 -1.0584  0.3166  0.7739
  209MOL0     C28108   0.571  12.247   4.069  0.4832  0.3033 -0.0063
  209MOL0     C28109   0.423  12.057   3.949  0.1261 -0.2532  0.3458
  209MOL0     C28110   0.356  12.143   3.851  1.3186  0.1100  0.2462
  209MOL0     O28111   0.326  12.090   3.723  0.5746 -0.6438  0.5086
  209MOL0     C28112   0.274  12.170   3.616  0.0616  1.1164 -0.0254
  209MOL0     C28113   0.220  12.098   3.508 -0.4131  0.3746 -0.5966
  209MOL0     C28114   0.169  12.169   3.402  0.5839 -0.4385  0.3029
  209MOL0     C28115   0.166  12.305   3.398  0.6636  0.1300 -0.4139
  209MOL0     O28116   0.107  12.371   3.302  0.0200  0.0369 -0.1306
  209MOL0     C28117   0.078  12.321   3.170 -0.1306  0.2328  0.2381
  209MOL0     C28118   0.043  12.442   3.070 -0.3316 -0.8728 -0.2857
  209MOL0     C28119  -0.046  12.415   2.948 -0.8213 -0.0033  0.4101
  209MOL0     C28120   0.027  12.300   2.867  0.8783 -0.4594 -0.0637
  209MOL0     C28121  -0.049  12.267   2.732  0.2029  0.0244 -0.3664
  209MOL0     C28122  -0.031  12.355   2.614  1.0904 -0.2876  1.4907
  209MOL0     C28123  -0.137  12.358   2.508 -0.6497 -0.0274 -0.0833
  209MOL0     C28124  -0.194  12.222   2.469  0.9804 -0.3098 -0.6150
  209MOL0    Cl28125  -0.266  12.224   2.320 -0.0241  0.2005 -0.1169
  209MOL0     C28126   0.227  12.371   3.496 -0.1980  0.5605  0.5608
  209MOL0     C28127   0.284  12.311   3.612  0.0055  0.2142  0.5780
  209MOL0     O28128   0.318  12.255   3.889 -0.3945  0.3437  1.2721
  209MOL0     C28129   0.376  11.925   3.970 -0.2141  0.3297  0.4173
  209MOL0     C28130   0.443  11.834   4.062  0.2505 -0.1070 -0.0942
  209MOL0     N28131   0.834  11.345   4.206  0.4881 -0.2621 -0.7148
  209MOL0     N28132   0.824  11.224   4.157 -0.0542  0.5162  0.4999
  209MOL0     C28133   1.632  10.496   4.337  0.1016  0.4276 -0.0007
  209MOL0     C28134   1.689  10.457   4.453 -0.0056 -0.9985  0.0724
  209MOL0     C28135   1.898  10.468   4.858 -0.2411  0.0590  0.2640
  209MOL0     C28136   1.947  10.524   4.973 -0.4899  0.4155 -0.5923
  209MOL0     C28137   1.993  10.444   5.081 -1.1456  0.5913  0.6870
  209MOL0     C28138   1.993  10.307   5.072  0.4189  0.9597 -0.9565
  209MOL0     O28139   2.036  10.214   5.157  0.3811 -0.3413  0.1944
  209MOL0     C28140   2.083  10.264   5.281 -0.6094  0.7317 -0.9537
  209MOL0     C28141   2.103  10.140   5.371  1.2385  1.4728 -0.1650
  209MOL0     C28142   2.254  10.118   5.396  0.5291  1.0043 -0.6002
  209MOL0     C28143   2.271  10.007   5.505 -0.2632  0.3032  1.0575
  209MOL0     C28144   2.286  10.062   5.639  0.2388  0.1647 -0.8683
  209MOL0     C28145   2.303  10.077   5.756 -0.9823  0.1969  0.5570
  209MOL0     C28146   1.949  10.245   4.955  0.2570 -0.3873  1.0049
  209MOL0     C28147   1.895  10.325   4.849  0.3889  0.6402 -0.5402
  209MOL0     H28148   1.831  10.747   4.544  0.1923 -0.8931  1.6518
  209MOL0     H28149   1.723  10.823   4.340 -1.0966 -0.3229 -1.6558
  209MOL0     H28150   1.439  10.612   4.043 -1.3365  1.9054  0.0156
  209MOL0     H28151   1.406  10.600   4.219 -1.5506 -0.6156 -1.4902
  209MOL0     H28152   1.466  10.881   4.154  2.5927 -2.7461  0.5740
  209MOL0     H28153   1.370  10.827   4.019 -3.8937  1.9565  0.8730
  209MOL0     H28154   1.205  10.709   4.207  0.0613 -0.8098  0.3093
  209MOL0     H28155   1.249  10.857   4.287 -0.6528 -1.0941 -0.2562
  209MOL0     H28156   1.160  10.995   4.100 -1.8907  0.2342  1.5864
  209MOL0     H28157   1.161  10.855   3.991 -0.6871  1.6193 -0.4821
  209MOL0     H28158   0.954  10.916   4.047  2.9756  1.0507 -1.4613
  209MOL0     H28159   0.978  10.771   4.132  2.5692 -0.7729 -0.0815
  209MOL0     H28160   1.042  10.888   4.349 -0.4189 -0.1827 -0.6880
  209MOL0     H28161   1.014  11.038   4.269 -1.7070  0.1474 -0.9592
  209MOL0     H28162   0.802  10.800   4.283  0.1157 -0.5923  0.6183
  209MOL0     H28163   0.831  10.920   4.413  1.1831 -0.3488 -0.1418
  209MOL0     H28164   0.634  10.970   4.243  0.4549  1.1067 -1.6533
  209MOL0     H28165   0.762  10.983   4.121  0.3378  1.6719  0.7794
  209MOL0     H28166   0.680  11.166   4.443 -0.3822 -0.4075  0.1346
  209MOL0     H28167   0.687  11.401   4.511 -0.2848  0.0908 -0.3001
  209MOL0     H28168   0.851  11.469   4.478  0.7380 -2.2287  1.1763
  209MOL0     H28169   0.643  11.626   4.454  0.6420  0.5741  1.0782
  209MOL0     H28170   0.641  11.539   4.282  3.9606 -4.2894 -0.1272
  209MOL0     H28171   0.856  11.621   4.238 -1.6875 -0.5957 -0.5432
  209MOL0     H28172   0.865  11.702   4.402  0.3913 -0.0459  0.1079
  209MOL0     H28173   0.823  11.866   4.204 -1.4334  1.0223  0.2856
  209MOL0     H28174   0.717  11.885   4.348 -0.5714 -1.1071  0.7808
  209MOL0     H28175   0.665  12.066   4.186 -0.4565  3.6490 -2.2407
  209MOL0     H28176   0.533  12.310   3.989 -2.5858 -1.4504 -0.0884
  209MOL0     H28177   0.520  12.277   4.161 -0.8041  1.8648 -1.1852
  209MOL0     H28178   0.677  12.262   4.092  0.2669  1.5307  0.2356
  209MOL0     H28179   0.219  11.990   3.500 -0.7322  0.5147 -3.3740
  209MOL0     H28180   0.129  12.109   3.321  0.1627  0.3276 -0.0615
  209MOL0     H28181   0.165  12.274   3.125  0.9990  0.2193  2.3397
  209MOL0     H28182  -0.006  12.252   3.184 -2.1409  2.7622  1.7170
  209MOL0     H28183  -0.018  12.510   3.130 -0.1182  0.7837 -1.8495
  209MOL0     H28184   0.130  12.500   3.037 -2.8001  2.5772 -1.4234
  209MOL0     H28185  -0.073  12.505   2.892 -0.6995  0.6427  1.3502
  209MOL0     H28186  -0.147  12.389   2.983 -0.3451  1.7060  3.4543
  209MOL0     H28187   0.131  12.328   2.852  1.4769 -1.9691  1.0238
  209MOL0     H28188   0.024  12.215   2.936  0.2511  1.6947  2.7595
  209MOL0     H28189  -0.155  12.268   2.762  0.1892  0.4909 -0.4207
  209MOL0     H28190  -0.036  12.161   2.708 -3.0665 -0.1221 -2.2190
  209MOL0     H28191  -0.025  12.460   2.645 -1.9981  0.2467  0.6533
  209MOL0     H28192   0.066  12.339   2.565  1.3068 -0.8011  2.0801
  209MOL0     H28193  -0.091  12.409   2.423  2.5975  2.0139  2.6315
  209MOL0     H28194  -0.218  12.426   2.538 -2.6589 -2.5534  0.6213
  209MOL0     H28195  -0.279  12.199   2.534 -0.2312  2.3999 -1.1085
  209MOL0     H28196  -0.128  12.135   2.463 -0.7742 -1.7230 -0.3883
  209MOL0     H28197   0.241  12.478   3.482  1.9697  0.0699 -1.6840
  209MOL0     H28198   0.322  12.376   3.690 -4.4548  2.4160  1.2880
  209MOL0     H28199   0.286  11.885   3.925 -0.8401  0.3073  1.6548
  209MOL0     H28200   0.413  11.730   4.072 -0.4520  0.0870 -0.1254
  209MOL0     H28201   1.578  10.422   4.278 -0.9330  0.1385  1.2776
  209MOL0     H28202   1.682  10.354   4.488  0.7530 -1.5720 -1.3500
  209MOL0     H28203   1.936  10.629   4.996 -0.6291 -0.0626  1.7584
  209MOL0     H28204   2.036  10.491   5.169  1.2880 -3.8282  2.1740
  209MOL0     H28205   2.183  10.309   5.285  0.3665 -1.2589  3.8781
  209MOL0     H28206   2.026  10.341   5.333  2.3266  3.0202 -0.8086
  209MOL0     H28207   2.061  10.049   5.328 -0.1772  2.1106 -0.1940
  209MOL0     H28208   2.046  10.152   5.464  2.2277 -1.4433  0.9480
  209MOL0     H28209   2.294  10.212   5.433 -0.8107  0.7472  1.6507
  209MOL0     H28210   2.304  10.093   5.302 -0.2272 -0.2926 -0.6821
  209MOL0     H28211   2.360   9.944   5.493 -0.5519 -0.0212  0.5847
  209MOL0     H28212   2.186   9.939   5.494  1.0420 -1.3274  0.6308
  209MOL0     H28213   2.325  10.095   5.860  0.7195  1.0166  0.0882
  209MOL0     H28214   1.954  10.137   4.943 -0.5717 -0.4198  0.8774
  209MOL0     H28215   1.844  10.267   4.772  0.8604  0.8450 -1.0151
  210MOL0     O28216   8.699   9.614   5.867  0.0260 -0.5731 -0.6629
  210MOL0     C28217   8.640   9.671   5.779 -0.4501 -0.2000 -0.5261
  210MOL0     O28218   8.535   9.760   5.784  0.9687 -0.1863  0.1948
  210MOL0     C28219   8.476   9.809   5.898 -0.2623 -0.5459 -0.3565
  210MOL0     C28220   8.547   9.845   6.012  0.0491 -0.0635  0.2413
  210MOL0     C28221   8.485   9.911   6.122  1.0419  0.9107  1.1936
  210MOL0     C28222   8.346   9.940   6.113 -0.1392  0.1288 -0.2642
  210MOL0     O28223   8.285  10.007   6.218  0.4841  0.3104  0.4384
  210MOL0     C28224   8.251   9.919   6.323 -1.5236  0.4134 -0.1943
  210MOL0     C28225   8.300   9.990   6.451  0.4322 -0.5421 -0.3493
  210MOL0     C28226   8.445  10.042   6.447  0.0765  0.6126  1.1066
  210MOL0     C28227   8.493  10.081   6.589  0.1848  0.0324  0.6910
  210MOL0     C28228   8.473  10.226   6.613  0.1620  0.3044 -0.0855
  210MOL0     C28229   8.579  10.310   6.559  0.2696  0.1026  0.0232
  210MOL0     C28230   8.524  10.458   6.564 -0.8628 -0.3998  0.3393
  210MOL0     C28231   8.619  10.563   6.509 -1.3894 -0.9593 -0.1268
  210MOL0     N28232   8.741  10.568   6.589 -0.0056 -0.4134  0.4277
  210MOL0     C28233   8.740  10.622   6.719  0.4969 -0.5077  0.1397
  210MOL0     C28234   8.865  10.604   6.753 -0.4967 -1.2555 -0.9181
  210MOL0     C28235   8.917  10.616   6.898 -0.6308  0.2944  0.9106
  210MOL0     C28236   8.988  10.756   6.919 -0.7004 -0.2208  0.3951
  210MOL0     C28237   8.894  10.866   6.962  0.1322  0.6475  0.1756
  210MOL0     C28238   8.871  10.972   6.859 -0.0120 -0.7705 -0.2478
  210MOL0     O28239   8.792  11.077   6.911  0.1989 -0.7229  0.8559
  210MOL0     C28240   8.668  11.052   6.959 -0.8511  0.2982 -0.3703
  210MOL0     C28241   8.602  11.145   7.022 -0.1874  0.1457  0.4086
  210MOL0     C28242   8.467  11.154   7.049  0.5100  0.4992 -0.9979
  210MOL0     C28243   8.419  11.284   7.113  0.4335  0.1864  1.0457
  210MOL0     C28244   8.386  11.051   6.988 -0.6720  0.3114 -0.1430
  210MOL0     C28245   8.236  11.049   6.993 -0.5335 -0.9755 -0.6010
  210MOL0     O28246   8.183  10.976   6.880  0.4242  0.1601  0.7793
  210MOL0     C28247   8.042  10.966   6.878 -0.4216  0.2484  0.5725
  210MOL0     C28248   7.983  10.848   6.905  0.0604  0.0401  0.8133
  210MOL0     C28249   7.838  10.827   6.900 -0.5235 -0.8545 -0.4613
  210MOL0     C28250   7.754  10.932   6.868 -0.1718 -0.7764 -0.6433
  210MOL0     O28251   7.620  10.901   6.874  0.4252  0.1474 -0.9955
  210MOL0     C28252   7.528  10.987   6.808 -0.6622  0.4551  0.2309
  210MOL0     C28253   7.380  10.934   6.821 -0.0662 -0.2777 -0.5954
  210MOL0     C28254   7.366  10.798   6.766 -0.0232  0.6063 -0.7454
  210MOL0     C28255   7.223  10.760   6.731  0.8893 -0.6024 -0.1705
  210MOL0     C28256   7.204  10.610   6.688 -1.6853 -0.5427 -0.1773
  210MOL0     C28257   7.074  10.573   6.623 -0.8349 -0.9385  0.1686
  210MOL0     C28258   7.069  10.416   6.628 -0.0285 -0.1651 -0.0472
  210MOL0     C28259   6.927  10.366   6.609  1.1220 -0.0859 -0.1606
  210MOL0    Cl28260   6.927  10.192   6.580  0.6529  0.0189  0.1318
  210MOL0     C28261   7.814  11.055   6.820  0.5189  0.9501  0.1666
  210MOL0     C28262   7.952  11.071   6.831  0.9343  0.8272  0.0664
  210MOL0     O28263   8.168  11.099   7.082 -0.2368 -0.5413  0.2932
  210MOL0     C28264   8.453  10.947   6.923  0.1930 -0.3474  0.0489
  210MOL0     C28265   8.595  10.952   6.907  0.5267 -0.1872 -0.2167
  210MOL0     N28266   8.937  10.544   6.646 -0.2042  0.2783  0.7208
  210MOL0     N28267   8.866  10.531   6.543  1.0363  0.0833  0.3470
  210MOL0     C28268   8.275   9.887   6.000  0.0702 -0.2034 -0.3386
  210MOL0     C28269   8.337   9.825   5.889  0.3380 -0.1728 -0.0155
  210MOL0     C28270   8.714   9.655   5.648  0.3514 -1.1728 -0.2134
  210MOL0     C28271   8.686   9.742   5.545  0.3747 -0.1003  0.5993
  210MOL0     C28272   8.732   9.718   5.413  0.3541  0.7026 -0.1243
  210MOL0     C28273   8.811   9.610   5.387 -0.1907  0.2090 -0.1543
  210MOL0     O28274   8.846   9.588   5.256 -0.1616  0.3772 -0.3151
  210MOL0     C28275   8.965   9.522   5.228  0.1874  0.3655  0.5521
  210MOL0     C28276   8.993   9.548   5.080  0.2968 -0.4163 -0.0724
  210MOL0     C28277   9.105   9.464   5.024  0.3852  0.0456  1.2001
  210MOL0     C28278   9.112   9.465   4.877  0.6158  0.3056 -0.1225
  210MOL0     C28279   9.082   9.592   4.805 -0.9821  0.1440 -0.2277
  210MOL0     C28280   9.065   9.694   4.754 -0.5897  0.0407  0.8177
  210MOL0     C28281   8.838   9.521   5.484  0.7730 -0.3534  0.6256
  210MOL0     C28282   8.788   9.537   5.620 -0.2760 -0.9395 -0.5231
  210MOL0     H28283   8.650   9.822   6.035 -0.4806  0.0567  3.0682
  210MOL0     H28284   8.538   9.921   6.217 -0.3306 -1.2076  2.2698
  210MOL0     H28285   8.142   9.905   6.323 -1.4925 -0.1891 -2.3181
  210MOL0     H28286   8.301   9.823   6.311  0.9175  1.8547 -2.6037
  210MOL0     H28287   8.243  10.082   6.465 -0.1497 -0.7783 -1.1575
  210MOL0     H28288   8.278   9.935   6.543 -1.2286  0.5223 -0.0757
  210MOL0     H28289   8.511   9.958   6.426 -0.5390  0.3086  0.3222
  210MOL0     H28290   8.472  10.125   6.381 -1.1516  1.6600  1.8566
  210MOL0     H28291   8.445  10.020   6.666 -0.5528  1.4646  1.4085
  210MOL0     H28292   8.601  10.066   6.596  0.7765  2.6162 -1.2812
  210MOL0     H28293   8.379  10.267   6.575  1.5090  3.9472  0.1263
  210MOL0     H28294   8.473  10.237   6.721  3.2901  4.0849 -0.2734
  210MOL0     H28295   8.671  10.296   6.616 -0.9021 -0.3096  1.9048
  210MOL0     H28296   8.598  10.291   6.453  0.8587 -1.9322  0.4378
  210MOL0     H28297   8.440  10.460   6.494 -1.8418  1.0263  1.4917
  210MOL0     H28298   8.486  10.480   6.665 -1.1676 -1.0865  0.3780
  210MOL0     H28299   8.565  10.658   6.512 -2.7027 -1.6990  1.1867
  210MOL0     H28300   8.651  10.542   6.406  1.2141  1.4705  0.0660
  210MOL0     H28301   8.651  10.652   6.773  1.1748  0.0850  0.9471
  210MOL0     H28302   8.846  10.590   6.977 -1.6104 -1.4978 -0.4699
  210MOL0     H28303   8.995  10.540   6.893  1.1579  2.1122 -2.0570
  210MOL0     H28304   9.049  10.770   6.829 -0.5153  2.0410  0.8121
  210MOL0     H28305   9.066  10.758   6.997 -1.5567  0.1433  1.2638
  210MOL0     H28306   8.932  10.901   7.058  3.6363 -1.9117 -0.0721
  210MOL0     H28307   8.802  10.812   6.987  0.5903 -0.2670 -0.0367
  210MOL0     H28308   8.817  10.933   6.772 -0.4947 -1.4010  0.3289
  210MOL0     H28309   8.968  11.016   6.832  0.2428 -0.4429  1.1544
  210MOL0     H28310   8.666  11.229   7.046  1.8905 -1.0716 -0.6619
  210MOL0     H28311   8.484  11.371   7.098 -1.1353  1.2564  0.2389
  210MOL0     H28312   8.320  11.316   7.080  0.3719 -0.4141  0.6429
  210MOL0     H28313   8.428  11.280   7.222  1.1972 -0.6043  0.9635
  210MOL0     H28314   8.054  10.768   6.919  0.2326  0.1913  0.8143
  210MOL0     H28315   7.797  10.729   6.926  3.4604 -2.3165  1.0924
  210MOL0     H28316   7.540  11.084   6.857 -2.2639 -0.7914  3.3826
  210MOL0     H28317   7.556  10.985   6.702 -1.3863  2.0288 -0.0201
  210MOL0     H28318   7.349  10.929   6.925 -2.9923  0.9589 -1.3040
  210MOL0     H28319   7.326  11.008   6.760 -1.4219  0.2221  1.1502
  210MOL0     H28320   7.387  10.726   6.845 -0.2778 -0.8172 -1.9258
  210MOL0     H28321   7.429  10.787   6.677  1.5640  1.2261  0.2731
  210MOL0     H28322   7.165  10.774   6.823  0.1892 -0.9444 -0.5482
  210MOL0     H28323   7.190  10.827   6.651  2.3841  3.8470  2.5201
  210MOL0     H28324   7.210  10.559   6.784 -1.9034  0.3983  0.3472
  210MOL0     H28325   7.289  10.581   6.626  1.0401  2.3620  1.8977
  210MOL0     H28326   6.991  10.630   6.664 -1.0295 -0.3523 -1.0046
  210MOL0     H28327   7.090  10.609   6.521  1.3947  1.2466  1.1925
  210MOL0     H28328   7.102  10.391   6.729 -0.7265 -5.4919 -0.8252
  210MOL0     H28329   7.138  10.372   6.555  1.2319 -2.1381  2.1798
  210MOL0     H28330   6.872  10.403   6.522 -0.4080  1.0935  1.2300
  210MOL0     H28331   6.861  10.374   6.696 -0.3441  1.6441 -1.3619
  210MOL0     H28332   7.751  11.135   6.783 -1.4953 -0.7125 -0.2160
  210MOL0     H28333   8.006  11.156   6.792  1.0718  1.3219  1.3120
  210MOL0     H28334   8.399  10.867   6.874  0.0174 -0.5850  0.6271
  210MOL0     H28335   8.642  10.875   6.847 -0.3660 -1.1983  0.3529
  210MOL0     H28336   8.167   9.889   5.987 -0.2438  2.8449  1.8171
  210MOL0     H28337   8.294   9.817   5.790  2.1642 -3.2640 -0.6876
  210MOL0     H28338   8.624   9.830   5.556 -0.1328 -0.3922  0.1617
  210MOL0     H28339   8.717   9.789   5.333  0.1306  0.9332  0.1199
  210MOL0     H28340   9.048   9.568   5.281  1.3454 -2.4760  1.4047
  210MOL0     H28341   8.964   9.416   5.254 -1.0829  0.2033 -0.0843
  210MOL0     H28342   9.020   9.654   5.070 -0.9766  0.0462  1.1268
  210MOL0     H28343   8.902   9.532   5.020 -0.0312  2.4939 -0.5106
  210MOL0     H28344   9.093   9.361   5.057 -0.4387 -0.2643 -0.0069
  210MOL0     H28345   9.201   9.499   5.064  0.2430 -1.3235  2.8406
  210MOL0     H28346   9.034   9.397   4.844 -1.4549  1.2970  2.4316
  210MOL0     H28347   9.215   9.442   4.847  1.1229  3.9493 -1.7729
  210MOL0     H28348   9.058   9.798   4.728  3.7034 -0.0304 -1.5039
  210MOL0     H28349   8.892   9.430   5.459  0.4557 -0.9701  2.0593
  210MOL0     H28350   8.805   9.456   5.691  1.6352 -0.4888 -0.4123
  211MOL0     O28351  11.188   9.977   3.410 -0.2207  0.7950  0.1350
  211MOL0     C28352  11.260  10.068   3.369  0.0509  1.0560  0.3411
  211MOL0     O28353  11.288  10.185   3.440  0.6847  0.2069  0.0814
  211MOL0     C28354  11.291  10.189   3.579  0.2686  0.1357  0.0653
  211MOL0     C28355  11.318  10.322   3.630  0.8608 -0.6867  1.0126
  211MOL0     C28356  11.306  10.364   3.758 -1.2909  0.9801 -0.7612
  211MOL0     C28357  11.273  10.264   3.856  0.0182  0.2098 -0.0696
  211MOL0     O28358  11.259  10.310   3.985 -0.0051 -0.4233 -0.1455
  211MOL0     C28359  11.281  10.232   4.107  0.0768 -0.2467 -0.2676
  211MOL0     C28360  11.419  10.171   4.129 -0.2043 -0.1921  0.2059
  211MOL0     C28361  11.538  10.252   4.075  0.0014  0.2624  0.0248
  211MOL0     C28362  11.668  10.205   4.128 -0.1104 -0.4233  0.4328
  211MOL0     C28363  11.788  10.234   4.038  1.1532  0.9355 -0.0014
  211MOL0     C28364  11.925  10.183   4.092 -0.1406 -0.3382  0.1653
  211MOL0     C28365  12.040  10.235   4.009 -0.4048 -0.5936  0.6045
  211MOL0     C28366  12.131  10.329   4.092  0.0591  0.8336  0.0568
  211MOL0     N28367  12.077  10.460   4.108 -0.2016  0.2850  0.0065
  211MOL0     C28368  12.022  10.508   4.225  0.1713  0.6152  0.5953
  211MOL0     C28369  12.019  10.644   4.205  0.1888 -0.3458 -0.3564
  211MOL0     C28370  11.966  10.740   4.313  0.2005 -0.0380 -0.0606
  211MOL0     C28371  11.828  10.686   4.372 -0.7734 -0.8407 -0.3663
  211MOL0     C28372  11.710  10.704   4.267  0.3189  0.2779 -0.2748
  211MOL0     C28373  11.571  10.668   4.318 -0.1065 -0.6892 -0.8153
  211MOL0     O28374  11.575  10.541   4.386  0.2755 -0.6993 -0.6492
  211MOL0     C28375  11.478  10.517   4.489  0.2928  0.7341  1.3308
  211MOL0     C28376  11.386  10.613   4.534  0.5730 -0.2200  0.4506
  211MOL0     C28377  11.310  10.595   4.651 -0.9485  0.6463 -0.2528
  211MOL0     C28378  11.217  10.704   4.692  0.2275 -0.2055  0.3500
  211MOL0     C28379  11.313  10.466   4.715  0.2111 -0.8205  0.8468
  211MOL0     C28380  11.219  10.431   4.825  0.3771 -0.2341 -0.2236
  211MOL0     O28381  11.083  10.441   4.794 -0.5760 -0.1623  0.8629
  211MOL0     C28382  10.997  10.424   4.899  0.1530  0.5946 -0.7732
  211MOL0     C28383  10.936  10.520   4.971  0.6893  0.8570 -0.3035
  211MOL0     C28384  10.853  10.484   5.079 -0.2378 -0.6690  1.5567
  211MOL0     C28385  10.816  10.351   5.111 -0.1628 -0.0373 -0.6660
  211MOL0     O28386  10.739  10.332   5.223  0.1166 -0.1047 -0.2667
  211MOL0     C28387  10.742  10.198   5.281  0.3057  0.4460  0.1489
  211MOL0     C28388  10.664  10.197   5.408 -0.0442  0.0693 -0.3928
  211MOL0     C28389  10.513  10.178   5.378  0.2699 -0.1493  0.3385
  211MOL0     C28390  10.437  10.194   5.507 -0.3412  0.8490  0.4168
  211MOL0     C28391  10.287  10.151   5.493  0.1854 -0.2117  0.9551
  211MOL0     C28392  10.208  10.176   5.619  0.6738 -0.0831 -0.1969
  211MOL0     C28393  10.066  10.111   5.612 -0.7675  0.2957 -0.0382
  211MOL0     C28394  10.053   9.973   5.693  0.1751 -0.2019  0.0661
  211MOL0    Cl28395  10.115   9.836   5.606 -0.4904  0.7567  0.1992
  211MOL0     C28396  10.880  10.245   5.031  0.6647 -0.7190 -0.3925
  211MOL0     C28397  10.968  10.291   4.928  0.0555 -1.1513 -0.1606
  211MOL0     O28398  11.269  10.380   4.925 -0.3788 -0.4036 -0.2385
  211MOL0     C28399  11.392  10.360   4.660  0.0587  0.5344 -0.0381
  211MOL0     C28400  11.475  10.392   4.552 -0.0184  0.3586  0.1181
  211MOL0     N28401  12.066  10.670   4.084  0.5248 -0.8741  0.7743
  211MOL0     N28402  12.085  10.562   4.022 -0.8551 -0.6342  1.2723
  211MOL0     C28403  11.248  10.129   3.811  0.3961 -0.4781  0.5958
  211MOL0     C28404  11.255  10.095   3.677  0.2737  0.3921  0.6350
  211MOL0     C28405  11.336  10.042   3.241 -0.1726 -0.3210  0.2531
  211MOL0     C28406  11.451  10.116   3.219 -0.3298 -1.0270  0.5318
  211MOL0     C28407  11.525  10.109   3.101  1.0588 -0.0268  0.6840
  211MOL0     C28408  11.478  10.023   3.003  0.0166  0.6373  0.0669
  211MOL0     O28409  11.540  10.000   2.885  0.3677 -0.2440  0.0157
  211MOL0     C28410  11.612  10.109   2.815  0.2751 -0.4601  0.1547
  211MOL0     C28411  11.533  10.195   2.719  0.2809  0.5580 -0.2892
  211MOL0     C28412  11.425  10.284   2.788 -0.9525  0.3335 -0.4662
  211MOL0     C28413  11.383  10.401   2.704  0.3349 -0.0680  0.1294
  211MOL0     C28414  11.315  10.354   2.589 -0.1565  0.0340 -0.3535
  211MOL0     C28415  11.262  10.303   2.488 -0.6074  0.3419  0.1525
  211MOL0     C28416  11.367   9.933   3.028 -0.1896  0.6911 -1.1539
  211MOL0     C28417  11.299   9.941   3.152 -0.2160  0.5941 -0.4398
  211MOL0     H28418  11.345  10.404   3.564  0.8779  0.7537  2.7538
  211MOL0     H28419  11.327  10.466   3.790  0.6009  0.9803 -1.8728
  211MOL0     H28420  11.269  10.305   4.188  0.6467 -1.3582  0.8526
  211MOL0     H28421  11.198  10.164   4.128 -0.7175  0.6741 -0.3796
  211MOL0     H28422  11.427  10.146   4.235  2.3060  3.1975  0.9648
  211MOL0     H28423  11.411  10.078   4.071 -0.7730  0.2392 -0.4342
  211MOL0     H28424  11.532  10.256   3.966  0.9762 -1.2532 -0.1116
  211MOL0     H28425  11.517  10.357   4.097 -1.1292  0.5703 -2.1714
  211MOL0     H28426  11.683  10.259   4.222  0.4032  1.4512 -0.6833
  211MOL0     H28427  11.660  10.099   4.157 -1.3867 -1.7117 -3.9030
  211MOL0     H28428  11.766  10.184   3.944 -2.1128  0.8374  0.6991
  211MOL0     H28429  11.792  10.341   4.015  2.7945  0.3794 -2.7199
  211MOL0     H28430  11.944  10.200   4.198 -3.2505  0.6449  0.6595
  211MOL0     H28431  11.921  10.073   4.099 -1.3333 -0.3282 -0.2047
  211MOL0     H28432  12.109  10.151   3.994  2.5124  1.1233  3.2799
  211MOL0     H28433  12.001  10.288   3.922 -4.1700  1.1995  3.1017
  211MOL0     H28434  12.231  10.335   4.046  0.5197  0.8236  1.0368
  211MOL0     H28435  12.152  10.271   4.182 -1.0665 -2.2346 -1.4965
  211MOL0     H28436  11.994  10.440   4.304  0.9485 -1.9286 -1.1954
  211MOL0     H28437  12.040  10.757   4.392  2.8635  2.3874 -2.7913
  211MOL0     H28438  11.953  10.834   4.259  0.1963  0.0819  0.1461
  211MOL0     H28439  11.794  10.742   4.459  0.7215 -1.2073  0.4860
  211MOL0     H28440  11.841  10.583   4.409 -2.0373 -0.6968  0.5609
  211MOL0     H28441  11.711  10.631   4.186 -3.9777 -2.7859  1.9593
  211MOL0     H28442  11.717  10.808   4.235  2.8158  0.0359 -0.6894
  211MOL0     H28443  11.508  10.649   4.231 -0.5555 -1.0731 -0.4124
  211MOL0     H28444  11.550  10.753   4.383 -1.4009 -0.2455 -1.7736
  211MOL0     H28445  11.378  10.700   4.470  2.4809  1.5580  2.4756
  211MOL0     H28446  11.117  10.697   4.648 -0.9329  2.5777  2.2718
  211MOL0     H28447  11.199  10.713   4.799 -1.8826 -2.6754  0.3040
  211MOL0     H28448  11.262  10.795   4.651 -0.6358  0.1265  0.1171
  211MOL0     H28449  10.948  10.625   4.945 -3.5907  1.2669 -1.4006
  211MOL0     H28450  10.829  10.560   5.152  0.9594  1.6092 -0.2617
  211MOL0     H28451  10.699  10.124   5.212  1.5051  1.0362 -1.2961
  211MOL0     H28452  10.847  10.169   5.292  1.7375  3.4948 -3.3235
  211MOL0     H28453  10.693  10.114   5.474 -1.1137  0.6073  0.8034
  211MOL0     H28454  10.691  10.288   5.463 -0.4072  0.3542 -0.6820
  211MOL0     H28455  10.488  10.077   5.345 -2.3613  0.9596 -1.3898
  211MOL0     H28456  10.473  10.248   5.305 -0.7622 -0.6426  0.4147
  211MOL0     H28457  10.481  10.127   5.582 -1.9988 -1.3310 -0.4637
  211MOL0     H28458  10.431  10.294   5.550 -2.5239  0.0172  2.2643
  211MOL0     H28459  10.284  10.045   5.465  4.6337 -0.3970  0.3976
  211MOL0     H28460  10.237  10.195   5.406  1.0901 -4.4134 -2.0465
  211MOL0     H28461  10.263  10.132   5.703 -3.2302 -0.8542  2.2140
  211MOL0     H28462  10.197  10.280   5.650  0.2883 -0.5304  1.2204
  211MOL0     H28463  10.034  10.098   5.509  0.6632  0.6936 -0.5657
  211MOL0     H28464   9.994  10.176   5.662 -0.9978 -2.2915  3.4216
  211MOL0     H28465   9.947   9.949   5.701  0.5845 -1.8358  1.1260
  211MOL0     H28466  10.096   9.982   5.793 -0.6544  3.9758  0.2409
  211MOL0     H28467  10.846  10.143   5.044  1.3430 -0.8476  0.4426
  211MOL0     H28468  11.014  10.214   4.867 -0.7046 -0.3182 -1.8331
  211MOL0     H28469  11.378  10.258   4.692 -2.5775  0.8577  0.0938
  211MOL0     H28470  11.529  10.300   4.531  0.1829  0.3543  0.6442
  211MOL0     H28471  11.222  10.063   3.893 -1.3265  1.1590  1.4538
  211MOL0     H28472  11.247   9.989   3.653  3.3894  0.3873 -0.8852
  211MOL0     H28473  11.479  10.177   3.304  1.6687  0.7660 -1.2727
  211MOL0     H28474  11.617  10.167   3.091  0.0575  1.5098  0.0297
  211MOL0     H28475  11.663  10.177   2.883  2.0128 -0.3065 -1.2323
  211MOL0     H28476  11.696  10.063   2.761  1.3241 -0.8482  2.0286
  211MOL0     H28477  11.478  10.134   2.647  1.5377 -0.7385 -0.2024
  211MOL0     H28478  11.606  10.254   2.662  2.1064 -1.0391  0.2475
  211MOL0     H28479  11.471  10.333   2.875  0.9089  2.4668 -2.4977
  211MOL0     H28480  11.334  10.226   2.805 -0.9543  0.2321 -0.8123
  211MOL0     H28481  11.465  10.469   2.680  1.1031  0.0348  2.7086
  211MOL0     H28482  11.314  10.466   2.757  1.2341 -0.9304  2.4861
  211MOL0     H28483  11.208  10.251   2.411 -4.1822  2.8265  0.7314
  211MOL0     H28484  11.343   9.854   2.958 -0.6715 -2.8885  2.6845
  211MOL0     H28485  11.209   9.881   3.163  0.0829 -0.7702 -4.1148
  212MOL0     O28486   2.371  10.560   6.350 -0.9392 -0.1847 -0.1949
  212MOL0     C28487   2.386  10.653   6.430 -0.3066 -0.1160 -0.6139
  212MOL0     O28488   2.360  10.780   6.403  0.0950 -0.4595 -0.6173
  212MOL0     C28489   2.315  10.800   6.276  0.0161  0.5556  0.4301
  212MOL0     C28490   2.389  10.868   6.173  0.3951  0.2266  0.1386
  212MOL0     C28491   2.331  10.903   6.055  0.9005  0.4959  0.0684
  212MOL0     C28492   2.194  10.877   6.023 -1.2469  0.2628 -0.9700
  212MOL0     O28493   2.135  10.928   5.922  0.5975 -0.1814  0.4129
  212MOL0     C28494   2.169  11.056   5.878 -0.2747  0.7240 -0.2764
  212MOL0     C28495   2.042  11.094   5.798 -0.6602 -0.1206 -0.7385
  212MOL0     C28496   2.051  11.233   5.739  0.1816  0.0698 -0.8008
  212MOL0     C28497   2.094  11.351   5.827  0.8186 -0.0238 -0.5589
  212MOL0     C28498   2.047  11.497   5.788  0.1201 -0.3695  0.5778
  212MOL0     C28499   2.095  11.608   5.879 -0.3495 -0.5564 -0.4613
  212MOL0     C28500   2.034  11.732   5.831  0.5936 -0.0126 -0.2194
  212MOL0     C28501   2.087  11.857   5.913 -0.0286  0.6984 -0.4758
  212MOL0     N28502   2.181  11.930   5.829 -0.2360  0.1610 -0.1890
  212MOL0     C28503   2.139  12.038   5.763 -1.1606  0.7380  0.2363
  212MOL0     C28504   2.264  12.097   5.735  0.0735 -0.5073 -0.2231
  212MOL0     C28505   2.265  12.226   5.659 -0.2200  0.8966 -0.2256
  212MOL0     C28506   2.295  12.335   5.760  0.0542 -0.0706  0.1758
  212MOL0     C28507   2.325  12.460   5.674  0.6253  0.8451  0.2333
  212MOL0     C28508   2.348  12.583   5.758 -1.0148  0.1670  0.4373
  212MOL0     O28509   2.222  12.641   5.778 -0.1113  0.4141  0.3518
  212MOL0     C28510   2.206  12.707   5.895  0.6067  0.8922 -0.7775
  212MOL0     C28511   2.300  12.762   5.978 -0.0757  0.3321 -0.5334
  212MOL0     C28512   2.273  12.850   6.082 -0.1068 -0.7911 -0.2478
  212MOL0     C28513   2.392  12.916   6.154 -0.0232  0.5539  0.1848
  212MOL0     C28514   2.137  12.879   6.125 -0.3546  0.8109  0.6062
  212MOL0     C28515   2.091  12.960   6.246  0.3952  0.5347  0.6911
  212MOL0     O28516   1.953  12.966   6.266  0.3183  0.2841 -0.5496
  212MOL0     C28517   1.901  13.075   6.324 -0.2509 -0.2811 -0.4413
  212MOL0     C28518   1.874  13.184   6.247  0.5114  0.0884 -0.1698
  212MOL0     C28519   1.782  13.290   6.302 -0.3708 -0.0686  0.6135
  212MOL0     C28520   1.738  13.283   6.438 -0.0566  1.0647 -0.0660
  212MOL0     O28521   1.653  13.377   6.485 -0.0389  0.6127  0.1017
  212MOL0     C28522   1.671  13.430   6.618 -0.0951 -0.6205  0.0364
  212MOL0     C28523   1.602  13.563   6.641  0.0553  0.3108  0.0321
  212MOL0     C28524   1.439  13.546   6.652  0.4444  0.4853 -0.3479
  212MOL0     C28525   1.354  13.674   6.638 -0.0116 -0.7322 -0.2043
  212MOL0     C28526   1.199  13.636   6.614 -0.4582  0.2489 -0.3353
  212MOL0     C28527   1.168  13.584   6.472  1.0659 -0.2534 -0.4215
  212MOL0     C28528   1.010  13.565   6.439  0.7810 -0.4723 -0.7536
  212MOL0     C28529   0.935  13.454   6.517 -0.1299 -0.4518 -0.5484
  212MOL0    Cl28530   0.869  13.533   6.672 -0.1829  0.0589  0.0190
  212MOL0     C28531   1.782  13.169   6.514 -0.2890 -1.3229  0.3235
  212MOL0     C28532   1.851  13.064   6.450 -0.3515  0.8063 -0.2810
  212MOL0     O28533   2.170  13.000   6.333  0.3399 -0.2174  0.8477
  212MOL0     C28534   2.037  12.819   6.049 -0.4062  0.9606  0.9203
  212MOL0     C28535   2.071  12.738   5.938 -0.7000  1.3723  0.1828
  212MOL0     N28536   2.370  12.023   5.783  0.6760  0.1993 -0.0255
  212MOL0     N28537   2.314  11.919   5.834 -0.3360  0.3775  0.0244
  212MOL0     C28538   2.116  10.800   6.116 -0.1048 -0.4842 -0.1622
  212MOL0     C28539   2.178  10.769   6.241 -0.6249  0.4412  0.0466
  212MOL0     C28540   2.412  10.620   6.576 -0.1502 -0.7736 -0.6397
  212MOL0     C28541   2.426  10.488   6.621 -0.0787  1.0833  0.5699
  212MOL0     C28542   2.485  10.462   6.740 -0.0911  0.4651  0.8503
  212MOL0     C28543   2.531  10.562   6.827 -0.1543 -0.3746  0.2848
  212MOL0     O28544   2.574  10.542   6.964 -0.0785  0.2812  0.3220
  212MOL0     C28545   2.600  10.648   7.049 -0.0523  0.3886 -0.2340
  212MOL0     C28546   2.614  10.576   7.183  0.3941  0.2499  0.6459
  212MOL0     C28547   2.683  10.673   7.284 -0.5491 -0.8237 -0.1037
  212MOL0     C28548   2.661  10.631   7.433 -0.3073 -0.6512 -1.3179
  212MOL0     C28549   2.515  10.663   7.461 -0.6622  0.2441 -0.4931
  212MOL0     C28550   2.397  10.689   7.476 -0.2604  0.3776 -0.5185
  212MOL0     C28551   2.522  10.699   6.775  0.5895 -1.5033 -0.1285
  212MOL0     C28552   2.445  10.731   6.656 -0.3490  0.9912  0.0775
  212MOL0     H28553   2.494  10.885   6.191  0.0013  2.6568  0.4892
  212MOL0     H28554   2.398  10.955   5.987  0.2280  0.9365 -0.2625
  212MOL0     H28555   2.195  11.123   5.961  4.6106  0.9236 -1.7022
  212MOL0     H28556   2.257  11.053   5.814 -2.9126 -0.2226 -4.2023
  212MOL0     H28557   2.025  11.020   5.720  0.5221  0.4797 -1.5852
  212MOL0     H28558   1.955  11.108   5.863  2.2102  1.1751  3.2373
  212MOL0     H28559   2.123  11.236   5.657  1.1646  1.6126  0.0685
  212MOL0     H28560   1.947  11.247   5.707 -0.3238  0.3601  0.8595
  212MOL0     H28561   2.051  11.339   5.927  4.4105  1.3412  1.3352
  212MOL0     H28562   2.201  11.348   5.848  0.9081  1.0534 -0.7959
  212MOL0     H28563   2.079  11.510   5.685 -0.4952  1.4256  0.5778
  212MOL0     H28564   1.938  11.502   5.790  0.1773  2.2273  2.0107
  212MOL0     H28565   2.065  11.590   5.982  2.6558  1.9703  1.0379
  212MOL0     H28566   2.203  11.618   5.868 -0.2273 -2.2302 -1.0381
  212MOL0     H28567   2.048  11.744   5.723  3.2978  2.0015  0.2283
  212MOL0     H28568   1.927  11.727   5.854 -0.0426 -3.0643 -3.0925
  212MOL0     H28569   2.134  11.829   6.007 -1.8612  0.7859  0.5114
  212MOL0     H28570   2.004  11.922   5.941 -0.0959  0.1791  0.5912
  212MOL0     H28571   2.043  12.079   5.734 -0.0619  1.7047 -2.3345
  212MOL0     H28572   2.343  12.221   5.582  0.1293  0.3278  0.1526
  212MOL0     H28573   2.171  12.241   5.606  0.6948 -0.6508 -2.4393
  212MOL0     H28574   2.384  12.315   5.820  0.2241  2.2256  0.7856
  212MOL0     H28575   2.209  12.363   5.821 -1.5714 -1.4673 -1.3603
  212MOL0     H28576   2.237  12.482   5.612  0.9822  0.7893 -0.3027
  212MOL0     H28577   2.413  12.450   5.609 -0.5828  1.7482 -1.6216
  212MOL0     H28578   2.412  12.653   5.703 -1.2697  0.2745  0.2741
  212MOL0     H28579   2.414  12.571   5.845  0.8689 -0.5965 -1.0330
  212MOL0     H28580   2.407  12.749   5.962 -0.1205 -1.1813  0.2730
  212MOL0     H28581   2.491  12.879   6.126 -1.2338 -3.1969  0.3842
  212MOL0     H28582   2.381  13.022   6.127  0.1164  0.1133 -1.7384
  212MOL0     H28583   2.391  12.889   6.260  0.2271  2.1017  0.6101
  212MOL0     H28584   1.900  13.169   6.143 -0.5984  2.0298 -0.7826
  212MOL0     H28585   1.741  13.356   6.227  0.4473 -2.2371 -1.9084
  212MOL0     H28586   1.621  13.354   6.679  0.1181 -0.7455  0.0543
  212MOL0     H28587   1.774  13.454   6.642 -0.9100  2.5049  0.7829
  212MOL0     H28588   1.656  13.589   6.732 -2.7175  2.0815  1.3034
  212MOL0     H28589   1.624  13.637   6.563 -2.2938 -0.9123 -1.9325
  212MOL0     H28590   1.426  13.503   6.751  0.8605  2.7326  0.7527
  212MOL0     H28591   1.404  13.475   6.576  3.6464  0.4728 -2.0002
  212MOL0     H28592   1.358  13.722   6.736 -3.5729  0.0076 -0.2830
  212MOL0     H28593   1.387  13.732   6.551 -1.6528  4.9523  2.4846
  212MOL0     H28594   1.142  13.727   6.637  1.5181  2.3200 -2.8816
  212MOL0     H28595   1.179  13.554   6.684 -1.9861 -0.8836 -2.0236
  212MOL0     H28596   1.207  13.665   6.411 -0.4199  1.5886  0.9748
  212MOL0     H28597   1.204  13.487   6.435 -0.1169  0.0407 -2.4869
  212MOL0     H28598   0.985  13.556   6.333 -2.3348  3.0802 -0.5368
  212MOL0     H28599   0.960  13.657   6.469  0.9373 -0.0933 -1.6208
  212MOL0     H28600   1.002  13.372   6.546  1.0916  0.2051 -1.4299
  212MOL0     H28601   0.854  13.416   6.455 -0.5044 -1.1077  0.3164
  212MOL0     H28602   1.760  13.150   6.618  2.3807 -0.8387  1.0313
  212MOL0     H28603   1.867  12.967   6.496  1.7865  1.2980  0.1364
  212MOL0     H28604   1.931  12.831   6.068 -0.2998  1.3115  1.3292
  212MOL0     H28605   1.986  12.705   5.879  0.1006 -2.4091  0.9311
  212MOL0     H28606   2.010  10.787   6.096 -0.2178  3.4954 -3.6609
  212MOL0     H28607   2.106  10.715   6.302  2.7984 -0.2414  3.9026
  212MOL0     H28608   2.392  10.404   6.561 -1.5383  2.2882 -0.3378
  212MOL0     H28609   2.483  10.359   6.771  0.4374 -0.2297 -1.2476
  212MOL0     H28610   2.689  10.704   7.018 -1.1467  2.6690  0.5770
  212MOL0     H28611   2.518  10.720   7.047  1.3482  2.0548  0.1215
  212MOL0     H28612   2.675  10.486   7.173  3.0294  2.0463 -0.4476
  212MOL0     H28613   2.512  10.552   7.215 -0.6301  0.8506 -1.9531
  212MOL0     H28614   2.649  10.777   7.284  5.2099  1.4369  1.0559
  212MOL0     H28615   2.790  10.671   7.263  0.0912  4.2942  1.4304
  212MOL0     H28616   2.715  10.703   7.495  0.6015 -1.0841 -1.5955
  212MOL0     H28617   2.686  10.526   7.452  2.2151  0.0466 -0.3736
  212MOL0     H28618   2.297  10.717   7.500  0.5152  1.0599  2.2631
  212MOL0     H28619   2.564  10.776   6.839 -2.5617  1.6605 -1.5016
  212MOL0     H28620   2.447  10.831   6.614 -1.5283  0.8852 -0.2666
  213MOL0     O28621  10.853   4.672   0.699  0.4005  0.7693  0.4326
  213MOL0     C28622  10.782   4.586   0.645 -1.0866  0.0708 -0.7907
  213MOL0     O28623  10.745   4.466   0.703  0.2493  0.2107 -0.0525
  213MOL0     C28624  10.783   4.421   0.830  0.1513 -0.2253 -0.2568
  213MOL0     C28625  10.717   4.452   0.947 -0.2894 -0.1394 -0.6147
  213MOL0     C28626  10.751   4.392   1.072 -0.2055  0.6165 -0.2716
  213MOL0     C28627  10.841   4.280   1.079 -0.1281  0.7705  1.0449
  213MOL0     O28628  10.845   4.212   1.196 -0.1537  0.4837 -0.6989
  213MOL0     C28629  10.931   4.093   1.190 -0.1579 -0.0896  0.5662
  213MOL0     C28630  10.934   4.003   1.308  0.5118 -0.4540  0.5921
  213MOL0     C28631  11.044   3.897   1.305 -0.2475 -0.0731 -0.7797
  213MOL0     C28632  11.057   3.829   1.439  0.1344  0.2334  1.8200
  213MOL0     C28633  11.194   3.749   1.451  0.2257 -1.5024  0.2791
  213MOL0     C28634  11.181   3.621   1.370 -0.3859 -0.5209 -0.6312
  213MOL0     C28635  11.290   3.519   1.420  0.0458 -0.5114  0.0330
  213MOL0     C28636  11.305   3.404   1.331  0.2154 -0.1891  0.1196
  213MOL0     N28637  11.443   3.348   1.330  0.9115 -0.0786  1.0451
  213MOL0     C28638  11.490   3.290   1.446 -1.2633 -0.5705  0.3647
  213MOL0     C28639  11.615   3.240   1.410  0.2862 -0.5896  0.1316
  213MOL0     C28640  11.713   3.152   1.490 -0.4529 -0.3160  0.0830
  213MOL0     C28641  11.862   3.209   1.465  0.4883 -0.4214 -0.1817
  213MOL0     C28642  11.966   3.103   1.488 -1.2647  0.9164  0.2810
  213MOL0     C28643  11.963   3.000   1.370 -0.1762 -0.3890  0.3590
  213MOL0     O28644  12.040   3.052   1.261 -0.3279  0.9410  0.6841
  213MOL0     C28645  12.124   2.986   1.181  0.2447 -0.1162  0.0060
  213MOL0     C28646  12.213   3.051   1.102 -0.7964  0.2967 -0.0070
  213MOL0     C28647  12.282   2.992   0.991 -0.6716 -0.0249 -0.1038
  213MOL0     C28648  12.362   3.093   0.901 -0.0871  0.3227 -0.5719
  213MOL0     C28649  12.280   2.849   0.983 -0.5481  0.6817 -0.8007
  213MOL0     C28650  12.372   2.782   0.888  1.3292 -1.2856  1.5883
  213MOL0     O28651  12.434   2.670   0.923 -0.1131  0.2686 -0.1368
  213MOL0     C28652  12.533   2.623   0.843 -1.3372  0.1307  0.7690
  213MOL0     C28653  12.525   2.501   0.772 -0.0768 -0.1953  1.1067
  213MOL0     C28654  12.629   2.464   0.681 -0.1807  0.1837 -0.2639
  213MOL0     C28655  12.742   2.537   0.671 -0.7157 -0.0149 -0.7459
  213MOL0     O28656  12.847   2.531   0.573  0.6332  0.3356 -0.8333
  213MOL0     C28657  12.875   2.400   0.526 -0.9332 -0.1437  1.0572
  213MOL0     C28658  12.893   2.421   0.377  1.3165 -0.3094 -0.8970
  213MOL0     C28659  13.047   2.425   0.334 -0.1368 -0.3302 -0.5606
  213MOL0     C28660  13.125   2.299   0.388  0.2730  0.4315  0.9552
  213MOL0     C28661  13.256   2.289   0.295  0.5553  0.4688 -0.5418
  213MOL0     C28662  13.362   2.388   0.333  0.0480 -0.0368  0.0576
  213MOL0     C28663  13.474   2.387   0.229  0.4010 -0.2610  0.5135
  213MOL0     C28664  13.580   2.273   0.231 -0.5901  0.0513 -0.0734
  213MOL0    Cl28665  13.683   2.306   0.093 -0.4133  0.1254  0.1348
  213MOL0     C28666  12.752   2.654   0.747  0.0399  0.6755 -0.2715
  213MOL0     C28667  12.648   2.704   0.819  0.3457 -0.3574  0.1068
  213MOL0     O28668  12.383   2.838   0.773  0.5288 -0.2666  0.0349
  213MOL0     C28669  12.201   2.781   1.070 -0.3060  0.9791  0.3982
  213MOL0     C28670  12.128   2.852   1.167  0.8507  0.2610 -0.5877
  213MOL0     N28671  11.623   3.256   1.275 -0.2591  0.7283 -0.4710
  213MOL0     N28672  11.519   3.322   1.225 -0.1579 -0.1492  0.2044
  213MOL0     C28673  10.901   4.245   0.953  0.4314  1.1168  0.6353
  213MOL0     C28674  10.877   4.315   0.832 -0.0824 -0.3053 -0.4118
  213MOL0     C28675  10.753   4.598   0.507 -0.9605  0.4373 -0.4911
  213MOL0     C28676  10.691   4.507   0.424 -0.0364  0.5878  0.6918
  213MOL0     C28677  10.649   4.528   0.293 -0.5738 -0.5528  0.4027
  213MOL0     C28678  10.669   4.652   0.234  0.0626 -0.6945  0.5045
  213MOL0     O28679  10.614   4.673   0.112  0.6274  0.4488  0.0141
  213MOL0     C28680  10.596   4.807   0.065  0.2170 -0.0785 -0.4865
  213MOL0     C28681  10.579   4.816  -0.089 -1.0271  1.2259  0.2583
  213MOL0     C28682  10.432   4.792  -0.126 -0.9385  0.4278  0.6270
  213MOL0     C28683  10.436   4.790  -0.283 -0.4705 -0.8177 -0.4313
  213MOL0     C28684  10.301   4.770  -0.327 -0.3194  0.3674  0.3912
  213MOL0     C28685  10.192   4.771  -0.379  0.7708 -0.0919 -0.0838
  213MOL0     C28686  10.750   4.741   0.313 -0.2474 -0.9999 -0.6589
  213MOL0     C28687  10.796   4.723   0.449  0.4654  0.2018  0.4928
  213MOL0     H28688  10.641   4.530   0.950  2.2718  2.4929 -0.1960
  213MOL0     H28689  10.687   4.406   1.158 -0.1678 -1.5654  0.1859
  213MOL0     H28690  10.899   4.030   1.107  0.0114  0.5279  0.0227
  213MOL0     H28691  11.030   4.136   1.174 -1.2814  2.9539  1.1547
  213MOL0     H28692  10.943   4.066   1.397 -2.6522  2.4970 -0.9616
  213MOL0     H28693  10.841   3.944   1.304  0.3447 -0.1443 -3.5637
  213MOL0     H28694  11.021   3.816   1.234  0.2745 -1.8301  0.9587
  213MOL0     H28695  11.141   3.938   1.277  1.5959 -3.4801  0.0900
  213MOL0     H28696  11.063   3.901   1.521  0.5060  0.5834  1.4906
  213MOL0     H28697  10.978   3.755   1.453  0.5192 -0.6838 -0.4570
  213MOL0     H28698  11.283   3.807   1.426 -0.2312  0.4291  2.7802
  213MOL0     H28699  11.204   3.721   1.556  3.5858  0.2096  0.5356
  213MOL0     H28700  11.083   3.575   1.382 -0.7016 -0.6392 -3.1661
  213MOL0     H28701  11.210   3.642   1.267  4.2511 -3.3517 -0.1770
  213MOL0     H28702  11.386   3.571   1.423 -0.5688  0.6509  0.9087
  213MOL0     H28703  11.272   3.496   1.526  0.0684  2.7131  0.8624
  213MOL0     H28704  11.284   3.444   1.231  0.7668  1.5320  0.6591
  213MOL0     H28705  11.233   3.325   1.354 -0.9642  0.5903 -0.7677
  213MOL0     H28706  11.444   3.308   1.543 -0.6822  3.5085  0.0612
  213MOL0     H28707  11.686   3.177   1.593  0.2269  2.8892 -0.4144
  213MOL0     H28708  11.712   3.045   1.468  1.7151  0.4472 -5.1159
  213MOL0     H28709  11.888   3.298   1.523  0.4393  2.0506 -3.6087
  213MOL0     H28710  11.874   3.238   1.360  3.5643 -2.0174 -0.3905
  213MOL0     H28711  11.950   3.064   1.589 -2.7859  1.2126  0.1739
  213MOL0     H28712  12.069   3.141   1.485 -0.3988 -1.0957  1.8161
  213MOL0     H28713  11.862   2.963   1.346  1.3076 -2.6936 -3.3147
  213MOL0     H28714  12.016   2.915   1.414  0.4643 -0.1831 -0.0064
  213MOL0     H28715  12.231   3.158   1.105  1.8885  0.3493 -5.2258
  213MOL0     H28716  12.461   3.055   0.876  0.0563 -0.4998  1.0866
  213MOL0     H28717  12.312   3.120   0.807 -0.8438  2.1387  0.3010
  213MOL0     H28718  12.385   3.184   0.956 -0.4825  0.8181 -1.2167
  213MOL0     H28719  12.431   2.447   0.775 -2.6273  3.7132 -0.3807
  213MOL0     H28720  12.626   2.375   0.620  1.7700 -3.1614  4.0223
  213MOL0     H28721  12.968   2.379   0.578 -2.7415 -0.4008  4.4825
  213MOL0     H28722  12.802   2.322   0.550 -0.3159 -0.3930  2.1600
  213MOL0     H28723  12.840   2.343   0.321 -1.3892 -0.2025  1.3019
  213MOL0     H28724  12.841   2.509   0.338  1.0936 -1.2234 -2.7603
  213MOL0     H28725  13.092   2.518   0.370  0.1295 -0.3559 -0.8224
  213MOL0     H28726  13.049   2.429   0.225  1.1777 -1.4740 -0.6024
  213MOL0     H28727  13.147   2.302   0.495  1.1547  0.7191  0.7730
  213MOL0     H28728  13.056   2.217   0.365  0.3688  0.8448 -1.0138
  213MOL0     H28729  13.228   2.312   0.192 -0.5725  1.0019 -0.1298
  213MOL0     H28730  13.287   2.185   0.310 -0.6308  0.3477  1.4354
  213MOL0     H28731  13.313   2.485   0.350 -0.0457 -0.1047  0.1815
  213MOL0     H28732  13.423   2.365   0.421  0.9583 -2.2229 -1.0756
  213MOL0     H28733  13.528   2.479   0.254  2.6098 -2.6682  6.3039
  213MOL0     H28734  13.437   2.407   0.127 -0.1044  0.6469  0.8609
  213MOL0     H28735  13.533   2.175   0.220 -3.6190  1.6485 -4.7425
  213MOL0     H28736  13.643   2.281   0.320 -1.5633  0.7800  0.5784
  213MOL0     H28737  12.843   2.713   0.736 -0.7787  2.5177  1.9846
  213MOL0     H28738  12.664   2.798   0.871  2.3340 -1.4589  1.6508
  213MOL0     H28739  12.189   2.673   1.072 -0.5341  1.0118  1.8491
  213MOL0     H28740  12.058   2.801   1.233 -0.1600  3.5604  1.1249
  213MOL0     H28741  10.958   4.155   0.931 -2.2438 -0.6331  0.3518
  213MOL0     H28742  10.923   4.274   0.743  1.4483  0.2967  0.0506
  213MOL0     H28743  10.674   4.407   0.464  2.2443 -0.3855 -0.5881
  213MOL0     H28744  10.602   4.448   0.237 -0.9543 -0.5490  0.7140
  213MOL0     H28745  10.501   4.843   0.106 -0.1417 -2.2015  0.7319
  213MOL0     H28746  10.666   4.881   0.104  0.3577 -0.1105 -0.6792
  213MOL0     H28747  10.652   4.743  -0.127  0.5298  2.2497  1.1647
  213MOL0     H28748  10.620   4.913  -0.121 -0.4567  1.1116  0.6135
  213MOL0     H28749  10.371   4.874  -0.088 -2.6702 -0.6020  0.1768
  213MOL0     H28750  10.399   4.698  -0.081  1.4048  0.5401  2.7952
  213MOL0     H28751  10.492   4.707  -0.328  0.5982 -0.3214 -0.0502
  213MOL0     H28752  10.487   4.877  -0.325  1.8775 -1.3295  1.1426
  213MOL0     H28753  10.100   4.781  -0.432  0.8075  1.8671  0.1716
  213MOL0     H28754  10.781   4.835   0.269 -1.6719 -0.1157  0.1472
  213MOL0     H28755  10.851   4.797   0.507  0.6570 -0.9321  1.8343
  214MOL0     O28756  10.352   3.292   7.766 -0.7366  0.7858 -0.1741
  214MOL0     C28757  10.308   3.323   7.660  0.5118  0.3596  0.0218
  214MOL0     O28758  10.376   3.359   7.550 -0.2126  0.4627 -0.1885
  214MOL0     C28759  10.512   3.346   7.557 -0.9040  0.0489  0.0592
  214MOL0     C28760  10.591   3.412   7.658  0.0634  0.2376  0.3510
  214MOL0     C28761  10.737   3.417   7.656 -0.4454  1.3293  0.9520
  214MOL0     C28762  10.805   3.344   7.547 -0.6301 -0.1766 -0.9630
  214MOL0     O28763  10.942   3.331   7.523  0.3914  0.3004 -0.4824
  214MOL0     C28764  11.022   3.291   7.626 -0.7233 -0.0505 -0.2752
  214MOL0     C28765  11.084   3.158   7.589 -0.1732 -0.1783 -0.7470
  214MOL0     C28766  10.992   3.046   7.626 -0.4249  0.9651 -1.0432
  214MOL0     C28767  11.084   2.920   7.598 -0.2356  0.0181  1.0055
  214MOL0     C28768  11.015   2.822   7.496 -0.8876  0.1901 -0.5435
  214MOL0     C28769  11.047   2.676   7.532 -0.1482  0.9574  0.1895
  214MOL0     C28770  11.155   2.635   7.439  0.5250  0.7144  0.3905
  214MOL0     C28771  11.097   2.585   7.306  0.4913  0.0455 -0.2694
  214MOL0     N28772  11.189   2.511   7.223 -0.9027  0.0936  1.2393
  214MOL0     C28773  11.252   2.556   7.106  1.1155 -0.8169  0.7781
  214MOL0     C28774  11.324   2.451   7.055  0.0005  0.6375  0.1050
  214MOL0     C28775  11.408   2.455   6.932  0.1024  0.6849 -0.5383
  214MOL0     C28776  11.555   2.427   6.960  0.5614 -0.4005  0.1585
  214MOL0     C28777  11.630   2.419   6.828  0.3590 -0.5011  0.4589
  214MOL0     C28778  11.628   2.539   6.726 -0.3545 -0.4956  0.2724
  214MOL0     O28779  11.709   2.648   6.775 -0.1359  0.4370 -0.1778
  214MOL0     C28780  11.830   2.627   6.821  0.0844 -0.2889 -0.4132
  214MOL0     C28781  11.846   2.634   6.959 -0.6399  0.7917 -0.1960
  214MOL0     C28782  11.982   2.608   7.012  0.4580  0.8936 -0.2801
  214MOL0     C28783  11.988   2.598   7.160  0.3473 -0.8870  0.4833
  214MOL0     C28784  12.092   2.587   6.934 -0.0898  0.6884 -0.1526
  214MOL0     C28785  12.230   2.574   6.982  0.0248 -0.5759  0.7710
  214MOL0     O28786  12.333   2.618   6.902  0.1513  0.3222  0.6532
  214MOL0     C28787  12.459   2.559   6.926 -0.7142 -0.5229  0.4503
  214MOL0     C28788  12.507   2.430   6.908  0.0674  0.5729  0.0477
  214MOL0     C28789  12.638   2.395   6.883  0.4253  0.2393 -0.3553
  214MOL0     C28790  12.734   2.491   6.897  0.0627  0.1961  0.5824
  214MOL0     O28791  12.858   2.441   6.897  0.4131 -0.8551 -0.2323
  214MOL0     C28792  12.951   2.517   6.814  0.7201  0.3294 -0.5522
  214MOL0     C28793  13.081   2.435   6.780  0.4966 -0.2079  0.5549
  214MOL0     C28794  13.180   2.443   6.898 -0.3981 -0.0864  0.4047
  214MOL0     C28795  13.156   2.328   7.002  0.2939  0.0110 -0.2440
  214MOL0     C28796  13.268   2.326   7.103  0.2140  0.4115  0.3016
  214MOL0     C28797  13.414   2.328   7.048 -0.7202 -0.4176  0.1730
  214MOL0     C28798  13.516   2.287   7.164  0.0985 -0.4106  0.3024
  214MOL0     C28799  13.656   2.255   7.106  0.7971 -0.8289  0.0584
  214MOL0    Cl28800  13.669   2.087   7.027 -0.1240  0.1527  0.3353
  214MOL0     C28801  12.703   2.625   6.931  0.4021  0.5522  0.0481
  214MOL0     C28802  12.564   2.652   6.939 -0.6577 -0.4392 -0.1828
  214MOL0     O28803  12.252   2.522   7.091 -0.2575 -0.5039  0.3214
  214MOL0     C28804  12.063   2.565   6.798 -0.6119 -0.6758 -0.5400
  214MOL0     C28805  11.937   2.591   6.738 -0.4293 -0.0397 -0.6767
  214MOL0     N28806  11.319   2.353   7.150  0.6157  0.4534  0.5659
  214MOL0     N28807  11.221   2.384   7.241  0.0985 -0.9324  0.5778
  214MOL0     C28808  10.722   3.287   7.455 -0.2519  0.6336 -0.2054
  214MOL0     C28809  10.576   3.279   7.454  0.2763  0.7927 -0.0927
  214MOL0     C28810  10.166   3.348   7.652  0.4716 -1.0099  0.5577
  214MOL0     C28811  10.112   3.413   7.532 -0.8118 -1.3830  0.1049
  214MOL0     C28812   9.985   3.455   7.527  0.3343 -0.1003  0.2253
  214MOL0     C28813   9.899   3.433   7.636 -0.1127 -0.4100 -0.7083
  214MOL0     O28814   9.770   3.451   7.630 -0.0120 -0.2468 -0.2230
  214MOL0     C28815   9.713   3.542   7.728  0.1074 -0.4381 -0.6417
  214MOL0     C28816   9.602   3.479   7.807  0.1718  1.0901 -0.8141
  214MOL0     C28817   9.459   3.509   7.757 -0.3128  0.5036 -0.3016
  214MOL0     C28818   9.408   3.406   7.659 -0.5481  0.4686  0.7954
  214MOL0     C28819   9.485   3.410   7.528 -0.4461  0.5227  0.0466
  214MOL0     C28820   9.548   3.409   7.419 -0.7406 -0.2083  0.7610
  214MOL0     C28821   9.946   3.375   7.750 -0.2120  0.8836 -1.1977
  214MOL0     C28822  10.075   3.320   7.749  0.3817 -0.1512 -0.1840
  214MOL0     H28823  10.538   3.475   7.730  1.4768  0.1435  1.5256
  214MOL0     H28824  10.795   3.470   7.731  1.4284 -1.7974  1.8567
  214MOL0     H28825  11.097   3.370   7.622  0.3980 -1.1205 -0.8605
  214MOL0     H28826  10.971   3.276   7.722 -2.2255  1.7451 -0.7338
  214MOL0     H28827  11.087   3.161   7.480  2.2539  2.3338 -0.7383
  214MOL0     H28828  11.182   3.154   7.638  0.0413  0.7333 -1.0734
  214MOL0     H28829  10.967   3.045   7.732  1.8724 -2.1707 -0.3677
  214MOL0     H28830  10.898   3.065   7.573 -3.0126  0.4515  2.9399
  214MOL0     H28831  11.180   2.953   7.556 -0.7339 -0.9388 -1.0206
  214MOL0     H28832  11.107   2.871   7.693 -1.4344  0.7334  1.6919
  214MOL0     H28833  10.907   2.838   7.507 -0.4595  1.8881  1.8750
  214MOL0     H28834  11.035   2.848   7.392  1.2485  1.4580  0.1221
  214MOL0     H28835  11.086   2.680   7.634 -2.1927  1.7985  1.0088
  214MOL0     H28836  10.960   2.611   7.545  0.7137  0.3043  4.1108
  214MOL0     H28837  11.214   2.722   7.410 -1.4816  2.1208  0.3654
  214MOL0     H28838  11.228   2.564   7.480  0.7470  0.4526 -0.4282
  214MOL0     H28839  11.073   2.673   7.247  1.1482  1.3067  1.2442
  214MOL0     H28840  10.999   2.540   7.325 -0.2763  2.6173  2.7454
  214MOL0     H28841  11.233   2.647   7.050  0.6692 -0.9041  0.7839
  214MOL0     H28842  11.380   2.377   6.861 -1.0994  0.3306  0.3083
  214MOL0     H28843  11.379   2.544   6.876 -3.4200 -1.2896 -2.1832
  214MOL0     H28844  11.572   2.337   7.020 -1.0885  0.3104  1.8038
  214MOL0     H28845  11.601   2.509   7.016  3.9184 -0.2476 -2.4667
  214MOL0     H28846  11.595   2.329   6.778 -0.1077  0.5375 -1.1581
  214MOL0     H28847  11.733   2.403   6.860  1.4376  2.2247 -1.2771
  214MOL0     H28848  11.529   2.583   6.711 -0.3878  0.6372  3.1593
  214MOL0     H28849  11.667   2.511   6.628  1.8313 -1.6340  1.4048
  214MOL0     H28850  11.767   2.656   7.030  0.7531  0.9528  1.3816
  214MOL0     H28851  12.063   2.663   7.206  1.2282 -1.9430  0.5995
  214MOL0     H28852  11.902   2.625   7.221  1.2646  4.7866 -0.2409
  214MOL0     H28853  12.015   2.494   7.179  2.3668 -1.1648 -3.0821
  214MOL0     H28854  12.424   2.360   6.902  0.8711 -0.5418  1.2586
  214MOL0     H28855  12.677   2.299   6.850  1.3971  0.0399  1.2164
  214MOL0     H28856  12.909   2.538   6.715  2.4977 -0.4486 -1.5112
  214MOL0     H28857  12.967   2.617   6.857  1.1601  0.9837 -2.1888
  214MOL0     H28858  13.052   2.337   6.742 -0.4854  0.5218 -0.6732
  214MOL0     H28859  13.132   2.488   6.700  0.3575 -1.6201 -0.5038
  214MOL0     H28860  13.168   2.542   6.943  0.2809  0.3987 -0.4418
  214MOL0     H28861  13.282   2.445   6.857  0.6385  0.1992  2.8049
  214MOL0     H28862  13.062   2.341   7.058  0.7759  4.7553 -0.1189
  214MOL0     H28863  13.155   2.231   6.952 -1.9454 -0.0769 -0.1609
  214MOL0     H28864  13.259   2.255   7.185  1.2476  1.2805  1.2040
  214MOL0     H28865  13.250   2.421   7.155 -1.7331  0.7265 -0.8262
  214MOL0     H28866  13.424   2.264   6.960 -0.1520  0.5918 -0.5171
  214MOL0     H28867  13.427   2.429   7.009 -1.8057 -0.1989  0.3326
  214MOL0     H28868  13.496   2.200   7.228  1.8796 -1.0863  0.0178
  214MOL0     H28869  13.516   2.380   7.221  3.3864 -1.2306  1.9073
  214MOL0     H28870  13.722   2.262   7.193  0.4359  2.6845  0.1804
  214MOL0     H28871  13.694   2.333   7.040 -1.5177 -0.7207 -1.2538
  214MOL0     H28872  12.785   2.695   6.937 -0.5212  1.9039 -1.9896
  214MOL0     H28873  12.531   2.755   6.949  0.8121  0.0664 -0.3292
  214MOL0     H28874  12.152   2.533   6.744 -1.5290 -1.4365 -1.6532
  214MOL0     H28875  11.938   2.582   6.630  4.5678 -0.4022 -0.8352
  214MOL0     H28876  10.780   3.250   7.371 -0.5925  0.6842 -0.4607
  214MOL0     H28877  10.517   3.230   7.377  1.4983  1.4995 -1.5431
  214MOL0     H28878  10.179   3.434   7.450  1.3527 -0.4841  1.9900
  214MOL0     H28879   9.951   3.488   7.429 -0.6347 -2.8079 -0.4534
  214MOL0     H28880   9.785   3.576   7.804 -1.6602  4.4223 -0.7687
  214MOL0     H28881   9.677   3.634   7.682 -1.3916 -2.1456 -3.0994
  214MOL0     H28882   9.606   3.520   7.908  4.7964  0.7455 -0.6470
  214MOL0     H28883   9.626   3.373   7.816 -0.3228  1.0458  0.0161
  214MOL0     H28884   9.453   3.610   7.714  4.1993  0.6900 -0.9237
  214MOL0     H28885   9.400   3.500   7.849  0.6783  0.8068  0.3773
  214MOL0     H28886   9.306   3.427   7.626 -1.6729 -0.8145  3.2000
  214MOL0     H28887   9.418   3.307   7.704  0.5257 -0.3792 -1.1963
  214MOL0     H28888   9.587   3.425   7.320  0.7667  2.5335  1.6941
  214MOL0     H28889   9.878   3.362   7.833  0.2854 -0.1696 -0.9371
  214MOL0     H28890  10.105   3.264   7.837  0.5553  0.8482  0.4144
  215MOL0     O28891   7.386   2.185   6.021 -1.6532  0.2418  0.1866
  215MOL0     C28892   7.451   2.188   6.126 -0.0397  0.0049 -0.4150
  215MOL0     O28893   7.422   2.107   6.236  0.6113  0.8660 -0.6407
  215MOL0     C28894   7.362   1.988   6.209 -0.0887  0.7705 -0.4714
  215MOL0     C28895   7.222   1.969   6.215  0.2792  0.1161  0.1352
  215MOL0     C28896   7.164   1.853   6.168  0.1202 -0.4925 -0.0221
  215MOL0     C28897   7.248   1.742   6.140 -1.4462  0.0995  1.3262
  215MOL0     O28898   7.200   1.616   6.101 -0.5109 -0.0550  0.2098
  215MOL0     C28899   7.100   1.622   6.002  0.2152 -0.0665  0.1360
  215MOL0     C28900   7.064   1.476   5.962  0.2502 -0.8489 -0.4129
  215MOL0     C28901   6.953   1.484   5.851 -0.5403  0.1991  0.1201
  215MOL0     C28902   6.948   1.335   5.785  0.0541  0.7468 -0.7659
  215MOL0     C28903   6.855   1.322   5.667  0.4051 -0.0914  0.3129
  215MOL0     C28904   6.900   1.410   5.545  0.1736 -0.1042 -0.7010
  215MOL0     C28905   6.799   1.396   5.437  1.0413  0.3370 -0.0130
  215MOL0     C28906   6.843   1.440   5.298  0.2640  0.6949  0.2050
  215MOL0     N28907   6.727   1.399   5.214 -0.3283  0.4348  1.0883
  215MOL0     C28908   6.598   1.446   5.227  0.2711 -1.2523  0.2791
  215MOL0     C28909   6.534   1.421   5.101  0.4067  0.5976  0.0712
  215MOL0     C28910   6.384   1.439   5.069 -0.1983  0.7445  0.8897
  215MOL0     C28911   6.358   1.584   5.006  0.1310  0.0676 -0.0343
  215MOL0     C28912   6.436   1.603   4.871  0.9623 -0.1976  0.8643
  215MOL0     C28913   6.399   1.525   4.739 -0.4499  0.1336  0.4117
  215MOL0     O28914   6.253   1.527   4.713  0.4101 -0.2882 -0.5218
  215MOL0     C28915   6.211   1.484   4.599 -0.2161  0.0990  1.0438
  215MOL0     C28916   6.278   1.405   4.505  0.0256 -0.0060  0.2136
  215MOL0     C28917   6.224   1.353   4.385  0.1935 -0.5083  0.4200
  215MOL0     C28918   6.310   1.301   4.269  1.0927  0.3672  0.1405
  215MOL0     C28919   6.089   1.380   4.364 -0.6388  0.6009  0.0617
  215MOL0     C28920   6.015   1.333   4.248  0.2049 -0.4844 -0.0665
  215MOL0     O28921   5.893   1.276   4.285  0.5094 -0.3364 -0.8418
  215MOL0     C28922   5.811   1.200   4.201  0.4948  0.4973 -0.3696
  215MOL0     C28923   5.833   1.143   4.079 -0.1624  0.4660  1.1250
  215MOL0     C28924   5.728   1.079   4.008  0.0954  0.6011  0.2024
  215MOL0     C28925   5.614   1.036   4.074  0.0985  0.4454  0.1169
  215MOL0     O28926   5.515   0.970   4.008  0.7373 -0.5264 -0.3853
  215MOL0     C28927   5.397   0.920   4.081 -0.2323  0.6803 -0.3822
  215MOL0     C28928   5.317   0.832   3.984 -0.1560 -1.3899 -0.3160
  215MOL0     C28929   5.391   0.709   3.940  0.3413 -0.6827  0.3362
  215MOL0     C28930   5.299   0.624   3.841 -0.1832  0.5684 -0.2823
  215MOL0     C28931   5.378   0.544   3.738 -0.5244  0.3542  0.5076
  215MOL0     C28932   5.284   0.443   3.666 -0.1868 -0.9796 -0.0610
  215MOL0     C28933   5.246   0.328   3.754 -0.4567 -0.1679  0.3721
  215MOL0     C28934   5.216   0.202   3.695  0.0840  0.0239  0.4761
  215MOL0    Cl28935   5.354   0.112   3.636  0.0342 -0.7552 -0.3201
  215MOL0     C28936   5.595   1.080   4.202 -0.2611 -1.5048 -0.1547
  215MOL0     C28937   5.684   1.174   4.262 -0.0945 -0.0131  0.0109
  215MOL0     O28938   6.036   1.349   4.133  0.3432  0.1325  0.8097
  215MOL0     C28939   6.020   1.463   4.455 -0.5414  0.4260 -0.0046
  215MOL0     C28940   6.071   1.509   4.574 -0.3360  0.6216  0.0678
  215MOL0     N28941   6.628   1.345   5.032 -0.5599  0.3347 -0.6083
  215MOL0     N28942   6.735   1.325   5.104 -0.3091 -0.4320 -1.0416
  215MOL0     C28943   7.387   1.762   6.131  1.1187 -0.0359 -0.0643
  215MOL0     C28944   7.443   1.883   6.169  0.2026 -0.2387  0.5128
  215MOL0     C28945   7.556   2.288   6.145 -0.6608 -0.5633  0.3506
  215MOL0     C28946   7.601   2.389   6.064 -0.0717  0.8907 -0.2580
  215MOL0     C28947   7.694   2.481   6.104  0.3961 -0.6396 -0.4625
  215MOL0     C28948   7.765   2.474   6.220  0.5838  0.4248  0.1250
  215MOL0     O28949   7.842   2.584   6.245 -0.2187 -0.6539  0.3938
  215MOL0     C28950   7.958   2.571   6.331  0.4264 -0.2149 -0.6287
  215MOL0     C28951   8.070   2.679   6.307  0.1929 -0.5564  0.0068
  215MOL0     C28952   8.028   2.822   6.360  0.3351  0.3904  0.1300
  215MOL0     C28953   8.148   2.923   6.326  0.8336 -0.0487  0.6821
  215MOL0     C28954   8.118   3.065   6.337 -0.1147 -0.1881  0.3429
  215MOL0     C28955   8.083   3.179   6.341  0.9446  0.1231 -0.3157
  215MOL0     C28956   7.728   2.371   6.309 -0.8659  0.3119 -0.8969
  215MOL0     C28957   7.626   2.285   6.278  0.1402 -0.4913  0.0923
  215MOL0     H28958   7.164   2.046   6.265 -0.0852 -0.4622  0.6107
  215MOL0     H28959   7.057   1.833   6.165  0.4378 -2.5130  0.4621
  215MOL0     H28960   7.016   1.682   6.038  0.3893  3.3733 -4.3558
  215MOL0     H28961   7.142   1.664   5.910 -0.9566 -2.3521 -1.5366
  215MOL0     H28962   7.157   1.434   5.924  0.3794  0.6872 -1.9144
  215MOL0     H28963   7.030   1.423   6.052  2.0619 -0.9139  0.2846
  215MOL0     H28964   6.856   1.516   5.890 -1.0386  1.1826 -1.8270
  215MOL0     H28965   6.992   1.564   5.788  1.6861  1.3577  2.7292
  215MOL0     H28966   7.049   1.303   5.758  0.2958 -0.2851  1.2276
  215MOL0     H28967   6.917   1.264   5.861  0.9114  0.4787 -0.6569
  215MOL0     H28968   6.842   1.218   5.638 -1.7764  0.0904  0.4366
  215MOL0     H28969   6.751   1.335   5.699  1.2101 -0.7183  3.5440
  215MOL0     H28970   6.926   1.513   5.571 -3.6870  0.6018  0.9821
  215MOL0     H28971   6.991   1.362   5.507  1.9396  0.6414  2.2221
  215MOL0     H28972   6.759   1.294   5.432  0.1501  0.6822 -0.2418
  215MOL0     H28973   6.717   1.458   5.476 -2.4597 -4.0677  0.5681
  215MOL0     H28974   6.930   1.379   5.272  0.3250 -0.0259  2.0001
  215MOL0     H28975   6.868   1.545   5.281 -0.4894  1.0019  0.9408
  215MOL0     H28976   6.555   1.497   5.313  3.7989 -2.1025  2.7968
  215MOL0     H28977   6.367   1.358   4.999 -1.5868  1.2442  0.6268
  215MOL0     H28978   6.333   1.413   5.162  1.5214  1.5838  2.1307
  215MOL0     H28979   6.395   1.663   5.073 -3.0644  0.2203  1.7589
  215MOL0     H28980   6.251   1.606   5.002  0.0394 -0.1936  0.6980
  215MOL0     H28981   6.543   1.583   4.889  0.8007 -2.2610 -0.2388
  215MOL0     H28982   6.426   1.707   4.837 -1.4689 -0.7867 -0.4144
  215MOL0     H28983   6.427   1.420   4.752  4.4009  0.7748 -2.4058
  215MOL0     H28984   6.470   1.542   4.658  0.3272 -0.3199  0.9843
  215MOL0     H28985   6.381   1.375   4.525 -0.6237 -1.7281  1.1183
  215MOL0     H28986   6.282   1.199   4.240  1.8383 -0.2270  1.4106
  215MOL0     H28987   6.306   1.369   4.183  1.0696  1.8551  1.2788
  215MOL0     H28988   6.409   1.306   4.315  1.6651 -0.4406 -0.9543
  215MOL0     H28989   5.930   1.155   4.032  0.4607 -0.6051  2.0749
  215MOL0     H28990   5.758   1.061   3.905  1.1253  1.6848  0.2954
  215MOL0     H28991   5.439   0.854   4.158 -3.3518 -0.9259  0.0934
  215MOL0     H28992   5.334   0.983   4.145 -0.2226  0.3111  0.0006
  215MOL0     H28993   5.232   0.784   4.033  1.2504 -1.7530  1.9031
  215MOL0     H28994   5.273   0.888   3.900 -4.0165 -1.6506  1.2939
  215MOL0     H28995   5.413   0.653   4.031 -0.3744 -0.0694  0.9019
  215MOL0     H28996   5.488   0.731   3.894 -0.7312 -0.8849 -2.2314
  215MOL0     H28997   5.244   0.551   3.901  0.8624 -0.1964 -0.2338
  215MOL0     H28998   5.229   0.691   3.789 -2.5565 -1.9824 -0.6180
  215MOL0     H28999   5.456   0.482   3.783 -1.3043  0.2980  1.8720
  215MOL0     H29000   5.422   0.603   3.658 -0.4572 -2.5547 -1.7867
  215MOL0     H29001   5.192   0.502   3.657 -0.3809 -1.2378  0.2254
  215MOL0     H29002   5.321   0.425   3.564  0.8193  1.7976 -0.2881
  215MOL0     H29003   5.164   0.368   3.815  3.2964  3.4590  3.6876
  215MOL0     H29004   5.325   0.307   3.828  0.5744  0.0503 -0.6456
  215MOL0     H29005   5.157   0.217   3.604 -2.1469 -0.1781  1.8282
  215MOL0     H29006   5.150   0.141   3.757  0.9805  0.1235  1.5620
  215MOL0     H29007   5.504   1.069   4.260 -1.7139 -0.4105 -2.1030
  215MOL0     H29008   5.667   1.228   4.354  1.1517 -0.4537  0.5188
  215MOL0     H29009   5.915   1.488   4.439 -1.2878 -2.0370  0.5263
  215MOL0     H29010   6.011   1.570   4.640 -2.2948  0.4010 -1.4108
  215MOL0     H29011   7.434   1.676   6.085 -0.5422  0.0333 -2.0364
  215MOL0     H29012   7.552   1.889   6.174  0.2737  1.0533 -1.5146
  215MOL0     H29013   7.550   2.402   5.969 -2.1500 -0.4317  0.5853
  215MOL0     H29014   7.706   2.576   6.052  2.3498  0.3417  1.6148
  215MOL0     H29015   7.929   2.565   6.437 -1.6261  1.4877 -1.0209
  215MOL0     H29016   7.997   2.474   6.300 -0.0046 -2.6781  5.1244
  215MOL0     H29017   8.076   2.693   6.199 -0.2793 -0.7108 -0.0435
  215MOL0     H29018   8.166   2.640   6.341  1.6658  2.8436  0.1420
  215MOL0     H29019   8.016   2.826   6.468 -1.4748 -1.0059  0.0278
  215MOL0     H29020   7.935   2.854   6.311 -0.9807 -0.5946  1.8945
  215MOL0     H29021   8.176   2.905   6.222 -1.0571 -4.2860  0.6875
  215MOL0     H29022   8.231   2.891   6.389  0.9711  0.3825  0.7217
  215MOL0     H29023   8.051   3.280   6.355 -2.7412 -1.1167  1.5072
  215MOL0     H29024   7.787   2.368   6.400  0.0437 -3.3712 -1.4500
  215MOL0     H29025   7.604   2.203   6.346 -1.1222 -0.7679 -0.6175
  216MOL0     O29026   2.639   9.045   3.881  0.1275  0.9972 -0.4108
  216MOL0     C29027   2.649   9.101   3.775 -1.3734  0.2339 -0.3900
  216MOL0     O29028   2.737   9.204   3.748 -0.1056 -0.3775  0.4910
  216MOL0     C29029   2.801   9.261   3.849 -0.1307 -1.0134 -0.0072
  216MOL0     C29030   2.757   9.384   3.908 -0.6635 -0.2689  0.2515
  216MOL0     C29031   2.816   9.449   4.021  0.9173  0.1827 -0.1534
  216MOL0     C29032   2.931   9.395   4.072 -0.0092  0.2891  0.4789
  216MOL0     O29033   3.010   9.454   4.168  0.3614  0.1734  0.4683
  216MOL0     C29034   2.962   9.569   4.246 -1.0154 -0.3828 -0.1994
  216MOL0     C29035   3.071   9.638   4.323 -0.7557 -0.0341 -0.0709
  216MOL0     C29036   3.157   9.548   4.422  0.6232  0.7083  0.2833
  216MOL0     C29037   3.289   9.503   4.362 -0.6056  0.5534 -0.3491
  216MOL0     C29038   3.355   9.389   4.442 -0.2531  0.4615 -0.3628
  216MOL0     C29039   3.419   9.443   4.569  0.4785  0.8059 -0.3737
  216MOL0     C29040   3.460   9.337   4.666  0.2463  0.9054 -0.0219
  216MOL0     C29041   3.579   9.245   4.611 -0.4987 -0.7005 -0.3123
  216MOL0     N29042   3.600   9.125   4.683  0.6798 -0.1889 -0.4013
  216MOL0     C29043   3.658   9.144   4.792  0.0723  1.0318 -1.6211
  216MOL0     C29044   3.676   9.016   4.840  0.4529 -0.4047 -0.0587
  216MOL0     C29045   3.754   8.995   4.973 -1.5464 -0.5103  0.3535
  216MOL0     C29046   3.668   9.019   5.093  0.6693 -0.2414 -0.0387
  216MOL0     C29047   3.741   8.992   5.225  0.0329 -0.0888 -0.4746
  216MOL0     C29048   3.633   8.988   5.334 -1.4388  0.1415  1.5155
  216MOL0     O29049   3.700   8.939   5.455  0.1772 -0.4754 -0.3438
  216MOL0     C29050   3.621   8.935   5.559 -0.3043 -0.9548  0.0311
  216MOL0     C29051   3.686   8.890   5.677 -0.2684  0.4561 -0.1860
  216MOL0     C29052   3.618   8.882   5.794 -0.5274 -0.3103  0.5820
  216MOL0     C29053   3.693   8.815   5.909 -0.2648 -0.2848 -0.7977
  216MOL0     C29054   3.484   8.916   5.805  0.1899 -0.0206  0.4285
  216MOL0     C29055   3.416   8.907   5.932  0.1345  0.2426 -0.6586
  216MOL0     O29056   3.327   8.806   5.936  0.8263  0.5776 -0.0620
  216MOL0     C29057   3.244   8.806   6.045 -1.0013  0.1638  0.1434
  216MOL0     C29058   3.300   8.751   6.164  0.5991 -0.5810  0.1070
  216MOL0     C29059   3.227   8.745   6.282  0.5776 -0.0704 -0.1460
  216MOL0     C29060   3.096   8.785   6.282 -0.4450  0.3248 -0.4204
  216MOL0     O29061   3.019   8.798   6.395  0.1238  0.2484  0.0150
  216MOL0     C29062   3.079   8.766   6.525  0.2576  0.1836 -0.2247
  216MOL0     C29063   2.978   8.810   6.629  0.2451  0.9297 -0.5882
  216MOL0     C29064   3.026   8.791   6.774  0.4155  0.0759  0.9262
  216MOL0     C29065   2.914   8.768   6.874  0.3250 -0.0164 -1.0944
  216MOL0     C29066   2.851   8.899   6.926  0.2481 -0.0585 -0.5136
  216MOL0     C29067   2.719   8.884   7.014 -0.4080 -0.1884 -0.2712
  216MOL0     C29068   2.624   8.996   6.976  0.6028 -0.3845  0.0698
  216MOL0     C29069   2.499   9.007   7.066 -1.1206  0.6517  0.9917
  216MOL0    Cl29070   2.359   9.115   6.998 -0.3385  0.0791 -0.3174
  216MOL0     C29071   3.034   8.836   6.168 -0.6422  0.1989 -0.9464
  216MOL0     C29072   3.109   8.851   6.051 -0.3788 -0.7775 -0.7472
  216MOL0     O29073   3.446   8.987   6.017  0.3783  0.1568  0.2539
  216MOL0     C29074   3.405   8.944   5.691  0.1860  1.5346  0.5186
  216MOL0     C29075   3.478   8.959   5.568 -0.7619  0.4560 -1.2596
  216MOL0     N29076   3.630   8.922   4.750  0.0955  0.5327  0.5649
  216MOL0     N29077   3.578   8.996   4.660 -1.0263 -0.6446  0.7565
  216MOL0     C29078   2.990   9.285   4.005 -0.3814 -0.2891  0.3264
  216MOL0     C29079   2.924   9.216   3.902  0.2503  0.0760 -0.2672
  216MOL0     C29080   2.563   9.049   3.668 -0.6036  0.0622  0.1011
  216MOL0     C29081   2.578   9.101   3.542 -0.1830 -0.3493  0.1706
  216MOL0     C29082   2.495   9.062   3.434  0.2732 -0.8223 -0.5842
  216MOL0     C29083   2.385   8.968   3.460 -1.3265 -0.9701  0.1041
  216MOL0     O29084   2.294   8.934   3.368 -0.9292 -0.0782 -0.0618
  216MOL0     C29085   2.282   8.997   3.247  0.0448 -0.2949 -0.4973
  216MOL0     C29086   2.141   8.991   3.212 -0.9058 -0.0959 -0.1905
  216MOL0     C29087   2.129   9.015   3.063 -0.3594 -0.4722  0.5698
  216MOL0     C29088   2.119   9.165   3.032  1.3404 -0.6893 -0.2017
  216MOL0     C29089   2.245   9.233   2.995 -0.2377 -0.1759  0.0068
  216MOL0     C29090   2.332   9.295   2.941  0.5036  0.1506 -1.1817
  216MOL0     C29091   2.370   8.916   3.588 -0.8624  0.1434  0.6724
  216MOL0     C29092   2.458   8.958   3.686 -0.5027  0.2490 -0.6824
  216MOL0     H29093   2.665   9.430   3.875  0.1103  0.2492 -1.2825
  216MOL0     H29094   2.764   9.523   4.082  3.8708 -0.5364  3.5709
  216MOL0     H29095   2.922   9.639   4.173  0.6492  0.2929 -0.4958
  216MOL0     H29096   2.898   9.536   4.329  2.1825 -3.1221  1.4154
  216MOL0     H29097   3.142   9.664   4.245  0.3706 -4.0462 -0.6073
  216MOL0     H29098   3.036   9.724   4.381  0.2648  0.1647  0.2683
  216MOL0     H29099   3.172   9.603   4.515  1.3697 -0.3336  0.7982
  216MOL0     H29100   3.098   9.460   4.449  0.6001 -0.4040 -2.9581
  216MOL0     H29101   3.273   9.466   4.260  3.0081  3.0860 -2.0404
  216MOL0     H29102   3.367   9.577   4.340  2.1602 -1.9990  0.1729
  216MOL0     H29103   3.279   9.311   4.453  2.4281 -2.4328 -0.9639
  216MOL0     H29104   3.436   9.353   4.379 -0.5852 -0.5444 -0.2357
  216MOL0     H29105   3.504   9.510   4.551  2.1886 -0.5519  2.1061
  216MOL0     H29106   3.348   9.507   4.621  1.0669  0.0384  1.4431
  216MOL0     H29107   3.488   9.382   4.762 -1.1095  1.5916  0.0647
  216MOL0     H29108   3.379   9.275   4.705 -0.8136  2.9839  1.2899
  216MOL0     H29109   3.672   9.302   4.623 -1.5540  0.6257  2.5408
  216MOL0     H29110   3.558   9.220   4.506 -3.9259  1.1704 -0.2315
  216MOL0     H29111   3.699   9.231   4.842  0.9288  0.1833 -0.7920
  216MOL0     H29112   3.787   8.891   4.978 -0.5984 -0.4114 -2.2055
  216MOL0     H29113   3.846   9.053   4.978  0.0341 -2.6327 -1.7188
  216MOL0     H29114   3.595   8.941   5.071 -0.6450  0.6518  1.0046
  216MOL0     H29115   3.611   9.112   5.092 -1.9160 -1.6383 -3.6193
  216MOL0     H29116   3.804   9.077   5.252 -0.6640  0.4095 -0.3859
  216MOL0     H29117   3.801   8.901   5.224 -0.5024 -0.4621 -2.8878
  216MOL0     H29118   3.549   8.924   5.303 -1.4672  2.1544 -3.5200
  216MOL0     H29119   3.597   9.090   5.349  4.8202  2.8466  1.0415
  216MOL0     H29120   3.791   8.861   5.671  0.7913  3.6762  0.6063
  216MOL0     H29121   3.801   8.834   5.908 -0.6514  2.9239  1.8786
  216MOL0     H29122   3.654   8.836   6.009  3.9528 -0.0391  1.0179
  216MOL0     H29123   3.678   8.707   5.898  2.4436 -1.0903  2.1013
  216MOL0     H29124   3.395   8.699   6.170  1.0601  0.3461  1.3096
  216MOL0     H29125   3.280   8.711   6.371 -2.2996 -3.1137  0.5952
  216MOL0     H29126   3.101   8.660   6.541 -0.0253  0.1384 -0.1249
  216MOL0     H29127   3.169   8.829   6.523  1.2356 -1.1015 -3.3354
  216MOL0     H29128   2.958   8.917   6.625  0.9149  1.0609 -0.4337
  216MOL0     H29129   2.883   8.759   6.609  1.4847 -0.1895 -4.4929
  216MOL0     H29130   3.085   8.876   6.809  1.4863 -1.0862  2.0640
  216MOL0     H29131   3.091   8.703   6.776  1.7758  1.0171 -0.0025
  216MOL0     H29132   2.832   8.710   6.830 -1.0360 -1.1949  2.5496
  216MOL0     H29133   2.956   8.724   6.965 -0.0471 -0.9147 -1.3370
  216MOL0     H29134   2.837   8.974   6.848  1.8880 -0.9364 -1.7157
  216MOL0     H29135   2.913   8.932   7.009 -2.9558 -0.5974  2.3424
  216MOL0     H29136   2.666   8.792   6.987  1.2076 -0.4216 -3.0620
  216MOL0     H29137   2.741   8.875   7.121  3.7164  2.4001 -0.6786
  216MOL0     H29138   2.589   8.991   6.873  0.3401 -0.1628  0.1458
  216MOL0     H29139   2.678   9.092   6.981  0.9557 -0.6046  4.3519
  216MOL0     H29140   2.515   9.039   7.170 -0.5103  1.5708  0.6262
  216MOL0     H29141   2.451   8.909   7.076 -1.5642  0.7841  0.2742
  216MOL0     H29142   2.937   8.886   6.165 -1.6639 -1.7460 -2.2477
  216MOL0     H29143   3.061   8.904   5.970  1.0451  1.4785 -0.1954
  216MOL0     H29144   3.299   8.969   5.688 -0.5606 -1.2675  0.7482
  216MOL0     H29145   3.415   8.989   5.484 -1.5987  3.1937  0.2123
  216MOL0     H29146   3.092   9.256   4.025 -0.0270 -0.3298 -1.3528
  216MOL0     H29147   2.975   9.138   3.846 -0.4534  0.3978 -1.3772
  216MOL0     H29148   2.648   9.183   3.533 -2.7882  2.0211  0.0244
  216MOL0     H29149   2.494   9.118   3.341  0.0308 -1.6176 -1.0664
  216MOL0     H29150   2.318   9.100   3.261 -0.5005 -0.2739  0.8843
  216MOL0     H29151   2.354   8.952   3.177 -0.3036 -2.5282  0.5159
  216MOL0     H29152   2.079   9.063   3.267 -1.2548 -0.0994 -0.5718
  216MOL0     H29153   2.100   8.891   3.229  1.4786 -1.1202 -0.1265
  216MOL0     H29154   2.035   8.972   3.027 -0.3243 -0.1220  0.0520
  216MOL0     H29155   2.198   8.967   2.992  0.3275 -1.2409  1.7321
  216MOL0     H29156   2.065   9.217   3.112 -1.4545 -0.0718 -2.3665
  216MOL0     H29157   2.044   9.197   2.960  1.0055  1.4140  1.0077
  216MOL0     H29158   2.415   9.351   2.901  1.1496  0.7746  0.8767
  216MOL0     H29159   2.285   8.851   3.605 -0.1935 -2.4907 -4.2957
  216MOL0     H29160   2.448   8.904   3.780  0.8149 -0.4109 -0.8933
  217MOL0     O29161   0.699   2.998   6.532 -0.1758  0.0381 -0.4252
  217MOL0     C29162   0.701   3.036   6.647 -0.6752 -0.3238 -0.2086
  217MOL0     O29163   0.803   3.017   6.742  0.3565  0.0403 -0.0969
  217MOL0     C29164   0.893   2.924   6.699  0.7026 -0.2109  0.2862
  217MOL0     C29165   0.858   2.799   6.643  0.0055 -0.4187 -1.0792
  217MOL0     C29166   0.956   2.711   6.586  0.7749 -0.4367  1.4657
  217MOL0     C29167   1.092   2.740   6.586 -0.7774 -0.1083  0.6619
  217MOL0     O29168   1.191   2.663   6.525 -0.6675  0.5742 -0.2829
  217MOL0     C29169   1.153   2.558   6.439  0.5831 -1.0090  0.1409
  217MOL0     C29170   1.276   2.495   6.371 -0.6532  0.6296  0.6434
  217MOL0     C29171   1.376   2.588   6.295  0.0347  0.3927 -0.2899
  217MOL0     C29172   1.311   2.674   6.186 -0.1794  0.9039  0.5212
  217MOL0     C29173   1.271   2.596   6.057 -0.2305  0.4792 -0.4308
  217MOL0     C29174   1.239   2.714   5.962 -0.8164 -0.9114  0.2397
  217MOL0     C29175   1.219   2.663   5.821  0.4276 -1.0487  0.6951
  217MOL0     C29176   1.216   2.788   5.721 -0.7846  0.4919  0.2994
  217MOL0     N29177   1.085   2.825   5.670 -0.1489  0.5989 -0.1539
  217MOL0     C29178   1.006   2.898   5.745 -0.1915 -0.6196  0.5420
  217MOL0     C29179   0.877   2.861   5.703 -0.6357  1.0319 -0.9330
  217MOL0     C29180   0.744   2.904   5.736  0.6530  0.4203  0.7227
  217MOL0     C29181   0.668   2.987   5.630 -0.0974  0.4759 -0.5595
  217MOL0     C29182   0.557   3.078   5.701  0.6705 -0.4202  0.2650
  217MOL0     C29183   0.452   3.002   5.770 -0.6072 -0.0076  0.3057
  217MOL0     O29184   0.372   2.934   5.672 -0.3680 -0.5203 -0.9497
  217MOL0     C29185   0.295   2.832   5.713  0.7049 -0.2291 -0.0749
  217MOL0     C29186   0.227   2.767   5.605  0.9646  1.0492  0.1893
  217MOL0     C29187   0.141   2.660   5.638 -0.1337 -0.4097 -0.1173
  217MOL0     C29188   0.060   2.609   5.527  0.3981 -0.0420 -0.0429
  217MOL0     C29189   0.141   2.599   5.771 -0.0229  0.2444  1.0101
  217MOL0     C29190   0.063   2.479   5.800 -0.7205  0.3522  0.9733
  217MOL0     O29191   0.011   2.483   5.919  0.1720  0.2423 -0.4939
  217MOL0     C29192  -0.078   2.384   5.959  0.9388 -0.5809  0.6401
  217MOL0     C29193  -0.039   2.286   6.054  0.1956 -0.0839 -0.9066
  217MOL0     C29194  -0.127   2.187   6.093  0.0538  0.0672  0.6286
  217MOL0     C29195  -0.251   2.183   6.040 -0.4659 -0.6843  0.1439
  217MOL0     O29196  -0.333   2.081   6.081 -0.1896  0.1520 -0.1042
  217MOL0     C29197  -0.365   1.983   5.984  0.0002 -0.2656 -0.2800
  217MOL0     C29198  -0.411   1.849   6.049 -0.0782  0.4691 -0.5492
  217MOL0     C29199  -0.297   1.779   6.127  0.0307 -0.4755  1.3690
  217MOL0     C29200  -0.348   1.645   6.181  0.2526 -0.9214 -0.6565
  217MOL0     C29201  -0.240   1.575   6.268  0.9926 -0.1412  0.1613
  217MOL0     C29202  -0.240   1.417   6.261 -0.0309 -0.2741  0.6659
  217MOL0     C29203  -0.181   1.373   6.128  0.0887 -0.0015 -0.0156
  217MOL0     C29204  -0.231   1.230   6.083  0.0095  0.1196  0.2455
  217MOL0    Cl29205  -0.224   1.104   6.211 -0.2290 -0.3383  0.1594
  217MOL0     C29206  -0.291   2.283   5.955  0.0917 -0.4466 -0.1177
  217MOL0     C29207  -0.209   2.377   5.903 -0.4047  0.1218 -0.9920
  217MOL0     O29208   0.080   2.379   5.733 -0.6493 -0.0286  1.1111
  217MOL0     C29209   0.214   2.665   5.870 -0.2754 -0.0118 -0.0110
  217MOL0     C29210   0.278   2.782   5.842 -0.3630  0.0866 -0.2337
  217MOL0     N29211   0.887   2.760   5.608  0.4234 -0.1536  0.6214
  217MOL0     N29212   1.010   2.743   5.588 -0.3976  0.2142 -0.4833
  217MOL0     C29213   1.126   2.854   6.661 -0.1259 -1.4805  1.0043
  217MOL0     C29214   1.037   2.946   6.709  0.2992  0.0046  0.1024
  217MOL0     C29215   0.619   3.155   6.672  0.2547  0.0083  0.4043
  217MOL0     C29216   0.517   3.202   6.578 -0.1014  0.3725 -0.4305
  217MOL0     C29217   0.430   3.307   6.626 -0.2510  0.2940  0.3718
  217MOL0     C29218   0.451   3.375   6.749  0.0865  0.1793 -0.6949
  217MOL0     O29219   0.359   3.460   6.797  0.2828 -0.2901  0.3265
  217MOL0     C29220   0.360   3.594   6.732 -0.0007 -0.4888  0.2012
  217MOL0     C29221   0.277   3.717   6.802 -0.6355  0.6050 -0.3794
  217MOL0     C29222   0.139   3.661   6.836  0.7201  0.1306  1.0350
  217MOL0     C29223   0.032   3.760   6.880  0.2061 -0.2416 -0.6842
  217MOL0     C29224   0.079   3.820   7.010 -0.3420 -0.2188 -0.5885
  217MOL0     C29225   0.138   3.851   7.114  0.4200 -0.1536 -0.2397
  217MOL0     C29226   0.553   3.334   6.834  0.0596  0.1500  0.2827
  217MOL0     C29227   0.641   3.231   6.795  0.5270 -0.4956 -1.2053
  217MOL0     H29228   0.753   2.774   6.632 -0.2698  1.0387 -1.9276
  217MOL0     H29229   0.922   2.623   6.532  3.0400 -0.9739  0.8121
  217MOL0     H29230   1.097   2.485   6.498  0.4511  2.0124  4.1615
  217MOL0     H29231   1.092   2.595   6.356  0.4317 -0.6069  0.4286
  217MOL0     H29232   1.342   2.453   6.448 -0.1977  1.6931  0.8533
  217MOL0     H29233   1.234   2.417   6.307  1.5809  0.4812 -0.7378
  217MOL0     H29234   1.432   2.643   6.372 -0.0892 -0.7621  0.6624
  217MOL0     H29235   1.458   2.528   6.255  1.5972 -0.0300  3.1614
  217MOL0     H29236   1.220   2.723   6.223 -1.9082  0.1100 -2.3662
  217MOL0     H29237   1.393   2.739   6.157  1.6189 -1.0718  0.8835
  217MOL0     H29238   1.352   2.534   6.016 -1.1054 -0.0712 -1.3594
  217MOL0     H29239   1.182   2.534   6.067  1.1536 -1.4352  0.8316
  217MOL0     H29240   1.147   2.763   5.994 -1.9131 -0.4921 -3.1440
  217MOL0     H29241   1.317   2.791   5.964  0.4750 -2.1699 -0.0705
  217MOL0     H29242   1.287   2.582   5.794 -2.1703 -2.1987 -3.3082
  217MOL0     H29243   1.120   2.617   5.818  0.8135 -1.9520  1.3862
  217MOL0     H29244   1.266   2.756   5.629 -0.6662 -1.8141  1.1172
  217MOL0     H29245   1.265   2.876   5.764 -0.5564  1.1112 -1.1547
  217MOL0     H29246   1.032   2.960   5.830  1.1222 -0.4458  0.0290
  217MOL0     H29247   0.693   2.808   5.747  3.3678 -1.4358 -1.5792
  217MOL0     H29248   0.739   2.957   5.832  1.9287  1.3837  0.2831
  217MOL0     H29249   0.612   2.927   5.557 -1.7517  2.0910 -0.7034
  217MOL0     H29250   0.744   3.055   5.592  0.8611 -0.9776 -1.3448
  217MOL0     H29251   0.521   3.150   5.626 -1.5848 -0.6013  1.1090
  217MOL0     H29252   0.603   3.134   5.782 -1.5997  1.7288  0.2017
  217MOL0     H29253   0.382   3.061   5.831 -3.4316 -1.6655 -1.0894
  217MOL0     H29254   0.489   2.934   5.846 -0.0684 -2.1936 -1.7939
  217MOL0     H29255   0.231   2.810   5.505 -0.2351 -0.7881 -0.6966
  217MOL0     H29256   0.057   2.658   5.429 -0.4768 -1.7728 -0.9410
  217MOL0     H29257   0.091   2.507   5.505  3.1632  0.9220 -1.0506
  217MOL0     H29258  -0.038   2.612   5.575  0.3319 -0.8286 -0.1174
  217MOL0     H29259   0.061   2.281   6.097  0.3342 -0.5274 -1.2831
  217MOL0     H29260  -0.084   2.110   6.157 -3.0082 -1.2007  1.3641
  217MOL0     H29261  -0.451   2.022   5.929 -2.3273 -0.0291  3.1491
  217MOL0     H29262  -0.280   1.962   5.919 -1.0108  2.6168 -2.7655
  217MOL0     H29263  -0.490   1.864   6.123  1.6064  2.7305  0.9083
  217MOL0     H29264  -0.432   1.766   5.981  4.0019 -0.7540 -0.5710
  217MOL0     H29265  -0.272   1.846   6.210  1.2261 -1.6918  2.0226
  217MOL0     H29266  -0.217   1.748   6.059  1.3383 -0.1309  2.7088
  217MOL0     H29267  -0.444   1.660   6.233 -0.7787 -0.4532 -2.5860
  217MOL0     H29268  -0.367   1.590   6.088  3.1536 -1.8211 -0.8156
  217MOL0     H29269  -0.253   1.597   6.374  1.9622 -1.5797  0.6112
  217MOL0     H29270  -0.137   1.605   6.248  1.6275 -2.4404 -0.2906
  217MOL0     H29271  -0.178   1.380   6.343  3.3078  0.7814 -1.2029
  217MOL0     H29272  -0.341   1.375   6.272  0.5798 -2.4596 -1.3625
  217MOL0     H29273  -0.072   1.370   6.139  0.0655  2.2085  1.2847
  217MOL0     H29274  -0.200   1.451   6.054 -2.7978 -0.3633  0.2305
  217MOL0     H29275  -0.170   1.190   6.001 -1.9848  1.3921 -1.9576
  217MOL0     H29276  -0.333   1.232   6.044  0.0762  2.4748  0.0571
  217MOL0     H29277  -0.389   2.298   5.911  1.5162  1.8359 -2.8585
  217MOL0     H29278  -0.246   2.457   5.840 -3.1832 -1.4096 -1.4699
  217MOL0     H29279   0.226   2.631   5.972  2.7916  0.4987 -0.1181
  217MOL0     H29280   0.333   2.829   5.922 -0.3202 -0.0038 -0.2104
  217MOL0     H29281   1.231   2.882   6.657 -0.0726 -1.5135 -3.9570
  217MOL0     H29282   1.073   3.037   6.756  2.1933 -0.0358 -1.1591
  217MOL0     H29283   0.496   3.142   6.490 -0.7759 -3.3872  2.0631
  217MOL0     H29284   0.347   3.333   6.561  0.0424 -0.9254 -0.5180
  217MOL0     H29285   0.464   3.622   6.712  0.1511  0.0420  1.6442
  217MOL0     H29286   0.321   3.599   6.630 -1.9431  0.8499  0.9427
  217MOL0     H29287   0.268   3.811   6.748  2.8660  1.9729  1.1462
  217MOL0     H29288   0.335   3.737   6.892  0.1664 -1.3334 -0.4195
  217MOL0     H29289   0.156   3.595   6.921  0.6221  0.9211  1.6863
  217MOL0     H29290   0.104   3.601   6.751 -0.0552  3.2573 -1.0678
  217MOL0     H29291  -0.059   3.711   6.915  0.5129 -1.1073 -1.0646
  217MOL0     H29292   0.018   3.837   6.802 -1.6137 -1.2042 -1.3741
  217MOL0     H29293   0.194   3.885   7.199 -2.8142 -1.2734  2.5891
  217MOL0     H29294   0.569   3.384   6.928  2.2654 -1.5355  0.8970
  217MOL0     H29295   0.717   3.202   6.866  0.0005 -2.6956 -1.4648
  218MOL0     O29296   8.344   5.221   0.457 -0.4813  0.1641  0.2123
  218MOL0     C29297   8.280   5.296   0.532  0.0845  0.4440 -0.2688
  218MOL0     O29298   8.278   5.428   0.547  0.4305  0.3097  0.4016
  218MOL0     C29299   8.380   5.508   0.498 -0.1783  0.4810  0.0325
  218MOL0     C29300   8.493   5.472   0.421 -0.7599  0.5615 -0.8314
  218MOL0     C29301   8.582   5.567   0.376 -0.0723 -0.0677 -0.3833
  218MOL0     C29302   8.574   5.696   0.427  0.3285 -1.4749  0.1746
  218MOL0     O29303   8.664   5.783   0.374  0.1372 -0.9458  0.3346
  218MOL0     C29304   8.667   5.909   0.444 -0.0784 -0.2376 -0.0758
  218MOL0     C29305   8.793   5.985   0.412  0.1248 -0.5904  0.1972
  218MOL0     C29306   8.777   6.069   0.278  1.0363 -0.4416 -0.3224
  218MOL0     C29307   8.757   5.987   0.152  0.2500 -0.7112  0.5332
  218MOL0     C29308   8.870   5.893   0.117 -0.6539  0.5826 -0.1563
  218MOL0     C29309   8.990   5.989   0.069  0.9167  1.1227 -0.2746
  218MOL0     C29310   9.101   5.902   0.018 -1.0430  0.6535  0.0789
  218MOL0     C29311   9.217   5.989  -0.034  0.2731 -1.3373  0.1327
  218MOL0     N29312   9.248   6.112   0.055 -0.0596 -0.2320 -0.4494
  218MOL0     C29313   9.270   6.245   0.011  0.3448  0.3120  0.5977
  218MOL0     C29314   9.295   6.312   0.127  0.8855 -0.0033 -0.4772
  218MOL0     C29315   9.302   6.463   0.134 -0.3523 -0.3525  0.4180
  218MOL0     C29316   9.163   6.512   0.148 -0.0196 -0.5775  0.1372
  218MOL0     C29317   9.166   6.648   0.223 -0.0921 -0.0136 -0.7903
  218MOL0     C29318   9.034   6.736   0.221  0.1914  0.3735 -0.4270
  218MOL0     O29319   9.048   6.873   0.275  0.2559  0.7456  0.5322
  218MOL0     C29320   8.947   6.958   0.293  0.3755  0.1184 -0.7348
  218MOL0     C29321   8.810   6.933   0.260 -0.1752 -0.1974 -0.1662
  218MOL0     C29322   8.718   7.038   0.264 -1.1778  0.4725  0.8558
  218MOL0     C29323   8.580   7.011   0.219  0.6760 -0.6844 -0.1315
  218MOL0     C29324   8.755   7.173   0.305  0.1679  0.4584 -0.9881
  218MOL0     C29325   8.658   7.287   0.296 -0.5179  0.6329  0.5733
  218MOL0     O29326   8.711   7.405   0.239  0.3994 -0.8955 -0.1940
  218MOL0     C29327   8.625   7.508   0.214  0.2043 -0.5605 -0.7243
  218MOL0     C29328   8.518   7.557   0.299 -0.0749  0.1102  0.5833
  218MOL0     C29329   8.443   7.668   0.266 -1.0095  0.3448 -0.2122
  218MOL0     C29330   8.473   7.748   0.164  0.3302 -0.1110  1.3820
  218MOL0     O29331   8.395   7.860   0.152  0.6713 -1.1898 -0.4843
  218MOL0     C29332   8.451   7.974   0.083 -0.0503  0.3809 -0.1565
  218MOL0     C29333   8.379   8.111   0.114 -0.0636  0.4713 -0.2675
  218MOL0     C29334   8.223   8.105   0.088  0.6796 -0.1257 -0.1263
  218MOL0     C29335   8.186   8.179  -0.043 -0.5461  0.0538  0.1176
  218MOL0     C29336   8.034   8.148  -0.080  0.9205  0.0653  0.5327
  218MOL0     C29337   7.983   8.231  -0.205  0.0884  0.2874  0.4476
  218MOL0     C29338   7.859   8.182  -0.286  0.5313 -0.8930  0.0479
  218MOL0     C29339   7.735   8.197  -0.201  0.0314  0.3737  0.3241
  218MOL0    Cl29340   7.578   8.187  -0.295  0.0547  0.4211  0.1285
  218MOL0     C29341   8.576   7.711   0.077  0.5181 -0.1909 -0.1458
  218MOL0     C29342   8.654   7.593   0.105  0.0342  0.0064  0.0974
  218MOL0     O29343   8.539   7.262   0.338 -0.1005 -0.5523 -0.9203
  218MOL0     C29344   8.892   7.196   0.346 -0.2076  0.1448 -0.7545
  218MOL0     C29345   8.982   7.085   0.335  0.0080  0.9560  0.0746
  218MOL0     N29346   9.290   6.223   0.234  0.6045  0.2232  0.3955
  218MOL0     N29347   9.277   6.104   0.190 -0.1290  0.2418 -0.8637
  218MOL0     C29348   8.470   5.732   0.515 -0.1288 -0.3374  0.5538
  218MOL0     C29349   8.370   5.635   0.544  0.0196  0.0092 -0.0610
  218MOL0     C29350   8.203   5.218   0.634  1.2660 -0.2310 -0.1291
  218MOL0     C29351   8.114   5.291   0.721  1.7700  0.4128 -0.6440
  218MOL0     C29352   8.025   5.226   0.810  1.1297  0.4327 -0.1015
  218MOL0     C29353   8.030   5.081   0.816 -0.0525 -0.4819  0.1725
  218MOL0     O29354   7.943   5.012   0.901 -0.4354 -0.2051 -0.1501
  218MOL0     C29355   7.997   4.943   1.014  0.1385  1.8165  0.1618
  218MOL0     C29356   8.116   4.839   1.007 -0.1957  0.2242  0.5564
  218MOL0     C29357   8.072   4.714   0.923 -0.2584 -0.1042  0.3130
  218MOL0     C29358   8.149   4.603   0.981 -0.6823 -0.4086  0.5551
  218MOL0     C29359   8.119   4.477   0.908  0.0881 -0.5507  0.3966
  218MOL0     C29360   8.117   4.369   0.854  1.1355  0.4709  0.3339
  218MOL0     C29361   8.103   5.007   0.726  0.2499 -1.0864  0.0595
  218MOL0     C29362   8.188   5.076   0.636 -0.0822 -0.5126 -0.3889
  218MOL0     H29363   8.520   5.369   0.401  0.4548  0.0823  2.5905
  218MOL0     H29364   8.670   5.538   0.320  1.1326 -0.0130  1.4029
  218MOL0     H29365   8.580   5.964   0.407 -2.0999 -0.2218  4.1126
  218MOL0     H29366   8.667   5.887   0.551  0.0766  0.2554  0.0284
  218MOL0     H29367   8.807   6.060   0.491  1.0364  1.3869 -1.7267
  218MOL0     H29368   8.870   5.910   0.430  0.2896 -0.7143 -0.9319
  218MOL0     H29369   8.692   6.137   0.293  2.5043  1.0062  2.1268
  218MOL0     H29370   8.869   6.124   0.258  1.4443 -1.1665 -0.4351
  218MOL0     H29371   8.665   5.926   0.158 -1.0913  1.1463 -0.2269
  218MOL0     H29372   8.746   6.048   0.062 -5.0467  0.3333  1.5541
  218MOL0     H29373   8.900   5.836   0.206  3.3923 -0.8641 -2.2174
  218MOL0     H29374   8.839   5.829   0.034 -2.9918  0.6423  0.5891
  218MOL0     H29375   8.965   6.062  -0.009  2.0314  0.5787 -1.1727
  218MOL0     H29376   9.030   6.035   0.160  2.3427  2.3687 -1.4703
  218MOL0     H29377   9.135   5.835   0.098 -0.9007 -0.2057 -0.6844
  218MOL0     H29378   9.068   5.850  -0.072 -1.5907  1.8022 -0.4064
  218MOL0     H29379   9.181   6.023  -0.131  0.9849  0.4421  0.4558
  218MOL0     H29380   9.309   5.939  -0.066  1.0254  0.4178 -0.5935
  218MOL0     H29381   9.258   6.289  -0.087  1.6075  2.8147  1.4788
  218MOL0     H29382   9.367   6.499   0.214 -0.0569  2.3640 -0.9224
  218MOL0     H29383   9.345   6.501   0.040  1.0178  0.7891  1.4689
  218MOL0     H29384   9.109   6.434   0.203  0.9947 -1.2352  0.2215
  218MOL0     H29385   9.117   6.511   0.049  0.6150 -2.1249 -0.1766
  218MOL0     H29386   9.252   6.702   0.182 -0.5696 -0.0346 -1.8591
  218MOL0     H29387   9.191   6.639   0.329  0.4204  3.2943 -0.5305
  218MOL0     H29388   8.951   6.695   0.280  1.8987 -0.2673  1.6691
  218MOL0     H29389   9.007   6.747   0.116 -1.8129  2.8669  0.2364
  218MOL0     H29390   8.787   6.835   0.219  2.2532 -0.9499  0.1634
  218MOL0     H29391   8.549   7.083   0.143  1.2207 -1.1832 -0.8357
  218MOL0     H29392   8.571   6.913   0.173 -0.5538 -0.5081 -0.2807
  218MOL0     H29393   8.511   7.008   0.304  0.6871 -1.4373 -0.1419
  218MOL0     H29394   8.477   7.501   0.382 -0.1822  0.0536  0.4920
  218MOL0     H29395   8.358   7.699   0.326  1.7515  3.0122  2.7338
  218MOL0     H29396   8.557   7.987   0.104 -0.1617  1.7546 -0.3360
  218MOL0     H29397   8.460   7.953  -0.024  1.1394 -2.7135  0.4398
  218MOL0     H29398   8.404   8.125   0.220  0.4955 -3.2559  0.2482
  218MOL0     H29399   8.439   8.185   0.062  1.3963 -0.5072 -0.0348
  218MOL0     H29400   8.177   8.155   0.174  4.1153 -3.0953  3.8340
  218MOL0     H29401   8.195   7.999   0.092  1.8285 -0.4300 -0.0334
  218MOL0     H29402   8.208   8.286  -0.047 -4.2946  0.9223 -3.1928
  218MOL0     H29403   8.249   8.142  -0.125 -2.4858  0.9268 -1.8782
  218MOL0     H29404   7.976   8.173   0.010  1.0475  0.4145  0.5174
  218MOL0     H29405   8.019   8.045  -0.114 -0.1191  0.3644  0.0479
  218MOL0     H29406   7.971   8.338  -0.186 -3.1980  0.3143 -1.0281
  218MOL0     H29407   8.070   8.221  -0.269  2.1553  1.3375  2.9109
  218MOL0     H29408   7.861   8.078  -0.322 -3.4339 -1.1079 -0.0586
  218MOL0     H29409   7.849   8.247  -0.373  2.3275 -0.4563  0.1405
  218MOL0     H29410   7.722   8.299  -0.162  1.4853  1.7011 -2.3941
  218MOL0     H29411   7.730   8.116  -0.128 -2.0752 -1.5304 -1.7948
  218MOL0     H29412   8.605   7.780  -0.002 -0.6575 -0.8773 -1.1932
  218MOL0     H29413   8.726   7.575   0.026 -0.7058  3.0309 -1.4406
  218MOL0     H29414   8.932   7.288   0.385 -3.7759  0.6866  2.2449
  218MOL0     H29415   9.077   7.082   0.386 -1.0957 -1.4457  2.2360
  218MOL0     H29416   8.458   5.837   0.542  3.1220  0.5959 -1.0948
  218MOL0     H29417   8.279   5.659   0.598  1.7944 -0.6268  3.5512
  218MOL0     H29418   8.094   5.398   0.713 -0.4405 -0.0154 -1.3012
  218MOL0     H29419   7.949   5.277   0.868  0.3394 -1.9572  1.0971
  218MOL0     H29420   8.030   5.021   1.083  1.3702  0.9244  0.6233
  218MOL0     H29421   7.911   4.902   1.069  1.2081  0.6651  1.0401
  218MOL0     H29422   8.140   4.811   1.110  2.2471 -0.4722 -0.1531
  218MOL0     H29423   8.203   4.890   0.965  0.9417 -1.0993  1.2671
  218MOL0     H29424   8.095   4.725   0.816  4.2897  0.2932  1.1396
  218MOL0     H29425   7.964   4.697   0.923 -0.2106 -0.4801 -0.6884
  218MOL0     H29426   8.105   4.596   1.081 -4.9932  1.8534 -0.9016
  218MOL0     H29427   8.256   4.623   0.981 -0.4146 -1.7533  0.4464
  218MOL0     H29428   8.113   4.277   0.799  0.1206  2.1171 -2.5575
  218MOL0     H29429   8.084   4.901   0.712 -2.7132 -0.5298 -0.6909
  218MOL0     H29430   8.249   5.029   0.559  2.0876  5.1571 -2.7186
  219MOL0     O29431   6.379  10.576   6.298 -0.2893 -0.0122 -0.8023
  219MOL0     C29432   6.460  10.482   6.310  0.3743 -0.1698  0.0126
  219MOL0     O29433   6.584  10.482   6.367  0.2451  0.1929  0.5318
  219MOL0     C29434   6.602  10.598   6.447 -0.3319  0.3179 -0.5909
  219MOL0     C29435   6.546  10.597   6.566  0.9231 -0.7144  0.2718
  219MOL0     C29436   6.579  10.688   6.667 -0.8644  0.1004 -0.2835
  219MOL0     C29437   6.684  10.772   6.650  0.3911 -0.0040 -0.3530
  219MOL0     O29438   6.717  10.858   6.756 -0.0686 -0.8068  0.0582
  219MOL0     C29439   6.843  10.923   6.757  0.5590 -1.0455 -0.8377
  219MOL0     C29440   6.896  10.923   6.901 -0.3132  0.3153  0.0763
  219MOL0     C29441   6.798  10.981   6.991  0.9435 -0.9082  0.1211
  219MOL0     C29442   6.863  11.017   7.130 -0.0317 -0.7558  0.4662
  219MOL0     C29443   6.789  11.124   7.208  0.4417  1.4645  0.2030
  219MOL0     C29444   6.658  11.073   7.269  0.0994  1.1341 -0.2412
  219MOL0     C29445   6.632  11.155   7.389 -0.6190 -0.3445 -0.4458
  219MOL0     C29446   6.494  11.189   7.416  0.0385  1.1499 -0.7587
  219MOL0     N29447   6.451  11.297   7.323  0.5979 -0.3356 -0.4521
  219MOL0     C29448   6.321  11.302   7.271  0.3058  0.2113 -0.3798
  219MOL0     C29449   6.313  11.424   7.226 -1.2637 -0.6557  0.6955
  219MOL0     C29450   6.202  11.491   7.150 -0.2521 -0.5723  0.7337
  219MOL0     C29451   6.259  11.605   7.058  1.5090  0.6383 -0.6167
  219MOL0     C29452   6.172  11.668   6.955 -0.1356 -0.3446  0.4058
  219MOL0     C29453   6.062  11.574   6.895 -0.1781  0.0865 -0.3363
  219MOL0     O29454   5.996  11.652   6.794 -0.6296 -0.4078 -1.3972
  219MOL0     C29455   5.885  11.592   6.745  0.3690  1.7331  0.9968
  219MOL0     C29456   5.825  11.468   6.774  0.1729 -0.8959  0.3184
  219MOL0     C29457   5.712  11.419   6.692 -0.1225 -0.1014  0.3811
  219MOL0     C29458   5.646  11.287   6.729  0.3907 -1.0367  0.7486
  219MOL0     C29459   5.671  11.494   6.578 -0.9728  0.0460 -0.1869
  219MOL0     C29460   5.569  11.460   6.488  0.4613 -0.6911  0.2032
  219MOL0     O29461   5.542  11.336   6.478  1.4092  0.6021  0.0737
  219MOL0     C29462   5.447  11.285   6.398  0.4422 -0.1130  0.3381
  219MOL0     C29463   5.323  11.345   6.375 -0.4379 -0.1210 -0.5800
  219MOL0     C29464   5.229  11.275   6.294 -0.4680  0.8996  0.1658
  219MOL0     C29465   5.263  11.150   6.229  1.7482 -0.0193 -0.1942
  219MOL0     O29466   5.170  11.072   6.153 -0.1325  0.2169 -0.2982
  219MOL0     C29467   5.034  11.126   6.141  0.9707  0.8797  0.9970
  219MOL0     C29468   4.968  11.027   6.033 -0.7622  0.4129 -0.1078
  219MOL0     C29469   4.819  11.021   6.051  0.1788  0.5899 -0.2349
  219MOL0     C29470   4.756  11.146   5.981 -0.4528 -0.0296  0.6502
  219MOL0     C29471   4.604  11.123   5.974 -0.1566 -0.7101  0.0509
  219MOL0     C29472   4.542  11.258   5.937 -0.1758 -0.3079 -0.3652
  219MOL0     C29473   4.387  11.249   5.952 -0.3322 -0.0470  0.2392
  219MOL0     C29474   4.313  11.382   5.965 -0.5676 -0.4864 -0.3628
  219MOL0    Cl29475   4.145  11.348   5.964  0.1211 -0.0911 -0.0570
  219MOL0     C29476   5.386  11.087   6.244  0.5587  0.1481 -0.6497
  219MOL0     C29477   5.474  11.162   6.331 -0.0844 -0.3915 -0.0257
  219MOL0     O29478   5.526  11.551   6.419  0.9730 -0.3099  0.0792
  219MOL0     C29479   5.745  11.619   6.550 -0.6308  0.2095  0.0762
  219MOL0     C29480   5.853  11.658   6.626 -0.4005 -0.0899 -0.2398
  219MOL0     N29481   6.428  11.492   7.246  0.2555 -0.3769  0.2031
  219MOL0     N29482   6.510  11.416   7.314 -0.0451 -0.1356  0.1336
  219MOL0     C29483   6.742  10.773   6.530 -0.1122  0.3335  0.4063
  219MOL0     C29484   6.709  10.683   6.428  0.6870 -0.3083 -0.1786
  219MOL0     C29485   6.412  10.359   6.247 -0.4940 -0.2727 -0.7201
  219MOL0     C29486   6.450  10.234   6.302  0.3588  0.8478 -0.5551
  219MOL0     C29487   6.406  10.115   6.243  1.0481  0.5150  0.1437
  219MOL0     C29488   6.311  10.110   6.142  0.4886 -0.5548  0.2415
  219MOL0     O29489   6.289  10.006   6.059  0.2414  0.1169  0.5207
  219MOL0     C29490   6.309   9.865   6.097  0.2774 -0.3756 -0.1089
  219MOL0     C29491   6.205   9.815   6.199 -0.2732 -0.8894  0.5179
  219MOL0     C29492   6.094   9.711   6.143 -0.0406  0.3971 -0.3266
  219MOL0     C29493   6.003   9.773   6.035  0.1414 -0.3655  0.5098
  219MOL0     C29494   5.911   9.677   5.969  0.2750  1.1273 -1.2883
  219MOL0     C29495   5.839   9.590   5.926 -0.0997 -0.4121  0.4974
  219MOL0     C29496   6.259  10.234   6.097 -0.5990 -0.2040 -0.5377
  219MOL0     C29497   6.304  10.357   6.157 -0.1498 -0.7738  1.2756
  219MOL0     H29498   6.462  10.530   6.582 -1.0744  1.5268 -0.0817
  219MOL0     H29499   6.532  10.678   6.764 -0.9159  2.3551 -0.0278
  219MOL0     H29500   6.918  10.868   6.699  1.4385 -0.7727  0.0123
  219MOL0     H29501   6.829  11.024   6.718 -1.8088 -0.9979 -0.0221
  219MOL0     H29502   6.926  10.822   6.929  1.1560  1.0706  1.4100
  219MOL0     H29503   6.989  10.980   6.901  0.8542 -1.5361  0.2392
  219MOL0     H29504   6.748  11.071   6.954 -0.1346 -1.1849  0.8558
  219MOL0     H29505   6.715  10.914   7.015 -1.2887  0.9635 -1.8689
  219MOL0     H29506   6.858  10.923   7.185 -1.7306 -1.0969 -0.1973
  219MOL0     H29507   6.968  11.048   7.126  1.0511 -4.1114 -2.0590
  219MOL0     H29508   6.861  11.144   7.289 -1.4786  0.6953  2.2049
  219MOL0     H29509   6.781  11.221   7.158  1.1201  1.8055  0.7283
  219MOL0     H29510   6.569  11.075   7.206 -1.5427  0.0324  1.8897
  219MOL0     H29511   6.671  10.969   7.303 -0.6401  1.6130  1.6669
  219MOL0     H29512   6.665  11.095   7.474 -0.7567  0.7680  0.4195
  219MOL0     H29513   6.696  11.244   7.393 -0.9570 -0.1053 -0.3276
  219MOL0     H29514   6.509  11.232   7.516  2.5707 -1.1013 -0.0613
  219MOL0     H29515   6.419  11.111   7.426  1.4894 -0.2486 -0.3122
  219MOL0     H29516   6.251  11.220   7.278  0.8806 -0.6197 -2.9505
  219MOL0     H29517   6.168  11.415   7.080 -1.4336  1.7561 -1.4109
  219MOL0     H29518   6.118  11.517   7.215 -1.5811 -1.1020 -0.7112
  219MOL0     H29519   6.333  11.551   6.999  0.0547 -4.2681  1.5498
  219MOL0     H29520   6.290  11.686   7.124 -1.5494 -0.5256  2.5414
  219MOL0     H29521   6.238  11.703   6.875  1.0647 -0.9068  1.1207
  219MOL0     H29522   6.122  11.750   7.009  0.3097 -0.4873  1.0383
  219MOL0     H29523   5.994  11.540   6.973 -0.3595 -2.3193 -1.4416
  219MOL0     H29524   6.113  11.489   6.850  0.9531  1.5346 -1.9598
  219MOL0     H29525   5.863  11.408   6.856  1.4152 -1.7769 -0.8740
  219MOL0     H29526   5.681  11.214   6.655 -0.5466  0.8523 -1.6835
  219MOL0     H29527   5.671  11.262   6.832  1.8614  2.1040  1.2778
  219MOL0     H29528   5.538  11.289   6.717  0.5042 -4.7862 -3.4907
  219MOL0     H29529   5.282  11.438   6.413 -1.8833 -1.2017  0.6631
  219MOL0     H29530   5.125  11.307   6.286 -1.3337 -1.9958 -2.4030
  219MOL0     H29531   4.967  11.120   6.228 -1.8127 -0.6407 -1.0886
  219MOL0     H29532   5.024  11.226   6.098  0.5534  0.5280  0.2475
  219MOL0     H29533   4.990  11.060   5.931  1.7698  1.3070  0.6521
  219MOL0     H29534   5.013  10.928   6.042  2.5480  1.8138 -0.1093
  219MOL0     H29535   4.793  11.031   6.157  1.5534  1.3755  0.0621
  219MOL0     H29536   4.784  10.928   6.005  2.8947  0.2376 -1.8314
  219MOL0     H29537   4.769  11.240   6.035  4.6693  0.6359 -1.1459
  219MOL0     H29538   4.791  11.166   5.879 -0.1150 -2.3208  0.2485
  219MOL0     H29539   4.567  11.090   6.071 -0.2901 -0.6861  0.0074
  219MOL0     H29540   4.583  11.053   5.892 -0.1427  2.2345 -2.6648
  219MOL0     H29541   4.574  11.333   6.009 -0.5036  1.8768 -2.3954
  219MOL0     H29542   4.580  11.290   5.840  0.0472  1.2334  0.2057
  219MOL0     H29543   4.364  11.185   6.037  2.6828  0.7987  1.8308
  219MOL0     H29544   4.358  11.193   5.862 -2.9629  0.5239  0.6344
  219MOL0     H29545   4.332  11.446   5.878 -0.0285 -0.3246 -0.1302
  219MOL0     H29546   4.345  11.438   6.053  1.7470 -1.3892 -0.5439
  219MOL0     H29547   5.419  10.989   6.210  1.7436  0.3480 -0.1518
  219MOL0     H29548   5.566  11.110   6.357  0.4043  1.3196  1.9382
  219MOL0     H29549   5.709  11.677   6.466  0.5371 -1.2517 -1.5128
  219MOL0     H29550   5.897  11.755   6.607  0.1693 -0.7078 -2.4058
  219MOL0     H29551   6.815  10.846   6.497 -1.0873  0.8589 -0.6724
  219MOL0     H29552   6.769  10.679   6.337 -1.1015 -1.1125 -1.3932
  219MOL0     H29553   6.517  10.227   6.387  1.2023  0.2360 -1.2446
  219MOL0     H29554   6.437  10.021   6.286 -0.0211 -1.4269 -3.0137
  219MOL0     H29555   6.330   9.798   6.013 -3.4045 -1.9572  0.0374
  219MOL0     H29556   6.409   9.855   6.140  1.1439 -2.0949 -2.3317
  219MOL0     H29557   6.153   9.907   6.227  1.4387 -0.4249  2.4301
  219MOL0     H29558   6.250   9.775   6.290  0.7476 -0.1960  0.3422
  219MOL0     H29559   6.030   9.689   6.228 -1.4135 -1.6312 -1.7945
  219MOL0     H29560   6.147   9.624   6.103  4.0924  2.8470 -0.7582
  219MOL0     H29561   6.067   9.826   5.965 -1.1572  0.9778  0.2760
  219MOL0     H29562   5.938   9.849   6.080 -1.5710 -1.8656  0.6838
  219MOL0     H29563   5.795   9.509   5.872 -1.5381  1.7270 -1.7244
  219MOL0     H29564   6.187  10.235   6.016 -1.5708  4.6589  0.0698
  219MOL0     H29565   6.252  10.450   6.133  2.2872  0.0511 -1.3109
  220MOL0     O29566   2.172   5.756   7.476  0.6709 -0.3621 -0.8201
  220MOL0     C29567   2.135   5.653   7.426  1.7492 -0.7997  0.1035
  220MOL0     O29568   2.051   5.649   7.312 -0.2089 -0.0280 -0.1340
  220MOL0     C29569   2.043   5.750   7.222  0.4058 -0.3979 -0.0520
  220MOL0     C29570   1.917   5.776   7.159  0.3469  0.5478 -0.3504
  220MOL0     C29571   1.906   5.875   7.071 -0.9266  0.3112  0.4875
  220MOL0     C29572   2.015   5.954   7.035  0.0202  0.0800  0.7927
  220MOL0     O29573   1.995   6.054   6.936  0.0130  0.0232  0.0297
  220MOL0     C29574   2.092   6.100   6.847 -0.4646  0.2062  0.0790
  220MOL0     C29575   2.166   5.984   6.766 -0.4359  0.3341 -0.3615
  220MOL0     C29576   2.061   5.904   6.688 -0.2001 -0.3779 -0.5027
  220MOL0     C29577   2.115   5.823   6.569 -0.0161 -0.0720  0.2848
  220MOL0     C29578   2.011   5.728   6.502 -0.8286  0.0196 -0.2428
  220MOL0     C29579   2.073   5.627   6.409  0.1013 -0.6234  0.4998
  220MOL0     C29580   1.956   5.565   6.321 -0.1660  0.6894  0.4786
  220MOL0     C29581   1.877   5.469   6.405 -1.1289  1.0156  0.5278
  220MOL0     N29582   1.785   5.383   6.323 -0.6532  0.2226  0.0624
  220MOL0     C29583   1.811   5.256   6.290 -0.8961  0.6220 -0.7450
  220MOL0     C29584   1.697   5.209   6.253  0.1153  0.3819  0.2185
  220MOL0     C29585   1.684   5.073   6.191 -0.0246 -0.2972 -0.6490
  220MOL0     C29586   1.570   5.068   6.089  0.4365 -0.2333  1.1937
  220MOL0     C29587   1.580   4.952   5.991  0.7144  0.6615  0.1616
  220MOL0     C29588   1.447   4.937   5.921  0.2374 -0.3259  0.1024
  220MOL0     O29589   1.469   4.831   5.819  0.7188  0.2233 -0.9209
  220MOL0     C29590   1.364   4.740   5.787  0.6255 -0.9574  0.4228
  220MOL0     C29591   1.397   4.608   5.746  0.1345  0.0594  1.1788
  220MOL0     C29592   1.310   4.498   5.723  0.3739  0.4035  0.1820
  220MOL0     C29593   1.369   4.379   5.647 -0.3866  0.3268 -0.2076
  220MOL0     C29594   1.171   4.519   5.757  0.3183 -0.8030  0.4998
  220MOL0     C29595   1.065   4.413   5.748  0.4809 -1.0457  0.3435
  220MOL0     O29596   0.949   4.449   5.794  0.1196 -0.3937 -0.1956
  220MOL0     C29597   0.861   4.343   5.831 -0.5717  0.0378  0.4195
  220MOL0     C29598   0.752   4.297   5.747  0.2207 -0.2237 -0.1460
  220MOL0     C29599   0.652   4.217   5.809 -0.7897  0.4496 -0.0349
  220MOL0     C29600   0.652   4.175   5.944  0.3631 -0.4682  0.3724
  220MOL0     O29601   0.549   4.103   5.997 -0.1952 -0.2873 -0.2791
  220MOL0     C29602   0.416   4.147   5.966  0.1367 -0.4921 -0.2232
  220MOL0     C29603   0.311   4.052   6.029  0.1538  0.4233  1.6792
  220MOL0     C29604   0.168   4.086   5.980  0.3100 -1.0575  0.0155
  220MOL0     C29605   0.073   4.002   6.061 -0.6065  0.4069 -0.1101
  220MOL0     C29606  -0.079   4.028   6.036 -0.6868 -0.5004  0.7688
  220MOL0     C29607  -0.161   3.952   6.137  1.1516 -0.0838 -0.0855
  220MOL0     C29608  -0.316   3.977   6.112  0.0223 -0.3730  0.0272
  220MOL0     C29609  -0.395   3.852   6.139 -0.0117  0.1902 -0.7294
  220MOL0    Cl29610  -0.356   3.699   6.039 -0.2839  0.0047 -0.0383
  220MOL0     C29611   0.763   4.208   6.015 -0.3057 -0.4053 -0.3694
  220MOL0     C29612   0.858   4.296   5.962  0.5131  1.7444  0.7541
  220MOL0     O29613   1.084   4.305   5.697  0.2317  0.6250 -0.0870
  220MOL0     C29614   1.131   4.660   5.783 -0.9591 -0.3524 -0.3559
  220MOL0     C29615   1.227   4.763   5.805  0.6917  0.8279  0.3009
  220MOL0     N29616   1.610   5.311   6.252  0.0201  0.5031  0.2575
  220MOL0     N29617   1.664   5.417   6.295 -0.3527 -0.7763  0.8802
  220MOL0     C29618   2.140   5.937   7.103  0.8705 -0.2361 -0.3334
  220MOL0     C29619   2.151   5.832   7.191 -0.1757 -0.0215 -0.3085
  220MOL0     C29620   2.170   5.531   7.503 -0.1681 -0.5964 -0.6575
  220MOL0     C29621   2.230   5.538   7.629 -0.1559 -0.5364 -0.1649
  220MOL0     C29622   2.271   5.428   7.701  0.8055 -0.6086 -0.5993
  220MOL0     C29623   2.238   5.299   7.659  0.6312 -0.3454 -0.5391
  220MOL0     O29624   2.290   5.193   7.734  0.7615 -0.6346  0.2334
  220MOL0     C29625   2.195   5.092   7.769 -0.6763  0.2300 -1.0586
  220MOL0     C29626   2.175   5.086   7.923  0.8475 -0.2397 -0.4700
  220MOL0     C29627   2.291   5.030   8.002  0.6885 -0.0102 -0.0610
  220MOL0     C29628   2.344   4.896   7.941  0.3673 -0.1198  0.3500
  220MOL0     C29629   2.437   4.830   8.026 -0.8620  0.1024 -0.4875
  220MOL0     C29630   2.524   4.770   8.086 -0.7262  0.4657 -0.3054
  220MOL0     C29631   2.172   5.287   7.536  1.0389  0.4189  0.6602
  220MOL0     C29632   2.137   5.404   7.462  0.7378  0.6449  0.2914
  220MOL0     H29633   1.825   5.721   7.177  1.0775 -0.4659  0.4124
  220MOL0     H29634   1.812   5.892   7.019 -2.2002  2.3693  3.2130
  220MOL0     H29635   2.058   6.172   6.772 -2.8955 -1.3403 -0.4150
  220MOL0     H29636   2.168   6.146   6.911 -2.0387  0.5441  1.7829
  220MOL0     H29637   2.236   6.035   6.699  0.1064 -0.7800 -0.6609
  220MOL0     H29638   2.240   5.930   6.826  0.8521  2.5249  0.1582
  220MOL0     H29639   1.999   5.840   6.751 -1.4410 -0.1568 -1.4739
  220MOL0     H29640   1.993   5.974   6.639  0.2619 -0.7094 -1.6577
  220MOL0     H29641   2.161   5.895   6.500  0.9261 -1.9075 -1.1062
  220MOL0     H29642   2.196   5.765   6.614  0.0129  0.3429  0.7690
  220MOL0     H29643   1.963   5.674   6.584  0.9251  1.9825  2.2498
  220MOL0     H29644   1.938   5.790   6.450 -1.9023 -1.0665 -0.0723
  220MOL0     H29645   2.142   5.680   6.343 -0.1643  3.5873  3.2560
  220MOL0     H29646   2.125   5.544   6.459  1.4347 -0.2594 -0.2439
  220MOL0     H29647   1.890   5.636   6.270 -0.6058 -1.5376 -2.3014
  220MOL0     H29648   2.002   5.513   6.236  0.4971 -0.8137  1.7131
  220MOL0     H29649   1.816   5.517   6.482 -1.4716 -0.7803  1.4341
  220MOL0     H29650   1.938   5.396   6.459 -3.4910 -2.0710 -0.6940
  220MOL0     H29651   1.908   5.209   6.299  0.0291  2.5900  0.0423
  220MOL0     H29652   1.781   5.053   6.144  0.7754 -1.4034  1.3017
  220MOL0     H29653   1.657   4.999   6.267 -3.2058 -0.0365 -1.4160
  220MOL0     H29654   1.565   5.163   6.035 -1.7046 -1.0882 -0.2844
  220MOL0     H29655   1.472   5.065   6.136 -0.9076  3.7917 -0.8699
  220MOL0     H29656   1.600   4.859   6.046  0.9073  1.5469  1.6526
  220MOL0     H29657   1.654   4.968   5.912  0.2612 -2.4948 -1.0405
  220MOL0     H29658   1.418   5.024   5.860 -3.4455 -2.2326 -1.2241
  220MOL0     H29659   1.374   4.906   5.997  1.3955  0.4830  1.5892
  220MOL0     H29660   1.501   4.585   5.725 -0.2207 -0.8119  0.2839
  220MOL0     H29661   1.312   4.334   5.566 -0.2356 -1.5466  0.6827
  220MOL0     H29662   1.464   4.409   5.602 -0.7511  0.4284 -0.9188
  220MOL0     H29663   1.395   4.295   5.712 -0.5383 -2.3055 -3.3009
  220MOL0     H29664   0.754   4.340   5.647 -0.3860 -4.2320 -2.0739
  220MOL0     H29665   0.581   4.188   5.732 -0.8200 -0.9782  0.4961
  220MOL0     H29666   0.391   4.251   5.987 -1.1631 -1.1138  1.4923
  220MOL0     H29667   0.404   4.144   5.857  1.0945  0.9151 -0.4000
  220MOL0     H29668   0.333   3.950   5.996 -1.6626 -0.2801  2.4757
  220MOL0     H29669   0.340   4.069   6.133  1.9825  1.6226  1.0290
  220MOL0     H29670   0.144   4.053   5.879 -1.4184 -1.5707  0.5704
  220MOL0     H29671   0.143   4.192   5.970 -0.3085 -1.1132  0.9145
  220MOL0     H29672   0.096   3.896   6.044  1.1151  0.9068 -1.2057
  220MOL0     H29673   0.093   4.025   6.166  0.3828  0.6570 -0.3449
  220MOL0     H29674  -0.110   3.988   5.939  0.7124 -1.2072  0.5898
  220MOL0     H29675  -0.095   4.135   6.051 -1.5744 -0.1701 -2.0052
  220MOL0     H29676  -0.139   3.845   6.139  1.1040 -0.1268 -1.0427
  220MOL0     H29677  -0.150   3.984   6.241  3.0696 -1.1605  0.0908
  220MOL0     H29678  -0.337   4.004   6.009  0.0718 -0.5739 -0.0358
  220MOL0     H29679  -0.351   4.060   6.174 -2.7662 -1.5740  0.1879
  220MOL0     H29680  -0.499   3.883   6.131  1.0292  5.0259  0.9865
  220MOL0     H29681  -0.375   3.816   6.241  2.9343 -0.5716 -1.4608
  220MOL0     H29682   0.781   4.171   6.116  2.9563  0.0688 -0.6553
  220MOL0     H29683   0.931   4.329   6.036  0.9302  1.8893  0.2837
  220MOL0     H29684   1.024   4.680   5.792 -1.3962 -1.5065 -2.3681
  220MOL0     H29685   1.197   4.863   5.834 -0.6274  0.4656  0.2865
  220MOL0     H29686   2.232   5.993   7.090  0.6800  0.4184  1.0164
  220MOL0     H29687   2.240   5.841   7.254 -0.9027 -0.4484  0.8027
  220MOL0     H29688   2.255   5.636   7.670 -1.3053 -1.0684  1.9341
  220MOL0     H29689   2.326   5.442   7.793  2.9553 -3.0922 -1.3879
  220MOL0     H29690   2.096   5.096   7.724 -1.2151 -0.3060  0.0574
  220MOL0     H29691   2.249   5.004   7.734 -0.4134 -0.1803  0.3440
  220MOL0     H29692   2.083   5.030   7.941 -1.7528  2.8529 -2.9191
  220MOL0     H29693   2.138   5.184   7.954  1.1521 -0.6061  1.1148
  220MOL0     H29694   2.252   5.021   8.104 -0.4939  2.1807 -0.2687
  220MOL0     H29695   2.361   5.113   8.003 -2.8559  3.2790 -0.3068
  220MOL0     H29696   2.383   4.904   7.839  0.8150  0.6827  0.5785
  220MOL0     H29697   2.261   4.824   7.947 -0.0923  0.4924  1.7575
  220MOL0     H29698   2.577   4.702   8.149 -0.9971 -2.2581 -2.8189
  220MOL0     H29699   2.131   5.197   7.492  1.0823 -0.2583  1.9471
  220MOL0     H29700   2.086   5.380   7.370 -0.5191 -0.5128  1.2486
  221MOL0     O29701   5.200  10.459   9.874  0.4970  0.5628 -0.0738
  221MOL0     C29702   5.067  10.450   9.868 -0.6134 -0.1283  0.1143
  221MOL0     O29703   4.996  10.382   9.963  0.7310 -0.1049 -0.5044
  221MOL0     C29704   5.054  10.278  10.042 -0.3083 -0.0193  0.4800
  221MOL0     C29705   5.002  10.248  10.167  0.0567  0.5471  0.0330
  221MOL0     C29706   5.045  10.138  10.237  0.2023  0.3763 -0.8648
  221MOL0     C29707   5.144  10.057  10.181 -0.4406  0.4069  0.1208
  221MOL0     O29708   5.158   9.937  10.241  0.3077 -0.7631 -0.6912
  221MOL0     C29709   5.245   9.839  10.185  0.2805  0.4893  0.0816
  221MOL0     C29710   5.202   9.765  10.056 -0.1047 -0.0119 -0.2851
  221MOL0     C29711   5.048   9.752  10.047 -1.4028  0.5344  0.1797
  221MOL0     C29712   5.014   9.631   9.949 -0.3024  0.9142 -0.4101
  221MOL0     C29713   4.923   9.676   9.836 -0.1826 -0.0657  0.6963
  221MOL0     C29714   4.991   9.757   9.726  0.3037  0.5935  0.2207
  221MOL0     C29715   4.885   9.828   9.647  0.0089 -0.7878  0.8150
  221MOL0     C29716   4.941   9.893   9.523  0.2305 -0.1080 -0.6086
  221MOL0     N29717   4.980  10.030   9.547 -1.3156  0.9927 -1.3051
  221MOL0     C29718   4.986  10.129   9.441  0.1198  0.5148  0.1034
  221MOL0     C29719   5.041  10.243   9.494 -0.3722  0.1115  0.5428
  221MOL0     C29720   5.070  10.380   9.433  0.5817  0.1052 -0.5616
  221MOL0     C29721   4.974  10.423   9.328 -0.5844  0.2082 -0.3546
  221MOL0     C29722   5.000  10.353   9.197  1.0395  0.6167  0.4553
  221MOL0     C29723   5.097  10.417   9.102  0.5508 -0.2481  0.9025
  221MOL0     O29724   5.122  10.310   9.008 -0.4843 -0.9952 -0.8526
  221MOL0     C29725   5.208  10.343   8.908 -0.0234  0.1256  0.4459
  221MOL0     C29726   5.253  10.476   8.875 -0.2946  0.1335  0.2761
  221MOL0     C29727   5.347  10.515   8.779 -0.4199 -0.5083 -0.8283
  221MOL0     C29728   5.351  10.664   8.748 -0.0985 -1.1463  0.0801
  221MOL0     C29729   5.402  10.409   8.704 -0.4772  0.0299 -0.9265
  221MOL0     C29730   5.488  10.444   8.582  0.7265  0.6490 -0.3400
  221MOL0     O29731   5.537  10.571   8.564 -0.2355 -0.4958 -0.5109
  221MOL0     C29732   5.636  10.570   8.474 -0.0697 -0.2033  0.2855
  221MOL0     C29733   5.765  10.528   8.516 -0.4076 -0.3687 -0.1934
  221MOL0     C29734   5.871  10.529   8.427  0.2895  0.1718 -0.4374
  221MOL0     C29735   5.855  10.565   8.287 -0.5332 -0.5384 -0.2556
  221MOL0     O29736   5.950  10.563   8.188  0.7991  0.3085 -0.0043
  221MOL0     C29737   6.085  10.596   8.229 -0.6769  0.1607 -0.1085
  221MOL0     C29738   6.169  10.611   8.106  0.2310  0.2056 -0.0343
  221MOL0     C29739   6.124  10.733   8.028 -0.7117 -0.8318 -0.3043
  221MOL0     C29740   6.220  10.757   7.909 -0.7052  0.3424 -0.3740
  221MOL0     C29741   6.187  10.884   7.827 -0.7371 -0.5548  0.0938
  221MOL0     C29742   6.187  11.026   7.884  0.4038 -0.5836 -0.1436
  221MOL0     C29743   6.107  11.127   7.793  0.9360  0.1137  0.0049
  221MOL0     C29744   6.121  11.269   7.840 -0.5786 -0.4299  0.5721
  221MOL0    Cl29745   6.068  11.287   8.004 -0.0554 -0.3349 -0.2506
  221MOL0     C29746   5.724  10.595   8.247  0.8696  0.6433 -0.3826
  221MOL0     C29747   5.619  10.616   8.342 -1.2616  0.0295  0.0604
  221MOL0     O29748   5.492  10.358   8.501  0.7778  0.3704  0.4790
  221MOL0     C29749   5.362  10.272   8.732 -1.2756 -0.4313  0.1081
  221MOL0     C29750   5.268  10.240   8.834  0.5266  0.0048 -0.4811
  221MOL0     N29751   5.085  10.211   9.617  0.6824  0.8188 -0.1830
  221MOL0     N29752   5.047  10.094   9.655 -0.1030  0.4572  0.2449
  221MOL0     C29753   5.201  10.085  10.054 -1.0184  0.5095 -0.6731
  221MOL0     C29754   5.144  10.193   9.988  0.8530  0.6923  0.7999
  221MOL0     C29755   4.999  10.533   9.764 -0.7505  0.1491 -0.7113
  221MOL0     C29756   5.055  10.650   9.707  0.1875 -0.6706 -0.0649
  221MOL0     C29757   4.994  10.705   9.592  0.3911  0.1598 -0.3059
  221MOL0     C29758   4.863  10.663   9.554 -0.7253 -0.3973 -0.2002
  221MOL0     O29759   4.824  10.726   9.436  0.4909 -0.0893  1.0126
  221MOL0     C29760   4.691  10.735   9.398  0.6211 -0.0350 -0.3953
  221MOL0     C29761   4.687  10.644   9.263 -0.8300  0.8185  0.3249
  221MOL0     C29762   4.568  10.689   9.169 -0.3016 -0.2056 -0.2477
  221MOL0     C29763   4.561  10.624   9.035  0.6304 -0.0329 -0.4606
  221MOL0     C29764   4.667  10.665   8.949  0.4306 -0.4617  0.2119
  221MOL0     C29765   4.744  10.704   8.868 -0.5066 -0.4141 -0.2741
  221MOL0     C29766   4.798  10.563   9.624 -0.3758 -0.2664 -0.2869
  221MOL0     C29767   4.868  10.499   9.726  0.5207  0.8400 -0.2604
  221MOL0     H29768   4.912  10.304  10.188 -0.0792  2.1135 -3.9511
  221MOL0     H29769   4.985  10.089  10.313  1.6363 -2.1037 -1.2173
  221MOL0     H29770   5.347   9.876  10.173  0.5769 -0.9284 -2.3702
  221MOL0     H29771   5.247   9.760  10.260  0.9397 -0.1893 -0.6350
  221MOL0     H29772   5.240   9.824   9.972  1.3388  1.7866  1.5156
  221MOL0     H29773   5.255   9.670  10.041 -2.3161 -1.4283  0.4622
  221MOL0     H29774   4.991   9.736  10.139 -1.1214  1.2683  0.4945
  221MOL0     H29775   5.013   9.854  10.030  0.7164  1.4552  0.9327
  221MOL0     H29776   5.100   9.579   9.907 -0.1505 -1.3351  2.3462
  221MOL0     H29777   4.968   9.545  10.000 -0.3970  1.3518  0.2598
  221MOL0     H29778   4.884   9.591   9.778 -0.9319  1.8055 -1.7260
  221MOL0     H29779   4.849   9.735   9.891 -0.9038  1.5055 -1.7642
  221MOL0     H29780   5.063   9.827   9.771 -0.0371 -0.1846  2.0600
  221MOL0     H29781   5.045   9.698   9.650 -1.1106 -1.7454  0.9230
  221MOL0     H29782   4.798   9.766   9.623  0.6019 -2.0056  1.7033
  221MOL0     H29783   4.851   9.905   9.717  0.0458 -0.6140  0.6419
  221MOL0     H29784   4.863   9.880   9.447  2.7331 -1.1012 -3.2316
  221MOL0     H29785   5.026   9.835   9.484 -0.3437 -2.6875  1.6694
  221MOL0     H29786   4.935  10.119   9.346  0.1118 -2.0471  0.3263
  221MOL0     H29787   5.070  10.452   9.515  2.6750 -1.0385  0.5329
  221MOL0     H29788   5.163  10.376   9.376  0.2413  0.1905 -1.1241
  221MOL0     H29789   4.992  10.531   9.331  1.8020 -0.1121 -0.8331
  221MOL0     H29790   4.875  10.387   9.356  0.7196 -2.6334  1.0634
  221MOL0     H29791   4.904  10.352   9.145  1.1802 -1.6829  0.1699
  221MOL0     H29792   5.033  10.251   9.218 -0.5003 -0.2392 -1.0782
  221MOL0     H29793   5.188  10.448   9.154 -0.6498  0.9824  2.3890
  221MOL0     H29794   5.051  10.503   9.051  1.7250 -0.0331  0.1612
  221MOL0     H29795   5.215  10.557   8.936  1.5796 -2.0915  4.9554
  221MOL0     H29796   5.283  10.687   8.666  0.2651  2.7256  0.6703
  221MOL0     H29797   5.296  10.717   8.827 -3.9216 -4.6157  0.1013
  221MOL0     H29798   5.452  10.705   8.736 -0.3632  0.7904  3.2143
  221MOL0     H29799   5.781  10.507   8.622  0.7834 -0.3290 -0.3516
  221MOL0     H29800   5.965  10.503   8.475 -0.9185  2.6453  3.7998
  221MOL0     H29801   6.092  10.684   8.293  0.1155 -1.3033  1.9032
  221MOL0     H29802   6.135  10.516   8.285  0.5880  0.2611 -1.0290
  221MOL0     H29803   6.275  10.617   8.129  0.1674  0.5141  0.1890
  221MOL0     H29804   6.151  10.519   8.049  0.3438  0.5853 -0.6847
  221MOL0     H29805   6.118  10.819   8.094 -0.2898  0.2681 -1.6408
  221MOL0     H29806   6.024  10.725   7.984 -0.6027  1.7320 -1.1907
  221MOL0     H29807   6.321  10.765   7.952 -1.4225  3.0947  0.9754
  221MOL0     H29808   6.221  10.665   7.849  1.3042 -2.4698  3.4933
  221MOL0     H29809   6.089  10.870   7.780 -1.6076  0.8714  1.4131
  221MOL0     H29810   6.265  10.892   7.751  1.8424 -3.5316  2.1765
  221MOL0     H29811   6.137  11.029   7.982  1.7911  0.1056  0.5702
  221MOL0     H29812   6.286  11.062   7.913  0.7925 -2.4163  0.9892
  221MOL0     H29813   6.001  11.100   7.785  1.7961 -3.1475 -5.0602
  221MOL0     H29814   6.153  11.113   7.695  1.8108 -0.9311  0.5379
  221MOL0     H29815   6.077  11.346   7.776  3.3044  1.0106 -0.6866
  221MOL0     H29816   6.227  11.295   7.832 -1.0505  2.1346  1.8950
  221MOL0     H29817   5.698  10.595   8.142  1.0528  3.9641 -0.5281
  221MOL0     H29818   5.527  10.665   8.313 -1.7047 -0.1507  1.1245
  221MOL0     H29819   5.408  10.185   8.686 -1.6732 -0.8345  0.4603
  221MOL0     H29820   5.244  10.137   8.859 -0.3944  0.7293  1.9425
  221MOL0     H29821   5.286  10.033  10.012  1.1324  2.4395  1.0618
  221MOL0     H29822   5.172  10.215   9.885 -3.5645  0.3548 -0.6940
  221MOL0     H29823   5.160  10.661   9.735  0.1480 -0.8388  0.1552
  221MOL0     H29824   5.030  10.795   9.544 -1.9218  1.6693  0.5866
  221MOL0     H29825   4.613  10.696   9.465 -0.3652 -1.6090 -2.3572
  221MOL0     H29826   4.662  10.838   9.377  0.2083 -0.5965 -2.8678
  221MOL0     H29827   4.672  10.540   9.295  2.7477  0.9437  3.1757
  221MOL0     H29828   4.782  10.635   9.209 -0.4773  0.3599  0.9991
  221MOL0     H29829   4.564  10.797   9.149 -3.0290 -0.6132 -2.4929
  221MOL0     H29830   4.479  10.667   9.229 -0.6239  0.6234 -0.4068
  221MOL0     H29831   4.468  10.657   8.987 -0.0922 -0.4106  0.6246
  221MOL0     H29832   4.544  10.517   9.048 -3.9970  0.2538 -2.1146
  221MOL0     H29833   4.809  10.734   8.788  0.1821  3.4261  1.4870
  221MOL0     H29834   4.701  10.521   9.599 -0.4259  0.1730 -0.8307
  221MOL0     H29835   4.820  10.410   9.765  1.4396  0.1132 -0.7332
  222MOL0     O29836   1.839   6.494   1.536  0.3893 -0.7698 -0.1173
  222MOL0     C29837   1.748   6.418   1.510  0.1192 -1.3832  0.6166
  222MOL0     O29838   1.763   6.304   1.436  0.7114 -1.2196  0.0376
  222MOL0     C29839   1.883   6.251   1.436 -0.8125 -0.1869  0.3886
  222MOL0     C29840   1.938   6.198   1.313  0.9036  0.9918 -0.2773
  222MOL0     C29841   2.070   6.155   1.304  0.3295  0.6106  0.0564
  222MOL0     C29842   2.162   6.157   1.422 -0.3181  0.3883  2.2059
  222MOL0     O29843   2.288   6.107   1.394  0.5102 -0.4440 -0.3118
  222MOL0     C29844   2.372   6.073   1.506  0.3872 -0.4880 -0.0884
  222MOL0     C29845   2.504   6.008   1.461  0.1454 -0.4301 -0.0714
  222MOL0     C29846   2.482   5.871   1.398 -0.6140 -0.1145 -0.9260
  222MOL0     C29847   2.608   5.791   1.369 -0.7227 -0.2179 -0.7484
  222MOL0     C29848   2.570   5.644   1.342  0.9800  0.6926 -0.1025
  222MOL0     C29849   2.665   5.559   1.261  0.6358  0.1233 -0.0021
  222MOL0     C29850   2.807   5.561   1.312 -0.3961  0.3838  0.3266
  222MOL0     C29851   2.814   5.506   1.456  0.3607 -0.2022  0.1834
  222MOL0     N29852   2.947   5.491   1.517 -0.9093  0.1746 -0.6109
  222MOL0     C29853   3.071   5.477   1.451  0.5550 -0.3136  0.1566
  222MOL0     C29854   3.168   5.481   1.549 -0.6579 -0.6559 -0.5527
  222MOL0     C29855   3.314   5.458   1.533  1.2436  0.1470  0.2624
  222MOL0     C29856   3.361   5.326   1.583 -0.2512 -0.8821 -0.2093
  222MOL0     C29857   3.282   5.205   1.524 -0.0874 -0.6941 -0.5137
  222MOL0     C29858   3.310   5.172   1.382 -0.1657  0.3035 -0.4657
  222MOL0     O29859   3.192   5.134   1.311 -0.6932  0.5809 -0.6393
  222MOL0     C29860   3.204   5.084   1.185 -0.7306 -0.1395 -0.5562
  222MOL0     C29861   3.316   5.069   1.113 -0.9282 -0.8918 -0.2859
  222MOL0     C29862   3.327   5.017   0.980  0.0191  1.1529  0.3366
  222MOL0     C29863   3.471   5.011   0.920  0.3058  0.1101  0.5008
  222MOL0     C29864   3.212   4.970   0.918  1.2403 -0.0014  0.4630
  222MOL0     C29865   3.199   4.909   0.778 -0.9867  1.3774  0.1120
  222MOL0     O29866   3.081   4.882   0.723 -0.0422  0.0312  0.1425
  222MOL0     C29867   3.087   4.801   0.607  0.0479  0.6783 -0.6040
  222MOL0     C29868   3.138   4.847   0.481  0.2992  0.0711 -0.8912
  222MOL0     C29869   3.153   4.754   0.385  0.6559  0.3074  0.5942
  222MOL0     C29870   3.114   4.617   0.392  0.8598 -1.1191 -0.0656
  222MOL0     O29871   3.141   4.538   0.284  0.6074 -0.4894 -0.0012
  222MOL0     C29872   3.116   4.389   0.284 -0.3330 -0.1069  0.3446
  222MOL0     C29873   2.992   4.349   0.204  0.0538  0.2207 -0.2485
  222MOL0     C29874   2.867   4.401   0.293 -0.5915  0.4961  1.0942
  222MOL0     C29875   2.741   4.382   0.201 -0.1562 -0.6030 -0.7295
  222MOL0     C29876   2.621   4.426   0.295  0.0912 -0.5603 -0.2445
  222MOL0     C29877   2.477   4.401   0.223  0.1005 -0.6547  0.4694
  222MOL0     C29878   2.363   4.475   0.293  0.7308  0.1734  0.1480
  222MOL0     C29879   2.341   4.443   0.435  0.6032  1.7113 -0.6156
  222MOL0    Cl29880   2.320   4.270   0.465 -0.2236 -0.0614  0.3134
  222MOL0     C29881   3.063   4.575   0.519  0.3071 -0.4859 -0.4790
  222MOL0     C29882   3.050   4.666   0.623 -0.1976 -0.1390  0.6145
  222MOL0     O29883   3.311   4.879   0.717  0.6158  0.0188 -0.1233
  222MOL0     C29884   3.091   4.983   0.988  0.4210 -0.2904 -0.5225
  222MOL0     C29885   3.088   5.035   1.117  0.1723 -1.0917  0.8387
  222MOL0     N29886   3.098   5.487   1.670 -0.3502 -0.6288  0.2680
  222MOL0     N29887   2.968   5.495   1.654 -0.5221  0.4536 -0.2982
  222MOL0     C29888   2.107   6.206   1.537  0.1149 -0.0051 -0.0601
  222MOL0     C29889   1.980   6.258   1.543  0.1196  0.4084 -0.7046
  222MOL0     C29890   1.608   6.466   1.534  0.3519  0.2989 -0.9561
  222MOL0     C29891   1.506   6.428   1.451  0.3892  0.2006 -0.5106
  222MOL0     C29892   1.376   6.471   1.479  0.4020  0.7213  0.1415
  222MOL0     C29893   1.353   6.560   1.591  0.5096  0.9781 -0.3783
  222MOL0     O29894   1.235   6.632   1.617 -0.2217 -0.4575  0.0151
  222MOL0     C29895   1.165   6.680   1.495 -0.4956  0.2569 -0.5385
  222MOL0     C29896   1.026   6.720   1.529  0.0365 -0.2319 -0.2943
  222MOL0     C29897   1.017   6.826   1.647 -0.0967  0.5841  0.2603
  222MOL0     C29898   0.895   6.916   1.645  1.3958 -0.8380 -1.2129
  222MOL0     C29899   0.766   6.834   1.653 -0.8049  0.9048  0.6207
  222MOL0     C29900   0.671   6.772   1.668 -0.1679  0.5645  0.2471
  222MOL0     C29901   1.460   6.582   1.675 -0.3820  0.0766  0.0036
  222MOL0     C29902   1.586   6.547   1.639  0.5708 -0.2290 -0.7468
  222MOL0     H29903   1.866   6.197   1.232  0.3516 -2.2908  0.1446
  222MOL0     H29904   2.098   6.128   1.202 -0.8708 -2.0617  0.3476
  222MOL0     H29905   2.392   6.168   1.557  2.8417  0.5164 -2.6554
  222MOL0     H29906   2.329   5.994   1.568 -2.9152  0.8378 -0.5260
  222MOL0     H29907   2.544   6.079   1.388  0.0488  2.8484  2.8109
  222MOL0     H29908   2.570   5.991   1.546 -2.6885  1.8240  2.8760
  222MOL0     H29909   2.412   5.808   1.453 -0.2725 -1.6238 -2.1503
  222MOL0     H29910   2.430   5.888   1.303 -1.0991  1.5879 -0.3815
  222MOL0     H29911   2.672   5.827   1.288  1.3699 -0.7545  0.5837
  222MOL0     H29912   2.678   5.794   1.453 -1.3258  3.1277 -0.2210
  222MOL0     H29913   2.558   5.598   1.441  0.0185  0.2888 -0.3898
  222MOL0     H29914   2.479   5.640   1.281 -0.8424  1.0646  2.4215
  222MOL0     H29915   2.626   5.462   1.231  0.0121  0.9921 -2.1983
  222MOL0     H29916   2.685   5.597   1.160  1.9440 -0.6986 -0.0684
  222MOL0     H29917   2.875   5.512   1.242  0.1802  0.7432  0.6172
  222MOL0     H29918   2.848   5.663   1.312  0.8323 -0.0615  2.1781
  222MOL0     H29919   2.755   5.414   1.464  0.6867 -0.4634 -0.3306
  222MOL0     H29920   2.770   5.582   1.520 -2.4930 -2.5706  1.2533
  222MOL0     H29921   3.078   5.476   1.342  1.3421 -1.3628  0.2022
  222MOL0     H29922   3.346   5.481   1.431 -0.3083  4.4592  0.5778
  222MOL0     H29923   3.357   5.538   1.593 -1.7734  3.7391 -1.9488
  222MOL0     H29924   3.344   5.322   1.691 -2.4170 -2.7504 -0.5394
  222MOL0     H29925   3.468   5.335   1.562 -0.8079 -1.5864 -4.0881
  222MOL0     H29926   3.178   5.239   1.526  1.1860  3.9625 -0.9282
  222MOL0     H29927   3.299   5.120   1.591  1.6911  1.0472  1.3914
  222MOL0     H29928   3.387   5.094   1.381 -1.3168 -0.8528 -0.1474
  222MOL0     H29929   3.354   5.257   1.330  1.8984  0.9975  2.1737
  222MOL0     H29930   3.405   5.095   1.169 -1.6013 -1.3827  1.0669
  222MOL0     H29931   3.542   5.066   0.983 -1.9688  0.3849  3.0213
  222MOL0     H29932   3.501   4.906   0.910  0.3992  0.1595  0.2619
  222MOL0     H29933   3.465   5.061   0.823  0.6224  2.8114  1.8019
  222MOL0     H29934   3.175   4.948   0.479  2.2420 -0.2588  3.9737
  222MOL0     H29935   3.200   4.784   0.292  0.2999 -1.3438 -0.1703
  222MOL0     H29936   3.199   4.345   0.227  0.6177  2.4208 -0.3655
  222MOL0     H29937   3.132   4.346   0.383  2.4265 -0.7360 -0.2813
  222MOL0     H29938   2.985   4.393   0.104  1.1640 -2.0698 -1.4277
  222MOL0     H29939   2.993   4.241   0.188  1.3036  0.1819 -0.0081
  222MOL0     H29940   2.891   4.505   0.316  0.1001  0.3367  1.1276
  222MOL0     H29941   2.859   4.361   0.394 -2.3701  2.0273  1.6126
  222MOL0     H29942   2.759   4.447   0.115  1.2535 -0.2468 -0.1890
  222MOL0     H29943   2.738   4.278   0.169  1.7535 -0.8312 -0.2699
  222MOL0     H29944   2.630   4.533   0.315  2.8391 -0.3024 -2.2637
  222MOL0     H29945   2.620   4.357   0.380 -0.9052 -1.0451 -0.6325
  222MOL0     H29946   2.484   4.448   0.125  0.4996  0.0901  0.8442
  222MOL0     H29947   2.454   4.295   0.209 -2.4157 -0.3696  1.8927
  222MOL0     H29948   2.269   4.451   0.242  1.2282 -1.5030 -0.0609
  222MOL0     H29949   2.389   4.581   0.284 -0.9506  0.6566  0.6060
  222MOL0     H29950   2.259   4.500   0.478  0.9982  0.7236  1.5620
  222MOL0     H29951   2.433   4.471   0.487  2.9109 -3.9418 -0.9323
  222MOL0     H29952   3.040   4.472   0.544  1.5910 -0.1427  2.6200
  222MOL0     H29953   3.016   4.624   0.717  2.1640 -1.9272  0.7422
  222MOL0     H29954   2.997   4.956   0.941  1.0366 -1.1663 -1.3060
  222MOL0     H29955   2.998   5.035   1.178 -0.9174  1.9375 -0.5421
  222MOL0     H29956   2.164   6.199   1.630 -0.7400 -2.8287  0.3505
  222MOL0     H29957   1.959   6.308   1.638  4.3744  1.5992 -0.1675
  222MOL0     H29958   1.531   6.376   1.359  4.3121 -1.0887  1.0927
  222MOL0     H29959   1.301   6.446   1.404  2.3578  1.0601 -2.0428
  222MOL0     H29960   1.219   6.765   1.452  1.9980 -0.1070  1.6120
  222MOL0     H29961   1.156   6.601   1.419  1.1312 -0.6237  0.1501
  222MOL0     H29962   0.964   6.633   1.555 -1.1960  0.6516 -0.1867
  222MOL0     H29963   0.979   6.768   1.442  3.5366  0.4991 -1.9431
  222MOL0     H29964   1.100   6.895   1.629 -0.7186  1.2532 -0.1018
  222MOL0     H29965   1.035   6.775   1.742  0.2668  3.6567  1.9424
  222MOL0     H29966   0.893   6.984   1.560  0.9924  3.2610  1.7652
  222MOL0     H29967   0.906   6.971   1.739 -1.0104  4.4607 -3.6787
  222MOL0     H29968   0.583   6.716   1.691  0.3237 -0.1868  0.3652
  222MOL0     H29969   1.437   6.652   1.755  0.4414  0.4523 -0.0781
  222MOL0     H29970   1.671   6.581   1.698 -1.4211 -0.9500  2.8152
  223MOL0     O29971   6.693   3.569   8.875 -0.8178 -0.1157 -0.3939
  223MOL0     C29972   6.801   3.630   8.909  0.0276  0.5126 -0.6019
  223MOL0     O29973   6.867   3.608   9.026 -0.1726 -0.0789 -0.7290
  223MOL0     C29974   6.806   3.528   9.123 -0.4245  0.6423 -0.2413
  223MOL0     C29975   6.815   3.577   9.254  0.4631 -0.0300  1.2418
  223MOL0     C29976   6.760   3.486   9.355 -0.7091 -0.0525 -0.0329
  223MOL0     C29977   6.692   3.365   9.328 -0.7562 -0.3638  0.6501
  223MOL0     O29978   6.652   3.290   9.430  0.1705  0.1899 -0.5931
  223MOL0     C29979   6.668   3.147   9.412 -0.1701  1.0076  0.9128
  223MOL0     C29980   6.675   3.085   9.547 -0.2156  0.4309 -0.4981
  223MOL0     C29981   6.814   3.102   9.617  0.0011 -0.1071 -0.2042
  223MOL0     C29982   6.816   3.038   9.759  0.3292 -0.6262  0.6569
  223MOL0     C29983   6.734   3.112   9.871 -0.1992  1.0283  0.3776
  223MOL0     C29984   6.700   3.012   9.990  0.0512 -0.6589  0.2580
  223MOL0     C29985   6.821   2.984  10.070 -0.3646  0.7342  0.1982
  223MOL0     C29986   6.768   2.886  10.173 -0.1457  0.3394  0.5598
  223MOL0     N29987   6.876   2.816  10.242 -0.6633 -0.1670 -0.6524
  223MOL0     C29988   6.980   2.871  10.325 -0.8929 -0.0835  0.2600
  223MOL0     C29989   7.056   2.766  10.373  0.3972  0.0352 -0.8976
  223MOL0     C29990   7.142   2.783  10.495  0.2504  0.1577 -0.1175
  223MOL0     C29991   7.203   2.656  10.551 -0.6510 -0.1591  1.4462
  223MOL0     C29992   7.315   2.607  10.449 -0.2505  0.0335 -0.4232
  223MOL0     C29993   7.456   2.616  10.514 -0.2462  0.1104  0.3914
  223MOL0     O29994   7.513   2.750  10.502 -0.1513  0.3126  0.0421
  223MOL0     C29995   7.639   2.773  10.536  0.5768  0.8657  0.0475
  223MOL0     C29996   7.715   2.684  10.613 -1.3455  0.1597  0.7615
  223MOL0     C29997   7.855   2.715  10.632 -0.3436  0.0845 -0.3116
  223MOL0     C29998   7.951   2.601  10.685  0.8207  1.3348 -0.2608
  223MOL0     C29999   7.905   2.847  10.596 -0.3299 -0.0147 -0.1304
  223MOL0     C30000   8.038   2.906  10.630  0.2307  0.1607 -0.8613
  223MOL0     O30001   8.090   3.021  10.576 -0.0420  0.0445 -0.3431
  223MOL0     C30002   8.153   3.104  10.668 -0.0722  0.6157  0.1046
  223MOL0     C30003   8.072   3.201  10.732 -0.9204 -0.4729  0.3094
  223MOL0     C30004   8.130   3.294  10.823 -0.5155  0.1625 -0.1933
  223MOL0     C30005   8.264   3.297  10.852  0.1109 -0.3354 -0.5217
  223MOL0     O30006   8.307   3.380  10.947 -0.1757 -0.2510 -0.0114
  223MOL0     C30007   8.405   3.327  11.034  0.4546  0.8790  0.1719
  223MOL0     C30008   8.410   3.413  11.162  1.3151  0.1382 -0.3727
  223MOL0     C30009   8.452   3.558  11.133  0.3534  0.8063 -1.0572
  223MOL0     C30010   8.597   3.579  11.131 -1.1182  1.1162  0.4408
  223MOL0     C30011   8.642   3.729  11.111  0.0483 -0.9163  0.1929
  223MOL0     C30012   8.786   3.750  11.080 -0.0055  0.7922 -0.7129
  223MOL0     C30013   8.866   3.664  11.181  0.4489  0.7732 -1.1032
  223MOL0     C30014   8.842   3.704  11.325  0.2718 -0.1412  0.1565
  223MOL0    Cl30015   8.936   3.855  11.365  0.0386 -0.0001 -0.0581
  223MOL0     C30016   8.344   3.200  10.793  0.4876  0.5347 -0.7047
  223MOL0     C30017   8.291   3.102  10.706 -0.0108  0.2730  0.7519
  223MOL0     O30018   8.098   2.846  10.728  0.0876  0.5798  0.1484
  223MOL0     C30019   7.817   2.930  10.527  0.8394 -0.2108 -0.1437
  223MOL0     C30020   7.692   2.888  10.484 -0.4806 -0.2859  0.8150
  223MOL0     N30021   7.001   2.646  10.316 -0.0282  0.1953 -1.1900
  223MOL0     N30022   6.895   2.681  10.241 -0.5375 -0.5876 -0.5511
  223MOL0     C30023   6.683   3.327   9.194  0.9468 -0.0617  0.2939
  223MOL0     C30024   6.743   3.402   9.089 -0.3280 -0.4103 -0.5763
  223MOL0     C30025   6.858   3.747   8.836  0.2162 -0.8648 -1.0502
  223MOL0     C30026   6.988   3.782   8.852 -0.1524 -0.0203 -0.0163
  223MOL0     C30027   7.039   3.885   8.769 -0.0353  1.2700  0.5788
  223MOL0     C30028   6.956   3.962   8.690 -0.1744 -0.9839  0.7478
  223MOL0     O30029   7.024   4.058   8.629 -0.1065  0.1230 -0.0032
  223MOL0     C30030   6.947   4.148   8.546 -0.6751 -0.4693 -0.6728
  223MOL0     C30031   7.038   4.208   8.429  0.2636 -0.1695  0.6938
  223MOL0     C30032   6.981   4.307   8.325  0.3016  0.4724 -0.0422
  223MOL0     C30033   7.105   4.358   8.246  1.2155 -0.2306 -0.2076
  223MOL0     C30034   7.063   4.461   8.149  0.9850  0.7137  1.1523
  223MOL0     C30035   7.031   4.567   8.095 -0.0605 -0.4508 -0.1272
  223MOL0     C30036   6.814   3.933   8.681 -0.5608 -0.1124 -1.5687
  223MOL0     C30037   6.773   3.826   8.756  0.1098  0.2299 -0.4519
  223MOL0     H30038   6.827   3.683   9.273  2.4086 -0.5779  3.6136
  223MOL0     H30039   6.777   3.525   9.455  0.3106  2.0314 -0.9507
  223MOL0     H30040   6.577   3.109   9.364  0.0275 -0.1935  1.4585
  223MOL0     H30041   6.759   3.114   9.362 -1.6071 -1.4679 -0.2406
  223MOL0     H30042   6.600   3.132   9.611  1.2657 -0.5018  2.0571
  223MOL0     H30043   6.651   2.980   9.530 -2.0745  0.9528 -1.3529
  223MOL0     H30044   6.887   3.039   9.566 -2.2131 -2.8221 -0.2634
  223MOL0     H30045   6.839   3.208   9.624  4.0013 -0.9456  0.6671
  223MOL0     H30046   6.775   2.937   9.749  0.3429 -0.6647  0.9731
  223MOL0     H30047   6.918   3.033   9.800  0.3164  1.0922  0.9643
  223MOL0     H30048   6.785   3.196   9.917 -0.9512 -0.3779  4.1163
  223MOL0     H30049   6.640   3.149   9.827  0.1682  0.0960 -1.3064
  223MOL0     H30050   6.619   3.043  10.057  1.0487  0.7249  0.8845
  223MOL0     H30051   6.680   2.914   9.946 -0.0184 -0.5530  0.0558
  223MOL0     H30052   6.904   2.936  10.019  0.9995  0.8096  2.2228
  223MOL0     H30053   6.856   3.068  10.131 -0.6725 -0.9083  2.8039
  223MOL0     H30054   6.699   2.813  10.131  0.6442 -1.2977  1.9597
  223MOL0     H30055   6.715   2.956  10.238 -0.4907  2.0823 -1.4993
  223MOL0     H30056   6.982   2.975  10.353  0.6512 -0.3902  1.4351
  223MOL0     H30057   7.231   2.841  10.470  0.4378  0.4814  1.2437
  223MOL0     H30058   7.071   2.832  10.562  1.5675  0.4372  1.1164
  223MOL0     H30059   7.132   2.574  10.561 -2.0043  0.4481 -1.9777
  223MOL0     H30060   7.232   2.667  10.656  2.5599  0.0622  0.6462
  223MOL0     H30061   7.305   2.637  10.345 -0.2910 -1.4244 -0.8604
  223MOL0     H30062   7.302   2.499  10.440 -2.3909  0.3646 -1.9642
  223MOL0     H30063   7.518   2.541  10.463  0.4287  0.8898  0.0527
  223MOL0     H30064   7.446   2.592  10.621  1.2700  0.4478  0.6359
  223MOL0     H30065   7.685   2.585  10.647  3.6797 -0.9391  2.9560
  223MOL0     H30066   8.029   2.589  10.609 -1.0199 -1.3651 -1.8794
  223MOL0     H30067   7.998   2.627  10.781  0.6079  1.8597 -0.2948
  223MOL0     H30068   7.897   2.506  10.688 -1.5321  2.3782 -3.8666
  223MOL0     H30069   7.965   3.213  10.719 -1.0110 -0.1156  1.2809
  223MOL0     H30070   8.060   3.357  10.877 -0.7040 -1.7195  1.9214
  223MOL0     H30071   8.368   3.227  11.059 -0.8465  1.1760 -0.4385
  223MOL0     H30072   8.506   3.312  10.997  1.0453  0.0354  2.0195
  223MOL0     H30073   8.311   3.403  11.208  1.2836 -0.2864 -0.5265
  223MOL0     H30074   8.487   3.381  11.233  2.5070  4.0806  0.3341
  223MOL0     H30075   8.402   3.621  11.208 -0.7050 -2.3351  1.1312
  223MOL0     H30076   8.406   3.590  11.039  1.2889 -1.0182 -2.1950
  223MOL0     H30077   8.641   3.541  11.224 -0.9027 -0.0320 -0.1208
  223MOL0     H30078   8.638   3.530  11.043 -0.1421  0.6889  1.1213
  223MOL0     H30079   8.611   3.785  11.199  2.3696 -1.3550  1.3583
  223MOL0     H30080   8.590   3.783  11.031  0.6909 -0.5986 -0.0169
  223MOL0     H30081   8.818   3.722  10.979  1.3995  3.3320 -1.0536
  223MOL0     H30082   8.828   3.849  11.097 -0.0272  0.6301  0.3448
  223MOL0     H30083   8.973   3.674  11.161  0.3123 -0.7846 -2.8705
  223MOL0     H30084   8.853   3.556  11.168 -0.0266  0.4510  1.5026
  223MOL0     H30085   8.873   3.618  11.385 -1.5070  0.3142  1.8406
  223MOL0     H30086   8.735   3.716  11.343  0.4438  1.7352  0.1614
  223MOL0     H30087   8.452   3.200  10.808  0.1272  2.4160  3.2413
  223MOL0     H30088   8.357   3.025  10.666  1.4892  0.2273  3.1206
  223MOL0     H30089   7.844   3.028  10.490 -0.2269 -0.9027 -2.9750
  223MOL0     H30090   7.640   2.946  10.408  0.5158 -0.6602 -0.1863
  223MOL0     H30091   6.622   3.241   9.170  0.0021 -0.5838  4.0311
  223MOL0     H30092   6.742   3.359   8.990 -1.8144 -1.3083 -0.2104
  223MOL0     H30093   7.057   3.717   8.906  0.3853  1.7673  1.5600
  223MOL0     H30094   7.145   3.906   8.775  0.3197 -0.0458 -0.5608
  223MOL0     H30095   6.863   4.100   8.494 -2.9336  0.5449  1.8310
  223MOL0     H30096   6.899   4.228   8.603 -1.3374 -0.5690 -1.0872
  223MOL0     H30097   7.093   4.130   8.377  0.7205  0.0563  0.8304
  223MOL0     H30098   7.116   4.265   8.482  0.9996  2.6794 -3.0311
  223MOL0     H30099   6.932   4.388   8.380  0.1181  0.5763 -0.3562
  223MOL0     H30100   6.901   4.262   8.266  0.7663  1.4731 -1.4818
  223MOL0     H30101   7.152   4.277   8.190 -0.3119 -0.6187 -0.9958
  223MOL0     H30102   7.179   4.407   8.310  0.2910  1.8537 -0.6377
  223MOL0     H30103   6.997   4.656   8.046  1.9926 -0.2343 -1.2732
  223MOL0     H30104   6.742   3.997   8.631 -0.0289  1.2613 -0.6297
  223MOL0     H30105   6.670   3.791   8.759  0.4298 -0.6663  0.4752
  224MOL0     O30106   7.215   6.360   8.750 -0.3788 -0.0113  0.1932
  224MOL0     C30107   7.123   6.378   8.831 -0.4978 -0.2698  0.2092
  224MOL0     O30108   7.089   6.290   8.927  0.2290 -0.2007  0.0428
  224MOL0     C30109   7.116   6.160   8.919  0.5815 -0.1217  0.3460
  224MOL0     C30110   7.135   6.091   9.040 -0.2036  0.6627  0.7986
  224MOL0     C30111   7.138   5.951   9.044  0.8064  0.6090  0.0698
  224MOL0     C30112   7.128   5.884   8.918  0.0515  0.3011  0.4743
  224MOL0     O30113   7.124   5.746   8.917  0.2095 -0.1060  0.0070
  224MOL0     C30114   7.205   5.673   9.019  0.1497 -0.0119  0.0554
  224MOL0     C30115   7.218   5.526   8.980 -0.1089  0.0437 -0.1716
  224MOL0     C30116   7.322   5.461   9.077  0.5424 -0.5905 -0.4258
  224MOL0     C30117   7.327   5.307   9.068  0.0166 -0.0752  0.1511
  224MOL0     C30118   7.401   5.241   9.174 -0.0352  0.6871  0.7391
  224MOL0     C30119   7.331   5.216   9.312 -0.1063 -0.5055  0.0905
  224MOL0     C30120   7.215   5.111   9.311 -0.7432 -1.0206 -0.6098
  224MOL0     C30121   7.130   5.117   9.441 -0.5457 -0.8232  0.4614
  224MOL0     N30122   7.217   5.082   9.552  0.1082  0.5999 -0.3680
  224MOL0     C30123   7.286   4.964   9.566  0.7221  0.3185 -0.5029
  224MOL0     C30124   7.359   4.982   9.671  0.7272  0.5120  0.0221
  224MOL0     C30125   7.438   4.879   9.745 -0.3786  1.2009  0.1762
  224MOL0     C30126   7.531   4.798   9.665  0.3777  1.2268 -0.4404
  224MOL0     C30127   7.643   4.879   9.602  0.2851 -0.5526  0.1002
  224MOL0     C30128   7.694   4.823   9.467  0.4901  0.5148  0.4514
  224MOL0     O30129   7.596   4.815   9.358 -0.2050 -0.5429  0.8850
  224MOL0     C30130   7.661   4.810   9.235  0.0547 -0.2794  0.7764
  224MOL0     C30131   7.670   4.924   9.146  1.2247  0.3066 -0.4800
  224MOL0     C30132   7.746   4.929   9.027  0.0990 -0.7027  0.2592
  224MOL0     C30133   7.773   5.056   8.951  0.2561  1.2438  0.1995
  224MOL0     C30134   7.814   4.807   8.987 -0.6926 -0.4628 -0.2798
  224MOL0     C30135   7.873   4.782   8.848 -0.8186 -0.2158 -0.2748
  224MOL0     O30136   7.895   4.648   8.807 -1.0876 -0.7528  0.4194
  224MOL0     C30137   7.956   4.611   8.685  0.5808 -0.3903 -0.3040
  224MOL0     C30138   7.939   4.468   8.644 -0.4533 -0.9798 -0.5774
  224MOL0     C30139   8.006   4.421   8.529 -0.4145 -0.8607 -0.7109
  224MOL0     C30140   8.109   4.498   8.466  0.6791 -0.3396 -0.3728
  224MOL0     O30141   8.195   4.449   8.374  0.0588  0.7814  0.1981
  224MOL0     C30142   8.230   4.318   8.369 -1.0184  0.6131  0.1326
  224MOL0     C30143   8.366   4.327   8.300 -0.2196  0.6294 -0.3060
  224MOL0     C30144   8.417   4.182   8.269  0.2337  0.2734 -0.3265
  224MOL0     C30145   8.428   4.095   8.399 -0.5019  0.3153 -0.3574
  224MOL0     C30146   8.493   3.955   8.377  0.3138  0.6514 -0.3521
  224MOL0     C30147   8.642   3.961   8.324 -0.7101 -0.9498  0.0813
  224MOL0     C30148   8.699   3.817   8.318  0.0055  0.4320 -0.7817
  224MOL0     C30149   8.779   3.775   8.441  0.3514 -0.5039  0.5173
  224MOL0    Cl30150   8.860   3.622   8.412 -0.5721 -0.0598 -0.1040
  224MOL0     C30151   8.117   4.626   8.495 -0.3714 -0.5866  0.3123
  224MOL0     C30152   8.045   4.689   8.604  0.3270 -0.0618 -0.3694
  224MOL0     O30153   7.905   4.884   8.778 -0.1010  0.5051 -0.1872
  224MOL0     C30154   7.818   4.699   9.077  0.2705  0.0933 -0.6575
  224MOL0     C30155   7.738   4.702   9.191  0.0911 -0.8392  0.7409
  224MOL0     N30156   7.339   5.107   9.722 -0.3213  0.6501  0.6237
  224MOL0     N30157   7.244   5.159   9.662 -0.4937 -0.4684  1.2528
  224MOL0     C30158   7.128   5.949   8.797  0.7618  0.2929  0.4809
  224MOL0     C30159   7.119   6.086   8.791  0.1686  0.1993  0.0319
  224MOL0     C30160   7.084   6.520   8.841  0.6804  0.1286 -0.8205
  224MOL0     C30161   7.123   6.602   8.732 -0.2287  0.4496 -1.2068
  224MOL0     C30162   7.094   6.737   8.728  0.9865  0.4020  0.6079
  224MOL0     C30163   7.018   6.787   8.835 -0.6629  0.1437 -0.1572
  224MOL0     O30164   6.948   6.908   8.832 -0.4051 -0.3658 -0.5034
  224MOL0     C30165   6.964   6.987   8.718  0.5887 -0.7965 -0.8464
  224MOL0     C30166   6.900   7.124   8.729 -0.0517  0.2059  0.5778
  224MOL0     C30167   6.986   7.227   8.801 -0.1825 -0.6812 -1.0119
  224MOL0     C30168   7.116   7.260   8.713  0.1266 -0.2667  0.3702
  224MOL0     C30169   7.067   7.305   8.580 -0.1395  0.2021  0.1592
  224MOL0     C30170   7.017   7.340   8.469  0.8094  0.1959  0.1642
  224MOL0     C30171   6.982   6.702   8.942  0.1485 -0.4298  0.1110
  224MOL0     C30172   7.013   6.569   8.947 -0.3239 -0.3975 -0.1179
  224MOL0     H30173   7.129   6.146   9.134 -0.0553  1.0968  0.5563
  224MOL0     H30174   7.142   5.894   9.137 -0.1906  0.4320  0.0120
  224MOL0     H30175   7.306   5.716   9.023  0.7014 -1.2221 -0.2996
  224MOL0     H30176   7.148   5.665   9.112 -0.4168  0.0243 -0.2865
  224MOL0     H30177   7.122   5.473   8.987 -0.3035  0.4991  0.9203
  224MOL0     H30178   7.265   5.525   8.881 -3.0795  1.9054 -1.7786
  224MOL0     H30179   7.422   5.504   9.064 -0.4833  2.4319  0.6703
  224MOL0     H30180   7.288   5.483   9.178 -1.0709 -0.4631 -0.9656
  224MOL0     H30181   7.226   5.266   9.064 -0.0673 -0.1809  2.0602
  224MOL0     H30182   7.390   5.286   8.981 -1.9232 -1.7292 -0.9377
  224MOL0     H30183   7.423   5.139   9.141 -0.9591  0.6585  0.1960
  224MOL0     H30184   7.494   5.296   9.190  0.4583 -0.3818  1.6563
  224MOL0     H30185   7.396   5.172   9.388 -3.0113 -2.4625  1.5945
  224MOL0     H30186   7.300   5.317   9.340 -0.7262 -0.4750 -0.6510
  224MOL0     H30187   7.143   5.128   9.230  0.3881 -1.0014 -1.6312
  224MOL0     H30188   7.249   5.009   9.294 -1.5866 -1.4779  0.3439
  224MOL0     H30189   7.042   5.054   9.422 -0.1082 -1.1617 -0.4995
  224MOL0     H30190   7.099   5.222   9.446  3.2861  0.4133  1.4514
  224MOL0     H30191   7.277   4.867   9.517 -1.0343 -0.2690  0.8723
  224MOL0     H30192   7.479   4.922   9.837 -3.2705 -1.8237  3.1785
  224MOL0     H30193   7.373   4.807   9.795 -0.7977 -0.0275 -2.0041
  224MOL0     H30194   7.482   4.734   9.591 -0.2195 -0.1609  1.1048
  224MOL0     H30195   7.563   4.716   9.730 -0.8885 -1.2844 -2.7912
  224MOL0     H30196   7.733   4.873   9.664  0.0795 -0.2878  0.4291
  224MOL0     H30197   7.628   4.987   9.593 -1.0465 -0.6922  0.4733
  224MOL0     H30198   7.729   4.720   9.478  0.3553  0.5396  1.1567
  224MOL0     H30199   7.782   4.886   9.447  1.0909 -0.4395  0.0209
  224MOL0     H30200   7.603   5.007   9.168  1.2611  0.2808 -0.2769
  224MOL0     H30201   7.879   5.074   8.934  0.4484  1.9714  1.9432
  224MOL0     H30202   7.711   5.075   8.863  0.1586  0.2460  0.0440
  224MOL0     H30203   7.738   5.139   9.014  1.6740  1.2337  1.0395
  224MOL0     H30204   7.881   4.400   8.705 -0.6444 -0.3803 -0.0895
  224MOL0     H30205   7.991   4.318   8.496  2.3606 -1.0808 -1.5601
  224MOL0     H30206   8.251   4.280   8.470  1.2971 -2.6991 -1.3990
  224MOL0     H30207   8.161   4.256   8.311  0.0604 -0.4083 -0.0994
  224MOL0     H30208   8.370   4.385   8.208 -1.7798  2.0466  0.4694
  224MOL0     H30209   8.445   4.377   8.357  0.4703  1.4195 -1.9021
  224MOL0     H30210   8.515   4.181   8.221 -1.0054 -3.4963 -3.3496
  224MOL0     H30211   8.347   4.148   8.192 -0.7740  2.6798 -0.5682
  224MOL0     H30212   8.497   4.138   8.472  0.4338  0.0023 -1.0328
  224MOL0     H30213   8.328   4.079   8.438 -0.4746 -0.7523 -0.6784
  224MOL0     H30214   8.430   3.897   8.310 -0.7665  2.7139 -1.2293
  224MOL0     H30215   8.493   3.906   8.475 -2.4020 -2.2401 -1.6338
  224MOL0     H30216   8.661   4.016   8.231  2.2360 -1.4787  0.2683
  224MOL0     H30217   8.697   4.020   8.397 -0.1267  2.1298 -2.6194
  224MOL0     H30218   8.751   3.811   8.222  0.0487  2.9540 -0.9732
  224MOL0     H30219   8.603   3.764   8.313  0.6747 -1.1324  1.4513
  224MOL0     H30220   8.715   3.761   8.528  1.9589 -1.9644  1.5205
  224MOL0     H30221   8.856   3.853   8.447 -0.4352  0.7953 -3.3037
  224MOL0     H30222   8.204   4.681   8.461 -1.2276 -0.4545 -1.8050
  224MOL0     H30223   8.083   4.784   8.640  1.4316  0.0801 -1.8247
  224MOL0     H30224   7.879   4.611   9.059 -0.8772 -1.1329  1.0949
  224MOL0     H30225   7.746   4.605   9.239  1.8089 -0.2158  1.8148
  224MOL0     H30226   7.141   5.883   8.711  1.3549 -0.1880  0.9307
  224MOL0     H30227   7.115   6.146   8.701  1.2477 -1.6584 -1.3309
  224MOL0     H30228   7.188   6.567   8.652  0.0595 -3.3492  0.4349
  224MOL0     H30229   7.109   6.794   8.637 -2.7165 -0.6134 -0.8437
  224MOL0     H30230   7.070   7.005   8.697  0.4690  3.3288  1.1079
  224MOL0     H30231   6.929   6.927   8.633 -0.0989  0.4045 -1.4397
  224MOL0     H30232   6.813   7.098   8.789  0.4638 -0.7691  0.9214
  224MOL0     H30233   6.867   7.162   8.632  1.7908 -1.0849 -0.6201
  224MOL0     H30234   7.029   7.166   8.882  2.8841 -0.5157 -2.3846
  224MOL0     H30235   6.919   7.309   8.830  1.4532  0.0567  0.9772
  224MOL0     H30236   7.175   7.173   8.686 -1.7543 -0.3238 -4.5688
  224MOL0     H30237   7.176   7.343   8.752  3.2954 -0.1444 -4.0811
  224MOL0     H30238   6.992   7.378   8.372  0.3345  1.5898  0.8160
  224MOL0     H30239   6.929   6.737   9.030 -0.8149 -2.6545  0.4646
  224MOL0     H30240   6.992   6.501   9.029 -2.2057  1.3723  0.9468
  225MOL0     O30241   1.955   5.532   9.704 -0.0281  0.6291  0.2320
  225MOL0     C30242   2.068   5.480   9.702  0.2107 -0.5672  0.0074
  225MOL0     O30243   2.128   5.414   9.815 -0.0132  0.2672 -0.4031
  225MOL0     C30244   2.029   5.385   9.909 -0.6139 -0.5874 -1.1335
  225MOL0     C30245   2.027   5.469  10.024  0.3347  0.8580 -0.2408
  225MOL0     C30246   1.942   5.458  10.129  0.2218  0.0011  0.5686
  225MOL0     C30247   1.834   5.366  10.114  0.6255  0.3480 -0.2874
  225MOL0     O30248   1.745   5.337  10.211  0.3051 -0.6196 -0.6065
  225MOL0     C30249   1.659   5.455  10.254 -0.4816  0.6533 -0.1417
  225MOL0     C30250   1.528   5.422  10.334 -1.1228  0.7549  0.9549
  225MOL0     C30251   1.437   5.356  10.241 -0.6848  1.1405 -0.3650
  225MOL0     C30252   1.293   5.345  10.293 -0.0840 -0.0931 -0.1049
  225MOL0     C30253   1.194   5.295  10.198  1.2945  1.0274  0.8257
  225MOL0     C30254   1.052   5.312  10.254 -0.0581  0.0916 -0.2140
  225MOL0     C30255   0.969   5.189  10.227 -0.5169 -0.0145 -0.4284
  225MOL0     C30256   0.816   5.215  10.242  1.0253 -0.1218  0.2562
  225MOL0     N30257   0.785   5.241  10.386 -0.3605 -0.7246  0.6141
  225MOL0     C30258   0.804   5.147  10.487 -0.4902  0.7811 -0.0093
  225MOL0     C30259   0.776   5.215  10.598 -1.8640  0.6077 -1.5988
  225MOL0     C30260   0.776   5.187  10.749  0.1586  0.8081 -0.9474
  225MOL0     C30261   0.907   5.207  10.817  0.1766  1.1545 -0.8425
  225MOL0     C30262   0.938   5.351  10.837  0.4947 -1.5221  0.9636
  225MOL0     C30263   1.006   5.412  10.965  0.2518 -0.6042  0.8187
  225MOL0     O30264   1.002   5.563  10.973  0.6381  0.3695  0.2286
  225MOL0     C30265   0.898   5.626  11.022 -0.1873 -0.5470  0.2050
  225MOL0     C30266   0.777   5.575  11.089 -0.4111 -0.3804  0.2950
  225MOL0     C30267   0.684   5.664  11.142 -0.1398 -0.7597 -0.8962
  225MOL0     C30268   0.586   5.600  11.245 -0.3502 -0.4121 -0.1601
  225MOL0     C30269   0.694   5.808  11.124  0.1703  0.4930 -0.1510
  225MOL0     C30270   0.611   5.897  11.201  1.2917  0.2122 -0.4173
  225MOL0     O30271   0.490   5.852  11.253 -0.1621 -1.0032 -0.1339
  225MOL0     C30272   0.418   5.949  11.320 -0.0792 -0.4387  0.3208
  225MOL0     C30273   0.442   5.973  11.452 -0.2375  0.9457 -1.0162
  225MOL0     C30274   0.386   6.092  11.515  0.9901  0.6134 -0.7183
  225MOL0     C30275   0.302   6.179  11.448  0.1418 -0.1260 -1.1048
  225MOL0     O30276   0.250   6.291  11.515  0.0584  0.7310 -0.5491
  225MOL0     C30277   0.173   6.262  11.638  0.0230 -0.7196  0.0707
  225MOL0     C30278   0.060   6.372  11.641  1.0174 -0.5462  0.2535
  225MOL0     C30279  -0.014   6.398  11.509  0.1671  0.5517 -0.5416
  225MOL0     C30280  -0.087   6.283  11.442  0.5987  0.8845  0.1198
  225MOL0     C30281  -0.217   6.260  11.512  0.3479  0.1017  0.2298
  225MOL0     C30282  -0.327   6.361  11.468  0.1130 -0.2040  0.2838
  225MOL0     C30283  -0.464   6.317  11.515  0.0979 -0.3863  0.2367
  225MOL0     C30284  -0.566   6.425  11.475  1.3530  0.7012  0.2209
  225MOL0    Cl30285  -0.598   6.431  11.297  0.6775  0.4433 -0.1413
  225MOL0     C30286   0.265   6.153  11.322 -0.1365  0.6060  0.4023
  225MOL0     C30287   0.328   6.037  11.257  0.1601  1.2978 -0.4734
  225MOL0     O30288   0.656   6.016  11.208 -0.2601  1.1153  0.2486
  225MOL0     C30289   0.803   5.847  11.049  0.5803 -0.5664  0.0295
  225MOL0     C30290   0.911   5.762  11.006 -0.1929 -0.5121  1.1337
  225MOL0     N30291   0.747   5.347  10.567 -0.3277  0.1251 -0.3481
  225MOL0     N30292   0.750   5.361  10.442  0.8632 -0.1877 -0.3453
  225MOL0     C30293   1.834   5.273  10.002  0.5508 -1.0638  0.2050
  225MOL0     C30294   1.922   5.289   9.900 -0.5085 -0.0890 -0.6987
  225MOL0     C30295   2.160   5.513   9.586 -0.3396  0.5999  0.1015
  225MOL0     C30296   2.280   5.443   9.558 -0.4559 -0.3040  0.2018
  225MOL0     C30297   2.356   5.459   9.436 -0.2818 -0.1997  1.4480
  225MOL0     C30298   2.327   5.567   9.347 -0.6918 -0.3413 -0.0476
  225MOL0     O30299   2.394   5.606   9.235 -0.2922  0.2629  0.6334
  225MOL0     C30300   2.502   5.520   9.201 -0.1378 -0.9381  0.2030
  225MOL0     C30301   2.635   5.555   9.266 -0.1116 -0.0799  1.1481
  225MOL0     C30302   2.729   5.653   9.192  0.2347 -0.2715 -0.3213
  225MOL0     C30303   2.842   5.593   9.110 -0.5408  0.0160  0.2537
  225MOL0     C30304   2.918   5.494   9.188  0.5210 -0.0550  0.1313
  225MOL0     C30305   2.978   5.422   9.262 -0.0533  0.7550 -0.5031
  225MOL0     C30306   2.219   5.645   9.381 -0.2129  0.8726 -0.1479
  225MOL0     C30307   2.134   5.612   9.491  0.9234 -0.2300  0.3477
  225MOL0     H30308   2.110   5.538  10.031  1.8867 -1.0092  1.0899
  225MOL0     H30309   1.956   5.526  10.213  0.1898  1.5855 -0.6667
  225MOL0     H30310   1.727   5.511  10.320  0.9055 -1.1755  0.0746
  225MOL0     H30311   1.623   5.505  10.164  0.4447  0.1268 -0.8137
  225MOL0     H30312   1.553   5.351  10.414 -0.8698 -0.6528 -0.3246
  225MOL0     H30313   1.486   5.517  10.369  3.8482  3.3305  0.7674
  225MOL0     H30314   1.443   5.409  10.145  1.3475  0.1497 -0.8501
  225MOL0     H30315   1.460   5.250  10.229  2.3823  1.8845 -2.4764
  225MOL0     H30316   1.289   5.272  10.373  1.3060  1.9488  1.9721
  225MOL0     H30317   1.276   5.449  10.323  1.4507  1.0094 -2.6510
  225MOL0     H30318   1.188   5.362  10.112 -0.2909 -3.8060 -3.3218
  225MOL0     H30319   1.210   5.192  10.166 -1.2123  0.4826  1.1683
  225MOL0     H30320   1.054   5.339  10.360  1.8728 -3.2700  0.7439
  225MOL0     H30321   0.996   5.393  10.205 -0.1883  2.7371  3.8340
  225MOL0     H30322   0.997   5.155  10.127  1.7804  0.3919  0.0082
  225MOL0     H30323   1.004   5.109  10.293  0.9197 -1.7156 -3.0670
  225MOL0     H30324   0.754   5.136  10.199  1.1434 -0.3086  0.4220
  225MOL0     H30325   0.785   5.298  10.179  0.7950 -2.3883 -2.8420
  225MOL0     H30326   0.818   5.040  10.478  0.2898  0.7794  1.0508
  225MOL0     H30327   0.693   5.237  10.801 -0.1748 -0.4762 -0.2142
  225MOL0     H30328   0.762   5.079  10.754  0.3649  0.8142 -0.1489
  225MOL0     H30329   0.976   5.168  10.741  0.1407  0.5141 -0.5532
  225MOL0     H30330   0.926   5.145  10.905 -1.4224  1.6445 -0.1149
  225MOL0     H30331   0.852   5.416  10.818  1.2532 -0.6181  0.5447
  225MOL0     H30332   0.991   5.386  10.748  1.4780 -1.1924  1.6539
  225MOL0     H30333   1.107   5.371  10.960 -0.7397 -3.1128 -0.0771
  225MOL0     H30334   0.946   5.382  11.051 -2.1649  2.1880  0.2740
  225MOL0     H30335   0.774   5.467  11.098 -2.7951 -0.2108  2.6579
  225MOL0     H30336   0.623   5.500  11.271 -0.8183 -1.1804 -2.1765
  225MOL0     H30337   0.556   5.641  11.341 -0.8871 -0.6610 -0.2179
  225MOL0     H30338   0.503   5.566  11.182 -0.1329 -1.2574 -0.0002
  225MOL0     H30339   0.524   5.919  11.497  1.0011  3.7369  0.3365
  225MOL0     H30340   0.417   6.100  11.618 -0.6470 -1.8663  0.0687
  225MOL0     H30341   0.134   6.160  11.642 -0.3052 -0.5504  1.6847
  225MOL0     H30342   0.237   6.281  11.724  3.1378  0.6051 -2.3293
  225MOL0     H30343  -0.022   6.344  11.707 -0.6522  0.5496 -1.2458
  225MOL0     H30344   0.103   6.467  11.676 -0.1136 -1.1929  3.8285
  225MOL0     H30345   0.062   6.418  11.433 -0.9606  0.1208 -1.8286
  225MOL0     H30346  -0.084   6.482  11.514 -4.3822 -2.7641 -1.4642
  225MOL0     H30347  -0.110   6.298  11.336  2.9839 -2.3065 -1.0235
  225MOL0     H30348  -0.026   6.192  11.442  0.3081  0.6833 -0.4969
  225MOL0     H30349  -0.200   6.274  11.619  3.5015  1.0988 -0.3037
  225MOL0     H30350  -0.263   6.163  11.490 -1.0214  1.5243 -4.2233
  225MOL0     H30351  -0.307   6.463  11.503  2.7869  0.5828 -3.0070
  225MOL0     H30352  -0.325   6.378  11.360  0.3463  0.9831  0.4562
  225MOL0     H30353  -0.473   6.297  11.622 -0.1949  0.1472  0.3163
  225MOL0     H30354  -0.497   6.226  11.462 -2.3592  0.7179 -0.2619
  225MOL0     H30355  -0.546   6.529  11.503 -1.1528  1.6562 -1.1413
  225MOL0     H30356  -0.654   6.392  11.532  1.0603  0.9376 -0.0887
  225MOL0     H30357   0.195   6.208  11.260 -0.2748 -3.0401 -3.0953
  225MOL0     H30358   0.302   6.015  11.154 -0.7086  1.7101 -0.3524
  225MOL0     H30359   0.826   5.952  11.031  1.1750 -0.7529 -0.3525
  225MOL0     H30360   1.003   5.794  10.960 -0.5071  1.0359  1.5176
  225MOL0     H30361   1.757   5.197   9.994  1.6192 -2.4730  2.3764
  225MOL0     H30362   1.934   5.225   9.813 -0.8060  0.1358 -0.9034
  225MOL0     H30363   2.324   5.376   9.632  0.0550  3.7736  4.0024
  225MOL0     H30364   2.450   5.407   9.423  0.8048  1.9665  0.0723
  225MOL0     H30365   2.477   5.414   9.215  0.8399 -1.2717 -0.4908
  225MOL0     H30366   2.509   5.528   9.092  0.5479  4.1480  0.3878
  225MOL0     H30367   2.686   5.460   9.282 -0.2851 -0.3740 -0.0041
  225MOL0     H30368   2.612   5.605   9.361  1.9914  1.3895  0.9546
  225MOL0     H30369   2.762   5.728   9.265 -1.7468  0.9547 -0.6113
  225MOL0     H30370   2.673   5.710   9.118  0.8642  0.3885 -0.3048
  225MOL0     H30371   2.915   5.668   9.078 -1.3342  0.0776 -1.5096
  225MOL0     H30372   2.803   5.555   9.015  2.6093  1.2726 -1.7365
  225MOL0     H30373   3.049   5.377   9.328 -0.1990  0.1401 -0.7577
  225MOL0     H30374   2.214   5.736   9.322  5.2453 -0.7310 -3.8989
  225MOL0     H30375   2.051   5.675   9.520 -0.0136 -1.8205  1.3284
  226MOL0     O30376   0.275  11.402   7.396  0.4538  0.0999  0.0569
  226MOL0     C30377   0.155  11.432   7.406 -0.2100  0.5359 -0.3035
  226MOL0     O30378   0.112  11.523   7.492  0.3020 -0.3959 -0.0200
  226MOL0     C30379   0.203  11.577   7.583  0.0939  1.2335  0.2245
  226MOL0     C30380   0.238  11.503   7.693  0.0595 -0.1332  0.1375
  226MOL0     C30381   0.338  11.552   7.777  0.4897 -1.1729  0.0452
  226MOL0     C30382   0.398  11.681   7.747  0.6001  0.1530  0.1883
  226MOL0     O30383   0.498  11.726   7.830  0.6384 -0.1200 -0.0880
  226MOL0     C30384   0.532  11.866   7.839  0.2345  0.5675  0.0274
  226MOL0     C30385   0.671  11.864   7.905  0.2724 -0.0198 -0.0550
  226MOL0     C30386   0.682  11.784   8.037 -0.6719  0.2795  0.0476
  226MOL0     C30387   0.819  11.805   8.097  0.0633 -0.8776  0.2730
  226MOL0     C30388   0.821  11.890   8.224  0.4445 -0.5101 -0.9801
  226MOL0     C30389   0.963  11.869   8.300  0.4249 -0.0528  0.2073
  226MOL0     C30390   0.960  11.731   8.381 -0.5608  0.2032 -0.3649
  226MOL0     C30391   1.037  11.749   8.511  0.0396 -0.1152 -0.5701
  226MOL0     N30392   1.180  11.772   8.498  0.1738 -0.1940 -0.1870
  226MOL0     C30393   1.244  11.895   8.501 -0.3461  0.1122 -0.8115
  226MOL0     C30394   1.370  11.862   8.473  0.8192 -0.7676 -0.8346
  226MOL0     C30395   1.478  11.956   8.434 -0.4376 -0.1969 -0.7613
  226MOL0     C30396   1.489  12.084   8.512 -0.1955 -0.2609 -0.5093
  226MOL0     C30397   1.597  12.178   8.448 -0.2525  0.4551  0.4642
  226MOL0     C30398   1.665  12.276   8.538  0.5378  0.8094 -0.5169
  226MOL0     O30399   1.569  12.359   8.612  0.5163 -0.2339  0.0477
  226MOL0     C30400   1.590  12.500   8.604 -0.4272 -0.9341 -0.4322
  226MOL0     C30401   1.709  12.568   8.569  0.3422 -0.3263  0.4187
  226MOL0     C30402   1.719  12.704   8.549  0.1147 -0.7143  0.7497
  226MOL0     C30403   1.837  12.766   8.506  0.0322  0.1354  0.2265
  226MOL0     C30404   1.601  12.779   8.575 -0.1711  0.3556 -0.4019
  226MOL0     C30405   1.582  12.921   8.527  0.1888  0.7554  0.6790
  226MOL0     O30406   1.498  13.008   8.594  0.4002 -0.4301  1.0308
  226MOL0     C30407   1.484  13.129   8.538 -0.3341 -0.3536  1.1376
  226MOL0     C30408   1.359  13.183   8.565 -1.2955  1.2066  0.0730
  226MOL0     C30409   1.323  13.316   8.537  0.4952  0.3347 -0.8495
  226MOL0     C30410   1.417  13.400   8.479  0.3845 -0.3016 -0.0736
  226MOL0     O30411   1.392  13.535   8.449 -0.8641  0.0791 -0.1931
  226MOL0     C30412   1.255  13.580   8.434 -0.4832 -0.9034  0.0167
  226MOL0     C30413   1.252  13.734   8.443  1.1195  0.0679  0.6324
  226MOL0     C30414   1.323  13.783   8.565  0.4085 -0.1551 -0.8569
  226MOL0     C30415   1.323  13.935   8.593 -0.7790  0.4000  0.9284
  226MOL0     C30416   1.391  13.967   8.730  0.5350 -0.3737 -0.3543
  226MOL0     C30417   1.392  14.111   8.761 -0.2334 -0.8993 -0.0308
  226MOL0     C30418   1.461  14.155   8.893 -1.0784  0.3146  0.8312
  226MOL0     C30419   1.434  14.305   8.921  0.6130 -0.0357  0.2433
  226MOL0    Cl30420   1.542  14.408   8.818  0.1266  0.1009  0.1959
  226MOL0     C30421   1.541  13.349   8.450 -0.1881 -0.9692 -0.1753
  226MOL0     C30422   1.576  13.214   8.481 -0.5016  0.0070  0.6643
  226MOL0     O30423   1.629  12.942   8.418 -0.4609 -0.3083 -0.6407
  226MOL0     C30424   1.494  12.718   8.629  0.5813 -0.5767 -0.4137
  226MOL0     C30425   1.483  12.585   8.653 -0.3383  0.3501 -0.8125
  226MOL0     N30426   1.381  11.724   8.450  0.2514  0.6320  0.1293
  226MOL0     N30427   1.265  11.676   8.456 -0.0752 -0.9429  0.5614
  226MOL0     C30428   0.352  11.750   7.632  0.6633  0.0239 -0.6662
  226MOL0     C30429   0.256  11.703   7.552  0.2651 -0.4061 -0.0768
  226MOL0     C30430   0.054  11.351   7.322  0.2876 -0.4339  0.0675
  226MOL0     C30431   0.108  11.244   7.241  0.6951 -0.3914 -0.8694
  226MOL0     C30432   0.021  11.199   7.143  0.0836 -0.5860  0.1501
  226MOL0     C30433  -0.115  11.233   7.133 -0.8778  0.2341  0.0261
  226MOL0     O30434  -0.203  11.172   7.043 -0.7509  0.1570 -0.4279
  226MOL0     C30435  -0.202  11.247   6.924  0.5755  0.0924  0.0476
  226MOL0     C30436  -0.335  11.236   6.854  0.6851  0.3148  0.3587
  226MOL0     C30437  -0.339  11.282   6.707 -0.4558  0.4168 -0.7866
  226MOL0     C30438  -0.464  11.304   6.627 -0.5082 -0.2920  0.0665
  226MOL0     C30439  -0.439  11.327   6.489 -0.1277 -0.9478 -0.2369
  226MOL0     C30440  -0.424  11.333   6.371  0.1444 -0.9074  0.5286
  226MOL0     C30441  -0.161  11.316   7.228  0.5795 -0.7596  0.2673
  226MOL0     C30442  -0.080  11.375   7.319 -0.0286 -0.3709  0.4053
  226MOL0     H30443   0.190  11.409   7.717 -2.7600  1.6191  1.9836
  226MOL0     H30444   0.378  11.503   7.866  1.2232 -1.2405 -0.3184
  226MOL0     H30445   0.523  11.921   7.745 -2.9599  2.8605  1.4747
  226MOL0     H30446   0.464  11.915   7.909 -1.2042 -3.5838  1.8370
  226MOL0     H30447   0.729  11.818   7.825 -2.0054  0.6643 -2.2282
  226MOL0     H30448   0.699  11.966   7.935  0.6074  0.1424 -0.8884
  226MOL0     H30449   0.603  11.833   8.095 -2.4772 -2.6318  0.2551
  226MOL0     H30450   0.652  11.679   8.034 -1.8213  0.5274  1.3136
  226MOL0     H30451   0.855  11.703   8.116  0.5094 -0.9513 -0.8998
  226MOL0     H30452   0.890  11.843   8.023 -1.5468 -1.5897 -1.7181
  226MOL0     H30453   0.805  11.997   8.207  0.7190 -0.4884 -1.1103
  226MOL0     H30454   0.747  11.854   8.295  0.9369 -0.4490 -0.4334
  226MOL0     H30455   1.049  11.882   8.235 -1.0538  0.6170 -1.7145
  226MOL0     H30456   0.969  11.951   8.372  3.5302  0.2195 -0.2142
  226MOL0     H30457   0.855  11.713   8.407 -0.2303 -0.5819  0.4519
  226MOL0     H30458   1.005  11.656   8.316  1.9456  1.5440 -0.2910
  226MOL0     H30459   1.024  11.651   8.557 -0.4061  0.5855  0.8404
  226MOL0     H30460   0.995  11.820   8.582  1.3387  1.5199 -1.3694
  226MOL0     H30461   1.206  11.994   8.522 -0.8167 -0.1874 -0.2237
  226MOL0     H30462   1.573  11.901   8.435  0.5438  1.4067  1.4911
  226MOL0     H30463   1.462  11.987   8.330  2.1917  1.3816 -0.7890
  226MOL0     H30464   1.532  12.063   8.611 -0.1904  2.0057  0.0279
  226MOL0     H30465   1.394  12.136   8.528  0.9227  1.3951  1.2292
  226MOL0     H30466   1.562  12.244   8.368  1.9308  0.9622 -0.1356
  226MOL0     H30467   1.674  12.115   8.404 -1.8302 -1.1257 -0.1512
  226MOL0     H30468   1.718  12.342   8.468  1.7718  0.4950  0.1039
  226MOL0     H30469   1.733  12.225   8.606 -0.7896  0.9664  0.9731
  226MOL0     H30470   1.805  12.527   8.539  0.9280  1.3764 -0.0924
  226MOL0     H30471   1.841  12.776   8.397 -0.5452  0.9988  0.2779
  226MOL0     H30472   1.841  12.867   8.548 -2.0125 -0.0530  0.9879
  226MOL0     H30473   1.923  12.703   8.532 -1.3869 -4.1051 -3.8804
  226MOL0     H30474   1.290  13.115   8.616  1.3436  1.7362  4.9544
  226MOL0     H30475   1.222  13.349   8.559  0.7485  0.6935 -0.1956
  226MOL0     H30476   1.217  13.542   8.339  5.7792 -1.7650 -2.6535
  226MOL0     H30477   1.186  13.533   8.506 -1.9012  1.7540  0.5001
  226MOL0     H30478   1.308  13.771   8.356  0.6967  1.0542  0.7666
  226MOL0     H30479   1.153  13.780   8.434  0.3004 -1.7075  0.1033
  226MOL0     H30480   1.428  13.754   8.573  0.0116 -1.3047  4.9846
  226MOL0     H30481   1.275  13.734   8.650 -2.3401  3.9891  0.2366
  226MOL0     H30482   1.388  13.983   8.519 -1.9134 -2.3024 -2.0620
  226MOL0     H30483   1.219  13.966   8.601 -0.4060  1.3716  2.2788
  226MOL0     H30484   1.494  13.932   8.722  1.6170  2.4982 -0.1858
  226MOL0     H30485   1.336  13.913   8.807 -0.2731  1.5854  0.5225
  226MOL0     H30486   1.444  14.157   8.676  0.3373 -1.7931 -0.1828
  226MOL0     H30487   1.287  14.140   8.759 -0.0257  0.3077  2.3403
  226MOL0     H30488   1.568  14.137   8.889 -0.7890  1.8366  1.0030
  226MOL0     H30489   1.422  14.087   8.970 -0.8468  1.0323  1.6005
  226MOL0     H30490   1.475  14.318   9.022  1.1405  0.0296  0.0240
  226MOL0     H30491   1.328  14.328   8.908 -0.0195 -1.4437  2.3386
  226MOL0     H30492   1.615  13.414   8.405 -1.9435  2.0343  0.9639
  226MOL0     H30493   1.678  13.194   8.450 -1.0621 -0.4367 -1.0267
  226MOL0     H30494   1.403  12.775   8.643  1.8846  1.6996 -0.5810
  226MOL0     H30495   1.397  12.544   8.705  0.7627 -1.5966 -0.4090
  226MOL0     H30496   0.401  11.841   7.597 -1.9017  2.1577  0.9012
  226MOL0     H30497   0.234  11.769   7.470 -1.1314  2.4178  2.3791
  226MOL0     H30498   0.212  11.214   7.250  0.6188 -0.2737  0.5386
  226MOL0     H30499   0.071  11.129   7.076  3.1874 -0.4691  2.1382
  226MOL0     H30500  -0.179  11.354   6.934  0.3714  0.0885  0.6285
  226MOL0     H30501  -0.129  11.196   6.861 -0.6616  0.7787 -2.0554
  226MOL0     H30502  -0.413  11.284   6.913 -1.8163 -1.5011 -1.2703
  226MOL0     H30503  -0.347  11.127   6.855 -0.1287  0.1991  5.2959
  226MOL0     H30504  -0.260  11.218   6.666  1.2344  0.0813  2.6456
  226MOL0     H30505  -0.297  11.383   6.700  0.9101 -0.1572 -1.2915
  226MOL0     H30506  -0.510  11.393   6.670  1.1918  0.1658  1.0302
  226MOL0     H30507  -0.533  11.219   6.630 -0.8781 -0.3934 -4.4016
  226MOL0     H30508  -0.408  11.323   6.266 -0.5614  0.5561  0.2592
  226MOL0     H30509  -0.265  11.347   7.215  0.2774 -1.1275  1.6551
  226MOL0     H30510  -0.113  11.462   7.376 -0.3032  2.3606 -3.5640
  227MOL0     O30511  11.470   1.632   6.593 -0.9335 -0.7073  0.4233
  227MOL0     C30512  11.365   1.581   6.637 -1.7962  0.4521 -0.2571
  227MOL0     O30513  11.357   1.465   6.707  0.2577 -0.2332 -0.4421
  227MOL0     C30514  11.464   1.386   6.713  0.1282 -0.8915 -0.4001
  227MOL0     C30515  11.546   1.365   6.599  1.2549 -0.2429 -0.5702
  227MOL0     C30516  11.655   1.277   6.603  0.3114  1.0608  0.5640
  227MOL0     C30517  11.671   1.198   6.719  0.1279  0.3245  0.2781
  227MOL0     O30518  11.775   1.110   6.721 -0.3503 -0.2147 -0.3382
  227MOL0     C30519  11.785   0.992   6.797 -0.1982  0.6470 -0.0320
  227MOL0     C30520  11.905   0.907   6.741 -0.1143 -0.6105 -0.1764
  227MOL0     C30521  12.041   0.971   6.757 -0.6512 -0.5152  0.5801
  227MOL0     C30522  12.093   0.973   6.906 -0.0262 -0.0688  0.8104
  227MOL0     C30523  12.059   1.099   6.981 -0.2028  0.8240  0.5748
  227MOL0     C30524  12.126   1.113   7.118 -0.0821  0.2473  0.4572
  227MOL0     C30525  12.060   1.237   7.188 -0.0273  0.4941 -0.6128
  227MOL0     C30526  12.156   1.280   7.298  0.1950 -0.3206  0.0605
  227MOL0     N30527  12.102   1.406   7.349  0.4018 -0.5199  0.7755
  227MOL0     C30528  12.129   1.527   7.287  0.5215 -0.4355  0.2173
  227MOL0     C30529  12.048   1.608   7.347  0.5066 -0.1632 -0.5813
  227MOL0     C30530  12.026   1.750   7.300  0.0472  0.2889  1.4331
  227MOL0     C30531  12.120   1.857   7.342 -0.1868  0.4373  0.3661
  227MOL0     C30532  12.138   1.864   7.499  0.1989 -0.1544  0.1229
  227MOL0     C30533  12.259   1.941   7.552  0.5034 -0.2047  0.3472
  227MOL0     O30534  12.259   2.078   7.506  0.5934 -0.5273 -0.4453
  227MOL0     C30535  12.160   2.164   7.543  0.3786  0.2232  0.4755
  227MOL0     C30536  12.108   2.172   7.675 -0.3697 -0.5835  0.6456
  227MOL0     C30537  12.011   2.252   7.709  1.1497  1.1646 -0.1254
  227MOL0     C30538  11.951   2.239   7.853 -0.3696  0.7827  0.3591
  227MOL0     C30539  11.957   2.348   7.617 -0.7180 -0.3814 -0.4010
  227MOL0     C30540  11.841   2.440   7.638 -0.1972 -0.0992  0.1839
  227MOL0     O30541  11.789   2.480   7.515 -0.6796  0.1714  0.1596
  227MOL0     C30542  11.700   2.587   7.507 -0.4536  0.5974  0.2361
  227MOL0     C30543  11.619   2.584   7.392  0.1650 -0.5096  0.4466
  227MOL0     C30544  11.536   2.695   7.366  0.5604  0.8235  0.0240
  227MOL0     C30545  11.533   2.806   7.456  0.6702  0.3059  0.3399
  227MOL0     O30546  11.436   2.901   7.456  0.1793  0.5591 -0.1510
  227MOL0     C30547  11.490   3.030   7.462 -0.5681  0.2316  0.0353
  227MOL0     C30548  11.475   3.089   7.324  0.3760 -0.6863 -0.4057
  227MOL0     C30549  11.327   3.076   7.275  0.1262  0.1820 -0.2000
  227MOL0     C30550  11.295   3.166   7.151 -0.1380 -0.5864 -0.7725
  227MOL0     C30551  11.154   3.135   7.105  0.2704  0.0897  0.5406
  227MOL0     C30552  11.043   3.217   7.182  0.2620  0.2409  0.0404
  227MOL0     C30553  11.013   3.350   7.102  1.0286  0.3716  0.3256
  227MOL0     C30554  10.915   3.451   7.155 -0.1371  0.4810 -0.2963
  227MOL0    Cl30555  10.742   3.388   7.137 -0.2811 -0.4415 -0.3859
  227MOL0     C30556  11.629   2.799   7.564 -0.5646 -1.1095 -1.0938
  227MOL0     C30557  11.708   2.693   7.593  0.6350 -0.0387  0.4039
  227MOL0     O30558  11.808   2.477   7.750  0.2301  0.6974  0.4398
  227MOL0     C30559  12.022   2.360   7.492 -0.7254  0.5916  0.0407
  227MOL0     C30560  12.120   2.272   7.449  0.1659  0.1068 -0.2445
  227MOL0     N30561  11.973   1.547   7.446 -0.2771  0.1564 -1.0406
  227MOL0     N30562  12.014   1.425   7.452  0.0104  0.2178  0.3472
  227MOL0     C30563  11.594   1.218   6.835 -0.7354  0.3464 -0.5062
  227MOL0     C30564  11.496   1.323   6.831 -0.0442  0.7520  0.3201
  227MOL0     C30565  11.240   1.661   6.643 -0.3607  0.1285 -0.5578
  227MOL0     C30566  11.246   1.794   6.603 -0.4598 -0.7390  0.6991
  227MOL0     C30567  11.130   1.876   6.597  0.5712  0.7317  0.6500
  227MOL0     C30568  11.004   1.827   6.638 -0.0313 -1.2230 -1.1891
  227MOL0     O30569  10.894   1.919   6.638  0.7419 -0.7142  0.4907
  227MOL0     C30570  10.830   1.927   6.769  0.7609  0.1529  0.3362
  227MOL0     C30571  10.839   2.075   6.806 -0.0845 -0.1620  0.0731
  227MOL0     C30572  10.987   2.122   6.832  0.8502  1.0484  0.7289
  227MOL0     C30573  11.020   2.266   6.878 -0.1652  0.4652 -0.1014
  227MOL0     C30574  10.955   2.281   7.005  0.3453  0.9917 -0.4145
  227MOL0     C30575  10.898   2.272   7.116 -0.9494 -0.4021 -0.1586
  227MOL0     C30576  10.997   1.693   6.685 -0.9598 -0.5301 -0.2721
  227MOL0     C30577  11.119   1.614   6.691  0.1136  0.4640 -0.0983
  227MOL0     H30578  11.541   1.413   6.502 -0.4738 -0.1441 -0.4618
  227MOL0     H30579  11.732   1.251   6.532 -0.1831 -1.5040  0.8975
  227MOL0     H30580  11.795   1.005   6.905  0.5205 -0.0849 -0.0021
  227MOL0     H30581  11.697   0.936   6.766  0.0647 -0.4743  1.1782
  227MOL0     H30582  11.919   0.809   6.788 -0.3982 -1.1707 -1.2174
  227MOL0     H30583  11.881   0.884   6.636 -1.7519  1.5404 -0.3386
  227MOL0     H30584  12.106   0.922   6.684 -2.5274 -1.3904 -0.5933
  227MOL0     H30585  12.034   1.076   6.728  1.3129 -0.5853 -0.3013
  227MOL0     H30586  12.044   0.887   6.953 -1.4960 -1.0880 -2.2580
  227MOL0     H30587  12.200   0.958   6.921  0.1263  1.2925  1.1649
  227MOL0     H30588  12.117   1.172   6.924  0.9468 -0.2710  0.3098
  227MOL0     H30589  11.951   1.116   6.986 -0.4872 -0.7542  0.0366
  227MOL0     H30590  12.108   1.022   7.176 -1.2600 -0.6248 -1.2176
  227MOL0     H30591  12.233   1.134   7.110 -0.3907  2.5580  1.4452
  227MOL0     H30592  12.049   1.322   7.120  1.5530 -0.3606 -2.0183
  227MOL0     H30593  11.962   1.213   7.231 -0.5862  1.7250 -1.1544
  227MOL0     H30594  12.259   1.290   7.263  0.4655  1.2491  1.1981
  227MOL0     H30595  12.153   1.202   7.376  0.7751 -0.8872 -0.4737
  227MOL0     H30596  12.204   1.546   7.211 -0.0275  4.0275  0.5603
  227MOL0     H30597  12.033   1.743   7.191 -0.0046  3.3375  1.1417
  227MOL0     H30598  11.926   1.776   7.335 -0.3515  1.1256 -0.2493
  227MOL0     H30599  12.101   1.954   7.296  2.8181  1.7637  1.6738
  227MOL0     H30600  12.216   1.829   7.297 -0.6653  0.6670 -0.8415
  227MOL0     H30601  12.152   1.767   7.548 -0.5459 -0.9780 -1.2143
  227MOL0     H30602  12.042   1.901   7.536  1.0296  2.1611  0.0993
  227MOL0     H30603  12.353   1.902   7.511  0.2222  1.1618 -1.7306
  227MOL0     H30604  12.264   1.935   7.661 -0.4597  1.4495  0.5067
  227MOL0     H30605  12.162   2.104   7.742  2.4869 -1.3896 -2.2275
  227MOL0     H30606  12.000   2.315   7.915  1.6982  1.2954 -1.7261
  227MOL0     H30607  11.842   2.239   7.853 -0.4179 -0.9989  1.4865
  227MOL0     H30608  11.978   2.145   7.901 -0.5346  0.3795 -0.3266
  227MOL0     H30609  11.617   2.489   7.340 -0.3603 -1.5049  2.1936
  227MOL0     H30610  11.455   2.677   7.296  2.4702 -0.8044 -1.8948
  227MOL0     H30611  11.421   3.078   7.532  1.6651 -0.4446  2.9042
  227MOL0     H30612  11.598   3.034   7.478  0.0496 -1.6187 -2.9309
  227MOL0     H30613  11.508   3.193   7.319  0.6426 -0.7652 -0.2695
  227MOL0     H30614  11.535   3.031   7.253 -1.9636 -0.7550 -2.4975
  227MOL0     H30615  11.255   3.109   7.351 -1.8744 -1.8662 -1.0623
  227MOL0     H30616  11.311   2.972   7.247  2.2295  0.5965 -3.5272
  227MOL0     H30617  11.300   3.273   7.173 -1.9621 -0.2986 -1.5906
  227MOL0     H30618  11.368   3.142   7.073 -0.1951  0.3216 -1.1250
  227MOL0     H30619  11.128   3.029   7.101  1.7321 -0.2492 -0.4495
  227MOL0     H30620  11.153   3.165   7.000 -2.2080 -4.1922 -0.8817
  227MOL0     H30621  10.954   3.156   7.199  0.9134 -0.1235  2.5464
  227MOL0     H30622  11.085   3.237   7.281 -0.8470 -0.2147  0.6187
  227MOL0     H30623  10.963   3.303   7.017  0.2163 -1.4739  1.7682
  227MOL0     H30624  11.111   3.399   7.092  1.3625 -0.3416  0.0553
  227MOL0     H30625  10.931   3.540   7.093  0.7104 -0.1928 -1.0551
  227MOL0     H30626  10.937   3.480   7.258 -0.6805  1.6971 -0.5038
  227MOL0     H30627  11.660   2.879   7.631 -1.9140  1.3435 -3.2227
  227MOL0     H30628  11.768   2.717   7.680 -1.3265  0.2839  1.7357
  227MOL0     H30629  12.004   2.436   7.416  3.2618 -2.7984 -4.9876
  227MOL0     H30630  12.161   2.285   7.349  2.6081 -1.9704  0.3442
  227MOL0     H30631  11.620   1.161   6.924  0.9531 -0.7491 -1.6297
  227MOL0     H30632  11.436   1.333   6.921  0.5049 -0.8832  0.8970
  227MOL0     H30633  11.339   1.835   6.566  0.9593 -1.7532  2.9375
  227MOL0     H30634  11.145   1.981   6.574  1.4940  1.0595  2.5742
  227MOL0     H30635  10.725   1.907   6.745  0.1557  0.0981  2.7410
  227MOL0     H30636  10.873   1.882   6.859 -0.6630 -0.1166  0.9213
  227MOL0     H30637  10.774   2.092   6.892  1.0266 -1.3050  1.1937
  227MOL0     H30638  10.806   2.130   6.717 -2.6311 -3.2138 -1.0478
  227MOL0     H30639  11.035   2.107   6.735 -4.1397  0.9317 -2.0549
  227MOL0     H30640  11.034   2.051   6.900 -1.6567  0.7233  2.2540
  227MOL0     H30641  10.994   2.340   6.803  0.8727  1.7054  0.7097
  227MOL0     H30642  11.130   2.268   6.885 -0.1643 -2.0612  3.7871
  227MOL0     H30643  10.861   2.259   7.215  2.3676 -2.0446  1.0293
  227MOL0     H30644  10.909   1.653   6.734  0.0167  0.5773  2.6106
  227MOL0     H30645  11.104   1.508   6.709  0.0104  0.0983 -2.0714
  228MOL0     O30646   6.296   6.557   3.842 -0.4499  0.2003 -0.1477
  228MOL0     C30647   6.212   6.648   3.832  0.7641  0.3870 -0.4106
  228MOL0     O30648   6.243   6.778   3.862  0.1965 -0.2541  0.1543
  228MOL0     C30649   6.369   6.818   3.893  0.0867  1.6758 -0.3944
  228MOL0     C30650   6.388   6.917   3.985  1.2116  0.4422 -0.1511
  228MOL0     C30651   6.516   6.979   3.996 -1.3103 -0.2236  0.3231
  228MOL0     C30652   6.627   6.931   3.930  1.3496 -0.5911  0.0625
  228MOL0     O30653   6.748   6.997   3.956 -1.4283  0.8419  0.1700
  228MOL0     C30654   6.874   6.958   3.897 -0.8238  0.1753 -1.0954
  228MOL0     C30655   6.972   7.071   3.864  0.2700 -0.1248 -0.0623
  228MOL0     C30656   7.093   7.028   3.778  0.5642  0.6141 -0.4636
  228MOL0     C30657   7.188   6.917   3.827  0.5173  0.3225 -0.2083
  228MOL0     C30658   7.233   6.939   3.971 -0.0312 -0.5076 -0.2839
  228MOL0     C30659   7.315   6.811   4.006 -0.0914 -0.6608  0.6175
  228MOL0     C30660   7.436   6.861   4.102 -0.6447  0.1382  0.2175
  228MOL0     C30661   7.390   6.889   4.246 -0.4474  0.5181 -0.0784
  228MOL0     N30662   7.495   6.930   4.337 -0.0010 -0.0114 -0.2249
  228MOL0     C30663   7.560   7.051   4.339  0.0845  0.3596  0.4076
  228MOL0     C30664   7.661   7.027   4.428 -0.4180  0.2470 -0.2267
  228MOL0     C30665   7.763   7.125   4.466  1.3554 -0.4406 -0.8411
  228MOL0     C30666   7.708   7.216   4.582 -0.8406 -0.2110  0.3892
  228MOL0     C30667   7.659   7.134   4.696 -0.3489 -0.3283 -0.1959
  228MOL0     C30668   7.629   7.216   4.824  0.1601 -0.2861  0.3538
  228MOL0     O30669   7.508   7.289   4.814 -0.2420  0.5520  0.1575
  228MOL0     C30670   7.453   7.329   4.932 -0.0402  0.7483 -0.0767
  228MOL0     C30671   7.510   7.432   5.012  0.3719 -0.2047  0.0856
  228MOL0     C30672   7.451   7.490   5.125 -0.1192  1.3244  1.0715
  228MOL0     C30673   7.519   7.610   5.184  0.5857  0.9141 -1.0686
  228MOL0     C30674   7.330   7.437   5.176  0.9894 -0.5431 -0.0728
  228MOL0     C30675   7.257   7.481   5.297 -0.1648 -0.0122  1.2112
  228MOL0     O30676   7.334   7.539   5.400 -0.4401 -0.0199 -0.2649
  228MOL0     C30677   7.265   7.589   5.498 -0.4341  0.1821 -0.3923
  228MOL0     C30678   7.175   7.507   5.573 -0.3141 -0.4785  0.1013
  228MOL0     C30679   7.094   7.564   5.675 -0.6136 -0.2418 -0.1596
  228MOL0     C30680   7.120   7.692   5.720 -0.3907 -1.2553  1.2859
  228MOL0     O30681   7.042   7.735   5.825 -0.2583 -0.2601 -0.4598
  228MOL0     C30682   7.067   7.865   5.877  1.0561 -0.4114 -1.2074
  228MOL0     C30683   7.011   7.864   6.028  0.5869 -0.9490  0.8713
  228MOL0     C30684   7.128   7.883   6.136  0.8529  0.7722 -0.3400
  228MOL0     C30685   7.077   7.894   6.281  0.0040 -0.2763  0.0985
  228MOL0     C30686   7.182   7.916   6.380 -0.1909  0.4830 -1.1085
  228MOL0     C30687   7.262   7.783   6.422 -0.3732 -0.7502 -0.2260
  228MOL0     C30688   7.347   7.795   6.548 -0.4298 -0.4228 -0.5650
  228MOL0     C30689   7.469   7.698   6.525  0.4850 -0.1209 -0.1472
  228MOL0    Cl30690   7.421   7.534   6.486  0.1607  0.0532  0.1615
  228MOL0     C30691   7.202   7.774   5.638  0.9524  0.1187  0.1000
  228MOL0     C30692   7.267   7.722   5.522  0.3022 -0.5316 -0.8364
  228MOL0     O30693   7.136   7.473   5.297 -0.2881 -0.4315 -0.1004
  228MOL0     C30694   7.260   7.347   5.092  1.1004  0.0440  0.0313
  228MOL0     C30695   7.319   7.287   4.971  0.5900 -0.3112  0.2173
  228MOL0     N30696   7.657   6.903   4.478 -0.6021  0.1254  0.0212
  228MOL0     N30697   7.570   6.841   4.411  0.2402 -0.2185 -1.1349
  228MOL0     C30698   6.605   6.837   3.831  0.4689 -0.0969  0.4606
  228MOL0     C30699   6.479   6.781   3.812 -0.1753  0.2964 -0.1542
  228MOL0     C30700   6.079   6.616   3.767  0.1213 -0.1254 -0.9706
  228MOL0     C30701   6.050   6.499   3.695 -0.9977  0.4625  0.2335
  228MOL0     C30702   5.930   6.483   3.635  0.3906  0.3761 -0.2575
  228MOL0     C30703   5.823   6.578   3.647 -0.3238  0.0197 -0.3053
  228MOL0     O30704   5.709   6.566   3.575  0.2555 -0.3544  0.5452
  228MOL0     C30705   5.607   6.513   3.655  0.6236  0.4246 -0.7772
  228MOL0     C30706   5.468   6.557   3.622 -0.7302  0.5236 -0.6191
  228MOL0     C30707   5.372   6.509   3.735 -0.0164 -0.1960 -1.0586
  228MOL0     C30708   5.235   6.574   3.714  0.4500 -0.3777  0.5659
  228MOL0     C30709   5.134   6.500   3.795 -0.7837 -0.1302  0.5074
  228MOL0     C30710   5.055   6.439   3.861 -0.0129 -1.2498  1.0980
  228MOL0     C30711   5.850   6.697   3.727  0.5633 -1.1754  0.3765
  228MOL0     C30712   5.977   6.710   3.785  0.0510 -0.5049 -0.1376
  228MOL0     H30713   6.302   6.955   4.040  0.5140 -1.3515  0.0616
  228MOL0     H30714   6.544   7.058   4.065  3.7605 -1.3344 -0.0512
  228MOL0     H30715   6.920   6.899   3.977 -0.2675  2.1510  0.0901
  228MOL0     H30716   6.853   6.910   3.801 -1.9080 -0.6905 -0.4531
  228MOL0     H30717   6.929   7.147   3.799 -1.2535 -1.2912 -0.5068
  228MOL0     H30718   7.008   7.119   3.956 -2.6534 -1.4760  1.9600
  228MOL0     H30719   7.063   6.990   3.680  2.5649 -2.6571  0.0141
  228MOL0     H30720   7.143   7.123   3.756 -1.9339  3.2149  3.7279
  228MOL0     H30721   7.142   6.820   3.807  0.7694 -0.2445  1.7688
  228MOL0     H30722   7.270   6.927   3.755  0.0014 -0.5293 -0.9334
  228MOL0     H30723   7.298   7.027   3.968  1.2292 -1.4041  0.0560
  228MOL0     H30724   7.149   6.950   4.040  0.7371  0.0150  0.5837
  228MOL0     H30725   7.253   6.737   4.059  1.0894 -0.0655  2.9586
  228MOL0     H30726   7.355   6.755   3.921  0.3524 -5.1046  3.4560
  228MOL0     H30727   7.504   6.776   4.107 -0.4539  0.3402  1.3145
  228MOL0     H30728   7.481   6.954   4.066  1.2292 -0.9250 -0.2927
  228MOL0     H30729   7.360   6.790   4.281  2.3764 -0.1935  0.6057
  228MOL0     H30730   7.293   6.940   4.234 -0.4054  0.0338 -3.4093
  228MOL0     H30731   7.527   7.143   4.292 -3.7265 -0.7796  0.5220
  228MOL0     H30732   7.862   7.086   4.492  1.9774  1.3901 -0.3345
  228MOL0     H30733   7.780   7.188   4.378 -1.1838  3.1864  1.0365
  228MOL0     H30734   7.628   7.284   4.549 -1.2579  2.0016  5.1884
  228MOL0     H30735   7.789   7.283   4.613 -1.6115  0.3903  1.1385
  228MOL0     H30736   7.730   7.056   4.724 -2.4374 -1.6984  1.5934
  228MOL0     H30737   7.565   7.084   4.672  1.6020 -3.3091 -2.2306
  228MOL0     H30738   7.707   7.284   4.859  0.7024  1.1445 -3.2450
  228MOL0     H30739   7.617   7.144   4.906  0.9327 -0.9453 -0.0954
  228MOL0     H30740   7.597   7.479   4.965  0.1847 -0.1504 -0.2105
  228MOL0     H30741   7.574   7.659   5.104  1.7201 -0.0450 -0.8948
  228MOL0     H30742   7.447   7.671   5.240 -0.1198 -2.3806  2.0078
  228MOL0     H30743   7.591   7.576   5.259 -0.0471  1.9379  0.0452
  228MOL0     H30744   7.160   7.404   5.541  2.1141 -1.8876  3.0117
  228MOL0     H30745   7.015   7.515   5.730  0.8865 -2.6896 -0.0290
  228MOL0     H30746   7.174   7.885   5.884  1.0353 -1.0644  2.7129
  228MOL0     H30747   7.019   7.949   5.824 -1.3252 -0.3513  0.8655
  228MOL0     H30748   6.943   7.950   6.035  1.8857  0.2123 -0.1336
  228MOL0     H30749   6.956   7.771   6.042 -1.5898  0.1592  0.2396
  228MOL0     H30750   7.178   7.973   6.101  2.0666  1.0652  1.9412
  228MOL0     H30751   7.201   7.802   6.125  1.8605  1.3678  1.4681
  228MOL0     H30752   7.019   7.987   6.282 -0.3209 -0.4523 -1.0910
  228MOL0     H30753   7.013   7.808   6.306  0.6294 -0.5073  0.9789
  228MOL0     H30754   7.138   7.956   6.471  0.4073  0.6730 -0.8973
  228MOL0     H30755   7.260   7.980   6.338  3.3632 -2.9732 -0.3859
  228MOL0     H30756   7.197   7.695   6.431  0.0361 -0.9343  1.4301
  228MOL0     H30757   7.328   7.763   6.337 -1.1257 -0.7004 -0.8326
  228MOL0     H30758   7.293   7.779   6.641 -0.7793  2.9321 -0.0629
  228MOL0     H30759   7.386   7.897   6.558 -1.4649  0.1423 -2.0070
  228MOL0     H30760   7.523   7.693   6.620 -0.5376  1.4142  0.5517
  228MOL0     H30761   7.528   7.742   6.445  3.2809 -2.2238  0.6141
  228MOL0     H30762   7.203   7.878   5.669 -2.3486 -0.1818  1.7298
  228MOL0     H30763   7.309   7.800   5.461  2.6503 -1.1521 -0.1027
  228MOL0     H30764   7.158   7.332   5.125  1.3592 -1.6724  0.1747
  228MOL0     H30765   7.269   7.216   4.906 -1.2616  2.1068 -1.1483
  228MOL0     H30766   6.678   6.810   3.755 -0.0509  1.3069 -0.5678
  228MOL0     H30767   6.472   6.708   3.732  2.8003  2.5983 -2.7851
  228MOL0     H30768   6.129   6.427   3.678 -1.1181  0.6016 -1.0073
  228MOL0     H30769   5.908   6.405   3.563 -5.9724 -1.1211  2.6284
  228MOL0     H30770   5.605   6.404   3.652  1.6107  0.3287  0.8967
  228MOL0     H30771   5.630   6.527   3.761 -1.5459 -0.8382 -0.0821
  228MOL0     H30772   5.434   6.522   3.524 -0.3931  1.7687 -1.2002
  228MOL0     H30773   5.469   6.666   3.617  1.6154  0.5574 -0.4376
  228MOL0     H30774   5.406   6.537   3.835 -2.9172 -0.9407  0.2162
  228MOL0     H30775   5.354   6.402   3.728  2.4933 -0.6984 -0.7453
  228MOL0     H30776   5.203   6.566   3.609 -1.0449  0.9941  0.8674
  228MOL0     H30777   5.239   6.679   3.745 -3.6937 -0.7610  3.0923
  228MOL0     H30778   4.988   6.380   3.921 -0.9712 -2.9034 -1.4336
  228MOL0     H30779   5.775   6.774   3.743  2.7286  1.2743 -0.5809
  228MOL0     H30780   5.990   6.794   3.852  1.5025 -1.2461  0.5357
  229MOL0     O30781   6.193   2.649  10.166  0.0460 -0.1865  0.7424
  229MOL0     C30782   6.318   2.645  10.170  0.6925 -0.3626  0.1969
  229MOL0     O30783   6.399   2.726  10.244  0.0376  0.8666 -0.1950
  229MOL0     C30784   6.344   2.792  10.356 -0.4606 -0.7922 -0.3069
  229MOL0     C30785   6.396   2.922  10.389  0.2365  0.3628  1.1755
  229MOL0     C30786   6.350   2.984  10.502  0.2738 -0.2910 -0.1476
  229MOL0     C30787   6.251   2.928  10.588  0.4139 -0.1992  1.3173
  229MOL0     O30788   6.227   2.992  10.709 -0.5911  0.0040  0.2568
  229MOL0     C30789   6.137   2.929  10.796 -0.8750 -0.5564  0.4594
  229MOL0     C30790   5.981   2.939  10.758  0.0648  1.3695 -0.9572
  229MOL0     C30791   5.916   3.078  10.771  0.7044 -0.8944  0.5252
  229MOL0     C30792   5.773   3.072  10.814 -0.8154  0.0256  0.2757
  229MOL0     C30793   5.712   3.202  10.839 -0.2676 -0.6303  0.0092
  229MOL0     C30794   5.601   3.198  10.939 -0.5583 -0.5558 -0.2383
  229MOL0     C30795   5.536   3.337  10.955 -0.3881  0.7498  0.0098
  229MOL0     C30796   5.472   3.392  10.833  0.1872 -0.5560  0.0267
  229MOL0     N30797   5.563   3.499  10.774  0.4798 -0.8929  0.4678
  229MOL0     C30798   5.598   3.526  10.644  0.3278  0.3152 -0.7432
  229MOL0     C30799   5.618   3.655  10.626  0.2043 -0.2025 -0.8677
  229MOL0     C30800   5.633   3.736  10.495  0.1400  0.6186  0.4861
  229MOL0     C30801   5.596   3.666  10.363 -0.0258 -0.6351 -0.8283
  229MOL0     C30802   5.452   3.644  10.335 -0.6184  1.0943 -0.4809
  229MOL0     C30803   5.412   3.567  10.208 -0.0481 -0.2216 -0.0955
  229MOL0     O30804   5.272   3.561  10.183 -0.4604  0.8058 -0.5052
  229MOL0     C30805   5.191   3.670  10.160  0.7206  0.0639 -0.5829
  229MOL0     C30806   5.048   3.657  10.170  0.2795  0.2056 -0.8242
  229MOL0     C30807   4.963   3.767  10.156  0.6083 -0.7125 -0.0571
  229MOL0     C30808   4.816   3.743  10.164  0.4638  0.3817 -0.4032
  229MOL0     C30809   5.013   3.894  10.122  0.0554  0.2654 -0.3893
  229MOL0     C30810   4.923   4.005  10.091  0.0654 -0.1907 -0.7823
  229MOL0     O30811   4.958   4.125  10.148 -0.0222  0.0927 -0.0382
  229MOL0     C30812   4.895   4.238  10.093  0.0939 -0.6586  0.2508
  229MOL0     C30813   4.764   4.270  10.130 -0.2004 -0.5131 -0.9571
  229MOL0     C30814   4.716   4.399  10.100  0.9124  0.1177 -1.0975
  229MOL0     C30815   4.786   4.494  10.033 -0.2680 -0.2112 -0.2882
  229MOL0     O30816   4.752   4.617   9.987  0.9070 -0.4896  0.7054
  229MOL0     C30817   4.639   4.695  10.041 -0.8273  0.0331 -1.0477
  229MOL0     C30818   4.651   4.853  10.010  0.8258 -0.2676  0.4633
  229MOL0     C30819   4.669   4.876   9.863 -0.2264 -0.1048  0.3036
  229MOL0     C30820   4.568   4.992   9.817 -0.0947  0.4754  0.3804
  229MOL0     C30821   4.619   5.041   9.675  0.4626  1.0787 -0.2925
  229MOL0     C30822   4.721   5.158   9.697 -0.1299 -0.7598  0.3307
  229MOL0     C30823   4.802   5.198   9.573  1.4237  0.3368 -0.4369
  229MOL0     C30824   4.866   5.337   9.576  0.0112  0.0111  0.1302
  229MOL0    Cl30825   4.955   5.383   9.424  0.2381  0.1149 -0.4576
  229MOL0     C30826   4.915   4.455   9.995  0.7205  0.2726  0.0598
  229MOL0     C30827   4.976   4.328  10.027  0.8273  0.5915 -0.0058
  229MOL0     O30828   4.848   3.985   9.992  0.5589 -0.1009  0.3310
  229MOL0     C30829   5.145   3.906  10.104 -0.3472 -0.1312  0.1564
  229MOL0     C30830   5.240   3.801  10.133  0.0394  0.0840  0.5950
  229MOL0     N30831   5.590   3.715  10.749 -0.7013  0.4472  0.1361
  229MOL0     N30832   5.563   3.618  10.833 -0.6056  0.2160 -0.4087
  229MOL0     C30833   6.195   2.797  10.551 -0.1480 -0.0259 -1.3855
  229MOL0     C30834   6.253   2.730  10.436  1.0356 -0.3455  0.5208
  229MOL0     C30835   6.389   2.543  10.087  0.6384 -0.0981  0.0847
  229MOL0     C30836   6.314   2.469   9.985  0.1755  0.6559  0.0369
  229MOL0     C30837   6.369   2.372   9.893 -0.8694 -1.2097 -1.3335
  229MOL0     C30838   6.508   2.353   9.907  0.4663 -0.2814  0.2017
  229MOL0     O30839   6.586   2.276   9.822 -0.6205  0.0275  0.0202
  229MOL0     C30840   6.528   2.189   9.719  0.5398 -0.4108 -0.9304
  229MOL0     C30841   6.636   2.161   9.620 -0.4423  1.6587  0.2956
  229MOL0     C30842   6.563   2.096   9.498 -0.2320  1.0105 -0.2580
  229MOL0     C30843   6.652   2.063   9.380 -0.9053 -0.2636  0.0759
  229MOL0     C30844   6.722   1.945   9.425  0.1368 -0.0599  0.4395
  229MOL0     C30845   6.787   1.855   9.460 -0.8023 -0.0900  0.1167
  229MOL0     C30846   6.585   2.423  10.002  1.3378  0.1621  0.1448
  229MOL0     C30847   6.524   2.514  10.093 -0.6107 -0.3693  0.4153
  229MOL0     H30848   6.461   2.986  10.329 -0.8328  0.2544 -0.1331
  229MOL0     H30849   6.394   3.072  10.547 -2.8762  0.8537  0.9805
  229MOL0     H30850   6.177   2.831  10.822  0.7677  0.2866  1.2407
  229MOL0     H30851   6.140   2.982  10.892 -3.3597 -0.7845  0.7325
  229MOL0     H30852   5.972   2.895  10.658  0.7714  1.2262 -0.9651
  229MOL0     H30853   5.930   2.860  10.816  0.4605  0.1372 -2.2363
  229MOL0     H30854   5.973   3.141  10.839 -1.5744 -1.2732  2.9597
  229MOL0     H30855   5.919   3.131  10.675 -0.7719  0.3646  1.1302
  229MOL0     H30856   5.714   3.026  10.734 -1.1674 -0.9664  1.0773
  229MOL0     H30857   5.751   3.009  10.901  0.3466  2.2693  2.3183
  229MOL0     H30858   5.780   3.281  10.873 -0.1845  0.5803 -2.6779
  229MOL0     H30859   5.672   3.241  10.744 -2.2292  0.0434  1.0476
  229MOL0     H30860   5.525   3.126  10.905 -0.8536 -0.3393 -0.0446
  229MOL0     H30861   5.646   3.168  11.034  0.1069 -1.5710 -0.8436
  229MOL0     H30862   5.465   3.330  11.039 -1.7786  0.9632 -1.1202
  229MOL0     H30863   5.600   3.419  10.990 -3.3160  1.6916  3.8395
  229MOL0     H30864   5.378   3.442  10.860  0.7872  1.1405 -0.8765
  229MOL0     H30865   5.456   3.316  10.757  1.4362 -2.8081  1.8664
  229MOL0     H30866   5.620   3.455  10.566 -2.5030 -0.2023 -1.1663
  229MOL0     H30867   5.560   3.816  10.507 -1.1156 -0.7941  3.0842
  229MOL0     H30868   5.733   3.779  10.483  0.2365 -0.2907 -3.8388
  229MOL0     H30869   5.658   3.579  10.339 -1.7402 -1.4120 -2.7183
  229MOL0     H30870   5.621   3.740  10.287  0.8729  0.9858  0.9722
  229MOL0     H30871   5.419   3.747  10.326  0.9420  1.6580 -0.0101
  229MOL0     H30872   5.404   3.597  10.422  0.3880 -2.8198 -1.8140
  229MOL0     H30873   5.461   3.469  10.199 -3.0470 -2.2118  2.9345
  229MOL0     H30874   5.452   3.621  10.121  1.8478  0.6363  1.2393
  229MOL0     H30875   5.006   3.562  10.204  0.2893  0.6665  0.5436
  229MOL0     H30876   4.769   3.833  10.205  0.9244  0.3716  0.1642
  229MOL0     H30877   4.774   3.715  10.067 -0.6783 -1.1502  0.5001
  229MOL0     H30878   4.797   3.659  10.232  4.8417 -1.6523 -1.3297
  229MOL0     H30879   4.730   4.191  10.196  1.4697  0.8640  1.7334
  229MOL0     H30880   4.615   4.420  10.132  1.4148 -0.3686  0.9635
  229MOL0     H30881   4.550   4.644  10.002 -1.0429 -1.5770  1.3045
  229MOL0     H30882   4.652   4.678  10.149 -0.1365 -1.8097 -1.3871
  229MOL0     H30883   4.570   4.911  10.054  0.4699  3.8621 -4.7369
  229MOL0     H30884   4.740   4.876  10.069 -0.1621  1.2607  1.4341
  229MOL0     H30885   4.655   4.782   9.809 -2.4670 -0.3360  1.1714
  229MOL0     H30886   4.769   4.910   9.834 -0.9408 -0.3085 -2.7168
  229MOL0     H30887   4.471   4.941   9.814  0.9099 -1.7095  2.0018
  229MOL0     H30888   4.569   5.074   9.889 -0.0740 -0.7555  1.8512
  229MOL0     H30889   4.537   5.082   9.614 -1.0573 -1.0708  0.1976
  229MOL0     H30890   4.668   4.956   9.628 -0.9752 -1.7119  2.8489
  229MOL0     H30891   4.663   5.242   9.735  0.2039  0.2530 -1.3204
  229MOL0     H30892   4.790   5.124   9.776 -1.1037 -2.1768  0.6107
  229MOL0     H30893   4.743   5.197   9.482  3.9364  2.1940 -2.2581
  229MOL0     H30894   4.872   5.118   9.550  0.4362 -0.1159 -1.9763
  229MOL0     H30895   4.927   5.359   9.664  1.1415 -0.8519 -0.4137
  229MOL0     H30896   4.772   5.394   9.577 -0.1794 -0.2937  0.9147
  229MOL0     H30897   4.956   4.530   9.929 -2.7436  3.2164  0.9725
  229MOL0     H30898   5.081   4.319  10.001  1.6283  2.2170  2.2319
  229MOL0     H30899   5.190   4.004  10.090 -0.3428 -0.2354 -0.5914
  229MOL0     H30900   5.346   3.822  10.127 -0.2878  1.7582  0.1662
  229MOL0     H30901   6.129   2.751  10.624  1.0345  0.4147  0.0304
  229MOL0     H30902   6.214   2.629  10.421  1.8933 -0.4100 -1.6303
  229MOL0     H30903   6.208   2.490   9.971  0.3215  0.3482 -1.7649
  229MOL0     H30904   6.320   2.313   9.817  0.1757 -0.4612 -2.6213
  229MOL0     H30905   6.485   2.098   9.762 -1.4297  1.0044  0.2622
  229MOL0     H30906   6.437   2.232   9.677 -0.8750 -1.8733  0.5138
  229MOL0     H30907   6.711   2.092   9.661 -0.5637  0.2404 -1.7103
  229MOL0     H30908   6.695   2.250   9.594  1.2752 -0.1004 -2.3948
  229MOL0     H30909   6.498   2.173   9.456 -2.6277 -2.2369 -3.0922
  229MOL0     H30910   6.502   2.008   9.521  0.9425 -0.0924 -1.2280
  229MOL0     H30911   6.717   2.150   9.369 -2.4968  1.1798  1.4303
  229MOL0     H30912   6.600   2.052   9.284 -1.7056  1.6307  0.2452
  229MOL0     H30913   6.859   1.786   9.500 -2.9443 -2.9047 -0.5726
  229MOL0     H30914   6.693   2.418  10.004  1.3531  0.1199 -0.6274
  229MOL0     H30915   6.597   2.578  10.142  1.3344 -0.8733 -1.6407
  230MOL0     O30916   6.178   3.339   6.374 -0.1656  0.1273  0.6365
  230MOL0     C30917   6.237   3.271   6.283  0.6362 -0.8363  0.3328
  230MOL0     O30918   6.287   3.321   6.161 -0.6828  0.6294 -0.0147
  230MOL0     C30919   6.278   3.459   6.154  0.8503  0.2245  0.5286
  230MOL0     C30920   6.184   3.528   6.075  0.6544 -0.1084  0.3077
  230MOL0     C30921   6.180   3.669   6.056 -0.1519 -0.5040 -0.1106
  230MOL0     C30922   6.288   3.744   6.111  0.6183  0.7900  0.6381
  230MOL0     O30923   6.307   3.874   6.089 -0.2193  0.2017 -0.0749
  230MOL0     C30924   6.205   3.956   6.045 -0.1326 -0.5683  0.8357
  230MOL0     C30925   6.247   4.102   6.022 -0.1539 -0.1069  0.1720
  230MOL0     C30926   6.303   4.185   6.149 -0.2940 -0.4480  0.4982
  230MOL0     C30927   6.449   4.134   6.182 -0.3362  0.2129 -0.0519
  230MOL0     C30928   6.508   4.213   6.303 -0.3198 -0.2198 -0.5814
  230MOL0     C30929   6.643   4.163   6.346  0.0200 -0.4137  0.0536
  230MOL0     C30930   6.767   4.179   6.243 -0.2698  1.0238 -1.3254
  230MOL0     C30931   6.799   4.327   6.208  0.5083  1.0865 -0.8876
  230MOL0     N30932   6.806   4.425   6.321 -0.9114 -0.3632  0.2899
  230MOL0     C30933   6.923   4.453   6.404 -0.0007 -0.5917  0.2019
  230MOL0     C30934   6.871   4.542   6.495 -0.9413  0.2256 -0.2872
  230MOL0     C30935   6.963   4.603   6.607  0.8987 -0.4427  0.4671
  230MOL0     C30936   6.912   4.753   6.609 -0.7809 -0.2887 -0.7695
  230MOL0     C30937   7.016   4.840   6.682  0.5360  0.0231 -0.5427
  230MOL0     C30938   6.993   4.989   6.649 -0.5451  0.1690 -0.4932
  230MOL0     O30939   7.065   5.069   6.752 -0.3620  0.2610  0.4943
  230MOL0     C30940   7.110   5.197   6.715  0.5373  0.6568 -0.0963
  230MOL0     C30941   7.163   5.279   6.804 -0.9681 -0.1526  0.0413
  230MOL0     C30942   7.221   5.403   6.772 -0.5608  0.3657 -0.4998
  230MOL0     C30943   7.308   5.456   6.873 -0.6198 -0.4457  0.5269
  230MOL0     C30944   7.194   5.458   6.641 -0.1555 -0.8327  0.1305
  230MOL0     C30945   7.251   5.583   6.590  0.3179  1.0259  0.3949
  230MOL0     O30946   7.313   5.673   6.673 -0.2100  0.6180  0.9961
  230MOL0     C30947   7.348   5.805   6.643 -0.0362 -0.1674  0.7115
  230MOL0     C30948   7.451   5.869   6.706  0.3592  0.9399 -0.3067
  230MOL0     C30949   7.466   6.003   6.681  0.7255 -0.7285 -0.6565
  230MOL0     C30950   7.383   6.076   6.603  0.2452 -0.5709  0.5849
  230MOL0     O30951   7.399   6.209   6.590  0.7007 -0.3858 -0.8251
  230MOL0     C30952   7.424   6.247   6.453 -0.0282  0.3825  0.5209
  230MOL0     C30953   7.321   6.362   6.428 -0.6370 -0.1022  0.0013
  230MOL0     C30954   7.372   6.449   6.315  0.5204 -1.1825  0.6556
  230MOL0     C30955   7.381   6.364   6.185 -0.5084 -0.5210 -0.8227
  230MOL0     C30956   7.384   6.446   6.056 -0.2603 -0.1114  0.3008
  230MOL0     C30957   7.369   6.383   5.923 -0.6230  1.0564  0.7992
  230MOL0     C30958   7.322   6.229   5.924 -0.2869  0.3290 -1.7876
  230MOL0     C30959   7.316   6.180   5.787 -0.2006  0.0549 -0.3466
  230MOL0    Cl30960   7.229   6.297   5.679  0.3498  0.4637 -0.1993
  230MOL0     C30961   7.279   6.015   6.541  0.1689  0.3750 -0.2081
  230MOL0     C30962   7.263   5.878   6.562 -0.1552 -0.4658 -0.0724
  230MOL0     O30963   7.227   5.598   6.472 -0.2911  0.2122 -0.1761
  230MOL0     C30964   7.130   5.374   6.547 -0.3378  0.1327 -0.5956
  230MOL0     C30965   7.100   5.246   6.586 -0.1443  0.1434  1.0018
  230MOL0     N30966   6.739   4.555   6.481  0.0663 -0.0656 -1.0578
  230MOL0     N30967   6.700   4.482   6.381 -0.0692  0.2786  0.5226
  230MOL0     C30968   6.377   3.672   6.188 -0.5579 -0.2072 -0.6527
  230MOL0     C30969   6.374   3.532   6.219  0.4779  0.1289  0.2200
  230MOL0     C30970   6.234   3.132   6.304 -0.1984  0.9883 -0.6015
  230MOL0     C30971   6.151   3.079   6.409 -0.3021  0.7881 -1.2522
  230MOL0     C30972   6.121   2.941   6.397  0.0241  0.7336 -0.4796
  230MOL0     C30973   6.202   2.853   6.324 -0.3367  0.3993  1.1424
  230MOL0     O30974   6.185   2.711   6.324  0.2686 -0.3828 -0.1879
  230MOL0     C30975   6.078   2.656   6.398  0.7849 -0.5158  1.2091
  230MOL0     C30976   6.088   2.506   6.402  0.2376  0.1406 -0.0899
  230MOL0     C30977   6.058   2.430   6.273  0.0131  0.7534  0.4042
  230MOL0     C30978   6.182   2.407   6.179  0.6440 -0.4312  0.3719
  230MOL0     C30979   6.138   2.322   6.063  0.3588 -0.0815  0.0228
  230MOL0     C30980   6.099   2.260   5.958 -0.1628 -0.7149  0.0804
  230MOL0     C30981   6.296   2.903   6.237  0.0007  0.6915  0.3325
  230MOL0     C30982   6.308   3.041   6.221  0.0207  0.5342  0.2423
  230MOL0     H30983   6.109   3.473   6.019 -0.2129  0.5006  0.8540
  230MOL0     H30984   6.106   3.714   5.991  0.8412 -0.0793 -0.9794
  230MOL0     H30985   6.169   3.919   5.949  1.2568 -1.5952  0.6786
  230MOL0     H30986   6.123   3.951   6.118 -1.2608  1.8663 -0.1605
  230MOL0     H30987   6.315   4.106   5.936  1.1015  1.2879  1.1758
  230MOL0     H30988   6.155   4.153   5.991 -1.3490 -2.9533 -1.2841
  230MOL0     H30989   6.306   4.293   6.130  2.4740 -0.3126  1.1859
  230MOL0     H30990   6.227   4.160   6.224  0.7363  0.5274  1.9250
  230MOL0     H30991   6.440   4.032   6.219 -0.7597  1.0233  2.2435
  230MOL0     H30992   6.517   4.143   6.097  1.4995 -2.6682  0.9795
  230MOL0     H30993   6.506   4.319   6.279 -2.8063  1.4517  5.2110
  230MOL0     H30994   6.438   4.213   6.387  0.6214  1.7702  0.2430
  230MOL0     H30995   6.675   4.226   6.430 -0.3764  0.6923 -0.6026
  230MOL0     H30996   6.627   4.059   6.376  0.5198 -0.3447  0.5894
  230MOL0     H30997   6.858   4.139   6.289 -1.8117  0.8451  1.8627
  230MOL0     H30998   6.754   4.118   6.153 -2.5924 -0.5237 -0.0579
  230MOL0     H30999   6.713   4.351   6.145  0.7739  3.5774 -0.3961
  230MOL0     H31000   6.886   4.342   6.143 -0.7084  1.1817 -2.5770
  230MOL0     H31001   7.027   4.425   6.394  0.6118  0.7499  2.1297
  230MOL0     H31002   6.939   4.561   6.705 -1.5001  1.0642  0.5956
  230MOL0     H31003   7.065   4.601   6.567  0.2434 -1.9930 -1.2357
  230MOL0     H31004   6.821   4.763   6.669 -1.3101 -3.3949 -0.8904
  230MOL0     H31005   6.890   4.795   6.510 -1.3343  1.0553 -0.1095
  230MOL0     H31006   7.120   4.829   6.649  0.3332 -1.2915 -0.7776
  230MOL0     H31007   7.018   4.818   6.790  1.7179  0.0835 -0.5420
  230MOL0     H31008   6.887   5.016   6.658 -0.7487  0.3443 -2.7443
  230MOL0     H31009   7.014   5.007   6.543  1.9478 -1.4469 -0.3314
  230MOL0     H31010   7.153   5.253   6.909  0.7526  1.0975  0.5554
  230MOL0     H31011   7.396   5.505   6.829 -1.7885 -1.2118 -3.0019
  230MOL0     H31012   7.255   5.535   6.927  1.8034 -0.4136  3.0924
  230MOL0     H31013   7.339   5.378   6.944 -0.3043 -0.0469  0.8354
  230MOL0     H31014   7.513   5.828   6.785 -1.2895 -2.0736 -0.4156
  230MOL0     H31015   7.538   6.044   6.751 -2.6774 -0.6293  3.1334
  230MOL0     H31016   7.523   6.290   6.437 -0.1421  0.6825  0.5953
  230MOL0     H31017   7.421   6.171   6.374 -2.2444  1.2921 -0.3576
  230MOL0     H31018   7.217   6.334   6.412 -0.6868  0.0522  0.0591
  230MOL0     H31019   7.326   6.426   6.516  0.0107  0.2117 -0.2517
  230MOL0     H31020   7.470   6.496   6.331  0.9454 -2.5000  2.1262
  230MOL0     H31021   7.301   6.530   6.297  1.8817  0.0631  0.6258
  230MOL0     H31022   7.464   6.296   6.203 -1.3893 -0.5668  5.7415
  230MOL0     H31023   7.290   6.303   6.184 -2.0203  1.6114 -2.5278
  230MOL0     H31024   7.475   6.507   6.047 -0.7107  0.4225 -0.8942
  230MOL0     H31025   7.304   6.519   6.067 -1.6744 -1.5137 -0.3029
  230MOL0     H31026   7.284   6.442   5.887 -0.8734  1.2424  1.6775
  230MOL0     H31027   7.454   6.402   5.857 -0.7885  0.1548  0.3113
  230MOL0     H31028   7.232   6.199   5.978  0.5201 -2.7514 -1.9174
  230MOL0     H31029   7.401   6.182   5.984 -2.8958 -0.5223  1.2372
  230MOL0     H31030   7.263   6.084   5.789 -0.9963  0.4755  1.6739
  230MOL0     H31031   7.421   6.170   5.757 -0.3282 -1.4784 -0.3625
  230MOL0     H31032   7.214   6.072   6.475  2.7463  2.7754 -0.8592
  230MOL0     H31033   7.181   5.839   6.502 -0.0801  3.8410 -3.4698
  230MOL0     H31034   7.128   5.407   6.444  1.1831  0.8516 -0.4213
  230MOL0     H31035   7.043   5.198   6.507 -1.6478  1.3257  1.3416
  230MOL0     H31036   6.458   3.724   6.236  0.5833 -0.2188 -2.4969
  230MOL0     H31037   6.442   3.502   6.298 -1.0409  1.4640  2.1111
  230MOL0     H31038   6.084   3.146   6.462  0.4156 -0.8858  2.0351
  230MOL0     H31039   6.033   2.910   6.452  2.3054 -1.5522  2.1938
  230MOL0     H31040   6.076   2.685   6.504 -1.3130 -1.7508  1.5493
  230MOL0     H31041   5.983   2.691   6.357  0.5129 -0.6300  1.7263
  230MOL0     H31042   6.017   2.483   6.483 -1.2064  1.9191 -0.7617
  230MOL0     H31043   6.189   2.482   6.435 -0.3034 -0.0165  1.5827
  230MOL0     H31044   5.981   2.493   6.228  1.6319  2.5181 -0.0029
  230MOL0     H31045   6.018   2.331   6.295 -1.8198  1.4991  0.5912
  230MOL0     H31046   6.259   2.349   6.230  0.9662 -1.5256 -1.2605
  230MOL0     H31047   6.216   2.506   6.146  1.3185 -0.7281  0.1474
  230MOL0     H31048   6.050   2.216   5.873  0.5383  0.7122 -1.1030
  230MOL0     H31049   6.355   2.831   6.180 -0.7050  1.1248 -0.9799
  230MOL0     H31050   6.368   3.056   6.132 -1.3373 -3.0954 -1.4930
  231MOL0     O31051   9.206   1.818   7.473 -0.3720 -0.0232  1.1383
  231MOL0     C31052   9.286   1.889   7.525 -0.3080  0.6158  0.7845
  231MOL0     O31053   9.256   2.014   7.576 -0.5975 -0.6710  0.2114
  231MOL0     C31054   9.132   2.063   7.599  0.7635  0.9429  0.6314
  231MOL0     C31055   9.128   2.191   7.650  0.9771  0.9946 -0.6162
  231MOL0     C31056   9.006   2.252   7.684  0.3302  0.2365  0.9250
  231MOL0     C31057   8.882   2.192   7.666  0.6521  0.3065 -0.1222
  231MOL0     O31058   8.754   2.250   7.689  0.1142  0.2653  0.3335
  231MOL0     C31059   8.750   2.347   7.792  0.4765  0.7220 -0.6374
  231MOL0     C31060   8.609   2.368   7.838 -0.8210  0.0148  0.0299
  231MOL0     C31061   8.590   2.505   7.892 -0.3362  0.0480 -0.2690
  231MOL0     C31062   8.447   2.529   7.945  0.6369  0.7714  0.5392
  231MOL0     C31063   8.444   2.673   7.988  0.2193 -1.0346 -0.0564
  231MOL0     C31064   8.431   2.773   7.871 -0.6779 -0.8140  0.3343
  231MOL0     C31065   8.347   2.722   7.752  0.6295 -0.0740 -0.8305
  231MOL0     C31066   8.335   2.829   7.644 -0.1334 -0.3382 -0.0816
  231MOL0     N31067   8.267   2.767   7.521 -0.4026  0.3374 -0.0371
  231MOL0     C31068   8.125   2.754   7.513 -0.1515  0.3688  0.5560
  231MOL0     C31069   8.111   2.667   7.410  0.5625  0.2324  0.0856
  231MOL0     C31070   7.973   2.613   7.371 -0.2805  0.6344  0.1177
  231MOL0     C31071   7.933   2.648   7.233  0.2234  1.3908  0.3773
  231MOL0     C31072   7.806   2.573   7.182 -0.3231  1.1671 -0.5474
  231MOL0     C31073   7.753   2.636   7.054 -0.3729 -0.7781 -0.6107
  231MOL0     O31074   7.817   2.588   6.934 -0.7431  0.6959  0.0790
  231MOL0     C31075   7.926   2.661   6.889  0.6436 -0.5443 -0.3771
  231MOL0     C31076   8.016   2.585   6.806  0.3829  0.2385 -0.0679
  231MOL0     C31077   8.123   2.634   6.732 -0.3929 -0.4117 -0.1033
  231MOL0     C31078   8.213   2.532   6.660 -0.6051  0.1840  1.1299
  231MOL0     C31079   8.154   2.768   6.746  1.1723 -0.2558  0.0934
  231MOL0     C31080   8.280   2.830   6.714 -1.1320  0.4509 -0.0884
  231MOL0     O31081   8.262   2.952   6.660 -0.6160 -0.4865 -0.0033
  231MOL0     C31082   8.360   3.036   6.684  0.7122  0.2356  0.5957
  231MOL0     C31083   8.363   3.129   6.788  1.1277 -1.3418 -0.1366
  231MOL0     C31084   8.473   3.214   6.795  0.4821 -0.5713  0.2582
  231MOL0     C31085   8.580   3.199   6.701 -0.0377  0.0448 -0.5482
  231MOL0     O31086   8.695   3.284   6.717 -0.3658  0.2027  0.3924
  231MOL0     C31087   8.707   3.367   6.833  0.9975  0.5271  0.2319
  231MOL0     C31088   8.845   3.422   6.810  0.5334  0.0284 -0.3937
  231MOL0     C31089   8.953   3.309   6.851  0.0675  1.0251 -0.0381
  231MOL0     C31090   9.076   3.318   6.757 -0.8561 -0.5569  0.1547
  231MOL0     C31091   9.082   3.236   6.624  0.5480  0.9328  0.6081
  231MOL0     C31092   9.036   3.091   6.645 -0.1980  0.3696  0.0746
  231MOL0     C31093   9.063   3.013   6.513 -0.5526 -0.4179  0.7830
  231MOL0     C31094   9.027   2.872   6.529  0.1947  0.3158 -0.6149
  231MOL0    Cl31095   9.125   2.747   6.446 -0.1775 -0.2412  0.6794
  231MOL0     C31096   8.571   3.126   6.593  0.1557 -0.0665 -0.4298
  231MOL0     C31097   8.452   3.042   6.579  0.2366  0.8176  0.6436
  231MOL0     O31098   8.382   2.766   6.700  0.3073  0.4862  0.1217
  231MOL0     C31099   8.058   2.848   6.814 -0.3673 -0.5710  0.4991
  231MOL0     C31100   7.953   2.799   6.888  0.7122 -0.0119 -0.5854
  231MOL0     N31101   8.232   2.649   7.339 -0.0747 -0.4955  0.1129
  231MOL0     N31102   8.318   2.707   7.409 -0.8136 -0.8024 -0.5697
  231MOL0     C31103   8.885   2.064   7.619 -0.9055 -0.4782 -0.4000
  231MOL0     C31104   9.007   2.003   7.589 -0.8632  0.2871 -0.3403
  231MOL0     C31105   9.425   1.847   7.516 -0.0610 -0.4686  0.2734
  231MOL0     C31106   9.468   1.765   7.405 -0.1679 -0.4348 -0.0527
  231MOL0     C31107   9.604   1.725   7.400  0.1200 -0.1220  0.0631
  231MOL0     C31108   9.701   1.768   7.499  0.1616  0.3725  0.5595
  231MOL0     O31109   9.831   1.725   7.486 -0.7549 -0.2207 -0.4906
  231MOL0     C31110   9.926   1.762   7.589 -0.1942  0.9615  0.4084
  231MOL0     C31111  10.068   1.733   7.540 -0.4704  0.1213 -0.4600
  231MOL0     C31112  10.105   1.814   7.410 -0.1211 -0.0949 -0.6265
  231MOL0     C31113  10.242   1.783   7.367 -0.0289  0.4690  0.2595
  231MOL0     C31114  10.267   1.640   7.334  0.4365  0.1182  0.3617
  231MOL0     C31115  10.262   1.523   7.322  0.0753  0.5881  0.1176
  231MOL0     C31116   9.655   1.839   7.604  0.6102 -0.4914 -0.3201
  231MOL0     C31117   9.523   1.892   7.601 -0.2334 -0.9782 -1.0496
  231MOL0     H31118   9.216   2.254   7.651  1.3939  0.6177 -3.5528
  231MOL0     H31119   9.004   2.354   7.719 -2.5584  0.7142 -0.3445
  231MOL0     H31120   8.811   2.326   7.881 -1.8672  1.3852  1.2318
  231MOL0     H31121   8.781   2.441   7.745  0.9645  1.5712  1.2631
  231MOL0     H31122   8.532   2.348   7.762 -0.4023  0.7290 -0.5901
  231MOL0     H31123   8.593   2.293   7.916  0.7428 -1.7343 -1.2367
  231MOL0     H31124   8.662   2.525   7.971  0.8660  0.1599 -1.3624
  231MOL0     H31125   8.624   2.566   7.808  0.2939 -0.0969 -0.1235
  231MOL0     H31126   8.370   2.497   7.875  0.6441  0.5442  0.6337
  231MOL0     H31127   8.427   2.461   8.028 -0.0600 -2.4442 -2.0685
  231MOL0     H31128   8.360   2.685   8.057  1.0710  2.2213  0.5551
  231MOL0     H31129   8.537   2.701   8.039  1.1105  2.7099 -3.3056
  231MOL0     H31130   8.384   2.858   7.921  3.2413  1.3907  0.7043
  231MOL0     H31131   8.529   2.808   7.837 -0.6874  0.4841  1.5803
  231MOL0     H31132   8.391   2.628   7.717  3.8453  0.6019  0.9878
  231MOL0     H31133   8.242   2.707   7.780  0.1945  2.2052 -1.0271
  231MOL0     H31134   8.427   2.883   7.621  0.0002  0.6955  2.5295
  231MOL0     H31135   8.271   2.912   7.676  1.6509  2.0430 -2.1839
  231MOL0     H31136   8.043   2.793   7.572  0.1881 -0.0666  1.3185
  231MOL0     H31137   7.984   2.505   7.386 -2.7124  0.2987 -0.0165
  231MOL0     H31138   7.896   2.636   7.446  0.9274 -1.1703  2.0424
  231MOL0     H31139   8.016   2.608   7.174 -1.0394 -4.2077  1.7927
  231MOL0     H31140   7.934   2.757   7.228  1.6266  1.3410 -1.7199
  231MOL0     H31141   7.742   2.562   7.270  1.1016 -0.9766  0.2890
  231MOL0     H31142   7.830   2.469   7.162 -0.7795  1.0271 -0.3724
  231MOL0     H31143   7.760   2.745   7.061 -1.8476 -0.7683  1.4010
  231MOL0     H31144   7.646   2.619   7.041 -0.0310 -1.7908 -2.5212
  231MOL0     H31145   7.995   2.480   6.788 -1.1510  0.3536  0.9345
  231MOL0     H31146   8.154   2.457   6.607 -2.1300  0.3893  2.4531
  231MOL0     H31147   8.274   2.577   6.582 -1.3428 -4.1585 -2.3686
  231MOL0     H31148   8.282   2.478   6.725  1.3903  0.7699 -0.4254
  231MOL0     H31149   8.285   3.126   6.864  1.1107  3.0505  0.2658
  231MOL0     H31150   8.478   3.278   6.882  1.8442 -0.7925  0.3625
  231MOL0     H31151   8.638   3.451   6.819  0.2228 -0.2814 -0.9762
  231MOL0     H31152   8.695   3.309   6.925  2.2540 -2.3333 -1.2813
  231MOL0     H31153   8.861   3.446   6.705 -1.5870  0.6488 -0.6238
  231MOL0     H31154   8.851   3.516   6.865 -3.5450  0.1149  0.2117
  231MOL0     H31155   8.913   3.207   6.843 -1.7547  1.4935  2.0511
  231MOL0     H31156   8.979   3.330   6.955  0.4916 -0.7010  0.2322
  231MOL0     H31157   9.089   3.424   6.735 -4.0650  0.0737  0.7700
  231MOL0     H31158   9.164   3.288   6.814  1.7595  3.5666 -1.2734
  231MOL0     H31159   9.183   3.245   6.582  0.0516  0.2404 -0.7848
  231MOL0     H31160   9.015   3.276   6.547  2.1688  2.0582 -0.2931
  231MOL0     H31161   9.094   3.043   6.725  2.3524  1.9198 -0.7115
  231MOL0     H31162   8.930   3.082   6.667 -0.5870 -2.3116 -2.4033
  231MOL0     H31163   9.165   3.019   6.474 -1.0724 -0.7798 -0.7351
  231MOL0     H31164   8.994   3.052   6.436 -0.2429  1.0325  1.2126
  231MOL0     H31165   8.925   2.857   6.493 -0.7780 -0.4954  2.1593
  231MOL0     H31166   9.018   2.839   6.633  1.9158 -0.1031 -0.5667
  231MOL0     H31167   8.636   3.129   6.505 -0.2237  2.3306 -0.7014
  231MOL0     H31168   8.448   2.973   6.496  3.9083 -1.9644  2.4583
  231MOL0     H31169   8.068   2.954   6.836 -1.6584 -0.2804 -0.2022
  231MOL0     H31170   7.897   2.869   6.949  1.1698  0.7023 -0.9742
  231MOL0     H31171   8.793   2.007   7.611 -1.1033 -0.1153 -0.7436
  231MOL0     H31172   9.013   1.901   7.551  1.0069 -0.0748  0.7772
  231MOL0     H31173   9.405   1.707   7.338  3.4270 -3.0996 -1.4740
  231MOL0     H31174   9.645   1.668   7.318 -3.1128 -2.0956 -0.3484
  231MOL0     H31175   9.915   1.867   7.619  0.5232  0.7199  1.5863
  231MOL0     H31176   9.909   1.707   7.682 -0.7291 -1.8750 -1.2688
  231MOL0     H31177  10.070   1.627   7.513 -1.6635  0.7582 -3.5192
  231MOL0     H31178  10.146   1.751   7.614  0.8133  0.0994 -1.7618
  231MOL0     H31179  10.111   1.919   7.439  3.2381 -0.4608  0.3974
  231MOL0     H31180  10.027   1.820   7.334  0.9549  2.1028 -1.6557
  231MOL0     H31181  10.311   1.814   7.446  0.9182  0.7578 -0.6618
  231MOL0     H31182  10.277   1.840   7.282  1.2287 -0.6641 -0.0205
  231MOL0     H31183  10.275   1.419   7.298 -0.7306 -0.0673  2.2777
  231MOL0     H31184   9.726   1.844   7.686  2.4461  0.3116 -1.8689
  231MOL0     H31185   9.495   1.954   7.685  3.5279 -1.0518  0.4695
  232MOL0     O31186   7.752   2.927   7.861  1.0560  0.7140 -0.1500
  232MOL0     C31187   7.687   3.012   7.923  0.8830  0.1506  1.2751
  232MOL0     O31188   7.603   2.992   8.034 -0.1345  0.2425 -0.3270
  232MOL0     C31189   7.611   2.868   8.098  0.4432  0.2766 -0.1131
  232MOL0     C31190   7.486   2.822   8.138 -0.1396 -0.9224  0.2538
  232MOL0     C31191   7.465   2.707   8.218  0.5128 -0.1414  0.6166
  232MOL0     C31192   7.576   2.639   8.268 -0.2067 -1.2477 -0.8439
  232MOL0     O31193   7.585   2.524   8.335  0.4918  0.1116 -0.0543
  232MOL0     C31194   7.462   2.443   8.348 -0.4133 -1.1080 -0.3290
  232MOL0     C31195   7.490   2.313   8.425 -0.5101  0.2003  0.3062
  232MOL0     C31196   7.539   2.342   8.565  0.4193 -0.1198 -0.3017
  232MOL0     C31197   7.531   2.223   8.656 -0.1960  0.1062  0.4322
  232MOL0     C31198   7.596   2.232   8.791  0.1679  0.4157 -0.5647
  232MOL0     C31199   7.483   2.253   8.894 -0.5155 -0.2960  0.2810
  232MOL0     C31200   7.437   2.407   8.907 -0.5301 -0.2187 -0.5795
  232MOL0     C31201   7.405   2.453   9.052 -0.3989  0.3498 -0.4559
  232MOL0     N31202   7.278   2.390   9.087  1.0613 -0.2061  0.1450
  232MOL0     C31203   7.161   2.412   9.018 -0.7555 -0.6131  0.1780
  232MOL0     C31204   7.074   2.363   9.105 -0.6246  0.9123  0.8523
  232MOL0     C31205   6.922   2.347   9.079  0.4109  0.4569  0.6635
  232MOL0     C31206   6.868   2.207   9.053  1.6336  0.6751 -0.1290
  232MOL0     C31207   6.746   2.207   8.959  0.1819 -0.9155 -0.0600
  232MOL0     C31208   6.756   2.072   8.898 -0.1035  0.7495  0.4095
  232MOL0     O31209   6.645   2.060   8.805  1.0593  0.0090  0.2464
  232MOL0     C31210   6.627   1.948   8.725  0.2349 -0.0309  0.8667
  232MOL0     C31211   6.720   1.845   8.725  0.1306 -0.6168 -0.0227
  232MOL0     C31212   6.698   1.715   8.665  0.2507  0.3002  0.4263
  232MOL0     C31213   6.815   1.607   8.648  0.1468 -0.5358 -0.3895
  232MOL0     C31214   6.573   1.704   8.591  0.3662 -0.4167 -0.3334
  232MOL0     C31215   6.545   1.599   8.484 -0.0615  0.7942  0.9385
  232MOL0     O31216   6.413   1.591   8.448 -0.1365  0.1808  0.1251
  232MOL0     C31217   6.372   1.502   8.350 -0.1904  0.5809 -0.0530
  232MOL0     C31218   6.418   1.534   8.221  0.1390 -0.3994  0.0734
  232MOL0     C31219   6.372   1.458   8.114 -0.3470  0.1581  0.0798
  232MOL0     C31220   6.283   1.361   8.130 -0.1590  0.9453 -0.2347
  232MOL0     O31221   6.238   1.279   8.038  0.1856  0.2042  0.3980
  232MOL0     C31222   6.129   1.346   7.962 -0.3670 -0.5586 -0.0920
  232MOL0     C31223   6.075   1.244   7.865  0.9305  0.0560  0.3773
  232MOL0     C31224   6.187   1.184   7.779  0.3973  0.7276  0.8412
  232MOL0     C31225   6.203   1.245   7.650  0.5500 -0.5146  0.1074
  232MOL0     C31226   6.306   1.167   7.573  0.6204 -0.9192 -0.0612
  232MOL0     C31227   6.325   1.247   7.444 -0.3037  0.9759 -0.3972
  232MOL0     C31228   6.438   1.191   7.359  0.8130 -0.0386  0.0510
  232MOL0     C31229   6.464   1.296   7.244 -0.7825  0.1938 -0.3232
  232MOL0    Cl31230   6.559   1.225   7.106 -0.2456  0.1411 -0.0539
  232MOL0     C31231   6.217   1.349   8.250  0.3203  0.7277  0.1803
  232MOL0     C31232   6.262   1.421   8.362  0.1662 -0.5327 -0.3772
  232MOL0     O31233   6.633   1.528   8.439 -0.5640 -1.6667 -0.0861
  232MOL0     C31234   6.482   1.809   8.592  0.9670 -0.9069  0.0395
  232MOL0     C31235   6.505   1.929   8.662  0.1740 -0.3662 -0.0977
  232MOL0     N31236   7.128   2.319   9.220 -0.2027 -0.7021 -0.6183
  232MOL0     N31237   7.255   2.336   9.205  0.0979  0.4182  0.3375
  232MOL0     C31238   7.702   2.695   8.238  0.3786  0.2068 -0.0136
  232MOL0     C31239   7.719   2.803   8.150 -0.3428  0.3632  0.0732
  232MOL0     C31240   7.672   3.149   7.864  0.5119  0.4259 -0.7290
  232MOL0     C31241   7.583   3.242   7.917  0.8812  0.2482  0.5877
  232MOL0     C31242   7.542   3.359   7.850 -0.1538 -0.4910 -0.2166
  232MOL0     C31243   7.625   3.400   7.743  0.6867  0.6340 -0.1385
  232MOL0     O31244   7.594   3.511   7.670 -0.3999 -0.2898 -0.4016
  232MOL0     C31245   7.553   3.626   7.738 -0.0014  0.1362  0.0748
  232MOL0     C31246   7.406   3.634   7.698 -0.0323  0.4265  0.9352
  232MOL0     C31247   7.348   3.749   7.778  0.1607 -0.1536 -0.4601
  232MOL0     C31248   7.202   3.732   7.824 -0.0615 -1.6882  0.3313
  232MOL0     C31249   7.205   3.725   7.967 -0.6090  0.5748  0.5332
  232MOL0     C31250   7.212   3.717   8.091 -0.8704 -0.6968 -0.3663
  232MOL0     C31251   7.721   3.308   7.691 -0.2604 -0.3022 -0.0944
  232MOL0     C31252   7.746   3.186   7.756 -1.0214 -0.0104  0.2461
  232MOL0     H31253   7.398   2.871   8.097 -0.4248 -1.5591  0.0990
  232MOL0     H31254   7.366   2.668   8.239  0.6502  0.2269  1.9935
  232MOL0     H31255   7.379   2.488   8.403 -0.3686 -0.2539 -0.9317
  232MOL0     H31256   7.432   2.404   8.250 -0.1768  0.2381 -0.9545
  232MOL0     H31257   7.402   2.248   8.418 -0.4892 -0.7491  5.0513
  232MOL0     H31258   7.571   2.258   8.377  0.1061  1.6099 -0.3234
  232MOL0     H31259   7.635   2.394   8.573 -0.4171  1.1828  3.0325
  232MOL0     H31260   7.466   2.412   8.605 -0.1554 -1.1024  0.4115
  232MOL0     H31261   7.423   2.208   8.662 -0.6468  1.6012 -2.3107
  232MOL0     H31262   7.588   2.146   8.603  0.3156  1.4164 -1.0211
  232MOL0     H31263   7.649   2.141   8.820 -0.5122  0.4003  0.6958
  232MOL0     H31264   7.660   2.321   8.795  1.5786 -0.5750 -0.5038
  232MOL0     H31265   7.397   2.193   8.865  0.7540 -1.8043 -0.5226
  232MOL0     H31266   7.510   2.219   8.995  0.4802 -1.6797 -0.4253
  232MOL0     H31267   7.518   2.475   8.877 -0.9494 -0.2051 -1.7504
  232MOL0     H31268   7.358   2.431   8.836  1.8274  0.9313 -3.0018
  232MOL0     H31269   7.401   2.562   9.050 -0.1910  0.3538 -1.1185
  232MOL0     H31270   7.489   2.431   9.119  0.3038  2.0449 -0.7146
  232MOL0     H31271   7.137   2.455   8.921 -4.4107  0.6882  1.4803
  232MOL0     H31272   6.866   2.395   9.159 -0.3899 -1.6819  1.4642
  232MOL0     H31273   6.896   2.404   8.989 -2.4241  0.8950  1.6654
  232MOL0     H31274   6.850   2.175   9.156  1.3252 -2.2977 -0.9980
  232MOL0     H31275   6.945   2.141   9.012  0.4052 -2.6491  2.5099
  232MOL0     H31276   6.751   2.286   8.883  1.9231  0.4244  1.3529
  232MOL0     H31277   6.651   2.235   9.005 -0.4682  3.3272 -3.3872
  232MOL0     H31278   6.775   1.994   8.972  2.6915  2.1067  1.2792
  232MOL0     H31279   6.847   2.074   8.838 -1.8602  0.6610 -2.4646
  232MOL0     H31280   6.813   1.843   8.782  0.4834  0.0271 -0.5770
  232MOL0     H31281   6.865   1.610   8.551 -1.1777  1.9869 -1.0815
  232MOL0     H31282   6.887   1.629   8.728  0.4358 -0.6919 -0.6038
  232MOL0     H31283   6.772   1.508   8.662  1.6899 -0.9986  1.6766
  232MOL0     H31284   6.475   1.621   8.191 -3.1502  0.7017 -3.8093
  232MOL0     H31285   6.431   1.484   8.027  3.0847  1.8275  2.6739
  232MOL0     H31286   6.046   1.375   8.026  0.4910 -1.3040  1.4253
  232MOL0     H31287   6.178   1.437   7.927 -0.9235  0.8077  2.4103
  232MOL0     H31288   6.002   1.170   7.900  3.0783 -2.1573  0.3826
  232MOL0     H31289   6.021   1.307   7.793 -0.3319  0.4912  1.6546
  232MOL0     H31290   6.168   1.076   7.778 -3.0318  1.1352  3.4676
  232MOL0     H31291   6.288   1.201   7.817  0.9386 -1.4594  0.5308
  232MOL0     H31292   6.107   1.235   7.598  1.1932 -3.2889 -0.7213
  232MOL0     H31293   6.237   1.346   7.672 -0.1727 -0.4641  1.0418
  232MOL0     H31294   6.269   1.074   7.529 -3.4040  1.4818 -2.4261
  232MOL0     H31295   6.397   1.157   7.632 -0.8879  0.9458  2.7902
  232MOL0     H31296   6.234   1.237   7.385 -0.6627  1.0988  0.1294
  232MOL0     H31297   6.331   1.354   7.466 -5.1393  1.0056  2.0911
  232MOL0     H31298   6.397   1.095   7.327 -0.8972  0.5542  0.3516
  232MOL0     H31299   6.530   1.182   7.418  0.7099  4.6071  1.3539
  232MOL0     H31300   6.515   1.384   7.283 -2.2302  1.4173 -1.0583
  232MOL0     H31301   6.365   1.329   7.211 -0.9281 -3.2963 -4.2536
  232MOL0     H31302   6.125   1.292   8.255 -0.3687  1.7072 -0.8133
  232MOL0     H31303   6.212   1.428   8.458  1.5174 -1.8028  0.4540
  232MOL0     H31304   6.389   1.798   8.536 -0.3226 -1.0694  2.1015
  232MOL0     H31305   6.427   2.001   8.686  0.4128  0.4893 -1.7527
  232MOL0     H31306   7.780   2.653   8.301 -0.5399  0.8062  1.5988
  232MOL0     H31307   7.823   2.821   8.125 -0.4660 -0.5424 -1.1825
  232MOL0     H31308   7.520   3.226   8.004  0.4662 -0.7987  0.1100
  232MOL0     H31309   7.462   3.425   7.881  0.0566  0.3339 -1.3599
  232MOL0     H31310   7.560   3.619   7.847  0.2465 -0.7181  0.0147
  232MOL0     H31311   7.615   3.710   7.705 -1.6300  2.7236  3.0978
  232MOL0     H31312   7.351   3.546   7.732 -1.7641  2.7118  4.6922
  232MOL0     H31313   7.388   3.657   7.593 -0.1578  2.5493  1.3759
  232MOL0     H31314   7.340   3.842   7.721 -2.6483  0.2557  0.4529
  232MOL0     H31315   7.419   3.775   7.857  0.6025 -1.4202 -0.4247
  232MOL0     H31316   7.146   3.647   7.786 -3.2457  0.3773  0.0203
  232MOL0     H31317   7.149   3.821   7.787  0.0873 -0.6957  2.3727
  232MOL0     H31318   7.214   3.708   8.198  1.3366  2.2364 -0.0303
  232MOL0     H31319   7.780   3.332   7.603  0.8010 -2.7162 -0.1233
  232MOL0     H31320   7.815   3.110   7.721 -0.1464  0.2044  1.4180
  233MOL0     O31321  11.450   8.034   9.770 -0.1990 -1.0307 -0.4360
  233MOL0     C31322  11.422   8.138   9.714  0.2356  0.6086 -0.4316
  233MOL0     O31323  11.333   8.148   9.610 -0.2338  0.8733 -0.9973
  233MOL0     C31324  11.277   8.029   9.579 -0.7536 -1.0602  0.0670
  233MOL0     C31325  11.346   7.928   9.508  0.2603 -0.7015 -0.4436
  233MOL0     C31326  11.279   7.805   9.476 -0.0822  0.0440 -0.0268
  233MOL0     C31327  11.138   7.794   9.498 -0.6070 -0.0455 -0.3109
  233MOL0     O31328  11.061   7.693   9.464  0.0526  0.8283  0.1957
  233MOL0     C31329  11.106   7.604   9.356 -0.4903  1.1047 -0.5000
  233MOL0     C31330  10.984   7.582   9.264  0.5769  0.2970  0.0627
  233MOL0     C31331  10.861   7.536   9.335 -0.2830  0.4112 -0.1664
  233MOL0     C31332  10.754   7.481   9.240 -0.3136 -0.0544  0.7926
  233MOL0     C31333  10.632   7.460   9.311 -0.2268  0.4046 -0.9073
  233MOL0     C31334  10.557   7.332   9.249  0.2899 -0.1769 -0.0839
  233MOL0     C31335  10.424   7.318   9.324 -2.0065  0.4238  0.4106
  233MOL0     C31336  10.382   7.169   9.324 -0.8149  0.3504 -0.3056
  233MOL0     N31337  10.480   7.073   9.372 -0.3555 -0.2203 -0.4100
  233MOL0     C31338  10.520   7.068   9.502  0.7911 -0.5100 -0.2760
  233MOL0     C31339  10.635   7.003   9.493  0.2455  1.4845  0.1433
  233MOL0     C31340  10.718   6.962   9.615  0.1559  0.4502 -0.4534
  233MOL0     C31341  10.817   7.073   9.653 -0.6060 -0.1308  0.2324
  233MOL0     C31342  10.764   7.216   9.682  0.2388 -0.1983  0.7547
  233MOL0     C31343  10.683   7.218   9.814  0.3622  0.9652 -0.6061
  233MOL0     O31344  10.543   7.233   9.782 -0.5797  0.2630 -0.5903
  233MOL0     C31345  10.474   7.328   9.844  1.2468  0.3684 -0.4078
  233MOL0     C31346  10.361   7.365   9.777  0.1475 -0.1327 -0.6338
  233MOL0     C31347  10.266   7.446   9.844  0.6808 -0.0528 -0.2357
  233MOL0     C31348  10.134   7.477   9.777  0.6446 -0.5664  0.3240
  233MOL0     C31349  10.283   7.486   9.982  0.4667 -0.5721 -0.2629
  233MOL0     C31350  10.199   7.597  10.044 -0.2811  0.6973 -0.4045
  233MOL0     O31351  10.096   7.580  10.137  0.6281 -0.2077 -0.6290
  233MOL0     C31352  10.103   7.461  10.207 -0.2770 -0.0595  0.1316
  233MOL0     C31353  10.196   7.464  10.314  1.1704  0.2489 -0.2638
  233MOL0     C31354  10.207   7.351  10.403 -0.6301 -0.1717  0.9983
  233MOL0     C31355  10.136   7.229  10.380  0.1709  0.0051  0.3527
  233MOL0     O31356  10.160   7.125  10.459 -0.6834  0.1569  0.6637
  233MOL0     C31357  10.100   6.998  10.418 -0.8964 -0.0537  0.4107
  233MOL0     C31358  10.149   6.882  10.511 -0.0604 -0.3526  0.0749
  233MOL0     C31359  10.149   6.933  10.660  0.0172 -0.1911 -0.5992
  233MOL0     C31360  10.185   6.821  10.755  0.0300  0.2927  0.2416
  233MOL0     C31361  10.238   6.873  10.890  0.2196 -1.1680 -0.0434
  233MOL0     C31362  10.221   6.760  10.992  0.3480  0.0155 -0.0270
  233MOL0     C31363  10.342   6.677  10.996 -0.2998  0.3533 -0.3924
  233MOL0     C31364  10.458   6.734  11.080  0.0567 -0.5461 -0.8988
  233MOL0    Cl31365  10.456   6.658  11.239 -0.4152 -0.3202  0.0298
  233MOL0     C31366  10.046   7.234  10.268 -0.1086 -0.3925  0.8616
  233MOL0     C31367  10.030   7.342  10.183  0.3668  0.1393  0.0040
  233MOL0     O31368  10.218   7.703   9.990 -0.3682  0.2553 -0.0048
  233MOL0     C31369  10.395   7.440  10.048 -0.7898 -0.6810  0.1990
  233MOL0     C31370  10.496   7.368   9.978  0.2130 -0.1021  0.6414
  233MOL0     N31371  10.664   6.951   9.364  0.3351 -0.4041  0.2391
  233MOL0     N31372  10.557   6.990   9.296 -0.3547 -0.0544 -0.2978
  233MOL0     C31373  11.075   7.899   9.569 -0.1352  1.4638 -0.7425
  233MOL0     C31374  11.142   8.006   9.612  0.2713 -0.0171 -0.1552
  233MOL0     C31375  11.505   8.252   9.742 -0.5197 -0.3920 -0.8819
  233MOL0     C31376  11.600   8.245   9.845 -0.2991 -0.0578  0.3761
  233MOL0     C31377  11.688   8.353   9.879 -0.5889 -0.6324  0.6509
  233MOL0     C31378  11.687   8.470   9.803 -0.2789 -0.6597  0.4865
  233MOL0     O31379  11.768   8.571   9.848  0.4295  0.4812  0.7940
  233MOL0     C31380  11.751   8.719   9.822  0.3502  0.8679 -0.4580
  233MOL0     C31381  11.798   8.798   9.951  0.3356  0.3511 -0.3652
  233MOL0     C31382  11.948   8.788   9.984 -0.7536  0.1456  0.3785
  233MOL0     C31383  11.992   8.643  10.033  0.0773 -0.3616  0.1269
  233MOL0     C31384  12.110   8.627  10.118  0.0540  0.5280  0.3838
  233MOL0     C31385  12.208   8.642  10.182 -0.1657  0.1418 -0.1086
  233MOL0     C31386  11.582   8.486   9.713  0.3967 -0.0578  0.6482
  233MOL0     C31387  11.501   8.375   9.683 -0.1826  0.2505  0.3464
  233MOL0     H31388  11.447   7.949   9.474  0.7143  0.3503  1.4104
  233MOL0     H31389  11.324   7.728   9.415 -0.7985 -1.0232  0.7656
  233MOL0     H31390  11.182   7.652   9.295 -0.1730  0.6709 -0.4468
  233MOL0     H31391  11.142   7.506   9.388 -2.2189  0.1122 -1.4800
  233MOL0     H31392  10.945   7.677   9.227  0.8018  1.0745  1.7250
  233MOL0     H31393  11.004   7.512   9.182  0.2358 -1.8868  1.7398
  233MOL0     H31394  10.891   7.460   9.408 -2.8150 -0.5797 -0.0735
  233MOL0     H31395  10.827   7.622   9.394 -3.8925 -0.5200 -0.6357
  233MOL0     H31396  10.742   7.537   9.147  0.9072 -1.1008 -0.0399
  233MOL0     H31397  10.796   7.385   9.206 -2.4169  0.0863 -2.6776
  233MOL0     H31398  10.668   7.435   9.410  0.8215  3.2450 -0.4620
  233MOL0     H31399  10.569   7.550   9.309 -0.4190  0.2975 -0.0250
  233MOL0     H31400  10.546   7.336   9.140  2.6827 -2.4639 -0.5010
  233MOL0     H31401  10.618   7.244   9.269 -0.9322 -0.9862  0.1875
  233MOL0     H31402  10.436   7.357   9.425 -0.4777 -4.5453  2.4457
  233MOL0     H31403  10.356   7.383   9.267 -2.2742  0.9089  1.2648
  233MOL0     H31404  10.372   7.128   9.224  0.9560  0.5794 -0.5974
  233MOL0     H31405  10.285   7.163   9.375 -1.8974 -0.2909 -2.3586
  233MOL0     H31406  10.486   7.108   9.597  3.2854 -2.5483  1.6411
  233MOL0     H31407  10.654   6.952   9.703  0.7289  0.0524 -0.0777
  233MOL0     H31408  10.767   6.864   9.616  1.2279  0.8835  2.7932
  233MOL0     H31409  10.893   7.091   9.577  0.6265 -1.3807  1.1083
  233MOL0     H31410  10.857   7.046   9.751 -1.4185 -1.3806  0.2478
  233MOL0     H31411  10.703   7.234   9.594 -0.2634 -2.8834  0.4725
  233MOL0     H31412  10.848   7.286   9.688  1.2468 -1.4947  3.2140
  233MOL0     H31413  10.731   7.291   9.879  2.4873 -2.5800  2.2220
  233MOL0     H31414  10.702   7.126   9.870 -0.3233  0.1000 -1.7372
  233MOL0     H31415  10.335   7.346   9.673 -0.9799  1.4074 -0.6676
  233MOL0     H31416  10.078   7.390   9.742  2.0208 -0.9148 -1.1219
  233MOL0     H31417  10.073   7.530   9.851  0.1251  2.6985 -2.2314
  233MOL0     H31418  10.136   7.539   9.687 -0.0603 -1.8279 -0.5906
  233MOL0     H31419  10.249   7.556  10.336  0.9233  0.7383 -1.6492
  233MOL0     H31420  10.271   7.341  10.491 -0.3866  0.5658  0.9130
  233MOL0     H31421   9.992   7.011  10.416 -0.7202  2.1588 -2.9934
  233MOL0     H31422  10.119   6.971  10.314 -3.7967 -2.8574  0.4635
  233MOL0     H31423  10.076   6.802  10.493 -0.5119  0.0967 -0.1095
  233MOL0     H31424  10.249   6.855  10.476  1.6040 -1.2202  4.7587
  233MOL0     H31425  10.051   6.975  10.683  0.9672  3.5260 -2.5537
  233MOL0     H31426  10.229   7.003  10.688  1.1388 -2.5091  2.7045
  233MOL0     H31427  10.097   6.760  10.775 -0.1017  1.0901  2.3127
  233MOL0     H31428  10.268   6.762  10.715 -0.7202 -2.1564  2.1063
  233MOL0     H31429  10.171   6.957  10.906 -1.4969 -2.7804  1.6991
  233MOL0     H31430  10.342   6.908  10.884  0.6530 -2.0214  1.7897
  233MOL0     H31431  10.210   6.806  11.091  1.8434 -2.2969  1.2853
  233MOL0     H31432  10.131   6.699  10.978  0.0207  0.8162 -1.7134
  233MOL0     H31433  10.369   6.653  10.892  0.6061  1.7419 -0.5079
  233MOL0     H31434  10.326   6.571  11.019  0.8855 -0.3282 -2.3793
  233MOL0     H31435  10.444   6.841  11.095 -2.7410 -1.1368  1.7318
  233MOL0     H31436  10.550   6.732  11.020  0.3176  1.1974 -0.6145
  233MOL0     H31437   9.993   7.143  10.242 -0.5489 -1.2137  4.1359
  233MOL0     H31438   9.965   7.328  10.098  1.3130  0.1071 -0.7242
  233MOL0     H31439  10.409   7.468  10.152 -0.1073  1.5521 -0.4375
  233MOL0     H31440  10.583   7.333  10.032  0.1982  0.4218  1.0111
  233MOL0     H31441  10.977   7.875   9.610  2.7259 -1.5463  5.6805
  233MOL0     H31442  11.108   8.070   9.693 -1.0612 -2.3589  1.2483
  233MOL0     H31443  11.607   8.155   9.906 -2.5109 -0.0515  0.7324
  233MOL0     H31444  11.737   8.348   9.976 -2.3865  0.4391  1.6781
  233MOL0     H31445  11.803   8.740   9.729 -1.1601  0.4434 -1.4341
  233MOL0     H31446  11.650   8.758   9.804 -0.6022  0.9811  3.9178
  233MOL0     H31447  11.749   8.767  10.043  0.7605 -1.1864 -0.6380
  233MOL0     H31448  11.775   8.904   9.937  0.1226  0.3169 -0.2883
  233MOL0     H31449  11.968   8.844  10.076  0.1245  1.3779 -0.5360
  233MOL0     H31450  12.002   8.819   9.894  2.0113  0.1595  1.9344
  233MOL0     H31451  12.001   8.576   9.947 -1.1679 -0.0712 -0.2518
  233MOL0     H31452  11.903   8.609  10.088  0.2733 -2.6656 -0.9044
  233MOL0     H31453  12.297   8.651  10.241  0.5631  1.6337 -1.3851
  233MOL0     H31454  11.575   8.576   9.654  2.1053 -0.9968 -1.0946
  233MOL0     H31455  11.438   8.393   9.596  0.8618 -2.1150 -0.9843
  234MOL0     O31456   4.154   1.933   8.706 -0.3878 -0.1540  0.6818
  234MOL0     C31457   4.154   1.833   8.633 -0.2056 -0.3780 -0.0417
  234MOL0     O31458   4.229   1.720   8.648  0.8743  0.4533 -0.7671
  234MOL0     C31459   4.285   1.700   8.770 -0.0892  0.1695 -0.1505
  234MOL0     C31460   4.209   1.691   8.891 -0.6075  0.2876  0.1819
  234MOL0     C31461   4.277   1.662   9.016  0.4577  0.4788  0.2717
  234MOL0     C31462   4.414   1.633   9.016  0.1260 -0.0515 -0.1729
  234MOL0     O31463   4.459   1.577   9.133 -0.4445  0.2750  0.2193
  234MOL0     C31464   4.586   1.615   9.169 -0.1686  0.9253  0.6061
  234MOL0     C31465   4.675   1.490   9.195  0.5936 -0.0501 -0.0728
  234MOL0     C31466   4.667   1.430   9.333  0.3517 -0.2983 -0.5147
  234MOL0     C31467   4.759   1.507   9.428  0.8407  0.2463 -0.5512
  234MOL0     C31468   4.738   1.452   9.570  0.2126 -0.4186 -0.0149
  234MOL0     C31469   4.811   1.527   9.681  0.1307 -0.2982 -0.2335
  234MOL0     C31470   4.729   1.636   9.741  0.7890 -0.2736  0.0919
  234MOL0     C31471   4.800   1.716   9.844 -0.1683  0.8218 -0.3845
  234MOL0     N31472   4.831   1.651   9.969 -1.2682 -0.9170  0.2860
  234MOL0     C31473   4.750   1.638  10.078  0.7584  0.2435  0.3966
  234MOL0     C31474   4.826   1.570  10.164  1.0138  0.3983 -0.0499
  234MOL0     C31475   4.806   1.549  10.316 -0.6631 -0.4487  0.5319
  234MOL0     C31476   4.695   1.443  10.331  0.7713 -0.1715  0.1533
  234MOL0     C31477   4.752   1.313  10.286  0.3854  0.4281 -0.5869
  234MOL0     C31478   4.680   1.195  10.322  0.4339  0.3657  0.3032
  234MOL0     O31479   4.543   1.203  10.281  0.3501 -0.0596 -0.1800
  234MOL0     C31480   4.448   1.115  10.333 -0.6237  0.7619 -0.1777
  234MOL0     C31481   4.479   0.993  10.392 -0.3185 -0.2469 -0.2682
  234MOL0     C31482   4.384   0.902  10.429  0.9041  0.2426  0.3019
  234MOL0     C31483   4.432   0.765  10.468  0.6131  0.5001  0.0727
  234MOL0     C31484   4.244   0.932  10.394 -0.3956 -0.9137  0.1321
  234MOL0     C31485   4.132   0.839  10.423  0.7565 -0.2691 -0.0800
  234MOL0     O31486   4.050   0.793  10.311 -0.7068 -0.3432 -0.0826
  234MOL0     C31487   3.958   0.693  10.313  0.4015 -0.5178  0.6321
  234MOL0     C31488   3.872   0.692  10.201  0.3028  0.1405 -0.2632
  234MOL0     C31489   3.765   0.602  10.177  0.2761  0.3078 -0.0308
  234MOL0     C31490   3.747   0.514  10.288  0.4401  0.8709 -0.8090
  234MOL0     O31491   3.648   0.419  10.264  0.6891 -0.2708 -0.3107
  234MOL0     C31492   3.648   0.291  10.317  0.1827  1.0879 -0.2683
  234MOL0     C31493   3.505   0.229  10.289  0.8429 -0.2039 -1.5372
  234MOL0     C31494   3.390   0.286  10.378 -0.9560  0.2801  0.0042
  234MOL0     C31495   3.269   0.339  10.300 -0.0123 -0.8437 -0.0906
  234MOL0     C31496   3.146   0.355  10.385  0.8877  0.2092 -0.1053
  234MOL0     C31497   3.019   0.383  10.298 -0.0136 -0.9696 -0.0643
  234MOL0     C31498   2.994   0.277  10.189  0.7274  0.8354  0.0102
  234MOL0     C31499   3.016   0.122  10.217  0.7954 -0.1738 -0.4650
  234MOL0    Cl31500   2.904   0.039  10.335  0.1268 -0.2661 -0.2233
  234MOL0     C31501   3.833   0.508  10.401  0.1652 -0.1218  0.3818
  234MOL0     C31502   3.939   0.602  10.409 -0.3413  0.6038  0.5781
  234MOL0     O31503   4.114   0.808  10.543 -0.0169  0.6113 -0.4276
  234MOL0     C31504   4.217   1.056  10.327 -0.2182 -0.6784 -0.7743
  234MOL0     C31505   4.320   1.147  10.300  0.9765  0.7783  0.5539
  234MOL0     N31506   4.949   1.550  10.112 -0.2300 -0.4319  0.5050
  234MOL0     N31507   4.954   1.587   9.990  0.5427 -0.2633  0.2133
  234MOL0     C31508   4.484   1.630   8.893  0.5362 -0.3009  0.1334
  234MOL0     C31509   4.419   1.674   8.782  0.2054  0.3343 -0.5084
  234MOL0     C31510   4.106   1.851   8.497  0.0564 -0.3402  0.5135
  234MOL0     C31511   4.043   1.971   8.450 -0.3294 -0.2068  0.3542
  234MOL0     C31512   3.996   1.979   8.322  0.3209 -0.4950 -0.2208
  234MOL0     C31513   4.000   1.872   8.238 -0.8289 -0.1022  0.9929
  234MOL0     O31514   3.945   1.888   8.114 -0.1627 -0.2113  0.2403
  234MOL0     C31515   4.035   1.941   8.013 -0.2635 -1.0461  0.0685
  234MOL0     C31516   4.021   1.878   7.878 -0.5974 -1.0636 -0.0224
  234MOL0     C31517   4.089   1.739   7.866  0.0149 -0.7969  0.0802
  234MOL0     C31518   4.242   1.737   7.893  0.2744 -0.1143 -0.2975
  234MOL0     C31519   4.320   1.835   7.810 -0.4497 -0.1074  0.4583
  234MOL0     C31520   4.394   1.893   7.737  0.4960  0.4042  0.6616
  234MOL0     C31521   4.061   1.754   8.284 -0.4045  0.0568 -1.0307
  234MOL0     C31522   4.121   1.747   8.406 -0.2164 -0.5514 -0.5166
  234MOL0     H31523   4.100   1.692   8.892 -0.6094  1.9991  0.7768
  234MOL0     H31524   4.216   1.664   9.106 -0.2728 -0.4348 -0.1827
  234MOL0     H31525   4.645   1.686   9.109  0.2707 -0.2644 -0.4243
  234MOL0     H31526   4.559   1.659   9.265 -0.9003  0.6218  0.5436
  234MOL0     H31527   4.644   1.408   9.129 -2.9827  0.7024  0.4655
  234MOL0     H31528   4.776   1.504   9.157  1.5848 -0.7370  2.1557
  234MOL0     H31529   4.562   1.446   9.361  0.8441  0.9479  0.7267
  234MOL0     H31530   4.693   1.324   9.328 -0.2334 -0.4358 -0.7677
  234MOL0     H31531   4.864   1.488   9.402  1.2084 -0.9878  1.6109
  234MOL0     H31532   4.741   1.615   9.418  1.4846  0.3799 -0.3630
  234MOL0     H31533   4.632   1.467   9.595 -0.0435  3.0526 -2.4196
  234MOL0     H31534   4.759   1.345   9.561  1.2022 -0.3434  1.1624
  234MOL0     H31535   4.834   1.456   9.761  0.8552 -1.2169 -1.2421
  234MOL0     H31536   4.906   1.563   9.641  1.8415 -3.4603  0.6867
  234MOL0     H31537   4.701   1.694   9.653  2.9836 -0.8290 -1.0359
  234MOL0     H31538   4.641   1.593   9.790 -0.1657  0.0816 -1.2715
  234MOL0     H31539   4.745   1.810   9.857 -2.1913 -0.4259  0.6904
  234MOL0     H31540   4.892   1.746   9.792  1.6127 -4.3945 -0.8405
  234MOL0     H31541   4.646   1.669  10.086  0.1041 -2.2225  3.6268
  234MOL0     H31542   4.898   1.532  10.373 -0.5301  2.1349  1.2152
  234MOL0     H31543   4.769   1.645  10.352  2.3274  1.3123 -0.8038
  234MOL0     H31544   4.609   1.468  10.269  0.7425  0.0506  0.2805
  234MOL0     H31545   4.644   1.431  10.428 -0.8830  0.9679 -0.5228
  234MOL0     H31546   4.850   1.310  10.334  0.1761 -0.8469 -0.2087
  234MOL0     H31547   4.773   1.315  10.179 -1.6475 -3.7386 -1.2618
  234MOL0     H31548   4.691   1.166  10.427  0.0563 -3.1965 -0.4866
  234MOL0     H31549   4.720   1.109  10.267  1.1835  0.7385  0.2593
  234MOL0     H31550   4.582   0.970  10.416  0.0251  1.9561  0.5883
  234MOL0     H31551   4.535   0.741  10.442  0.8374  1.5806 -0.0769
  234MOL0     H31552   4.421   0.760  10.577 -0.1973  0.7692  0.0065
  234MOL0     H31553   4.355   0.698  10.430  0.5362  1.0825 -0.8305
  234MOL0     H31554   3.886   0.757  10.116 -2.3520  0.1873 -0.7443
  234MOL0     H31555   3.707   0.614  10.086 -0.0435  0.6799  0.2122
  234MOL0     H31556   3.715   0.242  10.246  1.8664  2.5874  0.1905
  234MOL0     H31557   3.680   0.273  10.421 -0.4171 -2.9308 -0.6337
  234MOL0     H31558   3.471   0.228  10.185 -1.6498 -0.5632 -0.7828
  234MOL0     H31559   3.511   0.122  10.313 -0.7043 -0.2367 -1.2109
  234MOL0     H31560   3.427   0.368  10.440 -3.0537  1.5190 -0.3009
  234MOL0     H31561   3.354   0.205  10.442 -0.5383  1.2161  1.4769
  234MOL0     H31562   3.287   0.438  10.257  1.7235 -1.2800 -0.4535
  234MOL0     H31563   3.251   0.277  10.212 -2.0338 -0.0108 -0.3284
  234MOL0     H31564   3.148   0.431  10.463 -1.1060 -1.1865  1.4189
  234MOL0     H31565   3.132   0.272  10.455 -1.0526  2.0487  1.8151
  234MOL0     H31566   2.932   0.382  10.364 -0.7274 -0.3813 -0.9552
  234MOL0     H31567   3.030   0.484  10.257 -1.8118 -0.6513  0.1259
  234MOL0     H31568   3.055   0.295  10.100 -1.5790  1.0912 -1.6279
  234MOL0     H31569   2.895   0.282  10.141 -1.4056 -3.7822  3.1547
  234MOL0     H31570   3.122   0.101  10.237  0.6529 -0.4479  0.0432
  234MOL0     H31571   3.006   0.074  10.119 -1.5695 -4.3208  1.5125
  234MOL0     H31572   3.828   0.426  10.472  1.6321 -0.7567 -0.2121
  234MOL0     H31573   4.004   0.597  10.496 -0.6886  0.2553  0.8258
  234MOL0     H31574   4.114   1.082  10.302  0.2750  0.3359 -1.8386
  234MOL0     H31575   4.286   1.238  10.251 -1.2930 -1.0438 -1.5211
  234MOL0     H31576   4.590   1.608   8.892  0.3439 -1.3023 -0.4615
  234MOL0     H31577   4.478   1.677   8.691 -0.2598 -1.7982 -0.9349
  234MOL0     H31578   4.032   2.060   8.511 -0.8727  0.6286 -0.9364
  234MOL0     H31579   3.924   2.057   8.295  1.2546 -0.2188 -2.0752
  234MOL0     H31580   4.005   2.045   7.996 -0.3269 -1.4777 -3.3007
  234MOL0     H31581   4.137   1.934   8.050  1.0057  1.4868 -2.4998
  234MOL0     H31582   4.065   1.949   7.808  1.3566 -1.7220  0.4764
  234MOL0     H31583   3.914   1.880   7.857 -0.6451 -1.5832  0.1590
  234MOL0     H31584   4.070   1.700   7.766  1.3075 -2.2692  0.3701
  234MOL0     H31585   4.053   1.676   7.947 -0.5306 -0.4390  0.1234
  234MOL0     H31586   4.280   1.637   7.870 -2.1064 -1.2147  0.3436
  234MOL0     H31587   4.265   1.756   7.999  0.1409 -0.8400 -0.1355
  234MOL0     H31588   4.435   1.934   7.646 -1.9721  0.6661 -0.4011
  234MOL0     H31589   4.070   1.666   8.220 -0.2879 -1.1871  0.6132
  234MOL0     H31590   4.171   1.654   8.430 -0.1067 -0.3774 -0.0439
  235MOL0     O31591   0.260   6.679   8.304 -0.4184 -0.3939  1.1481
  235MOL0     C31592   0.337   6.730   8.221 -0.3220  0.0751 -1.0233
  235MOL0     O31593   0.328   6.729   8.084 -0.5239 -0.3313  0.8934
  235MOL0     C31594   0.220   6.663   8.028  0.4285 -0.0525 -1.1912
  235MOL0     C31595   0.116   6.749   7.981 -0.3086  0.6002 -0.9956
  235MOL0     C31596   0.001   6.697   7.924  0.2061 -0.2020 -0.8740
  235MOL0     C31597  -0.002   6.561   7.898  0.8376 -0.6811 -0.7612
  235MOL0     O31598  -0.120   6.508   7.840 -0.1821 -0.4633  0.7125
  235MOL0     C31599  -0.179   6.382   7.873 -0.2554 -0.6470 -0.0975
  235MOL0     C31600  -0.328   6.376   7.891  0.6693 -0.0904 -0.3365
  235MOL0     C31601  -0.417   6.430   7.777 -0.6153 -0.1450  0.4204
  235MOL0     C31602  -0.565   6.445   7.804  0.5090  0.2023  0.0455
  235MOL0     C31603  -0.654   6.483   7.682 -0.5749  0.4059 -0.3793
  235MOL0     C31604  -0.641   6.377   7.567  0.2845 -0.4142  0.7305
  235MOL0     C31605  -0.704   6.439   7.431 -0.4391  0.1321  0.1993
  235MOL0     C31606  -0.865   6.445   7.422 -0.3487  0.5570  0.2366
  235MOL0     N31607  -0.903   6.317   7.485  0.3550 -0.4224  0.1207
  235MOL0     C31608  -0.966   6.317   7.604  0.8983  1.0808 -0.1702
  235MOL0     C31609  -0.987   6.191   7.627  0.7487 -0.7226  1.0957
  235MOL0     C31610  -1.068   6.153   7.739  0.0826 -0.4115  0.1213
  235MOL0     C31611  -0.976   6.148   7.870  0.0371 -0.2263  0.3802
  235MOL0     C31612  -0.956   6.277   7.941 -1.1976 -0.3444 -0.9879
  235MOL0     C31613  -0.866   6.232   8.061  0.6911 -0.5902 -0.3222
  235MOL0     O31614  -0.779   6.349   8.088 -0.3841  0.1693  0.5728
  235MOL0     C31615  -0.817   6.454   8.171 -1.0033  0.1244 -0.2163
  235MOL0     C31616  -0.721   6.552   8.200  0.4010 -1.1934  0.5906
  235MOL0     C31617  -0.739   6.636   8.316 -0.3955 -0.2049  0.2829
  235MOL0     C31618  -0.634   6.729   8.340 -1.8997 -0.3419  0.3831
  235MOL0     C31619  -0.862   6.649   8.375 -0.3537 -0.3859  0.1302
  235MOL0     C31620  -0.890   6.747   8.477 -0.2871 -0.0125  0.0261
  235MOL0     O31621  -0.821   6.752   8.588  0.3316 -0.0139  0.0293
  235MOL0     C31622  -0.810   6.864   8.662  0.4811 -0.2799 -0.3629
  235MOL0     C31623  -0.801   6.860   8.797  0.5761 -1.7320 -0.1526
  235MOL0     C31624  -0.791   6.974   8.871 -0.3084  0.9829 -0.2035
  235MOL0     C31625  -0.788   7.100   8.807  0.1853  0.2961 -0.2748
  235MOL0     O31626  -0.759   7.209   8.889  0.1895 -0.7261  0.0708
  235MOL0     C31627  -0.787   7.352   8.864  1.0800 -0.3487  0.1570
  235MOL0     C31628  -0.669   7.444   8.908  0.7421  0.1279  0.3198
  235MOL0     C31629  -0.548   7.430   8.834 -0.4459 -1.1319  0.8264
  235MOL0     C31630  -0.455   7.556   8.864 -0.7964  0.5922 -0.1319
  235MOL0     C31631  -0.329   7.573   8.786 -0.3178 -0.6594 -0.5549
  235MOL0     C31632  -0.236   7.455   8.813 -0.7961  0.1929 -0.4716
  235MOL0     C31633  -0.127   7.445   8.704 -0.0119  0.2479  0.2596
  235MOL0     C31634  -0.002   7.367   8.760 -0.4478 -0.8698  0.0217
  235MOL0    Cl31635  -0.040   7.196   8.795 -0.0029 -0.1079  0.2981
  235MOL0     C31636  -0.785   7.102   8.663  0.6667  0.0200  0.8187
  235MOL0     C31637  -0.802   6.979   8.592 -0.4537 -0.1376 -0.3114
  235MOL0     O31638  -0.993   6.808   8.458  0.2436  0.4999  0.5295
  235MOL0     C31639  -0.972   6.572   8.324  0.3316  0.4579  0.5947
  235MOL0     C31640  -0.943   6.466   8.233  0.1646 -0.3622  0.4842
  235MOL0     N31641  -0.920   6.115   7.530  0.4522  0.0866 -0.6781
  235MOL0     N31642  -0.878   6.198   7.439 -0.3430  0.5689 -0.3561
  235MOL0     C31643   0.102   6.469   7.939  0.7467 -0.1769 -0.0905
  235MOL0     C31644   0.213   6.521   8.009  0.2733  0.8709  0.7934
  235MOL0     C31645   0.446   6.803   8.283  0.6608 -1.0418 -0.6381
  235MOL0     C31646   0.495   6.770   8.409 -1.1247  0.3489 -0.6971
  235MOL0     C31647   0.600   6.848   8.465  0.0818  0.4351 -0.4732
  235MOL0     C31648   0.663   6.951   8.403  0.1796 -0.3042  1.3712
  235MOL0     O31649   0.753   7.031   8.473 -0.4073 -0.1528 -0.6018
  235MOL0     C31650   0.817   7.136   8.401 -0.1098 -1.3118  0.1716
  235MOL0     C31651   0.944   7.187   8.462 -0.4574 -0.1431  0.3680
  235MOL0     C31652   0.923   7.254   8.596 -0.3114  0.4895  0.3410
  235MOL0     C31653   1.047   7.306   8.669 -0.5711 -0.4149 -0.6225
  235MOL0     C31654   0.992   7.367   8.793 -0.8223  0.6439 -0.1415
  235MOL0     C31655   0.948   7.405   8.896 -0.0945 -0.7133 -0.3249
  235MOL0     C31656   0.612   6.975   8.272 -0.1597  1.0432 -0.0047
  235MOL0     C31657   0.514   6.901   8.212 -0.1557 -0.1761 -0.2983
  235MOL0     H31658   0.135   6.855   7.993 -0.4475  0.3625  2.3952
  235MOL0     H31659  -0.071   6.773   7.893  3.6827  3.5139 -0.6340
  235MOL0     H31660  -0.154   6.321   7.785 -2.2377 -0.2081 -1.0309
  235MOL0     H31661  -0.129   6.343   7.963  0.5805  2.5793  0.9704
  235MOL0     H31662  -0.368   6.277   7.914 -0.4905  0.0992 -1.4281
  235MOL0     H31663  -0.356   6.434   7.980 -3.6388 -1.4798 -0.6066
  235MOL0     H31664  -0.373   6.529   7.761 -3.6515  1.0202 -1.5519
  235MOL0     H31665  -0.404   6.365   7.689 -3.8297 -0.0853 -0.2232
  235MOL0     H31666  -0.595   6.343   7.828 -2.6172  0.3683 -2.4455
  235MOL0     H31667  -0.593   6.513   7.885  0.8011 -1.5516  1.7099
  235MOL0     H31668  -0.761   6.497   7.703  0.1714  4.6349  1.5101
  235MOL0     H31669  -0.628   6.582   7.644  0.0268  0.1939 -0.5345
  235MOL0     H31670  -0.538   6.350   7.540  0.0212  1.7542 -3.3990
  235MOL0     H31671  -0.687   6.285   7.603 -0.8312  1.7082  5.5153
  235MOL0     H31672  -0.665   6.540   7.416  0.2544 -0.4363 -2.3835
  235MOL0     H31673  -0.665   6.378   7.349  2.9349  2.6171 -0.2514
  235MOL0     H31674  -0.903   6.443   7.319 -0.4607  1.4001  0.2557
  235MOL0     H31675  -0.921   6.522   7.476 -1.7815 -0.2031 -0.1315
  235MOL0     H31676  -1.004   6.394   7.671  3.7237 -0.7825  4.0419
  235MOL0     H31677  -1.155   6.216   7.759 -1.8785 -2.9555  0.0676
  235MOL0     H31678  -1.103   6.052   7.717  1.4925 -1.1899  1.2571
  235MOL0     H31679  -0.877   6.115   7.836  0.0129  0.5671 -0.5182
  235MOL0     H31680  -1.033   6.085   7.939  0.2723  0.3968  1.1567
  235MOL0     H31681  -1.046   6.321   7.983 -1.1705 -1.9524  0.8893
  235MOL0     H31682  -0.902   6.345   7.874  2.6957 -2.5540 -0.3867
  235MOL0     H31683  -0.793   6.154   8.037  2.8985  1.5797 -1.0904
  235MOL0     H31684  -0.923   6.196   8.147 -0.2286  1.5710  0.0332
  235MOL0     H31685  -0.623   6.533   8.158  0.7887 -1.0285  1.3999
  235MOL0     H31686  -0.558   6.736   8.262 -0.8097  0.5638  1.4872
  235MOL0     H31687  -0.668   6.833   8.336  0.2842  0.3993 -0.1638
  235MOL0     H31688  -0.581   6.706   8.432  0.7090 -3.1963 -1.6398
  235MOL0     H31689  -0.807   6.761   8.840 -0.0786 -1.6535 -0.0454
  235MOL0     H31690  -0.793   6.960   8.979 -1.7992  1.0724 -0.1943
  235MOL0     H31691  -0.794   7.361   8.755 -0.7507 -3.2862 -0.0839
  235MOL0     H31692  -0.880   7.387   8.908 -0.9181  0.0177 -3.8557
  235MOL0     H31693  -0.708   7.545   8.895 -0.1050 -0.5440 -3.7501
  235MOL0     H31694  -0.641   7.428   9.012 -1.3828  2.7015  1.3844
  235MOL0     H31695  -0.555   7.418   8.725  0.7760 -1.7367  0.7999
  235MOL0     H31696  -0.507   7.340   8.881 -0.7873  0.8409  5.3175
  235MOL0     H31697  -0.512   7.649   8.851 -2.3493 -0.1516  1.0055
  235MOL0     H31698  -0.435   7.551   8.972 -0.1460  0.1930 -0.2627
  235MOL0     H31699  -0.269   7.656   8.824  1.5073 -2.1788 -0.0160
  235MOL0     H31700  -0.348   7.597   8.681 -0.2534 -0.2440 -0.4722
  235MOL0     H31701  -0.192   7.457   8.913  4.3059 -0.8306 -2.3755
  235MOL0     H31702  -0.291   7.360   8.808 -0.9446 -0.2064  4.2348
  235MOL0     H31703  -0.098   7.548   8.679  0.9855 -0.2288 -0.6368
  235MOL0     H31704  -0.164   7.395   8.614  0.7744 -0.2633  0.2082
  235MOL0     H31705   0.038   7.422   8.846  0.6020 -2.2826  0.4828
  235MOL0     H31706   0.062   7.366   8.672 -1.7898  1.6503 -1.0966
  235MOL0     H31707  -0.764   7.197   8.615 -5.3716  0.1637 -2.5839
  235MOL0     H31708  -0.789   6.988   8.484  0.8379  0.0367 -0.1535
  235MOL0     H31709  -1.069   6.593   8.367  0.7528  0.7718  1.4070
  235MOL0     H31710  -1.025   6.407   8.195  1.2220 -0.1858 -2.3897
  235MOL0     H31711   0.088   6.362   7.928  1.6224 -0.0088 -5.6390
  235MOL0     H31712   0.290   6.451   8.042  1.2173  1.2702 -0.4831
  235MOL0     H31713   0.445   6.691   8.463 -0.3179  0.2566 -0.0754
  235MOL0     H31714   0.634   6.826   8.566  1.0499  0.7726 -0.7101
  235MOL0     H31715   0.838   7.110   8.296  0.5053 -1.6673  0.3790
  235MOL0     H31716   0.746   7.219   8.407  1.0028 -0.2499 -0.7800
  235MOL0     H31717   0.989   7.261   8.396  1.6873 -0.2827  1.5551
  235MOL0     H31718   1.004   7.095   8.462 -1.8228 -1.1284 -1.7846
  235MOL0     H31719   0.886   7.173   8.660  0.0273  1.7705  2.2540
  235MOL0     H31720   0.845   7.331   8.586 -0.1005  0.6501 -0.1006
  235MOL0     H31721   1.105   7.391   8.632  1.4584  0.3991  3.7438
  235MOL0     H31722   1.111   7.220   8.691 -0.6608  0.5925  5.2543
  235MOL0     H31723   0.899   7.446   8.983  0.7976  2.5501 -1.2591
  235MOL0     H31724   0.653   7.052   8.208  1.0549  2.3150  2.1892
  235MOL0     H31725   0.483   6.925   8.111  0.4978 -1.3031 -0.7817
  236MOL0     O31726  10.369   2.124   9.449 -0.1420  0.2094 -0.0296
  236MOL0     C31727  10.343   2.243   9.445 -0.7119 -1.1836  0.6263
  236MOL0     O31728  10.399   2.330   9.363 -0.4387  0.3113 -0.8180
  236MOL0     C31729  10.521   2.295   9.310  0.6915  0.4499 -0.5678
  236MOL0     C31730  10.542   2.314   9.178 -0.4012 -0.3691  0.4444
  236MOL0     C31731  10.666   2.275   9.122  0.4777 -0.1715 -0.2707
  236MOL0     C31732  10.771   2.223   9.196  0.2703 -0.0235 -0.1044
  236MOL0     O31733  10.887   2.189   9.127 -0.1909 -0.4726  0.2272
  236MOL0     C31734  10.995   2.139   9.199 -0.8190 -0.0447 -0.2990
  236MOL0     C31735  11.100   2.117   9.087  0.3385 -0.3898 -0.5647
  236MOL0     C31736  11.073   2.006   8.988 -0.0924 -0.4912  0.1578
  236MOL0     C31737  11.152   2.038   8.859  0.2510 -0.1293  0.5389
  236MOL0     C31738  11.117   1.942   8.741 -0.2801 -0.2155  0.2235
  236MOL0     C31739  10.999   1.953   8.640  0.2486 -0.2453  0.5816
  236MOL0     C31740  10.855   1.970   8.694 -0.2158 -0.2226  0.7124
  236MOL0     C31741  10.753   2.004   8.585 -0.2495  1.0071  0.3934
  236MOL0     N31742  10.618   2.017   8.632  0.4603  0.6339 -0.2441
  236MOL0     C31743  10.570   2.098   8.730  0.5775  1.0996 -0.1826
  236MOL0     C31744  10.439   2.099   8.726  1.3636  0.1572  0.2447
  236MOL0     C31745  10.352   2.176   8.819  0.3395  0.0549  0.1496
  236MOL0     C31746  10.323   2.124   8.965  0.0945  0.2049  0.2772
  236MOL0     C31747  10.208   2.021   8.973 -0.2162 -0.5160  0.0951
  236MOL0     C31748  10.169   2.006   9.115 -0.4279 -0.9200  0.3766
  236MOL0     O31749  10.089   1.894   9.098  0.4398 -0.4880  1.4247
  236MOL0     C31750  10.012   1.854   9.197 -0.8958 -0.9243  0.3744
  236MOL0     C31751   9.947   1.738   9.181 -0.2082 -1.2499  0.2450
  236MOL0     C31752   9.868   1.678   9.285  0.2163  0.2282 -0.9561
  236MOL0     C31753   9.809   1.540   9.253 -0.4006 -0.3176  0.4516
  236MOL0     C31754   9.854   1.748   9.406  0.6322  0.1631  0.1481
  236MOL0     C31755   9.783   1.697   9.528  0.5332  0.2943 -0.5627
  236MOL0     O31756   9.787   1.771   9.646  1.1494 -0.2595  0.8514
  236MOL0     C31757   9.711   1.718   9.751 -0.7991  0.2911  0.6843
  236MOL0     C31758   9.755   1.615   9.834  0.6870 -1.1721 -0.8431
  236MOL0     C31759   9.674   1.574   9.941 -0.6624 -0.5098  0.1414
  236MOL0     C31760   9.553   1.616   9.963 -0.3518 -1.0017  0.4337
  236MOL0     O31761   9.487   1.546  10.067 -0.7211  0.5256  0.2148
  236MOL0     C31762   9.356   1.494  10.016 -0.7012 -0.6883  0.1670
  236MOL0     C31763   9.343   1.367  10.106  1.2923  0.0674  0.0884
  236MOL0     C31764   9.234   1.276  10.050 -0.5022  0.2492 -0.1909
  236MOL0     C31765   9.294   1.151   9.989 -0.1234  0.1695  0.6434
  236MOL0     C31766   9.186   1.053   9.921 -0.5881 -0.2397 -0.8392
  236MOL0     C31767   9.264   0.920   9.913  0.1609 -0.4268  0.1580
  236MOL0     C31768   9.158   0.807   9.883  0.0502 -0.4581 -1.1322
  236MOL0     C31769   9.218   0.716   9.773 -0.1471 -0.6325  0.1239
  236MOL0    Cl31770   9.345   0.612   9.836 -0.3541 -0.1698  0.0165
  236MOL0     C31771   9.506   1.721   9.879 -0.3775  0.2626 -0.3872
  236MOL0     C31772   9.583   1.767   9.776  0.8573  0.1107  0.4304
  236MOL0     O31773   9.743   1.581   9.524  0.3887  0.3325  0.3992
  236MOL0     C31774   9.939   1.860   9.421 -0.6943  0.5834  0.0671
  236MOL0     C31775  10.012   1.913   9.319 -0.8175 -0.8806  0.9902
  236MOL0     N31776  10.401   2.045   8.601 -0.3726 -0.3229 -0.3712
  236MOL0     N31777  10.510   1.980   8.555  0.7071 -0.5264 -0.4823
  236MOL0     C31778  10.747   2.200   9.332 -0.0275  0.6693  0.2123
  236MOL0     C31779  10.631   2.253   9.393  1.6168 -0.2410 -0.1384
  236MOL0     C31780  10.234   2.284   9.537 -0.4684 -0.8755  1.0951
  236MOL0     C31781  10.180   2.408   9.542  1.3998 -1.1025  0.0976
  236MOL0     C31782  10.089   2.442   9.632  1.0819 -0.3149 -0.1047
  236MOL0     C31783  10.026   2.350   9.713  0.2229  1.6106 -0.5059
  236MOL0     O31784   9.936   2.369   9.806 -0.5578 -0.4634  0.3142
  236MOL0     C31785   9.863   2.489   9.793  0.0199  0.9301  0.7991
  236MOL0     C31786   9.906   2.614   9.868 -0.5610  0.5162 -0.3587
  236MOL0     C31787   9.977   2.566   9.996 -0.0998 -0.3420  0.4959
  236MOL0     C31788  10.040   2.692  10.069  0.3033  0.4879 -0.2726
  236MOL0     C31789   9.964   2.826  10.048  0.1988 -0.4139  0.5622
  236MOL0     C31790   9.900   2.927  10.012 -0.0976 -1.4775  0.2084
  236MOL0     C31791  10.074   2.218   9.711 -0.3254 -1.1209 -0.4929
  236MOL0     C31792  10.179   2.190   9.620  0.0320 -1.3230  0.7754
  236MOL0     H31793  10.457   2.355   9.124  0.6715 -0.9801 -1.8098
  236MOL0     H31794  10.674   2.252   9.016 -0.7469 -2.6387  0.1238
  236MOL0     H31795  11.032   2.215   9.269 -2.9336 -0.5476  1.4929
  236MOL0     H31796  10.987   2.045   9.254  0.9947 -0.6363 -0.9950
  236MOL0     H31797  11.124   2.212   9.038  0.5317  0.4917  1.1599
  236MOL0     H31798  11.195   2.091   9.135  0.3667  1.8717  0.7255
  236MOL0     H31799  11.103   1.907   9.023  0.7793 -0.4808 -0.5338
  236MOL0     H31800  10.966   2.001   8.968 -0.5885 -0.8077  2.5952
  236MOL0     H31801  11.136   2.138   8.817  2.0596 -0.2464 -0.5191
  236MOL0     H31802  11.257   2.024   8.887 -0.0688 -1.3083  1.2384
  236MOL0     H31803  11.209   1.929   8.682  0.2195 -1.4985  1.2488
  236MOL0     H31804  11.107   1.846   8.792 -1.0231 -0.9255 -1.1884
  236MOL0     H31805  11.016   2.041   8.577  0.2362  1.2774  2.5957
  236MOL0     H31806  11.009   1.870   8.570  0.6771 -0.2587  0.6577
  236MOL0     H31807  10.818   1.882   8.747 -0.0855  0.7872  2.5672
  236MOL0     H31808  10.846   2.051   8.767 -0.2032 -2.5166  3.4213
  236MOL0     H31809  10.747   1.920   8.515  3.5685  1.2690 -0.4705
  236MOL0     H31810  10.785   2.098   8.537  3.1466  0.4290  1.2998
  236MOL0     H31811  10.632   2.154   8.799 -2.3838  2.5660  1.4931
  236MOL0     H31812  10.384   2.281   8.819 -1.7932  0.7628 -0.3557
  236MOL0     H31813  10.255   2.182   8.769  0.5409 -1.6690 -0.4867
  236MOL0     H31814  10.289   2.211   9.021 -0.4560  0.8862 -1.0593
  236MOL0     H31815  10.417   2.085   9.004  0.0436  2.0731  2.4861
  236MOL0     H31816  10.245   1.926   8.932 -1.8489 -0.7491 -0.9096
  236MOL0     H31817  10.123   2.045   8.909 -0.9155  0.5814  1.3774
  236MOL0     H31818  10.125   2.097   9.155  1.3191 -0.1022  0.5331
  236MOL0     H31819  10.248   1.970   9.182  0.8724 -0.4209 -0.8373
  236MOL0     H31820   9.968   1.691   9.085  4.3028  1.4607 -0.3722
  236MOL0     H31821   9.804   1.535   9.144 -0.5286  2.5085  0.2313
  236MOL0     H31822   9.872   1.463   9.298  2.2959  0.1795 -2.1668
  236MOL0     H31823   9.704   1.535   9.282 -1.2795  0.8873 -2.1854
  236MOL0     H31824   9.857   1.582   9.816  0.2757 -1.9543 -1.8472
  236MOL0     H31825   9.707   1.499  10.013  1.1412 -0.0250 -0.1254
  236MOL0     H31826   9.287   1.576  10.037  3.0019  2.4382  1.3694
  236MOL0     H31827   9.366   1.483   9.908  1.4790  3.2899 -0.2544
  236MOL0     H31828   9.439   1.321  10.128  1.7227  0.9228  0.0383
  236MOL0     H31829   9.314   1.408  10.204  1.9017  1.2823 -0.2113
  236MOL0     H31830   9.167   1.328   9.981  0.4569 -1.3956 -2.4896
  236MOL0     H31831   9.164   1.252  10.131 -0.3615  0.0123 -0.1381
  236MOL0     H31832   9.376   1.171   9.919  1.9946  0.2212  3.0335
  236MOL0     H31833   9.345   1.099  10.070 -0.1597 -1.8646 -0.5918
  236MOL0     H31834   9.159   1.096   9.824 -0.6694 -1.0004 -1.1624
  236MOL0     H31835   9.095   1.038   9.981 -0.3029 -0.6121 -0.4930
  236MOL0     H31836   9.344   0.917   9.839  1.5461 -1.8077  1.6391
  236MOL0     H31837   9.302   0.879  10.007 -1.0809 -0.6648  0.5897
  236MOL0     H31838   9.060   0.851   9.863  0.0983 -0.1513 -0.6993
  236MOL0     H31839   9.145   0.747   9.974  0.9487 -0.2076 -0.8305
  236MOL0     H31840   9.255   0.785   9.697 -2.1445 -0.3337 -0.6351
  236MOL0     H31841   9.137   0.656   9.729  0.3540 -0.7286 -0.6854
  236MOL0     H31842   9.401   1.748   9.876 -0.2647  1.1996  1.8593
  236MOL0     H31843   9.536   1.833   9.704  0.6694 -0.9547 -0.4331
  236MOL0     H31844   9.951   1.910   9.516 -2.2373  0.9787  0.0865
  236MOL0     H31845  10.091   1.984   9.341 -2.0610  0.6959  0.6387
  236MOL0     H31846  10.827   2.154   9.389  2.2059  0.2312 -3.0266
  236MOL0     H31847  10.609   2.271   9.497  0.9089 -2.8517  0.2178
  236MOL0     H31848  10.205   2.488   9.474  0.2122 -1.7877 -1.2139
  236MOL0     H31849  10.043   2.541   9.632  1.5905 -0.0688 -1.0708
  236MOL0     H31850   9.832   2.506   9.689 -1.5030  0.7320  1.1903
  236MOL0     H31851   9.770   2.461   9.843 -0.6693 -0.2817 -1.0591
  236MOL0     H31852   9.809   2.660   9.890 -0.0900  3.0817 -3.0091
  236MOL0     H31853   9.974   2.678   9.812  1.6848 -2.4539 -1.2468
  236MOL0     H31854  10.065   2.504   9.979 -1.1221 -1.2510 -1.8403
  236MOL0     H31855   9.909   2.511  10.061 -0.0388 -0.8305  0.1543
  236MOL0     H31856  10.141   2.710  10.032  1.5739 -4.3662  0.1110
  236MOL0     H31857  10.041   2.666  10.175  0.2947 -1.2553 -0.6690
  236MOL0     H31858   9.847   3.017   9.987  0.2630 -0.5078  2.6468
  236MOL0     H31859  10.016   2.156   9.778  0.8594 -1.0380  0.6478
  236MOL0     H31860  10.212   2.087   9.623  2.4396 -0.6041  1.4252
  237MOL0     O31861   4.325  10.060   5.824 -0.4402 -1.2327  0.6106
  237MOL0     C31862   4.380  10.086   5.719 -1.2731  0.1056  0.1575
  237MOL0     O31863   4.454   9.994   5.649  0.3799 -0.0020  0.7488
  237MOL0     C31864   4.448   9.865   5.676 -0.6994  0.4170 -0.7295
  237MOL0     C31865   4.324   9.805   5.698  0.1552 -0.4932  0.1553
  237MOL0     C31866   4.306   9.666   5.701  0.9176 -0.4911  0.3150
  237MOL0     C31867   4.422   9.582   5.698  0.1103 -0.4033  1.1619
  237MOL0     O31868   4.395   9.446   5.698  0.6956 -0.2806  0.2885
  237MOL0     C31869   4.505   9.364   5.675 -0.0863 -0.0470 -0.5086
  237MOL0     C31870   4.446   9.220   5.686 -0.1263  1.0726  0.0556
  237MOL0     C31871   4.559   9.112   5.696  0.4234 -0.6826  0.7331
  237MOL0     C31872   4.652   9.129   5.581  0.3459  0.4681 -1.1763
  237MOL0     C31873   4.749   9.014   5.579  0.1422 -0.8855 -0.1155
  237MOL0     C31874   4.690   8.905   5.498  0.1176 -0.6633  0.2687
  237MOL0     C31875   4.789   8.803   5.457 -0.6562  1.1596  0.0003
  237MOL0     C31876   4.714   8.668   5.414 -0.0621 -0.8505 -0.3375
  237MOL0     N31877   4.648   8.698   5.286  0.8760  0.0988  0.2093
  237MOL0     C31878   4.514   8.741   5.275 -0.2097 -0.0304  0.2351
  237MOL0     C31879   4.487   8.735   5.144  0.6316 -0.4425  0.2040
  237MOL0     C31880   4.352   8.772   5.084 -0.7354  0.5685 -0.4521
  237MOL0     C31881   4.245   8.669   5.119 -0.2097  0.2116  0.4354
  237MOL0     C31882   4.106   8.700   5.065 -0.4807  0.6913 -0.0815
  237MOL0     C31883   4.018   8.605   5.131  0.2556  0.9056  0.4036
  237MOL0     O31884   3.977   8.642   5.265  1.0368  0.1329 -0.2722
  237MOL0     C31885   3.846   8.640   5.310  0.8548 -0.8294 -0.4300
  237MOL0     C31886   3.724   8.649   5.232  0.0498  0.0618  1.0955
  237MOL0     C31887   3.599   8.632   5.289 -0.0253 -0.8311 -0.1676
  237MOL0     C31888   3.475   8.637   5.199 -0.0214  0.1972 -0.6228
  237MOL0     C31889   3.592   8.607   5.427  0.4728  0.0374 -0.6755
  237MOL0     C31890   3.468   8.574   5.502 -0.4072  0.0688  0.0150
  237MOL0     O31891   3.441   8.641   5.616  0.4746  0.1844  0.2189
  237MOL0     C31892   3.326   8.605   5.684 -0.1023 -0.6615 -0.2814
  237MOL0     C31893   3.338   8.514   5.784  0.1145 -1.2733  0.3827
  237MOL0     C31894   3.225   8.494   5.863  0.0021  0.7625  0.2938
  237MOL0     C31895   3.099   8.547   5.825  0.9054  0.4997  0.9177
  237MOL0     O31896   2.988   8.513   5.895 -0.3427 -0.2651  0.5822
  237MOL0     C31897   2.995   8.488   6.034  1.3432 -0.5818 -0.7408
  237MOL0     C31898   2.858   8.536   6.092  0.4594  0.3550 -0.1345
  237MOL0     C31899   2.866   8.512   6.247 -0.4218 -0.3269 -0.1236
  237MOL0     C31900   2.744   8.578   6.309 -0.1094  0.0206 -0.2341
  237MOL0     C31901   2.736   8.562   6.468 -1.6874  0.1220  0.0093
  237MOL0     C31902   2.625   8.662   6.507 -0.1619 -0.1962 -0.2715
  237MOL0     C31903   2.606   8.671   6.657 -0.9528  0.4918 -0.6143
  237MOL0     C31904   2.452   8.651   6.683  0.1987  0.1599 -0.0597
  237MOL0    Cl31905   2.417   8.676   6.860  0.8715  0.3042 -0.0975
  237MOL0     C31906   3.092   8.636   5.717 -0.3887  0.0778  0.3903
  237MOL0     C31907   3.203   8.669   5.647 -0.5059  0.5654 -0.5271
  237MOL0     O31908   3.402   8.488   5.447 -0.5750  0.0468  0.1772
  237MOL0     C31909   3.706   8.587   5.503  0.2211  0.5084  0.5230
  237MOL0     C31910   3.832   8.609   5.445 -0.0805  0.7600  0.1975
  237MOL0     N31911   4.594   8.697   5.075 -0.0984 -0.2729 -0.4218
  237MOL0     N31912   4.685   8.665   5.156  0.0431  0.5347 -0.2295
  237MOL0     C31913   4.554   9.649   5.700 -0.5456 -0.2430  0.3409
  237MOL0     C31914   4.559   9.784   5.676  0.0844  0.0210 -0.6681
  237MOL0     C31915   4.394  10.227   5.679  0.4928  1.1393 -0.3386
  237MOL0     C31916   4.296  10.322   5.731  0.0407 -0.5002  0.5760
  237MOL0     C31917   4.314  10.457   5.702  0.3405 -1.0214  0.5419
  237MOL0     C31918   4.420  10.498   5.629 -0.3372 -0.1460  0.7353
  237MOL0     O31919   4.447  10.633   5.602 -0.3502 -0.3286 -0.9002
  237MOL0     C31920   4.344  10.734   5.631  0.2771  0.4918  0.6307
  237MOL0     C31921   4.371  10.859   5.574  0.2726  0.1482  0.2872
  237MOL0     C31922   4.493  10.926   5.637 -0.1065 -0.4005  1.2147
  237MOL0     C31923   4.553  11.049   5.555 -0.4100 -0.7523 -0.3229
  237MOL0     C31924   4.448  11.153   5.540  0.9038  0.5814 -0.0594
  237MOL0     C31925   4.364  11.242   5.537 -0.1704  0.2523  0.2254
  237MOL0     C31926   4.508  10.406   5.568  0.2496  0.3059  0.7996
  237MOL0     C31927   4.487  10.270   5.591 -0.1744 -0.8393  0.0476
  237MOL0     H31928   4.233   9.865   5.696 -2.1538 -3.6600  1.4033
  237MOL0     H31929   4.206   9.625   5.707 -1.5483  3.9640 -3.5438
  237MOL0     H31930   4.549   9.389   5.578  1.5004  0.2610  0.2599
  237MOL0     H31931   4.577   9.378   5.756 -1.2248  0.9800  0.3511
  237MOL0     H31932   4.392   9.198   5.778  2.4739 -2.2391  0.9817
  237MOL0     H31933   4.381   9.181   5.607  2.4626 -4.9930  0.3813
  237MOL0     H31934   4.606   9.120   5.794 -1.9458 -0.4628  1.9168
  237MOL0     H31935   4.511   9.014   5.696 -2.8296  0.7694 -0.4244
  237MOL0     H31936   4.602   9.141   5.484 -0.6968 -0.9329 -0.8405
  237MOL0     H31937   4.705   9.225   5.583  2.7134 -0.7599 -1.1929
  237MOL0     H31938   4.831   9.068   5.532 -2.0129 -0.2352 -3.4462
  237MOL0     H31939   4.780   8.982   5.679 -3.5359 -2.0272  0.8497
  237MOL0     H31940   4.617   8.855   5.562  0.2906  0.3990  1.3246
  237MOL0     H31941   4.634   8.944   5.412  0.1256  0.7002  0.8563
  237MOL0     H31942   4.841   8.827   5.364 -0.1204  2.0843  0.5271
  237MOL0     H31943   4.868   8.797   5.532 -1.5503  2.2364  1.0617
  237MOL0     H31944   4.633   8.646   5.484 -2.0787 -0.1543 -2.3086
  237MOL0     H31945   4.795   8.597   5.395  2.1711  1.7755 -1.3959
  237MOL0     H31946   4.451   8.770   5.359  0.2160  1.0498  0.2026
  237MOL0     H31947   4.323   8.870   5.123 -2.7095  0.1383 -0.7645
  237MOL0     H31948   4.362   8.768   4.975  0.8239 -0.0711 -0.3202
  237MOL0     H31949   4.239   8.655   5.228  2.9891  1.8223  0.9334
  237MOL0     H31950   4.277   8.568   5.093  0.5412  0.7721 -0.9204
  237MOL0     H31951   4.103   8.680   4.958  0.2139 -2.2635  0.3703
  237MOL0     H31952   4.082   8.805   5.084 -1.4209  0.3511  0.7227
  237MOL0     H31953   4.067   8.507   5.137 -3.0672 -1.0718 -1.3482
  237MOL0     H31954   3.933   8.595   5.063 -1.0171  1.5120  1.8425
  237MOL0     H31955   3.734   8.648   5.124 -0.2676 -0.9048  1.0691
  237MOL0     H31956   3.420   8.726   5.230 -1.8991 -0.6687 -1.2407
  237MOL0     H31957   3.504   8.636   5.093 -0.4447  1.9511 -0.7856
  237MOL0     H31958   3.413   8.548   5.213 -0.3698  0.4649 -0.4548
  237MOL0     H31959   3.433   8.481   5.825  1.4129  0.3490 -1.1644
  237MOL0     H31960   3.237   8.442   5.957 -0.3204 -0.2219 -0.1963
  237MOL0     H31961   3.012   8.382   6.054 -0.1353 -0.6728  0.1395
  237MOL0     H31962   3.067   8.550   6.089  0.3558  0.9556 -1.0904
  237MOL0     H31963   2.845   8.641   6.065  2.9229  1.2858  1.8294
  237MOL0     H31964   2.772   8.477   6.060 -0.6464 -0.0563  3.1589
  237MOL0     H31965   2.952   8.571   6.280 -0.4923  0.7604 -1.7267
  237MOL0     H31966   2.865   8.404   6.263 -0.1015 -0.5436 -1.4463
  237MOL0     H31967   2.738   8.685   6.289 -1.5818  0.6495  2.8438
  237MOL0     H31968   2.655   8.531   6.266 -1.6401 -0.5543  3.1854
  237MOL0     H31969   2.832   8.596   6.507 -1.6415  3.5818 -2.6494
  237MOL0     H31970   2.707   8.461   6.499  0.5863 -0.1181  1.6240
  237MOL0     H31971   2.652   8.766   6.490 -4.1439  0.9312 -0.7418
  237MOL0     H31972   2.537   8.625   6.454 -1.0570  1.2934  0.1131
  237MOL0     H31973   2.631   8.767   6.703 -1.2160 -0.2636  1.2101
  237MOL0     H31974   2.665   8.592   6.704  2.3994  1.5634 -2.7376
  237MOL0     H31975   2.415   8.553   6.651  1.7470 -0.5456  0.2024
  237MOL0     H31976   2.395   8.730   6.633  2.3137  0.0275 -2.9338
  237MOL0     H31977   3.004   8.691   5.685 -0.3142 -0.0117  0.0302
  237MOL0     H31978   3.210   8.743   5.568 -1.3140  1.2268  0.0062
  237MOL0     H31979   3.702   8.566   5.609 -0.5441 -1.0575  0.2273
  237MOL0     H31980   3.927   8.601   5.498 -1.0042  0.2062  1.8604
  237MOL0     H31981   4.644   9.588   5.699  0.6796  1.4891 -1.1282
  237MOL0     H31982   4.656   9.830   5.660  0.4158 -0.6076 -0.4900
  237MOL0     H31983   4.216  10.285   5.794 -0.9346 -0.2988 -0.5064
  237MOL0     H31984   4.244  10.528   5.745  1.3983  0.7490 -0.5057
  237MOL0     H31985   4.255  10.692   5.584  2.0149 -1.2039 -1.3439
  237MOL0     H31986   4.336  10.741   5.740 -0.4544 -1.1708  0.7120
  237MOL0     H31987   4.283  10.920   5.592  0.0404 -0.6237  2.0404
  237MOL0     H31988   4.388  10.860   5.466 -1.0305 -1.6590  0.0243
  237MOL0     H31989   4.574  10.853   5.643 -1.8229 -2.5251 -0.0716
  237MOL0     H31990   4.456  10.970   5.730 -0.0484  4.0118 -0.6037
  237MOL0     H31991   4.585  11.011   5.457 -0.6392  1.5791 -1.3845
  237MOL0     H31992   4.640  11.080   5.614 -0.7458 -0.3537 -0.0350
  237MOL0     H31993   4.295  11.324   5.551  0.2401  0.6388 -0.0039
  237MOL0     H31994   4.570  10.439   5.486 -0.9678  0.0931 -0.2309
  237MOL0     H31995   4.551  10.201   5.537  1.3269  1.5246 -1.4220
  238MOL0     O31996  10.240   6.481  11.510  1.2358  0.0828 -0.1707
  238MOL0     C31997  10.223   6.605  11.507 -0.0291  0.1559  0.2939
  238MOL0     O31998  10.305   6.696  11.574 -0.3179 -0.1369  0.6717
  238MOL0     C31999  10.417   6.645  11.642  0.2302 -0.3638 -0.0981
  238MOL0     C32000  10.547   6.675  11.601 -0.0827  0.0099 -0.4105
  238MOL0     C32001  10.661   6.617  11.672 -0.4003  0.2933  0.4617
  238MOL0     C32002  10.642   6.536  11.784 -0.3525 -1.0158  0.4647
  238MOL0     O32003  10.751   6.488  11.849 -0.1893 -0.1393  0.4232
  238MOL0     C32004  10.779   6.354  11.817  0.2198  0.2282  0.3481
  238MOL0     C32005  10.858   6.296  11.945  0.1271  0.0758  0.5895
  238MOL0     C32006  10.798   6.314  12.074  0.1319  1.2379  0.4183
  238MOL0     C32007  10.691   6.207  12.102 -0.0552 -1.3284 -0.2891
  238MOL0     C32008  10.640   6.216  12.245 -0.8033 -0.0796  0.0760
  238MOL0     C32009  10.588   6.073  12.285 -0.2045 -0.5750  0.1556
  238MOL0     C32010  10.701   5.965  12.312  0.0511  0.2659  0.0689
  238MOL0     C32011  10.680   5.842  12.214 -0.6855  0.4878  0.9270
  238MOL0     N32012  10.554   5.777  12.247 -0.4586 -0.2885  0.1729
  238MOL0     C32013  10.526   5.697  12.349  1.3443 -0.5963 -0.2419
  238MOL0     C32014  10.392   5.680  12.339 -0.0385 -0.3776  0.2887
  238MOL0     C32015  10.299   5.605  12.431  0.0334  0.4715 -1.0702
  238MOL0     C32016  10.296   5.460  12.403 -0.1428  0.4694 -0.4080
  238MOL0     C32017  10.170   5.393  12.457  0.5278 -0.1450 -0.0434
  238MOL0     C32018  10.186   5.331  12.597 -0.0197 -0.0658  0.1068
  238MOL0     O32019  10.061   5.274  12.632 -0.8775 -0.1790  0.3112
  238MOL0     C32020  10.045   5.228  12.759 -0.0591 -0.1548  0.2011
  238MOL0     C32021   9.914   5.231  12.801 -0.5191  0.4695  0.6192
  238MOL0     C32022   9.861   5.194  12.929 -0.8125  0.5019 -1.1600
  238MOL0     C32023   9.713   5.184  12.956 -0.0274  0.0578 -0.6522
  238MOL0     C32024   9.960   5.160  13.020  0.1339  0.9399 -1.2059
  238MOL0     C32025   9.939   5.144  13.173  0.1484 -0.1871  0.0385
  238MOL0     O32026  10.052   5.112  13.252  0.4122 -0.2624 -0.2874
  238MOL0     C32027  10.050   5.092  13.388  0.3571  0.7965 -0.0354
  238MOL0     C32028   9.957   5.003  13.443  0.0142  0.3830  0.1559
  238MOL0     C32029   9.941   4.999  13.581  0.8544 -0.4169 -0.0200
  238MOL0     C32030  10.036   5.060  13.663  0.0412  0.0537 -0.5776
  238MOL0     O32031  10.057   5.044  13.796  0.5703 -0.4985  0.2672
  238MOL0     C32032   9.946   4.993  13.867 -0.3847 -0.9716 -0.2775
  238MOL0     C32033   9.989   4.974  14.012  0.6560 -0.7519 -0.3585
  238MOL0     C32034   9.900   4.886  14.100  0.8814  0.7580 -0.5951
  238MOL0     C32035   9.750   4.915  14.076 -0.1935 -0.4172 -0.1468
  238MOL0     C32036   9.656   4.844  14.181 -1.0168 -0.5009  0.0167
  238MOL0     C32037   9.518   4.889  14.161  0.7303 -0.2465 -0.3047
  238MOL0     C32038   9.455   4.825  14.037  0.3164 -0.4988 -0.0217
  238MOL0     C32039   9.311   4.843  14.028 -0.1091  0.3301 -0.4428
  238MOL0    Cl32040   9.279   5.021  14.028  0.1158  0.1405 -0.4188
  238MOL0     C32041  10.133   5.146  13.609 -0.6408  1.0287  0.4450
  238MOL0     C32042  10.136   5.166  13.473 -1.2978  0.9419  0.1144
  238MOL0     O32043   9.825   5.162  13.213 -0.1282 -0.0600  0.1333
  238MOL0     C32044  10.090   5.153  12.982 -0.9738  0.9995 -0.1132
  238MOL0     C32045  10.141   5.202  12.857 -1.0909  0.2270  0.1564
  238MOL0     N32046  10.348   5.738  12.225  1.0488 -0.0718 -0.0012
  238MOL0     N32047  10.450   5.793  12.166 -0.1886 -0.4426  0.2746
  238MOL0     C32048  10.508   6.517  11.835 -0.2670 -0.7118 -0.5562
  238MOL0     C32049  10.393   6.565  11.760  1.0393 -0.0807  0.5404
  238MOL0     C32050  10.128   6.669  11.414  0.2144 -0.6973  0.0864
  238MOL0     C32051  10.086   6.799  11.441 -0.3984 -0.7084 -0.3527
  238MOL0     C32052   9.988   6.867  11.359 -0.1338  0.2684 -0.0488
  238MOL0     C32053   9.941   6.801  11.246 -0.6710  0.0896  0.2132
  238MOL0     O32054   9.834   6.830  11.167  0.4922 -0.1404  0.2151
  238MOL0     C32055   9.807   6.960  11.126  0.7923 -0.7193  0.7112
  238MOL0     C32056   9.664   7.006  11.181 -0.6529 -0.3225  0.3047
  238MOL0     C32057   9.608   7.139  11.129 -0.1237 -0.0334  0.0473
  238MOL0     C32058   9.478   7.178  11.209 -0.2584  1.4453 -0.3114
  238MOL0     C32059   9.360   7.113  11.148  0.1799  0.7976 -1.0788
  238MOL0     C32060   9.275   7.039  11.120 -0.1066  0.6738  0.4317
  238MOL0     C32061   9.992   6.674  11.220  0.1620  0.4407 -0.7067
  238MOL0     C32062  10.084   6.609  11.299  0.6084 -0.4048  0.2712
  238MOL0     H32063  10.555   6.718  11.502  3.5705 -0.4739 -0.4756
  238MOL0     H32064  10.761   6.642  11.639 -0.3900  0.0368  0.2965
  238MOL0     H32065  10.678   6.314  11.811  0.7852 -1.1755 -0.0505
  238MOL0     H32066  10.842   6.342  11.728  3.3308 -0.7969  2.4853
  238MOL0     H32067  10.866   6.190  11.920 -0.9965  1.0901 -5.9967
  238MOL0     H32068  10.958   6.338  11.937  0.9437 -2.0446 -1.3248
  238MOL0     H32069  10.873   6.300  12.152  0.3300  2.0180  0.3781
  238MOL0     H32070  10.765   6.417  12.089 -2.1742  0.5913  0.2510
  238MOL0     H32071  10.601   6.214  12.041 -2.2629  3.0331  2.8918
  238MOL0     H32072  10.732   6.106  12.091 -1.6960 -2.1521  0.7159
  238MOL0     H32073  10.714   6.236  12.323 -2.4867 -2.9277  2.6802
  238MOL0     H32074  10.560   6.288  12.265 -1.2279 -0.9984  1.9518
  238MOL0     H32075  10.533   6.080  12.380  0.1281 -2.5365  0.5330
  238MOL0     H32076  10.520   6.044  12.204  3.3664 -1.4231 -2.7727
  238MOL0     H32077  10.800   6.009  12.306  0.6828 -1.2365 -1.7552
  238MOL0     H32078  10.682   5.930  12.414  0.3041 -1.4526 -0.4346
  238MOL0     H32079  10.745   5.755  12.226 -2.5411 -1.1351 -0.3274
  238MOL0     H32080  10.686   5.867  12.108 -1.4373 -1.2065  0.4537
  238MOL0     H32081  10.586   5.669  12.435 -3.0416 -0.3507  3.2839
  238MOL0     H32082  10.331   5.608  12.536 -1.3753 -1.4482 -0.5442
  238MOL0     H32083  10.199   5.648  12.424 -0.3925 -0.6534 -2.0823
  238MOL0     H32084  10.387   5.404  12.427  1.0731  2.3430 -0.4429
  238MOL0     H32085  10.289   5.457  12.293 -3.1879  2.0410 -0.3675
  238MOL0     H32086  10.143   5.308  12.394  2.0067  0.7597 -2.0672
  238MOL0     H32087  10.091   5.468  12.451 -0.4213 -0.1352  6.1268
  238MOL0     H32088  10.218   5.413  12.663  0.5386 -1.6295  1.8751
  238MOL0     H32089  10.262   5.253  12.589 -0.5171 -0.4455 -1.2059
  238MOL0     H32090   9.844   5.267  12.726  1.8587  1.5427 -1.2149
  238MOL0     H32091   9.678   5.248  13.038  3.3910 -0.6330  1.5610
  238MOL0     H32092   9.651   5.198  12.867 -3.1086 -4.1606  0.5620
  238MOL0     H32093   9.692   5.085  12.997  1.4326  1.1185  3.0966
  238MOL0     H32094   9.895   4.942  13.379 -2.5590  1.7527  1.1671
  238MOL0     H32095   9.862   4.937  13.622  1.5758 -0.7618  0.8867
  238MOL0     H32096   9.864   5.066  13.862 -0.5459 -1.2012 -1.4997
  238MOL0     H32097   9.902   4.903  13.823 -1.7210  0.8243 -2.9078
  238MOL0     H32098  10.083   4.920  14.020  1.3477 -0.0439 -2.7771
  238MOL0     H32099   9.991   5.076  14.054  1.4883 -1.5933  1.7972
  238MOL0     H32100   9.925   4.905  14.205 -2.4840 -2.3656  1.0449
  238MOL0     H32101   9.919   4.779  14.086 -0.3193  0.5741 -0.9373
  238MOL0     H32102   9.721   5.020  14.077 -1.9735 -0.6452 -4.5051
  238MOL0     H32103   9.725   4.882  13.975  2.8830 -1.6712 -0.6103
  238MOL0     H32104   9.709   4.858  14.275  2.4871 -0.6515 -1.7565
  238MOL0     H32105   9.666   4.740  14.149  1.4927  0.3441 -2.3773
  238MOL0     H32106   9.471   4.863  14.256  2.8827 -1.0832  0.5951
  238MOL0     H32107   9.503   4.997  14.162 -4.8056 -0.7219 -1.3543
  238MOL0     H32108   9.492   4.724  14.018  2.4491  0.2870 -0.3696
  238MOL0     H32109   9.492   4.876  13.947  2.6239 -0.7010  0.7349
  238MOL0     H32110   9.268   4.793  14.115  1.6537  1.5618  1.2172
  238MOL0     H32111   9.268   4.799  13.938  2.3443 -0.4106 -1.3327
  238MOL0     H32112  10.194   5.214  13.669  1.4407  1.6570 -2.1772
  238MOL0     H32113  10.211   5.234  13.434  1.2165 -1.6271  0.1274
  238MOL0     H32114  10.179   5.129  13.039  1.3560  2.4072 -2.8983
  238MOL0     H32115  10.249   5.207  12.854 -0.7526 -1.1876  4.0600
  238MOL0     H32116  10.497   6.468  11.931 -4.8186  0.9103 -0.0338
  238MOL0     H32117  10.293   6.546  11.798  1.2637  2.5951  2.8107
  238MOL0     H32118  10.118   6.854  11.529 -1.7196 -0.1317 -0.2159
  238MOL0     H32119   9.949   6.964  11.391 -1.4100 -0.8100  1.8808
  238MOL0     H32120   9.891   7.028  11.141  2.0925 -2.2631  0.6169
  238MOL0     H32121   9.799   6.957  11.017 -0.4468 -3.3804  0.7811
  238MOL0     H32122   9.666   7.004  11.290 -2.2838 -6.9969  0.6249
  238MOL0     H32123   9.597   6.926  11.151  2.5693 -3.4115  0.6672
  238MOL0     H32124   9.581   7.133  11.023 -0.9768  2.1198  0.0793
  238MOL0     H32125   9.686   7.213  11.110  2.0976 -2.2090  0.1530
  238MOL0     H32126   9.477   7.287  11.199  0.9598  1.5237  0.1594
  238MOL0     H32127   9.484   7.150  11.315 -1.0729  0.4003 -0.5222
  238MOL0     H32128   9.195   6.972  11.096  1.5793 -0.7363 -1.6483
  238MOL0     H32129   9.964   6.627  11.126  3.0647  0.3264 -1.6294
  238MOL0     H32130  10.129   6.514  11.274 -0.4587 -1.3348  1.7196
  239MOL0     O32131   7.619   2.640   4.304 -1.5915 -0.3690  0.0019
  239MOL0     C32132   7.723   2.693   4.259 -0.4414  0.7186 -0.3444
  239MOL0     O32133   7.848   2.678   4.317 -0.2119 -1.6041  0.7411
  239MOL0     C32134   7.950   2.765   4.270 -0.9924  0.8803  0.7243
  239MOL0     C32135   7.938   2.905   4.273  0.2376  1.6190 -0.1942
  239MOL0     C32136   8.022   2.997   4.201  0.8531 -0.0405 -0.5101
  239MOL0     C32137   8.133   2.940   4.144 -0.6810  0.7306 -0.6726
  239MOL0     O32138   8.219   3.022   4.075  0.2726  0.2370 -0.2715
  239MOL0     C32139   8.264   3.142   4.135  0.7869 -0.2053  0.0441
  239MOL0     C32140   8.412   3.171   4.110  0.6767 -0.2636  0.2878
  239MOL0     C32141   8.489   3.193   4.237 -0.1169  0.7369  0.6497
  239MOL0     C32142   8.640   3.168   4.211  0.4141 -0.7398  0.2242
  239MOL0     C32143   8.722   3.187   4.342 -0.2035  0.1678 -0.4300
  239MOL0     C32144   8.848   3.104   4.353 -0.2654  0.3156  0.5226
  239MOL0     C32145   8.938   3.144   4.476 -0.3635 -0.0877 -0.1715
  239MOL0     C32146   9.003   3.283   4.468  0.0223 -0.3922 -0.1772
  239MOL0     N32147   8.939   3.380   4.561 -0.3932 -0.5197  0.2828
  239MOL0     C32148   8.967   3.407   4.694 -1.0264  0.7927  0.8629
  239MOL0     C32149   8.916   3.534   4.717 -0.4306 -0.4130 -0.5239
  239MOL0     C32150   8.931   3.606   4.855 -0.4253  0.2041 -0.2022
  239MOL0     C32151   9.068   3.564   4.925 -0.0892  0.2019  0.1143
  239MOL0     C32152   9.088   3.654   5.039 -0.2022 -0.1845  0.6897
  239MOL0     C32153   9.197   3.615   5.129  0.0302  0.5404 -0.8581
  239MOL0     O32154   9.314   3.560   5.075 -0.1711  0.2213  0.8201
  239MOL0     C32155   9.398   3.637   5.004 -0.0658 -0.1197 -0.4282
  239MOL0     C32156   9.427   3.772   5.034  0.1184 -0.0283 -0.2936
  239MOL0     C32157   9.524   3.845   4.968 -0.4480 -0.7446 -0.0738
  239MOL0     C32158   9.555   3.986   5.016  0.3992  0.3076  0.6906
  239MOL0     C32159   9.592   3.782   4.863  0.2956  0.4624 -0.7322
  239MOL0     C32160   9.679   3.850   4.772 -0.4270 -0.0288  0.5394
  239MOL0     O32161   9.805   3.798   4.759 -0.3242 -0.2317  0.2176
  239MOL0     C32162   9.897   3.867   4.682  0.0813 -0.5494 -0.0687
  239MOL0     C32163  10.018   3.912   4.741 -0.1579 -0.2985  0.3778
  239MOL0     C32164  10.119   3.976   4.659 -0.1029  0.3828 -0.9411
  239MOL0     C32165  10.094   3.990   4.527  1.5334 -0.3768  0.5045
  239MOL0     O32166  10.184   4.029   4.427 -0.3361 -0.1101 -0.3653
  239MOL0     C32167  10.317   4.062   4.471 -0.2749  0.3783  0.0944
  239MOL0     C32168  10.380   4.148   4.362 -0.4657 -1.1180 -0.1207
  239MOL0     C32169  10.302   4.287   4.371 -0.8041  0.4568  0.5604
  239MOL0     C32170  10.352   4.391   4.269  0.1952 -0.1499  0.7058
  239MOL0     C32171  10.258   4.516   4.257 -0.7496  0.5196 -0.1872
  239MOL0     C32172  10.328   4.623   4.171 -0.7048  0.4313 -0.0301
  239MOL0     C32173  10.268   4.764   4.170 -0.2214  0.6105 -0.6767
  239MOL0     C32174  10.132   4.774   4.101 -0.0960  0.4256 -0.5529
  239MOL0    Cl32175  10.069   4.944   4.095 -0.2762  0.0035 -0.3238
  239MOL0     C32176   9.968   3.953   4.476  0.1250  0.4773  1.0887
  239MOL0     C32177   9.864   3.896   4.555 -0.4848 -1.0078 -0.3538
  239MOL0     O32178   9.629   3.943   4.715 -0.5297 -0.8497 -0.7657
  239MOL0     C32179   9.564   3.644   4.832  0.1343  0.1153 -0.3686
  239MOL0     C32180   9.476   3.578   4.901  0.6586  0.0817 -0.3847
  239MOL0     N32181   8.839   3.575   4.613  0.2398  0.3966 -0.4880
  239MOL0     N32182   8.847   3.478   4.523  0.6504 -1.0282  0.0641
  239MOL0     C32183   8.155   2.800   4.149 -0.4091 -0.2396 -0.1168
  239MOL0     C32184   8.064   2.710   4.217 -0.3587  0.0405 -0.0198
  239MOL0     C32185   7.684   2.770   4.136 -0.1859 -0.2506  0.2007
  239MOL0     C32186   7.567   2.850   4.136  0.4978  0.7649 -0.0779
  239MOL0     C32187   7.544   2.924   4.019  0.8396 -0.0455 -0.4264
  239MOL0     C32188   7.622   2.927   3.902 -0.6274 -0.6056  0.5269
  239MOL0     O32189   7.578   2.996   3.789  0.6734 -0.3098 -0.2768
  239MOL0     C32190   7.673   3.101   3.749  0.7127  0.3951 -0.4678
  239MOL0     C32191   7.648   3.154   3.613  0.4329 -0.6846  0.5045
  239MOL0     C32192   7.507   3.206   3.593 -0.3032  0.8317 -0.6134
  239MOL0     C32193   7.450   3.295   3.705 -0.3525 -0.3650  0.3566
  239MOL0     C32194   7.523   3.428   3.711  0.5743 -0.2214  0.4654
  239MOL0     C32195   7.579   3.531   3.743  0.0487  0.1182  0.5726
  239MOL0     C32196   7.734   2.847   3.908  0.2540 -0.2672  0.6216
  239MOL0     C32197   7.764   2.773   4.024 -0.6076  0.0113 -0.4387
  239MOL0     H32198   7.847   2.943   4.318  0.0040  2.1289 -1.0673
  239MOL0     H32199   8.002   3.104   4.195 -0.2672 -0.2047  0.0362
  239MOL0     H32200   8.210   3.225   4.089 -0.8794 -0.8184  0.8158
  239MOL0     H32201   8.241   3.152   4.241 -2.6224  1.0405 -0.6771
  239MOL0     H32202   8.458   3.091   4.051  0.5019  0.4621 -0.8717
  239MOL0     H32203   8.431   3.264   4.055  3.3419 -2.0119 -2.0061
  239MOL0     H32204   8.470   3.293   4.275  1.9435  1.2414  0.5207
  239MOL0     H32205   8.466   3.114   4.308  0.2443 -1.4939 -1.5680
  239MOL0     H32206   8.649   3.066   4.172  1.4626  0.4328 -2.8683
  239MOL0     H32207   8.675   3.234   4.131 -2.6915 -1.6439 -2.0745
  239MOL0     H32208   8.758   3.290   4.355 -1.6273  0.9989 -2.4653
  239MOL0     H32209   8.649   3.148   4.413 -1.6276 -2.0478 -2.9337
  239MOL0     H32210   8.824   2.998   4.365 -0.8273  0.2989 -0.5900
  239MOL0     H32211   8.913   3.103   4.266 -1.9152 -2.4049 -0.8094
  239MOL0     H32212   8.882   3.127   4.568  1.5011 -0.0098  1.0373
  239MOL0     H32213   9.024   3.076   4.485 -1.4002 -1.1982  2.6287
  239MOL0     H32214   8.984   3.321   4.367  3.4563  2.4157  0.0363
  239MOL0     H32215   9.111   3.277   4.485  0.1095  1.3689  0.1012
  239MOL0     H32216   9.021   3.347   4.766  0.6990  2.8971  1.4388
  239MOL0     H32217   8.927   3.713   4.831  0.9906  0.3326  0.0514
  239MOL0     H32218   8.847   3.579   4.920 -1.9661  1.1251 -1.7151
  239MOL0     H32219   9.142   3.586   4.847 -0.8571 -0.3451 -0.8009
  239MOL0     H32220   9.079   3.465   4.969 -1.2967  0.2125  0.4813
  239MOL0     H32221   9.001   3.657   5.106 -0.6909  1.9312  0.0392
  239MOL0     H32222   9.117   3.751   4.999 -2.2050 -0.8575 -2.8350
  239MOL0     H32223   9.170   3.542   5.206  1.7827  0.1307 -0.5958
  239MOL0     H32224   9.223   3.703   5.188 -0.0745  1.1113 -1.6585
  239MOL0     H32225   9.386   3.819   5.123 -1.3851 -0.2244 -0.8467
  239MOL0     H32226   9.650   4.024   4.975  1.9683 -3.8257  0.0193
  239MOL0     H32227   9.471   4.040   4.972 -0.9096 -2.0687  0.1149
  239MOL0     H32228   9.555   4.007   5.123 -1.1461 -0.1685  0.8077
  239MOL0     H32229  10.042   3.887   4.844 -0.3193  0.3845  0.5869
  239MOL0     H32230  10.209   3.998   4.716  0.9103  0.0266 -2.3663
  239MOL0     H32231  10.316   4.112   4.569 -0.0748 -1.3929  1.0490
  239MOL0     H32232  10.378   3.971   4.482 -3.0097 -1.4396  1.5576
  239MOL0     H32233  10.488   4.159   4.373 -0.3009 -1.9665 -0.7678
  239MOL0     H32234  10.355   4.095   4.269 -4.1978 -2.5349  1.4709
  239MOL0     H32235  10.313   4.337   4.467  0.9245  2.1053 -0.4329
  239MOL0     H32236  10.196   4.262   4.361 -0.9714 -2.9578  6.2237
  239MOL0     H32237  10.455   4.416   4.296 -0.1909  1.4848  0.8216
  239MOL0     H32238  10.352   4.350   4.168 -0.4795 -0.9235  1.0117
  239MOL0     H32239  10.231   4.547   4.359 -2.3916  1.5231 -0.8748
  239MOL0     H32240  10.160   4.489   4.216  0.5842  0.6115 -3.7574
  239MOL0     H32241  10.429   4.625   4.215 -0.8028 -0.7900  0.2731
  239MOL0     H32242  10.334   4.582   4.070 -1.6390 -1.1112  0.5049
  239MOL0     H32243  10.331   4.828   4.107 -1.0050  2.2029  0.0834
  239MOL0     H32244  10.272   4.807   4.270 -1.1365  1.3389 -0.9279
  239MOL0     H32245  10.070   4.702   4.154  3.7980 -1.3758  2.0751
  239MOL0     H32246  10.145   4.722   4.005  0.7155 -2.5807  1.0599
  239MOL0     H32247   9.951   3.974   4.371  1.2285  3.3722  1.4077
  239MOL0     H32248   9.764   3.891   4.513  0.1299  1.8886 -2.4866
  239MOL0     H32249   9.613   3.591   4.751  0.5568  0.8095 -0.5805
  239MOL0     H32250   9.466   3.471   4.883  3.9778 -0.6505  1.2111
  239MOL0     H32251   8.254   2.779   4.111 -0.8350 -0.8828 -0.9065
  239MOL0     H32252   8.082   2.604   4.225  0.1265  0.1682  0.7114
  239MOL0     H32253   7.506   2.862   4.225  1.9344 -0.5969  1.1406
  239MOL0     H32254   7.459   2.990   4.028  1.9183  1.2193  1.1388
  239MOL0     H32255   7.665   3.184   3.819 -0.1739  1.8606 -2.2383
  239MOL0     H32256   7.775   3.062   3.760 -0.1601 -2.4159 -1.4193
  239MOL0     H32257   7.673   3.083   3.533 -3.6891 -1.5809 -0.2261
  239MOL0     H32258   7.725   3.231   3.599  1.6303 -2.0178 -0.5469
  239MOL0     H32259   7.444   3.119   3.574 -0.8118  0.5981  1.8125
  239MOL0     H32260   7.512   3.262   3.500 -0.6407  1.4860 -0.2437
  239MOL0     H32261   7.441   3.265   3.810 -1.8342 -1.6697 -0.1025
  239MOL0     H32262   7.351   3.316   3.663 -0.2085 -2.1792 -0.9914
  239MOL0     H32263   7.632   3.622   3.762  0.1635  0.1459  0.1465
  239MOL0     H32264   7.792   2.837   3.817  0.1497  2.3114  0.1924
  239MOL0     H32265   7.847   2.705   4.011 -0.9189 -0.7545  1.3109
  240MOL0     O32266   5.963   3.724   7.130  0.1296 -0.0340  0.3404
  240MOL0     C32267   6.082   3.720   7.166  0.6895  0.0635  0.8741
  240MOL0     O32268   6.181   3.763   7.087 -1.0417 -0.1110 -0.4787
  240MOL0     C32269   6.145   3.867   7.008 -0.8877 -0.1888 -0.3523
  240MOL0     C32270   6.101   3.851   6.876  0.3597  0.4176 -0.5862
  240MOL0     C32271   6.058   3.963   6.807  0.8565  0.0634  0.4134
  240MOL0     C32272   6.065   4.100   6.861  0.4250  0.2825  0.4385
  240MOL0     O32273   6.019   4.198   6.779  0.0222 -0.3953 -0.7133
  240MOL0     C32274   6.013   4.329   6.837 -0.9556  0.9075 -0.7125
  240MOL0     C32275   5.944   4.419   6.734 -0.1118  0.4810  0.5080
  240MOL0     C32276   6.009   4.422   6.598 -0.0901 -0.0625 -0.0577
  240MOL0     C32277   5.918   4.498   6.502  0.4625  0.9265 -0.5045
  240MOL0     C32278   5.983   4.533   6.363  0.0127 -0.1147 -0.1187
  240MOL0     C32279   6.093   4.641   6.370  1.0646  0.2792  0.2498
  240MOL0     C32280   6.112   4.718   6.235  0.4446  0.2759  0.2214
  240MOL0     C32281   6.008   4.830   6.215  0.3513  0.0218 -0.7015
  240MOL0     N32282   6.004   4.856   6.069  0.6263  0.2748 -0.2589
  240MOL0     C32283   6.077   4.962   6.016 -0.3689  0.0713 -0.3056
  240MOL0     C32284   6.070   4.944   5.888 -0.4895 -1.1942  0.0745
  240MOL0     C32285   6.120   5.044   5.784 -0.7112 -0.1997 -0.2131
  240MOL0     C32286   6.253   4.997   5.715 -0.3383 -0.1768 -0.0925
  240MOL0     C32287   6.290   5.081   5.591  0.0750 -0.2520 -0.6629
  240MOL0     C32288   6.432   5.052   5.551 -0.5796 -0.0765 -0.7427
  240MOL0     O32289   6.464   5.119   5.436 -0.3944  0.7125 -0.1108
  240MOL0     C32290   6.597   5.153   5.405  0.7485  0.7475 -0.0142
  240MOL0     C32291   6.614   5.234   5.282 -0.3020  1.2018 -0.0484
  240MOL0     C32292   6.737   5.282   5.240  1.0497  0.2743  0.1837
  240MOL0     C32293   6.746   5.348   5.105  0.2263 -0.2557 -0.0423
  240MOL0     C32294   6.848   5.258   5.322  0.2162  0.2237 -0.8355
  240MOL0     C32295   6.988   5.296   5.282  0.4111  0.3958 -0.4386
  240MOL0     O32296   7.045   5.250   5.170  0.8689 -0.3415 -0.0577
  240MOL0     C32297   7.161   5.303   5.133  1.3599 -0.4291 -0.1461
  240MOL0     C32298   7.186   5.435   5.109 -1.0025 -0.8721 -0.2568
  240MOL0     C32299   7.317   5.480   5.080  0.3268 -0.0454 -0.6830
  240MOL0     C32300   7.423   5.393   5.054  0.0510  0.1834  0.2947
  240MOL0     O32301   7.543   5.444   5.012 -0.5579 -0.5070  0.0930
  240MOL0     C32302   7.665   5.371   5.057  0.1102  0.0413 -0.0713
  240MOL0     C32303   7.793   5.415   4.972  0.5691  0.2005 -0.5622
  240MOL0     C32304   7.845   5.558   4.990  0.6991  0.1830  0.1657
  240MOL0     C32305   7.940   5.598   4.879  0.1267 -0.8683 -0.1929
  240MOL0     C32306   7.971   5.751   4.889 -0.1478  0.0500  0.4298
  240MOL0     C32307   8.099   5.794   4.827 -0.1307  0.3884 -0.4793
  240MOL0     C32308   8.130   5.946   4.842 -0.0611 -0.2127  0.1780
  240MOL0     C32309   8.062   6.042   4.736  0.0055 -0.4000 -0.4057
  240MOL0    Cl32310   8.114   5.990   4.570  0.8625 -0.3152  0.5031
  240MOL0     C32311   7.395   5.254   5.082  0.5758 -1.2561  0.7623
  240MOL0     C32312   7.271   5.210   5.123  0.1138  0.5358  0.2835
  240MOL0     O32313   7.045   5.367   5.368  0.2954  0.5543 -0.2743
  240MOL0     C32314   6.833   5.189   5.440  0.5853 -0.1332 -0.0755
  240MOL0     C32315   6.713   5.147   5.485  0.9478  0.7424  0.2966
  240MOL0     N32316   5.989   4.832   5.861  0.5521  0.3230 -0.4747
  240MOL0     N32317   5.945   4.778   5.969  0.3999  0.4988 -0.3540
  240MOL0     C32318   6.126   4.109   6.993  0.0522  0.8302  0.3008
  240MOL0     C32319   6.162   3.995   7.068  0.4869  0.6512  0.2507
  240MOL0     C32320   6.119   3.633   7.282 -0.0040 -0.3222  0.0680
  240MOL0     C32321   6.029   3.601   7.379  0.3453 -0.9577 -0.0580
  240MOL0     C32322   6.058   3.540   7.495 -1.5898 -0.1845 -1.0146
  240MOL0     C32323   6.189   3.496   7.523  1.2072 -0.4874  0.3535
  240MOL0     O32324   6.230   3.446   7.642 -0.5696 -0.8089  0.3164
  240MOL0     C32325   6.136   3.378   7.722  0.1703 -0.1111  0.4959
  240MOL0     C32326   6.209   3.341   7.850  1.3914  0.1923 -0.1421
  240MOL0     C32327   6.310   3.223   7.821  0.5335  0.0582 -0.0421
  240MOL0     C32328   6.415   3.202   7.941  0.0219  0.3354  0.7615
  240MOL0     C32329   6.522   3.111   7.888  0.0909 -0.3750  0.7544
  240MOL0     C32330   6.596   3.031   7.838  0.4962 -0.4946 -0.1161
  240MOL0     C32331   6.282   3.515   7.420 -0.2569  0.3654  1.0943
  240MOL0     C32332   6.250   3.587   7.302  0.5113  0.6046 -0.2538
  240MOL0     H32333   6.097   3.754   6.828 -1.5218 -0.2265  0.7415
  240MOL0     H32334   6.018   3.953   6.707 -1.6494 -1.8781  1.5104
  240MOL0     H32335   5.964   4.326   6.935  1.5790 -2.1701  0.6274
  240MOL0     H32336   6.117   4.357   6.856 -0.7656 -0.3251  0.2379
  240MOL0     H32337   5.837   4.399   6.721  0.4083 -1.4269 -1.7010
  240MOL0     H32338   5.951   4.515   6.784  1.0948  0.3575  0.6070
  240MOL0     H32339   6.104   4.477   6.601 -0.9820  1.7383 -1.8283
  240MOL0     H32340   6.033   4.322   6.562 -0.8291 -0.8960  1.6546
  240MOL0     H32341   5.826   4.442   6.485  1.2049 -0.8637  1.0645
  240MOL0     H32342   5.870   4.580   6.557  0.6925  1.4096 -1.0029
  240MOL0     H32343   6.011   4.436   6.323 -0.2058 -1.1402  2.0815
  240MOL0     H32344   5.904   4.575   6.300 -0.2309 -1.8980 -1.0440
  240MOL0     H32345   6.072   4.717   6.446 -0.0535  1.4731 -1.1985
  240MOL0     H32346   6.187   4.594   6.400  0.3997 -0.4201  1.3057
  240MOL0     H32347   6.213   4.759   6.240  0.6037 -0.2706  1.9657
  240MOL0     H32348   6.103   4.640   6.158  0.2725  0.6877 -0.1835
  240MOL0     H32349   6.044   4.918   6.270 -1.2188  0.8755 -0.9654
  240MOL0     H32350   5.908   4.806   6.252  0.3857 -0.9563 -1.2293
  240MOL0     H32351   6.145   5.031   6.065  2.9814 -3.8095  1.0819
  240MOL0     H32352   6.045   5.062   5.707 -1.5849 -0.1331  0.6348
  240MOL0     H32353   6.130   5.145   5.825  2.8786 -0.1585 -0.8900
  240MOL0     H32354   6.237   4.893   5.685 -0.4655 -0.2134  0.1012
  240MOL0     H32355   6.340   4.999   5.780  0.8839 -0.7342 -1.6291
  240MOL0     H32356   6.273   5.185   5.620  0.7308  0.3017 -2.1532
  240MOL0     H32357   6.213   5.065   5.516  1.5451  2.8994 -3.0625
  240MOL0     H32358   6.446   4.946   5.530 -0.9329 -0.8531  2.4013
  240MOL0     H32359   6.494   5.092   5.633 -0.4358  1.6876 -1.6522
  240MOL0     H32360   6.535   5.258   5.211 -0.0660  1.4417 -0.2346
  240MOL0     H32361   6.667   5.419   5.080 -1.4487 -2.3131 -0.8009
  240MOL0     H32362   6.840   5.404   5.095 -0.8114  1.6730  0.4699
  240MOL0     H32363   6.749   5.276   5.023 -0.6194 -1.7668  1.1924
  240MOL0     H32364   7.109   5.511   5.107  0.5184  0.7181 -0.4282
  240MOL0     H32365   7.326   5.584   5.049 -1.0543 -0.5624 -3.0970
  240MOL0     H32366   7.681   5.390   5.163 -3.5575  0.6984  0.4760
  240MOL0     H32367   7.667   5.261   5.052  4.5365 -0.0303 -1.5315
  240MOL0     H32368   7.872   5.343   4.994 -0.2366 -0.1350  1.5881
  240MOL0     H32369   7.767   5.400   4.867 -0.3225 -0.3244 -0.2807
  240MOL0     H32370   7.876   5.576   5.093  1.7958 -0.1626 -0.0954
  240MOL0     H32371   7.763   5.631   4.986  0.1904 -0.3231  1.1230
  240MOL0     H32372   8.029   5.535   4.878  1.0786  0.4467 -1.4158
  240MOL0     H32373   7.904   5.575   4.779  0.1779 -2.5741  0.1463
  240MOL0     H32374   7.963   5.790   4.991 -0.8650  2.1173 -0.3591
  240MOL0     H32375   7.892   5.808   4.838 -1.6252 -0.7698  1.7079
  240MOL0     H32376   8.169   5.723   4.872 -2.7687 -3.3177 -1.7137
  240MOL0     H32377   8.099   5.774   4.720  3.7186  1.7326 -0.8751
  240MOL0     H32378   8.239   5.959   4.834 -0.0536  1.0626  1.9741
  240MOL0     H32379   8.105   5.984   4.941 -0.4252 -0.4927  0.1938
  240MOL0     H32380   8.090   6.148   4.743  0.8013 -0.6601  0.6029
  240MOL0     H32381   7.954   6.043   4.751  0.1049 -0.5462  0.3680
  240MOL0     H32382   7.481   5.191   5.062  0.3184 -0.7423 -2.4252
  240MOL0     H32383   7.252   5.104   5.135 -1.4590  0.9044  1.3120
  240MOL0     H32384   6.917   5.167   5.505  0.3580  1.4193  0.7905
  240MOL0     H32385   6.704   5.108   5.586 -1.5845  1.3718  0.3726
  240MOL0     H32386   6.122   4.206   7.042  0.3073  0.9793  0.0299
  240MOL0     H32387   6.196   4.004   7.171 -0.1191 -1.3322  0.6690
  240MOL0     H32388   5.926   3.632   7.371  0.3355 -0.8502  0.4737
  240MOL0     H32389   5.985   3.525   7.574 -0.7311 -1.3663 -0.4211
  240MOL0     H32390   6.042   3.428   7.747 -0.9480 -1.6086 -0.5426
  240MOL0     H32391   6.091   3.290   7.675  0.6433 -1.1557  1.9418
  240MOL0     H32392   6.148   3.330   7.940  1.9627 -0.8086  0.1377
  240MOL0     H32393   6.274   3.429   7.856 -0.5698  1.8005 -1.3724
  240MOL0     H32394   6.368   3.250   7.732  1.4326  1.4831  0.9244
  240MOL0     H32395   6.253   3.133   7.797 -2.9476  1.5940  1.7332
  240MOL0     H32396   6.367   3.144   8.020 -1.7839 -1.9628 -1.8584
  240MOL0     H32397   6.466   3.296   7.968 -1.4672  1.4466 -0.1486
  240MOL0     H32398   6.657   2.954   7.793  0.7839 -1.3045  1.5908
  240MOL0     H32399   6.384   3.483   7.438 -0.0376 -1.7002 -2.6714
  240MOL0     H32400   6.314   3.625   7.223 -1.7869  0.8300 -2.1143
  241MOL0     O32401   2.192   1.979   5.330  0.8084  0.2481 -0.0803
  241MOL0     C32402   2.273   2.039   5.260 -0.2299  0.1355  0.4096
  241MOL0     O32403   2.410   2.038   5.266 -0.8214  0.6388 -0.3768
  241MOL0     C32404   2.453   2.020   5.392 -0.7660  0.0098  0.3189
  241MOL0     C32405   2.441   2.130   5.479  0.9772 -0.9099 -0.0329
  241MOL0     C32406   2.473   2.116   5.606  0.3770  0.9026 -0.5962
  241MOL0     C32407   2.531   1.995   5.658  0.3113 -0.3811  0.3904
  241MOL0     O32408   2.578   1.977   5.785 -0.1438 -1.5100  0.3346
  241MOL0     C32409   2.573   2.097   5.866  0.9650  0.0237  0.3091
  241MOL0     C32410   2.597   2.046   6.003 -0.0120 -0.0166 -0.5324
  241MOL0     C32411   2.465   1.976   6.061  0.7222 -0.1181  0.0011
  241MOL0     C32412   2.457   1.963   6.212 -0.0803  0.4327  0.4148
  241MOL0     C32413   2.355   1.854   6.259  0.2205 -0.4292  0.2008
  241MOL0     C32414   2.320   1.851   6.401  0.4403  0.2300 -1.1412
  241MOL0     C32415   2.203   1.758   6.436  0.3317  0.5550 -1.0522
  241MOL0     C32416   2.121   1.813   6.540  0.1967 -0.3632  0.6493
  241MOL0     N32417   2.063   1.943   6.506 -0.2406 -0.2562 -0.7501
  241MOL0     C32418   2.059   2.026   6.613 -0.1656 -0.1606 -0.4225
  241MOL0     C32419   1.958   2.109   6.575 -0.2292  0.2725  0.1913
  241MOL0     C32420   1.919   2.218   6.669  0.6083  0.1049 -0.7217
  241MOL0     C32421   1.936   2.358   6.607 -0.3888  0.4171 -0.4058
  241MOL0     C32422   2.082   2.382   6.565 -0.7482  1.3101  0.1963
  241MOL0     C32423   2.184   2.402   6.673 -0.0235 -0.4841 -0.6302
  241MOL0     O32424   2.239   2.276   6.722  0.7677  0.2245 -0.1625
  241MOL0     C32425   2.371   2.257   6.760  0.7927 -0.0230  0.7570
  241MOL0     C32426   2.441   2.367   6.799  0.4863 -0.1417  0.7801
  241MOL0     C32427   2.582   2.354   6.823 -0.1033  0.5708  0.0853
  241MOL0     C32428   2.662   2.490   6.823  0.3382 -0.4862  0.2379
  241MOL0     C32429   2.641   2.222   6.825  0.5911 -0.7176 -0.7076
  241MOL0     C32430   2.789   2.195   6.861 -0.6979  0.0971 -0.5318
  241MOL0     O32431   2.813   2.055   6.863  0.7252  0.4012  0.1060
  241MOL0     C32432   2.933   1.994   6.833  0.1947 -0.9760 -0.6925
  241MOL0     C32433   2.976   1.887   6.908 -0.3111 -0.3199 -0.1556
  241MOL0     C32434   3.099   1.822   6.878 -0.5573  0.4799 -0.1819
  241MOL0     C32435   3.182   1.861   6.775  0.0243 -0.8944  0.0631
  241MOL0     O32436   3.303   1.796   6.741  0.5457  0.2808 -0.0939
  241MOL0     C32437   3.421   1.825   6.811 -0.7440  0.4407 -0.3111
  241MOL0     C32438   3.537   1.738   6.750  0.3917  0.3667 -1.5966
  241MOL0     C32439   3.618   1.799   6.629 -0.3132 -0.3972  0.2679
  241MOL0     C32440   3.681   1.937   6.655 -0.0065 -0.7309  0.1983
  241MOL0     C32441   3.699   2.003   6.520  0.1968 -0.0528  1.0185
  241MOL0     C32442   3.580   2.057   6.430 -0.5933 -0.7307 -0.2858
  241MOL0     C32443   3.483   2.119   6.528 -0.5797  0.0575 -0.4065
  241MOL0     C32444   3.381   2.203   6.460 -0.5613  0.1018  0.3586
  241MOL0    Cl32445   3.314   2.320   6.578  0.2614  0.1020  0.0447
  241MOL0     C32446   3.148   1.983   6.714  0.8906 -0.0345  0.1984
  241MOL0     C32447   3.023   2.044   6.743  0.2327  0.7917  0.5148
  241MOL0     O32448   2.873   2.285   6.858 -0.3721 -0.1001 -0.1066
  241MOL0     C32449   2.550   2.115   6.808 -0.0712  0.0072  0.8053
  241MOL0     C32450   2.418   2.129   6.761  0.0736 -0.4453  0.1056
  241MOL0     N32451   1.901   2.065   6.463  0.0824  0.2808  0.0410
  241MOL0     N32452   1.964   1.967   6.420 -0.8685  0.9545 -0.2041
  241MOL0     C32453   2.565   1.896   5.570  0.1851 -0.1254 -0.5142
  241MOL0     C32454   2.521   1.904   5.437  1.0244 -0.0112  0.2963
  241MOL0     C32455   2.237   2.146   5.159 -0.7149  1.1649  1.1349
  241MOL0     C32456   2.303   2.160   5.033  0.7423 -0.1336 -0.3338
  241MOL0     C32457   2.275   2.278   4.951 -0.3036  0.5034  0.6841
  241MOL0     C32458   2.191   2.376   4.991 -0.2388 -0.0597  0.3509
  241MOL0     O32459   2.151   2.490   4.917 -0.2269  0.9541 -0.3396
  241MOL0     C32460   2.237   2.543   4.825  0.0497  0.1359  0.8078
  241MOL0     C32461   2.359   2.592   4.901  0.5836  0.5701 -0.2796
  241MOL0     C32462   2.456   2.680   4.802 -0.7405 -0.0855  1.0337
  241MOL0     C32463   2.452   2.829   4.838 -0.2700 -1.3004 -0.7923
  241MOL0     C32464   2.530   2.916   4.750  0.3477 -0.3733  0.6117
  241MOL0     C32465   2.593   2.987   4.673 -0.0953 -0.7146 -0.5789
  241MOL0     C32466   2.116   2.345   5.106 -0.8496  0.9999 -0.7680
  241MOL0     C32467   2.137   2.237   5.198 -0.5223 -0.7265 -0.3349
  241MOL0     H32468   2.392   2.223   5.453  0.7216 -0.8670  0.5746
  241MOL0     H32469   2.438   2.206   5.656  0.1672  0.9001 -0.7344
  241MOL0     H32470   2.658   2.161   5.840  0.6074  0.3322 -0.1066
  241MOL0     H32471   2.481   2.155   5.854  1.9205  1.4079 -0.7199
  241MOL0     H32472   2.680   1.975   6.001 -1.7092 -2.1955  1.0825
  241MOL0     H32473   2.624   2.131   6.067  0.0277  1.3743 -2.3138
  241MOL0     H32474   2.369   2.020   6.034  0.3612 -0.4693  0.6914
  241MOL0     H32475   2.466   1.875   6.020  0.7213 -1.6024  3.3187
  241MOL0     H32476   2.559   1.943   6.248 -0.7083 -0.5368  1.7524
  241MOL0     H32477   2.432   2.059   6.257  0.6652 -0.5719  3.2077
  241MOL0     H32478   2.267   1.879   6.200 -0.4176  2.4853  2.1858
  241MOL0     H32479   2.387   1.755   6.224 -1.0123 -1.4835  1.8681
  241MOL0     H32480   2.410   1.819   6.456  1.2505  0.9883 -1.9981
  241MOL0     H32481   2.300   1.950   6.444  3.5593  0.7370 -0.5977
  241MOL0     H32482   2.131   1.743   6.356 -3.0551  1.6107  1.5379
  241MOL0     H32483   2.241   1.665   6.479 -2.6718 -1.3932 -2.3070
  241MOL0     H32484   2.189   1.821   6.625 -0.3514 -2.8730  1.4218
  241MOL0     H32485   2.050   1.737   6.574 -0.6240 -0.4200 -1.1019
  241MOL0     H32486   2.119   2.020   6.704 -1.6515 -1.3901  0.5263
  241MOL0     H32487   1.811   2.211   6.684  0.4021  0.8468 -1.7974
  241MOL0     H32488   1.974   2.200   6.762 -1.3742 -0.6964  0.3702
  241MOL0     H32489   1.909   2.431   6.683 -1.5554 -1.6384  1.2692
  241MOL0     H32490   1.866   2.371   6.524  0.4865  1.6377 -0.9745
  241MOL0     H32491   2.079   2.466   6.494 -1.3390  1.3763  0.2871
  241MOL0     H32492   2.117   2.298   6.504  0.9293  2.7244 -0.8858
  241MOL0     H32493   2.126   2.453   6.750  0.9498  0.1163 -0.2739
  241MOL0     H32494   2.263   2.473   6.647  0.3062  0.3133  2.2554
  241MOL0     H32495   2.401   2.467   6.813  1.6574  0.9791 -2.6344
  241MOL0     H32496   2.672   2.525   6.720  1.7284 -0.2941  0.4241
  241MOL0     H32497   2.600   2.564   6.875 -0.5098 -1.3544  0.4913
  241MOL0     H32498   2.759   2.488   6.874  2.7599 -0.3675 -3.9057
  241MOL0     H32499   2.905   1.860   6.986 -1.2677 -1.3690 -1.3255
  241MOL0     H32500   3.117   1.743   6.950  0.5511 -0.8752 -1.8793
  241MOL0     H32501   3.438   1.933   6.820  1.6012  0.2287 -1.5778
  241MOL0     H32502   3.405   1.791   6.914  1.6454 -1.9881 -0.6258
  241MOL0     H32503   3.608   1.721   6.832  0.9127 -1.8320 -2.4404
  241MOL0     H32504   3.497   1.639   6.727  0.0046  0.5380 -1.6816
  241MOL0     H32505   3.551   1.803   6.543  0.4050  0.5934 -0.2680
  241MOL0     H32506   3.706   1.743   6.595  1.1597  1.1752  1.3331
  241MOL0     H32507   3.621   1.995   6.725  0.2155 -0.7131  0.3731
  241MOL0     H32508   3.783   1.931   6.694  1.4997  0.5559 -3.1623
  241MOL0     H32509   3.754   1.944   6.446 -0.0745  0.1243  0.6707
  241MOL0     H32510   3.757   2.095   6.533 -0.3391  0.2911  1.0077
  241MOL0     H32511   3.620   2.140   6.371 -2.0970  0.0769 -0.2164
  241MOL0     H32512   3.529   1.989   6.361 -1.1037  1.0795 -1.7886
  241MOL0     H32513   3.526   2.185   6.605 -2.4734 -0.5238  1.2509
  241MOL0     H32514   3.429   2.040   6.580 -1.0007 -0.8622 -2.1799
  241MOL0     H32515   3.299   2.134   6.435  0.4215 -0.6701 -0.8325
  241MOL0     H32516   3.420   2.252   6.370 -0.2362  1.9775  1.4824
  241MOL0     H32517   3.229   2.024   6.655  1.4379 -0.3205  0.7417
  241MOL0     H32518   3.004   2.138   6.692 -1.0278  1.5233  2.2515
  241MOL0     H32519   2.595   2.019   6.829  1.5813  0.0415 -2.1469
  241MOL0     H32520   2.345   2.051   6.746 -0.7143  0.0659  1.1707
  241MOL0     H32521   2.620   1.808   5.602 -2.9269 -1.9258  0.3692
  241MOL0     H32522   2.526   1.814   5.377  2.6821 -0.3510  0.8948
  241MOL0     H32523   2.380   2.097   4.990  1.3979  1.2751 -1.2911
  241MOL0     H32524   2.326   2.302   4.858 -1.7873  0.9293 -0.0428
  241MOL0     H32525   2.276   2.472   4.752 -2.4848 -1.0851  0.5464
  241MOL0     H32526   2.175   2.620   4.778 -0.0753  0.5430  1.6088
  241MOL0     H32527   2.410   2.506   4.946  1.1226  1.5516  1.0501
  241MOL0     H32528   2.328   2.662   4.979  0.5429 -1.4773  1.6633
  241MOL0     H32529   2.416   2.674   4.700  2.0145  1.6612 -0.2892
  241MOL0     H32530   2.552   2.627   4.804 -1.1755 -1.0282 -0.7307
  241MOL0     H32531   2.485   2.836   4.942  0.2550 -0.8795 -0.9820
  241MOL0     H32532   2.349   2.866   4.844  0.6926  1.4280  2.7108
  241MOL0     H32533   2.653   3.044   4.605 -1.3354  1.2096 -0.1232
  241MOL0     H32534   2.050   2.423   5.143  1.3637  3.2959 -1.3557
  241MOL0     H32535   2.095   2.236   5.298 -1.7408 -3.2705 -0.7848
  242MOL0     O32536   9.753  10.401   4.248  0.7875 -0.0093  0.1191
  242MOL0     C32537   9.663  10.385   4.332  0.2887  0.7009 -0.2426
  242MOL0     O32538   9.683  10.391   4.467 -0.5123  0.5126 -0.2263
  242MOL0     C32539   9.815  10.360   4.506  0.7393 -0.7606  0.2548
  242MOL0     C32540   9.907  10.464   4.539 -0.0307 -0.2945 -0.3358
  242MOL0     C32541  10.030  10.425   4.593  0.4863  1.1161 -0.3688
  242MOL0     C32542  10.062  10.295   4.615 -0.9961  0.1390  0.3834
  242MOL0     O32543  10.188  10.259   4.664  0.2155 -0.8028  0.0853
  242MOL0     C32544  10.307  10.291   4.583 -0.6713  0.3542 -0.5515
  242MOL0     C32545  10.333  10.207   4.458  0.8207  0.1691 -0.5290
  242MOL0     C32546  10.354  10.062   4.490  1.1347 -0.1961  0.6190
  242MOL0     C32547  10.316   9.978   4.374  0.2244  1.1013 -0.2269
  242MOL0     C32548  10.364   9.835   4.399  0.2702 -0.4471  0.8043
  242MOL0     C32549  10.287   9.741   4.492  0.0411  0.9540  0.2078
  242MOL0     C32550  10.129   9.749   4.486  0.4133 -0.2459 -1.7494
  242MOL0     C32551  10.066   9.706   4.351  0.1486  0.3604 -0.8038
  242MOL0     N32552   9.916   9.692   4.348  0.2679  0.0006 -0.1746
  242MOL0     C32553   9.819   9.788   4.381 -0.4544  0.0515  1.7123
  242MOL0     C32554   9.700   9.725   4.383  0.2144  0.3771  0.7213
  242MOL0     C32555   9.564   9.794   4.406 -0.2514  0.5082 -0.5216
  242MOL0     C32556   9.447   9.696   4.393 -0.2311  0.3091  0.0539
  242MOL0     C32557   9.324   9.762   4.456  1.1222 -0.5280  0.4333
  242MOL0     C32558   9.314   9.910   4.384  0.0125  0.1676 -0.3624
  242MOL0     O32559   9.202   9.988   4.435  0.7725 -0.5223  0.8008
  242MOL0     C32560   9.080   9.960   4.397  0.7405 -0.6940 -0.1116
  242MOL0     C32561   8.968  10.044   4.452 -0.1117  0.7392 -0.0775
  242MOL0     C32562   8.835  10.029   4.409  0.3212 -0.4234  0.5160
  242MOL0     C32563   8.740  10.144   4.449 -0.2871  0.6554 -0.2535
  242MOL0     C32564   8.805   9.908   4.344  0.0112 -0.0341  1.4298
  242MOL0     C32565   8.665   9.878   4.308  0.4889 -0.2158  0.6849
  242MOL0     O32566   8.648   9.791   4.203  0.6214  0.1956  0.4189
  242MOL0     C32567   8.530   9.726   4.195  0.6334  0.6998  1.1525
  242MOL0     C32568   8.441   9.756   4.103 -0.0368  0.2061  0.6409
  242MOL0     C32569   8.319   9.694   4.095 -1.1649  0.1329  0.2718
  242MOL0     C32570   8.282   9.599   4.204 -0.9541 -0.2572  1.0928
  242MOL0     O32571   8.148   9.570   4.210 -0.3195  0.5412  0.1104
  242MOL0     C32572   8.109   9.462   4.300 -0.6882 -1.2537  0.5762
  242MOL0     C32573   8.042   9.513   4.423 -0.4494  0.5326 -0.2070
  242MOL0     C32574   7.932   9.618   4.379  0.0048  0.0926  0.7729
  242MOL0     C32575   7.849   9.672   4.492  0.4953  1.0117  0.1261
  242MOL0     C32576   7.719   9.594   4.496  0.5472  0.1188  0.6899
  242MOL0     C32577   7.628   9.626   4.609 -0.0507 -0.9840 -0.1303
  242MOL0     C32578   7.665   9.544   4.732 -0.2635  0.4186  1.2567
  242MOL0     C32579   7.598   9.577   4.867 -0.6039 -0.0925 -0.3995
  242MOL0    Cl32580   7.428   9.626   4.857 -0.2498 -0.2152 -0.1958
  242MOL0     C32581   8.377   9.568   4.303 -0.0517 -0.0085  0.1032
  242MOL0     C32582   8.499   9.632   4.297 -0.4221 -0.1141 -0.0898
  242MOL0     O32583   8.576   9.939   4.376 -0.0742  0.7143  0.2994
  242MOL0     C32584   8.897   9.810   4.311  0.6279  0.3353  0.2126
  242MOL0     C32585   9.037   9.841   4.334 -0.3733  0.4854  0.1418
  242MOL0     N32586   9.725   9.596   4.343 -0.6577  0.4822  0.2710
  242MOL0     N32587   9.853   9.574   4.344  0.0592 -1.1091  1.1174
  242MOL0     C32588   9.973  10.200   4.571  0.5856 -0.3530  0.3048
  242MOL0     C32589   9.854  10.226   4.517 -0.1040 -1.0962  0.6458
  242MOL0     C32590   9.538  10.356   4.272 -0.0391  0.5749 -0.2827
  242MOL0     C32591   9.519  10.350   4.128 -0.8833 -0.3148  0.3235
  242MOL0     C32592   9.389  10.334   4.076 -0.1566 -0.1909  0.4648
  242MOL0     C32593   9.284  10.339   4.161  0.7628 -0.0311 -0.7484
  242MOL0     O32594   9.162  10.354   4.104 -0.1107 -0.0482  0.6940
  242MOL0     C32595   9.049  10.318   4.184 -0.5719  0.1032 -0.4770
  242MOL0     C32596   8.923  10.279   4.123 -0.7469 -1.0215 -0.1861
  242MOL0     C32597   8.919  10.151   4.036 -0.0218  0.5368 -0.3032
  242MOL0     C32598   8.781  10.085   4.010 -0.1541  0.2419  0.3463
  242MOL0     C32599   8.786   9.973   3.916 -0.0897  0.0460 -0.1835
  242MOL0     C32600   8.791   9.862   3.863  0.1617 -0.1129 -0.0617
  242MOL0     C32601   9.298  10.324   4.301 -0.0898  0.8177 -0.2049
  242MOL0     C32602   9.426  10.322   4.351  0.6977 -0.1228 -0.4882
  242MOL0     H32603   9.891  10.565   4.503 -1.3919  0.0169  1.0255
  242MOL0     H32604  10.104  10.502   4.612  0.2525  2.5548 -4.3431
  242MOL0     H32605  10.303  10.387   4.531  5.3484 -0.7625 -4.0344
  242MOL0     H32606  10.392  10.309   4.649 -3.2358  1.0090  2.8860
  242MOL0     H32607  10.250  10.230   4.390  1.0313  3.5106  0.1963
  242MOL0     H32608  10.418  10.260   4.413  0.9568  1.7446  1.4471
  242MOL0     H32609  10.461  10.065   4.515  1.0392  0.2800  0.9946
  242MOL0     H32610  10.295  10.040   4.580  3.4091 -0.4280  2.1351
  242MOL0     H32611  10.208   9.982   4.356 -0.4454  0.5831  3.0388
  242MOL0     H32612  10.369  10.015   4.286  1.1092  2.3230  0.7952
  242MOL0     H32613  10.362   9.779   4.305  0.2829 -0.6486  0.9255
  242MOL0     H32614  10.462   9.839   4.447 -0.1697  0.8565  1.6307
  242MOL0     H32615  10.311   9.635   4.476 -1.1657  0.7056 -0.0076
  242MOL0     H32616  10.317   9.763   4.595 -2.7847  4.3692  0.4823
  242MOL0     H32617  10.085   9.694   4.570 -0.4627  1.3276 -1.1229
  242MOL0     H32618  10.099   9.853   4.501  1.3337 -0.0237 -1.4189
  242MOL0     H32619  10.118   9.613   4.326  2.4584  1.4295 -0.3184
  242MOL0     H32620  10.089   9.770   4.266  1.4391 -1.5881 -2.0105
  242MOL0     H32621   9.826   9.890   4.418  2.7742  0.9650 -0.8990
  242MOL0     H32622   9.566   9.847   4.502  2.0757 -2.0392  0.9896
  242MOL0     H32623   9.554   9.869   4.328  1.4670  1.0357 -0.2871
  242MOL0     H32624   9.466   9.597   4.436 -2.7589 -0.5060 -0.5184
  242MOL0     H32625   9.418   9.676   4.290 -0.7323 -1.6308  0.5373
  242MOL0     H32626   9.328   9.770   4.565  0.7931  1.3998  0.3352
  242MOL0     H32627   9.241   9.698   4.426  2.1252 -1.3412 -0.6874
  242MOL0     H32628   9.327   9.910   4.276  2.8872  1.4474 -0.1006
  242MOL0     H32629   9.397   9.973   4.417  2.0396 -2.0530 -0.9948
  242MOL0     H32630   9.004  10.135   4.498  0.9027  2.0181 -3.2203
  242MOL0     H32631   8.681  10.179   4.363 -0.7270 -0.8418 -0.5937
  242MOL0     H32632   8.670  10.095   4.517 -0.7204  1.6881  0.0607
  242MOL0     H32633   8.779  10.227   4.508 -1.4272  0.9877  0.0528
  242MOL0     H32634   8.449   9.841   4.036  0.2958  0.4881  1.0319
  242MOL0     H32635   8.250   9.713   4.014  1.2535 -1.5463 -2.3733
  242MOL0     H32636   8.041   9.400   4.241 -0.7189 -0.2050 -0.5108
  242MOL0     H32637   8.198   9.409   4.337  2.1832  0.0694 -3.6507
  242MOL0     H32638   8.001   9.431   4.483 -0.2208 -0.6065 -1.5547
  242MOL0     H32639   8.115   9.562   4.487 -2.7059  0.5758  2.5427
  242MOL0     H32640   7.869   9.568   4.306  0.0903  1.5251 -0.3282
  242MOL0     H32641   7.981   9.704   4.332 -1.0576  2.2491  3.3284
  242MOL0     H32642   7.899   9.659   4.588 -1.2382 -2.7354  0.7305
  242MOL0     H32643   7.820   9.776   4.472 -0.9512  1.1079  2.4491
  242MOL0     H32644   7.739   9.488   4.481  1.3715  0.5967 -2.2477
  242MOL0     H32645   7.663   9.630   4.409  0.6413  0.7953  0.9001
  242MOL0     H32646   7.652   9.730   4.633  0.5301 -1.5022  1.6332
  242MOL0     H32647   7.521   9.612   4.590 -0.0004  0.3644 -1.6463
  242MOL0     H32648   7.773   9.540   4.752  0.3132  0.2053 -1.5032
  242MOL0     H32649   7.631   9.444   4.705  1.0988  0.0550  0.7857
  242MOL0     H32650   7.642   9.669   4.906  1.8753 -1.6665  0.7701
  242MOL0     H32651   7.622   9.496   4.937 -1.1845 -0.2363 -0.3624
  242MOL0     H32652   8.356   9.504   4.388  3.1958 -1.8548 -0.2849
  242MOL0     H32653   8.555   9.627   4.390 -1.4627  1.7003  0.7000
  242MOL0     H32654   8.864   9.711   4.281 -1.2158  1.1917 -0.7459
  242MOL0     H32655   9.104   9.780   4.275 -1.9347 -1.3140  0.1273
  242MOL0     H32656  10.000  10.095   4.565 -2.3850 -1.2715  1.0181
  242MOL0     H32657   9.784  10.155   4.473 -0.7394 -1.2299  1.8416
  242MOL0     H32658   9.599  10.359   4.056 -1.0051  1.3501  0.3560
  242MOL0     H32659   9.368  10.330   3.970 -1.6632  0.1248  0.7194
  242MOL0     H32660   9.077  10.229   4.241  1.1280  0.4739 -0.6801
  242MOL0     H32661   9.022  10.404   4.246  1.4707  0.6360 -0.2549
  242MOL0     H32662   8.910  10.367   4.060 -1.0578 -0.5778  0.4790
  242MOL0     H32663   8.836  10.267   4.188 -0.9651 -1.2810 -0.5199
  242MOL0     H32664   8.984  10.071   4.073 -4.3868 -2.4786  1.7450
  242MOL0     H32665   8.968  10.191   3.947  2.3810 -0.1098  0.6297
  242MOL0     H32666   8.695  10.151   3.995  2.0985  2.8427 -2.1887
  242MOL0     H32667   8.754  10.027   4.099 -1.2904 -1.9045 -1.2783
  242MOL0     H32668   8.785   9.772   3.805  2.9397  0.0609 -0.7583
  242MOL0     H32669   9.217  10.306   4.370 -0.6269 -2.8131 -1.5876
  242MOL0     H32670   9.440  10.313   4.458  2.0574 -1.3975 -0.7380
  243MOL0     O32671   4.133   7.759   2.521 -0.3361  0.0198 -0.8306
  243MOL0     C32672   4.175   7.869   2.500 -0.1421 -0.2618  0.1145
  243MOL0     O32673   4.119   7.982   2.550 -0.5660 -0.0389  0.4710
  243MOL0     C32674   4.009   7.974   2.626 -1.0298 -0.1080 -0.5983
  243MOL0     C32675   3.907   8.057   2.599  0.5103 -0.5579  0.5019
  243MOL0     C32676   3.779   8.052   2.664  0.3694 -0.2473  1.0482
  243MOL0     C32677   3.769   7.966   2.769 -0.5161 -0.1103  0.0595
  243MOL0     O32678   3.652   7.979   2.828  0.1320 -0.6235 -0.4203
  243MOL0     C32679   3.589   7.870   2.891 -1.0419  0.1917  0.1518
  243MOL0     C32680   3.474   7.921   2.982 -0.6270 -0.4586 -1.4515
  243MOL0     C32681   3.342   7.926   2.911 -0.3162  0.8502  0.4491
  243MOL0     C32682   3.261   8.054   2.944 -0.6384 -0.6627  0.1364
  243MOL0     C32683   3.214   8.075   3.085  0.2703 -0.0590 -0.5542
  243MOL0     C32684   3.162   8.217   3.106  0.0560 -0.4803 -0.2038
  243MOL0     C32685   3.069   8.220   3.227  0.8078  0.0632  0.3444
  243MOL0     C32686   3.134   8.241   3.368 -0.4823  0.0615  0.0981
  243MOL0     N32687   3.148   8.385   3.392  0.6610  0.4105 -0.0898
  243MOL0     C32688   3.052   8.473   3.443 -0.4041  0.4690 -0.2610
  243MOL0     C32689   3.106   8.596   3.433 -0.8324 -0.3385  0.4624
  243MOL0     C32690   3.040   8.723   3.476  0.4680  0.3317  0.5903
  243MOL0     C32691   2.938   8.774   3.385 -0.7188  0.4445 -0.9482
  243MOL0     C32692   2.876   8.905   3.420 -0.4316 -0.1475  0.2494
  243MOL0     C32693   2.851   8.975   3.282  0.8639 -0.3635 -0.5671
  243MOL0     O32694   2.765   9.085   3.294  0.1361 -0.8964 -0.1439
  243MOL0     C32695   2.725   9.122   3.173  0.9315  0.9220  0.5062
  243MOL0     C32696   2.759   9.226   3.098  0.3466 -0.2127 -1.0263
  243MOL0     C32697   2.715   9.253   2.972 -0.2170 -0.2728 -0.3728
  243MOL0     C32698   2.773   9.372   2.907  0.3188 -0.5349 -0.3058
  243MOL0     C32699   2.618   9.171   2.905 -0.1124 -0.8046 -0.1235
  243MOL0     C32700   2.567   9.179   2.772  0.3624  0.2016  0.2588
  243MOL0     O32701   2.477   9.074   2.728 -0.5338  0.0324  0.0799
  243MOL0     C32702   2.450   9.036   2.600 -0.6679  0.2582  0.0655
  243MOL0     C32703   2.541   9.028   2.490  0.6863  0.3061  0.7395
  243MOL0     C32704   2.490   8.993   2.367  0.8731  0.4496 -0.2822
  243MOL0     C32705   2.359   8.965   2.340  0.3136  0.3963  0.3381
  243MOL0     O32706   2.321   8.938   2.209  0.5615  0.1198 -0.6534
  243MOL0     C32707   2.199   8.859   2.204  0.0570 -0.4211 -0.2513
  243MOL0     C32708   2.198   8.758   2.079  0.6675 -0.0526 -0.2041
  243MOL0     C32709   2.061   8.693   2.057 -0.7230 -0.6433  0.0640
  243MOL0     C32710   2.072   8.557   1.993  0.0165 -0.2654 -0.9418
  243MOL0     C32711   1.940   8.476   1.978  0.3392  0.3418  0.9035
  243MOL0     C32712   1.878   8.448   2.108  1.1977 -0.2057 -0.4882
  243MOL0     C32713   1.945   8.337   2.199  0.4196 -1.2895 -0.1636
  243MOL0     C32714   1.880   8.327   2.343 -0.5068 -0.8990  0.8413
  243MOL0    Cl32715   1.928   8.186   2.435 -0.2727  0.2936  0.4013
  243MOL0     C32716   2.274   8.978   2.447 -0.1833 -0.4811  0.2122
  243MOL0     C32717   2.316   9.017   2.577 -0.0659  0.2045 -0.2289
  243MOL0     O32718   2.588   9.279   2.704  0.0597 -0.1103  0.9323
  243MOL0     C32719   2.575   9.062   2.984 -0.3000  0.1711  0.3865
  243MOL0     C32720   2.622   9.049   3.113 -0.1079 -1.2066 -0.0883
  243MOL0     N32721   3.220   8.591   3.356  0.5155 -0.2054 -1.1183
  243MOL0     N32722   3.243   8.464   3.339  0.0603 -0.6619 -0.2084
  243MOL0     C32723   3.879   7.889   2.812  0.8262 -0.4352  0.1135
  243MOL0     C32724   3.993   7.901   2.741 -0.4614  0.1814 -0.2248
  243MOL0     C32725   4.305   7.868   2.437  0.8833  0.1366 -0.1739
  243MOL0     C32726   4.386   7.981   2.439 -0.8563 -0.1240  0.0341
  243MOL0     C32727   4.519   7.974   2.394  0.0006  0.7350 -0.4534
  243MOL0     C32728   4.574   7.853   2.349 -0.3437 -0.6780 -0.4792
  243MOL0     O32729   4.699   7.851   2.298 -1.3227  0.1117  0.1965
  243MOL0     C32730   4.762   7.715   2.312  0.0178  0.1005 -0.5809
  243MOL0     C32731   4.913   7.739   2.290  0.7746  0.3884  0.1001
  243MOL0     C32732   4.943   7.788   2.144 -0.1320  0.5151  0.2357
  243MOL0     C32733   4.897   7.701   2.028  0.4043 -0.1994  0.4791
  243MOL0     C32734   4.893   7.777   1.903  0.4712  0.2414 -0.5642
  243MOL0     C32735   4.890   7.830   1.793  0.3169 -0.0317  1.2333
  243MOL0     C32736   4.497   7.735   2.359  0.2148  0.1120 -0.2369
  243MOL0     C32737   4.361   7.745   2.401  0.4539 -0.1887  0.0977
  243MOL0     H32738   3.923   8.126   2.517 -1.9041  0.6296  0.9484
  243MOL0     H32739   3.701   8.117   2.626  2.0576  0.5762 -1.2319
  243MOL0     H32740   3.548   7.798   2.819  2.4470 -1.1955 -0.6575
  243MOL0     H32741   3.657   7.806   2.949 -0.9504 -0.4720 -0.6581
  243MOL0     H32742   3.470   7.854   3.068  3.0909 -0.4680 -1.1383
  243MOL0     H32743   3.502   8.022   3.011 -2.8567 -0.3368  0.5800
  243MOL0     H32744   3.353   7.916   2.803 -0.8898  0.0522  0.4548
  243MOL0     H32745   3.286   7.838   2.944  2.3382 -0.7296  0.9910
  243MOL0     H32746   3.338   8.129   2.922  2.3019 -4.0002 -2.2350
  243MOL0     H32747   3.181   8.075   2.873 -2.1971  0.5899  2.1474
  243MOL0     H32748   3.127   8.009   3.098  0.4166  0.1336  1.8484
  243MOL0     H32749   3.297   8.051   3.152  1.2795 -0.7868 -2.0163
  243MOL0     H32750   3.245   8.286   3.125 -0.9865  0.4139  1.3090
  243MOL0     H32751   3.124   8.259   3.013 -0.2625 -0.0894  0.1008
  243MOL0     H32752   3.003   8.305   3.208  0.2314 -0.0385  1.7999
  243MOL0     H32753   3.007   8.131   3.238  1.8130 -0.7712 -0.5498
  243MOL0     H32754   3.233   8.196   3.362 -1.8344 -2.9806 -1.6980
  243MOL0     H32755   3.074   8.190   3.444 -1.1994 -1.5491 -1.4868
  243MOL0     H32756   2.968   8.441   3.505  2.0182 -1.8737  2.0861
  243MOL0     H32757   2.993   8.707   3.574 -1.8233 -2.4249 -0.8026
  243MOL0     H32758   3.115   8.802   3.487 -0.2708  1.1176  0.1636
  243MOL0     H32759   2.864   8.693   3.376 -2.2028  0.8027  4.5440
  243MOL0     H32760   3.002   8.782   3.296  1.1171 -3.2454 -0.1790
  243MOL0     H32761   2.956   8.965   3.464 -0.3523  1.2697 -1.6810
  243MOL0     H32762   2.788   8.897   3.485  0.0124 -4.2134  0.6004
  243MOL0     H32763   2.801   8.905   3.215  0.6699 -0.5711 -0.2123
  243MOL0     H32764   2.944   9.003   3.233  0.6732  1.8726  0.2294
  243MOL0     H32765   2.839   9.287   3.139 -0.0969 -1.8336  2.6205
  243MOL0     H32766   2.815   9.448   2.974 -2.2040  1.3373 -0.6639
  243MOL0     H32767   2.837   9.336   2.826  2.1583  0.9898  0.3786
  243MOL0     H32768   2.703   9.429   2.846  3.0070  0.9144 -2.2318
  243MOL0     H32769   2.648   9.045   2.500  0.3694  2.6484  0.7699
  243MOL0     H32770   2.563   8.991   2.287 -0.7388 -0.2612 -1.8104
  243MOL0     H32771   2.169   8.803   2.293 -1.7231  2.1207  0.8593
  243MOL0     H32772   2.127   8.937   2.179  3.2999  2.9321 -0.0064
  243MOL0     H32773   2.238   8.810   1.993 -0.1128  1.8525  0.5331
  243MOL0     H32774   2.259   8.669   2.099 -1.7795 -1.4060  1.9332
  243MOL0     H32775   1.986   8.753   2.005 -3.3737 -3.1784  0.6957
  243MOL0     H32776   2.017   8.675   2.156 -1.3897 -2.2174 -0.4941
  243MOL0     H32777   2.120   8.575   1.897 -0.7174  0.5805 -1.1657
  243MOL0     H32778   2.136   8.499   2.060  0.1730 -1.5409 -2.1410
  243MOL0     H32779   1.952   8.379   1.929  1.5867 -0.2270  2.2634
  243MOL0     H32780   1.879   8.544   1.918 -0.2813  0.9414  2.1696
  243MOL0     H32781   1.862   8.542   2.162  0.1732  2.6920 -5.2224
  243MOL0     H32782   1.779   8.410   2.081  0.6376 -0.6680  1.9392
  243MOL0     H32783   2.052   8.356   2.215  0.4030 -0.7206 -0.7085
  243MOL0     H32784   1.928   8.240   2.151  2.1772 -0.2010 -3.2614
  243MOL0     H32785   1.771   8.320   2.330 -0.6224  1.9167 -0.2781
  243MOL0     H32786   1.907   8.424   2.387 -0.2968  0.4277 -2.0174
  243MOL0     H32787   2.168   8.980   2.421 -0.4506 -4.3201  0.3572
  243MOL0     H32788   2.242   9.037   2.654 -0.6660 -1.5274 -0.2944
  243MOL0     H32789   2.504   8.991   2.943 -2.6507  1.2326  2.3610
  243MOL0     H32790   2.583   8.972   3.178 -1.2161  0.3460  1.1541
  243MOL0     H32791   3.881   7.829   2.902  4.0563 -0.5326  0.0823
  243MOL0     H32792   4.074   7.853   2.796 -1.8993  0.0483  1.8939
  243MOL0     H32793   4.331   8.072   2.459 -1.7699 -1.0047  1.7623
  243MOL0     H32794   4.581   8.063   2.386  1.4952  0.0233  1.9340
  243MOL0     H32795   4.739   7.674   2.411  0.5632 -0.4779 -0.6840
  243MOL0     H32796   4.736   7.642   2.235  0.3258  0.6854 -1.2556
  243MOL0     H32797   4.967   7.644   2.302  0.1231 -0.4832 -3.0508
  243MOL0     H32798   4.958   7.806   2.365 -0.3789 -0.5038  1.6451
  243MOL0     H32799   5.052   7.799   2.136 -0.0914  0.2223  0.3953
  243MOL0     H32800   4.889   7.882   2.130 -3.0317 -0.9584  0.7620
  243MOL0     H32801   4.799   7.654   2.038  0.1851 -0.1073 -0.9317
  243MOL0     H32802   4.971   7.623   2.008  1.6139  1.1288 -0.5483
  243MOL0     H32803   4.875   7.879   1.699  0.7046 -0.8626  0.7293
  243MOL0     H32804   4.530   7.637   2.327  1.1331 -0.0374  1.0651
  243MOL0     H32805   4.304   7.653   2.408  2.3681 -1.5091 -0.8329
  244MOL0     O32806   9.276   4.686   7.172  0.3559  0.8312  0.0244
  244MOL0     C32807   9.211   4.655   7.073  0.5096  0.4846 -0.2239
  244MOL0     O32808   9.071   4.681   7.054 -0.5132  0.0162 -0.6471
  244MOL0     C32809   8.990   4.721   7.163  0.3371  0.0724 -0.1625
  244MOL0     C32810   8.864   4.781   7.137 -1.2680 -1.0370 -0.2238
  244MOL0     C32811   8.772   4.810   7.240  0.0060 -0.9317 -0.6495
  244MOL0     C32812   8.811   4.783   7.371 -0.7129 -0.0351 -1.2788
  244MOL0     O32813   8.728   4.820   7.480  0.1103 -0.2128  0.1428
  244MOL0     C32814   8.766   4.950   7.531 -1.3392 -0.0763  1.7236
  244MOL0     C32815   8.656   5.012   7.619 -0.6631  0.4566  0.7158
  244MOL0     C32816   8.707   5.136   7.699  0.8803 -0.4951  0.3804
  244MOL0     C32817   8.587   5.207   7.774 -0.0966  0.0498  0.2388
  244MOL0     C32818   8.638   5.337   7.833 -0.0534  1.2842 -0.3586
  244MOL0     C32819   8.536   5.433   7.894 -0.2102 -0.3144 -0.4187
  244MOL0     C32820   8.465   5.386   8.027 -0.2744  0.0206 -0.5310
  244MOL0     C32821   8.562   5.392   8.147  0.7672  0.5800 -0.1561
  244MOL0     N32822   8.544   5.520   8.212 -0.0932  0.8699 -0.0985
  244MOL0     C32823   8.442   5.545   8.301  0.0362  0.4311 -0.2842
  244MOL0     C32824   8.486   5.658   8.363 -0.7146  0.1886  0.0710
  244MOL0     C32825   8.419   5.722   8.485  0.2316 -0.0182  0.6025
  244MOL0     C32826   8.504   5.713   8.613  0.3784  0.0495  0.9370
  244MOL0     C32827   8.411   5.761   8.730  0.0112 -0.2341 -0.7968
  244MOL0     C32828   8.493   5.798   8.854 -0.5532 -0.7002  0.1234
  244MOL0     O32829   8.398   5.830   8.967  0.2257 -0.2439  0.4255
  244MOL0     C32830   8.442   5.868   9.091  0.6252  0.5862  0.4359
  244MOL0     C32831   8.578   5.884   9.126 -0.1918  1.4008 -0.2370
  244MOL0     C32832   8.619   5.921   9.256 -0.1128 -0.4449 -0.3049
  244MOL0     C32833   8.764   5.899   9.291  0.3344 -0.2662 -0.3377
  244MOL0     C32834   8.522   5.941   9.356 -0.4099 -1.1413 -0.4403
  244MOL0     C32835   8.553   5.983   9.498  0.2213 -0.5086  0.0053
  244MOL0     O32836   8.676   6.049   9.520 -0.1817  0.0577 -0.3336
  244MOL0     C32837   8.734   6.065   9.643  0.1038 -0.0796 -0.1555
  244MOL0     C32838   8.809   6.173   9.659 -0.9726 -0.0764 -0.8686
  244MOL0     C32839   8.847   6.226   9.786  0.8423  0.0000 -0.7682
  244MOL0     C32840   8.819   6.163   9.901 -0.6245  0.1080  0.0408
  244MOL0     O32841   8.871   6.192  10.030  0.0903  0.1630 -0.5218
  244MOL0     C32842   8.873   6.328  10.065  0.9930 -1.0468  0.1220
  244MOL0     C32843   8.916   6.345  10.210  0.1500  0.2992 -0.3558
  244MOL0     C32844   9.066   6.339  10.238 -0.7003 -0.4285 -0.0820
  244MOL0     C32845   9.109   6.320  10.390 -0.6343  0.2977  0.0764
  244MOL0     C32846   9.265   6.311  10.388  1.2916  0.1636 -0.2416
  244MOL0     C32847   9.308   6.325  10.542 -1.3821 -0.1109  0.2807
  244MOL0     C32848   9.469   6.329  10.556  0.3731  0.7686  0.2233
  244MOL0     C32849   9.502   6.326  10.708  0.1228  0.4243  0.3767
  244MOL0    Cl32850   9.494   6.168  10.781 -0.2167 -0.1480  0.2818
  244MOL0     C32851   8.748   6.040   9.880 -0.1705 -0.1250 -0.4990
  244MOL0     C32852   8.707   5.987   9.755  0.0810 -0.1165 -0.3241
  244MOL0     O32853   8.469   5.968   9.580  0.1536 -0.1875 -0.1843
  244MOL0     C32854   8.388   5.929   9.320  0.3452  0.9181 -0.3709
  244MOL0     C32855   8.352   5.890   9.188  0.5400 -0.2882 -0.7589
  244MOL0     N32856   8.613   5.697   8.309  0.0301 -0.3182 -0.6044
  244MOL0     N32857   8.643   5.616   8.224 -1.2487  0.2892  0.1888
  244MOL0     C32858   8.927   4.709   7.398  0.1435  0.0159 -0.0259
  244MOL0     C32859   9.008   4.674   7.291 -0.0995 -0.2143  0.5791
  244MOL0     C32860   9.267   4.588   6.957 -0.0547  0.0621  0.3156
  244MOL0     C32861   9.187   4.514   6.865 -0.0169  0.9160  0.3448
  244MOL0     C32862   9.258   4.423   6.783 -0.0687  0.2246  0.7429
  244MOL0     C32863   9.399   4.417   6.783  0.2291  0.2655  0.3192
  244MOL0     O32864   9.483   4.335   6.707 -0.5279 -0.6483 -0.0566
  244MOL0     C32865   9.442   4.202   6.721 -0.1742  0.2712 -0.6754
  244MOL0     C32866   9.541   4.126   6.636  0.2508  0.7937  0.1734
  244MOL0     C32867   9.510   4.140   6.487 -0.8427 -0.5447 -0.2930
  244MOL0     C32868   9.614   4.068   6.394  0.3500  1.1224 -0.1407
  244MOL0     C32869   9.747   4.128   6.407  0.6325 -0.3572  0.1619
  244MOL0     C32870   9.855   4.174   6.419 -0.6730 -0.4898  0.8767
  244MOL0     C32871   9.465   4.506   6.864 -0.1632  0.8547  1.1767
  244MOL0     C32872   9.404   4.595   6.944 -1.3218  0.1743  0.7934
  244MOL0     H32873   8.846   4.811   7.034  2.3680  0.0867 -0.6791
  244MOL0     H32874   8.676   4.855   7.218  0.6216  1.7403  1.6371
  244MOL0     H32875   8.857   4.925   7.586 -0.6609  0.5966  0.9383
  244MOL0     H32876   8.786   5.024   7.453 -2.0096  2.4169  3.7915
  244MOL0     H32877   8.577   5.037   7.547 -1.7080 -1.2225  1.2261
  244MOL0     H32878   8.623   4.937   7.691  0.7767  1.5953  2.6744
  244MOL0     H32879   8.770   5.097   7.780  2.5645  0.8700 -0.2000
  244MOL0     H32880   8.766   5.207   7.641  0.2733  0.6399  1.1269
  244MOL0     H32881   8.495   5.227   7.718 -1.2916 -1.7595  1.4217
  244MOL0     H32882   8.552   5.135   7.849  0.7716  0.7362  1.3197
  244MOL0     H32883   8.707   5.297   7.908 -0.4020 -3.3358 -2.1847
  244MOL0     H32884   8.701   5.390   7.761  0.3285 -0.1000 -1.0680
  244MOL0     H32885   8.593   5.525   7.909  1.1080 -1.4464  2.2389
  244MOL0     H32886   8.465   5.455   7.814 -1.7215  0.7545  1.1569
  244MOL0     H32887   8.373   5.442   8.044 -1.0346 -1.4281  0.3992
  244MOL0     H32888   8.433   5.282   8.015  0.7655 -0.4194  0.3081
  244MOL0     H32889   8.663   5.388   8.105 -0.4743 -1.0666 -3.3661
  244MOL0     H32890   8.554   5.303   8.210  0.0241 -0.0380 -1.0775
  244MOL0     H32891   8.352   5.488   8.325 -0.1416  0.6248 -0.4931
  244MOL0     H32892   8.392   5.822   8.450  0.4966 -0.5224 -1.1413
  244MOL0     H32893   8.323   5.679   8.512 -0.5809  0.9983 -0.5546
  244MOL0     H32894   8.596   5.771   8.605  0.9541 -0.9167  0.4830
  244MOL0     H32895   8.525   5.609   8.639  1.2208 -0.2020 -0.6704
  244MOL0     H32896   8.338   5.683   8.751  0.1269 -0.1127  0.0704
  244MOL0     H32897   8.365   5.854   8.696 -1.8128  0.3524  2.8319
  244MOL0     H32898   8.563   5.881   8.838  2.7723 -2.5893  3.1175
  244MOL0     H32899   8.552   5.707   8.869  0.4653  0.0158  0.6378
  244MOL0     H32900   8.651   5.838   9.059  2.0063  1.9857  1.6253
  244MOL0     H32901   8.808   5.994   9.323 -1.7107 -0.1666  2.6404
  244MOL0     H32902   8.783   5.828   9.372 -2.1665  1.6079  2.1023
  244MOL0     H32903   8.823   5.855   9.210  1.4055 -0.9087  0.7555
  244MOL0     H32904   8.834   6.236   9.575 -0.3821  1.4318  0.3789
  244MOL0     H32905   8.905   6.318   9.785  1.7447 -0.5487 -0.4421
  244MOL0     H32906   8.935   6.390  10.001 -1.1726  1.1106 -0.0193
  244MOL0     H32907   8.770   6.365  10.068  1.0300 -0.6479 -2.1054
  244MOL0     H32908   8.883   6.441  10.248  0.4355 -0.3113  1.5055
  244MOL0     H32909   8.869   6.265  10.268 -2.0523  1.0134 -1.0784
  244MOL0     H32910   9.120   6.429  10.206  0.1970 -0.8876  0.1042
  244MOL0     H32911   9.101   6.268  10.163  0.5625 -0.3467  0.4075
  244MOL0     H32912   9.067   6.390  10.462 -0.2160  2.0114 -1.2765
  244MOL0     H32913   9.074   6.220  10.417  1.1659 -0.1494  0.9728
  244MOL0     H32914   9.301   6.399  10.336 -1.8690  0.5186 -2.0985
  244MOL0     H32915   9.304   6.220  10.341  3.0786  2.2299 -3.0927
  244MOL0     H32916   9.263   6.417  10.580 -0.4754 -0.1812  1.5933
  244MOL0     H32917   9.271   6.251  10.614 -0.8487  2.4169  3.3815
  244MOL0     H32918   9.522   6.414  10.512 -0.3160  1.1575  0.1327
  244MOL0     H32919   9.500   6.239  10.503 -0.5564  1.3920 -1.4506
  244MOL0     H32920   9.419   6.385  10.750 -2.2772 -2.6434  0.3460
  244MOL0     H32921   9.596   6.379  10.724 -0.4635  1.7405 -0.3697
  244MOL0     H32922   8.732   5.971   9.962  0.8579 -0.8958 -0.9265
  244MOL0     H32923   8.661   5.890   9.738 -0.5179  0.2758 -0.9868
  244MOL0     H32924   8.310   5.948   9.393  0.8539 -0.5327  0.6035
  244MOL0     H32925   8.247   5.898   9.164 -0.5144  0.7367  3.3792
  244MOL0     H32926   8.957   4.675   7.497  0.8945  4.5975  1.5321
  244MOL0     H32927   9.093   4.622   7.334  1.4271  2.7449  1.3519
  244MOL0     H32928   9.079   4.523   6.868 -0.1927 -0.8726  0.6627
  244MOL0     H32929   9.195   4.360   6.722  0.2038 -0.9749  1.6566
  244MOL0     H32930   9.460   4.182   6.827 -1.3101  1.7223 -0.1641
  244MOL0     H32931   9.337   4.190   6.695 -0.0337 -0.3596 -0.9656
  244MOL0     H32932   9.544   4.019   6.657 -1.1829  0.2765 -1.9267
  244MOL0     H32933   9.635   4.168   6.671 -0.5550  2.3644  0.5807
  244MOL0     H32934   9.502   4.245   6.456 -3.7032 -0.1537  1.3939
  244MOL0     H32935   9.408   4.106   6.470 -0.6730 -2.4416  1.9597
  244MOL0     H32936   9.575   4.085   6.293  0.1716  0.1855 -0.2384
  244MOL0     H32937   9.617   3.961   6.413  1.7327  1.5980  2.9740
  244MOL0     H32938   9.953   4.216   6.423  0.8215 -3.3057 -1.6755
  244MOL0     H32939   9.574   4.501   6.864 -0.1898 -0.2669 -0.3434
  244MOL0     H32940   9.468   4.661   7.001  3.1772 -0.1388 -3.2638
  245MOL0     O32941   3.815   8.995   8.876  0.8020 -0.7019  0.6036
  245MOL0     C32942   3.874   8.929   8.955  0.8329  2.0593  0.4422
  245MOL0     O32943   4.007   8.904   8.955 -0.8584 -0.5261 -0.3671
  245MOL0     C32944   4.083   8.979   8.874  0.1166  0.4616  0.5933
  245MOL0     C32945   4.165   8.910   8.785  1.1327 -0.4789 -0.0637
  245MOL0     C32946   4.254   8.985   8.701 -0.1514  0.3077 -0.0586
  245MOL0     C32947   4.257   9.130   8.704  0.4726 -0.0092 -0.8718
  245MOL0     O32948   4.344   9.194   8.616 -0.1054 -0.2935 -0.2275
  245MOL0     C32949   4.353   9.334   8.606  0.4808 -1.2156 -0.4013
  245MOL0     C32950   4.452   9.391   8.705 -0.3534  0.6220 -0.9463
  245MOL0     C32951   4.594   9.354   8.671  0.2519 -0.2955  1.0236
  245MOL0     C32952   4.697   9.441   8.754  0.3638  0.3583 -0.3932
  245MOL0     C32953   4.844   9.449   8.718 -0.0723  0.8019  0.1709
  245MOL0     C32954   4.857   9.537   8.590  0.2578 -0.1541  1.0045
  245MOL0     C32955   5.009   9.543   8.560  0.4199  0.3340 -0.0786
  245MOL0     C32956   5.052   9.661   8.465 -0.1662  1.0727 -0.7420
  245MOL0     N32957   4.968   9.657   8.348 -0.1726 -0.1101 -0.1529
  245MOL0     C32958   4.979   9.581   8.236 -0.6796  1.0995 -0.5042
  245MOL0     C32959   4.893   9.631   8.147 -0.1731 -0.4837  0.4586
  245MOL0     C32960   4.884   9.613   8.002  0.0672  0.3397  0.5211
  245MOL0     C32961   5.001   9.672   7.922 -0.2827  1.0550 -0.2767
  245MOL0     C32962   4.974   9.683   7.777 -0.7212  0.1701 -0.1707
  245MOL0     C32963   4.949   9.560   7.696  0.4587  0.5262 -0.5054
  245MOL0     O32964   4.873   9.599   7.578  0.5003 -0.3561  0.5481
  245MOL0     C32965   4.792   9.503   7.521  0.0479  0.5750  0.0305
  245MOL0     C32966   4.660   9.496   7.555 -0.7234 -0.5974 -0.1452
  245MOL0     C32967   4.577   9.414   7.482  0.3317  0.1302 -0.6323
  245MOL0     C32968   4.423   9.417   7.520 -0.0463  0.7262 -0.9864
  245MOL0     C32969   4.625   9.326   7.382  0.2940  0.4204  0.3331
  245MOL0     C32970   4.546   9.222   7.316 -0.1048  0.9481  0.2988
  245MOL0     O32971   4.616   9.118   7.253 -0.2664  1.1061  0.4350
  245MOL0     C32972   4.544   9.007   7.217  0.0003 -0.6184 -0.1920
  245MOL0     C32973   4.500   8.919   7.319  0.1630  0.3128  0.7709
  245MOL0     C32974   4.406   8.819   7.286 -0.2924 -0.2006  0.1309
  245MOL0     C32975   4.350   8.818   7.155 -0.6107  0.4956 -0.8004
  245MOL0     O32976   4.243   8.726   7.132  0.5095  0.2598 -0.4058
  245MOL0     C32977   4.187   8.708   7.004  0.4599  0.4795 -0.0046
  245MOL0     C32978   4.080   8.801   6.977 -0.8076 -0.8685 -0.8472
  245MOL0     C32979   4.080   8.844   6.829  0.4212  0.4694 -0.1646
  245MOL0     C32980   3.970   8.948   6.803  0.0361  0.2199 -0.1054
  245MOL0     C32981   3.946   8.960   6.650  0.1855  0.0502  0.7237
  245MOL0     C32982   4.069   9.048   6.602  0.5984 -0.3042  1.2688
  245MOL0     C32983   4.078   9.023   6.458  0.2379  0.3354 -0.3482
  245MOL0     C32984   4.143   9.141   6.388  0.9339 -0.5887  0.4693
  245MOL0    Cl32985   4.030   9.279   6.376 -0.0356 -0.2107  0.4100
  245MOL0     C32986   4.384   8.919   7.062 -0.2955  0.6787  0.0571
  245MOL0     C32987   4.484   9.011   7.089  0.6897 -0.5189  0.6004
  245MOL0     O32988   4.424   9.245   7.296 -0.6143 -0.1229  0.6250
  245MOL0     C32989   4.765   9.321   7.365 -0.9898 -0.4473 -0.5902
  245MOL0     C32990   4.851   9.421   7.427  0.3049  0.2621  0.5471
  245MOL0     N32991   4.814   9.714   8.217 -0.7467 -0.1897 -0.1207
  245MOL0     N32992   4.859   9.740   8.333 -0.0495 -0.6607 -0.2950
  245MOL0     C32993   4.171   9.195   8.803 -0.7599  0.2477 -0.0675
  245MOL0     C32994   4.085   9.118   8.887  0.5722 -0.3705  0.1515
  245MOL0     C32995   3.789   8.863   9.053  0.0967 -0.4481  1.4229
  245MOL0     C32996   3.655   8.819   9.030 -0.6478 -0.3980 -0.4843
  245MOL0     C32997   3.581   8.766   9.136 -0.0914  0.3721  1.6129
  245MOL0     C32998   3.631   8.764   9.260 -1.0630 -0.7792 -0.3080
  245MOL0     O32999   3.569   8.737   9.381  0.2440 -0.0350  0.3889
  245MOL0     C33000   3.424   8.728   9.371 -0.4199  0.1465 -0.2899
  245MOL0     C33001   3.362   8.711   9.511  0.0085 -0.4851 -1.5510
  245MOL0     C33002   3.371   8.838   9.602  0.0263 -0.4226 -0.1948
  245MOL0     C33003   3.308   8.855   9.744  0.3511  0.7544  0.2708
  245MOL0     C33004   3.163   8.862   9.724  0.5119 -0.8822  0.4122
  245MOL0     C33005   3.044   8.868   9.710  0.5807  0.0765  0.0218
  245MOL0     C33006   3.762   8.797   9.281  0.3883  0.3473  0.5233
  245MOL0     C33007   3.842   8.847   9.181 -0.0669 -0.6797 -0.2541
  245MOL0     H33008   4.159   8.802   8.778 -1.0351 -0.3348 -1.9863
  245MOL0     H33009   4.333   8.941   8.641  0.3411  1.0054  0.0767
  245MOL0     H33010   4.386   9.357   8.505  1.4762  0.2974  0.2300
  245MOL0     H33011   4.253   9.372   8.627  1.8735  2.3964  0.3344
  245MOL0     H33012   4.444   9.498   8.686  0.4688  0.8095 -0.2811
  245MOL0     H33013   4.438   9.381   8.813 -0.2534  3.3952 -0.6048
  245MOL0     H33014   4.620   9.248   8.679 -2.1972 -1.0851 -0.3276
  245MOL0     H33015   4.607   9.376   8.565  3.6798  0.6291  1.5392
  245MOL0     H33016   4.666   9.546   8.748  0.6232  0.3939 -1.3171
  245MOL0     H33017   4.683   9.412   8.858 -2.1615  1.4389 -0.3606
  245MOL0     H33018   4.888   9.492   8.809  2.5897 -1.5274  0.1105
  245MOL0     H33019   4.890   9.355   8.686  0.2675  0.8012  0.6496
  245MOL0     H33020   4.806   9.482   8.510  0.1791 -0.8304  1.5166
  245MOL0     H33021   4.804   9.632   8.605 -2.0298 -1.5114  2.1043
  245MOL0     H33022   5.065   9.557   8.653 -1.8260 -1.1165  1.5866
  245MOL0     H33023   5.039   9.445   8.522  3.2624 -0.4945  3.6443
  245MOL0     H33024   5.160   9.652   8.450  0.1588  2.8265  0.2291
  245MOL0     H33025   5.024   9.747   8.527  1.7124  0.9714  0.3427
  245MOL0     H33026   5.051   9.501   8.218 -2.3443 -0.5589 -0.0405
  245MOL0     H33027   4.865   9.509   7.973 -1.4211  0.6691  0.2348
  245MOL0     H33028   4.801   9.668   7.958  1.4276  0.1483 -2.5427
  245MOL0     H33029   5.083   9.601   7.929 -2.4036 -1.4645  0.9066
  245MOL0     H33030   5.029   9.770   7.961 -0.2282  1.9088 -2.3373
  245MOL0     H33031   5.056   9.744   7.738  0.7548 -1.8164 -0.3459
  245MOL0     H33032   4.888   9.751   7.771 -1.8985 -1.2759 -0.2105
  245MOL0     H33033   4.898   9.476   7.744 -0.2661  1.0852 -0.2776
  245MOL0     H33034   5.048   9.524   7.667  1.7764  2.6209  1.1339
  245MOL0     H33035   4.611   9.546   7.639 -1.0180 -3.5955  1.6171
  245MOL0     H33036   4.384   9.316   7.536 -0.8696  1.1966  0.0566
  245MOL0     H33037   4.401   9.472   7.612  2.9371 -2.2938  1.8168
  245MOL0     H33038   4.379   9.465   7.432  0.5669  1.4641 -0.8938
  245MOL0     H33039   4.528   8.931   7.424  0.5635  2.4278  0.4734
  245MOL0     H33040   4.385   8.756   7.371  0.2757  2.4130  2.3200
  245MOL0     H33041   4.260   8.720   6.923  0.4732  3.0702  0.2861
  245MOL0     H33042   4.151   8.606   6.988  1.2470  0.3914 -1.3476
  245MOL0     H33043   3.990   8.745   7.005 -0.9406 -2.0457 -3.3157
  245MOL0     H33044   4.092   8.885   7.045 -2.3180  0.3575 -2.0339
  245MOL0     H33045   4.061   8.752   6.774  1.4545 -1.1370  2.0207
  245MOL0     H33046   4.176   8.892   6.809 -1.0643  3.8700  0.2102
  245MOL0     H33047   3.872   8.935   6.851 -0.2977  2.8727  0.1222
  245MOL0     H33048   3.990   9.046   6.847  1.8649  0.0444 -0.4592
  245MOL0     H33049   3.848   9.004   6.630  1.1213  2.0513  0.2130
  245MOL0     H33050   3.952   8.865   6.597 -0.0129  0.2989  0.2515
  245MOL0     H33051   4.054   9.152   6.633 -2.4040 -1.1456  3.0357
  245MOL0     H33052   4.158   9.010   6.652  2.1291 -0.4165 -1.3755
  245MOL0     H33053   3.981   8.998   6.414  0.9992 -2.4315 -0.6680
  245MOL0     H33054   4.142   8.936   6.436 -2.6432 -2.0143 -0.0081
  245MOL0     H33055   4.179   9.101   6.292  0.4033 -1.6975  0.7137
  245MOL0     H33056   4.232   9.181   6.438 -0.5013  1.8898  1.1900
  245MOL0     H33057   4.334   8.938   6.967  3.2456  2.9538 -1.5748
  245MOL0     H33058   4.505   9.093   7.021 -4.7571 -0.0486 -0.9879
  245MOL0     H33059   4.811   9.254   7.293  1.7312 -0.3718  0.9583
  245MOL0     H33060   4.957   9.422   7.400 -0.2804 -2.5712 -2.4227
  245MOL0     H33061   4.161   9.302   8.815 -1.7115  0.2263 -0.5709
  245MOL0     H33062   4.013   9.178   8.943  0.9602 -0.8044  1.1434
  245MOL0     H33063   3.613   8.821   8.930 -1.3109 -1.2608 -0.2328
  245MOL0     H33064   3.484   8.719   9.119 -1.1099  3.4165 -2.8772
  245MOL0     H33065   3.384   8.823   9.334 -1.0065  0.6220  1.4398
  245MOL0     H33066   3.387   8.647   9.306 -1.6717  0.4006  0.0726
  245MOL0     H33067   3.404   8.619   9.553 -0.8653 -0.3970 -0.4500
  245MOL0     H33068   3.255   8.688   9.507 -0.3447  0.4106  1.0592
  245MOL0     H33069   3.323   8.922   9.551  2.1311  1.4900  0.7838
  245MOL0     H33070   3.475   8.871   9.605 -0.5302  1.5360 -0.8550
  245MOL0     H33071   3.343   8.945   9.794 -1.1299  0.6205  1.6266
  245MOL0     H33072   3.311   8.771   9.814 -4.0324  3.1656  3.8714
  245MOL0     H33073   2.938   8.881   9.709  0.2080 -2.3235  0.7912
  245MOL0     H33074   3.820   8.786   9.373  2.4193 -1.2457 -0.8520
  245MOL0     H33075   3.939   8.881   9.214 -0.8085  2.3875 -0.9109
  246MOL0     O33076   8.464   7.248  10.865  0.1056 -0.0366 -0.0507
  246MOL0     C33077   8.381   7.213  10.949  0.3560  0.1142 -0.5090
  246MOL0     O33078   8.401   7.109  11.038 -0.0986  0.2019  0.5739
  246MOL0     C33079   8.527   7.054  11.034  0.8905  0.2113 -0.4431
  246MOL0     C33080   8.629   7.107  11.119  0.2880 -0.2767  0.7281
  246MOL0     C33081   8.753   7.050  11.113 -0.4222 -0.7205 -0.2242
  246MOL0     C33082   8.776   6.959  11.011  0.7685 -0.5434 -0.4362
  246MOL0     O33083   8.903   6.908  10.999 -1.0159  0.1927  1.0306
  246MOL0     C33084   8.973   6.932  10.869 -0.2262  0.0379 -0.1083
  246MOL0     C33085   8.999   6.803  10.789 -0.2907  0.0071  0.0363
  246MOL0     C33086   9.092   6.845  10.668  0.5976  0.6066 -0.8891
  246MOL0     C33087   9.105   6.715  10.582  0.7623  0.5567  0.2737
  246MOL0     C33088   9.239   6.712  10.517  0.0985  0.4032  0.0013
  246MOL0     C33089   9.286   6.837  10.438 -0.4295  0.4235 -0.1531
  246MOL0     C33090   9.201   6.845  10.320  0.4118  0.1323 -0.6026
  246MOL0     C33091   9.214   6.975  10.236  0.3947 -0.8540 -0.5679
  246MOL0     N33092   9.191   7.096  10.314 -0.0727 -0.1887  0.8762
  246MOL0     C33093   9.071   7.119  10.374 -0.3948  0.5567 -0.3449
  246MOL0     C33094   9.087   7.244  10.432 -0.1071 -0.2223 -1.1633
  246MOL0     C33095   8.984   7.319  10.487  0.6436  0.2286 -0.9420
  246MOL0     C33096   8.957   7.289  10.638 -0.4371  0.6139  0.3854
  246MOL0     C33097   8.895   7.407  10.716 -0.8408  0.3812 -1.0684
  246MOL0     C33098   8.896   7.343  10.858  0.9755 -0.3517 -0.1124
  246MOL0     O33099   8.861   7.447  10.958 -0.6430 -0.0090 -0.2166
  246MOL0     C33100   8.787   7.565  10.936  0.3056  0.4003 -0.0401
  246MOL0     C33101   8.661   7.574  10.871  0.0125  0.5700 -0.3121
  246MOL0     C33102   8.604   7.693  10.845  0.6533  0.7198 -0.2142
  246MOL0     C33103   8.480   7.686  10.756 -0.2687 -0.0840  0.1182
  246MOL0     C33104   8.666   7.819  10.886  0.2685 -0.2448  0.3642
  246MOL0     C33105   8.603   7.952  10.871  0.0593 -0.3396 -0.6113
  246MOL0     O33106   8.679   8.048  10.921 -0.6432 -0.2955 -0.0814
  246MOL0     C33107   8.659   8.177  10.889 -0.0827  0.3777  0.4184
  246MOL0     C33108   8.590   8.228  10.768 -0.1525 -1.0675  0.8489
  246MOL0     C33109   8.582   8.364  10.743 -0.4322 -0.0834 -0.4658
  246MOL0     C33110   8.640   8.456  10.827  1.0854 -0.2667 -0.5812
  246MOL0     O33111   8.632   8.591  10.808 -0.2426 -0.2811  0.7468
  246MOL0     C33112   8.500   8.645  10.845  0.3305 -0.4462  0.0542
  246MOL0     C33113   8.501   8.804  10.834  0.7218 -0.1126 -0.8126
  246MOL0     C33114   8.621   8.858  10.910  0.2694  0.2297 -0.0958
  246MOL0     C33115   8.621   9.011  10.907 -0.4340  1.5331  0.2948
  246MOL0     C33116   8.747   9.068  10.987 -0.1058 -0.2857  0.0932
  246MOL0     C33117   8.878   9.069  10.922  0.6520 -0.3216  0.5505
  246MOL0     C33118   8.891   9.194  10.822  0.5714  0.0602  0.2556
  246MOL0     C33119   9.032   9.210  10.781 -0.2166  0.1021 -0.3599
  246MOL0    Cl33120   9.087   9.041  10.712  0.3517 -0.1783  0.4827
  246MOL0     C33121   8.710   8.402  10.941  0.1064 -0.5227  0.6319
  246MOL0     C33122   8.731   8.269  10.961 -1.0604 -1.0139 -0.5941
  246MOL0     O33123   8.486   7.961  10.822  0.3584  1.0481 -0.4312
  246MOL0     C33124   8.791   7.805  10.951 -0.1839 -0.1842  0.5065
  246MOL0     C33125   8.848   7.684  10.976  0.6278 -0.4253  0.8639
  246MOL0     N33126   9.217   7.282  10.415  0.8977  0.9650  0.6006
  246MOL0     N33127   9.276   7.198  10.337  0.2776 -0.4571 -0.6069
  246MOL0     C33128   8.678   6.903  10.928  0.0579  0.6731 -0.0868
  246MOL0     C33129   8.547   6.942  10.948  0.4775 -0.0760  0.3650
  246MOL0     C33130   8.265   7.301  10.955 -0.9599 -0.6062  0.3063
  246MOL0     C33131   8.233   7.379  10.846 -0.2479 -0.6900  0.3940
  246MOL0     C33132   8.111   7.459  10.833 -0.3212  0.1923  0.4187
  246MOL0     C33133   8.027   7.456  10.934 -0.1623  0.6163  0.2916
  246MOL0     O33134   7.906   7.522  10.911 -1.6197 -0.0397  0.2861
  246MOL0     C33135   7.791   7.489  10.990  0.4274  0.1189 -0.1247
  246MOL0     C33136   7.666   7.549  10.931  0.7692 -0.1935 -0.2111
  246MOL0     C33137   7.653   7.543  10.788 -0.1147 -0.5052 -0.0607
  246MOL0     C33138   7.566   7.660  10.742 -0.1888  0.0674 -0.8405
  246MOL0     C33139   7.543   7.637  10.594 -0.2287 -0.1862  0.0450
  246MOL0     C33140   7.514   7.606  10.475 -0.4236 -0.0523  0.0800
  246MOL0     C33141   8.049   7.362  11.039 -0.1507 -0.2475 -0.2004
  246MOL0     C33142   8.166   7.280  11.051  0.4662 -0.2953 -0.2229
  246MOL0     H33143   8.622   7.193  11.186  0.1956 -1.4390  2.2616
  246MOL0     H33144   8.841   7.090  11.161  1.2268  1.4979 -4.5312
  246MOL0     H33145   8.915   7.005  10.812 -2.2161  1.4764  3.4371
  246MOL0     H33146   9.069   6.970  10.906  0.4208  0.8183 -2.4124
  246MOL0     H33147   9.051   6.718  10.834  0.4070 -1.5416 -3.3948
  246MOL0     H33148   8.905   6.765  10.750 -1.1458  0.1499  1.8385
  246MOL0     H33149   9.036   6.914  10.605 -0.4238 -0.0670 -0.7492
  246MOL0     H33150   9.191   6.873  10.704  0.0077  1.8817 -0.1946
  246MOL0     H33151   9.110   6.634  10.656  0.0116  1.4935  1.3884
  246MOL0     H33152   9.016   6.701  10.520 -0.0866  0.8581  1.3975
  246MOL0     H33153   9.313   6.687  10.594  0.6355 -2.0918 -1.2380
  246MOL0     H33154   9.239   6.631  10.443 -1.3388  1.4421 -1.2036
  246MOL0     H33155   9.283   6.921  10.507  0.4391 -1.2957  2.1296
  246MOL0     H33156   9.390   6.820  10.410 -0.7478 -1.5997 -0.2567
  246MOL0     H33157   9.228   6.765  10.250  0.5483  1.2041 -1.8051
  246MOL0     H33158   9.097   6.842  10.354  1.3196  0.6391  2.5760
  246MOL0     H33159   9.141   6.970  10.155 -0.7916 -4.6379  0.5082
  246MOL0     H33160   9.313   6.988  10.190  1.0199  0.7624  1.1300
  246MOL0     H33161   8.989   7.048  10.368  0.7849 -0.7472 -2.0833
  246MOL0     H33162   9.037   7.413  10.471  2.6025 -0.7110 -0.2912
  246MOL0     H33163   8.893   7.319  10.427  0.5266 -1.0309 -0.8049
  246MOL0     H33164   9.053   7.266  10.686 -0.5197  0.3931  0.4436
  246MOL0     H33165   8.896   7.199  10.650  2.0638 -1.1321  0.7565
  246MOL0     H33166   8.795   7.427  10.676 -2.1745 -1.6794  0.9890
  246MOL0     H33167   8.962   7.494  10.709 -0.5522  0.3624  0.8163
  246MOL0     H33168   8.996   7.309  10.887  0.2098 -0.3070  2.8920
  246MOL0     H33169   8.826   7.259  10.860 -0.4132  0.6549 -2.3570
  246MOL0     H33170   8.620   7.477  10.844 -2.2547  0.9915  1.3927
  246MOL0     H33171   8.471   7.582  10.724 -1.6575 -0.7515  2.3906
  246MOL0     H33172   8.388   7.711  10.809  1.2460  0.3675  2.7069
  246MOL0     H33173   8.494   7.752  10.670  1.6761  1.2152  1.3462
  246MOL0     H33174   8.526   8.171  10.701 -2.2472  0.9399  0.9820
  246MOL0     H33175   8.529   8.377  10.649 -2.1746 -1.5386  0.2553
  246MOL0     H33176   8.412   8.608  10.790 -0.2279 -1.1842  1.3856
  246MOL0     H33177   8.479   8.612  10.947  1.2248 -0.8324  0.1228
  246MOL0     H33178   8.514   8.822  10.727 -1.3539 -2.8009 -1.6103
  246MOL0     H33179   8.405   8.850  10.856 -1.0659 -2.5612 -2.9798
  246MOL0     H33180   8.709   8.817  10.858  2.7003  2.4576  1.9576
  246MOL0     H33181   8.632   8.823  11.013  3.6233  1.8795  0.2635
  246MOL0     H33182   8.629   9.048  10.804 -0.0602  5.2470  1.4817
  246MOL0     H33183   8.530   9.054  10.948 -2.2544 -2.9508  1.4734
  246MOL0     H33184   8.756   8.999  11.072 -0.1908 -2.0711 -1.2861
  246MOL0     H33185   8.724   9.166  11.030  0.1549 -0.9987  1.9899
  246MOL0     H33186   8.957   9.059  10.997  0.9541 -1.0496  0.1438
  246MOL0     H33187   8.879   8.984  10.854  4.9994 -0.4543  0.4706
  246MOL0     H33188   8.868   9.279  10.887  3.0204 -1.6298  3.6326
  246MOL0     H33189   8.826   9.193  10.734  1.8821 -1.0477 -0.7473
  246MOL0     H33190   9.106   9.227  10.860 -1.1903  1.5186  0.2840
  246MOL0     H33191   9.052   9.294  10.714 -1.9246  1.6877  1.0231
  246MOL0     H33192   8.750   8.470  11.016 -0.6165 -0.2129  0.7443
  246MOL0     H33193   8.782   8.237  11.051  1.7599 -0.2795 -1.8416
  246MOL0     H33194   8.838   7.894  10.991 -1.2340 -0.5046  2.6201
  246MOL0     H33195   8.942   7.680  11.029  0.4622  0.7440  1.2702
  246MOL0     H33196   8.712   6.817  10.871 -2.1786 -0.5875  0.3867
  246MOL0     H33197   8.455   6.920  10.896  1.2847  0.7723 -1.4869
  246MOL0     H33198   8.299   7.384  10.761 -2.3958 -1.3337 -1.3985
  246MOL0     H33199   8.085   7.529  10.755 -3.4957  0.1583  1.3300
  246MOL0     H33200   7.782   7.380  10.995 -1.6108  0.3189  2.4010
  246MOL0     H33201   7.812   7.523  11.091  2.7141 -1.7196  0.1261
  246MOL0     H33202   7.666   7.648  10.977  2.3166 -0.9900  1.6484
  246MOL0     H33203   7.573   7.509  10.974 -0.6237  2.6614 -0.3573
  246MOL0     H33204   7.616   7.447  10.751 -2.0412 -0.2768  1.1207
  246MOL0     H33205   7.747   7.567  10.738  1.6663 -2.5794  2.0742
  246MOL0     H33206   7.613   7.758  10.755 -1.0452  0.8029 -2.8434
  246MOL0     H33207   7.470   7.662  10.795 -0.9800 -0.6775 -2.1877
  246MOL0     H33208   7.504   7.580  10.372  0.0501  1.3072 -0.3338
  246MOL0     H33209   7.983   7.340  11.122 -1.2788 -0.0856 -1.0335
  246MOL0     H33210   8.165   7.204  11.128 -0.1684 -0.8285 -0.7425
  247MOL0     O33211   1.366   6.955   2.120 -0.2854 -0.9009 -1.3266
  247MOL0     C33212   1.462   6.946   2.042 -0.8853  0.3390  0.5605
  247MOL0     O33213   1.522   7.044   1.958 -0.3439 -0.1418 -0.3802
  247MOL0     C33214   1.435   7.140   1.908 -0.2329  0.1563 -0.1856
  247MOL0     C33215   1.322   7.104   1.837 -0.1527  0.4221 -0.1096
  247MOL0     C33216   1.243   7.211   1.783 -1.3853 -0.6175 -0.5024
  247MOL0     C33217   1.293   7.349   1.790  0.1284  0.3386 -0.5289
  247MOL0     O33218   1.212   7.444   1.742 -0.1608 -0.6942 -0.0005
  247MOL0     C33219   1.202   7.457   1.606 -0.3854 -0.4965  0.2476
  247MOL0     C33220   1.145   7.599   1.566 -0.6592 -0.1905  0.9937
  247MOL0     C33221   1.100   7.590   1.418 -0.3027 -1.1606  0.3448
  247MOL0     C33222   0.972   7.512   1.395  0.0796 -0.2307  0.6900
  247MOL0     C33223   0.942   7.507   1.242  0.0278 -0.1240 -0.6412
  247MOL0     C33224   1.055   7.439   1.153  0.3441  0.4828  0.5865
  247MOL0     C33225   1.010   7.402   1.010 -1.0485  0.8412 -0.3857
  247MOL0     C33226   0.949   7.520   0.934 -0.4975  0.4860 -0.2297
  247MOL0     N33227   0.919   7.468   0.794 -0.2134 -0.0567 -0.3783
  247MOL0     C33228   0.834   7.358   0.779  0.9518 -0.4184  0.3838
  247MOL0     C33229   0.810   7.347   0.645  0.3919 -0.2859  1.5231
  247MOL0     C33230   0.730   7.260   0.573 -0.9161  0.5818  0.5246
  247MOL0     C33231   0.807   7.191   0.458  0.2011  0.1730  1.2720
  247MOL0     C33232   0.730   7.079   0.379  0.1198  0.2049  0.5762
  247MOL0     C33233   0.587   7.113   0.341  1.0077 -0.9166 -1.3492
  247MOL0     O33234   0.487   7.070   0.440 -0.1793  0.0505  0.3001
  247MOL0     C33235   0.379   7.137   0.477  0.4890 -1.2295  0.2054
  247MOL0     C33236   0.328   7.264   0.418 -0.1587 -0.7204  0.0504
  247MOL0     C33237   0.210   7.329   0.465 -0.2113  0.0172 -0.9268
  247MOL0     C33238   0.168   7.464   0.421 -0.4544  0.2724  0.2586
  247MOL0     C33239   0.157   7.269   0.587  0.0859 -0.8910  0.3619
  247MOL0     C33240   0.049   7.339   0.660  0.4381  0.4347  0.1976
  247MOL0     O33241   0.061   7.323   0.796 -0.8790 -0.1227 -0.5182
  247MOL0     C33242  -0.019   7.405   0.872 -0.0380  0.3272 -0.4383
  247MOL0     C33243  -0.064   7.531   0.831 -0.4625  0.0237 -0.4655
  247MOL0     C33244  -0.135   7.614   0.915  0.1668  0.5184 -0.0584
  247MOL0     C33245  -0.193   7.568   1.040  0.0988 -0.7335  0.0178
  247MOL0     O33246  -0.259   7.668   1.117  0.6596  0.5616  0.2462
  247MOL0     C33247  -0.232   7.660   1.259  0.0695  1.6268  0.2420
  247MOL0     C33248  -0.244   7.806   1.298  0.8891  1.0754 -0.4961
  247MOL0     C33249  -0.203   7.831   1.448 -0.5438  0.4809  0.5817
  247MOL0     C33250  -0.291   7.759   1.548  0.1442  0.3312 -0.1346
  247MOL0     C33251  -0.294   7.811   1.694 -0.6648 -0.1403 -0.0725
  247MOL0     C33252  -0.337   7.959   1.714  0.1072 -0.0273  0.3522
  247MOL0     C33253  -0.323   8.007   1.851  0.4396 -0.0305  0.2035
  247MOL0     C33254  -0.404   8.130   1.892 -0.1985 -0.4365  0.0676
  247MOL0    Cl33255  -0.358   8.273   1.797  0.4652 -0.2091 -0.3269
  247MOL0     C33256  -0.151   7.441   1.082  0.7636  0.0479  0.5944
  247MOL0     C33257  -0.075   7.361   0.998  1.4887 -0.6252  0.8076
  247MOL0     O33258  -0.044   7.387   0.601  0.5414  0.6042 -0.2594
  247MOL0     C33259   0.209   7.147   0.641  0.0180  1.0220  0.1628
  247MOL0     C33260   0.317   7.079   0.590 -1.7810 -0.1120  0.2738
  247MOL0     N33261   0.854   7.465   0.584 -0.7989  0.1005  0.4436
  247MOL0     N33262   0.928   7.524   0.670 -0.2176  0.4519 -0.1981
  247MOL0     C33263   1.413   7.374   1.861  0.1900  0.1660 -0.6018
  247MOL0     C33264   1.485   7.270   1.919 -0.2988  0.3419  0.9268
  247MOL0     C33265   1.547   6.821   2.055  0.7368  0.2210  0.6679
  247MOL0     C33266   1.681   6.821   2.014 -1.8516  0.1049  0.8095
  247MOL0     C33267   1.771   6.710   2.029  0.1117  0.0572 -0.6502
  247MOL0     C33268   1.722   6.592   2.080  0.0841  0.7446  0.0265
  247MOL0     O33269   1.794   6.481   2.095 -0.2005  0.4575 -1.1395
  247MOL0     C33270   1.900   6.464   1.998 -0.4181  0.5979 -0.5304
  247MOL0     C33271   2.032   6.500   2.069 -0.5438 -0.1795 -0.3891
  247MOL0     C33272   2.107   6.381   2.147  0.3129 -0.4405  0.2817
  247MOL0     C33273   2.036   6.353   2.273  0.4751  0.1121  0.7709
  247MOL0     C33274   2.081   6.237   2.348  0.2996 -0.8523  1.2043
  247MOL0     C33275   2.131   6.142   2.402  0.6442 -0.0819  0.0847
  247MOL0     C33276   1.580   6.579   2.107  0.0881 -0.5127  0.1165
  247MOL0     C33277   1.495   6.699   2.104  0.0828  0.1155 -0.3294
  247MOL0     H33278   1.297   6.998   1.827  2.3911 -0.0463 -2.7381
  247MOL0     H33279   1.150   7.195   1.731 -0.6578 -0.0340 -2.0638
  247MOL0     H33280   1.302   7.451   1.561 -0.9461 -2.7202 -0.8323
  247MOL0     H33281   1.137   7.381   1.561 -0.7430  1.2886 -2.5006
  247MOL0     H33282   1.065   7.635   1.632 -0.8766  0.0331  0.6136
  247MOL0     H33283   1.227   7.670   1.566  0.0488 -0.7736 -3.0428
  247MOL0     H33284   1.101   7.686   1.365 -1.5845 -1.3951 -0.1611
  247MOL0     H33285   1.174   7.528   1.367 -1.8660 -2.0740 -0.9237
  247MOL0     H33286   0.982   7.412   1.438  1.9639  0.1627  1.2292
  247MOL0     H33287   0.893   7.571   1.442 -0.3016 -2.1932  2.6427
  247MOL0     H33288   0.843   7.461   1.233 -0.5578  0.5011  1.7333
  247MOL0     H33289   0.917   7.609   1.213 -3.3107 -0.8165 -0.6491
  247MOL0     H33290   1.153   7.487   1.147  2.4726 -3.4652  0.1871
  247MOL0     H33291   1.078   7.337   1.188 -2.5036 -1.5562 -2.8296
  247MOL0     H33292   1.083   7.362   0.939  0.4833 -2.8987  2.9539
  247MOL0     H33293   0.937   7.321   1.025  0.1580 -0.6143 -1.8799
  247MOL0     H33294   1.022   7.601   0.930 -0.7543  0.7634  0.5042
  247MOL0     H33295   0.856   7.551   0.983 -1.5929  2.3250 -3.2173
  247MOL0     H33296   0.813   7.281   0.853  3.2707 -1.7090 -0.2156
  247MOL0     H33297   0.693   7.187   0.646  0.9192  0.2969  1.2176
  247MOL0     H33298   0.645   7.321   0.541 -0.4553 -1.0048 -4.6196
  247MOL0     H33299   0.889   7.140   0.509  0.1906  0.5433  1.6672
  247MOL0     H33300   0.857   7.262   0.390 -1.1469  1.4639  1.5856
  247MOL0     H33301   0.725   6.988   0.438  2.9105 -1.1751 -1.0708
  247MOL0     H33302   0.785   7.053   0.288 -1.9401  0.6531 -0.8726
  247MOL0     H33303   0.549   7.059   0.254 -0.7006  3.5655 -3.6919
  247MOL0     H33304   0.581   7.221   0.324 -0.3087 -0.8257 -0.4590
  247MOL0     H33305   0.367   7.323   0.336 -0.8524  2.1518  1.6594
  247MOL0     H33306   0.249   7.513   0.366 -2.4314  0.7145 -2.4730
  247MOL0     H33307   0.082   7.444   0.356  0.5378  2.2902 -1.8069
  247MOL0     H33308   0.139   7.533   0.500 -1.5447  1.0588 -0.7928
  247MOL0     H33309  -0.029   7.575   0.738  1.9588 -1.4368 -0.3387
  247MOL0     H33310  -0.183   7.705   0.881  0.2068  0.0948 -1.3126
  247MOL0     H33311  -0.297   7.598   1.320  2.4113  1.2868  2.5761
  247MOL0     H33312  -0.128   7.626   1.271  0.0600 -0.2909 -3.5893
  247MOL0     H33313  -0.186   7.871   1.232  0.6747  3.0792  1.1819
  247MOL0     H33314  -0.349   7.833   1.284  1.2909  2.6846 -0.5763
  247MOL0     H33315  -0.206   7.938   1.467  1.5069  0.2916  2.4083
  247MOL0     H33316  -0.098   7.799   1.458 -0.8982 -2.1407 -2.3920
  247MOL0     H33317  -0.389   7.758   1.499  0.4352  2.3990 -0.8614
  247MOL0     H33318  -0.268   7.652   1.558  1.3957  0.8412  4.6525
  247MOL0     H33319  -0.194   7.817   1.739 -0.6424  3.7119 -0.3084
  247MOL0     H33320  -0.356   7.736   1.743 -0.9501 -0.8410 -1.4757
  247MOL0     H33321  -0.266   8.029   1.668 -0.3135  1.2926  1.6653
  247MOL0     H33322  -0.430   7.993   1.668 -0.1460 -0.9084  0.1865
  247MOL0     H33323  -0.221   8.025   1.886 -0.1189  1.9766  0.9340
  247MOL0     H33324  -0.356   7.922   1.912 -1.3499  0.9045  0.6158
  247MOL0     H33325  -0.399   8.146   2.000  2.0873 -1.5686  0.1971
  247MOL0     H33326  -0.507   8.101   1.871 -0.3633 -0.8475  1.3411
  247MOL0     H33327  -0.168   7.396   1.179 -1.8318  0.2240  0.3121
  247MOL0     H33328  -0.021   7.270   1.025  0.2366 -2.2970 -1.9196
  247MOL0     H33329   0.162   7.117   0.734  0.0877  1.4624  0.3426
  247MOL0     H33330   0.348   6.983   0.631 -0.0423 -0.0300 -0.7457
  247MOL0     H33331   1.442   7.478   1.865  1.9105 -0.2742 -0.8132
  247MOL0     H33332   1.579   7.282   1.971 -0.6696  0.2342  1.6536
  247MOL0     H33333   1.722   6.908   1.964 -1.2218  0.5522  2.0553
  247MOL0     H33334   1.870   6.724   1.986 -0.4621  1.9403 -1.4589
  247MOL0     H33335   1.896   6.356   1.978  0.0197  0.6314 -0.7944
  247MOL0     H33336   1.890   6.517   1.902  0.7746 -0.3837 -1.2291
  247MOL0     H33337   2.025   6.582   2.141  1.0915 -0.3248 -0.0293
  247MOL0     H33338   2.103   6.541   1.997  1.4359 -0.5137  1.2739
  247MOL0     H33339   2.208   6.408   2.180 -0.1100 -2.1419  3.3287
  247MOL0     H33340   2.113   6.291   2.086  0.8808  1.7349 -3.0954
  247MOL0     H33341   1.930   6.325   2.267 -1.2403  4.9563  3.1949
  247MOL0     H33342   2.038   6.442   2.336 -0.3262 -0.4048  1.5542
  247MOL0     H33343   2.175   6.047   2.424 -0.7272 -0.8545 -0.3964
  247MOL0     H33344   1.536   6.487   2.141 -3.1736  0.4608 -1.1153
  247MOL0     H33345   1.389   6.685   2.125 -0.4838  0.6392 -2.5713
  248MOL0     O33346   4.407   1.843   2.021 -0.8513  0.5095 -0.6178
  248MOL0     C33347   4.389   1.923   2.109  0.8618 -0.5388 -0.4851
  248MOL0     O33348   4.463   1.937   2.220  0.4989  1.2720 -1.1009
  248MOL0     C33349   4.568   1.852   2.229  0.0613 -0.1109 -0.2375
  248MOL0     C33350   4.692   1.871   2.161  1.2311  0.8007 -0.4088
  248MOL0     C33351   4.792   1.769   2.174 -0.9781  0.0315 -0.3397
  248MOL0     C33352   4.792   1.665   2.269  0.4350 -0.5318 -0.2106
  248MOL0     O33353   4.903   1.587   2.283 -0.2331 -0.0376  0.5526
  248MOL0     C33354   4.877   1.444   2.252  0.8150  0.0478  0.2835
  248MOL0     C33355   4.995   1.390   2.172 -0.6652  0.6441  0.5541
  248MOL0     C33356   5.022   1.486   2.050 -0.4179 -0.3940 -0.1426
  248MOL0     C33357   5.109   1.415   1.944 -0.2244 -1.0406 -0.1255
  248MOL0     C33358   5.163   1.530   1.858 -0.1127  0.1921 -0.2683
  248MOL0     C33359   5.249   1.466   1.758  0.6340 -0.2203  0.8460
  248MOL0     C33360   5.329   1.571   1.685 -0.0387 -0.5452 -0.4281
  248MOL0     C33361   5.430   1.486   1.592  0.0447  0.8972  0.1494
  248MOL0     N33362   5.534   1.557   1.530 -0.4267 -0.3379 -0.0347
  248MOL0     C33363   5.535   1.584   1.399  0.6653  0.1822  0.1044
  248MOL0     C33364   5.625   1.682   1.376 -0.6313  0.7757 -0.3453
  248MOL0     C33365   5.639   1.731   1.239 -0.1731 -0.6509 -0.0339
  248MOL0     C33366   5.669   1.629   1.133 -0.3370  0.4095  0.3792
  248MOL0     C33367   5.826   1.609   1.116  0.5677 -0.7981  1.0761
  248MOL0     C33368   5.895   1.706   1.014 -0.7152 -0.2829 -0.2191
  248MOL0     O33369   6.033   1.670   1.026  0.2266  0.1930 -0.1505
  248MOL0     C33370   6.133   1.752   0.974 -0.1460  0.6863  0.0131
  248MOL0     C33371   6.264   1.744   1.017 -0.6868 -0.7629  0.3920
  248MOL0     C33372   6.357   1.836   0.962  0.2842 -0.3844 -0.1300
  248MOL0     C33373   6.493   1.829   1.029  0.0163 -0.1746 -0.4827
  248MOL0     C33374   6.332   1.928   0.855  0.0958 -0.6259 -0.3029
  248MOL0     C33375   6.421   2.034   0.800 -0.4385  1.2243 -0.2420
  248MOL0     O33376   6.554   2.018   0.841  0.0299  0.4044 -0.3781
  248MOL0     C33377   6.648   2.053   0.745 -0.5823 -0.2908 -0.5514
  248MOL0     C33378   6.685   1.958   0.649  0.3632  1.4984  0.0619
  248MOL0     C33379   6.786   1.981   0.560  0.3143  1.0901  0.1962
  248MOL0     C33380   6.848   2.110   0.557 -0.1909 -0.2546  1.6102
  248MOL0     O33381   6.955   2.112   0.469  0.0302 -0.2470  0.0108
  248MOL0     C33382   6.989   2.250   0.430  1.3326 -0.6984  0.3283
  248MOL0     C33383   6.997   2.257   0.274 -0.2223 -0.0732  0.9355
  248MOL0     C33384   7.058   2.398   0.230 -0.1456  0.1491 -0.4062
  248MOL0     C33385   7.193   2.443   0.297  0.3766  0.6018 -0.0089
  248MOL0     C33386   7.304   2.349   0.257 -0.4277  0.4237  0.0413
  248MOL0     C33387   7.435   2.364   0.333 -0.1673 -0.4970  0.5205
  248MOL0     C33388   7.544   2.258   0.294  0.0582  0.6718  1.2761
  248MOL0     C33389   7.690   2.299   0.326  0.3836 -0.1869 -0.4430
  248MOL0    Cl33390   7.783   2.161   0.398  0.3349  0.0323  0.2926
  248MOL0     C33391   6.807   2.206   0.646 -0.6708 -0.8717 -0.3809
  248MOL0     C33392   6.712   2.179   0.744  0.9934 -0.3780  0.2707
  248MOL0     O33393   6.377   2.115   0.722 -0.4347  0.1383 -0.2391
  248MOL0     C33394   6.203   1.915   0.803 -0.2166  0.1634  1.1944
  248MOL0     C33395   6.111   1.817   0.851 -0.1222  0.3578 -0.3794
  248MOL0     N33396   5.667   1.731   1.495 -0.2018  0.6024 -0.0567
  248MOL0     N33397   5.610   1.661   1.595 -0.0215  0.8559  0.1190
  248MOL0     C33398   4.668   1.644   2.333  0.1460 -0.6243 -0.5564
  248MOL0     C33399   4.555   1.736   2.310 -0.2301 -0.3150  1.1687
  248MOL0     C33400   4.254   1.990   2.118  0.7540  0.5467  0.0760
  248MOL0     C33401   4.210   2.057   2.237 -1.3929 -0.1924 -0.1202
  248MOL0     C33402   4.090   2.121   2.238  0.5217 -0.5596 -0.2906
  248MOL0     C33403   4.005   2.135   2.121 -1.0732  0.2040  1.4452
  248MOL0     O33404   3.900   2.216   2.132 -0.7518  0.1565  0.4235
  248MOL0     C33405   3.796   2.181   2.043 -0.2762  0.2734  0.4655
  248MOL0     C33406   3.670   2.266   2.088  0.0183 -0.7041  1.2950
  248MOL0     C33407   3.598   2.229   2.213  0.0702 -0.4276  0.2263
  248MOL0     C33408   3.509   2.103   2.202 -0.4103 -0.7308 -0.3340
  248MOL0     C33409   3.408   2.115   2.101  0.0403 -0.5322 -0.3430
  248MOL0     C33410   3.326   2.148   2.020  0.0544 -0.4862  0.0503
  248MOL0     C33411   4.047   2.059   2.005  0.0776 -0.4801 -0.0303
  248MOL0     C33412   4.175   1.990   2.002 -0.2242  1.3898  0.0772
  248MOL0     H33413   4.703   1.962   2.104 -3.3492  2.8614  1.4849
  248MOL0     H33414   4.877   1.782   2.108 -2.8765  0.6107 -2.8229
  248MOL0     H33415   4.880   1.385   2.344 -1.4186  2.2847  1.9342
  248MOL0     H33416   4.788   1.427   2.192  0.9509 -0.8399  0.3231
  248MOL0     H33417   5.083   1.370   2.235  0.5863  1.2423 -0.9370
  248MOL0     H33418   4.965   1.292   2.132 -0.5197  0.8475 -0.0595
  248MOL0     H33419   4.927   1.502   1.998  0.0512  1.6789 -0.4283
  248MOL0     H33420   5.067   1.575   2.095  3.6361 -3.2070  2.0493
  248MOL0     H33421   5.191   1.357   1.987  0.3753  1.0677  1.7421
  248MOL0     H33422   5.048   1.349   1.882  1.0168 -3.2411  0.8707
  248MOL0     H33423   5.085   1.584   1.804 -1.4262 -1.7857 -0.4541
  248MOL0     H33424   5.215   1.605   1.919  0.0015  0.1399 -0.3015
  248MOL0     H33425   5.317   1.397   1.809  1.7439  0.7253  0.7021
  248MOL0     H33426   5.190   1.417   1.680  1.0189 -1.5699  1.3878
  248MOL0     H33427   5.269   1.641   1.626  0.4635 -0.2653 -0.6192
  248MOL0     H33428   5.382   1.643   1.749 -0.4083  0.4343 -1.1865
  248MOL0     H33429   5.364   1.438   1.519  0.8151  1.8164 -1.1991
  248MOL0     H33430   5.485   1.410   1.649 -0.3976  0.6510  0.2545
  248MOL0     H33431   5.465   1.550   1.323 -0.5408  2.6613  0.0166
  248MOL0     H33432   5.547   1.786   1.217  0.2010 -0.6405 -1.7575
  248MOL0     H33433   5.719   1.806   1.245 -2.0114  1.5367 -0.9989
  248MOL0     H33434   5.640   1.670   1.035 -0.9151  0.7433  0.6846
  248MOL0     H33435   5.614   1.535   1.143 -1.8193  1.3700  1.6572
  248MOL0     H33436   5.839   1.508   1.076  1.3991  0.4932 -2.2674
  248MOL0     H33437   5.880   1.610   1.211  0.2334 -1.1542  1.2696
  248MOL0     H33438   5.883   1.806   1.057  0.8640 -0.5412  0.9219
  248MOL0     H33439   5.841   1.697   0.919 -0.8485  1.2202 -0.3091
  248MOL0     H33440   6.300   1.691   1.104  1.1004  1.2091  0.9521
  248MOL0     H33441   6.512   1.930   1.066 -1.8896  0.7455 -1.8551
  248MOL0     H33442   6.494   1.768   1.120  2.8825  0.5571  0.0623
  248MOL0     H33443   6.572   1.812   0.954  0.7570  1.6739 -0.1589
  248MOL0     H33444   6.631   1.864   0.647  2.5277  0.2008 -0.2362
  248MOL0     H33445   6.820   1.896   0.501 -1.3705  0.3058  0.3053
  248MOL0     H33446   6.922   2.333   0.455  4.4870  1.7690  1.3588
  248MOL0     H33447   7.084   2.281   0.475  0.3533 -1.1118  2.8657
  248MOL0     H33448   7.055   2.172   0.236  0.2936  0.5619  0.2567
  248MOL0     H33449   6.896   2.256   0.233  0.7751  1.0070 -1.7372
  248MOL0     H33450   6.985   2.477   0.248  1.4692  1.8770 -1.0701
  248MOL0     H33451   7.072   2.401   0.122  0.4715  0.8585 -0.3160
  248MOL0     H33452   7.228   2.544   0.272 -0.1431  0.6055 -0.7928
  248MOL0     H33453   7.183   2.452   0.405  4.7763 -3.1884  0.9684
  248MOL0     H33454   7.317   2.358   0.149  0.1191  0.5195  0.1095
  248MOL0     H33455   7.268   2.249   0.281  0.3755  0.0609 -0.2175
  248MOL0     H33456   7.476   2.465   0.323 -2.0505  0.3309  0.6392
  248MOL0     H33457   7.418   2.357   0.441  2.2905 -2.1642  0.8717
  248MOL0     H33458   7.535   2.216   0.193 -0.3490 -1.8086  2.2811
  248MOL0     H33459   7.519   2.171   0.355 -1.0477  0.8764  1.1268
  248MOL0     H33460   7.680   2.383   0.395 -1.4575 -0.6610 -0.0635
  248MOL0     H33461   7.745   2.336   0.239  0.7554  1.0720  0.3072
  248MOL0     H33462   6.850   2.306   0.644  0.1897 -1.2323 -0.2953
  248MOL0     H33463   6.704   2.250   0.825 -1.4597  0.2983 -0.4545
  248MOL0     H33464   6.180   1.978   0.718  3.8216 -0.3553 -0.5040
  248MOL0     H33465   6.019   1.808   0.795  0.5100 -0.2175 -1.3483
  248MOL0     H33466   4.663   1.565   2.408 -2.1715 -0.6997 -0.7333
  248MOL0     H33467   4.466   1.730   2.371  0.5622  3.1305  2.9658
  248MOL0     H33468   4.282   2.055   2.317 -0.1988 -2.1060 -1.1631
  248MOL0     H33469   4.081   2.171   2.334  1.0865 -0.8795 -0.0602
  248MOL0     H33470   3.824   2.182   1.937  0.6596 -1.4553  0.6502
  248MOL0     H33471   3.775   2.075   2.064  0.3445  0.1090  0.2819
  248MOL0     H33472   3.596   2.280   2.008  0.2462 -0.5065  1.1161
  248MOL0     H33473   3.719   2.362   2.102  3.1704 -1.8464 -0.7130
  248MOL0     H33474   3.543   2.319   2.242  1.6348  0.6005  0.0890
  248MOL0     H33475   3.676   2.208   2.287  1.0161  0.7934 -0.3920
  248MOL0     H33476   3.467   2.081   2.300 -2.6008  0.0970 -1.0341
  248MOL0     H33477   3.559   2.014   2.164 -0.2461  0.7047 -3.8551
  248MOL0     H33478   3.261   2.181   1.941 -1.5053 -0.1663  1.4301
  248MOL0     H33479   3.987   2.063   1.915 -0.8395  2.3526  0.6159
  248MOL0     H33480   4.215   1.933   1.919  0.2923  1.2207  0.4337
  249MOL0     O33481   4.062   6.933  11.399 -0.1130  0.4240  0.1325
  249MOL0     C33482   4.138   7.020  11.359  0.8025 -0.0215  0.1909
  249MOL0     O33483   4.145   7.153  11.396 -0.2552  0.7978 -0.6525
  249MOL0     C33484   4.038   7.189  11.473  0.2178  0.0064  1.5398
  249MOL0     C33485   4.055   7.224  11.602 -0.0474  0.8429 -0.1077
  249MOL0     C33486   3.954   7.273  11.680  0.2858 -0.2109  0.3426
  249MOL0     C33487   3.838   7.316  11.625 -0.2840  0.8212  0.5596
  249MOL0     O33488   3.748   7.380  11.701  0.0267 -0.0508 -0.4040
  249MOL0     C33489   3.797   7.491  11.775 -0.6555 -0.5659  0.9728
  249MOL0     C33490   3.737   7.620  11.723 -0.7565  1.6644 -0.7356
  249MOL0     C33491   3.611   7.651  11.808 -0.4192 -0.1248 -0.7245
  249MOL0     C33492   3.555   7.775  11.748 -0.5688  0.1971  0.5974
  249MOL0     C33493   3.437   7.832  11.829 -0.1712 -0.4508 -0.2027
  249MOL0     C33494   3.374   7.941  11.744 -0.0772  0.5123 -0.4429
  249MOL0     C33495   3.278   7.880  11.632 -0.5076  0.9634 -0.8046
  249MOL0     C33496   3.219   7.986  11.538 -0.3137  1.1894  1.4983
  249MOL0     N33497   3.156   7.917  11.419 -0.1598 -0.0032 -0.3001
  249MOL0     C33498   3.028   7.934  11.371 -1.2950  0.3863  0.4778
  249MOL0     C33499   3.029   7.859  11.257 -0.5159 -0.3169 -0.6675
  249MOL0     C33500   2.915   7.875  11.158 -0.4129 -0.0295  0.4398
  249MOL0     C33501   2.815   7.768  11.165 -0.5233 -0.0038 -0.6838
  249MOL0     C33502   2.671   7.800  11.122 -0.4679 -0.2618 -0.4782
  249MOL0     C33503   2.683   7.855  10.978  0.7809 -0.2855  0.0343
  249MOL0     O33504   2.553   7.851  10.919  0.3641  0.2449  0.1863
  249MOL0     C33505   2.529   7.902  10.790  0.0614  1.0748  0.2121
  249MOL0     C33506   2.400   7.896  10.739  0.3859 -0.3573  0.7607
  249MOL0     C33507   2.370   7.949  10.610 -0.1323 -0.4102  1.0203
  249MOL0     C33508   2.220   7.948  10.563  0.2143 -0.2748 -0.0306
  249MOL0     C33509   2.479   7.968  10.524  0.6329 -0.5111  0.3233
  249MOL0     C33510   2.476   8.026  10.396  0.1788  0.1620 -0.5407
  249MOL0     O33511   2.365   8.110  10.373  0.7159 -0.9464  0.2369
  249MOL0     C33512   2.355   8.183  10.256 -0.6618  0.2660  0.4041
  249MOL0     C33513   2.259   8.285  10.257  0.4303  0.1662  0.1454
  249MOL0     C33514   2.230   8.356  10.143  0.4831  0.3109 -0.9472
  249MOL0     C33515   2.293   8.335  10.013  0.3441 -0.1397  0.4585
  249MOL0     O33516   2.256   8.415   9.907 -0.5828 -0.0660 -0.1824
  249MOL0     C33517   2.355   8.510   9.875  0.6217  0.5112  0.7081
  249MOL0     C33518   2.316   8.598   9.760  0.0648 -0.0194  0.8523
  249MOL0     C33519   2.248   8.728   9.808  0.7911 -0.1054 -0.1798
  249MOL0     C33520   2.192   8.803   9.694  0.1072  0.3871 -0.1180
  249MOL0     C33521   2.112   8.922   9.732  0.5739  0.3324  0.1653
  249MOL0     C33522   1.965   8.887   9.738 -0.1918  0.3898  0.6757
  249MOL0     C33523   1.890   9.004   9.788  1.0717 -1.5533 -0.1179
  249MOL0     C33524   1.747   8.967   9.820 -0.0213  0.2828  1.3249
  249MOL0    Cl33525   1.663   8.904   9.662  0.1611  0.1290 -0.0605
  249MOL0     C33526   2.397   8.239  10.008 -1.0396 -0.6063 -0.6942
  249MOL0     C33527   2.411   8.148  10.123 -0.5772 -0.6378  0.4882
  249MOL0     O33528   2.549   7.981  10.311 -0.2396  0.0938  0.1791
  249MOL0     C33529   2.614   7.954  10.572 -0.2795  0.1843  0.0983
  249MOL0     C33530   2.640   7.927  10.708 -0.0258 -0.0082 -0.2308
  249MOL0     N33531   3.154   7.805  11.234  0.7049 -0.0836  0.2161
  249MOL0     N33532   3.230   7.848  11.331 -0.4590 -0.0170 -0.2752
  249MOL0     C33533   3.820   7.278  11.489 -1.3647  0.0097  0.9118
  249MOL0     C33534   3.908   7.205  11.419 -0.0411  0.3962 -0.5872
  249MOL0     C33535   4.249   6.963  11.273  0.2733  0.2573  0.0082
  249MOL0     C33536   4.249   6.842  11.213 -0.1304 -0.3452  0.5901
  249MOL0     C33537   4.349   6.801  11.134  0.6236  0.7076 -0.5093
  249MOL0     C33538   4.455   6.884  11.097 -0.3754  0.2583 -0.3271
  249MOL0     O33539   4.564   6.844  11.017  0.6537  1.5446 -0.0022
  249MOL0     C33540   4.640   6.728  11.060 -0.7061 -1.1914 -0.2753
  249MOL0     C33541   4.784   6.719  10.995  0.0306  1.5390  0.1510
  249MOL0     C33542   4.889   6.825  11.041  0.3144  0.1170  0.4699
  249MOL0     C33543   4.899   6.852  11.191  0.2885 -0.3022  0.7270
  249MOL0     C33544   4.939   6.727  11.265  0.6366 -0.6573 -0.0014
  249MOL0     C33545   4.970   6.633  11.332  0.1406  0.8365  0.5740
  249MOL0     C33546   4.462   7.007  11.154  0.3375 -0.1871  0.3832
  249MOL0     C33547   4.355   7.043  11.242  0.0523  0.6498 -0.5487
  249MOL0     H33548   4.153   7.206  11.645 -0.1070  2.4874  0.8104
  249MOL0     H33549   3.982   7.302  11.781  2.0760  0.7954 -0.3834
  249MOL0     H33550   3.779   7.472  11.881 -1.0740  2.4975  1.5523
  249MOL0     H33551   3.904   7.503  11.754 -1.1407 -0.6555 -2.0366
  249MOL0     H33552   3.813   7.698  11.729 -0.2301  1.1891 -1.1466
  249MOL0     H33553   3.715   7.610  11.616  1.7217  1.5884 -1.2871
  249MOL0     H33554   3.533   7.575  11.800 -0.2117 -0.2503 -1.7032
  249MOL0     H33555   3.630   7.659  11.915 -1.5597 -0.2818 -0.5023
  249MOL0     H33556   3.627   7.856  11.732 -1.3554  0.5660 -1.3660
  249MOL0     H33557   3.512   7.746  11.652  2.7791 -0.1187 -0.9337
  249MOL0     H33558   3.356   7.759  11.842 -3.0940  1.8007 -3.6339
  249MOL0     H33559   3.479   7.859  11.926 -1.1894 -1.1017  0.4393
  249MOL0     H33560   3.304   7.999  11.805  0.2717  0.5378 -0.0550
  249MOL0     H33561   3.450   8.008  11.702 -1.3385  2.6549  0.5030
  249MOL0     H33562   3.310   7.793  11.574 -0.3849  0.2142  0.3594
  249MOL0     H33563   3.186   7.855  11.686  1.7647 -1.8215  2.1983
  249MOL0     H33564   3.296   8.056  11.504  1.4630 -2.7958 -4.0126
  249MOL0     H33565   3.152   8.049  11.598  3.6017  4.6510  2.6726
  249MOL0     H33566   2.946   7.986  11.420 -0.3313  1.8617  0.5586
  249MOL0     H33567   2.883   7.978  11.172 -0.7221 -0.2597  1.4926
  249MOL0     H33568   2.963   7.855  11.061 -1.3359 -0.0133 -0.0298
  249MOL0     H33569   2.828   7.731  11.267  1.5264 -2.5561 -1.7570
  249MOL0     H33570   2.852   7.681  11.110  0.7056 -0.0852  0.2325
  249MOL0     H33571   2.634   7.871  11.196  0.4970 -0.0566 -0.1750
  249MOL0     H33572   2.617   7.705  11.132  0.5328 -0.6523  2.0743
  249MOL0     H33573   2.750   7.792  10.920  1.4075  1.5674 -1.3718
  249MOL0     H33574   2.730   7.953  10.964  0.6140 -0.2822 -0.5083
  249MOL0     H33575   2.309   7.865  10.789 -0.7627  3.3551  1.2510
  249MOL0     H33576   2.229   7.927  10.456 -1.5940  1.1056 -0.4951
  249MOL0     H33577   2.170   7.864  10.614  3.0052 -0.8518  2.0294
  249MOL0     H33578   2.180   8.048  10.578  2.7592  0.6972  0.8685
  249MOL0     H33579   2.194   8.295  10.343 -1.0541  0.7694 -1.0120
  249MOL0     H33580   2.146   8.424  10.144 -0.9912 -1.4046  0.2940
  249MOL0     H33581   2.368   8.571   9.965  0.6564  0.6146  0.6326
  249MOL0     H33582   2.455   8.470   9.856  0.0442  0.2231 -2.2619
  249MOL0     H33583   2.409   8.617   9.706 -0.7011 -2.3293 -1.4175
  249MOL0     H33584   2.253   8.548   9.687 -1.9471  0.4923  2.1552
  249MOL0     H33585   2.315   8.801   9.855  0.9678 -0.3357 -0.0697
  249MOL0     H33586   2.181   8.694   9.888  1.6421  0.4380  0.7857
  249MOL0     H33587   2.282   8.828   9.637 -0.1222  0.3898 -0.4790
  249MOL0     H33588   2.132   8.728   9.642  1.0432 -1.0773  0.8191
  249MOL0     H33589   2.116   8.993   9.649  2.2085 -3.6409 -3.5500
  249MOL0     H33590   2.153   8.973   9.819 -0.5163  0.1924  0.7809
  249MOL0     H33591   1.930   8.861   9.638  0.1337 -2.7768  1.2628
  249MOL0     H33592   1.951   8.796   9.797  0.9764  1.2621  2.3958
  249MOL0     H33593   1.888   9.085   9.715  2.9661  0.9676  2.4125
  249MOL0     H33594   1.936   9.048   9.877 -2.8121  4.7881 -0.5913
  249MOL0     H33595   1.693   9.055   9.857 -2.0908 -0.5171  0.3817
  249MOL0     H33596   1.739   8.876   9.880  0.1039 -1.8132 -1.6582
  249MOL0     H33597   2.446   8.221   9.912  2.0282 -1.3482  0.8792
  249MOL0     H33598   2.469   8.060  10.098 -2.4282 -1.3351 -1.7153
  249MOL0     H33599   2.702   7.980  10.515  0.8581 -1.3961  1.0596
  249MOL0     H33600   2.743   7.926  10.743  0.1471  3.1908 -0.3516
  249MOL0     H33601   3.727   7.304  11.440 -1.0594 -2.2557 -1.0361
  249MOL0     H33602   3.894   7.196  11.312  0.6097  0.3584 -0.6714
  249MOL0     H33603   4.171   6.768  11.233  1.0913 -2.8079 -2.8599
  249MOL0     H33604   4.331   6.699  11.100 -1.0268  0.9844 -0.5419
  249MOL0     H33605   4.646   6.729  11.169 -1.4660  2.5488 -0.1321
  249MOL0     H33606   4.588   6.635  11.032 -2.4723 -0.0761 -0.8607
  249MOL0     H33607   4.783   6.709  10.886 -2.0957 -0.5299  0.2729
  249MOL0     H33608   4.829   6.626  11.029 -2.4124 -0.8268 -2.5596
  249MOL0     H33609   4.880   6.922  10.990 -2.3835  0.9717  2.3396
  249MOL0     H33610   4.988   6.793  11.007 -1.4625 -3.9279 -1.4812
  249MOL0     H33611   4.803   6.882  11.233  0.4430 -2.9377  3.2338
  249MOL0     H33612   4.967   6.934  11.216 -0.2222  0.8822 -1.4927
  249MOL0     H33613   5.008   6.556  11.397  2.9273  0.0051 -1.8353
  249MOL0     H33614   4.544   7.073  11.128  0.0333 -0.3738 -1.1695
  249MOL0     H33615   4.370   7.146  11.274  1.2825  0.2737  0.1630
  250MOL0     O33616   4.128   8.032   1.428 -0.6633  0.5194 -0.2761
  250MOL0     C33617   4.180   8.084   1.526  0.0786 -0.4734 -0.8927
  250MOL0     O33618   4.300   8.052   1.571  0.1325  0.4892 -0.2835
  250MOL0     C33619   4.365   7.936   1.553 -0.4854  0.4455  0.3236
  250MOL0     C33620   4.507   7.934   1.545  0.8624 -0.6782  0.0226
  250MOL0     C33621   4.562   7.812   1.501  0.2105 -0.4119 -0.6313
  250MOL0     C33622   4.492   7.691   1.475  0.5172  0.1700 -0.1626
  250MOL0     O33623   4.551   7.570   1.445 -0.2175  0.1621 -0.1817
  250MOL0     C33624   4.635   7.575   1.322 -0.1122 -0.2939 -0.2068
  250MOL0     C33625   4.709   7.449   1.311  0.3239  0.9014 -0.4270
  250MOL0     C33626   4.811   7.431   1.422 -0.3417 -0.2456 -0.3320
  250MOL0     C33627   4.871   7.289   1.418  0.7134  1.1983 -0.2559
  250MOL0     C33628   4.945   7.247   1.542 -0.3641  0.6014 -0.2760
  250MOL0     C33629   5.001   7.104   1.527 -0.4617  0.4225 -0.6737
  250MOL0     C33630   5.094   7.060   1.651 -0.2798  0.5476 -0.4529
  250MOL0     C33631   5.028   7.053   1.797 -0.3479 -0.0369 -0.1860
  250MOL0     N33632   4.921   6.944   1.798  0.8296 -0.6255 -0.9151
  250MOL0     C33633   4.958   6.812   1.786 -0.8823  0.3015 -0.1851
  250MOL0     C33634   4.836   6.749   1.775  0.0849  0.6848  1.2268
  250MOL0     C33635   4.804   6.596   1.771  0.3307 -0.2557 -0.6290
  250MOL0     C33636   4.870   6.525   1.891  0.3573  0.1001  0.8937
  250MOL0     C33637   4.834   6.369   1.895 -0.3042 -0.3684 -0.4491
  250MOL0     C33638   4.848   6.307   2.033  0.9508  0.7896  0.0762
  250MOL0     O33639   4.983   6.243   2.049 -0.0080 -0.3556  1.0112
  250MOL0     C33640   5.002   6.102   2.008 -0.1918 -0.9234 -0.0731
  250MOL0     C33641   5.123   6.053   2.001  0.4293 -0.1611  0.3765
  250MOL0     C33642   5.159   5.917   1.977 -1.1041  0.1632  0.9744
  250MOL0     C33643   5.315   5.898   1.972  1.0847 -0.0881  0.4454
  250MOL0     C33644   5.058   5.825   1.936 -0.1925  0.8595 -0.3057
  250MOL0     C33645   5.082   5.686   1.882  0.5026  0.2217 -0.0004
  250MOL0     O33646   4.966   5.621   1.846  0.2154 -0.5377  0.3854
  250MOL0     C33647   4.977   5.491   1.796  0.2341 -0.1117  0.5853
  250MOL0     C33648   4.902   5.459   1.683  0.6066  0.9281 -0.2161
  250MOL0     C33649   4.875   5.325   1.642 -0.2110 -0.2262 -0.1079
  250MOL0     C33650   4.931   5.216   1.719  0.2325  0.8971  0.4952
  250MOL0     O33651   4.911   5.080   1.683 -0.0741 -0.6803  0.4126
  250MOL0     C33652   4.775   5.041   1.675 -0.0131  0.9784 -0.4224
  250MOL0     C33653   4.721   5.046   1.821 -0.3991 -0.1908  0.5176
  250MOL0     C33654   4.578   5.102   1.820 -0.0027 -0.5905  0.3262
  250MOL0     C33655   4.496   5.077   1.952  0.3036  0.0406  0.1763
  250MOL0     C33656   4.355   5.116   1.918 -0.4026 -0.0615  0.4735
  250MOL0     C33657   4.245   5.087   2.019  1.3823 -0.4965  0.8930
  250MOL0     C33658   4.111   5.153   1.980  0.5630  0.5128  0.6691
  250MOL0     C33659   4.002   5.137   2.091 -0.6077  0.5400  0.2490
  250MOL0    Cl33660   3.846   5.184   2.009 -0.4037 -0.1072  0.2378
  250MOL0     C33661   4.999   5.244   1.838  0.7939 -0.2671 -0.3807
  250MOL0     C33662   5.027   5.386   1.871  0.4387  0.4569 -1.0437
  250MOL0     O33663   5.188   5.646   1.866 -0.6304  0.4430 -0.2508
  250MOL0     C33664   4.928   5.877   1.949 -0.3928  0.1730 -0.8871
  250MOL0     C33665   4.900   6.009   1.989  0.6044 -0.7282 -0.8086
  250MOL0     N33666   4.732   6.839   1.794  0.6005 -0.4319  0.4232
  250MOL0     N33667   4.788   6.953   1.799  0.2414 -0.4604 -0.7749
  250MOL0     C33668   4.351   7.694   1.501 -0.7597  0.3093  0.4868
  250MOL0     C33669   4.293   7.814   1.537  0.2423 -0.3814 -0.5269
  250MOL0     C33670   4.103   8.194   1.601  0.0122  0.4460  0.2102
  250MOL0     C33671   3.996   8.259   1.530 -0.6339  0.1876 -0.9925
  250MOL0     C33672   3.951   8.385   1.594  0.6168 -0.0541  0.6390
  250MOL0     C33673   4.005   8.444   1.701  0.9739  0.0491 -0.8546
  250MOL0     O33674   3.964   8.560   1.770  0.1115 -0.0628 -0.6541
  250MOL0     C33675   3.886   8.650   1.695 -0.1839  0.4478  0.1710
  250MOL0     C33676   3.851   8.770   1.793  1.0464  0.3188 -0.0908
  250MOL0     C33677   3.972   8.852   1.813 -0.0609 -0.5854 -0.1800
  250MOL0     C33678   3.970   8.973   1.912 -0.1736  0.4371  0.3703
  250MOL0     C33679   3.903   9.092   1.859  0.3854  0.4689 -0.7609
  250MOL0     C33680   3.855   9.195   1.817 -0.0862  0.2790 -0.3912
  250MOL0     C33681   4.094   8.361   1.771  0.3022  0.1076  1.0061
  250MOL0     C33682   4.153   8.253   1.717  0.1750 -0.2786  0.4997
  250MOL0     H33683   4.555   8.031   1.550 -2.9630  1.4652 -0.6399
  250MOL0     H33684   4.670   7.807   1.492  0.1930  0.0181 -1.1804
  250MOL0     H33685   4.587   7.596   1.226  0.3573  1.0260 -0.1827
  250MOL0     H33686   4.708   7.657   1.324  2.1692 -2.2080  0.9291
  250MOL0     H33687   4.627   7.377   1.314 -0.3052  1.6143 -0.1282
  250MOL0     H33688   4.762   7.445   1.215  0.9167  1.7800 -0.1422
  250MOL0     H33689   4.890   7.505   1.414 -0.9251  0.3731 -0.4814
  250MOL0     H33690   4.767   7.450   1.520 -2.7261  0.7511 -1.4903
  250MOL0     H33691   4.795   7.213   1.395 -0.8045  2.5851  0.0054
  250MOL0     H33692   4.948   7.282   1.340 -1.7492  1.7831 -2.9006
  250MOL0     H33693   5.028   7.317   1.554 -0.5303  1.0670 -1.5834
  250MOL0     H33694   4.882   7.262   1.630 -0.6094 -1.3234 -0.0910
  250MOL0     H33695   4.929   7.023   1.512 -0.0718  0.2830 -1.9220
  250MOL0     H33696   5.053   7.099   1.431 -1.1083  1.0658 -1.0689
  250MOL0     H33697   5.137   6.961   1.631  1.1984  0.3751  2.9788
  250MOL0     H33698   5.165   7.143   1.653 -0.2246  0.4877  0.3534
  250MOL0     H33699   4.973   7.146   1.817 -0.8516 -0.1622 -0.9238
  250MOL0     H33700   5.100   7.025   1.875  0.1586 -0.3511 -0.7563
  250MOL0     H33701   5.063   6.783   1.788 -1.6335 -2.6783 -0.3764
  250MOL0     H33702   4.695   6.583   1.777 -0.0304  2.3145 -0.1140
  250MOL0     H33703   4.840   6.559   1.675 -0.4425 -4.3022  0.4783
  250MOL0     H33704   4.841   6.573   1.985 -1.6996 -3.1016  2.0561
  250MOL0     H33705   4.978   6.537   1.881  0.3550 -0.8691 -0.5687
  250MOL0     H33706   4.888   6.303   1.826 -0.4129 -2.5824  1.4557
  250MOL0     H33707   4.727   6.378   1.878 -0.4954  1.8656  1.5086
  250MOL0     H33708   4.787   6.218   2.050  1.4078  0.0325 -1.9406
  250MOL0     H33709   4.829   6.387   2.105  1.5435  1.2139 -0.2341
  250MOL0     H33710   5.210   6.117   2.010 -1.0193  2.2283 -1.5097
  250MOL0     H33711   5.372   5.987   1.997 -0.7394  2.2948 -3.0687
  250MOL0     H33712   5.332   5.805   2.028 -1.2920  0.3888  2.1082
  250MOL0     H33713   5.329   5.872   1.867 -1.1881  0.9935 -0.1824
  250MOL0     H33714   4.856   5.546   1.638  0.9961  0.1840 -2.1499
  250MOL0     H33715   4.812   5.301   1.556 -2.5408  0.8104  1.1999
  250MOL0     H33716   4.721   5.104   1.604 -0.0189  1.7986  0.2995
  250MOL0     H33717   4.777   4.938   1.637  1.4022  0.7519  0.2071
  250MOL0     H33718   4.744   4.945   1.856 -1.3536 -0.6185 -0.0583
  250MOL0     H33719   4.774   5.115   1.887  1.1676 -0.9944  0.1568
  250MOL0     H33720   4.533   5.063   1.728 -0.7528  2.1920 -0.5623
  250MOL0     H33721   4.578   5.210   1.808 -1.3859 -0.6126 -0.0088
  250MOL0     H33722   4.499   4.974   1.990  1.5550 -0.0950 -0.2575
  250MOL0     H33723   4.538   5.137   2.033  3.8710 -1.5496 -0.3277
  250MOL0     H33724   4.326   5.059   1.829  3.0712 -0.6693 -0.4371
  250MOL0     H33725   4.353   5.224   1.903 -1.4471 -0.0422  0.7152
  250MOL0     H33726   4.236   4.979   2.003 -3.6573 -0.3845  1.1321
  250MOL0     H33727   4.263   5.112   2.124  1.5871  3.1052  0.1381
  250MOL0     H33728   4.073   5.114   1.885 -0.1698  0.5234  0.9500
  250MOL0     H33729   4.137   5.259   1.968  1.3853  0.1099 -1.5216
  250MOL0     H33730   4.036   5.193   2.178 -2.7451  0.5925  1.1090
  250MOL0     H33731   3.989   5.031   2.115 -1.8764  0.3308 -1.1683
  250MOL0     H33732   5.036   5.162   1.900 -1.7985 -0.4624  1.0462
  250MOL0     H33733   5.066   5.410   1.970  0.4221 -1.9844 -0.3645
  250MOL0     H33734   4.844   5.809   1.936  0.2633 -0.3510 -2.6002
  250MOL0     H33735   4.795   6.036   1.996  1.5265  3.3310  0.0451
  250MOL0     H33736   4.290   7.605   1.489  2.3961 -2.0672  0.6633
  250MOL0     H33737   4.187   7.803   1.558 -0.3803  0.0242 -3.0598
  250MOL0     H33738   3.939   8.226   1.444 -0.6968  2.3167 -1.8476
  250MOL0     H33739   3.875   8.439   1.539  3.1347  1.0489 -2.0935
  250MOL0     H33740   3.942   8.673   1.603  2.8787 -0.9424  1.5571
  250MOL0     H33741   3.799   8.588   1.674  1.0911 -1.7129  1.0171
  250MOL0     H33742   3.821   8.737   1.893  3.6525 -2.0340  0.0262
  250MOL0     H33743   3.770   8.837   1.760 -0.8448 -0.0513  3.2964
  250MOL0     H33744   4.003   8.897   1.718 -3.6417 -3.0153 -2.7516
  250MOL0     H33745   4.054   8.789   1.849  3.1188  3.3937  0.2219
  250MOL0     H33746   4.068   9.006   1.948 -0.9703  1.0216  2.0778
  250MOL0     H33747   3.923   8.948   2.007 -0.6358  0.1778  0.0774
  250MOL0     H33748   3.809   9.287   1.788 -3.2645 -1.7652 -2.5151
  250MOL0     H33749   4.132   8.407   1.862  1.6251  0.3611  0.3493
  250MOL0     H33750   4.238   8.207   1.767  0.3804 -1.6069 -1.0102
  251MOL0     O33751   7.741   7.764   9.546  0.1974 -0.4403 -0.1334
  251MOL0     C33752   7.839   7.696   9.572  0.4549  0.3082  0.2002
  251MOL0     O33753   7.851   7.619   9.681 -0.9902  0.3846 -0.4699
  251MOL0     C33754   7.745   7.610   9.779 -0.8953  0.0581 -0.4282
  251MOL0     C33755   7.686   7.728   9.828  0.6648  0.0993 -0.6347
  251MOL0     C33756   7.570   7.722   9.908 -0.5451 -0.2952 -0.5142
  251MOL0     C33757   7.528   7.597   9.955 -0.0743 -0.5134  0.4643
  251MOL0     O33758   7.409   7.578  10.038  0.2653  0.1613 -0.2908
  251MOL0     C33759   7.307   7.681  10.042 -1.2606  0.6809 -0.6412
  251MOL0     C33760   7.328   7.774  10.161 -0.9312  0.3472  0.2362
  251MOL0     C33761   7.220   7.876  10.179 -0.7598 -0.3694  0.1891
  251MOL0     C33762   7.224   7.943  10.307  0.0303  0.6443  0.4309
  251MOL0     C33763   7.141   8.076  10.301  0.4177 -0.5865 -1.0466
  251MOL0     C33764   6.997   8.051  10.250 -0.1539 -0.7448  0.1269
  251MOL0     C33765   6.902   8.183  10.263 -0.2367 -1.4036 -0.5473
  251MOL0     C33766   6.764   8.148  10.220 -0.3728 -0.0175 -0.4158
  251MOL0     N33767   6.677   8.256  10.260 -1.2258 -0.6074 -0.1727
  251MOL0     C33768   6.662   8.311  10.387 -0.6793 -0.7731  0.0336
  251MOL0     C33769   6.556   8.398  10.381  0.3001  0.8956  0.0607
  251MOL0     C33770   6.511   8.485  10.491 -0.7713 -0.1608 -0.1376
  251MOL0     C33771   6.382   8.429  10.565 -1.2280  0.0280  0.8081
  251MOL0     C33772   6.294   8.540  10.601  0.2053  0.3926  0.5828
  251MOL0     C33773   6.342   8.610  10.731  0.0788  0.5018 -0.3411
  251MOL0     O33774   6.462   8.692  10.719 -0.7129  0.5623  0.5423
  251MOL0     C33775   6.545   8.728  10.816 -0.6376 -0.1752  0.7622
  251MOL0     C33776   6.661   8.798  10.785  0.5620  0.4091  0.0591
  251MOL0     C33777   6.755   8.841  10.887 -0.7659  0.3821  0.9848
  251MOL0     C33778   6.872   8.922  10.839 -0.6530  0.2654 -0.3839
  251MOL0     C33779   6.741   8.805  11.021  0.1857 -0.0803 -0.5375
  251MOL0     C33780   6.830   8.837  11.137  0.4283  0.5794 -0.1452
  251MOL0     O33781   6.824   8.743  11.237  0.1122  0.6357  0.0624
  251MOL0     C33782   6.943   8.715  11.303 -0.0993 -0.6195 -0.0699
  251MOL0     C33783   7.085   8.734  11.260  0.1138 -0.2655 -1.4802
  251MOL0     C33784   7.189   8.716  11.352  0.0317 -0.1325 -0.2853
  251MOL0     C33785   7.173   8.661  11.484  0.2222 -0.0026  0.0636
  251MOL0     O33786   7.275   8.642  11.578 -0.2678 -0.2574  0.3204
  251MOL0     C33787   7.275   8.738  11.686  0.6734  0.1924  0.0501
  251MOL0     C33788   7.366   8.681  11.785 -0.0522  1.1089  0.2806
  251MOL0     C33789   7.337   8.542  11.837 -0.4805  0.6729  0.6291
  251MOL0     C33790   7.394   8.531  11.984 -0.3767 -0.1571  0.0109
  251MOL0     C33791   7.367   8.390  12.037  0.6202 -0.4150 -0.9001
  251MOL0     C33792   7.438   8.379  12.174 -0.1313  0.2773  1.1712
  251MOL0     C33793   7.570   8.295  12.156  1.3036  0.1448 -0.4220
  251MOL0     C33794   7.663   8.318  12.280  0.1051  0.5973  0.0905
  251MOL0    Cl33795   7.762   8.467  12.272 -0.0501  0.4845  0.4116
  251MOL0     C33796   7.035   8.632  11.516 -0.5159  0.2764 -0.1101
  251MOL0     C33797   6.925   8.661  11.430 -0.8613 -0.3070 -0.1337
  251MOL0     O33798   6.900   8.937  11.138  0.3544  0.0533  0.6690
  251MOL0     C33799   6.622   8.746  11.054  0.4044 -0.3295  0.1204
  251MOL0     C33800   6.525   8.708  10.958  0.1296 -0.4016  0.7741
  251MOL0     N33801   6.512   8.386  10.248 -0.2375 -0.5482 -0.3859
  251MOL0     N33802   6.586   8.306  10.180  0.7627 -0.2357  0.1612
  251MOL0     C33803   7.591   7.478   9.919  0.6403  0.4575  0.1970
  251MOL0     C33804   7.692   7.483   9.821  0.1309 -0.9469  0.4252
  251MOL0     C33805   7.943   7.690   9.470 -0.3263 -0.2183  0.4974
  251MOL0     C33806   7.932   7.741   9.346  0.4852  0.7120  0.1420
  251MOL0     C33807   8.035   7.717   9.245  0.8185 -0.5177 -0.1355
  251MOL0     C33808   8.148   7.639   9.266  0.2600  0.9516  0.1076
  251MOL0     O33809   8.248   7.619   9.174  1.2341  0.7174  0.0894
  251MOL0     C33810   8.211   7.618   9.030 -0.2818  0.3157 -0.2682
  251MOL0     C33811   8.310   7.547   8.940 -0.2790  0.6218 -0.0703
  251MOL0     C33812   8.317   7.391   8.942  0.9022 -0.1599  0.5865
  251MOL0     C33813   8.422   7.326   8.845  0.5790 -0.7849  0.8292
  251MOL0     C33814   8.377   7.337   8.702 -0.1241 -0.6128  0.5177
  251MOL0     C33815   8.349   7.353   8.591 -0.6383  0.2155  0.4086
  251MOL0     C33816   8.161   7.588   9.400 -0.4948  0.5100  0.9509
  251MOL0     C33817   8.061   7.611   9.499 -0.2757 -0.9055  1.2883
  251MOL0     H33818   7.715   7.825   9.788  0.9658 -0.0793 -0.8499
  251MOL0     H33819   7.525   7.817   9.934  1.3167  0.4772  0.0901
  251MOL0     H33820   7.290   7.734   9.948  0.3632  1.8548 -0.3248
  251MOL0     H33821   7.213   7.628  10.060 -1.9417  1.1919 -2.4508
  251MOL0     H33822   7.338   7.719  10.255 -0.5800  3.9381  2.5013
  251MOL0     H33823   7.418   7.836  10.153 -1.7551  1.5127 -0.2911
  251MOL0     H33824   7.227   7.950  10.098 -1.8468  0.3392  0.7189
  251MOL0     H33825   7.124   7.828  10.160 -0.2329 -1.9486  1.3162
  251MOL0     H33826   7.181   7.880  10.386  1.6767 -0.9000  0.1730
  251MOL0     H33827   7.330   7.951  10.333  0.7920 -3.9051 -0.3174
  251MOL0     H33828   7.137   8.114  10.404 -3.4005 -0.3050 -1.1356
  251MOL0     H33829   7.183   8.149  10.232  2.0660  1.3075  1.7783
  251MOL0     H33830   6.996   8.014  10.147  5.8391 -0.2416 -0.5141
  251MOL0     H33831   6.965   7.968  10.314  1.3705 -0.2943  1.5581
  251MOL0     H33832   6.908   8.190  10.372 -1.5418  0.3305 -0.5504
  251MOL0     H33833   6.946   8.270  10.213 -0.2574 -1.6004 -0.9098
  251MOL0     H33834   6.724   8.055  10.263  1.1658  1.4688  5.0028
  251MOL0     H33835   6.759   8.134  10.112 -2.8485  1.8917 -0.6292
  251MOL0     H33836   6.726   8.306  10.475  0.1569 -0.8698 -0.5595
  251MOL0     H33837   6.591   8.501  10.564  2.4422 -2.5864 -2.7838
  251MOL0     H33838   6.473   8.573  10.439  0.1134  0.3124  0.0011
  251MOL0     H33839   6.408   8.369  10.653 -0.9119  0.1667  0.8083
  251MOL0     H33840   6.335   8.352  10.504 -0.3812  0.3263 -0.2471
  251MOL0     H33841   6.201   8.484  10.611  0.7382 -0.6253  0.0340
  251MOL0     H33842   6.274   8.604  10.515  1.4281 -1.4883 -1.1929
  251MOL0     H33843   6.374   8.523  10.790  1.4972  0.7589 -0.6983
  251MOL0     H33844   6.259   8.664  10.776  1.7794  3.2984 -0.3072
  251MOL0     H33845   6.683   8.827  10.682 -1.5233 -1.6543 -1.0631
  251MOL0     H33846   6.959   8.876  10.888 -2.1886 -2.9806 -0.4681
  251MOL0     H33847   6.875   8.917  10.730 -2.6945 -0.9536 -0.4234
  251MOL0     H33848   6.873   9.024  10.880  3.6221 -0.2677  1.3543
  251MOL0     H33849   7.110   8.772  11.161  0.1537  0.8867 -1.0492
  251MOL0     H33850   7.291   8.729  11.320 -0.2681 -0.9011 -1.6687
  251MOL0     H33851   7.309   8.836  11.652 -0.4483  0.3677 -0.6118
  251MOL0     H33852   7.182   8.745  11.743  1.3717  0.7736  1.1484
  251MOL0     H33853   7.465   8.677  11.737 -0.5024 -2.4007 -0.6164
  251MOL0     H33854   7.380   8.757  11.862  2.6421  0.4803  0.5286
  251MOL0     H33855   7.392   8.474  11.771  0.2503  0.8031  1.0940
  251MOL0     H33856   7.229   8.523  11.837 -0.2401 -1.0404 -1.2721
  251MOL0     H33857   7.501   8.555  11.991 -0.3248 -0.7240  1.5982
  251MOL0     H33858   7.342   8.608  12.042  3.5283  0.6441  2.9402
  251MOL0     H33859   7.391   8.309  11.967  3.5352 -0.2361 -0.2277
  251MOL0     H33860   7.263   8.377  12.066  0.7276 -0.4887 -0.5413
  251MOL0     H33861   7.460   8.480  12.211 -0.4216  1.3368 -1.3512
  251MOL0     H33862   7.378   8.320  12.244  0.0961 -3.2327 -1.3324
  251MOL0     H33863   7.627   8.328  12.068  3.6628  0.3342  1.0811
  251MOL0     H33864   7.542   8.192  12.131 -3.0017  1.1224 -0.3063
  251MOL0     H33865   7.725   8.230  12.298  0.5050  1.1618  1.6997
  251MOL0     H33866   7.591   8.337  12.360 -0.6437  1.8968 -0.8605
  251MOL0     H33867   6.997   8.603  11.614 -0.4553  0.9471  0.1235
  251MOL0     H33868   6.827   8.626  11.460 -0.7553 -2.9447 -2.4448
  251MOL0     H33869   6.591   8.739  11.158 -2.8156  2.9182 -0.4120
  251MOL0     H33870   6.426   8.672  10.983  0.0920 -1.7817 -1.1305
  251MOL0     H33871   7.564   7.382   9.963  1.2079 -0.0314 -0.4963
  251MOL0     H33872   7.750   7.392   9.806  0.7574 -0.2886 -1.3808
  251MOL0     H33873   7.852   7.810   9.322 -1.7063 -1.0424  1.8797
  251MOL0     H33874   8.020   7.775   9.155 -3.2549 -2.8274 -1.2061
  251MOL0     H33875   8.115   7.568   9.012 -0.7103  1.8163 -2.6688
  251MOL0     H33876   8.182   7.721   9.010 -1.2002  0.1051 -0.0746
  251MOL0     H33877   8.406   7.594   8.962 -1.0069  2.3356 -0.4401
  251MOL0     H33878   8.277   7.570   8.838 -0.5405 -1.0071 -0.3885
  251MOL0     H33879   8.214   7.356   8.931  1.1720 -0.8036  0.0260
  251MOL0     H33880   8.342   7.365   9.045  1.4647 -0.2406  0.4277
  251MOL0     H33881   8.444   7.225   8.878  1.9269 -0.8789 -0.2764
  251MOL0     H33882   8.512   7.387   8.854  0.3908  0.2318 -2.5226
  251MOL0     H33883   8.341   7.365   8.485  1.4642  1.8586  0.3655
  251MOL0     H33884   8.236   7.516   9.432 -2.1932 -1.3081  1.0286
  251MOL0     H33885   8.089   7.574   9.597  0.9079 -2.5145  0.4120
  252MOL0     O33886   8.792   2.235   5.152  0.1545  0.0284 -0.0929
  252MOL0     C33887   8.808   2.186   5.252  0.2748 -0.6544 -0.9813
  252MOL0     O33888   8.860   2.064   5.273 -0.0564 -0.3538 -0.2201
  252MOL0     C33889   8.890   1.986   5.171 -0.3428 -1.1827  0.1807
  252MOL0     C33890   8.801   1.968   5.064 -0.6050  0.1239  0.0563
  252MOL0     C33891   8.832   1.868   4.970  0.5654  0.4692 -0.7179
  252MOL0     C33892   8.945   1.784   4.980 -0.2925  0.5344  0.1322
  252MOL0     O33893   8.970   1.682   4.891 -0.2220  0.0289 -0.9403
  252MOL0     C33894   8.981   1.721   4.752 -0.7370  0.5076  0.1932
  252MOL0     C33895   8.850   1.746   4.676  0.2029 -0.1272  0.3892
  252MOL0     C33896   8.867   1.752   4.528  0.6794  0.1002  0.0439
  252MOL0     C33897   8.807   1.877   4.457 -0.3516  0.7715 -0.2828
  252MOL0     C33898   8.852   1.884   4.310  0.0005  0.1792  0.0014
  252MOL0     C33899   8.971   1.982   4.285  1.4764 -0.4842  0.2741
  252MOL0     C33900   8.992   1.975   4.134  0.3953  0.5092 -0.4348
  252MOL0     C33901   9.092   2.088   4.104 -0.5382  0.0729  0.4096
  252MOL0     N33902   9.226   2.041   4.124 -0.9229 -1.0219  0.4056
  252MOL0     C33903   9.294   2.015   4.235  0.0108  0.0745 -0.4682
  252MOL0     C33904   9.421   1.975   4.199 -0.4347  0.4969  1.0127
  252MOL0     C33905   9.525   1.934   4.303 -0.4244  0.4047  0.3245
  252MOL0     C33906   9.664   1.975   4.245 -0.5854  0.0240  0.4634
  252MOL0     C33907   9.773   1.948   4.338 -0.1387  0.7242  0.5335
  252MOL0     C33908   9.904   1.989   4.281 -0.3420  1.1898 -0.3929
  252MOL0     O33909   9.983   2.065   4.370 -0.3197  0.7920 -0.1626
  252MOL0     C33910  10.085   2.149   4.330  0.6854  0.0020 -0.6520
  252MOL0     C33911  10.115   2.252   4.407  1.0022 -0.3755 -0.2855
  252MOL0     C33912  10.205   2.363   4.382  0.5735 -0.1270  0.4167
  252MOL0     C33913  10.222   2.482   4.465  0.3361 -0.8937  0.2326
  252MOL0     C33914  10.273   2.336   4.259  0.3764 -0.1922 -0.0339
  252MOL0     C33915  10.374   2.435   4.215  0.0129 -0.3548  0.0290
  252MOL0     O33916  10.355   2.568   4.242 -0.0593  0.7997 -0.2756
  252MOL0     C33917  10.460   2.650   4.268 -0.4949 -0.5480  0.5299
  252MOL0     C33918  10.490   2.767   4.184  0.8988 -0.0058 -0.1474
  252MOL0     C33919  10.601   2.847   4.203  0.8760  1.2569  0.9069
  252MOL0     C33920  10.686   2.825   4.316 -0.3622  0.1390  0.3352
  252MOL0     O33921  10.786   2.918   4.333 -0.6501 -0.1353 -0.7088
  252MOL0     C33922  10.887   2.896   4.439 -0.7128 -0.7724 -0.6400
  252MOL0     C33923  11.007   2.983   4.416  0.5887  0.5113 -0.3969
  252MOL0     C33924  11.068   2.980   4.273  0.7076  0.6047 -0.5265
  252MOL0     C33925  11.155   3.106   4.234  0.5039 -0.1050 -0.3487
  252MOL0     C33926  11.084   3.215   4.157 -0.3076 -0.0072  0.4249
  252MOL0     C33927  10.984   3.299   4.232 -0.4189 -0.7026  0.3352
  252MOL0     C33928  10.956   3.437   4.171  0.6009 -0.0872  0.5834
  252MOL0     C33929  10.891   3.539   4.262  0.2979  0.1091 -0.4070
  252MOL0    Cl33930  11.013   3.611   4.368 -0.2260 -0.2370  0.2045
  252MOL0     C33931  10.674   2.701   4.389 -0.3680  0.4980 -0.5174
  252MOL0     C33932  10.565   2.620   4.367 -0.0212  0.0117  0.3911
  252MOL0     O33933  10.478   2.386   4.163  1.1756  0.0857 -0.4578
  252MOL0     C33934  10.248   2.229   4.171  0.2273 -0.8694  0.5581
  252MOL0     C33935  10.150   2.133   4.202 -0.4383  0.3654  0.5318
  252MOL0     N33936   9.427   1.989   4.060 -0.4411  0.8006  0.3852
  252MOL0     N33937   9.316   2.026   4.016 -0.4353 -0.4623  0.3836
  252MOL0     C33938   9.033   1.806   5.090 -0.1558 -0.2512 -0.0218
  252MOL0     C33939   9.012   1.914   5.174 -0.6013 -0.1488 -0.1687
  252MOL0     C33940   8.791   2.270   5.386 -0.4479 -0.0233 -0.2877
  252MOL0     C33941   8.756   2.204   5.502 -0.7009 -1.1881 -0.3573
  252MOL0     C33942   8.734   2.270   5.627 -0.6061  0.5041  0.9022
  252MOL0     C33943   8.760   2.397   5.637 -0.0005  0.7694 -0.6794
  252MOL0     O33944   8.756   2.436   5.763 -0.3881 -0.8163 -0.0365
  252MOL0     C33945   8.790   2.571   5.807  0.4576  0.7359 -0.0302
  252MOL0     C33946   8.947   2.588   5.829 -0.5566 -0.1541 -0.6364
  252MOL0     C33947   9.001   2.515   5.959 -0.6709 -0.0024  0.1603
  252MOL0     C33948   9.150   2.513   5.939  0.0793  0.0278 -0.3911
  252MOL0     C33949   9.227   2.522   6.058  0.0356 -0.0672 -1.1545
  252MOL0     C33950   9.287   2.530   6.170  0.8421 -0.5601 -0.4933
  252MOL0     C33951   8.793   2.468   5.521  1.2016  0.5986  0.4326
  252MOL0     C33952   8.804   2.406   5.393  0.4937  0.4410 -0.2848
  252MOL0     H33953   8.703   2.015   5.075 -0.7685 -0.2308  0.1249
  252MOL0     H33954   8.757   1.834   4.900 -1.0602 -2.6340  2.2895
  252MOL0     H33955   9.043   1.810   4.742  3.4885 -2.3749 -4.7370
  252MOL0     H33956   9.023   1.640   4.691 -4.8292  1.8430 -5.1759
  252MOL0     H33957   8.782   1.665   4.704  2.0234 -1.3869  1.4185
  252MOL0     H33958   8.809   1.843   4.704 -0.2093 -0.0826 -0.3305
  252MOL0     H33959   8.975   1.761   4.513  0.7450  1.2965  1.0681
  252MOL0     H33960   8.835   1.654   4.489  1.2177  0.6941 -2.0087
  252MOL0     H33961   8.698   1.866   4.457 -0.1762 -1.3051 -1.0849
  252MOL0     H33962   8.836   1.969   4.509 -0.6149  1.4696 -1.3369
  252MOL0     H33963   8.892   1.790   4.270  5.5562  1.6112  1.3408
  252MOL0     H33964   8.767   1.905   4.245 -2.7070 -1.5968  2.6936
  252MOL0     H33965   8.934   2.083   4.307  0.5766 -1.1801  2.1782
  252MOL0     H33966   9.057   1.966   4.351 -1.1306 -1.2280  3.7749
  252MOL0     H33967   9.033   1.878   4.105  0.3090  0.5874 -0.8225
  252MOL0     H33968   8.896   1.979   4.082 -2.8015 -6.0277  3.5344
  252MOL0     H33969   9.063   2.182   4.152 -0.0502  0.4012  0.0748
  252MOL0     H33970   9.091   2.121   3.999  2.0715  2.5392  1.0226
  252MOL0     H33971   9.258   2.024   4.337  0.5396 -0.9180 -0.1740
  252MOL0     H33972   9.505   1.979   4.401 -1.9137 -2.3513  1.4220
  252MOL0     H33973   9.522   1.825   4.310  0.4724  0.3160 -0.5049
  252MOL0     H33974   9.659   2.084   4.237 -3.2598 -0.1211 -1.3193
  252MOL0     H33975   9.675   1.939   4.143 -2.1274 -0.4964  0.4530
  252MOL0     H33976   9.766   1.841   4.357 -0.5439  0.6362 -0.1054
  252MOL0     H33977   9.767   2.001   4.434  0.6316 -0.9293  1.5337
  252MOL0     H33978   9.872   2.047   4.194 -2.6780  0.6306  0.0436
  252MOL0     H33979   9.968   1.908   4.247  1.9373  2.7523 -0.0826
  252MOL0     H33980  10.060   2.260   4.500 -2.7049 -1.1442 -2.2024
  252MOL0     H33981  10.325   2.517   4.476 -0.8162  3.1682 -0.3754
  252MOL0     H33982  10.157   2.562   4.429 -0.5563 -1.8441 -0.3498
  252MOL0     H33983  10.197   2.443   4.565 -1.5320 -2.9820 -0.9614
  252MOL0     H33984  10.428   2.791   4.099  0.3010 -2.0342 -0.3240
  252MOL0     H33985  10.601   2.925   4.127  2.1017  0.1656 -0.2703
  252MOL0     H33986  10.833   2.921   4.531 -1.3706  1.4298 -1.5495
  252MOL0     H33987  10.925   2.794   4.453  3.5201  0.9783  3.0395
  252MOL0     H33988  10.970   3.086   4.426  4.2145  1.7413  2.8490
  252MOL0     H33989  11.072   2.958   4.501 -0.7516  3.0322  1.5408
  252MOL0     H33990  10.985   2.976   4.202 -0.2607  1.8419  0.4871
  252MOL0     H33991  11.122   2.886   4.259 -1.9510 -1.0489 -0.1846
  252MOL0     H33992  11.189   3.135   4.334 -4.0882 -2.7233  2.3084
  252MOL0     H33993  11.236   3.074   4.168 -0.9662 -0.3493 -2.1183
  252MOL0     H33994  11.029   3.179   4.069 -0.6996 -1.2402  1.1558
  252MOL0     H33995  11.151   3.278   4.099 -0.7256  2.7760  2.7186
  252MOL0     H33996  10.892   3.240   4.230 -0.5839 -0.4560  0.6096
  252MOL0     H33997  11.021   3.315   4.334  0.5758  0.3108 -0.1680
  252MOL0     H33998  10.888   3.419   4.087  1.1605  1.1349 -0.1637
  252MOL0     H33999  11.055   3.469   4.136  0.3396  0.0512 -0.0513
  252MOL0     H34000  10.815   3.484   4.319 -1.2975  0.6057 -1.9833
  252MOL0     H34001  10.837   3.610   4.200  1.7029 -0.1052 -1.9319
  252MOL0     H34002  10.740   2.668   4.469 -1.5777  0.8917  0.6824
  252MOL0     H34003  10.553   2.534   4.433 -0.1441 -0.6704 -0.4992
  252MOL0     H34004  10.310   2.221   4.082 -0.1893  2.9198 -0.2475
  252MOL0     H34005  10.116   2.064   4.125 -0.6551  2.4841 -1.4092
  252MOL0     H34006   9.123   1.748   5.112 -1.3487 -1.6669  1.4320
  252MOL0     H34007   9.088   1.933   5.249  0.7411  0.4142 -1.6037
  252MOL0     H34008   8.744   2.098   5.485  2.0007 -1.4210 -1.2096
  252MOL0     H34009   8.707   2.201   5.706  1.1595 -2.2711 -0.7435
  252MOL0     H34010   8.766   2.649   5.733  0.2416 -1.3440 -2.2748
  252MOL0     H34011   8.733   2.592   5.898 -1.7915  0.9395 -1.4006
  252MOL0     H34012   8.975   2.693   5.830 -3.7153  0.7905 -0.0060
  252MOL0     H34013   9.003   2.555   5.741  0.4821  2.0598 -0.8758
  252MOL0     H34014   8.959   2.414   5.959  1.5162 -1.0269 -2.1694
  252MOL0     H34015   8.957   2.568   6.044 -3.2089 -0.6666 -0.6389
  252MOL0     H34016   9.178   2.595   5.872  0.0579  1.6285  1.4746
  252MOL0     H34017   9.188   2.427   5.884 -1.2325 -2.9316  2.8987
  252MOL0     H34018   9.346   2.537   6.259  2.3184 -2.3354 -1.2609
  252MOL0     H34019   8.833   2.568   5.533  1.5232  0.5349 -0.0943
  252MOL0     H34020   8.834   2.466   5.308 -0.3221  1.3542  0.0466
  253MOL0     O34021   7.975   2.718   3.691 -0.7915 -0.7322  0.3630
  253MOL0     C34022   7.940   2.626   3.618 -1.2012 -0.0454  0.2401
  253MOL0     O34023   7.912   2.624   3.482 -0.1359  0.4051  0.0933
  253MOL0     C34024   7.923   2.742   3.408 -0.8537 -0.1718  0.5867
  253MOL0     C34025   7.929   2.726   3.270 -0.2070  0.2667  0.7099
  253MOL0     C34026   7.937   2.838   3.185 -0.6890  0.5381 -0.8140
  253MOL0     C34027   7.935   2.964   3.237 -0.3153 -0.1008 -0.0633
  253MOL0     O34028   7.936   3.083   3.176 -0.0419 -0.1217  0.1761
  253MOL0     C34029   8.026   3.102   3.066 -1.3523  0.6940 -0.5321
  253MOL0     C34030   8.046   3.252   3.035  0.7436  0.3273 -0.0673
  253MOL0     C34031   8.121   3.319   3.153  0.8496 -0.1279  0.1767
  253MOL0     C34032   8.270   3.311   3.129  1.0015 -0.8048  0.3197
  253MOL0     C34033   8.345   3.384   3.246 -0.2108  1.3972 -0.3150
  253MOL0     C34034   8.301   3.525   3.264  0.1632  0.6507 -0.7253
  253MOL0     C34035   8.410   3.593   3.366  0.3232  0.2867  0.1298
  253MOL0     C34036   8.398   3.540   3.509  0.1394  1.1940 -0.4665
  253MOL0     N34037   8.527   3.505   3.577 -0.8942  0.0370 -0.3215
  253MOL0     C34038   8.571   3.561   3.691 -0.4744  0.3096  0.6394
  253MOL0     C34039   8.637   3.462   3.758  0.1970 -0.3238  1.1120
  253MOL0     C34040   8.702   3.468   3.887 -0.1284  0.8116  0.9055
  253MOL0     C34041   8.855   3.453   3.882  0.9237  0.2197 -1.0342
  253MOL0     C34042   8.910   3.418   4.025 -0.2505  0.4420 -0.3954
  253MOL0     C34043   8.845   3.492   4.147  0.1426 -0.6045  0.9174
  253MOL0     O34044   8.871   3.631   4.143 -0.8822 -0.4088  0.9705
  253MOL0     C34045   8.994   3.675   4.174 -0.0125 -0.3201 -0.3830
  253MOL0     C34046   9.023   3.712   4.306  0.3341  0.7548  0.5150
  253MOL0     C34047   9.144   3.769   4.339  0.3719  0.6788  0.2476
  253MOL0     C34048   9.176   3.807   4.482 -1.1201  0.3809 -0.2197
  253MOL0     C34049   9.239   3.774   4.242  0.3416 -0.1608 -0.5670
  253MOL0     C34050   9.372   3.831   4.281  0.4343 -0.3690  1.6831
  253MOL0     O34051   9.355   3.966   4.275  0.5588  0.4667 -0.7286
  253MOL0     C34052   9.468   4.044   4.275  0.8932 -1.0078 -0.0519
  253MOL0     C34053   9.484   4.134   4.172  0.1595 -0.0015  1.0917
  253MOL0     C34054   9.588   4.228   4.176 -0.1168 -0.1567 -1.0504
  253MOL0     C34055   9.679   4.240   4.284 -0.6155 -0.0462  0.1141
  253MOL0     O34056   9.776   4.330   4.267  0.3638  0.4508 -0.8742
  253MOL0     C34057   9.889   4.320   4.354 -0.9786  0.2187 -0.7054
  253MOL0     C34058   9.869   4.393   4.493  1.1004 -0.6189  0.4271
  253MOL0     C34059   9.866   4.544   4.453 -0.2311 -0.1601 -0.1139
  253MOL0     C34060   9.802   4.614   4.569  0.9154 -0.0739 -0.3994
  253MOL0     C34061   9.832   4.761   4.557  0.1734 -0.0189 -0.3239
  253MOL0     C34062   9.776   4.849   4.660  0.0100 -0.3406  0.1273
  253MOL0     C34063   9.813   4.989   4.617  0.6377 -0.4774  0.1814
  253MOL0     C34064   9.710   5.082   4.702  0.2565 -1.4917  0.6968
  253MOL0    Cl34065   9.753   5.080   4.873 -0.2049 -0.0697  0.3390
  253MOL0     C34066   9.646   4.161   4.398 -0.3218  1.1081 -0.0169
  253MOL0     C34067   9.535   4.068   4.389 -0.3722 -0.3323 -0.0189
  253MOL0     O34068   9.475   3.765   4.271 -0.9489 -0.4468 -0.5083
  253MOL0     C34069   9.219   3.734   4.118  0.1875 -0.6152  1.0289
  253MOL0     C34070   9.098   3.682   4.087 -0.8561 -0.4928  0.7761
  253MOL0     N34071   8.639   3.351   3.678 -0.7002 -0.6993 -0.2604
  253MOL0     N34072   8.570   3.379   3.575 -0.3564  0.0562 -0.9724
  253MOL0     C34073   7.927   2.986   3.370 -0.5085 -0.8614  0.0562
  253MOL0     C34074   7.924   2.881   3.456  0.3258 -0.0332 -0.4545
  253MOL0     C34075   7.910   2.493   3.692 -0.0221  0.1769  0.9935
  253MOL0     C34076   7.867   2.380   3.607  0.0080 -0.8227  0.3601
  253MOL0     C34077   7.843   2.253   3.678 -0.2907  0.1999  0.8460
  253MOL0     C34078   7.842   2.238   3.813 -0.2170 -0.4626  0.4828
  253MOL0     O34079   7.806   2.113   3.855 -0.3443 -1.0520  0.6593
  253MOL0     C34080   7.773   2.092   3.990 -0.0225  0.0196  0.4780
  253MOL0     C34081   7.642   2.147   4.042  0.9873 -0.0832 -0.1883
  253MOL0     C34082   7.632   2.143   4.194  0.0234  0.0982  0.4760
  253MOL0     C34083   7.609   1.996   4.237  0.3708 -0.3497 -0.3023
  253MOL0     C34084   7.731   1.941   4.302 -0.2535 -0.3591 -0.0908
  253MOL0     C34085   7.833   1.889   4.335 -0.2305  0.8067  0.1867
  253MOL0     C34086   7.884   2.348   3.891  0.5413  0.4508  0.6059
  253MOL0     C34087   7.925   2.470   3.836 -0.3478 -0.0052 -0.0469
  253MOL0     H34088   7.928   2.623   3.233 -0.8604 -0.7693  3.3713
  253MOL0     H34089   7.942   2.839   3.076  1.7528  2.1446 -0.7803
  253MOL0     H34090   8.123   3.057   3.090 -2.3404 -0.6797  1.1411
  253MOL0     H34091   7.986   3.052   2.978 -0.3139  2.0693 -1.8285
  253MOL0     H34092   8.094   3.261   2.937 -2.5221  2.3348 -1.6611
  253MOL0     H34093   7.950   3.304   3.028  0.3362 -0.6268 -2.8999
  253MOL0     H34094   8.093   3.425   3.145  0.1512 -0.2995  0.2716
  253MOL0     H34095   8.097   3.275   3.251  0.5029  0.9974  0.6246
  253MOL0     H34096   8.293   3.204   3.124 -0.2769 -1.2697  2.8863
  253MOL0     H34097   8.305   3.365   3.040 -1.3443  1.7439  0.8241
  253MOL0     H34098   8.332   3.320   3.334  0.7298  3.2937  1.2862
  253MOL0     H34099   8.453   3.379   3.232 -0.3145 -1.4868 -0.6668
  253MOL0     H34100   8.306   3.590   3.176 -0.1090  5.4769  2.4311
  253MOL0     H34101   8.200   3.539   3.303  0.3895  1.4565 -0.3946
  253MOL0     H34102   8.512   3.593   3.327  1.3583 -2.9461  2.4481
  253MOL0     H34103   8.372   3.696   3.371 -2.9015 -0.8507  3.3913
  253MOL0     H34104   8.351   3.441   3.511  4.3941 -1.1669 -3.2766
  253MOL0     H34105   8.334   3.607   3.568 -0.2538  0.9111 -0.5631
  253MOL0     H34106   8.551   3.662   3.726 -2.1064 -0.7452  2.9653
  253MOL0     H34107   8.669   3.556   3.944 -2.4277 -0.4495  1.6531
  253MOL0     H34108   8.666   3.375   3.933  1.8002 -0.3842  0.1300
  253MOL0     H34109   8.885   3.554   3.851 -0.2651  1.0911  0.4647
  253MOL0     H34110   8.893   3.374   3.816  1.0588 -0.1126 -0.5579
  253MOL0     H34111   9.017   3.440   4.017 -0.6532  2.5057 -0.7693
  253MOL0     H34112   8.892   3.314   4.050  1.8447 -0.3869 -2.0178
  253MOL0     H34113   8.895   3.451   4.236  0.0147 -0.9327  0.8395
  253MOL0     H34114   8.737   3.488   4.161 -0.0248  1.8305  0.8040
  253MOL0     H34115   8.947   3.713   4.383  3.4030  1.4557  3.8026
  253MOL0     H34116   9.181   3.915   4.497 -2.1995  0.3959  0.0848
  253MOL0     H34117   9.090   3.776   4.542 -1.1948 -3.4396 -2.0024
  253MOL0     H34118   9.274   3.769   4.513  0.1473  2.2637 -1.7083
  253MOL0     H34119   9.419   4.138   4.085 -1.3447  3.6874  2.2051
  253MOL0     H34120   9.592   4.283   4.083 -3.5143  2.9058  0.3761
  253MOL0     H34121   9.916   4.216   4.375 -4.3098 -0.7114 -0.3984
  253MOL0     H34122   9.974   4.366   4.302 -0.9273  1.2961  0.3033
  253MOL0     H34123   9.774   4.365   4.540  1.1032 -1.4695 -0.0629
  253MOL0     H34124   9.950   4.374   4.564  0.9933  1.7216  1.2609
  253MOL0     H34125   9.808   4.559   4.362 -2.0401 -1.7627  0.6921
  253MOL0     H34126   9.973   4.564   4.440  0.3694 -1.8842  1.6239
  253MOL0     H34127   9.693   4.607   4.572  0.9784 -0.9590  1.0641
  253MOL0     H34128   9.827   4.573   4.668 -2.4648 -1.7155 -0.0869
  253MOL0     H34129   9.783   4.793   4.465 -1.2009  4.3307  1.6659
  253MOL0     H34130   9.941   4.771   4.550  0.1010  2.1935  0.9017
  253MOL0     H34131   9.668   4.832   4.652 -0.3862  1.1022  1.8437
  253MOL0     H34132   9.806   4.831   4.764  3.0685  0.4421 -0.5312
  253MOL0     H34133   9.806   5.004   4.509 -1.8232  0.8291  0.4301
  253MOL0     H34134   9.910   5.019   4.657  0.1016  1.4787  0.1524
  253MOL0     H34135   9.609   5.045   4.682  0.0556 -0.1506 -0.9627
  253MOL0     H34136   9.719   5.182   4.658  1.3008 -1.9680 -0.2165
  253MOL0     H34137   9.700   4.166   4.492 -0.7172 -0.0151  0.2859
  253MOL0     H34138   9.517   3.994   4.466  0.8430  0.0401  0.6610
  253MOL0     H34139   9.296   3.734   4.042  0.0271  0.5548  0.8523
  253MOL0     H34140   9.082   3.658   3.982 -2.6078  4.0251 -0.2217
  253MOL0     H34141   7.938   3.086   3.412  1.9418  0.0016 -2.3849
  253MOL0     H34142   7.903   2.896   3.561 -4.8055  0.3890 -1.3040
  253MOL0     H34143   7.873   2.391   3.499  0.6579  0.5803  0.5248
  253MOL0     H34144   7.832   2.159   3.625  0.7176  0.2237  0.5798
  253MOL0     H34145   7.761   1.983   3.994  1.5221 -0.1847  0.0723
  253MOL0     H34146   7.846   2.117   4.067 -1.8955  1.4452  1.8826
  253MOL0     H34147   7.558   2.087   4.006 -1.4386  1.2960  2.7684
  253MOL0     H34148   7.621   2.245   3.997 -1.9484 -1.8451 -3.1544
  253MOL0     H34149   7.540   2.200   4.212 -2.4474 -3.2159 -0.5631
  253MOL0     H34150   7.716   2.191   4.245 -0.5124  0.7472  0.7606
  253MOL0     H34151   7.564   1.931   4.161 -0.2109 -0.6891  0.3239
  253MOL0     H34152   7.536   1.999   4.318  0.3345 -0.7308 -0.3197
  253MOL0     H34153   7.934   1.857   4.350  1.3146  4.1787 -1.8195
  253MOL0     H34154   7.895   2.346   3.999 -0.3956  0.0844  0.7096
  253MOL0     H34155   7.940   2.554   3.902 -1.5003  1.5450 -1.6554
  254MOL0     O34156   2.989   2.820   7.788 -0.3329 -0.1235  0.1986
  254MOL0     C34157   3.043   2.793   7.901  0.4691  0.2219  0.5624
  254MOL0     O34158   2.997   2.831   8.031 -0.5779  0.2088  0.8540
  254MOL0     C34159   2.927   2.947   8.048  0.2917  0.9093 -0.0278
  254MOL0     C34160   2.878   3.055   7.953  0.5886  0.7628  0.2143
  254MOL0     C34161   2.811   3.174   8.008 -0.0700  0.4390  0.1143
  254MOL0     C34162   2.795   3.189   8.148  0.8140 -0.2073  0.1846
  254MOL0     O34163   2.717   3.288   8.194  0.0536 -0.5244 -0.0266
  254MOL0     C34164   2.607   3.253   8.281  0.7145 -0.5362 -0.1029
  254MOL0     C34165   2.474   3.331   8.248  0.8157 -0.7065  0.8426
  254MOL0     C34166   2.409   3.265   8.133  0.8402  0.3464  0.3589
  254MOL0     C34167   2.258   3.288   8.115  0.7572  0.2343  0.0673
  254MOL0     C34168   2.225   3.427   8.060  0.2232  0.1678  0.0070
  254MOL0     C34169   2.074   3.435   8.032 -0.2380 -0.0996  0.7842
  254MOL0     C34170   2.025   3.580   7.999 -0.3242 -0.4718 -0.1833
  254MOL0     C34171   2.045   3.625   7.848 -0.0850 -0.8282  0.0851
  254MOL0     N34172   1.980   3.530   7.750  0.2502 -0.2694  0.0505
  254MOL0     C34173   1.850   3.491   7.777 -0.4358  0.2899 -0.7882
  254MOL0     C34174   1.837   3.382   7.701  0.3788  0.8758  0.6909
  254MOL0     C34175   1.715   3.293   7.685  0.3490  0.3857 -0.2562
  254MOL0     C34176   1.642   3.324   7.553  0.4450  0.1793  0.1225
  254MOL0     C34177   1.524   3.226   7.528  0.2388  0.4684 -0.2687
  254MOL0     C34178   1.452   3.262   7.394 -0.3767  0.3609  0.7183
  254MOL0     O34179   1.356   3.357   7.433  0.2776 -0.0625 -0.3172
  254MOL0     C34180   1.329   3.460   7.350 -0.6607  0.1359  0.4006
  254MOL0     C34181   1.188   3.516   7.353 -0.2930  0.2354 -0.4173
  254MOL0     C34182   1.146   3.623   7.276  0.5224 -0.2094 -0.8694
  254MOL0     C34183   1.005   3.682   7.298 -0.2884  0.4901  0.6918
  254MOL0     C34184   1.238   3.668   7.182  0.2822  0.6407  0.4257
  254MOL0     C34185   1.217   3.792   7.104 -0.9632 -0.0693  0.0383
  254MOL0     O34186   1.178   3.902   7.171  0.0665 -0.1038 -0.1942
  254MOL0     C34187   1.168   4.021   7.114  0.4896 -0.8218 -0.3970
  254MOL0     C34188   1.236   4.075   6.999  0.5870 -0.6620 -0.4523
  254MOL0     C34189   1.221   4.212   6.961 -0.3240  0.4763 -0.7578
  254MOL0     C34190   1.133   4.293   7.027 -0.8976 -0.2213  0.8121
  254MOL0     O34191   1.101   4.421   6.980  0.1876  0.1620  0.2990
  254MOL0     C34192   1.135   4.471   6.845  0.2437  0.3445 -0.0010
  254MOL0     C34193   1.102   4.615   6.818  0.2330 -1.2563  0.0944
  254MOL0     C34194   1.147   4.717   6.940 -0.0956 -0.0832  0.2063
  254MOL0     C34195   1.299   4.694   6.973  0.2160  0.3995  0.0551
  254MOL0     C34196   1.340   4.749   7.106 -0.6461  0.3980 -0.6838
  254MOL0     C34197   1.391   4.895   7.096 -1.3993  0.4705 -0.1774
  254MOL0     C34198   1.275   5.008   7.084  0.5370  0.2244  0.0126
  254MOL0     C34199   1.334   5.150   7.106  0.2341 -0.2611  0.0547
  254MOL0    Cl34200   1.342   5.173   7.298 -0.0428  0.1735 -0.2582
  254MOL0     C34201   1.070   4.244   7.138  1.0418  0.4393 -0.3583
  254MOL0     C34202   1.100   4.117   7.192  0.9470  0.9278  0.9412
  254MOL0     O34203   1.240   3.781   6.986  0.8204  0.0265 -0.4117
  254MOL0     C34204   1.369   3.619   7.175  0.1929 -0.2467 -0.3152
  254MOL0     C34205   1.415   3.522   7.262  0.4112 -0.3904 -0.8606
  254MOL0     N34206   1.945   3.354   7.631 -0.5883  0.5752 -0.1477
  254MOL0     N34207   2.044   3.429   7.675 -0.6979 -0.5268  0.5334
  254MOL0     C34208   2.844   3.093   8.236 -0.1875 -0.0422 -0.1084
  254MOL0     C34209   2.906   2.974   8.189  0.4065  0.3540  0.5565
  254MOL0     C34210   3.163   2.715   7.903  0.7068  1.2290  0.8002
  254MOL0     C34211   3.267   2.724   7.799  0.5719  0.7596  0.3478
  254MOL0     C34212   3.378   2.647   7.807 -0.6214 -0.3289  0.4098
  254MOL0     C34213   3.390   2.538   7.894 -0.4165 -0.4945 -0.4414
  254MOL0     O34214   3.512   2.464   7.890  0.4022  0.7235  0.6273
  254MOL0     C34215   3.504   2.339   7.950  0.5951  0.5183 -0.7188
  254MOL0     C34216   3.619   2.242   7.910  0.1037  0.0100 -1.1281
  254MOL0     C34217   3.632   2.227   7.752 -0.1784 -0.1066 -0.3099
  254MOL0     C34218   3.502   2.185   7.684 -0.2037 -0.0377  0.0353
  254MOL0     C34219   3.431   2.070   7.743  1.1369  0.2590 -0.7222
  254MOL0     C34220   3.355   1.988   7.792  0.0359 -0.5887  0.2842
  254MOL0     C34221   3.295   2.525   8.002  1.0760  0.6511 -0.0741
  254MOL0     C34222   3.184   2.618   8.004  0.7509  0.3551  0.2406
  254MOL0     H34223   2.890   3.033   7.848 -1.6789 -1.2017  0.2881
  254MOL0     H34224   2.774   3.246   7.936 -2.9787 -0.3804  0.6620
  254MOL0     H34225   2.580   3.147   8.277  1.7442 -0.8181 -4.7875
  254MOL0     H34226   2.635   3.271   8.385  0.5923 -4.7225  0.8504
  254MOL0     H34227   2.402   3.316   8.329 -0.3902 -0.7033 -0.1935
  254MOL0     H34228   2.492   3.439   8.245 -1.4464 -0.2876  0.7551
  254MOL0     H34229   2.455   3.300   8.040 -3.5957 -2.2860 -3.2267
  254MOL0     H34230   2.429   3.158   8.142 -1.3155 -0.1166  0.1315
  254MOL0     H34231   2.213   3.205   8.059 -0.6855 -0.7534  2.5028
  254MOL0     H34232   2.210   3.280   8.213 -0.8820  1.6580 -0.5656
  254MOL0     H34233   2.240   3.496   8.144  0.8146 -0.3118  0.2955
  254MOL0     H34234   2.291   3.467   7.982 -2.3147  1.1860 -1.7789
  254MOL0     H34235   2.060   3.367   7.948  3.3428  0.8972 -0.8042
  254MOL0     H34236   2.011   3.404   8.115 -2.7373  1.6057 -0.3330
  254MOL0     H34237   1.920   3.598   8.026  0.3706 -0.4829  2.8550
  254MOL0     H34238   2.076   3.645   8.070 -2.3883  0.6141  0.3808
  254MOL0     H34239   2.153   3.635   7.831 -0.2811  0.7003 -0.4625
  254MOL0     H34240   2.000   3.724   7.834 -0.1009 -1.2497 -4.1632
  254MOL0     H34241   1.789   3.536   7.855  0.7971 -0.1999  0.5048
  254MOL0     H34242   1.744   3.188   7.674  1.2937  0.8109 -2.1836
  254MOL0     H34243   1.650   3.313   7.771 -0.4631 -0.9402 -0.5227
  254MOL0     H34244   1.706   3.332   7.465  0.3203 -0.0246  0.0098
  254MOL0     H34245   1.611   3.427   7.574  1.6774  0.1690  2.2501
  254MOL0     H34246   1.450   3.213   7.608 -2.2394 -0.3627 -2.5286
  254MOL0     H34247   1.577   3.131   7.532  2.9527  1.8865  0.2445
  254MOL0     H34248   1.401   3.177   7.349  0.4134 -0.6603  1.6714
  254MOL0     H34249   1.534   3.294   7.329 -1.0466  0.8265  0.0916
  254MOL0     H34250   1.118   3.485   7.431 -0.4149 -0.4207 -0.7875
  254MOL0     H34251   0.931   3.671   7.218  0.9100 -1.9151 -0.1840
  254MOL0     H34252   0.959   3.611   7.366  0.2838 -1.1299 -0.5568
  254MOL0     H34253   1.028   3.781   7.337  3.5668  0.0011  0.0402
  254MOL0     H34254   1.306   4.022   6.935 -1.2932 -0.7426 -2.5947
  254MOL0     H34255   1.279   4.247   6.876 -1.3822  2.0806 -0.8655
  254MOL0     H34256   1.240   4.462   6.813  0.6982  0.7909  1.3181
  254MOL0     H34257   1.063   4.427   6.775  1.3358  4.0747 -3.9493
  254MOL0     H34258   1.132   4.638   6.715  0.6973 -3.8652 -0.4264
  254MOL0     H34259   0.993   4.625   6.820  0.3408  0.4322 -0.4450
  254MOL0     H34260   1.090   4.686   7.028 -0.6139  1.0774  0.2919
  254MOL0     H34261   1.132   4.820   6.909  0.9275 -0.5568 -2.1056
  254MOL0     H34262   1.314   4.586   6.974  2.4866  0.6719  0.7112
  254MOL0     H34263   1.365   4.731   6.894 -1.5464  1.4160 -1.0004
  254MOL0     H34264   1.415   4.684   7.152 -0.4129  0.1250 -1.4414
  254MOL0     H34265   1.257   4.759   7.177  1.2619  2.7134  1.4278
  254MOL0     H34266   1.451   4.919   7.185 -1.6953 -0.6409  0.3388
  254MOL0     H34267   1.454   4.910   7.008  0.6367 -0.7450  0.9942
  254MOL0     H34268   1.192   4.992   7.154  0.6876  0.4139  0.2398
  254MOL0     H34269   1.241   5.013   6.981 -0.0850  1.1757  0.2469
  254MOL0     H34270   1.256   5.217   7.067  1.1032  0.8731  0.2189
  254MOL0     H34271   1.422   5.173   7.046  0.6669 -0.7701  0.4852
  254MOL0     H34272   1.000   4.308   7.191 -2.2445 -3.7689  0.9649
  254MOL0     H34273   1.079   4.080   7.292  2.1102  0.0408  0.8806
  254MOL0     H34274   1.437   3.683   7.120 -0.6700 -0.3284 -1.5327
  254MOL0     H34275   1.517   3.486   7.267  1.0459  1.4844  1.3834
  254MOL0     H34276   2.829   3.106   8.342  0.5696 -0.5626  0.0653
  254MOL0     H34277   2.948   2.910   8.266 -0.2737 -1.9313 -0.8984
  254MOL0     H34278   3.233   2.801   7.730 -2.6926 -0.1968  0.7137
  254MOL0     H34279   3.455   2.668   7.734  2.0027 -3.4687  2.0126
  254MOL0     H34280   3.520   2.363   8.056  2.2654  1.2267 -1.0890
  254MOL0     H34281   3.408   2.293   7.925  0.0641  0.9153  0.4759
  254MOL0     H34282   3.605   2.144   7.956  0.0697  0.1176 -0.9089
  254MOL0     H34283   3.709   2.272   7.964  0.2540 -1.9759 -0.1923
  254MOL0     H34284   3.700   2.145   7.731  0.8031  0.7305 -0.4779
  254MOL0     H34285   3.678   2.312   7.701 -0.3606  0.4996  0.5112
  254MOL0     H34286   3.512   2.170   7.576 -4.1245 -0.4471 -0.4233
  254MOL0     H34287   3.434   2.270   7.683 -1.2184 -0.8423 -0.4711
  254MOL0     H34288   3.287   1.908   7.815 -1.7507  0.8841  0.3351
  254MOL0     H34289   3.315   2.459   8.085  1.1092  0.2436 -0.4025
  254MOL0     H34290   3.104   2.594   8.073 -1.9619 -1.5375 -3.2540
  255MOL0     O34291   1.592   5.403   3.796 -0.8316 -0.5382 -0.2437
  255MOL0     C34292   1.487   5.336   3.798 -0.4481  0.0167  0.4938
  255MOL0     O34293   1.360   5.405   3.803  0.2985 -0.1802 -0.5913
  255MOL0     C34294   1.374   5.537   3.803  0.5460 -0.5758 -0.3740
  255MOL0     C34295   1.435   5.605   3.915  0.3104 -0.0757 -1.0173
  255MOL0     C34296   1.430   5.743   3.926  0.6714  1.9688 -0.1245
  255MOL0     C34297   1.370   5.809   3.823  0.5020 -0.1528  0.5879
  255MOL0     O34298   1.370   5.947   3.842  0.7768 -0.7252  0.5888
  255MOL0     C34299   1.303   6.036   3.749  0.5882 -0.1318  0.8986
  255MOL0     C34300   1.267   6.176   3.801  0.5718  0.1649  0.6077
  255MOL0     C34301   1.242   6.271   3.670  0.1246  0.5292 -0.3085
  255MOL0     C34302   1.271   6.413   3.708  0.8361 -0.0805 -0.5805
  255MOL0     C34303   1.167   6.450   3.818  0.4145  0.0451  0.5598
  255MOL0     C34304   1.171   6.597   3.848  0.6264 -1.3940 -0.2571
  255MOL0     C34305   1.071   6.652   3.958  0.4546 -0.0432 -0.6646
  255MOL0     C34306   1.062   6.553   4.077 -0.0073  0.2336 -0.7099
  255MOL0     N34307   1.180   6.552   4.154 -0.8655 -0.3991  0.1869
  255MOL0     C34308   1.267   6.656   4.197 -0.2492 -0.8661  1.2583
  255MOL0     C34309   1.376   6.595   4.242  0.5918 -0.5369  0.1569
  255MOL0     C34310   1.493   6.667   4.290 -0.7098  0.1312 -0.6083
  255MOL0     C34311   1.570   6.587   4.400 -0.0741  0.1208 -0.2933
  255MOL0     C34312   1.668   6.495   4.332 -0.2137  0.0020  0.2399
  255MOL0     C34313   1.785   6.449   4.409  0.0452  0.1537  0.9146
  255MOL0     O34314   1.868   6.553   4.456  0.1234  0.1084  0.5142
  255MOL0     C34315   1.969   6.601   4.374  0.3600  0.9059 -0.1748
  255MOL0     C34316   2.068   6.518   4.341 -0.1589  0.9342  0.9390
  255MOL0     C34317   2.172   6.552   4.251  0.3490 -0.3504 -0.8605
  255MOL0     C34318   2.256   6.444   4.198  0.7038  0.3326  0.4679
  255MOL0     C34319   2.182   6.693   4.200  0.5766 -0.2427  0.1416
  255MOL0     C34320   2.282   6.747   4.110 -0.2451  0.1152 -0.5273
  255MOL0     O34321   2.251   6.854   4.038  0.0920  0.2422 -0.6198
  255MOL0     C34322   2.345   6.918   3.956 -0.4681  0.4500  0.0557
  255MOL0     C34323   2.481   6.917   3.955 -0.7067 -0.0035  0.6558
  255MOL0     C34324   2.555   6.990   3.857  0.7231  0.7761  0.0641
  255MOL0     C34325   2.486   7.065   3.757  0.5719 -0.2686  0.1375
  255MOL0     O34326   2.534   7.147   3.663 -0.8515 -0.1050 -0.1457
  255MOL0     C34327   2.666   7.196   3.683  0.3726  0.1639  0.3919
  255MOL0     C34328   2.716   7.242   3.551  0.8137 -1.0226 -1.1169
  255MOL0     C34329   2.866   7.250   3.535 -0.0337 -0.1434  0.8635
  255MOL0     C34330   2.905   7.303   3.399 -0.8917  0.2464 -0.1799
  255MOL0     C34331   3.046   7.260   3.360 -0.1182 -0.0800 -0.2144
  255MOL0     C34332   3.143   7.308   3.470  0.5570 -0.4982 -0.0462
  255MOL0     C34333   3.285   7.273   3.439 -0.9381 -0.2069 -0.5167
  255MOL0     C34334   3.378   7.327   3.549  0.1471 -0.2696  0.6615
  255MOL0    Cl34335   3.385   7.505   3.528 -0.2085 -0.3225 -0.3588
  255MOL0     C34336   2.353   7.060   3.761 -0.1494 -0.1444 -0.4031
  255MOL0     C34337   2.283   6.993   3.868 -0.6300  0.5927 -0.7829
  255MOL0     O34338   2.391   6.682   4.115 -0.2909 -0.5146  0.4409
  255MOL0     C34339   2.078   6.775   4.239  0.5296  0.0875  0.4649
  255MOL0     C34340   1.974   6.727   4.334  0.9910  0.3584  0.3785
  255MOL0     N34341   1.354   6.461   4.240  0.1468  0.3490 -0.2364
  255MOL0     N34342   1.248   6.439   4.189 -0.4154 -0.3967 -0.4689
  255MOL0     C34343   1.317   5.745   3.717 -1.0047 -0.8052  1.0440
  255MOL0     C34344   1.323   5.615   3.702  0.3904 -1.1259  0.9479
  255MOL0     C34345   1.500   5.185   3.814 -0.5356  0.0720 -0.2612
  255MOL0     C34346   1.392   5.110   3.865  0.0845 -0.8827 -0.0202
  255MOL0     C34347   1.405   4.973   3.889  0.4391 -0.3756 -0.2416
  255MOL0     C34348   1.514   4.904   3.851  0.3754 -0.1559  0.0497
  255MOL0     O34349   1.507   4.763   3.852 -0.1130  0.4669  0.1979
  255MOL0     C34350   1.438   4.689   3.755  0.4175 -0.8127 -0.2182
  255MOL0     C34351   1.521   4.652   3.637 -0.2404 -0.0429 -0.8393
  255MOL0     C34352   1.589   4.510   3.633 -0.1549 -0.0419 -0.8073
  255MOL0     C34353   1.516   4.383   3.693  0.2154 -0.4159 -0.4529
  255MOL0     C34354   1.622   4.288   3.721  0.5111 -0.2254 -0.8025
  255MOL0     C34355   1.722   4.229   3.760  1.9417  0.2717  0.3172
  255MOL0     C34356   1.611   4.972   3.781 -0.0170 -1.3707 -0.2805
  255MOL0     C34357   1.614   5.112   3.774  0.4089 -0.0056 -0.0207
  255MOL0     H34358   1.483   5.529   3.977  2.9153  0.3793 -2.3627
  255MOL0     H34359   1.455   5.798   4.017 -2.7430 -0.6858  2.7079
  255MOL0     H34360   1.362   6.043   3.657  1.0637 -1.1067  1.1206
  255MOL0     H34361   1.207   5.986   3.731 -0.3452  2.3536 -1.8854
  255MOL0     H34362   1.177   6.173   3.863  0.3541  0.6753  0.3270
  255MOL0     H34363   1.343   6.213   3.870 -1.9205  1.2977  2.9406
  255MOL0     H34364   1.306   6.243   3.586  0.4037  0.9685 -0.2468
  255MOL0     H34365   1.137   6.246   3.652  0.7196 -3.1225  0.5147
  255MOL0     H34366   1.377   6.422   3.734  1.4860 -0.8640 -2.6901
  255MOL0     H34367   1.249   6.482   3.625 -0.8647  3.4110  2.4778
  255MOL0     H34368   1.064   6.420   3.798  1.0635 -1.5102 -0.7264
  255MOL0     H34369   1.197   6.402   3.911  0.4984 -0.2706  0.3699
  255MOL0     H34370   1.266   6.622   3.895 -1.7201  2.2121  3.2358
  255MOL0     H34371   1.149   6.660   3.761  2.2425 -0.6043 -0.1331
  255MOL0     H34372   1.102   6.750   3.993  0.9725 -0.6557  0.6599
  255MOL0     H34373   0.969   6.654   3.918 -0.0961 -2.4837  0.4423
  255MOL0     H34374   1.047   6.452   4.037 -0.6570 -0.2613  0.7375
  255MOL0     H34375   0.978   6.575   4.143 -1.5195 -2.1235 -1.6958
  255MOL0     H34376   1.258   6.763   4.185 -2.6833 -1.1691 -0.2859
  255MOL0     H34377   1.555   6.712   4.212 -0.3011 -1.1066 -1.0300
  255MOL0     H34378   1.468   6.760   4.341  3.1518  0.8092  0.3559
  255MOL0     H34379   1.499   6.529   4.459 -1.3539 -0.2684 -2.1178
  255MOL0     H34380   1.626   6.657   4.463 -0.9155 -0.5959  1.3078
  255MOL0     H34381   1.702   6.542   4.239 -0.0811 -0.4198  0.0679
  255MOL0     H34382   1.612   6.404   4.305  0.3512 -1.3732  3.3545
  255MOL0     H34383   1.841   6.374   4.352 -1.3156  0.8809 -1.4871
  255MOL0     H34384   1.746   6.396   4.497  0.8261  0.8484  1.6872
  255MOL0     H34385   2.065   6.418   4.384 -1.3997  0.5320 -0.0458
  255MOL0     H34386   2.330   6.402   4.267  0.1603 -3.6209 -1.0613
  255MOL0     H34387   2.188   6.360   4.178 -1.1861  0.0505  6.3293
  255MOL0     H34388   2.294   6.459   4.097 -1.4437 -2.8412 -0.9945
  255MOL0     H34389   2.534   6.852   4.024  0.9686  0.9861  0.3648
  255MOL0     H34390   2.663   6.981   3.864  0.6838 -3.6329 -1.6147
  255MOL0     H34391   2.683   7.283   3.747  2.5877  0.0092  0.0970
  255MOL0     H34392   2.728   7.114   3.723 -1.2520 -1.8924 -1.0515
  255MOL0     H34393   2.678   7.178   3.471  3.2081 -1.0005 -2.3759
  255MOL0     H34394   2.682   7.345   3.536 -0.3009 -0.9921  1.3039
  255MOL0     H34395   2.911   7.152   3.551 -0.0106  0.2806  4.0840
  255MOL0     H34396   2.903   7.323   3.608 -0.9924  1.6710 -0.3968
  255MOL0     H34397   2.836   7.258   3.327 -1.9165  2.0143 -0.3611
  255MOL0     H34398   2.894   7.412   3.391 -0.5089  0.4775  2.0004
  255MOL0     H34399   3.077   7.302   3.264  2.5235 -0.7515  0.2772
  255MOL0     H34400   3.048   7.151   3.348 -0.2664 -0.2795  1.3657
  255MOL0     H34401   3.141   7.418   3.468 -2.2215 -0.5016 -2.6595
  255MOL0     H34402   3.139   7.255   3.566  2.9318  0.0573  0.4252
  255MOL0     H34403   3.312   7.315   3.341  2.8690 -1.7051 -0.2931
  255MOL0     H34404   3.298   7.166   3.422 -4.1480 -0.5096 -1.7730
  255MOL0     H34405   3.473   7.275   3.534  0.5118 -0.0555  2.1033
  255MOL0     H34406   3.331   7.297   3.643 -2.8460 -1.7296 -1.1390
  255MOL0     H34407   2.289   7.109   3.688 -2.1487  1.5478  2.2956
  255MOL0     H34408   2.175   6.994   3.861 -0.8271 -1.6675  0.8071
  255MOL0     H34409   2.064   6.876   4.202  1.7729 -0.9517 -3.2663
  255MOL0     H34410   1.891   6.792   4.358 -0.3170 -1.3692  0.7507
  255MOL0     H34411   1.268   5.804   3.640  1.8557 -0.5998 -0.7598
  255MOL0     H34412   1.275   5.568   3.616  0.9219  0.6066 -0.3552
  255MOL0     H34413   1.306   5.164   3.901  1.8685  1.7452  0.6136
  255MOL0     H34414   1.323   4.918   3.934  0.6880  0.0685  0.7812
  255MOL0     H34415   1.393   4.598   3.794 -1.0287 -1.2184 -2.6486
  255MOL0     H34416   1.357   4.751   3.715  0.3608 -1.1186 -0.5757
  255MOL0     H34417   1.605   4.721   3.638 -0.2060 -0.0526 -1.6719
  255MOL0     H34418   1.470   4.676   3.543 -2.1824  0.7332  0.3481
  255MOL0     H34419   1.674   4.524   3.701 -1.4023  0.0671  0.7964
  255MOL0     H34420   1.624   4.489   3.532  0.0697  1.2873 -1.0304
  255MOL0     H34421   1.449   4.354   3.612  0.9897 -0.4469 -1.0957
  255MOL0     H34422   1.461   4.397   3.786  0.2335  0.6237 -0.5943
  255MOL0     H34423   1.805   4.186   3.812 -0.7985  1.0219  6.1036
  255MOL0     H34424   1.684   4.917   3.722  0.6316  1.4158 -2.3072
  255MOL0     H34425   1.691   5.170   3.724 -1.3739  0.7221 -2.0295
  256MOL0     O34426   8.660  10.287   8.321  1.0336 -0.2584 -0.9376
  256MOL0     C34427   8.642  10.185   8.251  0.5951  0.3820 -0.4180
  256MOL0     O34428   8.735  10.112   8.196  0.0036  0.0449  0.5552
  256MOL0     C34429   8.852  10.157   8.167 -0.8692  0.3514  0.5552
  256MOL0     C34430   8.956  10.111   8.239  0.3026  0.9685 -1.3802
  256MOL0     C34431   9.080  10.159   8.201 -0.4436 -0.0110 -0.0129
  256MOL0     C34432   9.103  10.250   8.089  0.3784 -0.4264 -0.9328
  256MOL0     O34433   9.231  10.282   8.050 -0.4394 -0.0449  0.1909
  256MOL0     C34434   9.269  10.243   7.916  0.9232  1.0155 -0.1723
  256MOL0     C34435   9.309  10.095   7.920 -0.4100 -0.5567 -0.8092
  256MOL0     C34436   9.386  10.050   7.793 -0.3889  0.0343 -0.0838
  256MOL0     C34437   9.389   9.893   7.793  0.0780 -0.2359  0.7051
  256MOL0     C34438   9.422   9.823   7.658  1.3862 -0.0146  0.8585
  256MOL0     C34439   9.455   9.673   7.683  0.2951  0.4538  0.3523
  256MOL0     C34440   9.550   9.603   7.580 -0.6516  0.2011  1.0121
  256MOL0     C34441   9.504   9.597   7.432  0.6173  0.1017  0.5417
  256MOL0     N34442   9.479   9.456   7.388 -0.2307 -0.9271  0.1492
  256MOL0     C34443   9.445   9.351   7.463 -0.0861 -0.4629 -0.4947
  256MOL0     C34444   9.478   9.236   7.397  0.5312  0.4947  0.1319
  256MOL0     C34445   9.476   9.100   7.439  0.4295  1.1054 -1.0186
  256MOL0     C34446   9.583   9.069   7.548  0.0033  0.6572  0.3516
  256MOL0     C34447   9.597   8.917   7.585 -0.5155  0.4345  0.2145
  256MOL0     C34448   9.694   8.884   7.699 -0.2151 -0.1815 -0.5841
  256MOL0     O34449   9.639   8.950   7.813 -0.1933 -0.0735  0.1838
  256MOL0     C34450   9.688   8.929   7.933  0.1157 -0.6500  0.4546
  256MOL0     C34451   9.825   8.914   7.953  0.3036  0.2727  0.4194
  256MOL0     C34452   9.869   8.881   8.081  0.5006  0.4758 -0.5099
  256MOL0     C34453  10.020   8.869   8.109 -0.5701  0.7325 -1.0677
  256MOL0     C34454   9.777   8.863   8.204 -0.2139  0.3899  0.4263
  256MOL0     C34455   9.813   8.840   8.348  0.1514 -1.0288  0.5090
  256MOL0     O34456   9.716   8.880   8.445 -0.3819  0.0909  0.5136
  256MOL0     C34457   9.755   8.924   8.568 -0.6070  0.3495 -0.1593
  256MOL0     C34458   9.661   8.943   8.671  0.4676  0.1739  0.6118
  256MOL0     C34459   9.687   8.991   8.796 -0.3946  0.5757 -0.1570
  256MOL0     C34460   9.817   9.038   8.831  0.0050  0.3608 -1.2208
  256MOL0     O34461   9.857   9.102   8.946 -0.0510  0.2676  0.6580
  256MOL0     C34462   9.762   9.106   9.047 -0.7850 -0.5146 -0.0137
  256MOL0     C34463   9.814   9.160   9.175 -0.5766 -0.2196 -0.1523
  256MOL0     C34464   9.767   9.302   9.194 -0.2062 -0.6360  0.1678
  256MOL0     C34465   9.824   9.356   9.325  0.8666  1.1310 -1.1660
  256MOL0     C34466   9.834   9.503   9.333  0.1729 -0.2644  0.0481
  256MOL0     C34467   9.899   9.548   9.468  0.3865 -0.3886  0.2199
  256MOL0     C34468   9.866   9.697   9.510 -0.3485  0.2184  0.0036
  256MOL0     C34469   9.947   9.793   9.427  0.3154  0.4314 -0.6310
  256MOL0    Cl34470   9.888   9.957   9.479  0.1358  0.2100 -0.2811
  256MOL0     C34471   9.913   9.016   8.732  0.4703  0.2866 -0.0973
  256MOL0     C34472   9.885   8.956   8.611  0.2520  0.0445  0.0453
  256MOL0     O34473   9.916   8.778   8.373  0.8210 -0.5682 -0.5442
  256MOL0     C34474   9.648   8.903   8.178  0.7155 -0.2823 -0.6872
  256MOL0     C34475   9.604   8.940   8.045 -0.3488  0.4482 -0.7833
  256MOL0     N34476   9.524   9.274   7.269  0.7701  0.3582 -0.1657
  256MOL0     N34477   9.529   9.405   7.276  0.2966  0.6102 -0.1207
  256MOL0     C34478   8.990  10.300   8.022  0.3566 -0.6727 -0.5817
  256MOL0     C34479   8.868  10.253   8.062 -0.1317  0.1073  0.1415
  256MOL0     C34480   8.501  10.133   8.226 -0.1789 -0.1637  1.0019
  256MOL0     C34481   8.388  10.186   8.293 -0.4259  0.1558 -1.4046
  256MOL0     C34482   8.259  10.149   8.263 -0.0665  0.0743  0.2418
  256MOL0     C34483   8.239  10.038   8.178 -0.0786 -0.2446 -0.4614
  256MOL0     O34484   8.122   9.977   8.138  0.0763  0.0166  0.0991
  256MOL0     C34485   7.999  10.033   8.193  0.1990  1.0688 -0.1689
  256MOL0     C34486   7.888   9.934   8.168 -0.3085  0.5505  0.1585
  256MOL0     C34487   7.842   9.922   8.019  0.0198 -0.7489 -0.1328
  256MOL0     C34488   7.707   9.837   7.994 -0.4172 -0.6819 -0.7148
  256MOL0     C34489   7.585   9.911   8.033  0.6094 -0.0646  0.1927
  256MOL0     C34490   7.491   9.971   8.079 -0.1458  0.3269 -0.2018
  256MOL0     C34491   8.351   9.985   8.117  0.9889  0.7207 -0.9966
  256MOL0     C34492   8.482  10.033   8.132  0.5272 -0.3136  0.3639
  256MOL0     H34493   8.940  10.036   8.316  2.1232  0.9053 -1.0176
  256MOL0     H34494   9.170  10.131   8.255 -0.8465 -1.9603 -0.2891
  256MOL0     H34495   9.186  10.245   7.846 -0.6887 -0.9641  1.5588
  256MOL0     H34496   9.343  10.313   7.876 -0.0009  2.1042 -0.0212
  256MOL0     H34497   9.377  10.075   8.003 -1.9609  1.3746  1.0299
  256MOL0     H34498   9.223  10.029   7.934  0.3864 -1.5875 -0.6196
  256MOL0     H34499   9.339  10.086   7.702  0.0422  1.6817  0.3071
  256MOL0     H34500   9.484  10.097   7.811 -0.1351 -0.2891 -0.5877
  256MOL0     H34501   9.464   9.873   7.870  2.3995  2.1609 -0.7544
  256MOL0     H34502   9.297   9.844   7.826 -1.2673  1.8988  0.3061
  256MOL0     H34503   9.331   9.830   7.598 -0.0430  0.0296  2.9038
  256MOL0     H34504   9.505   9.877   7.612  1.8685 -0.1892  1.5011
  256MOL0     H34505   9.512   9.667   7.777 -0.1764 -1.2172  0.5641
  256MOL0     H34506   9.365   9.613   7.696 -0.1958  1.5364  2.4379
  256MOL0     H34507   9.651   9.646   7.585 -1.4839  2.2091  1.4911
  256MOL0     H34508   9.566   9.504   7.623  1.1754  0.8850  2.0248
  256MOL0     H34509   9.574   9.641   7.360 -0.0863  1.9305  0.9204
  256MOL0     H34510   9.415   9.660   7.429  1.2106  0.9365 -1.6098
  256MOL0     H34511   9.399   9.354   7.561  1.6852  1.8145  0.3531
  256MOL0     H34512   9.373   9.094   7.477  1.7525  2.6208  3.3847
  256MOL0     H34513   9.495   9.030   7.357 -2.7658 -3.2597  1.4984
  256MOL0     H34514   9.559   9.135   7.632  1.1201  1.4092  0.1049
  256MOL0     H34515   9.680   9.099   7.506  1.4712 -1.5818  1.9099
  256MOL0     H34516   9.630   8.872   7.491 -2.4155 -1.0237  0.1664
  256MOL0     H34517   9.497   8.875   7.595  1.1830 -4.2775  0.0765
  256MOL0     H34518   9.789   8.937   7.687  2.1799 -3.3472  2.3344
  256MOL0     H34519   9.709   8.776   7.702 -2.8479 -0.7208 -2.7755
  256MOL0     H34520   9.889   8.929   7.867  0.4828 -0.0841  0.4903
  256MOL0     H34521  10.073   8.927   8.033 -1.0687 -0.1357 -2.1047
  256MOL0     H34522  10.047   8.902   8.210  0.8190 -1.3197 -0.6908
  256MOL0     H34523  10.054   8.765   8.097  1.5579  1.3145 -0.6097
  256MOL0     H34524   9.558   8.935   8.639  0.6268 -0.9792  0.3517
  256MOL0     H34525   9.619   8.995   8.881 -0.8705 -1.7555 -0.3664
  256MOL0     H34526   9.675   9.169   9.031 -1.0334 -0.4499  1.4021
  256MOL0     H34527   9.736   9.002   9.067 -1.3716 -0.0486  1.8587
  256MOL0     H34528   9.762   9.102   9.251  0.5137 -2.0916 -0.7492
  256MOL0     H34529   9.923   9.145   9.178 -0.6029 -0.4391 -0.2393
  256MOL0     H34530   9.660   9.320   9.203  0.1758  1.2560  2.0383
  256MOL0     H34531   9.806   9.360   9.110  2.3001 -0.7451  1.1499
  256MOL0     H34532   9.756   9.335   9.408  0.8804  1.6478 -1.0225
  256MOL0     H34533   9.918   9.306   9.351 -0.0460 -1.5610 -2.6109
  256MOL0     H34534   9.739   9.553   9.313  0.3190 -0.4747 -1.2772
  256MOL0     H34535   9.901   9.543   9.256  0.6085 -1.6878 -0.3440
  256MOL0     H34536   9.853   9.484   9.543  0.2253 -1.5028 -0.8006
  256MOL0     H34537  10.007   9.534   9.482  0.4131  0.5405  0.9988
  256MOL0     H34538   9.875   9.704   9.619 -1.9325 -2.0416  0.3335
  256MOL0     H34539   9.761   9.708   9.484 -0.8661 -0.9862  1.5015
  256MOL0     H34540   9.938   9.775   9.319  2.0240 -2.3245 -0.3873
  256MOL0     H34541  10.053   9.787   9.454  1.2971  1.8982 -3.6925
  256MOL0     H34542  10.014   9.050   8.753 -0.1891  0.4839  3.3348
  256MOL0     H34543   9.964   8.926   8.543  0.1860 -2.2535  0.8665
  256MOL0     H34544   9.578   8.921   8.259  0.5269  0.1551 -0.9425
  256MOL0     H34545   9.497   8.960   8.036 -1.0322 -1.3102  2.0473
  256MOL0     H34546   8.992  10.369   7.938 -1.4959 -1.3439 -1.2168
  256MOL0     H34547   8.782  10.301   8.018  0.4531  0.8721 -0.1955
  256MOL0     H34548   8.416  10.262   8.365  0.3555  0.8406 -2.4008
  256MOL0     H34549   8.176  10.198   8.313 -3.1154  1.4469 -5.2752
  256MOL0     H34550   8.020  10.039   8.301 -0.1980 -0.3681  0.0096
  256MOL0     H34551   7.977  10.131   8.152  2.4285  0.9306 -1.9158
  256MOL0     H34552   7.804   9.958   8.235 -0.9973  0.1822 -0.5470
  256MOL0     H34553   7.923   9.837   8.204  1.4373  1.2111  0.2990
  256MOL0     H34554   7.920   9.878   7.956  1.2578  0.3089  0.5974
  256MOL0     H34555   7.827  10.026   7.988  2.2567 -1.3206 -3.8062
  256MOL0     H34556   7.720   9.743   8.049  2.1066 -0.0112 -0.0286
  256MOL0     H34557   7.697   9.822   7.886  1.4813  2.2869 -1.4031
  256MOL0     H34558   7.398  10.011   8.116  0.5161 -0.9485  3.1939
  256MOL0     H34559   8.337   9.895   8.058 -0.0447 -1.0845  1.7864
  256MOL0     H34560   8.565   9.989   8.078  1.2863 -0.2155  1.4070
  257MOL0     O34561  10.158   5.144  10.427 -0.8393  0.2913 -0.9293
  257MOL0     C34562  10.233   5.085  10.353 -0.1874 -0.1077 -0.1066
  257MOL0     O34563  10.369   5.095  10.350 -0.1346 -0.6572  0.2849
  257MOL0     C34564  10.432   5.180  10.444  0.3525  0.0457 -0.7662
  257MOL0     C34565  10.397   5.315  10.442  0.3175 -1.2211  0.3040
  257MOL0     C34566  10.464   5.412  10.521  0.0104  0.1648  0.4389
  257MOL0     C34567  10.559   5.369  10.607  0.1370 -0.0955 -0.1130
  257MOL0     O34568  10.603   5.441  10.715 -1.0311 -0.3469  0.4155
  257MOL0     C34569  10.732   5.407  10.781 -0.1023 -1.4389  0.4170
  257MOL0     C34570  10.864   5.420  10.694 -1.2176 -0.5710 -0.1746
  257MOL0     C34571  10.891   5.557  10.639 -0.1614 -0.0784 -0.2603
  257MOL0     C34572  11.017   5.556  10.556  0.3220  0.2774  0.1619
  257MOL0     C34573  11.047   5.704  10.497  0.3069 -0.3390 -0.6868
  257MOL0     C34574  11.164   5.703  10.400  0.3956 -0.1134 -0.0888
  257MOL0     C34575  11.183   5.833  10.320 -0.4924 -0.1318 -0.7961
  257MOL0     C34576  11.225   5.939  10.427  0.8872  0.2586  0.6961
  257MOL0     N34577  11.343   5.890  10.500 -0.4320 -0.3241 -0.4334
  257MOL0     C34578  11.467   5.853  10.463  0.3979 -0.8491  0.0474
  257MOL0     C34579  11.535   5.811  10.573  0.0177 -0.9163  0.6115
  257MOL0     C34580  11.672   5.763  10.566  0.2993 -1.0518  0.7304
  257MOL0     C34581  11.685   5.612  10.558 -0.2802 -0.1580  0.1905
  257MOL0     C34582  11.632   5.542  10.693 -1.4533 -0.5194  1.1830
  257MOL0     C34583  11.505   5.460  10.654 -0.3125  0.1165 -0.6938
  257MOL0     O34584  11.454   5.397  10.775  0.5724 -0.4226  0.0697
  257MOL0     C34585  11.363   5.466  10.856  0.5997  0.2838  0.5769
  257MOL0     C34586  11.313   5.405  10.969 -0.3579 -0.2403 -0.4536
  257MOL0     C34587  11.227   5.468  11.064  0.0088  0.2061  0.5070
  257MOL0     C34588  11.169   5.389  11.173  0.4194  0.2157 -0.3987
  257MOL0     C34589  11.174   5.591  11.027 -1.0371 -0.0864 -0.9804
  257MOL0     C34590  11.064   5.664  11.090  0.7263  0.4991  0.2955
  257MOL0     O34591  11.069   5.799  11.092  0.7098  0.0781  0.0599
  257MOL0     C34592  10.958   5.870  11.129  0.4893 -0.4664  0.2979
  257MOL0     C34593  10.825   5.834  11.099  0.2313  0.6274  0.1483
  257MOL0     C34594  10.716   5.909  11.139 -0.6890 -0.7916 -0.3574
  257MOL0     C34595  10.740   6.026  11.223 -0.2628 -0.1239  0.5900
  257MOL0     O34596  10.619   6.089  11.272  0.0517  0.2002  0.2544
  257MOL0     C34597  10.631   6.183  11.385  0.0680  0.1135  0.9230
  257MOL0     C34598  10.486   6.226  11.406  0.1029  0.0365  0.3651
  257MOL0     C34599  10.409   6.094  11.443 -0.1700 -0.3068 -0.7937
  257MOL0     C34600  10.266   6.119  11.446 -0.2406 -0.1800 -0.1415
  257MOL0     C34601  10.182   6.017  11.511 -0.0985  0.0411 -0.4885
  257MOL0     C34602  10.045   6.013  11.435 -0.8367  0.2772  0.4316
  257MOL0     C34603   9.956   5.900  11.482 -0.3559 -0.1188 -0.8079
  257MOL0     C34604   9.834   5.879  11.393  0.3803 -0.0031  0.4462
  257MOL0    Cl34605   9.721   5.761  11.447  0.4643 -0.3243 -0.7967
  257MOL0     C34606  10.877   6.067  11.248  0.0515  0.3166 -1.1846
  257MOL0     C34607  10.977   5.986  11.194 -0.1196 -0.2703 -0.9167
  257MOL0     O34608  10.972   5.596  11.143  0.0481  0.0806  0.1273
  257MOL0     C34609  11.217   5.655  10.917 -0.4823 -0.3337  0.5299
  257MOL0     C34610  11.314   5.596  10.831 -0.0613 -1.9452 -0.5541
  257MOL0     N34611  11.464   5.849  10.686 -0.0264  0.3085 -0.3309
  257MOL0     N34612  11.351   5.900  10.635  0.2997 -0.5357 -0.6721
  257MOL0     C34613  10.606   5.238  10.597  0.1313  0.3960  0.0999
  257MOL0     C34614  10.538   5.140  10.527  0.5416 -0.0010 -0.6181
  257MOL0     C34615  10.170   4.980  10.277 -0.5635  0.5967  0.1254
  257MOL0     C34616  10.245   4.893  10.204  0.0435 -0.0601 -0.1785
  257MOL0     C34617  10.204   4.771  10.157  1.6191  0.4594  0.2970
  257MOL0     C34618  10.077   4.736  10.184 -0.3410 -0.1915 -0.4715
  257MOL0     O34619  10.018   4.613  10.159 -0.4672 -0.5878 -0.3200
  257MOL0     C34620   9.915   4.562  10.245  0.0863  0.8543 -1.2051
  257MOL0     C34621   9.881   4.418  10.221 -0.5513  0.2754 -0.8074
  257MOL0     C34622   9.743   4.359  10.265 -0.0383 -0.7779  1.1714
  257MOL0     C34623   9.729   4.210  10.265 -0.0559  0.2678 -0.4745
  257MOL0     C34624   9.819   4.143  10.364  0.0912 -0.4305  0.1263
  257MOL0     C34625   9.883   4.070  10.441 -0.1382 -0.7969  0.4832
  257MOL0     C34626   9.994   4.829  10.234  0.7970  0.1832  0.6083
  257MOL0     C34627  10.038   4.951  10.274  0.8222 -0.4784  0.4181
  257MOL0     H34628  10.317   5.341  10.373  0.3024 -1.7544  0.1165
  257MOL0     H34629  10.426   5.513  10.532  0.8146  0.4898  0.2334
  257MOL0     H34630  10.746   5.475  10.865 -1.3687  0.0734 -0.5534
  257MOL0     H34631  10.732   5.311  10.833 -0.1811  0.2431  3.7465
  257MOL0     H34632  10.950   5.393  10.755 -1.1393  2.9860  1.5333
  257MOL0     H34633  10.834   5.362  10.606 -4.4353 -0.2919  0.6090
  257MOL0     H34634  10.801   5.590  10.585  0.0234  0.4088 -0.2741
  257MOL0     H34635  10.914   5.630  10.717  2.7647 -4.1295  3.1441
  257MOL0     H34636  11.098   5.516  10.617 -0.1768 -1.7372 -0.3916
  257MOL0     H34637  10.997   5.503  10.463  4.1002  0.6684 -1.0189
  257MOL0     H34638  10.956   5.750  10.459 -0.6271  1.2352  2.9893
  257MOL0     H34639  11.072   5.760  10.588 -4.0872  1.2721 -0.2478
  257MOL0     H34640  11.241   5.660  10.465 -0.1660 -5.7119 -2.5241
  257MOL0     H34641  11.163   5.621  10.327  1.3005  1.4084 -1.8918
  257MOL0     H34642  11.264   5.814  10.249  2.0655  0.1607  1.8406
  257MOL0     H34643  11.089   5.851  10.267  0.5452  4.6722 -1.5475
  257MOL0     H34644  11.152   5.979  10.497  0.3649  3.6891 -1.5708
  257MOL0     H34645  11.256   6.027  10.371 -2.8841  0.8830 -0.7143
  257MOL0     H34646  11.515   5.846  10.366  0.2047  0.0840 -0.1234
  257MOL0     H34647  11.727   5.801  10.479 -0.9023 -1.8640 -0.4159
  257MOL0     H34648  11.723   5.800  10.655  1.9692 -0.1786 -0.5307
  257MOL0     H34649  11.788   5.579  10.540 -0.5755 -1.2400  0.4653
  257MOL0     H34650  11.628   5.578  10.471  1.8565 -5.7330  0.5633
  257MOL0     H34651  11.630   5.619  10.770  1.7825  0.9244  0.0330
  257MOL0     H34652  11.716   5.478  10.720  0.8466  0.7625 -2.1907
  257MOL0     H34653  11.535   5.386  10.579 -0.7747 -2.7319  1.7302
  257MOL0     H34654  11.428   5.517  10.603 -1.2175 -1.7115 -1.4353
  257MOL0     H34655  11.347   5.302  10.976  2.0143  0.3394 -2.2035
  257MOL0     H34656  11.162   5.437  11.271 -1.5407  0.1978 -0.4874
  257MOL0     H34657  11.067   5.375  11.136  0.9626  1.8487 -2.7353
  257MOL0     H34658  11.214   5.289  11.179  1.6695  0.8100  0.9004
  257MOL0     H34659  10.824   5.743  11.039 -2.3414  0.3139  0.5696
  257MOL0     H34660  10.612   5.894  11.111 -1.0086  1.9572 -1.0186
  257MOL0     H34661  10.675   6.146  11.478 -0.2266  0.1443  1.0728
  257MOL0     H34662  10.687   6.271  11.349 -0.9056  0.1915 -0.4979
  257MOL0     H34663  10.497   6.297  11.489  1.1268  2.1292 -1.4787
  257MOL0     H34664  10.436   6.264  11.317  0.3845 -2.5962 -1.0024
  257MOL0     H34665  10.439   6.072  11.545  0.2405 -0.9105 -1.0418
  257MOL0     H34666  10.422   6.002  11.385  1.7429 -0.4158 -0.2430
  257MOL0     H34667  10.250   6.205  11.511  4.4182  0.9020 -0.0997
  257MOL0     H34668  10.229   6.147  11.347 -3.0301 -0.9652  0.5873
  257MOL0     H34669  10.175   6.042  11.617 -0.3897 -0.5693 -0.3568
  257MOL0     H34670  10.223   5.915  11.516 -0.9700 -0.2577  2.5702
  257MOL0     H34671   9.999   6.112  11.446  0.4820  0.9641 -0.0056
  257MOL0     H34672  10.076   5.992  11.333  2.0285 -0.2714  1.3113
  257MOL0     H34673   9.915   5.928  11.579  0.3480 -0.7145 -0.3336
  257MOL0     H34674  10.025   5.817  11.495  3.4800  3.2170  3.1777
  257MOL0     H34675   9.861   5.845  11.293 -1.0419  2.6712 -0.9885
  257MOL0     H34676   9.786   5.977  11.383 -2.6661 -1.0364  3.1283
  257MOL0     H34677  10.904   6.162  11.293 -0.5458  1.6844 -3.5412
  257MOL0     H34678  11.078   6.024  11.208  0.7615 -2.1002 -1.8456
  257MOL0     H34679  11.180   5.755  10.895  2.1993  0.0496 -3.0910
  257MOL0     H34680  11.347   5.656  10.747  0.7502  1.9047  2.2420
  257MOL0     H34681  10.682   5.189  10.657 -1.8223 -1.6516  1.0559
  257MOL0     H34682  10.565   5.035  10.529 -0.0725 -0.2648 -2.7465
  257MOL0     H34683  10.347   4.915  10.173  0.1879  0.1732  0.4494
  257MOL0     H34684  10.273   4.710  10.098 -2.2273 -3.1704 -0.9253
  257MOL0     H34685   9.933   4.586  10.350  3.6620  0.0916 -1.5071
  257MOL0     H34686   9.826   4.612  10.207  0.0350 -1.5552 -4.7023
  257MOL0     H34687   9.945   4.345  10.272 -0.2835 -0.7846 -2.5813
  257MOL0     H34688   9.887   4.398  10.114  0.3272 -1.7517 -0.4152
  257MOL0     H34689   9.669   4.392  10.190 -0.3298 -0.9173  1.3986
  257MOL0     H34690   9.700   4.400  10.357 -2.0462 -3.2823  1.4669
  257MOL0     H34691   9.759   4.178  10.165  0.7787  3.0248 -1.2015
  257MOL0     H34692   9.622   4.193  10.274 -0.1291  0.9087 -0.0820
  257MOL0     H34693   9.944   4.020  10.513  0.6897  0.3529  0.6043
  257MOL0     H34694   9.889   4.805  10.245  1.2062 -0.7461  3.2478
  257MOL0     H34695   9.961   5.015  10.314  0.6265  0.9702 -2.0516
  258MOL0     O34696   8.450  10.592   7.570 -0.2548  0.1795 -0.1977
  258MOL0     C34697   8.333  10.640   7.571 -0.6909  0.2121 -1.6013
  258MOL0     O34698   8.212  10.578   7.525  0.0210  0.7279 -0.7187
  258MOL0     C34699   8.209  10.454   7.464  1.3699  0.3884  0.5493
  258MOL0     C34700   8.116  10.429   7.358  0.7321 -0.5974  0.1040
  258MOL0     C34701   8.110  10.301   7.301  0.3097  0.9129 -0.3227
  258MOL0     C34702   8.203  10.191   7.335  0.3904  0.7079 -0.5656
  258MOL0     O34703   8.213  10.068   7.281  0.4894  0.1712  0.3401
  258MOL0     C34704   8.138  10.030   7.164 -0.1029 -1.0637 -0.9263
  258MOL0     C34705   8.183   9.888   7.116 -0.1318 -0.2193 -0.9218
  258MOL0     C34706   8.332   9.880   7.074 -1.0476 -0.1853 -0.5224
  258MOL0     C34707   8.378   9.759   6.990  0.1697 -0.4745 -0.3641
  258MOL0     C34708   8.395   9.797   6.839 -0.1510 -0.8624  0.0736
  258MOL0     C34709   8.462   9.674   6.763 -0.1764 -0.4119  0.5579
  258MOL0     C34710   8.399   9.663   6.625 -0.6343  0.7118  0.0366
  258MOL0     C34711   8.443   9.549   6.538  0.0666  0.0725 -0.6588
  258MOL0     N34712   8.399   9.418   6.581  0.0720  0.9074  0.3989
  258MOL0     C34713   8.451   9.345   6.682 -0.8625 -0.5967  1.3728
  258MOL0     C34714   8.371   9.238   6.708 -0.5913  0.8750 -0.3380
  258MOL0     C34715   8.388   9.131   6.807  0.1603  0.8639  0.3875
  258MOL0     C34716   8.431   9.185   6.956  1.1288 -0.9498 -0.5200
  258MOL0     C34717   8.315   9.237   7.037  0.5498  0.2310  0.5544
  258MOL0     C34718   8.342   9.262   7.191  0.6782 -0.9737 -0.0351
  258MOL0     O34719   8.415   9.152   7.248 -0.8188  0.9636 -0.5887
  258MOL0     C34720   8.464   9.167   7.378 -0.2265  0.3408 -0.6176
  258MOL0     C34721   8.531   9.060   7.433  0.3105 -0.1702 -0.9059
  258MOL0     C34722   8.589   9.054   7.556 -0.4241 -0.1246  0.0826
  258MOL0     C34723   8.678   8.941   7.587  0.0316  0.0624  0.1740
  258MOL0     C34724   8.568   9.160   7.644  0.3647  0.9512 -0.0050
  258MOL0     C34725   8.610   9.149   7.788  0.7527  0.5790  0.7556
  258MOL0     O34726   8.726   9.076   7.827  1.0413  0.1006 -0.0723
  258MOL0     C34727   8.746   9.065   7.965  0.7051 -0.3157 -0.3407
  258MOL0     C34728   8.843   9.150   8.037  0.1772 -0.3343  1.0138
  258MOL0     C34729   8.868   9.135   8.174 -0.1420  0.9673  0.0410
  258MOL0     C34730   8.798   9.028   8.234 -0.1331 -0.0849 -0.2673
  258MOL0     O34731   8.814   9.009   8.368  0.1252 -0.2230 -0.2446
  258MOL0     C34732   8.764   8.895   8.438  0.1221  0.3066 -1.5557
  258MOL0     C34733   8.861   8.892   8.564  0.2583 -0.5664 -0.4721
  258MOL0     C34734   8.800   8.804   8.676  0.1418 -0.2790  1.0118
  258MOL0     C34735   8.670   8.837   8.741  0.2291  1.0798  1.4352
  258MOL0     C34736   8.588   8.706   8.741 -0.2606 -0.3412 -0.9820
  258MOL0     C34737   8.469   8.713   8.832  0.9617  0.2634  0.4584
  258MOL0     C34738   8.353   8.634   8.779 -0.9831 -0.8584  0.8639
  258MOL0     C34739   8.241   8.634   8.873  0.7019 -0.4124 -0.2746
  258MOL0    Cl34740   8.276   8.529   9.012  0.0271  0.1150  0.1427
  258MOL0     C34741   8.695   8.962   8.176  0.2572 -0.6911 -0.2094
  258MOL0     C34742   8.657   8.985   8.046 -0.2869  1.2031  1.2998
  258MOL0     O34743   8.545   9.216   7.853  0.5180  0.2582 -0.1807
  258MOL0     C34744   8.494   9.270   7.595 -0.3073  1.0511  0.6261
  258MOL0     C34745   8.447   9.279   7.459  1.1026  0.0304  0.3977
  258MOL0     N34746   8.263   9.247   6.620 -0.3232  0.3395  0.3236
  258MOL0     N34747   8.283   9.353   6.546 -0.4288  0.5236 -0.1370
  258MOL0     C34748   8.296  10.219   7.440 -0.3274 -0.2435  0.2934
  258MOL0     C34749   8.290  10.346   7.505  0.1976 -0.6382  0.3694
  258MOL0     C34750   8.299  10.762   7.660  0.7425  0.8019 -0.3449
  258MOL0     C34751   8.167  10.790   7.701 -0.2863 -0.8475 -0.8879
  258MOL0     C34752   8.135  10.911   7.775 -0.0069  0.2720 -0.2136
  258MOL0     C34753   8.237  10.994   7.814 -0.3772 -0.3604  0.5899
  258MOL0     O34754   8.208  11.105   7.899  0.1668  0.2651  0.5279
  258MOL0     C34755   8.301  11.197   7.954  0.3700  0.7246  1.5006
  258MOL0     C34756   8.250  11.270   8.075  0.6024 -0.0261 -0.1614
  258MOL0     C34757   8.124  11.361   8.043 -0.5860  0.3349  0.5927
  258MOL0     C34758   8.081  11.454   8.159 -0.6338 -0.2372  1.4995
  258MOL0     C34759   8.002  11.572   8.127 -1.0227  0.7026 -0.0694
  258MOL0     C34760   7.946  11.672   8.105  0.0065 -0.4502  0.0664
  258MOL0     C34761   8.378  10.960   7.782  0.5097  0.4433 -0.0289
  258MOL0     C34762   8.407  10.853   7.699 -0.0991  0.2397  0.5309
  258MOL0     H34763   8.051  10.509   7.325 -1.6632 -2.8500 -0.9530
  258MOL0     H34764   8.026  10.284   7.235  1.7734 -2.7762 -1.4927
  258MOL0     H34765   8.033  10.015   7.192 -0.7306  0.7526 -2.1185
  258MOL0     H34766   8.142  10.118   7.099 -1.8178  0.2694  0.6740
  258MOL0     H34767   8.166   9.815   7.195 -0.8064  1.4696  0.5572
  258MOL0     H34768   8.120   9.851   7.034 -1.0577  3.7021 -2.2442
  258MOL0     H34769   8.367   9.974   7.031  0.6769 -0.9585 -0.8529
  258MOL0     H34770   8.388   9.875   7.168 -1.5461 -0.2372 -0.2249
  258MOL0     H34771   8.479   9.738   7.028  0.0971 -1.2040 -0.5558
  258MOL0     H34772   8.320   9.667   7.000  0.2176 -0.4128  0.6385
  258MOL0     H34773   8.300   9.830   6.796 -0.5971 -2.4534 -0.2464
  258MOL0     H34774   8.456   9.886   6.822  5.0282 -3.5617  2.3377
  258MOL0     H34775   8.568   9.699   6.765 -0.4360  1.1922 -1.3231
  258MOL0     H34776   8.445   9.575   6.805  0.2563 -0.7258  0.0150
  258MOL0     H34777   8.290   9.662   6.636 -0.9617 -0.9305 -2.3873
  258MOL0     H34778   8.434   9.752   6.572  1.2024  0.2363  0.3911
  258MOL0     H34779   8.549   9.567   6.514  0.2127 -0.8167 -0.7055
  258MOL0     H34780   8.399   9.568   6.440  0.0750  0.9724 -0.4993
  258MOL0     H34781   8.545   9.362   6.733  0.7494 -3.1720 -0.4390
  258MOL0     H34782   8.305   9.061   6.818  2.7741 -2.3468  1.3056
  258MOL0     H34783   8.476   9.076   6.774 -1.5958 -0.3504 -2.5972
  258MOL0     H34784   8.498   9.271   6.951  1.9537 -1.4048  1.6018
  258MOL0     H34785   8.482   9.108   7.015 -2.3983 -2.2507  1.1429
  258MOL0     H34786   8.230   9.168   7.033 -0.6717  1.6782  0.6156
  258MOL0     H34787   8.275   9.328   6.990  0.7428  0.1083  0.1481
  258MOL0     H34788   8.238   9.263   7.226  0.1777  0.9503 -1.4005
  258MOL0     H34789   8.390   9.360   7.199  0.2593 -0.8485  1.0212
  258MOL0     H34790   8.538   8.974   7.367  0.3039 -3.5222  3.0696
  258MOL0     H34791   8.671   8.863   7.511  0.3233  1.5070 -1.3833
  258MOL0     H34792   8.779   8.982   7.579 -0.2772  0.5781 -1.2537
  258MOL0     H34793   8.675   8.889   7.684 -0.0205  1.0842  0.7349
  258MOL0     H34794   8.889   9.228   7.977  1.1056 -1.2560  0.4910
  258MOL0     H34795   8.952   9.178   8.229 -0.9555  1.0451  1.2772
  258MOL0     H34796   8.659   8.910   8.468 -0.1997 -1.8593 -1.4855
  258MOL0     H34797   8.767   8.806   8.375  1.2655  1.0559 -2.5752
  258MOL0     H34798   8.959   8.851   8.535  0.3807 -0.7028  0.1181
  258MOL0     H34799   8.864   8.991   8.610  2.3724 -0.0835 -1.5013
  258MOL0     H34800   8.873   8.791   8.756  3.2926  1.1483 -1.3965
  258MOL0     H34801   8.794   8.708   8.625  2.3759  1.2040 -2.4207
  258MOL0     H34802   8.691   8.881   8.838  0.0087  3.3667  0.4973
  258MOL0     H34803   8.618   8.906   8.674 -0.0389 -1.1363 -0.8305
  258MOL0     H34804   8.656   8.630   8.781  0.0192  0.2802 -0.2525
  258MOL0     H34805   8.563   8.690   8.636  1.9291  0.7588 -1.7353
  258MOL0     H34806   8.502   8.672   8.928  0.7376  2.0213  1.3180
  258MOL0     H34807   8.431   8.815   8.843 -1.5893 -0.5612  0.0354
  258MOL0     H34808   8.377   8.532   8.747  0.6596 -1.0000  2.4021
  258MOL0     H34809   8.329   8.687   8.686  0.7543  0.4208  1.1030
  258MOL0     H34810   8.159   8.595   8.813  1.4767  0.3296 -1.8748
  258MOL0     H34811   8.205   8.726   8.921 -1.2045 -0.9422 -0.6191
  258MOL0     H34812   8.641   8.883   8.228  0.4472  2.0543  4.7884
  258MOL0     H34813   8.585   8.923   7.994  0.7357 -0.9740  2.3398
  258MOL0     H34814   8.480   9.357   7.658 -2.2325  1.1750  0.0889
  258MOL0     H34815   8.388   9.363   7.423 -0.6298 -1.2451  0.1484
  258MOL0     H34816   8.365  10.138   7.463  0.6396  0.4416 -0.1515
  258MOL0     H34817   8.353  10.350   7.594 -0.7624  0.4475  1.0208
  258MOL0     H34818   8.079  10.735   7.670  1.3620 -3.7793 -0.7346
  258MOL0     H34819   8.039  10.927   7.823  0.3766  0.0908  0.6300
  258MOL0     H34820   8.385  11.136   7.986  0.2015  0.9986  2.4920
  258MOL0     H34821   8.306  11.274   7.876 -1.2102  0.1522  0.7853
  258MOL0     H34822   8.326  11.338   8.113  4.0702 -2.3618 -2.3719
  258MOL0     H34823   8.228  11.192   8.148  0.5697  0.7205  0.6336
  258MOL0     H34824   8.044  11.298   8.003  0.9913  0.2848 -2.7578
  258MOL0     H34825   8.156  11.418   7.956  0.2192 -1.2550 -0.1920
  258MOL0     H34826   8.170  11.474   8.220  2.2330 -1.1881 -2.0319
  258MOL0     H34827   8.020  11.396   8.229  0.1371 -0.0459  2.3445
  258MOL0     H34828   7.881  11.748   8.066 -1.8751 -1.4964  1.0263
  258MOL0     H34829   8.467  11.016   7.810  2.8347 -2.8664 -0.2818
  258MOL0     H34830   8.509  10.825   7.674 -0.5089  0.3695 -1.5324
  259MOL0     O34831   3.203   1.352   4.610  0.4361 -0.1293 -0.1574
  259MOL0     C34832   3.141   1.359   4.499  0.3206  0.0504 -0.4304
  259MOL0     O34833   3.106   1.254   4.420  0.8089  0.5104  0.1286
  259MOL0     C34834   3.136   1.118   4.448  0.2635  0.4630 -0.4963
  259MOL0     C34835   3.250   1.069   4.521  0.5512  0.4285  0.3074
  259MOL0     C34836   3.283   0.934   4.519 -0.4005  0.2992  0.3581
  259MOL0     C34837   3.215   0.833   4.452  0.4934 -0.5696 -1.1505
  259MOL0     O34838   3.249   0.701   4.455 -1.2348  0.3662 -0.0519
  259MOL0     C34839   3.324   0.648   4.566  0.3595  0.2623 -0.4880
  259MOL0     C34840   3.354   0.501   4.528  0.4722  0.0388  0.7188
  259MOL0     C34841   3.429   0.429   4.637 -0.5738 -0.8769  0.5260
  259MOL0     C34842   3.465   0.280   4.603 -0.0338  0.4354  0.1443
  259MOL0     C34843   3.564   0.231   4.707 -0.6351  0.0185  0.3556
  259MOL0     C34844   3.526   0.119   4.803 -0.6669 -0.2124  0.6463
  259MOL0     C34845   3.478  -0.027   4.751 -0.3399  0.1604 -0.2369
  259MOL0     C34846   3.568  -0.095   4.653 -0.0087  0.5009 -0.0242
  259MOL0     N34847   3.714  -0.067   4.654 -0.4970  0.4438 -0.2865
  259MOL0     C34848   3.809  -0.099   4.751  0.5989  0.5587  1.1842
  259MOL0     C34849   3.927  -0.078   4.700 -0.3129  0.2103 -0.6354
  259MOL0     C34850   4.059  -0.104   4.769  1.6731  0.9487  0.2109
  259MOL0     C34851   4.111   0.033   4.831 -0.0575  0.0662  0.4827
  259MOL0     C34852   4.250   0.013   4.902  0.9536 -0.1149  0.3594
  259MOL0     C34853   4.232  -0.044   5.040  0.7909 -0.0979 -0.6593
  259MOL0     O34854   4.353  -0.068   5.119 -0.1976 -0.8974  0.1211
  259MOL0     C34855   4.403  -0.196   5.132 -0.7650  0.6532  0.5840
  259MOL0     C34856   4.333  -0.308   5.112 -1.3429 -0.0836 -0.0560
  259MOL0     C34857   4.401  -0.432   5.132  0.4522  0.5101 -0.1987
  259MOL0     C34858   4.326  -0.568   5.128 -0.8964 -0.4135  0.2876
  259MOL0     C34859   4.537  -0.436   5.168 -0.0170 -0.6935 -0.2911
  259MOL0     C34860   4.624  -0.555   5.172 -0.0502 -0.8505 -0.6803
  259MOL0     O34861   4.587  -0.662   5.104 -0.6074  0.3563  0.6170
  259MOL0     C34862   4.661  -0.788   5.107  0.0747 -0.9802 -0.3741
  259MOL0     C34863   4.699  -0.837   5.231 -0.2692 -0.2718  0.5424
  259MOL0     C34864   4.760  -0.962   5.237 -0.8539 -0.5860  0.4310
  259MOL0     C34865   4.789  -1.037   5.128 -1.5917  0.3399 -0.0189
  259MOL0     O34866   4.852  -1.165   5.130  0.5492  0.5126  0.1349
  259MOL0     C34867   4.851  -1.242   5.250  0.1121  0.2629 -0.0214
  259MOL0     C34868   4.932  -1.373   5.224 -0.2679 -0.3304 -1.0230
  259MOL0     C34869   4.935  -1.461   5.344  0.5682  0.5071  0.1101
  259MOL0     C34870   5.024  -1.594   5.318  0.4050  0.4329 -0.0209
  259MOL0     C34871   5.011  -1.694   5.442  0.0620  0.1283  0.4756
  259MOL0     C34872   4.880  -1.779   5.417 -0.9328 -0.4003 -0.5099
  259MOL0     C34873   4.863  -1.877   5.533  0.0194 -0.1013  0.2887
  259MOL0     C34874   4.942  -2.006   5.525 -0.1053  0.2579  0.5977
  259MOL0    Cl34875   4.892  -2.127   5.660 -0.4375  0.1196 -0.1258
  259MOL0     C34876   4.755  -0.982   5.002 -0.3161  0.3784 -0.9883
  259MOL0     C34877   4.688  -0.856   4.990  0.2295 -0.6712  0.5788
  259MOL0     O34878   4.731  -0.537   5.220 -0.9146 -0.4207  0.0798
  259MOL0     C34879   4.600  -0.307   5.193 -0.5022 -0.4122  0.3177
  259MOL0     C34880   4.533  -0.200   5.184  1.1438  0.0443  0.5162
  259MOL0     N34881   3.908  -0.004   4.587 -0.2810  0.3522  0.8741
  259MOL0     N34882   3.787  -0.012   4.547 -0.1170 -0.6045 -0.2146
  259MOL0     C34883   3.100   0.880   4.383  0.0913  0.2631 -0.0800
  259MOL0     C34884   3.066   1.016   4.382 -0.0930 -0.0403 -0.3817
  259MOL0     C34885   3.102   1.493   4.446 -0.0656  1.3117 -0.2964
  259MOL0     C34886   3.025   1.521   4.337 -0.8762 -0.5821  0.4225
  259MOL0     C34887   2.997   1.653   4.299 -0.5961  1.4848 -0.3995
  259MOL0     C34888   3.043   1.758   4.372  0.5306 -0.0899  1.1075
  259MOL0     O34889   2.999   1.884   4.337  0.3122 -0.2055  0.2418
  259MOL0     C34890   2.895   1.938   4.420  0.6447  0.5707  1.0327
  259MOL0     C34891   2.916   2.093   4.422  0.4924 -0.1087  0.1668
  259MOL0     C34892   2.817   2.159   4.501  0.4056 -0.3416  0.3324
  259MOL0     C34893   2.868   2.183   4.639 -0.4142  0.4836 -1.2789
  259MOL0     C34894   2.778   2.248   4.725  0.9721  0.7501 -0.9882
  259MOL0     C34895   2.697   2.311   4.788  0.5852 -0.7665 -0.2611
  259MOL0     C34896   3.127   1.727   4.475  0.1864 -0.5522  1.0613
  259MOL0     C34897   3.155   1.602   4.520 -0.7075  1.2362  0.7233
  259MOL0     H34898   3.307   1.132   4.589 -2.1757  0.6293  2.5922
  259MOL0     H34899   3.376   0.924   4.573 -0.1748 -1.3773 -0.2802
  259MOL0     H34900   3.418   0.696   4.595  1.6195 -1.6689 -1.2108
  259MOL0     H34901   3.255   0.654   4.650 -1.3921 -0.2398 -1.8180
  259MOL0     H34902   3.260   0.449   4.507 -1.2652  2.6495  1.5560
  259MOL0     H34903   3.417   0.492   4.439 -1.3835 -0.9036 -0.5493
  259MOL0     H34904   3.518   0.488   4.660 -1.8418  1.0596  0.6861
  259MOL0     H34905   3.360   0.446   4.720  0.1034  3.2758  0.4706
  259MOL0     H34906   3.371   0.225   4.612  0.9760 -1.2529  0.8034
  259MOL0     H34907   3.518   0.275   4.507  0.3323  2.4913  0.1904
  259MOL0     H34908   3.638   0.169   4.657 -0.7878 -0.5391  0.8129
  259MOL0     H34909   3.616   0.313   4.758 -0.6610 -0.6239  1.4329
  259MOL0     H34910   3.611   0.116   4.872  0.4849 -0.1402 -0.7180
  259MOL0     H34911   3.440   0.151   4.861  0.5154 -1.1431  3.0665
  259MOL0     H34912   3.464  -0.093   4.837 -2.5068  1.0860  0.2120
  259MOL0     H34913   3.375  -0.014   4.715 -1.1867  1.9244  2.4492
  259MOL0     H34914   3.532  -0.057   4.557 -2.8247 -1.3117  0.1842
  259MOL0     H34915   3.538  -0.200   4.658 -1.2944  0.6492 -2.9503
  259MOL0     H34916   3.774  -0.128   4.849  2.0249 -2.0894  1.0026
  259MOL0     H34917   4.040  -0.174   4.851 -2.0754  2.9164  1.2360
  259MOL0     H34918   4.139  -0.143   4.706  0.3235  1.5348 -1.9539
  259MOL0     H34919   4.034   0.078   4.894 -0.6128  0.1743 -0.2619
  259MOL0     H34920   4.117   0.098   4.743 -0.5927  1.1924  1.2556
  259MOL0     H34921   4.307   0.106   4.913  0.6061  0.0500  0.8257
  259MOL0     H34922   4.318  -0.053   4.848 -1.0137 -0.5010 -1.7757
  259MOL0     H34923   4.162  -0.128   5.046  0.2717  0.4163  1.5387
  259MOL0     H34924   4.174   0.033   5.092  1.0336 -1.0770  1.1627
  259MOL0     H34925   4.230  -0.311   5.080 -1.1017 -1.4702 -0.7922
  259MOL0     H34926   4.217  -0.570   5.128 -0.8950 -0.7922  0.7043
  259MOL0     H34927   4.356  -0.614   5.033 -2.5791 -0.4241 -0.2638
  259MOL0     H34928   4.359  -0.634   5.209 -0.3304 -0.7242 -0.1806
  259MOL0     H34929   4.678  -0.785   5.324  0.0265 -3.8638  2.8172
  259MOL0     H34930   4.790  -0.991   5.337  1.2267  0.4677  0.1648
  259MOL0     H34931   4.908  -1.183   5.323  1.9539  1.0559 -1.9938
  259MOL0     H34932   4.750  -1.256   5.289  0.7628 -1.2471  1.2777
  259MOL0     H34933   4.891  -1.431   5.141  2.6148 -1.3581 -1.8728
  259MOL0     H34934   5.036  -1.347   5.202 -0.7723  2.0991 -0.8738
  259MOL0     H34935   4.832  -1.496   5.358  0.0003  1.3401 -1.7353
  259MOL0     H34936   4.970  -1.401   5.428 -1.0628  1.3112  0.2629
  259MOL0     H34937   4.981  -1.639   5.228  0.0297  0.9848 -0.1223
  259MOL0     H34938   5.128  -1.568   5.297  0.0389  1.5826 -0.4391
  259MOL0     H34939   5.012  -1.642   5.538  0.8420  1.3921 -0.1880
  259MOL0     H34940   5.101  -1.756   5.447  2.1820  2.8972 -0.9806
  259MOL0     H34941   4.794  -1.711   5.415  0.8856  2.1872  1.6524
  259MOL0     H34942   4.894  -1.834   5.324 -2.5036 -2.4908  0.4163
  259MOL0     H34943   4.764  -1.918   5.512  0.0840 -1.3713  2.1820
  259MOL0     H34944   4.865  -1.824   5.629  1.5576  1.8600 -0.7669
  259MOL0     H34945   5.049  -1.984   5.535  0.0669 -1.2397  2.5791
  259MOL0     H34946   4.911  -2.050   5.430 -2.0639  3.4343 -0.3917
  259MOL0     H34947   4.769  -1.038   4.910  2.7137  0.5837 -0.7671
  259MOL0     H34948   4.669  -0.818   4.890 -0.9926 -0.9545  0.6869
  259MOL0     H34949   4.706  -0.300   5.215 -0.6429 -0.5350  1.0496
  259MOL0     H34950   4.568  -0.104   5.222 -2.3003  0.7367  2.4091
  259MOL0     H34951   3.039   0.815   4.321  2.4020  0.7915 -3.2008
  259MOL0     H34952   2.983   1.049   4.320 -0.0134 -0.4938 -0.7386
  259MOL0     H34953   2.987   1.438   4.278 -2.3873  0.5883 -0.3294
  259MOL0     H34954   2.955   1.660   4.199 -0.0852  1.2767 -0.6313
  259MOL0     H34955   2.799   1.926   4.370  2.0319 -0.0259 -1.6848
  259MOL0     H34956   2.894   1.886   4.516 -0.6208  1.3257  1.4555
  259MOL0     H34957   2.907   2.125   4.318  1.8849 -1.8896 -0.5593
  259MOL0     H34958   3.017   2.113   4.460  1.2067  0.5163 -1.8828
  259MOL0     H34959   2.717   2.116   4.502  0.4758 -0.6482 -1.6687
  259MOL0     H34960   2.803   2.261   4.466 -2.3955  0.2200  2.6860
  259MOL0     H34961   2.953   2.251   4.645 -1.5528  1.8235  0.8059
  259MOL0     H34962   2.897   2.089   4.687  0.0115  0.0044 -2.4320
  259MOL0     H34963   2.628   2.371   4.844 -0.0369 -1.3573 -0.3796
  259MOL0     H34964   3.156   1.803   4.548 -1.8765 -0.5716  1.9650
  259MOL0     H34965   3.233   1.590   4.594  0.9402  0.9986 -0.9878
  260MOL0     O34966   8.427   6.897   5.332 -0.6934 -0.0091  0.1261
  260MOL0     C34967   8.354   6.899   5.433  0.4073  0.3739 -0.3323
  260MOL0     O34968   8.280   6.800   5.468  0.2533  0.9037 -0.9591
  260MOL0     C34969   8.295   6.676   5.411  0.4043 -0.0217 -0.3355
  260MOL0     C34970   8.180   6.601   5.363 -0.7680  0.6249  0.3758
  260MOL0     C34971   8.197   6.465   5.314 -0.5931  0.2611 -0.3259
  260MOL0     C34972   8.328   6.405   5.305  0.3713  0.3402 -0.3137
  260MOL0     O34973   8.367   6.283   5.266  0.6481  0.2276  0.0787
  260MOL0     C34974   8.263   6.185   5.228 -1.0353 -1.0304 -0.8570
  260MOL0     C34975   8.333   6.049   5.223 -0.5204  0.5419 -0.2357
  260MOL0     C34976   8.241   5.931   5.202 -0.1411 -0.7133  0.6590
  260MOL0     C34977   8.228   5.841   5.324  0.5177 -0.3160 -0.0392
  260MOL0     C34978   8.197   5.695   5.276 -0.3711 -0.8418  0.3934
  260MOL0     C34979   8.157   5.606   5.387  0.2030 -0.6876 -0.2423
  260MOL0     C34980   8.197   5.458   5.357 -0.1995 -0.8314 -0.1360
  260MOL0     C34981   8.145   5.363   5.466  0.0966 -1.0616  0.8885
  260MOL0     N34982   8.202   5.381   5.599 -0.1311  0.3082  0.1473
  260MOL0     C34983   8.332   5.373   5.624 -0.0941 -0.5862 -0.1368
  260MOL0     C34984   8.347   5.411   5.754 -0.7191  0.3986  0.2650
  260MOL0     C34985   8.468   5.431   5.850  0.4840  0.1749 -0.2499
  260MOL0     C34986   8.498   5.577   5.886 -0.0810  0.1559  0.2553
  260MOL0     C34987   8.394   5.632   5.981  0.3020  0.2398  1.3440
  260MOL0     C34988   8.402   5.787   5.971 -0.0819  0.6193 -0.0035
  260MOL0     O34989   8.310   5.853   6.056  0.5712 -0.3606  0.0483
  260MOL0     C34990   8.313   5.997   6.062  0.8014  0.0916  0.7031
  260MOL0     C34991   8.207   6.064   6.134  0.5939  0.4289 -0.1598
  260MOL0     C34992   8.197   6.208   6.136  0.1808  0.1382 -0.4607
  260MOL0     C34993   8.085   6.262   6.217 -0.0180 -0.4887  0.5957
  260MOL0     C34994   8.288   6.286   6.060 -0.8375  0.3486 -0.4601
  260MOL0     C34995   8.295   6.442   6.053 -0.1107 -0.0798 -0.9495
  260MOL0     O34996   8.192   6.508   6.117 -0.4931 -0.6013  0.8618
  260MOL0     C34997   8.170   6.643   6.117 -0.5363 -0.4557  0.7893
  260MOL0     C34998   8.109   6.697   6.231  0.0828 -0.0780 -0.8590
  260MOL0     C34999   8.111   6.839   6.252  0.1632  0.3563  0.7716
  260MOL0     C35000   8.156   6.918   6.148  0.4188 -0.1727 -0.3121
  260MOL0     O35001   8.165   7.053   6.171  0.4710  0.1562  0.7747
  260MOL0     C35002   8.046   7.116   6.228 -0.1539  0.2632  0.0019
  260MOL0     C35003   7.997   7.249   6.166  0.3357 -0.5608 -1.0340
  260MOL0     C35004   7.959   7.256   6.023 -0.3806  0.6912  0.8762
  260MOL0     C35005   7.814   7.311   6.005 -0.2954 -0.3135 -0.8498
  260MOL0     C35006   7.764   7.292   5.868 -0.7575 -0.3858 -0.7877
  260MOL0     C35007   7.843   7.369   5.768 -0.1572  0.0391  0.1211
  260MOL0     C35008   7.798   7.324   5.627 -0.9700  1.1140  0.0123
  260MOL0     C35009   7.853   7.400   5.507 -0.1609  0.6384 -0.3531
  260MOL0    Cl35010   8.033   7.408   5.507 -0.0827  0.2837 -0.4179
  260MOL0     C35011   8.195   6.871   6.025 -0.6477 -0.0828  0.3482
  260MOL0     C35012   8.210   6.732   6.008 -0.4744 -0.2156 -0.2174
  260MOL0     O35013   8.369   6.496   5.977 -0.9566  0.1975 -0.2312
  260MOL0     C35014   8.383   6.217   5.988 -0.0690  0.0348  0.1772
  260MOL0     C35015   8.407   6.081   5.998 -0.3569 -0.2133  0.8622
  260MOL0     N35016   8.221   5.438   5.798 -0.2351  0.7980 -0.0023
  260MOL0     N35017   8.130   5.414   5.707  0.5307  0.4644 -0.9850
  260MOL0     C35018   8.434   6.478   5.347  0.4872  0.0957 -0.8867
  260MOL0     C35019   8.421   6.608   5.409 -0.4299 -0.2158  0.7862
  260MOL0     C35020   8.341   7.025   5.519  0.4738  0.2123 -0.0721
  260MOL0     C35021   8.402   7.142   5.476  0.6752  0.1728 -0.5929
  260MOL0     C35022   8.400   7.265   5.550 -0.3345 -0.8741 -0.2887
  260MOL0     C35023   8.331   7.266   5.675  0.6242  0.9346 -0.2846
  260MOL0     O35024   8.317   7.375   5.766  0.7973  0.3636 -1.0992
  260MOL0     C35025   8.383   7.491   5.729 -0.1378 -0.2365 -0.7149
  260MOL0     C35026   8.340   7.611   5.829  0.8328  0.6559  1.0793
  260MOL0     C35027   8.400   7.586   5.975  0.4414 -0.0229 -0.1355
  260MOL0     C35028   8.316   7.494   6.061  0.3253  0.8313 -0.5129
  260MOL0     C35029   8.339   7.351   6.043  0.5621  0.5004 -0.2024
  260MOL0     C35030   8.354   7.229   6.032  0.6276 -0.9953  0.1498
  260MOL0     C35031   8.265   7.141   5.715  0.5767 -0.1569  0.2983
  260MOL0     C35032   8.269   7.030   5.638  0.5374  0.1541 -0.1127
  260MOL0     H35033   8.089   6.658   5.375  0.8299  3.8880 -1.4632
  260MOL0     H35034   8.108   6.406   5.294 -3.5863  4.5493 -1.1205
  260MOL0     H35035   8.179   6.196   5.297 -0.1248  1.9796 -0.0807
  260MOL0     H35036   8.217   6.204   5.131 -1.6258  1.4498 -0.1690
  260MOL0     H35037   8.408   6.057   5.145 -0.7547  2.6629 -0.2945
  260MOL0     H35038   8.382   6.028   5.319 -1.0172 -0.9993 -0.2946
  260MOL0     H35039   8.137   5.953   5.175  0.5996  2.4771 -0.0403
  260MOL0     H35040   8.265   5.867   5.118 -1.8491 -1.4294  0.6796
  260MOL0     H35041   8.321   5.849   5.381 -0.2482  1.3111  1.0769
  260MOL0     H35042   8.157   5.880   5.398 -0.7191 -1.2658 -0.6891
  260MOL0     H35043   8.113   5.699   5.206 -1.4913 -2.3542  1.5892
  260MOL0     H35044   8.287   5.663   5.223  0.1060 -2.8204  2.2474
  260MOL0     H35045   8.209   5.634   5.480  1.6532 -2.2611 -0.5381
  260MOL0     H35046   8.049   5.608   5.408  0.0273 -3.5933 -0.5139
  260MOL0     H35047   8.156   5.425   5.261 -1.8893  1.4411 -0.2957
  260MOL0     H35048   8.305   5.459   5.338 -0.3734  0.1421 -1.2138
  260MOL0     H35049   8.169   5.258   5.443  1.3391 -0.7615  0.7394
  260MOL0     H35050   8.037   5.378   5.456  0.3561  3.0003  2.5405
  260MOL0     H35051   8.409   5.348   5.551 -1.3768 -0.8052 -1.4764
  260MOL0     H35052   8.452   5.369   5.939  2.3736 -0.1041 -0.0676
  260MOL0     H35053   8.558   5.407   5.794 -0.9428 -0.4154 -2.3912
  260MOL0     H35054   8.507   5.626   5.788  5.3236 -0.2898  0.1836
  260MOL0     H35055   8.600   5.577   5.927  0.7238  2.1365 -1.5107
  260MOL0     H35056   8.415   5.605   6.085 -1.5382  0.3436  1.7730
  260MOL0     H35057   8.296   5.606   5.939 -0.3284  1.0471  2.2646
  260MOL0     H35058   8.371   5.812   5.869 -0.4778  2.5705  0.5572
  260MOL0     H35059   8.504   5.818   5.996 -0.4427  2.3608 -0.5596
  260MOL0     H35060   8.135   5.993   6.173  2.2313 -0.2786  1.6774
  260MOL0     H35061   8.030   6.334   6.155 -1.0929 -0.8981  1.0373
  260MOL0     H35062   8.014   6.187   6.255 -1.1082  0.5167  0.6207
  260MOL0     H35063   8.121   6.315   6.305  0.5552 -1.9038  1.2461
  260MOL0     H35064   8.081   6.623   6.306  2.4864 -0.8934 -0.6579
  260MOL0     H35065   8.081   6.885   6.346 -0.7152  2.2908 -0.3994
  260MOL0     H35066   7.957   7.053   6.232 -0.7116  1.0326 -0.1342
  260MOL0     H35067   8.086   7.139   6.327 -0.7026  3.0109 -0.3347
  260MOL0     H35068   7.920   7.306   6.218  0.3074 -0.7082 -0.9116
  260MOL0     H35069   8.089   7.305   6.181 -0.6373  1.6001 -2.5652
  260MOL0     H35070   7.966   7.154   5.984 -1.4291 -0.3950  3.3599
  260MOL0     H35071   8.034   7.324   5.982  0.1929 -0.7989 -0.6660
  260MOL0     H35072   7.741   7.255   6.065 -1.3098 -3.2200 -4.4314
  260MOL0     H35073   7.812   7.416   6.034  3.3465 -0.2533 -0.2924
  260MOL0     H35074   7.663   7.332   5.878 -0.2910  1.0024 -1.3577
  260MOL0     H35075   7.773   7.186   5.841  3.4715 -0.1939 -0.7923
  260MOL0     H35076   7.809   7.472   5.786 -1.2542 -0.3569  0.3829
  260MOL0     H35077   7.952   7.368   5.778 -0.0757  2.2768  0.1184
  260MOL0     H35078   7.689   7.323   5.628 -0.9877  2.0864  1.4483
  260MOL0     H35079   7.825   7.218   5.624  1.3630  1.6694 -0.4250
  260MOL0     H35080   7.814   7.500   5.527  0.2674  1.2637 -2.3903
  260MOL0     H35081   7.816   7.355   5.414  0.5745 -2.4352  0.7169
  260MOL0     H35082   8.226   6.929   5.939  1.5692 -2.1379 -0.3772
  260MOL0     H35083   8.245   6.693   5.913  0.5548  0.0086  0.0558
  260MOL0     H35084   8.454   6.273   5.928 -0.4772  0.7648  0.3633
  260MOL0     H35085   8.488   6.035   5.942 -0.6376  1.4047 -0.9924
  260MOL0     H35086   8.530   6.434   5.319 -0.5314 -2.9707  0.1505
  260MOL0     H35087   8.509   6.643   5.463 -0.7731 -0.9572  1.8736
  260MOL0     H35088   8.448   7.131   5.379  0.1421 -5.2336 -0.5377
  260MOL0     H35089   8.441   7.363   5.523 -3.4606  0.4140 -0.7761
  260MOL0     H35090   8.492   7.482   5.735 -0.3532 -2.6721  0.8041
  260MOL0     H35091   8.353   7.501   5.624  1.0105 -1.3107 -1.1853
  260MOL0     H35092   8.231   7.610   5.825  0.6900  2.4973  2.9992
  260MOL0     H35093   8.365   7.708   5.785 -0.2726  0.3867 -0.2123
  260MOL0     H35094   8.412   7.680   6.029  0.1553  0.2343 -0.5212
  260MOL0     H35095   8.502   7.546   5.970  0.7736  0.7999 -0.0428
  260MOL0     H35096   8.212   7.517   6.034  0.4552  2.5766  0.3407
  260MOL0     H35097   8.317   7.515   6.168  2.9383 -0.7177 -0.1410
  260MOL0     H35098   8.376   7.124   6.028  2.2883 -0.8061  2.3672
  260MOL0     H35099   8.205   7.144   5.805  0.1560 -2.1226  0.1334
  260MOL0     H35100   8.219   6.941   5.676 -0.2763  1.4976  2.1890
  261MOL0     O35101   8.870   7.617  11.286  0.5403 -0.1739 -0.1286
  261MOL0     C35102   8.760   7.566  11.285  0.0196  0.5922  0.2448
  261MOL0     O35103   8.724   7.435  11.338 -0.2402 -1.1222 -0.0238
  261MOL0     C35104   8.828   7.345  11.355  0.2730 -0.0996  0.8167
  261MOL0     C35105   8.939   7.336  11.264 -1.1451  0.3515  0.1941
  261MOL0     C35106   9.043   7.250  11.298 -0.0679 -0.1530 -0.0279
  261MOL0     C35107   9.037   7.170  11.403  0.7925 -0.3341  0.2724
  261MOL0     O35108   9.144   7.080  11.427  0.1785  0.1868 -1.0714
  261MOL0     C35109   9.188   7.058  11.559  0.5956 -1.9771 -1.0797
  261MOL0     C35110   9.301   6.969  11.534 -0.4510 -0.2419 -0.3400
  261MOL0     C35111   9.413   6.981  11.646  0.6927  0.4474 -0.1468
  261MOL0     C35112   9.540   6.902  11.610 -0.4634  0.7090  0.5231
  261MOL0     C35113   9.626   6.868  11.734 -1.2902 -0.0970  0.0545
  261MOL0     C35114   9.753   6.781  11.719  0.0733  0.2244  0.3003
  261MOL0     C35115   9.840   6.804  11.846 -0.1236  0.3460  0.4878
  261MOL0     C35116   9.975   6.735  11.810 -0.9746  0.8751 -0.4422
  261MOL0     N35117  10.083   6.821  11.863  0.3792 -0.8435 -0.2424
  261MOL0     C35118  10.181   6.762  11.940 -0.5827 -1.2661  0.1300
  261MOL0     C35119  10.270   6.866  11.956  0.2935 -0.2950  0.1624
  261MOL0     C35120  10.385   6.857  12.049 -0.2413  0.9222 -0.4464
  261MOL0     C35121  10.518   6.862  11.968  0.3423 -0.6376 -0.0190
  261MOL0     C35122  10.532   6.991  11.885 -0.2307  0.5365 -0.0683
  261MOL0     C35123  10.661   6.993  11.818 -1.0806  0.0413  0.1387
  261MOL0     O35124  10.764   6.988  11.917  0.3287  0.2559 -0.5943
  261MOL0     C35125  10.856   6.882  11.905 -0.1281  0.0760 -0.7623
  261MOL0     C35126  10.887   6.817  12.023  0.8273  0.2730  0.2647
  261MOL0     C35127  10.985   6.718  12.037 -0.2867  0.5918 -0.1969
  261MOL0     C35128  10.990   6.640  12.160 -0.7252  0.2441 -0.9699
  261MOL0     C35129  11.063   6.683  11.920  0.3680  0.2042 -1.2181
  261MOL0     C35130  11.173   6.578  11.927 -0.6726  0.2421  1.0973
  261MOL0     O35131  11.237   6.559  12.049  0.0961  0.1387 -0.3569
  261MOL0     C35132  11.316   6.450  12.073  0.1786 -0.4192  0.1323
  261MOL0     C35133  11.289   6.313  12.030 -0.4198 -0.5165  0.3593
  261MOL0     C35134  11.375   6.208  12.063  1.2117 -0.3493  0.1222
  261MOL0     C35135  11.479   6.238  12.155  0.6116 -0.5565  0.1312
  261MOL0     O35136  11.562   6.135  12.191 -0.3365 -1.0770  0.0154
  261MOL0     C35137  11.662   6.156  12.295  0.1551 -0.1015 -0.6540
  261MOL0     C35138  11.744   6.025  12.328  0.8500 -0.3284 -0.4162
  261MOL0     C35139  11.649   5.917  12.402 -0.1046  0.0820 -0.1728
  261MOL0     C35140  11.720   5.787  12.433 -0.8058 -0.3616  1.0228
  261MOL0     C35141  11.758   5.706  12.314 -0.3842  0.3630  0.8551
  261MOL0     C35142  11.828   5.583  12.370  0.1490 -0.1879 -0.0060
  261MOL0     C35143  11.934   5.529  12.278  0.4251  0.2264 -0.6935
  261MOL0     C35144  11.996   5.394  12.326 -0.7664  0.4585  0.4704
  261MOL0    Cl35145  12.034   5.392  12.504 -0.1721 -0.1680  0.4172
  261MOL0     C35146  11.488   6.370  12.221  0.6193  0.2528 -0.8545
  261MOL0     C35147  11.404   6.472  12.179  0.0661  0.7082 -0.5725
  261MOL0     O35148  11.208   6.525  11.822 -0.2901  0.9701  1.3833
  261MOL0     C35149  11.033   6.753  11.797 -0.2827 -0.2238  0.8711
  261MOL0     C35150  10.933   6.850  11.795 -0.4999  1.1823 -0.1265
  261MOL0     N35151  10.225   6.974  11.880  0.3403  0.4856  0.2434
  261MOL0     N35152  10.115   6.950  11.816  0.0943  0.2756 -0.4824
  261MOL0     C35153   8.919   7.156  11.472  0.6943  0.0569 -0.3977
  261MOL0     C35154   8.814   7.249  11.462 -0.1783 -0.8133  0.1054
  261MOL0     C35155   8.639   7.645  11.242 -0.5772 -0.0118 -0.1611
  261MOL0     C35156   8.648   7.783  11.252 -0.5177  0.4144  0.5550
  261MOL0     C35157   8.542   7.860  11.217  0.3364 -0.3377  0.2783
  261MOL0     C35158   8.426   7.802  11.177  0.1044 -0.1259  0.6537
  261MOL0     O35159   8.328   7.892  11.154  0.5145  0.0884  0.2971
  261MOL0     C35160   8.219   7.867  11.067 -1.0433  0.4246 -0.5939
  261MOL0     C35161   8.176   7.999  10.999 -0.2411  0.3542 -0.4972
  261MOL0     C35162   8.040   7.982  10.926 -0.1763  0.4327  0.0225
  261MOL0     C35163   8.041   7.878  10.812 -0.4751 -0.7314 -0.4031
  261MOL0     C35164   7.947   7.887  10.710  1.0720 -0.2206 -0.5273
  261MOL0     C35165   7.849   7.861  10.632 -0.7568 -1.0789 -0.1686
  261MOL0     C35166   8.418   7.663  11.155  0.0266 -1.4670 -0.5263
  261MOL0     C35167   8.523   7.587  11.195 -0.3432 -0.3333  0.3004
  261MOL0     H35168   8.943   7.392  11.171 -2.4677  4.4320  2.3537
  261MOL0     H35169   9.132   7.243  11.237  0.1439  3.1102 -0.2638
  261MOL0     H35170   9.229   7.154  11.591  3.5789 -2.2220 -3.7283
  261MOL0     H35171   9.113   7.024  11.631  3.1458 -1.8360  1.8328
  261MOL0     H35172   9.272   6.863  11.530  0.5537 -0.4929 -2.3299
  261MOL0     H35173   9.344   7.002  11.439 -0.1620  1.0912  0.2413
  261MOL0     H35174   9.430   7.086  11.671  1.1159 -0.0817  1.9816
  261MOL0     H35175   9.370   6.938  11.736  1.4231 -0.9742 -0.4403
  261MOL0     H35176   9.503   6.813  11.558 -0.3307  1.5602 -1.1030
  261MOL0     H35177   9.601   6.945  11.529 -2.5530 -0.3812 -1.7706
  261MOL0     H35178   9.645   6.960  11.790 -0.4470  0.9331 -1.8134
  261MOL0     H35179   9.564   6.809  11.801 -0.0115 -2.1228 -0.4586
  261MOL0     H35180   9.723   6.676  11.706 -1.0462  0.6247 -0.5349
  261MOL0     H35181   9.813   6.804  11.630  1.6535 -2.8271  0.4386
  261MOL0     H35182   9.859   6.911  11.857 -0.4268  0.5827 -1.1019
  261MOL0     H35183   9.794   6.755  11.932  2.1195 -1.5458  0.7027
  261MOL0     H35184   9.992   6.722  11.703 -1.0888 -2.0128 -0.1923
  261MOL0     H35185   9.975   6.632  11.848  2.3633  0.4803 -1.1955
  261MOL0     H35186  10.185   6.664  11.987  0.4734 -1.7024 -0.8238
  261MOL0     H35187  10.390   6.925  12.135  2.0708 -0.3835  0.5278
  261MOL0     H35188  10.379   6.757  12.093 -1.6762  0.4845 -1.5632
  261MOL0     H35189  10.529   6.774  11.904  1.8540  0.6637 -1.6221
  261MOL0     H35190  10.605   6.864  12.034  1.3900  2.7939 -1.3420
  261MOL0     H35191  10.517   7.081  11.945 -1.0204  0.7122 -0.5109
  261MOL0     H35192  10.458   7.004  11.806 -1.9865 -0.2929  1.3469
  261MOL0     H35193  10.671   7.085  11.759  2.0398 -0.8395 -0.8910
  261MOL0     H35194  10.664   6.911  11.745 -2.7623 -0.3662  0.4795
  261MOL0     H35195  10.825   6.858  12.103  1.5218 -1.1118  1.5701
  261MOL0     H35196  11.031   6.539  12.154  1.4920  1.0364 -0.0381
  261MOL0     H35197  11.046   6.691  12.239  0.2857  1.7367 -2.5848
  261MOL0     H35198  10.887   6.629  12.195 -0.7966  0.4173 -1.1223
  261MOL0     H35199  11.216   6.299  11.951  0.3000  2.9477 -1.1197
  261MOL0     H35200  11.374   6.107  12.024 -0.3422 -0.2841 -0.0747
  261MOL0     H35201  11.732   6.228  12.250  0.3674 -1.3308 -2.3916
  261MOL0     H35202  11.623   6.198  12.388  1.2369  0.8553 -0.6112
  261MOL0     H35203  11.794   5.984  12.240  1.5063  1.5588 -0.9551
  261MOL0     H35204  11.823   6.052  12.398  0.8481  2.7959 -1.4918
  261MOL0     H35205  11.565   5.905  12.333  0.2497  0.8517 -0.7519
  261MOL0     H35206  11.615   5.965  12.494 -0.2746  1.9705 -1.1721
  261MOL0     H35207  11.805   5.807  12.498  1.9615  0.5732 -2.5166
  261MOL0     H35208  11.652   5.716  12.482  0.6959 -0.7786  2.5691
  261MOL0     H35209  11.830   5.762  12.254 -2.1247  3.1767  1.2124
  261MOL0     H35210  11.674   5.673  12.251  0.5329  2.7080 -1.7841
  261MOL0     H35211  11.891   5.600  12.457  4.3574 -2.6706 -2.2480
  261MOL0     H35212  11.747   5.512  12.391 -1.1195  2.1334  4.0985
  261MOL0     H35213  12.022   5.593  12.274  0.4539  0.1420 -2.3418
  261MOL0     H35214  11.897   5.522  12.175 -1.4590  0.4976 -0.0623
  261MOL0     H35215  12.075   5.358  12.259 -0.0335 -0.2997  1.6980
  261MOL0     H35216  11.919   5.320  12.305  1.1033 -1.6701  0.7559
  261MOL0     H35217  11.556   6.406  12.298 -0.2380  1.3749 -0.5900
  261MOL0     H35218  11.415   6.574  12.213 -0.7263  0.2181  1.3188
  261MOL0     H35219  11.090   6.745  11.705  0.8796  0.3805  1.5133
  261MOL0     H35220  10.917   6.916  11.711  5.6768  2.4191 -0.8178
  261MOL0     H35221   8.897   7.088  11.553 -2.3756  0.6405 -0.6364
  261MOL0     H35222   8.733   7.230  11.532 -2.5423  1.8633 -1.7336
  261MOL0     H35223   8.744   7.827  11.278 -0.8363  1.8417 -0.5522
  261MOL0     H35224   8.545   7.969  11.214 -1.2710 -0.2080  1.7862
  261MOL0     H35225   8.248   7.803  10.983  1.3880  1.6776 -0.7887
  261MOL0     H35226   8.142   7.821  11.130 -0.0640 -3.6147 -2.0578
  261MOL0     H35227   8.252   8.048  10.939 -0.6349 -0.1748 -1.4446
  261MOL0     H35228   8.170   8.070  11.083  1.8251 -1.4159  1.2832
  261MOL0     H35229   8.025   8.077  10.873  0.6272  0.6386  0.1528
  261MOL0     H35230   7.962   7.975  11.003 -0.1726 -1.5451 -0.1106
  261MOL0     H35231   8.021   7.782  10.861  1.5678 -1.5382 -1.0239
  261MOL0     H35232   8.142   7.874  10.768  0.9030  0.1641  2.4282
  261MOL0     H35233   7.772   7.842  10.561 -0.0593  2.0696 -1.9722
  261MOL0     H35234   8.332   7.615  11.110 -0.8943 -1.8918  1.5849
  261MOL0     H35235   8.527   7.480  11.177  1.2301 -0.4622  1.2129
  262MOL0     O35236   3.950  10.448   6.546  0.0162 -0.3693 -0.1038
  262MOL0     C35237   3.847  10.511   6.528 -0.9039 -0.1322  0.2972
  262MOL0     O35238   3.722  10.461   6.556  0.0548 -0.1709 -0.1398
  262MOL0     C35239   3.708  10.327   6.588 -0.0218 -0.9526  0.9106
  262MOL0     C35240   3.620  10.300   6.691  0.4677  1.2964 -0.2432
  262MOL0     C35241   3.595  10.159   6.715 -0.6488 -0.1295  0.0757
  262MOL0     C35242   3.659  10.051   6.653  0.5241  0.7089 -1.0940
  262MOL0     O35243   3.634   9.914   6.675 -0.6332 -0.1982  0.0143
  262MOL0     C35244   3.529   9.878   6.762 -0.1364 -0.3438 -0.0560
  262MOL0     C35245   3.513   9.734   6.791 -0.3641 -0.9339 -0.6086
  262MOL0     C35246   3.445   9.658   6.674 -0.2482 -0.3836  0.0848
  262MOL0     C35247   3.386   9.518   6.690 -0.5048  0.3752 -0.6019
  262MOL0     C35248   3.472   9.397   6.702 -0.1061 -0.3193 -0.9951
  262MOL0     C35249   3.399   9.273   6.651  0.5593  0.3792 -0.2669
  262MOL0     C35250   3.472   9.126   6.677  0.4166 -0.5664  0.5420
  262MOL0     C35251   3.365   9.018   6.666 -1.0669  0.3633  0.7531
  262MOL0     N35252   3.422   8.881   6.699  0.2925  0.1871  0.3262
  262MOL0     C35253   3.501   8.852   6.808  0.1918 -0.7669  0.0334
  262MOL0     C35254   3.533   8.726   6.797  0.0984 -0.8384  0.8613
  262MOL0     C35255   3.623   8.648   6.885 -0.6907  0.1074  0.4394
  262MOL0     C35256   3.564   8.585   7.007  0.2735  0.3613 -0.3248
  262MOL0     C35257   3.666   8.492   7.090  0.0287 -0.2967 -0.0936
  262MOL0     C35258   3.770   8.564   7.169 -0.2499  0.9367 -0.1388
  262MOL0     O35259   3.739   8.542   7.300  0.7199  0.0494 -0.5575
  262MOL0     C35260   3.835   8.550   7.396 -0.3284  0.3647  0.1992
  262MOL0     C35261   3.804   8.530   7.537 -0.3924 -0.1859  0.5963
  262MOL0     C35262   3.904   8.525   7.628 -0.0422 -0.3074 -0.5564
  262MOL0     C35263   3.860   8.526   7.768  0.5616 -0.0438  0.6621
  262MOL0     C35264   4.041   8.542   7.584  0.6171  0.4608  0.5574
  262MOL0     C35265   4.158   8.515   7.681 -0.6312 -0.3234 -0.4886
  262MOL0     O35266   4.280   8.555   7.632 -0.5842 -0.1902 -0.2374
  262MOL0     C35267   4.398   8.553   7.700 -0.1345  0.5715 -0.0092
  262MOL0     C35268   4.507   8.604   7.628  0.4155 -0.5227 -0.1873
  262MOL0     C35269   4.637   8.611   7.684  0.3415 -0.5266  0.3312
  262MOL0     C35270   4.655   8.553   7.801 -0.3468  0.5871 -0.3832
  262MOL0     O35271   4.775   8.526   7.862 -0.2696 -0.0023  0.2709
  262MOL0     C35272   4.899   8.571   7.801 -1.0527  0.2227  1.1601
  262MOL0     C35273   5.015   8.566   7.908  0.2020 -0.5745 -0.3198
  262MOL0     C35274   5.134   8.663   7.882  0.0647 -0.4271  0.8906
  262MOL0     C35275   5.252   8.649   7.978  0.5105 -0.4406 -0.5603
  262MOL0     C35276   5.227   8.686   8.127  0.0484  1.2315  0.1222
  262MOL0     C35277   5.169   8.836   8.138 -0.0117  0.0958  0.7518
  262MOL0     C35278   5.228   8.909   8.264  0.2306 -0.1087  0.9431
  262MOL0     C35279   5.185   9.052   8.283  0.9834 -1.0619  0.0286
  262MOL0    Cl35280   5.163   9.146   8.138 -0.4794  0.0532  0.4995
  262MOL0     C35281   4.556   8.506   7.877  0.2063  0.0980 -0.3088
  262MOL0     C35282   4.427   8.502   7.834  0.3308  0.9636 -0.5211
  262MOL0     O35283   4.138   8.462   7.791  0.5100  0.5201  0.4582
  262MOL0     C35284   4.066   8.602   7.456  0.3664  0.8526  0.4018
  262MOL0     C35285   3.963   8.597   7.366 -0.0777  0.2907  0.8580
  262MOL0     N35286   3.477   8.672   6.684 -0.2060  0.6718 -0.3353
  262MOL0     N35287   3.407   8.761   6.636 -0.2602  0.9643  1.3239
  262MOL0     C35288   3.752  10.085   6.551  0.0738  0.2379 -0.3292
  262MOL0     C35289   3.770  10.223   6.518  0.4250 -0.1023  0.4488
  262MOL0     C35290   3.857  10.636   6.459 -0.5292 -2.3034 -0.6667
  262MOL0     C35291   3.745  10.721   6.445  0.4599 -0.4957  0.7610
  262MOL0     C35292   3.749  10.850   6.385 -0.6569  0.1018 -0.2608
  262MOL0     C35293   3.875  10.894   6.348 -0.7961  0.2218  0.0328
  262MOL0     O35294   3.908  11.016   6.297 -0.0296 -0.2283 -0.0330
  262MOL0     C35295   3.804  11.114   6.310 -1.6921 -0.9843 -0.4567
  262MOL0     C35296   3.851  11.244   6.242  0.0316  0.3056 -0.6813
  262MOL0     C35297   3.749  11.355   6.234  0.3096  0.0435 -0.4295
  262MOL0     C35298   3.781  11.444   6.105 -0.4298 -0.9201  0.3242
  262MOL0     C35299   3.663  11.538   6.095  0.0224 -0.3784 -0.0888
  262MOL0     C35300   3.571  11.605   6.062  0.5570  0.4985  0.4189
  262MOL0     C35301   3.981  10.806   6.360 -0.1856  0.5412  0.1657
  262MOL0     C35302   3.976  10.680   6.415  0.8516  0.0171 -0.0659
  262MOL0     H35303   3.557  10.375   6.737 -0.9084 -0.3216  0.6385
  262MOL0     H35304   3.517  10.134   6.787 -2.0361 -1.0811 -1.6775
  262MOL0     H35305   3.551   9.921   6.859  2.2993  4.5042 -2.3962
  262MOL0     H35306   3.432   9.922   6.734  0.3682  0.7209 -0.1882
  262MOL0     H35307   3.610   9.688   6.812 -0.4461 -1.5808 -1.6046
  262MOL0     H35308   3.442   9.711   6.871 -1.5670  0.0582 -1.3559
  262MOL0     H35309   3.361   9.718   6.636  2.3759  1.3755 -3.5804
  262MOL0     H35310   3.500   9.658   6.579 -2.4415 -0.6165 -1.2553
  262MOL0     H35311   3.308   9.531   6.765 -0.5014  1.4467 -0.7625
  262MOL0     H35312   3.326   9.498   6.601 -2.3985  0.1866  0.6729
  262MOL0     H35313   3.556   9.404   6.632  0.4551 -0.8961 -0.4040
  262MOL0     H35314   3.508   9.378   6.804 -2.8118 -0.5924 -0.0100
  262MOL0     H35315   3.303   9.276   6.703 -0.2625 -1.8622 -1.5304
  262MOL0     H35316   3.388   9.296   6.544 -0.1169  2.0533  0.1279
  262MOL0     H35317   3.549   9.117   6.599 -0.6444 -0.8828 -0.4990
  262MOL0     H35318   3.510   9.107   6.778 -1.7822 -1.6914  1.2233
  262MOL0     H35319   3.344   9.020   6.559 -1.4890 -3.0228  0.6647
  262MOL0     H35320   3.279   9.040   6.730 -0.9941  1.8053  0.4096
  262MOL0     H35321   3.531   8.921   6.886  0.4941 -0.2622 -0.5208
  262MOL0     H35322   3.683   8.576   6.827  1.1861  3.0803 -1.6378
  262MOL0     H35323   3.703   8.717   6.913 -1.7004  1.8238 -0.7336
  262MOL0     H35324   3.468   8.539   6.985 -1.5436  4.4820 -2.0461
  262MOL0     H35325   3.532   8.660   7.080 -2.6322  0.1257 -1.2381
  262MOL0     H35326   3.723   8.423   7.027 -1.3896  1.6635 -3.8599
  262MOL0     H35327   3.606   8.434   7.160 -3.8570  2.6742 -0.6477
  262MOL0     H35328   3.776   8.671   7.145  0.1198  1.0370  0.3946
  262MOL0     H35329   3.863   8.513   7.144 -0.4013 -0.7565  2.3915
  262MOL0     H35330   3.698   8.516   7.558 -1.3309 -1.5600 -4.0048
  262MOL0     H35331   3.751   8.526   7.768  0.4656  0.8280 -2.7767
  262MOL0     H35332   3.881   8.426   7.809 -6.0423 -1.8120  0.9071
  262MOL0     H35333   3.904   8.609   7.824 -1.5933  0.8227  1.1579
  262MOL0     H35334   4.487   8.641   7.527 -3.6896  1.7030  1.2179
  262MOL0     H35335   4.714   8.655   7.622  1.5369 -0.8953  1.5242
  262MOL0     H35336   4.914   8.512   7.710  2.9824 -0.7436  2.2666
  262MOL0     H35337   4.898   8.675   7.765  0.6738  0.1940  0.9420
  262MOL0     H35338   4.978   8.579   8.010 -0.0278 -0.0896 -0.4636
  262MOL0     H35339   5.072   8.473   7.902  2.8368  0.9367 -0.1840
  262MOL0     H35340   5.094   8.763   7.901 -0.5192 -0.7567  1.4335
  262MOL0     H35341   5.171   8.654   7.780 -0.7058  0.1359  0.5437
  262MOL0     H35342   5.276   8.542   7.983 -2.0431 -1.0440  0.9445
  262MOL0     H35343   5.331   8.716   7.944  1.4995 -1.0083  0.5422
  262MOL0     H35344   5.318   8.672   8.186 -0.5306 -1.1443  0.5555
  262MOL0     H35345   5.157   8.614   8.171  2.1656 -0.7286  0.4588
  262MOL0     H35346   5.212   8.896   8.057  1.1348  3.0174  3.3128
  262MOL0     H35347   5.059   8.836   8.141 -0.2807 -1.7641 -3.1005
  262MOL0     H35348   5.336   8.919   8.256 -0.0289  3.5137 -0.0221
  262MOL0     H35349   5.203   8.848   8.350 -3.7033 -2.2018 -1.3970
  262MOL0     H35350   5.255   9.115   8.338 -1.0940  1.1785  0.2597
  262MOL0     H35351   5.093   9.062   8.340  0.4576  2.8180 -1.2101
  262MOL0     H35352   4.586   8.465   7.973 -2.6931  1.6976  1.3868
  262MOL0     H35353   4.355   8.452   7.898  0.1707  3.4585  1.4280
  262MOL0     H35354   4.165   8.627   7.419  1.0939 -1.7031  0.4425
  262MOL0     H35355   3.984   8.626   7.264 -0.1997 -2.1891  0.0630
  262MOL0     H35356   3.802  10.011   6.489  1.0894  1.1260 -0.5842
  262MOL0     H35357   3.836  10.250   6.436  1.2724 -0.2641  1.0659
  262MOL0     H35358   3.651  10.692   6.492 -0.7144  0.9399 -0.5759
  262MOL0     H35359   3.664  10.913   6.363 -1.0312 -1.0735 -2.4633
  262MOL0     H35360   3.717  11.086   6.249 -1.5031 -1.5120 -0.4859
  262MOL0     H35361   3.769  11.117   6.413  0.1652 -2.1812  0.2491
  262MOL0     H35362   3.890  11.210   6.146  1.3791  0.7692 -0.3291
  262MOL0     H35363   3.941  11.272   6.298  1.9828  1.3749 -4.0601
  262MOL0     H35364   3.762  11.422   6.320 -1.2014 -0.8195  0.5177
  262MOL0     H35365   3.647  11.315   6.232 -1.2273  3.5996 -2.0743
  262MOL0     H35366   3.771  11.369   6.026  2.5821 -2.0181  0.8714
  262MOL0     H35367   3.875  11.500   6.111 -1.7631  1.4233  0.6300
  262MOL0     H35368   3.502  11.660   6.001 -0.6626  0.2092  1.5028
  262MOL0     H35369   4.076  10.836   6.317  0.3535  1.1696  1.7416
  262MOL0     H35370   4.063  10.617   6.402  0.6654  0.1468 -2.2774
  263MOL0     O35371   3.595   8.197   8.947  0.1122 -0.2410 -0.1076
  263MOL0     C35372   3.478   8.185   8.969  1.0742  0.0058 -0.2476
  263MOL0     O35373   3.418   8.184   9.097 -0.2102 -0.0107  0.8016
  263MOL0     C35374   3.500   8.248   9.196  0.3559 -0.4793  0.0105
  263MOL0     C35375   3.458   8.226   9.327  0.9160 -0.0413  0.6950
  263MOL0     C35376   3.528   8.276   9.435  0.1863  0.9030 -0.8098
  263MOL0     C35377   3.647   8.355   9.411 -0.1046  0.1739  0.8777
  263MOL0     O35378   3.725   8.419   9.509  0.1552 -0.2528 -0.1731
  263MOL0     C35379   3.679   8.406   9.653 -0.6676 -0.4217 -0.0494
  263MOL0     C35380   3.749   8.497   9.744 -0.1895 -0.3817  0.0362
  263MOL0     C35381   3.699   8.639   9.729  0.1033 -0.4562 -0.1827
  263MOL0     C35382   3.804   8.737   9.786  0.1026 -0.3687  0.2980
  263MOL0     C35383   3.794   8.764   9.935  0.2018  0.3964  0.4482
  263MOL0     C35384   3.898   8.848  10.005 -0.6324  0.1382  0.4090
  263MOL0     C35385   3.862   8.878  10.146  0.6892 -0.0242 -0.5073
  263MOL0     C35386   3.922   9.023  10.186 -0.1411 -0.3196 -0.7682
  263MOL0     N35387   4.068   9.016  10.207 -0.3644 -0.0788 -0.5660
  263MOL0     C35388   4.130   8.961  10.320  0.1743  0.8612  0.1108
  263MOL0     C35389   4.264   8.981  10.306 -0.9614  0.5665 -1.1052
  263MOL0     C35390   4.369   8.950  10.418 -0.2832  0.2614  0.3010
  263MOL0     C35391   4.427   8.803  10.414  0.1648 -0.4739 -0.1397
  263MOL0     C35392   4.339   8.698  10.484  0.5119  0.8244 -0.2260
  263MOL0     C35393   4.374   8.564  10.413  0.4320  0.2297  0.0745
  263MOL0     O35394   4.517   8.550  10.411  0.8126  0.8320  0.0927
  263MOL0     C35395   4.570   8.427  10.366  0.4156 -0.8975 -0.1712
  263MOL0     C35396   4.708   8.414  10.363 -0.2735 -0.0598  0.1639
  263MOL0     C35397   4.784   8.304  10.313  0.5006 -0.6592  0.6433
  263MOL0     C35398   4.937   8.294  10.336  0.6597  0.8054 -0.2444
  263MOL0     C35399   4.708   8.208  10.242  0.3946 -0.1058 -0.4205
  263MOL0     C35400   4.767   8.099  10.163  0.0267 -0.7056  0.4070
  263MOL0     O35401   4.691   8.054  10.057 -0.2639 -0.5760 -0.5088
  263MOL0     C35402   4.700   7.931  10.008  1.0512 -0.0351 -0.0951
  263MOL0     C35403   4.633   7.825  10.058 -0.2135 -0.1194  0.8896
  263MOL0     C35404   4.645   7.692   9.997  0.2852  0.5178 -0.4639
  263MOL0     C35405   4.742   7.680   9.897 -0.4970 -0.7448 -0.7355
  263MOL0     O35406   4.781   7.560   9.832  0.0061 -0.0089 -0.1290
  263MOL0     C35407   4.672   7.483   9.780 -1.2516  0.3702 -0.1908
  263MOL0     C35408   4.717   7.382   9.676 -0.1155  0.5237  0.1500
  263MOL0     C35409   4.592   7.324   9.601  0.3199  0.4301 -0.0814
  263MOL0     C35410   4.551   7.199   9.684  0.0413 -0.9584 -1.0963
  263MOL0     C35411   4.408   7.168   9.645  0.9653 -0.0075 -0.0472
  263MOL0     C35412   4.303   7.267   9.709  0.5510  0.3466  0.5417
  263MOL0     C35413   4.152   7.246   9.670 -0.3860  0.7576  0.5423
  263MOL0     C35414   4.115   7.293   9.527 -0.2331  0.3247 -0.2704
  263MOL0    Cl35415   3.938   7.275   9.494  0.0902 -0.2004 -0.1837
  263MOL0     C35416   4.818   7.790   9.855  0.4978  0.3653  0.0670
  263MOL0     C35417   4.792   7.913   9.902 -0.1084  0.2394 -0.5779
  263MOL0     O35418   4.872   8.055  10.195 -0.3059  0.9392 -0.3012
  263MOL0     C35419   4.572   8.232  10.240  0.7678  0.2457  0.2432
  263MOL0     C35420   4.494   8.335  10.294  0.5341  1.1639  0.5521
  263MOL0     N35421   4.286   9.032  10.182  0.0454  0.2993  0.4837
  263MOL0     N35422   4.169   9.040  10.120  0.4919 -0.8397  0.5499
  263MOL0     C35423   3.677   8.393   9.279  0.6600  0.1832 -0.3166
  263MOL0     C35424   3.617   8.337   9.176  1.4647  0.4418  0.4409
  263MOL0     C35425   3.390   8.142   8.857 -0.1013  0.2217 -0.0102
  263MOL0     C35426   3.451   8.091   8.735 -0.0620 -0.9403  0.3903
  263MOL0     C35427   3.374   8.048   8.624 -0.4223 -0.4543 -0.7583
  263MOL0     C35428   3.233   8.051   8.637 -0.5738 -0.0209  0.2731
  263MOL0     O35429   3.149   8.028   8.529  0.2657  0.4525 -0.0238
  263MOL0     C35430   3.167   7.892   8.470  0.1925 -0.6419 -0.9411
  263MOL0     C35431   3.056   7.846   8.379 -0.3106 -0.3189  0.2648
  263MOL0     C35432   3.092   7.895   8.235 -0.1729  0.9816 -0.3599
  263MOL0     C35433   3.179   7.801   8.162 -0.4250 -0.0399  0.6638
  263MOL0     C35434   3.253   7.898   8.069 -0.5122 -0.9336 -0.2783
  263MOL0     C35435   3.330   7.976   8.015  0.5722  0.3514 -0.5724
  263MOL0     C35436   3.175   8.103   8.744 -0.0147 -0.3927 -0.1219
  263MOL0     C35437   3.246   8.139   8.855  0.0433 -0.6930 -0.7878
  263MOL0     H35438   3.368   8.168   9.344  3.0547 -3.4573  1.3016
  263MOL0     H35439   3.505   8.256   9.539  1.1125 -1.2043 -0.9619
  263MOL0     H35440   3.570   8.414   9.659 -0.9166 -1.1029 -2.4268
  263MOL0     H35441   3.713   8.311   9.694  0.4470  0.7225  1.8102
  263MOL0     H35442   3.740   8.456   9.845  0.2926 -1.1555 -0.2295
  263MOL0     H35443   3.857   8.496   9.730 -0.2676 -2.2568 -0.7007
  263MOL0     H35444   3.680   8.667   9.625  0.9610 -0.6943 -0.4151
  263MOL0     H35445   3.609   8.660   9.787  0.0565 -0.3253 -0.3050
  263MOL0     H35446   3.904   8.694   9.776  0.8600  0.4432  3.2657
  263MOL0     H35447   3.788   8.831   9.733 -1.3867 -0.4607  0.5409
  263MOL0     H35448   3.695   8.796   9.967  0.4898 -0.1337  1.9259
  263MOL0     H35449   3.817   8.669   9.983  0.1269  1.0771  1.8739
  263MOL0     H35450   3.988   8.788   9.993 -0.9164  0.2676 -4.8369
  263MOL0     H35451   3.901   8.942   9.950 -4.0826  0.6713  0.8683
  263MOL0     H35452   3.753   8.878  10.149  0.4305 -0.7404 -4.3340
  263MOL0     H35453   3.906   8.797  10.206 -1.7455  0.4347  2.1427
  263MOL0     H35454   3.883   9.059  10.282  1.1935  0.8901 -0.6361
  263MOL0     H35455   3.900   9.103  10.116  1.2781  0.1718 -0.6819
  263MOL0     H35456   4.074   8.921  10.404  0.1636 -0.5180 -0.5349
  263MOL0     H35457   4.452   9.019  10.401 -1.0103  0.9842 -0.3881
  263MOL0     H35458   4.325   8.982  10.513  1.2992 -0.6338  1.3883
  263MOL0     H35459   4.522   8.801  10.468 -0.4487  0.9476  1.1040
  263MOL0     H35460   4.452   8.771  10.313 -2.4883  1.7999 -1.6575
  263MOL0     H35461   4.235   8.728  10.471  0.7979  1.5950 -0.8239
  263MOL0     H35462   4.358   8.689  10.591 -1.3486  0.4702  0.1010
  263MOL0     H35463   4.342   8.564  10.308  0.5004  0.7606  0.0501
  263MOL0     H35464   4.331   8.480  10.468 -1.1900  1.2476  0.4301
  263MOL0     H35465   4.767   8.489  10.415 -1.4541  0.7263  0.3961
  263MOL0     H35466   4.972   8.351  10.423  2.6289 -2.7524  1.4942
  263MOL0     H35467   4.972   8.194  10.362 -0.1391  0.8854  1.2779
  263MOL0     H35468   4.988   8.334  10.248  3.7326  1.4725  1.7121
  263MOL0     H35469   4.562   7.827  10.140 -1.4592  3.3494 -0.1082
  263MOL0     H35470   4.583   7.612  10.035  1.5985  0.0151  0.6661
  263MOL0     H35471   4.621   7.422   9.855  0.4819  0.0028  0.7338
  263MOL0     H35472   4.600   7.550   9.731 -0.9340  1.8615  1.2888
  263MOL0     H35473   4.785   7.424   9.602  1.4614  0.4812  1.5037
  263MOL0     H35474   4.769   7.297   9.722 -1.1455 -0.1422  0.1194
  263MOL0     H35475   4.624   7.286   9.504 -0.8330 -0.3348 -0.1786
  263MOL0     H35476   4.511   7.394   9.578  1.2047  0.7141 -2.5495
  263MOL0     H35477   4.613   7.110   9.671 -1.6015 -1.8565 -3.4942
  263MOL0     H35478   4.553   7.221   9.791 -2.0216  2.1473 -1.5590
  263MOL0     H35479   4.367   7.075   9.685 -2.0431 -0.6551 -4.0021
  263MOL0     H35480   4.396   7.182   9.537 -0.9247 -0.4606  0.0697
  263MOL0     H35481   4.314   7.235   9.813 -1.0931 -1.1251  0.3152
  263MOL0     H35482   4.334   7.372   9.703  3.1953 -0.3064  1.4880
  263MOL0     H35483   4.088   7.316   9.724  0.9920  1.7498  0.9354
  263MOL0     H35484   4.115   7.146   9.693  1.1678 -0.2655 -1.1510
  263MOL0     H35485   4.165   7.224   9.458 -2.3571 -1.5329 -0.0812
  263MOL0     H35486   4.161   7.391   9.510  1.2329 -0.4686 -1.0796
  263MOL0     H35487   4.886   7.784   9.770 -2.4586  0.9579 -2.5416
  263MOL0     H35488   4.834   8.008   9.869 -0.2078  0.0684 -1.2154
  263MOL0     H35489   4.515   8.148  10.200 -1.6972 -0.4647  4.6619
  263MOL0     H35490   4.386   8.339  10.301  0.5518  0.0048  2.2333
  263MOL0     H35491   3.761   8.461   9.269  0.2641  0.7713  0.2912
  263MOL0     H35492   3.640   8.375   9.077 -1.3072  1.0443 -0.0696
  263MOL0     H35493   3.559   8.099   8.733 -0.0396 -1.0883  0.8148
  263MOL0     H35494   3.425   8.011   8.535 -1.7910 -1.6979 -1.0592
  263MOL0     H35495   3.264   7.890   8.420 -0.8634 -2.0312 -3.0590
  263MOL0     H35496   3.171   7.824   8.556  0.3832 -0.9809 -1.2187
  263MOL0     H35497   2.956   7.880   8.409 -1.1599 -3.9851  2.1293
  263MOL0     H35498   3.052   7.737   8.382  0.6124 -0.4327 -1.4897
  263MOL0     H35499   3.124   8.000   8.241 -0.0306  0.8943  0.5809
  263MOL0     H35500   2.994   7.894   8.187  0.3888  3.3266 -1.6970
  263MOL0     H35501   3.107   7.741   8.106  1.0492 -1.7821  0.5665
  263MOL0     H35502   3.242   7.734   8.222 -0.8750 -0.0262  1.1650
  263MOL0     H35503   3.400   8.039   7.965  0.6152 -0.5429 -1.6796
  263MOL0     H35504   3.070   8.077   8.758 -0.2849  0.8538  0.2863
  263MOL0     H35505   3.187   8.155   8.945 -0.1120 -0.8856 -0.8543
  264MOL0     O35506   6.547  11.318   2.616 -0.2234  0.1749 -0.7260
  264MOL0     C35507   6.633  11.228   2.638 -0.2735  0.2922  0.7437
  264MOL0     O35508   6.610  11.110   2.699 -0.1152  0.2164 -0.3077
  264MOL0     C35509   6.479  11.083   2.744 -1.1389 -0.4596  0.5948
  264MOL0     C35510   6.427  10.956   2.714  0.3238 -0.1113 -0.2878
  264MOL0     C35511   6.291  10.924   2.742 -0.5770 -0.3192 -0.3545
  264MOL0     C35512   6.206  11.020   2.806 -0.0051 -0.0262 -0.1529
  264MOL0     O35513   6.077  10.976   2.825 -0.1347 -0.7069 -0.5852
  264MOL0     C35514   5.972  11.055   2.874 -0.3037 -0.1902  0.4180
  264MOL0     C35515   5.828  10.999   2.865 -0.3972  0.0462  0.4834
  264MOL0     C35516   5.762  10.993   2.726  0.1551  0.5259 -0.2742
  264MOL0     C35517   5.656  10.881   2.722  0.0450  0.7015 -0.0765
  264MOL0     C35518   5.614  10.857   2.578 -0.1316  0.0238 -0.0305
  264MOL0     C35519   5.713  10.802   2.482  0.1964 -0.3966 -0.1938
  264MOL0     C35520   5.637  10.767   2.349  0.1345 -0.1739 -0.1830
  264MOL0     C35521   5.718  10.683   2.255 -0.0732 -0.7295  0.4235
  264MOL0     N35522   5.846  10.739   2.219  0.8998  0.0710 -0.6868
  264MOL0     C35523   5.885  10.795   2.101 -0.0792  0.4610  0.1505
  264MOL0     C35524   6.012  10.837   2.118  0.4001  1.2801 -0.3436
  264MOL0     C35525   6.113  10.903   2.022  0.3416  0.1389  0.2048
  264MOL0     C35526   6.234  10.822   1.967  0.5252 -0.7510 -0.6973
  264MOL0     C35527   6.293  10.881   1.829  0.6338  0.6756  0.3629
  264MOL0     C35528   6.323  11.030   1.830 -0.0984 -0.0164 -0.9866
  264MOL0     O35529   6.398  11.060   1.723 -0.0183 -1.1603  0.2628
  264MOL0     C35530   6.529  11.103   1.738 -0.2095  1.1103  0.3324
  264MOL0     C35531   6.624  11.039   1.821  0.0047  0.6592 -1.0324
  264MOL0     C35532   6.757  11.081   1.832  0.2397 -0.9452  0.5593
  264MOL0     C35533   6.828  11.032   1.944 -0.4308  0.8446 -0.4849
  264MOL0     C35534   6.807  11.186   1.745  0.4626  1.2706  0.6049
  264MOL0     C35535   6.950  11.230   1.747  0.2070 -0.3209 -0.3929
  264MOL0     O35536   7.039  11.179   1.660 -0.1631 -0.5632  0.0079
  264MOL0     C35537   7.178  11.216   1.686  0.7821  0.3245  0.5568
  264MOL0     C35538   7.236  11.301   1.584  0.0226 -0.0863 -1.0995
  264MOL0     C35539   7.367  11.330   1.591 -0.0839 -0.0549 -0.6523
  264MOL0     C35540   7.453  11.268   1.686 -0.6095  0.1549 -0.2509
  264MOL0     O35541   7.595  11.293   1.687 -0.3284  0.6647 -0.2310
  264MOL0     C35542   7.660  11.176   1.637  0.3652 -0.1349  0.3934
  264MOL0     C35543   7.806  11.199   1.599 -0.6872 -0.8947  0.1087
  264MOL0     C35544   7.856  11.066   1.545 -0.0310  0.2906  0.5779
  264MOL0     C35545   8.007  11.082   1.533  1.2257  0.3587 -0.4129
  264MOL0     C35546   8.076  10.953   1.469  0.3212 -0.2671 -0.0082
  264MOL0     C35547   8.210  10.921   1.526  0.9400  0.4484 -0.1182
  264MOL0     C35548   8.280  10.810   1.443 -0.6882 -0.8004  0.9170
  264MOL0     C35549   8.404  10.746   1.514  0.2352 -0.6607 -0.4247
  264MOL0    Cl35550   8.440  10.599   1.414 -0.4379 -0.0207  0.0871
  264MOL0     C35551   7.393  11.176   1.769 -0.2364 -0.3193 -0.2931
  264MOL0     C35552   7.255  11.162   1.780 -0.4625 -0.2287 -0.0665
  264MOL0     O35553   6.984  11.306   1.835 -0.8945  0.5363 -0.0688
  264MOL0     C35554   6.709  11.255   1.669 -0.1577  0.5328  0.9453
  264MOL0     C35555   6.571  11.206   1.665 -1.0298 -0.7957  0.2483
  264MOL0     N35556   6.057  10.784   2.236  0.7082  0.5000 -0.3973
  264MOL0     N35557   5.963  10.723   2.297  0.9657  0.1288 -0.1480
  264MOL0     C35558   6.269  11.142   2.858 -0.1236  0.1955 -0.6410
  264MOL0     C35559   6.398  11.167   2.817  0.4655 -0.8854 -0.2031
  264MOL0     C35560   6.756  11.253   2.563  0.6505  0.4318 -0.4617
  264MOL0     C35561   6.758  11.352   2.463  0.5999 -0.3958 -0.0573
  264MOL0     C35562   6.871  11.355   2.380 -0.9654  0.0704  0.2359
  264MOL0     C35563   6.982  11.271   2.396 -0.1974 -0.4025 -0.2979
  264MOL0     O35564   7.105  11.302   2.329  0.5198 -0.0679  0.1235
  264MOL0     C35565   7.093  11.273   2.186  0.5021  0.9514  0.3782
  264MOL0     C35566   7.209  11.365   2.127  1.0171  0.0110 -0.8454
  264MOL0     C35567   7.196  11.516   2.140  0.1905  0.4347 -0.0727
  264MOL0     C35568   7.159  11.582   2.009 -0.2578  0.2736  0.0784
  264MOL0     C35569   7.284  11.589   1.923 -0.0621  0.3274  0.1090
  264MOL0     C35570   7.386  11.570   1.852 -0.0354 -0.4605 -0.2184
  264MOL0     C35571   6.975  11.172   2.498  0.5496  1.1149 -0.0305
  264MOL0     C35572   6.856  11.160   2.573 -0.2992  0.4885 -0.6446
  264MOL0     H35573   6.473  10.883   2.648  1.9592  0.7354 -0.1183
  264MOL0     H35574   6.251  10.830   2.706  1.0888 -0.2309 -2.6509
  264MOL0     H35575   6.001  11.069   2.978 -1.2424 -0.9300  0.7852
  264MOL0     H35576   5.983  11.141   2.807 -1.7023 -0.7517 -0.5774
  264MOL0     H35577   5.832  10.898   2.908 -0.5021 -0.3671 -0.4449
  264MOL0     H35578   5.758  11.057   2.925  1.8863  0.3677  3.0385
  264MOL0     H35579   5.706  11.087   2.723 -0.1966  0.3168 -0.2722
  264MOL0     H35580   5.838  10.978   2.649 -2.2452 -1.6879 -2.3858
  264MOL0     H35581   5.699  10.788   2.760 -1.7243  0.0145  0.3843
  264MOL0     H35582   5.570  10.901   2.787  0.0347 -0.0626  0.1521
  264MOL0     H35583   5.520  10.800   2.578 -1.3853  1.8705 -3.0044
  264MOL0     H35584   5.591  10.957   2.541 -3.1018 -0.8953 -0.9770
  264MOL0     H35585   5.797  10.870   2.462 -1.1292  1.2700 -0.3590
  264MOL0     H35586   5.757  10.710   2.520  1.4392  0.2721  0.0509
  264MOL0     H35587   5.540  10.723   2.374 -0.0534  0.9540  1.1634
  264MOL0     H35588   5.624  10.861   2.296  1.6131 -0.0820 -0.4251
  264MOL0     H35589   5.657  10.677   2.165  0.8031  4.4321 -0.8581
  264MOL0     H35590   5.739  10.590   2.308 -0.5714 -0.7740  0.5453
  264MOL0     H35591   5.822  10.816   2.015  0.1407  2.2455  0.3843
  264MOL0     H35592   6.060  10.934   1.931  0.7549  1.0533  0.2636
  264MOL0     H35593   6.147  10.992   2.075  0.4709 -0.0577  0.4540
  264MOL0     H35594   6.203  10.717   1.958  2.8059 -1.7827  1.8929
  264MOL0     H35595   6.298  10.822   2.056  0.4054  0.6313 -0.5946
  264MOL0     H35596   6.217  10.863   1.752  0.1809  1.4248  0.6289
  264MOL0     H35597   6.385  10.826   1.809  1.7375  1.9480  1.7180
  264MOL0     H35598   6.363  11.060   1.927  2.3976 -1.6820 -1.3882
  264MOL0     H35599   6.234  11.091   1.814  0.3958  1.8330  2.3756
  264MOL0     H35600   6.577  10.971   1.892 -1.1798  3.1316  0.7113
  264MOL0     H35601   6.845  10.925   1.938  3.9246  1.3463 -0.0789
  264MOL0     H35602   6.932  11.063   1.958  0.5892 -3.0869  2.6391
  264MOL0     H35603   6.775  11.057   2.037 -2.7874  1.5857 -1.9410
  264MOL0     H35604   7.183  11.344   1.500  2.3608  2.5237 -1.3853
  264MOL0     H35605   7.419  11.400   1.527  1.2167 -0.0481  0.3591
  264MOL0     H35606   7.676  11.114   1.725  2.9867 -2.1127 -1.3162
  264MOL0     H35607   7.599  11.122   1.565  0.4253 -1.3392  1.2249
  264MOL0     H35608   7.808  11.282   1.528 -1.1472 -1.4307 -0.5351
  264MOL0     H35609   7.858  11.227   1.692 -0.3167 -0.1216 -0.3197
  264MOL0     H35610   7.805  11.061   1.449  1.9105  0.0916 -0.4785
  264MOL0     H35611   7.839  10.975   1.603 -0.3200 -0.5680 -0.8360
  264MOL0     H35612   8.040  11.173   1.482  2.7996  0.1938  0.2359
  264MOL0     H35613   8.043  11.093   1.636  1.0540  2.1116 -0.5193
  264MOL0     H35614   8.096  10.976   1.363  2.5430  3.4882  1.0209
  264MOL0     H35615   8.014  10.863   1.468  3.1843 -2.3668  0.5466
  264MOL0     H35616   8.257  11.020   1.533 -2.5638  2.1406  2.5614
  264MOL0     H35617   8.203  10.891   1.631  3.2681  1.4870  0.3950
  264MOL0     H35618   8.316  10.846   1.346  0.6791 -1.7745  1.0251
  264MOL0     H35619   8.204  10.733   1.426 -0.7641 -0.8397  1.4081
  264MOL0     H35620   8.381  10.715   1.616 -2.7241  4.3883  0.8185
  264MOL0     H35621   8.485  10.819   1.527 -0.4385  0.0172  0.0366
  264MOL0     H35622   7.446  11.122   1.847 -1.1486 -1.1209 -0.2094
  264MOL0     H35623   7.209  11.098   1.855 -1.5967 -0.4022 -0.8851
  264MOL0     H35624   6.738  11.332   1.599  1.6295 -1.7470 -0.9674
  264MOL0     H35625   6.504  11.265   1.604 -0.2363 -0.2667 -0.1242
  264MOL0     H35626   6.208  11.224   2.893 -0.3102 -0.0889 -0.2902
  264MOL0     H35627   6.437  11.257   2.864  1.0654 -2.5203  2.6615
  264MOL0     H35628   6.673  11.419   2.452 -0.5182 -1.7662 -0.1081
  264MOL0     H35629   6.883  11.435   2.308 -2.1007 -0.8167 -0.9742
  264MOL0     H35630   7.094  11.166   2.164  2.5229  0.9785  0.2076
  264MOL0     H35631   7.002  11.310   2.137  0.2539 -2.2457 -1.8565
  264MOL0     H35632   7.222  11.348   2.020 -1.8416 -2.4953 -0.9289
  264MOL0     H35633   7.306  11.336   2.170  0.7198  0.2530  0.0121
  264MOL0     H35634   7.290  11.565   2.168 -0.6185  2.6719 -1.0104
  264MOL0     H35635   7.118  11.526   2.216 -1.7116 -1.8377 -1.5692
  264MOL0     H35636   7.109  11.678   2.023 -4.1210 -1.4880 -0.2189
  264MOL0     H35637   7.090  11.516   1.955  0.4382  1.1396 -1.9841
  264MOL0     H35638   7.481  11.548   1.810  0.0814  0.3244 -0.3956
  264MOL0     H35639   7.060  11.107   2.514  0.7245  0.9057 -1.6384
  264MOL0     H35640   6.856  11.083   2.650 -3.0393  2.2792  1.3388
  265MOL0     O35641   0.755   1.347   9.425  0.8753 -0.0724 -0.7115
  265MOL0     C35642   0.815   1.370   9.317 -0.1319 -0.2938  0.7912
  265MOL0     O35643   0.883   1.270   9.243  0.5264 -0.0985 -0.1037
  265MOL0     C35644   0.925   1.151   9.299  0.6108 -0.2808 -0.6026
  265MOL0     C35645   0.856   1.023   9.298  0.3745 -0.4656 -0.3680
  265MOL0     C35646   0.907   0.918   9.371 -1.3755 -0.1951 -0.4202
  265MOL0     C35647   1.016   0.939   9.456 -0.1990  0.1679  0.3656
  265MOL0     O35648   1.072   0.843   9.527 -0.0186 -0.2726  0.0594
  265MOL0     C35649   0.999   0.740   9.590 -0.0731 -0.5039 -0.7121
  265MOL0     C35650   1.023   0.738   9.743 -0.1772  0.7676  0.0376
  265MOL0     C35651   0.996   0.883   9.807 -0.8721  0.3783 -0.9929
  265MOL0     C35652   0.858   0.948   9.783 -0.5287  0.1960  0.5831
  265MOL0     C35653   0.841   1.074   9.854  0.1065  0.3161 -0.0012
  265MOL0     C35654   0.722   1.162   9.823  0.7904  0.2754 -0.0129
  265MOL0     C35655   0.716   1.294   9.898 -0.2261  0.1397 -0.6044
  265MOL0     C35656   0.694   1.270  10.049  0.0140  0.4965 -0.4145
  265MOL0     N35657   0.814   1.234  10.131  0.1489 -0.1978 -0.1532
  265MOL0     C35658   0.948   1.261  10.117 -0.6843 -0.6145 -0.3662
  265MOL0     C35659   1.020   1.225  10.231 -0.0860  0.6783  0.0699
  265MOL0     C35660   1.164   1.228  10.252 -0.7204  0.0764  0.2858
  265MOL0     C35661   1.241   1.109  10.201  0.4775 -0.1231  0.0215
  265MOL0     C35662   1.238   0.987  10.294 -0.2109  0.5393 -0.6916
  265MOL0     C35663   1.159   0.871  10.230  0.4845 -0.2724  0.0747
  265MOL0     O35664   1.141   0.769  10.326 -0.4846 -0.2108 -0.1412
  265MOL0     C35665   1.051   0.777  10.432 -0.1355 -0.1196 -0.6017
  265MOL0     C35666   0.966   0.879  10.453  0.5350 -0.9847 -0.3897
  265MOL0     C35667   0.879   0.883  10.562 -0.0075  0.5301 -0.5861
  265MOL0     C35668   0.763   0.987  10.555 -0.1085 -0.2537  0.3333
  265MOL0     C35669   0.884   0.779  10.662  0.8937  0.1431  0.7348
  265MOL0     C35670   0.786   0.771  10.775 -0.4368 -0.2123  0.2557
  265MOL0     O35671   0.732   0.887  10.813 -0.0837  0.2338  0.4652
  265MOL0     C35672   0.700   0.892  10.947  0.8205 -0.0933  0.5831
  265MOL0     C35673   0.802   0.921  11.037  0.9819  1.3565 -0.0677
  265MOL0     C35674   0.784   0.922  11.177 -0.9367 -0.2265  1.0674
  265MOL0     C35675   0.649   0.906  11.225  0.0753  0.3799  0.3347
  265MOL0     O35676   0.628   0.895  11.357  0.3180 -0.3152 -0.5678
  265MOL0     C35677   0.678   0.999  11.440 -0.0358  0.8675  0.2899
  265MOL0     C35678   0.596   0.997  11.575  0.0861  0.4144  1.6020
  265MOL0     C35679   0.493   1.105  11.578 -0.2286  1.1022 -0.9288
  265MOL0     C35680   0.408   1.119  11.703 -1.3552  0.3654  1.0565
  265MOL0     C35681   0.282   1.200  11.678 -0.2423 -0.0101  1.1281
  265MOL0     C35682   0.207   1.223  11.814  0.0781 -1.0023 -0.2423
  265MOL0     C35683   0.068   1.297  11.809  0.1626  0.7472  0.5661
  265MOL0     C35684  -0.001   1.317  11.951 -0.6821  0.3461  0.2483
  265MOL0    Cl35685   0.072   1.450  12.020 -0.1299 -0.6499 -0.0519
  265MOL0     C35686   0.544   0.882  11.134  0.3936 -1.1729 -0.2267
  265MOL0     C35687   0.571   0.869  10.994  1.2804 -0.0498  0.6811
  265MOL0     O35688   0.779   0.670  10.838  0.0370  0.6909  0.3027
  265MOL0     C35689   0.963   0.672  10.630 -0.1613 -0.3634  0.8751
  265MOL0     C35690   1.046   0.673  10.514  1.0829  0.7754  0.4979
  265MOL0     N35691   0.922   1.192  10.321  0.3631  0.0984 -0.1910
  265MOL0     N35692   0.802   1.187  10.257 -1.0149  0.8647 -0.6592
  265MOL0     C35693   1.089   1.060   9.448  0.0680 -0.2666  1.1171
  265MOL0     C35694   1.034   1.173   9.383 -1.2263 -0.3063  1.1827
  265MOL0     C35695   0.835   1.512   9.265  0.0067  0.2045 -0.1043
  265MOL0     C35696   0.940   1.542   9.175 -0.1346 -0.3972 -0.0693
  265MOL0     C35697   0.954   1.674   9.134 -0.2861  0.1484  0.1520
  265MOL0     C35698   0.877   1.779   9.179  0.1150  0.7162 -0.8961
  265MOL0     O35699   0.908   1.908   9.144  0.1009  0.0851 -0.8545
  265MOL0     C35700   0.803   1.979   9.074  0.1975 -0.6871 -0.4572
  265MOL0     C35701   0.866   2.064   8.973  0.7402 -0.2037 -0.3655
  265MOL0     C35702   0.946   1.988   8.862  0.4869  0.2445  0.3790
  265MOL0     C35703   1.036   2.073   8.773  0.6448  0.4075  0.1202
  265MOL0     C35704   0.962   2.191   8.730 -0.3296  0.1194 -1.1183
  265MOL0     C35705   0.914   2.297   8.691  0.0710  0.6895  0.0638
  265MOL0     C35706   0.785   1.749   9.278  0.3580  0.0541 -0.0037
  265MOL0     C35707   0.763   1.615   9.324 -0.7777 -0.3377  0.3061
  265MOL0     H35708   0.772   1.023   9.229  0.0635 -0.1442  0.0070
  265MOL0     H35709   0.861   0.820   9.359  1.5763 -1.7148 -0.1562
  265MOL0     H35710   0.893   0.766   9.582 -0.1376  1.3106  3.4253
  265MOL0     H35711   1.020   0.645   9.541 -0.1637 -1.1064  0.3913
  265MOL0     H35712   0.947   0.673   9.787  0.1352  1.1610  1.1896
  265MOL0     H35713   1.124   0.700   9.761  0.5424  1.8628 -1.5075
  265MOL0     H35714   1.019   0.885   9.914 -2.9343  0.2697 -0.5006
  265MOL0     H35715   1.070   0.959   9.779 -1.5869  1.4308 -0.1202
  265MOL0     H35716   0.839   0.960   9.676 -2.7671  1.3456  1.0407
  265MOL0     H35717   0.773   0.884   9.811 -0.2557  0.3150  1.7514
  265MOL0     H35718   0.840   1.051   9.961  1.2573 -0.3120 -0.1062
  265MOL0     H35719   0.919   1.146   9.827  0.6283 -0.5142 -0.8060
  265MOL0     H35720   0.730   1.183   9.716  1.8208 -4.0635 -0.9622
  265MOL0     H35721   0.631   1.106   9.844  2.0342 -2.0089 -0.3513
  265MOL0     H35722   0.796   1.365   9.878  3.0971 -2.9997  0.4625
  265MOL0     H35723   0.632   1.342   9.846 -2.0783 -2.4997 -0.2369
  265MOL0     H35724   0.622   1.191  10.075  0.5695  1.4363  5.2440
  265MOL0     H35725   0.651   1.366  10.078  2.4281  1.2325  0.9513
  265MOL0     H35726   0.999   1.301  10.030  2.8207 -0.6618  1.4931
  265MOL0     H35727   1.197   1.305  10.182  0.1477 -2.3915 -2.2070
  265MOL0     H35728   1.187   1.254  10.356 -0.3777  4.6764 -0.7135
  265MOL0     H35729   1.345   1.138  10.184 -0.0158  1.3014 -0.8168
  265MOL0     H35730   1.193   1.083  10.106  0.8645  1.7403 -0.7478
  265MOL0     H35731   1.211   1.011  10.398  1.1661 -2.3705  0.4341
  265MOL0     H35732   1.339   0.950  10.316 -0.5316  1.7597  3.8026
  265MOL0     H35733   1.219   0.843  10.142  0.2301  1.6656 -0.7838
  265MOL0     H35734   1.063   0.907  10.191 -0.4957 -1.1591  1.5920
  265MOL0     H35735   0.944   0.956  10.380  0.5645  0.3614  0.9773
  265MOL0     H35736   0.736   1.017  10.453 -2.1830 -3.1442 -0.0970
  265MOL0     H35737   0.673   0.941  10.596  0.8963 -1.3983  1.3170
  265MOL0     H35738   0.791   1.071  10.620  0.1520 -1.2787  1.5713
  265MOL0     H35739   0.903   0.934  10.999  1.0002  0.7088 -0.2636
  265MOL0     H35740   0.873   0.940  11.235  0.6909  0.7860 -1.5693
  265MOL0     H35741   0.786   0.993  11.457  0.6452 -0.2386 -3.4712
  265MOL0     H35742   0.661   1.097  11.394 -0.4813  1.2109  1.1684
  265MOL0     H35743   0.543   0.902  11.585  0.0000  0.3506  0.6019
  265MOL0     H35744   0.665   0.992  11.659  1.3869  0.8206  0.5797
  265MOL0     H35745   0.422   1.100  11.495 -2.2435  0.6782  0.6971
  265MOL0     H35746   0.554   1.195  11.568  1.4678 -0.0716 -1.4706
  265MOL0     H35747   0.388   1.018  11.740  0.8793 -0.6482 -0.3089
  265MOL0     H35748   0.467   1.173  11.777  2.8548 -2.3680  0.0659
  265MOL0     H35749   0.214   1.158  11.604 -1.9480  0.4827  2.3502
  265MOL0     H35750   0.311   1.299  11.641  3.0579 -1.3143 -0.1327
  265MOL0     H35751   0.195   1.125  11.861 -0.2859 -0.2734  1.2375
  265MOL0     H35752   0.262   1.292  11.879 -3.5297  2.2699 -0.3085
  265MOL0     H35753  -0.003   1.230  11.761 -1.6744  1.7444  1.7825
  265MOL0     H35754   0.084   1.385  11.745  0.1987  1.2253  1.2289
  265MOL0     H35755   0.002   1.228  12.014 -1.1402 -0.9198 -1.4584
  265MOL0     H35756  -0.109   1.334  11.947 -0.9933 -1.2921  1.0316
  265MOL0     H35757   0.442   0.881  11.169  0.8711 -1.9800  1.2052
  265MOL0     H35758   0.500   0.834  10.921  0.7594 -0.5084  1.3954
  265MOL0     H35759   0.951   0.579  10.685 -5.9031  1.8855  4.2524
  265MOL0     H35760   1.102   0.581  10.499 -1.6576 -1.0818  0.9562
  265MOL0     H35761   1.166   1.066   9.524  0.1515  0.6471  0.9717
  265MOL0     H35762   1.079   1.270   9.397 -0.8484 -0.6655  2.6545
  265MOL0     H35763   0.995   1.456   9.139  0.9877 -0.0611  0.8158
  265MOL0     H35764   1.041   1.699   9.073  3.7267 -1.4019  4.5764
  265MOL0     H35765   0.723   1.927   9.022 -1.2454  2.1414 -1.2797
  265MOL0     H35766   0.742   2.039   9.144 -0.2474 -1.8919  0.2191
  265MOL0     H35767   0.932   2.134   9.026 -0.4750  0.2169  0.6200
  265MOL0     H35768   0.784   2.120   8.927 -2.5117 -4.3202 -0.0817
  265MOL0     H35769   0.868   1.950   8.796 -3.7389  1.5502  4.1292
  265MOL0     H35770   1.007   1.904   8.896 -1.2190 -1.3381 -0.3395
  265MOL0     H35771   1.073   2.015   8.689  1.0377 -0.0953  0.6323
  265MOL0     H35772   1.114   2.112   8.839 -1.0312 -0.3271  2.7322
  265MOL0     H35773   0.885   2.392   8.650  0.3458  0.8769  0.3007
  265MOL0     H35774   0.728   1.835   9.314  2.2581  0.7658  1.4807
  265MOL0     H35775   0.675   1.603   9.386 -1.6690  2.7661 -0.1990
  266MOL0     O35776   8.228   7.691   8.192 -0.7350  0.2127  0.0594
  266MOL0     C35777   8.259   7.653   8.305 -0.2585 -0.5560  0.4124
  266MOL0     O35778   8.221   7.543   8.362 -0.3628  1.0453 -0.8833
  266MOL0     C35779   8.165   7.444   8.283 -0.3546 -0.4068 -0.1504
  266MOL0     C35780   8.043   7.384   8.315  0.1591 -0.5628  1.0802
  266MOL0     C35781   7.977   7.293   8.224  0.2417 -0.3422 -0.4020
  266MOL0     C35782   8.045   7.247   8.110  1.0425 -0.0317  0.5018
  266MOL0     O35783   7.974   7.154   8.031 -0.5328  0.2493 -0.1793
  266MOL0     C35784   8.031   7.110   7.904 -0.5770  0.9241  0.4177
  266MOL0     C35785   8.012   6.964   7.922 -0.2761  0.1426 -0.1736
  266MOL0     C35786   7.860   6.941   7.910  0.4296  0.4436  0.8578
  266MOL0     C35787   7.827   6.802   7.865 -0.5978 -0.2077  0.5396
  266MOL0     C35788   7.672   6.771   7.838  0.2691  0.0553  0.7637
  266MOL0     C35789   7.617   6.843   7.716  1.0167 -0.8814  0.2950
  266MOL0     C35790   7.696   6.838   7.583 -0.3147  0.1959 -0.3789
  266MOL0     C35791   7.604   6.879   7.468 -0.6180  0.3729 -0.9284
  266MOL0     N35792   7.477   6.812   7.429  0.4902  0.3411  0.5936
  266MOL0     C35793   7.470   6.692   7.359 -0.4690 -0.9369  0.0236
  266MOL0     C35794   7.347   6.691   7.313  0.8916  0.3683 -0.6410
  266MOL0     C35795   7.295   6.589   7.225 -0.2444  0.4929  0.1681
  266MOL0     C35796   7.335   6.440   7.244 -0.1964 -0.2976  0.4946
  266MOL0     C35797   7.278   6.348   7.144  0.5028  0.0623  0.4721
  266MOL0     C35798   7.153   6.389   7.055  0.4776 -0.7130 -1.0726
  266MOL0     O35799   7.129   6.294   6.946  0.2934  0.1123  0.0647
  266MOL0     C35800   7.011   6.311   6.883  0.2144  0.6315  0.5233
  266MOL0     C35801   7.008   6.259   6.752  0.0425  0.5559 -0.0749
  266MOL0     C35802   6.908   6.264   6.658 -0.3711  0.8960  0.3652
  266MOL0     C35803   6.916   6.188   6.527  0.1005 -0.3647  0.3578
  266MOL0     C35804   6.798   6.336   6.707 -0.5332 -0.4010  0.5725
  266MOL0     C35805   6.671   6.346   6.626  0.5368 -0.1752 -1.0622
  266MOL0     O35806   6.556   6.376   6.695 -0.5458  0.0495  0.3654
  266MOL0     C35807   6.447   6.441   6.650  0.2043  0.0688  0.2112
  266MOL0     C35808   6.419   6.491   6.522  0.7475  0.2235  0.5548
  266MOL0     C35809   6.295   6.544   6.481 -0.2817  1.0494  0.1230
  266MOL0     C35810   6.193   6.553   6.579 -0.1658  0.0222  0.8596
  266MOL0     O35811   6.073   6.603   6.545  0.2353  0.3928 -0.2492
  266MOL0     C35812   6.029   6.723   6.615 -0.4095  0.3911 -1.4763
  266MOL0     C35813   5.930   6.821   6.548  0.3073  0.4367 -0.2921
  266MOL0     C35814   5.995   6.860   6.415  0.1351 -0.7701 -0.4020
  266MOL0     C35815   6.140   6.910   6.428  0.1177 -0.2679  1.0695
  266MOL0     C35816   6.169   7.008   6.315  0.8600  0.4754  0.6862
  266MOL0     C35817   6.189   6.926   6.185 -0.1415 -0.3948  0.3447
  266MOL0     C35818   6.247   6.994   6.062 -0.2125 -0.3183  1.0531
  266MOL0     C35819   6.194   7.139   6.033  0.1198  0.4950 -0.0855
  266MOL0    Cl35820   6.298   7.247   6.126 -0.2813  0.0104 -0.1278
  266MOL0     C35821   6.223   6.499   6.708  1.0180 -0.4904 -0.1746
  266MOL0     C35822   6.345   6.449   6.743 -0.6470 -0.0162  0.0848
  266MOL0     O35823   6.670   6.329   6.506 -0.4997  0.1092 -0.2395
  266MOL0     C35824   6.802   6.401   6.834 -0.4090  1.9037  0.5498
  266MOL0     C35825   6.899   6.380   6.925 -0.7542  0.2177  0.3629
  266MOL0     N35826   7.280   6.806   7.358  0.5561  0.5607 -0.2900
  266MOL0     N35827   7.357   6.868   7.435  0.2982 -0.6324 -1.8427
  266MOL0     C35828   8.171   7.306   8.080  1.0447 -1.7097  0.3880
  266MOL0     C35829   8.220   7.401   8.163 -0.4942  0.2370 -0.1933
  266MOL0     C35830   8.324   7.765   8.383 -0.4469  0.7419 -0.1463
  266MOL0     C35831   8.406   7.860   8.324  0.4087 -0.5156  0.0008
  266MOL0     C35832   8.484   7.951   8.403 -0.7421  0.6484  0.3578
  266MOL0     C35833   8.458   7.938   8.539 -0.3777 -0.9209 -0.4451
  266MOL0     O35834   8.515   8.023   8.632  0.2564 -0.4381 -0.1744
  266MOL0     C35835   8.602   8.135   8.590  0.7868 -0.5163 -0.0281
  266MOL0     C35836   8.654   8.194   8.722 -0.4795 -0.0841 -0.9397
  266MOL0     C35837   8.551   8.209   8.832  0.2139 -0.0912 -0.3323
  266MOL0     C35838   8.624   8.234   8.973  0.3580  0.6116  0.7965
  266MOL0     C35839   8.726   8.338   8.971 -0.4183 -0.2886 -0.5509
  266MOL0     C35840   8.814   8.428   8.979  0.1744  0.7970  0.1153
  266MOL0     C35841   8.369   7.852   8.599 -0.2075  0.5829  0.7567
  266MOL0     C35842   8.301   7.756   8.524 -1.0844 -0.2784 -0.2642
  266MOL0     H35843   7.993   7.398   8.410 -0.9529 -1.4277  0.6394
  266MOL0     H35844   7.871   7.274   8.241 -0.8246  2.2740 -3.2508
  266MOL0     H35845   7.981   7.141   7.812 -4.2406 -2.3150  1.0369
  266MOL0     H35846   8.137   7.137   7.901 -0.1079 -0.8181  0.2254
  266MOL0     H35847   8.057   6.914   7.835  0.2679 -1.8509  1.1819
  266MOL0     H35848   8.054   6.922   8.014 -0.1887  2.6564  1.0108
  266MOL0     H35849   7.802   6.950   8.002  0.0540  3.7535  0.4054
  266MOL0     H35850   7.814   7.012   7.840  2.6516  1.6422  0.5428
  266MOL0     H35851   7.889   6.787   7.777  0.6646  2.4788  0.8843
  266MOL0     H35852   7.856   6.722   7.934  1.1278  0.3166  0.4583
  266MOL0     H35853   7.661   6.664   7.816 -1.9998  0.9131 -3.0052
  266MOL0     H35854   7.620   6.800   7.930 -2.5954 -0.6710 -0.5073
  266MOL0     H35855   7.518   6.806   7.690 -0.3879  1.8532  1.4027
  266MOL0     H35856   7.602   6.948   7.743 -1.9269 -0.8377 -1.1711
  266MOL0     H35857   7.782   6.905   7.589  0.6240 -1.1035  2.4685
  266MOL0     H35858   7.728   6.733   7.579 -1.9323 -0.4985  2.4647
  266MOL0     H35859   7.674   6.867   7.385 -0.4828  1.2240 -0.9502
  266MOL0     H35860   7.575   6.982   7.492  0.2374  0.0102  2.0154
  266MOL0     H35861   7.548   6.619   7.340 -2.1287 -2.5151 -1.0323
  266MOL0     H35862   7.187   6.602   7.234 -1.1148 -3.0325 -2.6504
  266MOL0     H35863   7.328   6.600   7.121 -1.9036 -2.4155 -0.7817
  266MOL0     H35864   7.300   6.406   7.342  0.7872 -1.1958  0.5441
  266MOL0     H35865   7.442   6.419   7.247  1.0072  3.8494 -3.2305
  266MOL0     H35866   7.255   6.257   7.199 -1.4965  0.3006  0.1141
  266MOL0     H35867   7.363   6.309   7.087 -0.4249  0.0141 -0.9290
  266MOL0     H35868   7.160   6.488   7.009 -0.0992 -0.4398 -0.5757
  266MOL0     H35869   7.075   6.380   7.131  0.9588  0.2737 -0.4546
  266MOL0     H35870   7.093   6.204   6.713  0.1695  1.9062 -1.8402
  266MOL0     H35871   7.004   6.124   6.516 -0.0149 -0.1799 -2.5687
  266MOL0     H35872   6.834   6.117   6.522 -0.2725  0.1183 -2.1597
  266MOL0     H35873   6.907   6.257   6.442 -0.2747 -0.0435  0.6557
  266MOL0     H35874   6.474   6.471   6.430  0.7869  0.1538  0.5941
  266MOL0     H35875   6.276   6.570   6.377 -0.6854 -2.5049 -0.8263
  266MOL0     H35876   5.981   6.699   6.711  0.7424  1.3107 -0.6399
  266MOL0     H35877   6.123   6.767   6.651  0.0485 -1.6918  0.0921
  266MOL0     H35878   5.831   6.775   6.536  1.7306 -3.3350  0.9649
  266MOL0     H35879   5.913   6.905   6.617  0.8267 -1.6881  2.6060
  266MOL0     H35880   5.930   6.941   6.381 -2.5430 -0.9999  3.4789
  266MOL0     H35881   5.991   6.771   6.351  0.9963 -0.8391 -0.3728
  266MOL0     H35882   6.159   6.959   6.524 -1.7260  4.2327 -0.6143
  266MOL0     H35883   6.211   6.827   6.420  1.0567  0.6469 -0.8221
  266MOL0     H35884   6.264   7.052   6.345  0.4704  2.1688 -0.4109
  266MOL0     H35885   6.096   7.089   6.317  0.7450  0.3753  0.5857
  266MOL0     H35886   6.260   6.846   6.205  0.5957  0.2189  0.2261
  266MOL0     H35887   6.091   6.887   6.155 -0.2022 -0.5133  0.6995
  266MOL0     H35888   6.221   6.940   5.971  1.0410 -4.0080  2.6983
  266MOL0     H35889   6.356   6.994   6.054 -0.0972 -0.5962  2.3959
  266MOL0     H35890   6.086   7.150   6.048  0.3469 -0.6881  3.0378
  266MOL0     H35891   6.210   7.168   5.928 -1.8676 -0.4462 -0.7075
  266MOL0     H35892   6.140   6.499   6.778  3.0955  0.7611  2.4544
  266MOL0     H35893   6.376   6.411   6.840  0.4372  2.0121  0.5857
  266MOL0     H35894   6.712   6.457   6.858 -3.7146 -2.6089 -0.0682
  266MOL0     H35895   6.903   6.434   7.019  1.6042 -0.3224  0.6443
  266MOL0     H35896   8.224   7.297   7.986 -1.0910  1.4379 -1.3022
  266MOL0     H35897   8.312   7.452   8.136 -1.7215  2.0528 -1.1632
  266MOL0     H35898   8.428   7.855   8.218 -1.0488 -0.3474 -0.3396
  266MOL0     H35899   8.561   8.019   8.369 -3.6420  5.4179  2.2515
  266MOL0     H35900   8.682   8.100   8.523  2.5918 -1.5367  2.4984
  266MOL0     H35901   8.549   8.220   8.547  3.3898  2.3913  2.0646
  266MOL0     H35902   8.688   8.295   8.700  0.2181  0.0081  0.4447
  266MOL0     H35903   8.745   8.148   8.762 -1.7821 -2.5507 -0.6225
  266MOL0     H35904   8.493   8.117   8.840 -0.3923  0.2727 -0.4929
  266MOL0     H35905   8.482   8.292   8.811 -2.1579 -2.1353 -1.1295
  266MOL0     H35906   8.688   8.150   9.001 -0.5343 -0.8946 -1.3961
  266MOL0     H35907   8.558   8.259   9.056  2.6699 -1.4504  3.4566
  266MOL0     H35908   8.902   8.489   8.974 -0.0692  1.1411  0.0362
  266MOL0     H35909   8.375   7.855   8.708  1.2051  1.2410  0.6835
  266MOL0     H35910   8.240   7.688   8.582  1.7685 -3.3542 -0.5407
  267MOL0     O35911   8.262   5.772   6.704  0.4141 -1.2293 -0.1695
  267MOL0     C35912   8.281   5.676   6.629  0.8516  0.7710 -0.2679
  267MOL0     O35913   8.263   5.546   6.664  0.0560  0.1397  0.2631
  267MOL0     C35914   8.233   5.535   6.794 -0.3189  0.6395 -0.2862
  267MOL0     C35915   8.318   5.567   6.903 -0.1487  0.9749  0.2055
  267MOL0     C35916   8.261   5.577   7.032 -0.3244  0.0056 -0.5622
  267MOL0     C35917   8.135   5.520   7.054  1.6240 -0.1281 -0.0070
  267MOL0     O35918   8.062   5.522   7.171 -0.3945  0.2661 -0.1744
  267MOL0     C35919   8.125   5.459   7.285 -0.4148 -0.4323  0.9121
  267MOL0     C35920   8.053   5.329   7.321 -0.7355  0.8688  0.5500
  267MOL0     C35921   8.119   5.277   7.458 -0.0377  1.0580 -0.6294
  267MOL0     C35922   8.083   5.133   7.507  0.6444  1.2653 -0.2045
  267MOL0     C35923   8.142   5.103   7.645  0.4160 -1.1409  0.4850
  267MOL0     C35924   8.110   4.966   7.696  0.1874  1.1652 -1.1635
  267MOL0     C35925   8.189   4.901   7.807  0.1738  0.2255  0.3501
  267MOL0     C35926   8.177   4.966   7.940 -0.7797  0.1768 -0.1619
  267MOL0     N35927   8.286   4.919   8.032  0.5212  0.2337 -0.3857
  267MOL0     C35928   8.277   4.819   8.136 -0.8139 -0.1082  0.7649
  267MOL0     C35929   8.412   4.806   8.175  0.8878 -0.4876  0.5197
  267MOL0     C35930   8.458   4.700   8.272 -0.1057 -0.6375  0.5488
  267MOL0     C35931   8.505   4.762   8.414  0.3334 -0.1775  0.5808
  267MOL0     C35932   8.653   4.793   8.420  0.6938  0.6764 -0.3869
  267MOL0     C35933   8.683   4.869   8.549  0.3711 -0.0436 -1.1899
  267MOL0     O35934   8.697   4.773   8.665 -0.6392  0.2950  0.1886
  267MOL0     C35935   8.822   4.721   8.686 -0.6818 -0.1552  0.3858
  267MOL0     C35936   8.822   4.616   8.777  0.2381  0.1870  0.1381
  267MOL0     C35937   8.946   4.560   8.827  0.0480 -0.0207 -0.9393
  267MOL0     C35938   8.934   4.468   8.942 -0.2857  0.1576 -0.8748
  267MOL0     C35939   9.063   4.596   8.763 -0.3120  0.6021  0.4760
  267MOL0     C35940   9.199   4.549   8.804  1.3778 -0.9226 -0.2324
  267MOL0     O35941   9.306   4.618   8.748 -0.1270  0.2706  0.4817
  267MOL0     C35942   9.430   4.606   8.798 -0.8984  0.2019  0.6814
  267MOL0     C35943   9.471   4.705   8.887  0.5656  0.4355 -0.5705
  267MOL0     C35944   9.590   4.699   8.967 -0.0476  0.3765  0.1056
  267MOL0     C35945   9.676   4.591   8.944 -1.1516 -0.3788  0.0935
  267MOL0     O35946   9.774   4.551   9.027  0.3113  0.9669 -1.2721
  267MOL0     C35947   9.825   4.642   9.128  0.7066  0.6108 -0.3440
  267MOL0     C35948   9.752   4.597   9.248 -0.8722 -0.2057  0.9146
  267MOL0     C35949   9.770   4.708   9.348 -0.0232 -0.3097  0.2151
  267MOL0     C35950   9.898   4.682   9.428 -0.7596  0.3522 -0.1027
  267MOL0     C35951   9.948   4.800   9.506 -0.7989 -0.2547  0.6223
  267MOL0     C35952   9.996   4.925   9.419 -0.1453 -0.9123 -0.9027
  267MOL0     C35953   9.995   5.040   9.524 -0.0404  0.1505 -0.6108
  267MOL0     C35954  10.054   5.162   9.460  0.4829 -0.5237  0.0999
  267MOL0    Cl35955  10.028   5.307   9.567 -0.5189  0.1844  0.0385
  267MOL0     C35956   9.629   4.486   8.862  0.0300  0.1461 -0.0269
  267MOL0     C35957   9.519   4.497   8.785 -1.0824  0.1293 -0.4102
  267MOL0     O35958   9.212   4.464   8.894  0.3072 -0.4956  0.3884
  267MOL0     C35959   9.062   4.693   8.661 -0.7644 -0.2003 -0.3125
  267MOL0     C35960   8.947   4.751   8.624  0.0614 -0.1084  0.8152
  267MOL0     N35961   8.486   4.909   8.119  0.1348  0.0380  0.7049
  267MOL0     N35962   8.412   4.962   8.027 -0.2324 -0.7504  0.3964
  267MOL0     C35963   8.055   5.477   6.946 -0.3252  0.4639 -0.4599
  267MOL0     C35964   8.104   5.494   6.811  1.0568  0.2656 -1.7834
  267MOL0     C35965   8.380   5.688   6.514  0.3719 -0.0117 -0.8599
  267MOL0     C35966   8.441   5.572   6.464  0.2722  0.3714  0.2446
  267MOL0     C35967   8.540   5.582   6.367 -0.2912 -0.5474 -0.3196
  267MOL0     C35968   8.575   5.706   6.314 -0.4483 -0.5225  0.3353
  267MOL0     O35969   8.670   5.707   6.214  0.1707  0.7186 -0.7278
  267MOL0     C35970   8.789   5.796   6.245  0.5755  0.3346  0.8333
  267MOL0     C35971   8.869   5.765   6.381  0.1391  0.1463 -0.5837
  267MOL0     C35972   8.991   5.847   6.404  0.0213 -0.0600 -0.7221
  267MOL0     C35973   9.097   5.779   6.498  0.0548  0.0070 -0.3944
  267MOL0     C35974   9.227   5.850   6.474  0.1444 -0.0297 -1.1614
  267MOL0     C35975   9.334   5.908   6.444 -0.1276 -0.2847 -0.2110
  267MOL0     C35976   8.523   5.823   6.370 -0.4831  0.5167 -0.0434
  267MOL0     C35977   8.430   5.809   6.464  0.3950  0.0831 -0.2613
  267MOL0     H35978   8.424   5.582   6.883  0.6367 -1.1703  2.2616
  267MOL0     H35979   8.332   5.598   7.112  0.9823  2.1071 -2.1626
  267MOL0     H35980   8.234   5.456   7.294  0.0115  3.7274 -0.7766
  267MOL0     H35981   8.112   5.534   7.364  0.2056  1.9128 -1.0882
  267MOL0     H35982   7.945   5.344   7.329 -0.6621  2.8329 -1.2484
  267MOL0     H35983   8.085   5.252   7.250 -1.1404  1.5244 -0.3499
  267MOL0     H35984   8.225   5.275   7.432 -0.0980 -1.7121 -0.9329
  267MOL0     H35985   8.094   5.348   7.537  0.6796 -0.8938  1.4688
  267MOL0     H35986   7.975   5.121   7.506  0.7886 -0.5593  1.3425
  267MOL0     H35987   8.122   5.067   7.428 -2.8805  1.9753 -2.7510
  267MOL0     H35988   8.250   5.117   7.644  0.2969 -0.0972 -1.3310
  267MOL0     H35989   8.104   5.176   7.717  0.5836 -1.5295  0.9739
  267MOL0     H35990   8.009   4.967   7.739  0.5132 -0.6683 -0.2297
  267MOL0     H35991   8.097   4.891   7.617  2.8967 -0.4552 -0.2025
  267MOL0     H35992   8.166   4.794   7.811  3.8332 -0.6746  0.9072
  267MOL0     H35993   8.292   4.913   7.773 -0.1455  2.3859  0.0198
  267MOL0     H35994   8.077   4.946   7.981 -0.5069 -0.2044  0.3288
  267MOL0     H35995   8.193   5.073   7.924 -3.6089  0.6528 -0.4085
  267MOL0     H35996   8.194   4.756   8.167 -1.8081  1.0490  0.5523
  267MOL0     H35997   8.372   4.635   8.286 -0.5527 -0.2331 -0.2400
  267MOL0     H35998   8.536   4.642   8.222  3.9921  1.3220  3.9438
  267MOL0     H35999   8.477   4.680   8.480 -1.8487 -0.4827 -0.6400
  267MOL0     H36000   8.439   4.843   8.449  0.4324 -0.8912  2.5126
  267MOL0     H36001   8.688   4.844   8.330 -0.9542 -1.6345 -2.4536
  267MOL0     H36002   8.714   4.703   8.427 -2.3233 -1.3876  2.3717
  267MOL0     H36003   8.600   4.935   8.577  0.6893  0.2175 -0.8619
  267MOL0     H36004   8.765   4.939   8.529 -0.8534  1.2746 -1.7920
  267MOL0     H36005   8.723   4.588   8.812 -1.3620  1.1758 -3.2176
  267MOL0     H36006   8.991   4.513   9.023 -0.8238 -2.3296  0.9954
  267MOL0     H36007   8.835   4.468   8.987 -0.2723 -0.6141 -0.8413
  267MOL0     H36008   8.960   4.363   8.923 -2.7965 -0.3544 -1.8342
  267MOL0     H36009   9.414   4.790   8.923  2.0508 -0.1332  3.7443
  267MOL0     H36010   9.603   4.771   9.046 -0.8459  0.7848 -0.1249
  267MOL0     H36011   9.933   4.635   9.148 -0.1053 -3.3570  4.4212
  267MOL0     H36012   9.816   4.749   9.106 -3.6171  0.6204  0.7156
  267MOL0     H36013   9.647   4.577   9.223  0.0958 -3.2198 -1.4315
  267MOL0     H36014   9.795   4.501   9.277 -0.9883 -1.1257 -1.6844
  267MOL0     H36015   9.692   4.704   9.424 -0.2285  1.9830  0.1878
  267MOL0     H36016   9.774   4.804   9.297  0.3530  0.4891  1.6826
  267MOL0     H36017   9.873   4.603   9.499  0.8138 -2.3385 -2.3308
  267MOL0     H36018   9.978   4.640   9.367  0.8577  0.3553  1.8882
  267MOL0     H36019  10.028   4.756   9.566  0.4826 -0.4385 -1.1520
  267MOL0     H36020   9.881   4.845   9.581  0.4410  0.8840  1.1020
  267MOL0     H36021  10.097   4.912   9.380  1.1995  1.9668  1.2464
  267MOL0     H36022   9.929   4.952   9.336 -2.0576 -0.3245  0.7634
  267MOL0     H36023  10.048   5.006   9.613  1.2199 -2.3725 -2.1899
  267MOL0     H36024   9.894   5.070   9.553  0.6987 -0.1126  2.5311
  267MOL0     H36025  10.008   5.176   9.361  1.7527  0.4471 -0.3839
  267MOL0     H36026  10.162   5.159   9.444  0.9332 -1.1623  2.7814
  267MOL0     H36027   9.667   4.385   8.869  0.3301  0.1612 -1.1995
  267MOL0     H36028   9.479   4.415   8.726 -4.6858  0.2499  1.5774
  267MOL0     H36029   9.151   4.721   8.605 -2.0647  3.9578 -0.6688
  267MOL0     H36030   8.953   4.830   8.550  2.6996  0.9800  2.0592
  267MOL0     H36031   7.954   5.444   6.968 -2.3069  4.1882 -2.8331
  267MOL0     H36032   8.051   5.447   6.730  2.6760 -5.3031 -0.0437
  267MOL0     H36033   8.407   5.472   6.491  1.6938 -0.4555 -0.9386
  267MOL0     H36034   8.579   5.486   6.333  3.7836  0.3106  1.4141
  267MOL0     H36035   8.863   5.793   6.164  0.7008 -1.6100  0.9624
  267MOL0     H36036   8.765   5.903   6.250  0.8498  0.3680  1.6177
  267MOL0     H36037   8.898   5.660   6.376  1.3889  0.2892  2.1230
  267MOL0     H36038   8.800   5.784   6.463 -0.5725  1.7290 -1.5008
  267MOL0     H36039   8.970   5.944   6.451  0.6594 -0.2157 -0.1026
  267MOL0     H36040   9.042   5.867   6.310  2.2416  3.7692  1.0370
  267MOL0     H36041   9.107   5.671   6.484  0.3409 -0.0397  0.1626
  267MOL0     H36042   9.071   5.808   6.600 -1.5564 -1.3605 -0.3697
  267MOL0     H36043   9.432   5.940   6.415 -0.3831  1.1946  0.4771
  267MOL0     H36044   8.553   5.923   6.341 -2.3003  0.7814 -1.1651
  267MOL0     H36045   8.405   5.904   6.510 -0.7990  1.1250 -2.8464
  268MOL0     O36046   0.743   7.328  11.381 -0.0674  0.5702  0.3147
  268MOL0     C36047   0.706   7.318  11.264  0.1381  0.4704 -0.2655
  268MOL0     O36048   0.576   7.286  11.220  0.1024  0.3735 -0.4202
  268MOL0     C36049   0.487   7.235  11.308 -0.1953  0.0473  0.5027
  268MOL0     C36050   0.517   7.125  11.388 -0.7810 -1.0489 -1.0113
  268MOL0     C36051   0.429   7.082  11.484  0.7356 -0.4732  0.8619
  268MOL0     C36052   0.296   7.140  11.490  0.8966  0.8207 -0.5064
  268MOL0     O36053   0.194   7.087  11.562  0.0775 -0.9465  0.0090
  268MOL0     C36054   0.229   7.022  11.687  0.0975 -0.1232 -0.5676
  268MOL0     C36055   0.190   6.876  11.657 -0.2308 -0.0847  0.0212
  268MOL0     C36056   0.288   6.785  11.578 -0.3836 -0.3213 -0.2183
  268MOL0     C36057   0.255   6.779  11.430 -0.1575  0.7589  0.1681
  268MOL0     C36058   0.351   6.682  11.360  0.1238  0.6697 -0.2308
  268MOL0     C36059   0.302   6.642  11.219 -0.0860 -0.8577 -0.6178
  268MOL0     C36060   0.280   6.749  11.111 -0.6775 -0.0426 -0.1337
  268MOL0     C36061   0.408   6.811  11.048 -0.4412  0.1385 -0.4440
  268MOL0     N36062   0.474   6.720  10.958 -0.0640 -0.3391  0.4315
  268MOL0     C36063   0.601   6.673  10.960  0.1070  0.2090  0.7542
  268MOL0     C36064   0.613   6.593  10.848 -0.3927 -0.3900  0.8426
  268MOL0     C36065   0.735   6.534  10.791 -0.1849 -0.3014  0.1795
  268MOL0     C36066   0.752   6.379  10.824  0.0554 -0.2058  0.1570
  268MOL0     C36067   0.871   6.328  10.744 -0.0599  0.7524 -0.5386
  268MOL0     C36068   0.904   6.184  10.767 -0.5555  0.5842 -0.9417
  268MOL0     O36069   0.949   6.170  10.910 -0.4325  0.8063 -0.2978
  268MOL0     C36070   1.080   6.201  10.934 -0.2853 -0.1371  0.4342
  268MOL0     C36071   1.184   6.221  10.841  0.3310  0.6075 -0.2781
  268MOL0     C36072   1.301   6.284  10.874  0.0207 -0.0608  0.0684
  268MOL0     C36073   1.390   6.329  10.760  0.5278  0.0048 -0.0497
  268MOL0     C36074   1.331   6.301  11.013  0.3456  0.6607  0.0786
  268MOL0     C36075   1.458   6.349  11.081 -0.2379 -0.9134 -0.1230
  268MOL0     O36076   1.490   6.310  11.209  0.4806  0.1596  0.5779
  268MOL0     C36077   1.605   6.346  11.287  1.0110  0.0888  0.0175
  268MOL0     C36078   1.599   6.286  11.415 -0.6921 -0.1497 -0.5310
  268MOL0     C36079   1.711   6.311  11.504  1.2171  0.0772  0.6621
  268MOL0     C36080   1.812   6.393  11.472  0.2876 -0.0762  1.0822
  268MOL0     O36081   1.923   6.405  11.551  0.3479 -0.6281  0.1632
  268MOL0     C36082   1.884   6.467  11.676  1.2094 -0.0395  0.0425
  268MOL0     C36083   1.993   6.568  11.736  0.4171  0.1058  0.8097
  268MOL0     C36084   2.124   6.484  11.751 -0.9657 -0.5983 -0.8778
  268MOL0     C36085   2.245   6.583  11.788  0.0499  0.7451 -0.0217
  268MOL0     C36086   2.386   6.516  11.801  0.5994  0.0583 -0.2440
  268MOL0     C36087   2.384   6.432  11.935  1.2833  0.5714 -0.0294
  268MOL0     C36088   2.527   6.406  11.978  0.3178  0.4642  0.2762
  268MOL0     C36089   2.543   6.304  12.085 -0.6376  0.0617 -0.0756
  268MOL0    Cl36090   2.493   6.151  12.033 -0.1406  0.3503  0.1637
  268MOL0     C36091   1.813   6.450  11.343  0.2413 -0.7677 -0.0577
  268MOL0     C36092   1.711   6.430  11.254 -0.2612 -0.4841  0.4632
  268MOL0     O36093   1.523   6.428  11.019 -0.0816  0.4156 -0.0085
  268MOL0     C36094   1.235   6.263  11.102  0.4559 -0.3494 -0.9105
  268MOL0     C36095   1.109   6.230  11.060  1.3151  0.3291 -0.2768
  268MOL0     N36096   0.490   6.583  10.795  0.3358  0.0739 -0.1232
  268MOL0     N36097   0.408   6.655  10.857  0.0960 -0.8607 -0.1567
  268MOL0     C36098   0.263   7.245  11.401  0.4503 -0.2335 -0.6716
  268MOL0     C36099   0.355   7.286  11.304 -0.4186 -0.3612  0.2258
  268MOL0     C36100   0.801   7.368  11.160 -0.5772 -0.4668  0.5830
  268MOL0     C36101   0.759   7.366  11.025  0.4281  0.5526 -0.3272
  268MOL0     C36102   0.839   7.427  10.928  0.0552 -0.1578  0.9721
  268MOL0     C36103   0.964   7.470  10.960 -0.1829  0.0009  0.3229
  268MOL0     O36104   1.063   7.522  10.878  0.3752 -0.0654  0.3964
  268MOL0     C36105   1.042   7.499  10.736 -0.3694  0.0512 -1.4517
  268MOL0     C36106   1.148   7.568  10.648 -0.2774  0.1850  0.3022
  268MOL0     C36107   1.125   7.528  10.506 -1.1113  0.5341  0.3862
  268MOL0     C36108   1.210   7.592  10.396  0.2190 -0.4717 -0.2606
  268MOL0     C36109   1.351   7.549  10.393 -0.3110 -0.3068  0.3370
  268MOL0     C36110   1.471   7.519  10.360  0.4043  0.2503 -0.5343
  268MOL0     C36111   1.000   7.484  11.094 -0.2350  0.1044  0.1660
  268MOL0     C36112   0.921   7.433  11.194 -0.3839  0.1525  0.0176
  268MOL0     H36113   0.612   7.072  11.383 -1.7183 -3.0048  0.3751
  268MOL0     H36114   0.465   7.001  11.547 -1.6082 -2.7214 -0.4645
  268MOL0     H36115   0.335   7.025  11.716  0.3419 -1.1202 -1.3161
  268MOL0     H36116   0.178   7.064  11.774 -0.1798 -2.4883  0.4831
  268MOL0     H36117   0.178   6.827  11.754  1.0988 -0.4864  0.0019
  268MOL0     H36118   0.091   6.868  11.610 -1.4779 -1.1153  2.6463
  268MOL0     H36119   0.392   6.818  11.591 -0.0295 -0.8370 -1.6339
  268MOL0     H36120   0.294   6.685  11.621  0.4659 -0.6832 -1.1422
  268MOL0     H36121   0.152   6.743  11.420  0.3181 -0.0280 -2.7110
  268MOL0     H36122   0.254   6.874  11.376  1.1456 -0.9277 -3.1252
  268MOL0     H36123   0.458   6.701  11.375  1.0135 -0.7686 -3.7611
  268MOL0     H36124   0.332   6.588  11.413 -0.6663  0.1016 -1.4945
  268MOL0     H36125   0.379   6.573  11.184  2.3332  0.4175  1.8083
  268MOL0     H36126   0.205   6.595  11.239  0.1640 -1.1744 -0.1304
  268MOL0     H36127   0.205   6.728  11.035 -4.1008  2.1370  2.3404
  268MOL0     H36128   0.234   6.832  11.164 -1.1220 -0.5912  0.3456
  268MOL0     H36129   0.475   6.850  11.126 -0.6270  0.4149 -0.4236
  268MOL0     H36130   0.391   6.902  10.990 -1.9950  0.2453  0.1334
  268MOL0     H36131   0.678   6.694  11.034 -0.8038 -0.8263  2.0502
  268MOL0     H36132   0.742   6.541  10.682  1.8463  0.1888  0.2934
  268MOL0     H36133   0.820   6.596  10.822 -1.5149 -0.7412  5.6017
  268MOL0     H36134   0.661   6.326  10.795  1.6500 -1.4413 -3.1445
  268MOL0     H36135   0.788   6.362  10.926  0.8622  2.7787  0.4581
  268MOL0     H36136   0.960   6.385  10.772  0.2333  0.4246 -0.7764
  268MOL0     H36137   0.864   6.325  10.635 -1.8457 -0.5353 -0.4445
  268MOL0     H36138   0.972   6.137  10.696  3.5244  0.0451  2.9027
  268MOL0     H36139   0.806   6.135  10.762 -1.0225  1.1532  1.3846
  268MOL0     H36140   1.163   6.193  10.738 -2.9417  2.3611 -0.2193
  268MOL0     H36141   1.477   6.386  10.792  0.4700 -0.3522  0.7650
  268MOL0     H36142   1.423   6.244  10.700  1.2204  1.4794 -1.8710
  268MOL0     H36143   1.324   6.396  10.704 -1.5920  1.6635  4.0265
  268MOL0     H36144   1.520   6.213  11.425 -1.8707  0.7361 -2.6428
  268MOL0     H36145   1.722   6.239  11.584  1.8335 -0.1119  0.4146
  268MOL0     H36146   1.782   6.507  11.685  0.1679 -2.9243  5.0679
  268MOL0     H36147   1.890   6.378  11.738  2.4916 -1.6790 -2.3033
  268MOL0     H36148   2.016   6.640  11.657  1.7326 -0.8843  0.2431
  268MOL0     H36149   1.949   6.608  11.827 -1.5758  0.0397 -0.0691
  268MOL0     H36150   2.152   6.468  11.646 -0.2215 -3.0725 -0.3806
  268MOL0     H36151   2.113   6.389  11.804  0.1122 -0.1933  0.1179
  268MOL0     H36152   2.239   6.645  11.699 -1.4363 -0.6016 -0.9317
  268MOL0     H36153   2.217   6.651  11.869  2.7572  0.7939  0.9660
  268MOL0     H36154   2.463   6.593  11.800 -0.4425  1.2168  1.8458
  268MOL0     H36155   2.395   6.456  11.709  0.3946 -1.2044  0.5373
  268MOL0     H36156   2.331   6.472  12.022  0.1831  0.6513 -0.7250
  268MOL0     H36157   2.339   6.336  11.908 -0.2886  1.5496 -1.0497
  268MOL0     H36158   2.572   6.497  12.017  0.6018  0.3020  0.3310
  268MOL0     H36159   2.581   6.373  11.889 -3.3308 -1.4154 -1.5062
  268MOL0     H36160   2.480   6.341  12.167  0.4653 -3.3184  2.5121
  268MOL0     H36161   2.646   6.297  12.121 -1.1511  0.0586  1.5038
  268MOL0     H36162   1.897   6.517  11.328 -2.2620  1.8767 -3.9854
  268MOL0     H36163   1.714   6.489  11.163 -1.3217 -2.5796 -1.0145
  268MOL0     H36164   1.253   6.259  11.208  0.2198 -0.6603 -0.8791
  268MOL0     H36165   1.027   6.224  11.131 -0.4117  5.2344 -1.4627
  268MOL0     H36166   0.165   7.290  11.403  0.2415 -0.6733 -0.8132
  268MOL0     H36167   0.333   7.374  11.244 -2.9180  0.3906  2.0773
  268MOL0     H36168   0.659   7.333  11.000  0.0847  0.8496  0.6033
  268MOL0     H36169   0.803   7.423  10.826  1.1626  1.1102  0.4905
  268MOL0     H36170   1.053   7.392  10.716 -0.3327  0.0292 -1.3178
  268MOL0     H36171   0.943   7.539  10.711 -0.7488  0.5443  0.6032
  268MOL0     H36172   1.251   7.541  10.672 -0.2460 -0.7048 -0.7489
  268MOL0     H36173   1.131   7.675  10.663  0.1647  0.8587 -3.0773
  268MOL0     H36174   1.022   7.553  10.481 -0.6783  0.4220 -1.6471
  268MOL0     H36175   1.136   7.419  10.498 -1.5375  0.3388  2.1233
  268MOL0     H36176   1.212   7.699  10.415  0.0558 -0.1512 -1.9396
  268MOL0     H36177   1.163   7.563  10.301 -0.8547  1.1907 -0.2726
  268MOL0     H36178   1.574   7.495  10.342 -0.0636 -1.5559 -1.1047
  268MOL0     H36179   1.090   7.541  11.112  1.3157 -2.8667  2.8161
  268MOL0     H36180   0.953   7.439  11.297 -1.2593  0.3163  0.2915
  269MOL0     O36181   2.649   2.407   3.709  0.3605  0.7809  0.2818
  269MOL0     C36182   2.699   2.499   3.768  0.9284  0.0615 -0.2681
  269MOL0     O36183   2.639   2.596   3.849 -0.1363  0.2381  0.1423
  269MOL0     C36184   2.502   2.607   3.869  0.5469  0.3581 -0.2942
  269MOL0     C36185   2.460   2.734   3.872 -0.5617  0.0422 -0.6215
  269MOL0     C36186   2.326   2.771   3.890 -0.6526 -0.9042  0.6890
  269MOL0     C36187   2.231   2.677   3.891  0.2291  0.2061  0.7441
  269MOL0     O36188   2.098   2.693   3.901  0.7451 -0.8435 -0.9663
  269MOL0     C36189   2.048   2.826   3.857 -0.1401 -0.0405 -0.1455
  269MOL0     C36190   1.890   2.816   3.899 -1.1954  0.7005  0.4583
  269MOL0     C36191   1.828   2.951   3.860 -0.2047  0.1974 -0.3198
  269MOL0     C36192   1.683   2.936   3.903  0.2173 -0.7603  0.2476
  269MOL0     C36193   1.624   3.077   3.920  0.1232 -0.7347 -0.3654
  269MOL0     C36194   1.476   3.068   3.954  0.2640 -1.0243 -0.5776
  269MOL0     C36195   1.422   3.213   3.950  0.3344  1.4217 -0.0768
  269MOL0     C36196   1.342   3.255   3.822 -0.1233  0.3032 -0.3664
  269MOL0     N36197   1.391   3.193   3.697  0.0746 -0.1568 -0.3622
  269MOL0     C36198   1.500   3.239   3.633 -0.3085  0.5122 -0.0869
  269MOL0     C36199   1.502   3.164   3.517  0.2724  0.3652 -0.1711
  269MOL0     C36200   1.604   3.165   3.410 -0.4275  0.1224  0.6320
  269MOL0     C36201   1.735   3.105   3.453  0.5162 -1.1404 -0.4879
  269MOL0     C36202   1.849   3.149   3.356  0.4752  0.1235  0.5378
  269MOL0     C36203   1.988   3.107   3.393 -0.4256 -0.1214 -0.1431
  269MOL0     O36204   1.994   2.965   3.407  0.8769 -0.2686 -0.2313
  269MOL0     C36205   2.093   2.891   3.356 -0.0338 -0.1364  0.9833
  269MOL0     C36206   2.128   2.776   3.425  0.4532 -0.4442 -0.1677
  269MOL0     C36207   2.230   2.700   3.390  0.5669 -0.0296  0.6258
  269MOL0     C36208   2.266   2.580   3.481 -0.0648 -0.0578  0.6357
  269MOL0     C36209   2.298   2.728   3.270 -0.2444 -0.2517 -0.5798
  269MOL0     C36210   2.411   2.640   3.196  0.4829 -0.5975  0.2628
  269MOL0     O36211   2.460   2.688   3.075  0.8466  0.0044  0.3651
  269MOL0     C36212   2.521   2.594   2.991 -0.0992 -0.4022 -0.1645
  269MOL0     C36213   2.598   2.654   2.888  0.0070  0.4178  0.2014
  269MOL0     C36214   2.668   2.576   2.791 -0.1497 -0.3359 -0.2071
  269MOL0     C36215   2.651   2.438   2.803 -0.0371 -0.1110  0.4005
  269MOL0     O36216   2.705   2.369   2.690 -0.3595 -0.0586  0.2009
  269MOL0     C36217   2.655   2.242   2.642 -0.2575  0.3376  0.6105
  269MOL0     C36218   2.630   2.241   2.491 -0.1397  0.5080  0.5285
  269MOL0     C36219   2.570   2.113   2.445  1.4036 -0.2168 -0.5140
  269MOL0     C36220   2.423   2.107   2.476  0.7081 -0.3731 -0.5333
  269MOL0     C36221   2.334   2.003   2.394  0.1168 -0.0575 -0.4313
  269MOL0     C36222   2.205   1.947   2.471 -0.8305  0.5782  0.4541
  269MOL0     C36223   2.071   2.021   2.443  0.2973 -0.2669  0.3179
  269MOL0     C36224   2.027   1.961   2.308  0.2283  0.1950 -0.3281
  269MOL0    Cl36225   1.851   1.991   2.285 -0.0551 -0.0330  0.1138
  269MOL0     C36226   2.581   2.376   2.912  0.2758 -0.0142  0.5720
  269MOL0     C36227   2.524   2.460   3.009  0.0509  0.1432 -0.5192
  269MOL0     O36228   2.463   2.553   3.267  0.0224 -0.2856 -0.6010
  269MOL0     C36229   2.268   2.843   3.197 -0.0849 -0.9836 -0.7168
  269MOL0     C36230   2.168   2.929   3.240  0.4878  0.0029  0.5940
  269MOL0     N36231   1.411   3.062   3.530 -0.6191  0.5421 -0.6654
  269MOL0     N36232   1.343   3.078   3.641  1.1837 -0.3107 -0.1958
  269MOL0     C36233   2.279   2.538   3.877 -0.3011 -0.3070 -0.6490
  269MOL0     C36234   2.410   2.500   3.864 -0.4733 -0.9300  0.0333
  269MOL0     C36235   2.841   2.516   3.746  0.0663 -0.1533 -0.1721
  269MOL0     C36236   2.908   2.443   3.646 -0.1168 -0.6487  0.0776
  269MOL0     C36237   3.043   2.457   3.628  0.4335 -0.6894 -0.5031
  269MOL0     C36238   3.123   2.553   3.704  1.7377  0.3634  0.4286
  269MOL0     O36239   3.257   2.563   3.666 -0.5931  0.1502 -0.2120
  269MOL0     C36240   3.345   2.635   3.752 -0.5991 -0.6558 -0.5935
  269MOL0     C36241   3.468   2.703   3.666  0.4807  0.4545 -0.0337
  269MOL0     C36242   3.525   2.834   3.721 -1.2176  0.1074 -0.2219
  269MOL0     C36243   3.571   2.935   3.617  0.3950 -0.0844  0.7056
  269MOL0     C36244   3.661   2.882   3.520 -1.1294  0.3412 -0.6377
  269MOL0     C36245   3.717   2.816   3.440 -0.5517  0.7057  0.4132
  269MOL0     C36246   3.050   2.631   3.799  0.1335 -0.0963 -0.0861
  269MOL0     C36247   2.913   2.612   3.819  0.3306 -0.2069  0.0710
  269MOL0     H36248   2.538   2.808   3.880  0.9338 -1.6337  1.6620
  269MOL0     H36249   2.304   2.877   3.894  0.7541 -0.4996 -0.8742
  269MOL0     H36250   2.102   2.912   3.897 -0.2472  0.2965 -0.7019
  269MOL0     H36251   2.055   2.834   3.748  1.2138 -0.9514 -0.1544
  269MOL0     H36252   1.845   2.729   3.850 -0.4042 -0.2724  1.3840
  269MOL0     H36253   1.886   2.793   4.006  2.4974  2.8915  1.2331
  269MOL0     H36254   1.881   3.024   3.922  1.2449 -0.3294 -0.8951
  269MOL0     H36255   1.846   2.974   3.754  3.2854  1.6244  0.4442
  269MOL0     H36256   1.633   2.895   3.815  1.2971 -0.5482 -0.4881
  269MOL0     H36257   1.663   2.874   3.991 -0.6961 -4.6655 -2.4641
  269MOL0     H36258   1.680   3.133   3.995 -0.6022  3.0553 -2.4291
  269MOL0     H36259   1.645   3.136   3.831  2.6264 -2.5785 -1.1325
  269MOL0     H36260   1.417   2.994   3.900  1.5859  0.3342 -4.1738
  269MOL0     H36261   1.467   3.043   4.061 -0.7783 -0.1897 -0.4445
  269MOL0     H36262   1.369   3.229   4.044  2.1545  2.9219  0.7706
  269MOL0     H36263   1.511   3.276   3.942  1.4215  0.3632  2.5289
  269MOL0     H36264   1.353   3.364   3.812 -4.0265  1.2783  3.3052
  269MOL0     H36265   1.239   3.224   3.843  0.8338 -1.6693  1.8210
  269MOL0     H36266   1.564   3.323   3.658  1.1292 -0.8326  0.9377
  269MOL0     H36267   1.567   3.103   3.328 -3.2229  4.4753 -1.8424
  269MOL0     H36268   1.606   3.267   3.370  1.7259 -0.5172 -1.0779
  269MOL0     H36269   1.743   2.996   3.452 -2.8527 -1.6101  2.8350
  269MOL0     H36270   1.747   3.131   3.558  0.0042 -1.4905 -0.3415
  269MOL0     H36271   1.850   3.256   3.332  1.3130  0.2994  1.3009
  269MOL0     H36272   1.824   3.094   3.265 -2.5628  0.3569  1.1236
  269MOL0     H36273   2.019   3.157   3.485 -2.1309  1.0044 -0.1366
  269MOL0     H36274   2.061   3.145   3.321 -0.6729 -1.5399 -1.1941
  269MOL0     H36275   2.076   2.750   3.517  1.2886  0.0129  0.4405
  269MOL0     H36276   2.220   2.591   3.580  2.2211 -3.1156  2.1803
  269MOL0     H36277   2.241   2.484   3.435 -0.0641  1.0889 -1.9449
  269MOL0     H36278   2.372   2.580   3.508  0.5403 -2.8968 -1.3237
  269MOL0     H36279   2.597   2.762   2.872 -1.9303  0.1429 -2.1750
  269MOL0     H36280   2.714   2.633   2.710  1.0594 -1.0869 -0.0722
  269MOL0     H36281   2.715   2.153   2.664 -1.3715 -0.4667  0.4873
  269MOL0     H36282   2.559   2.216   2.688  1.1156 -1.7625  2.5136
  269MOL0     H36283   2.566   2.326   2.463 -0.8964  0.9092  3.1940
  269MOL0     H36284   2.730   2.237   2.447 -0.5233 -1.0743 -0.2770
  269MOL0     H36285   2.619   2.023   2.484  3.1974  1.4802  1.4048
  269MOL0     H36286   2.583   2.104   2.336  0.4322 -1.9156 -0.5181
  269MOL0     H36287   2.417   2.073   2.580  4.1211 -0.5123 -0.2466
  269MOL0     H36288   2.372   2.203   2.469  0.4535 -0.3921  0.8868
  269MOL0     H36289   2.396   1.919   2.362 -0.0810 -0.2032 -0.4349
  269MOL0     H36290   2.288   2.061   2.314 -1.0401 -0.5259 -0.1309
  269MOL0     H36291   2.204   1.839   2.452  3.9600 -0.1670  2.7618
  269MOL0     H36292   2.226   1.930   2.577  2.7773 -3.3870 -0.5901
  269MOL0     H36293   2.083   2.129   2.437 -1.0274 -0.0627  0.9850
  269MOL0     H36294   2.000   1.994   2.522 -0.8088  0.0666 -0.5294
  269MOL0     H36295   2.039   1.852   2.313  1.5403  0.3140 -0.7137
  269MOL0     H36296   2.084   2.001   2.224  1.8744  1.0121  1.1143
  269MOL0     H36297   2.571   2.268   2.917 -0.2349 -0.2841 -3.0814
  269MOL0     H36298   2.470   2.415   3.091  1.3558  0.8652  0.7847
  269MOL0     H36299   2.314   2.871   3.102 -0.8912 -0.7663 -1.0482
  269MOL0     H36300   2.138   3.016   3.182  2.4964  0.3198 -0.0454
  269MOL0     H36301   2.197   2.467   3.883  0.0100 -0.7876 -1.8446
  269MOL0     H36302   2.435   2.394   3.859 -0.9717 -1.0829  0.7635
  269MOL0     H36303   2.858   2.354   3.609 -0.2269 -2.6729  4.4492
  269MOL0     H36304   3.094   2.401   3.550 -0.6896  1.2084 -2.7318
  269MOL0     H36305   3.297   2.724   3.795 -1.4691  0.7104 -4.0718
  269MOL0     H36306   3.370   2.566   3.833 -0.4330 -3.6665 -3.0214
  269MOL0     H36307   3.436   2.728   3.564 -0.2832  3.0287  0.7479
  269MOL0     H36308   3.547   2.628   3.656  0.0161  0.0337 -0.5806
  269MOL0     H36309   3.603   2.794   3.786 -0.3528  0.2057 -1.1622
  269MOL0     H36310   3.462   2.892   3.789 -2.1759 -1.5809  0.3883
  269MOL0     H36311   3.611   3.027   3.661  1.2024 -0.4278  0.7251
  269MOL0     H36312   3.485   2.964   3.556  0.8890  1.3968  0.6800
  269MOL0     H36313   3.740   2.773   3.345 -1.0463  0.1725  0.5304
  269MOL0     H36314   3.107   2.707   3.852  2.4899 -1.3427 -0.6833
  269MOL0     H36315   2.859   2.674   3.890 -1.2091  0.3030 -1.4523
  270MOL0     O36316   3.349  11.163  11.113  0.9522  0.1355 -0.9389
  270MOL0     C36317   3.251  11.160  11.193 -0.6487 -0.2905  0.7140
  270MOL0     O36318   3.225  11.061  11.289  0.4923  0.7360  0.1487
  270MOL0     C36319   3.314  10.952  11.306  0.7939  0.5337 -0.1445
  270MOL0     C36320   3.288  10.826  11.248 -0.4181 -0.3111 -0.4239
  270MOL0     C36321   3.365  10.712  11.282 -0.3567 -0.0974 -0.0372
  270MOL0     C36322   3.478  10.736  11.365 -0.1050  0.1447  0.5334
  270MOL0     O36323   3.556  10.627  11.385 -0.7188  0.0042  0.3836
  270MOL0     C36324   3.691  10.642  11.420  0.1135 -0.1858  0.6261
  270MOL0     C36325   3.778  10.519  11.390  1.0814  0.0763  0.1894
  270MOL0     C36326   3.826  10.508  11.243  0.5963 -0.0717 -0.9333
  270MOL0     C36327   3.891  10.373  11.217 -0.1073 -0.3769  0.9059
  270MOL0     C36328   3.922  10.364  11.059  0.0105 -0.4197 -0.1726
  270MOL0     C36329   3.995  10.234  11.021  0.2668 -0.4817 -0.6523
  270MOL0     C36330   4.016  10.220  10.871  0.1504 -0.2408 -0.4491
  270MOL0     C36331   3.892  10.217  10.785  0.1313 -0.0741 -0.2681
  270MOL0     N36332   3.786  10.109  10.806  0.2452 -0.5072 -0.5571
  270MOL0     C36333   3.715  10.106  10.923 -0.8642 -0.8265  0.2972
  270MOL0     C36334   3.645   9.986  10.915  0.4450 -0.4910 -0.1128
  270MOL0     C36335   3.538   9.916  11.000  0.0315  0.8579  0.7492
  270MOL0     C36336   3.592   9.894  11.148 -0.1188 -0.9772  1.1563
  270MOL0     C36337   3.690   9.778  11.151  0.5151 -0.2772 -0.1138
  270MOL0     C36338   3.734   9.749  11.289 -0.5565 -0.6716 -0.1543
  270MOL0     O36339   3.783   9.621  11.299 -0.4454 -0.2342 -0.3235
  270MOL0     C36340   3.804   9.561  11.424  0.0754 -0.2068  0.2259
  270MOL0     C36341   3.893   9.631  11.510 -0.4943 -0.2810 -0.8294
  270MOL0     C36342   3.924   9.576  11.634  0.3555 -0.8452 -0.7511
  270MOL0     C36343   4.039   9.643  11.713 -0.6559 -0.3845  0.0829
  270MOL0     C36344   3.866   9.449  11.672 -0.7320 -1.3967  0.6702
  270MOL0     C36345   3.887   9.394  11.807  0.2029  0.9520 -0.2821
  270MOL0     O36346   3.872   9.259  11.823 -0.6102  0.6868  0.6948
  270MOL0     C36347   3.949   9.198  11.919  0.9973 -0.3426 -1.6512
  270MOL0     C36348   4.082   9.225  11.944 -0.1640 -0.7834 -0.2561
  270MOL0     C36349   4.149   9.148  12.037 -0.7100  0.0337  0.4314
  270MOL0     C36350   4.092   9.033  12.096 -0.2465 -1.2868 -0.2827
  270MOL0     O36351   4.167   8.952  12.179  0.8549 -0.1025  1.0272
  270MOL0     C36352   4.303   8.994  12.216 -0.2510  0.3360  0.0038
  270MOL0     C36353   4.334   8.923  12.352 -0.1751 -0.3923 -1.2394
  270MOL0     C36354   4.326   8.767  12.348 -0.0779 -0.9682 -0.0539
  270MOL0     C36355   4.372   8.723  12.489  0.6819  0.1196  0.0457
  270MOL0     C36356   4.526   8.739  12.500 -0.3457  0.7601  0.5435
  270MOL0     C36357   4.583   8.660  12.617  0.8014  0.2347 -0.9319
  270MOL0     C36358   4.725   8.625  12.621 -1.2816 -0.0065 -0.2775
  270MOL0     C36359   4.744   8.551  12.759 -0.5323 -0.0287 -0.1432
  270MOL0    Cl36360   4.923   8.516  12.764  0.4329  0.1477  0.0606
  270MOL0     C36361   3.958   8.998  12.064 -0.7530 -0.6358 -0.4541
  270MOL0     C36362   3.889   9.091  11.991  0.2851  0.0864  0.1809
  270MOL0     O36363   3.920   9.463  11.899  0.0697  0.6314 -0.0900
  270MOL0     C36364   3.797   9.374  11.573  1.0488 -0.6146 -0.7205
  270MOL0     C36365   3.759   9.436  11.448  0.2464  0.4791 -0.4785
  270MOL0     N36366   3.693   9.915  10.805  0.1553  0.1478 -0.4491
  270MOL0     N36367   3.766   9.994  10.736 -0.5975 -0.1274 -0.1652
  270MOL0     C36368   3.509  10.856  11.419 -0.0637  0.2443  0.4141
  270MOL0     C36369   3.424  10.961  11.390 -0.2547  0.5538 -0.6381
  270MOL0     C36370   3.167  11.271  11.197 -0.3171 -0.8635 -0.0439
  270MOL0     C36371   3.178  11.382  11.114 -0.4544  0.2258 -1.2556
  270MOL0     C36372   3.084  11.478  11.104  0.2113 -1.1781 -0.5580
  270MOL0     C36373   2.962  11.469  11.181  1.3020  0.8672 -0.0622
  270MOL0     O36374   2.880  11.581  11.176  0.2370 -1.1105 -0.2353
  270MOL0     C36375   2.753  11.581  11.233 -0.3943  0.4064 -0.2253
  270MOL0     C36376   2.661  11.664  11.159  0.0097  0.4409 -0.5163
  270MOL0     C36377   2.659  11.637  11.002 -0.8718  0.4135 -1.0861
  270MOL0     C36378   2.550  11.716  10.930 -0.0762 -0.0505  0.0978
  270MOL0     C36379   2.596  11.728  10.788 -1.1634 -0.7043 -0.0181
  270MOL0     C36380   2.644  11.743  10.678  0.3582  0.9104  0.8396
  270MOL0     C36381   2.944  11.363  11.267 -0.0704 -0.1314  1.2688
  270MOL0     C36382   3.051  11.267  11.277 -0.8595  0.1707  0.3256
  270MOL0     H36383   3.195  10.805  11.196 -1.4287 -1.2111  1.6132
  270MOL0     H36384   3.335  10.615  11.243  0.0307  0.2093 -1.1217
  270MOL0     H36385   3.737  10.720  11.360  1.6885 -1.5062  0.0212
  270MOL0     H36386   3.703  10.648  11.529 -2.8272  2.0846  0.9400
  270MOL0     H36387   3.868  10.529  11.451  0.8408 -1.0232  0.7664
  270MOL0     H36388   3.726  10.428  11.424 -1.0945 -0.2325 -3.4018
  270MOL0     H36389   3.741  10.529  11.178 -1.3490 -0.1330  1.4502
  270MOL0     H36390   3.902  10.585  11.227 -0.0964  1.2455  1.5839
  270MOL0     H36391   3.988  10.357  11.265  0.7060  0.1837 -0.4845
  270MOL0     H36392   3.821  10.299  11.256  0.4350 -0.0459  2.5530
  270MOL0     H36393   3.833  10.392  11.003  0.5919 -1.7674 -1.8606
  270MOL0     H36394   3.986  10.447  11.029 -1.7605  1.0495 -0.0719
  270MOL0     H36395   4.088  10.236  11.077 -0.5827  2.7431  0.8643
  270MOL0     H36396   3.947  10.143  11.056  2.4095 -0.2290  3.4867
  270MOL0     H36397   4.073  10.303  10.828 -0.5071  0.6137  0.2893
  270MOL0     H36398   4.066  10.126  10.847 -2.6066 -1.6087 -1.2866
  270MOL0     H36399   3.922  10.203  10.681 -3.9370  0.6361 -1.7355
  270MOL0     H36400   3.850  10.317  10.799 -1.0531 -0.1918 -2.5663
  270MOL0     H36401   3.697  10.181  10.999  2.0251  1.6709 -1.2687
  270MOL0     H36402   3.444   9.972  11.002 -1.1214 -1.0351  1.8296
  270MOL0     H36403   3.501   9.827  10.950 -0.7333  1.1086  0.8570
  270MOL0     H36404   3.508   9.869  11.212 -1.9561  3.0098  0.6379
  270MOL0     H36405   3.638   9.986  11.188  0.3574 -0.8948  0.4356
  270MOL0     H36406   3.775   9.790  11.083 -1.1193  0.8978 -2.0663
  270MOL0     H36407   3.631   9.693  11.116 -0.9721  0.5205  0.3573
  270MOL0     H36408   3.655   9.744  11.363 -0.2142 -5.6179  0.1717
  270MOL0     H36409   3.805   9.824  11.326 -2.7529  0.5564  1.8649
  270MOL0     H36410   3.935   9.728  11.486 -0.4271 -0.0537  0.1475
  270MOL0     H36411   4.000   9.674  11.810  0.4857 -0.1356  0.4759
  270MOL0     H36412   4.127   9.579  11.699 -0.1579  0.6551 -1.8291
  270MOL0     H36413   4.083   9.735  11.675  0.4676 -0.0630  2.0124
  270MOL0     H36414   4.127   9.314  11.901 -0.1762 -1.0088 -0.7456
  270MOL0     H36415   4.248   9.189  12.049 -1.0062  0.8750  0.0985
  270MOL0     H36416   4.385   8.968  12.148  0.0584 -1.7331  1.0648
  270MOL0     H36417   4.305   9.100  12.241 -1.0420  1.0901 -2.7718
  270MOL0     H36418   4.434   8.963  12.368 -1.1043  2.1646 -1.2636
  270MOL0     H36419   4.265   8.952  12.433 -0.3000 -1.4005 -0.9758
  270MOL0     H36420   4.396   8.737  12.270  2.2017 -2.4258  2.3843
  270MOL0     H36421   4.225   8.732  12.324 -0.4686  0.3254 -0.3903
  270MOL0     H36422   4.322   8.770  12.574  0.9800 -0.4793  0.5604
  270MOL0     H36423   4.348   8.617  12.483  0.4207  0.1829 -0.0749
  270MOL0     H36424   4.558   8.842  12.519 -1.2268  1.3802 -1.1757
  270MOL0     H36425   4.579   8.710  12.409  3.3572  3.0826  1.7185
  270MOL0     H36426   4.545   8.702  12.711 -0.7045 -1.4008 -0.7641
  270MOL0     H36427   4.527   8.567  12.613  1.8264 -0.3398 -2.5201
  270MOL0     H36428   4.780   8.720  12.620 -0.8249 -0.2587  0.2917
  270MOL0     H36429   4.747   8.554  12.541  2.1449 -2.1414  2.2930
  270MOL0     H36430   4.734   8.615  12.847  0.2770 -1.5599  1.1171
  270MOL0     H36431   4.677   8.465  12.763 -0.2025 -0.3947 -1.8436
  270MOL0     H36432   3.915   8.900  12.082 -4.4075  0.3854 -2.6034
  270MOL0     H36433   3.788   9.079  11.953  1.0439  1.5486 -2.5590
  270MOL0     H36434   3.758   9.277  11.604 -0.6023  0.7675  1.8800
  270MOL0     H36435   3.705   9.388  11.367  2.0605 -0.6550 -1.0968
  270MOL0     H36436   3.593  10.874  11.485  0.4689 -0.8537  0.0623
  270MOL0     H36437   3.440  11.054  11.445  0.0161  1.1082 -1.6228
  270MOL0     H36438   3.268  11.382  11.053 -0.3579 -1.5028 -1.1482
  270MOL0     H36439   3.090  11.570  11.046 -0.9751 -0.9102 -0.2920
  270MOL0     H36440   2.708  11.481  11.228  0.2546 -0.0784  2.3586
  270MOL0     H36441   2.765  11.620  11.334 -0.4899 -4.9538  2.2371
  270MOL0     H36442   2.703  11.764  11.175 -0.3010  0.4897 -0.0011
  270MOL0     H36443   2.568  11.652  11.215  2.1650 -5.7719  2.7398
  270MOL0     H36444   2.653  11.529  10.987  0.0007 -0.1897  2.0630
  270MOL0     H36445   2.758  11.665  10.962  0.3201 -0.1809  1.2400
  270MOL0     H36446   2.551  11.817  10.974  1.2740 -0.3221  0.7653
  270MOL0     H36447   2.449  11.675  10.937 -1.4857  2.6634 -2.3337
  270MOL0     H36448   2.692  11.726  10.583  3.5998  0.2116  2.4473
  270MOL0     H36449   2.848  11.339  11.310 -0.3451 -0.6573  0.3905
  270MOL0     H36450   3.025  11.192  11.351 -0.9000  2.4897  2.7789
  271MOL0     O36451   9.303   2.227   1.905  0.4252  0.3096 -0.8974
  271MOL0     C36452   9.415   2.191   1.874 -0.7673 -1.1552 -0.2533
  271MOL0     O36453   9.478   2.214   1.761  0.1691  0.4673 -0.3737
  271MOL0     C36454   9.420   2.274   1.655 -0.0592  0.0036  0.4642
  271MOL0     C36455   9.303   2.234   1.589  0.4543 -0.0152 -0.7453
  271MOL0     C36456   9.265   2.281   1.466  1.2916 -0.7317  0.2468
  271MOL0     C36457   9.340   2.380   1.400  0.3653 -0.0987 -0.1941
  271MOL0     O36458   9.327   2.422   1.268  0.4562  0.0791  0.2169
  271MOL0     C36459   9.204   2.395   1.202 -0.0172 -0.4757 -0.7543
  271MOL0     C36460   9.102   2.480   1.271  0.0476 -0.4884  0.5406
  271MOL0     C36461   9.130   2.631   1.281  0.2628 -0.4652 -0.0510
  271MOL0     C36462   9.125   2.691   1.141  0.4607  0.7895  0.3491
  271MOL0     C36463   9.126   2.848   1.150  0.4653  0.2332  0.4903
  271MOL0     C36464   9.177   2.892   1.010 -0.6802 -0.1249  0.6138
  271MOL0     C36465   9.172   3.049   0.992  0.3349  0.4453 -0.9517
  271MOL0     C36466   9.263   3.100   0.891 -0.0921  1.4751  0.2138
  271MOL0     N36467   9.405   3.090   0.930 -0.6317  0.3083 -0.1360
  271MOL0     C36468   9.464   3.058   1.056  0.7263  0.4348 -0.0446
  271MOL0     C36469   9.595   3.049   1.029  0.4254 -0.8278  0.2271
  271MOL0     C36470   9.699   2.999   1.127  0.1420  0.7846  0.1205
  271MOL0     C36471   9.655   2.903   1.232  0.3699 -0.0977  0.1265
  271MOL0     C36472   9.651   2.766   1.159 -0.3078 -0.6456 -0.7885
  271MOL0     C36473   9.784   2.708   1.136 -0.5431 -0.3132 -0.6459
  271MOL0     O36474   9.774   2.573   1.085 -0.7701  0.4349 -0.2782
  271MOL0     C36475   9.772   2.482   1.186  1.7210 -0.4947  0.0503
  271MOL0     C36476   9.877   2.456   1.279 -0.3183 -0.3998 -0.1282
  271MOL0     C36477   9.868   2.359   1.379  1.2049 -0.3774 -0.4138
  271MOL0     C36478  10.000   2.334   1.456  0.1135 -0.7057 -0.1575
  271MOL0     C36479   9.758   2.270   1.383 -0.1909  1.4644  0.7710
  271MOL0     C36480   9.753   2.149   1.467  0.2065 -0.0405 -0.2814
  271MOL0     O36481   9.781   2.154   1.594 -0.4763  0.2531 -0.3738
  271MOL0     C36482   9.809   2.036   1.670 -0.4452 -0.7624  0.0459
  271MOL0     C36483   9.715   1.936   1.671  0.3254 -0.0537 -0.5679
  271MOL0     C36484   9.745   1.818   1.734  0.3389 -0.0225 -0.8227
  271MOL0     C36485   9.864   1.805   1.824  0.2251  0.1735 -0.3331
  271MOL0     O36486   9.873   1.687   1.897 -0.5963 -0.0980 -0.7522
  271MOL0     C36487   9.990   1.653   1.980 -0.8473 -0.7295  0.7547
  271MOL0     C36488   9.985   1.510   2.040  0.1323 -1.3638 -0.3647
  271MOL0     C36489  10.112   1.479   2.127 -0.5112  0.7087 -0.4952
  271MOL0     C36490  10.098   1.536   2.264 -0.5583 -1.1783  0.1938
  271MOL0     C36491  10.200   1.482   2.355 -0.4947 -0.1632  0.4957
  271MOL0     C36492  10.200   1.547   2.497  0.7882  0.6950  0.3572
  271MOL0     C36493  10.304   1.480   2.588 -0.5404 -0.8154  0.4062
  271MOL0     C36494  10.340   1.578   2.701  0.2216 -0.6205  0.4791
  271MOL0    Cl36495  10.227   1.536   2.836 -0.3406  0.0475  0.0451
  271MOL0     C36496   9.960   1.910   1.811  0.3033  0.1722  0.0346
  271MOL0     C36497   9.931   2.025   1.739 -0.7557 -0.3041  1.5140
  271MOL0     O36498   9.720   2.051   1.405 -0.1422  0.0712 -0.7308
  271MOL0     C36499   9.647   2.298   1.301 -0.3505  0.4774  0.5114
  271MOL0     C36500   9.655   2.396   1.203 -0.2321 -0.4231  0.2422
  271MOL0     N36501   9.614   3.080   0.899 -0.3874  0.3153  0.1456
  271MOL0     N36502   9.506   3.095   0.838  0.0287  0.6574  0.6368
  271MOL0     C36503   9.448   2.438   1.473  0.0012 -0.0161  0.2426
  271MOL0     C36504   9.485   2.381   1.593  0.9791  0.8347 -0.0258
  271MOL0     C36505   9.506   2.115   1.973  0.2406  0.2333 -1.4511
  271MOL0     C36506   9.451   2.036   2.081 -0.3399  0.7556  0.0992
  271MOL0     C36507   9.530   1.984   2.181  0.0078 -0.2663 -0.4358
  271MOL0     C36508   9.666   2.002   2.185  0.0195  0.0871 -0.6269
  271MOL0     O36509   9.746   1.961   2.282 -0.1838  0.7332 -0.2624
  271MOL0     C36510   9.698   1.941   2.416 -0.5508  0.0850  0.3847
  271MOL0     C36511   9.821   1.891   2.495 -0.4474  0.0955 -0.7382
  271MOL0     C36512   9.909   2.014   2.518  0.9376  0.5934 -0.4889
  271MOL0     C36513  10.048   1.971   2.545  0.6785  0.5683 -0.0814
  271MOL0     C36514  10.054   1.916   2.684  0.4094  0.0857  0.0460
  271MOL0     C36515  10.065   1.894   2.803  0.7483 -0.5419 -0.2201
  271MOL0     C36516   9.727   2.057   2.072 -0.6076 -0.1280 -0.4419
  271MOL0     C36517   9.645   2.113   1.973 -1.0566  0.5737 -0.6231
  271MOL0     H36518   9.241   2.158   1.636  0.6049  0.4497  0.2144
  271MOL0     H36519   9.177   2.238   1.419  1.5643 -0.9082 -0.1020
  271MOL0     H36520   9.210   2.420   1.096 -0.2689  2.2355 -0.1937
  271MOL0     H36521   9.164   2.293   1.210 -1.6656  0.2963  2.4139
  271MOL0     H36522   9.004   2.467   1.225  0.4859  0.4616 -0.7163
  271MOL0     H36523   9.096   2.448   1.376  1.1102 -0.5057  0.6147
  271MOL0     H36524   9.061   2.686   1.346  3.1540  0.4594  2.4462
  271MOL0     H36525   9.221   2.653   1.337 -0.8770  1.7474  1.0418
  271MOL0     H36526   9.202   2.648   1.077  0.2638 -1.0237  1.2542
  271MOL0     H36527   9.028   2.664   1.099  1.5457 -1.8075 -0.6959
  271MOL0     H36528   9.028   2.892   1.170  0.9372  0.1106  3.5731
  271MOL0     H36529   9.192   2.879   1.231  0.8119 -1.4903  0.9185
  271MOL0     H36530   9.276   2.853   0.988 -1.2555  0.0215 -2.6697
  271MOL0     H36531   9.111   2.847   0.935  0.5866 -3.0577  1.1315
  271MOL0     H36532   9.070   3.071   0.959 -0.5455  0.8880  1.8566
  271MOL0     H36533   9.195   3.102   1.084  0.2754  0.7200 -1.0933
  271MOL0     H36534   9.237   3.203   0.864 -0.8029  0.8358 -1.7872
  271MOL0     H36535   9.252   3.042   0.798  0.3563  1.3269  0.2519
  271MOL0     H36536   9.419   3.036   1.152 -3.8284  0.7705 -1.8679
  271MOL0     H36537   9.794   2.972   1.079 -0.7953 -2.8121  0.0246
  271MOL0     H36538   9.717   3.087   1.189  0.6237  0.0080  1.1086
  271MOL0     H36539   9.564   2.911   1.291 -1.0142 -1.0338 -1.7396
  271MOL0     H36540   9.714   2.898   1.324 -2.4254  1.0793  2.1049
  271MOL0     H36541   9.601   2.773   1.062  0.4302 -1.7845 -1.2657
  271MOL0     H36542   9.597   2.693   1.220 -1.7554 -2.1084 -3.6186
  271MOL0     H36543   9.839   2.721   1.230 -1.3339 -1.7674  0.0502
  271MOL0     H36544   9.820   2.775   1.058 -3.9409  0.9725 -1.3057
  271MOL0     H36545   9.968   2.513   1.263 -2.1246  3.1180  1.0374
  271MOL0     H36546  10.012   2.235   1.500  1.5618 -0.5388 -0.1323
  271MOL0     H36547  10.078   2.346   1.381  1.0414  0.1787  0.9103
  271MOL0     H36548  10.026   2.402   1.537  0.7159 -3.2625  1.9503
  271MOL0     H36549   9.618   1.958   1.627  0.1374 -2.6509 -1.6118
  271MOL0     H36550   9.672   1.738   1.733 -0.8345  0.8199  2.2965
  271MOL0     H36551  10.077   1.654   1.915 -2.0284 -1.6037 -0.9278
  271MOL0     H36552   9.999   1.720   2.065  0.7876 -0.3015  0.2777
  271MOL0     H36553   9.891   1.490   2.093 -1.0138 -0.2086 -1.8830
  271MOL0     H36554   9.989   1.442   1.955 -0.9062 -2.1871  0.2101
  271MOL0     H36555  10.200   1.522   2.078  0.3704 -0.7983 -0.2937
  271MOL0     H36556  10.123   1.371   2.123 -2.5730  0.4919 -2.0988
  271MOL0     H36557  10.115   1.643   2.251  1.2296 -1.6381 -1.8447
  271MOL0     H36558   9.998   1.518   2.303  0.1511 -0.4624  2.4924
  271MOL0     H36559  10.298   1.502   2.311 -0.9529  1.0045 -0.0434
  271MOL0     H36560  10.189   1.374   2.358  3.6013 -0.8935 -2.4747
  271MOL0     H36561  10.220   1.653   2.485  1.7717  0.2077 -4.1248
  271MOL0     H36562  10.098   1.534   2.534  0.4186  2.6907  0.1353
  271MOL0     H36563  10.393   1.453   2.530 -0.5031 -0.9790  0.5366
  271MOL0     H36564  10.245   1.401   2.635 -1.5861  0.4292  1.2505
  271MOL0     H36565  10.331   1.680   2.663  2.6108 -0.4896  0.1272
  271MOL0     H36566  10.445   1.561   2.729  0.4078 -2.2148 -1.0111
  271MOL0     H36567  10.048   1.894   1.873 -0.2171  0.0572  0.7556
  271MOL0     H36568  10.007   2.102   1.741  0.3743 -1.2295 -1.0776
  271MOL0     H36569   9.562   2.231   1.304  0.0879 -0.0665  1.9178
  271MOL0     H36570   9.584   2.427   1.127 -0.3708  0.3600  0.6919
  271MOL0     H36571   9.522   2.498   1.422 -1.4185  3.7196  2.2141
  271MOL0     H36572   9.582   2.408   1.634  0.9986  1.7187 -0.6185
  271MOL0     H36573   9.345   2.019   2.064 -0.2103  1.1457 -1.1797
  271MOL0     H36574   9.473   1.931   2.257  2.8547 -1.6781  0.8343
  271MOL0     H36575   9.669   2.027   2.476  0.1011  0.0486  0.7561
  271MOL0     H36576   9.613   1.872   2.422 -0.8965  0.5543  0.9270
  271MOL0     H36577   9.875   1.813   2.440 -0.7330  0.6032 -1.7741
  271MOL0     H36578   9.798   1.856   2.596  0.9320  0.6855 -0.1953
  271MOL0     H36579   9.873   2.065   2.608  0.0770 -3.0514  1.4421
  271MOL0     H36580   9.906   2.083   2.433 -0.0604  1.8117  0.5057
  271MOL0     H36581  10.118   2.055   2.545  3.5683 -1.6764 -1.1273
  271MOL0     H36582  10.089   1.905   2.468  2.2606  3.0024 -1.4348
  271MOL0     H36583  10.058   1.889   2.910 -0.5691  2.5891 -0.0515
  271MOL0     H36584   9.834   2.057   2.052 -0.8214 -0.0195 -1.6515
  271MOL0     H36585   9.684   2.167   1.887 -1.3618  1.7515 -0.0350
  272MOL0     O36586   7.376   1.403   2.715  0.0591  0.0830  0.0078
  272MOL0     C36587   7.288   1.454   2.638 -1.6014 -0.0536 -0.6090
  272MOL0     O36588   7.277   1.581   2.602 -0.1017 -0.0106  0.1603
  272MOL0     C36589   7.364   1.679   2.657  0.7939  0.1670  0.5198
  272MOL0     C36590   7.379   1.691   2.802  0.4327  0.3207 -0.2139
  272MOL0     C36591   7.445   1.808   2.850  0.3545  0.2634  0.1631
  272MOL0     C36592   7.495   1.895   2.764 -0.8973 -0.4187  0.1602
  272MOL0     O36593   7.568   1.993   2.832  0.4725 -0.2877 -0.7831
  272MOL0     C36594   7.614   2.106   2.753  0.1406 -1.0310 -0.0401
  272MOL0     C36595   7.653   2.213   2.855 -0.6456  0.5720 -0.0841
  272MOL0     C36596   7.530   2.267   2.917 -0.5748  0.4832  0.1445
  272MOL0     C36597   7.566   2.354   3.043  1.0111 -0.5494 -0.1521
  272MOL0     C36598   7.562   2.505   3.016 -0.1342 -0.3060 -0.7412
  272MOL0     C36599   7.660   2.564   2.914 -0.2002 -0.9508  0.3705
  272MOL0     C36600   7.664   2.718   2.931  0.4157 -0.5712  0.2707
  272MOL0     C36601   7.763   2.777   2.843  0.2409 -0.5002 -1.0467
  272MOL0     N36602   7.742   2.770   2.705 -0.1630 -0.4959  0.5556
  272MOL0     C36603   7.654   2.851   2.643 -0.2593 -1.3713 -0.3439
  272MOL0     C36604   7.626   2.782   2.529 -0.8222  0.5197 -0.5985
  272MOL0     C36605   7.527   2.830   2.423  0.0649  0.1147  0.3394
  272MOL0     C36606   7.374   2.824   2.453  0.1581  0.6797 -0.3111
  272MOL0     C36607   7.325   2.678   2.467  0.4791  1.5536 -0.2051
  272MOL0     C36608   7.175   2.662   2.493  0.5861 -0.5484  0.5045
  272MOL0     O36609   7.162   2.516   2.483  0.0740 -0.5846 -0.1879
  272MOL0     C36610   7.047   2.466   2.551 -0.0304 -0.5624  0.6651
  272MOL0     C36611   6.959   2.546   2.627  0.2321 -0.9619  0.1777
  272MOL0     C36612   6.856   2.492   2.698  0.2943  0.0185  0.4610
  272MOL0     C36613   6.769   2.588   2.780  0.1367 -0.1417  0.8522
  272MOL0     C36614   6.824   2.355   2.685 -0.0388 -0.1597  0.7371
  272MOL0     C36615   6.707   2.280   2.751  0.5142  0.0448  0.4554
  272MOL0     O36616   6.685   2.161   2.701  0.0148 -0.2192 -0.0892
  272MOL0     C36617   6.552   2.111   2.710 -0.4422  0.2286 -0.0455
  272MOL0     C36618   6.442   2.186   2.711 -0.0739 -0.6997 -0.0024
  272MOL0     C36619   6.309   2.132   2.734 -1.1019 -0.6585 -0.0073
  272MOL0     C36620   6.287   1.996   2.742  0.5413 -0.4205 -0.2068
  272MOL0     O36621   6.162   1.932   2.737 -0.1818  0.1027 -0.2630
  272MOL0     C36622   6.055   1.986   2.813 -0.7057  0.3842 -1.2349
  272MOL0     C36623   6.107   2.019   2.957 -0.3540 -0.4475 -0.3387
  272MOL0     C36624   5.985   2.018   3.053 -0.4913 -0.1321 -0.2305
  272MOL0     C36625   5.872   2.111   3.001  0.9182 -0.1303  0.0091
  272MOL0     C36626   5.747   2.113   3.090 -0.3790 -0.0163 -0.1516
  272MOL0     C36627   5.656   1.982   3.081  0.5076 -0.3691 -0.6994
  272MOL0     C36628   5.595   1.933   3.226 -0.7560  0.0416 -0.4420
  272MOL0     C36629   5.714   1.873   3.302  0.0186  0.3867  0.3550
  272MOL0    Cl36630   5.707   1.712   3.240 -0.6503  0.3939  0.5230
  272MOL0     C36631   6.407   1.917   2.749  1.5898 -0.9518 -0.2662
  272MOL0     C36632   6.534   1.970   2.732  0.4069  0.2818 -0.5604
  272MOL0     O36633   6.658   2.323   2.858  0.6420 -0.6030  0.3705
  272MOL0     C36634   6.913   2.275   2.615 -0.5457 -0.6870 -0.7133
  272MOL0     C36635   7.016   2.332   2.552 -1.1294 -0.3644  0.2923
  272MOL0     N36636   7.704   2.670   2.516 -0.2621 -0.3566  0.2184
  272MOL0     N36637   7.771   2.666   2.621 -0.8757 -0.0330  0.2058
  272MOL0     C36638   7.490   1.877   2.620 -0.6559 -0.4748 -0.8136
  272MOL0     C36639   7.410   1.784   2.578  0.6583  1.5189  0.5302
  272MOL0     C36640   7.182   1.364   2.596  0.1115 -0.2784 -0.3161
  272MOL0     C36641   7.063   1.418   2.552 -0.3051  0.3186  0.5668
  272MOL0     C36642   6.963   1.326   2.513 -0.1774 -0.2405  0.4092
  272MOL0     C36643   6.989   1.183   2.530  0.3045  0.1773  0.1643
  272MOL0     O36644   6.896   1.079   2.494  0.8380 -0.3279  0.3491
  272MOL0     C36645   6.751   1.111   2.507 -0.3659  0.8379 -0.3704
  272MOL0     C36646   6.684   0.978   2.533  0.1097  0.0129  0.3959
  272MOL0     C36647   6.757   0.892   2.643  0.4607 -0.2269 -0.3527
  272MOL0     C36648   6.658   0.805   2.725 -1.2952  0.2196 -0.1129
  272MOL0     C36649   6.610   0.684   2.646  0.0663 -0.9560 -0.1987
  272MOL0     C36650   6.584   0.584   2.576 -0.6089  0.8083  0.5345
  272MOL0     C36651   7.105   1.137   2.591 -0.6352  0.1346 -0.3508
  272MOL0     C36652   7.198   1.228   2.615  0.4946  0.0519  0.1160
  272MOL0     H36653   7.330   1.626   2.873 -1.6618  1.6360 -0.3850
  272MOL0     H36654   7.453   1.817   2.958  2.3639 -0.0064  0.0839
  272MOL0     H36655   7.710   2.080   2.708  1.5643  4.2893 -0.7279
  272MOL0     H36656   7.545   2.159   2.686  0.6066  1.1322  1.0930
  272MOL0     H36657   7.728   2.184   2.929  1.2651  1.1755 -1.7149
  272MOL0     H36658   7.693   2.306   2.812 -1.1914  0.6368 -0.4569
  272MOL0     H36659   7.484   2.329   2.839 -0.8355  0.6553  0.4360
  272MOL0     H36660   7.456   2.198   2.959 -3.9542  4.8114  2.2000
  272MOL0     H36661   7.488   2.332   3.116  0.6529 -2.1638 -0.9691
  272MOL0     H36662   7.664   2.334   3.087  2.5031  2.1851 -1.9598
  272MOL0     H36663   7.463   2.542   2.988 -0.4420 -0.2254  0.4114
  272MOL0     H36664   7.579   2.553   3.113  1.5837  0.2849 -1.2977
  272MOL0     H36665   7.763   2.535   2.932  0.1602  0.9557  1.7353
  272MOL0     H36666   7.632   2.531   2.813 -2.2929  1.7689 -0.0605
  272MOL0     H36667   7.565   2.755   2.904 -0.6196 -3.0251  0.4367
  272MOL0     H36668   7.695   2.737   3.034 -2.1575  3.3716  0.5235
  272MOL0     H36669   7.860   2.732   2.869  1.2959  2.6417  1.1068
  272MOL0     H36670   7.786   2.881   2.867  0.1139  0.6492 -5.1820
  272MOL0     H36671   7.612   2.941   2.687  0.2568 -1.4952  0.4374
  272MOL0     H36672   7.547   2.935   2.401  0.6302 -0.0893 -0.1470
  272MOL0     H36673   7.546   2.766   2.336 -0.6561 -1.2230  1.1296
  272MOL0     H36674   7.311   2.879   2.383  0.8229  1.0054 -0.6588
  272MOL0     H36675   7.357   2.871   2.550  1.2721 -2.5406  1.6294
  272MOL0     H36676   7.369   2.624   2.551 -1.5722  2.2803  1.4321
  272MOL0     H36677   7.357   2.615   2.384  2.5793 -0.3969  1.9375
  272MOL0     H36678   7.115   2.716   2.419  1.8372  0.4974  0.2115
  272MOL0     H36679   7.157   2.703   2.592 -1.4592 -0.1947  0.0391
  272MOL0     H36680   6.956   2.651   2.654 -2.9367 -0.8363 -0.3464
  272MOL0     H36681   6.796   2.693   2.770  0.6277 -0.4105 -0.8205
  272MOL0     H36682   6.667   2.578   2.742 -0.1402  0.0355  1.5172
  272MOL0     H36683   6.785   2.572   2.888  1.2570  0.3406  0.7755
  272MOL0     H36684   6.454   2.293   2.695 -0.8418 -0.8798 -1.9470
  272MOL0     H36685   6.235   2.212   2.726  0.1768  0.5644 -0.0586
  272MOL0     H36686   6.004   2.067   2.761 -1.8083  1.1205  0.9052
  272MOL0     H36687   5.980   1.910   2.834 -0.2987  0.3071  0.0193
  272MOL0     H36688   6.179   1.949   3.001 -3.0558 -0.9748  3.7731
  272MOL0     H36689   6.140   2.123   2.964  1.2541 -0.9905  0.5550
  272MOL0     H36690   5.999   2.057   3.155  0.8712  0.1560 -0.5076
  272MOL0     H36691   5.964   1.914   3.078 -1.0723 -0.4077 -1.8049
  272MOL0     H36692   5.914   2.212   2.999  3.8289 -1.2497 -0.2859
  272MOL0     H36693   5.847   2.089   2.897 -1.0171 -2.2872  0.8479
  272MOL0     H36694   5.684   2.200   3.073  1.9213  1.5611 -1.2068
  272MOL0     H36695   5.781   2.124   3.194  0.8648 -3.1054 -0.1132
  272MOL0     H36696   5.583   2.023   3.011 -1.2384 -0.7059  0.8278
  272MOL0     H36697   5.716   1.904   3.034  0.8036 -1.4422  1.3399
  272MOL0     H36698   5.516   1.859   3.212  0.3053 -1.1742 -0.2345
  272MOL0     H36699   5.545   2.021   3.267 -1.1213 -0.1500 -0.4812
  272MOL0     H36700   5.679   1.872   3.405 -3.2573 -0.7737 -0.6411
  272MOL0     H36701   5.813   1.917   3.286 -0.7522  1.0626 -3.5219
  272MOL0     H36702   6.400   1.812   2.772 -2.1894 -0.7152  0.2459
  272MOL0     H36703   6.617   1.900   2.732  0.8993  0.8578 -0.6998
  272MOL0     H36704   6.890   2.169   2.623 -0.6781 -0.6174 -0.0931
  272MOL0     H36705   7.071   2.257   2.496 -0.9818  0.0089 -0.0753
  272MOL0     H36706   7.527   1.931   2.534 -0.0560  0.2957 -0.0916
  272MOL0     H36707   7.406   1.771   2.471  1.3761 -2.2969  0.8413
  272MOL0     H36708   7.049   1.520   2.517  1.1923  1.1111  2.1399
  272MOL0     H36709   6.877   1.368   2.462  0.5475 -0.4562 -1.0564
  272MOL0     H36710   6.710   1.180   2.581 -2.9942 -0.5610 -0.3878
  272MOL0     H36711   6.705   1.154   2.417 -0.9364  0.3521 -0.3214
  272MOL0     H36712   6.683   0.913   2.445 -1.5562 -1.1365  1.2106
  272MOL0     H36713   6.581   0.997   2.563  0.5295 -0.5020  2.3052
  272MOL0     H36714   6.812   0.955   2.714  1.3876  1.3124 -2.3213
  272MOL0     H36715   6.833   0.833   2.591  0.7324  1.4329 -1.9713
  272MOL0     H36716   6.567   0.864   2.743 -0.6472  1.6385 -1.3519
  272MOL0     H36717   6.705   0.759   2.813 -1.8902  1.0748  0.6741
  272MOL0     H36718   6.575   0.499   2.513  4.2031  0.3786  0.1231
  272MOL0     H36719   7.126   1.032   2.608  0.1242 -0.1005 -2.4772
  272MOL0     H36720   7.290   1.186   2.655  0.8141 -0.3135 -0.9815
  273MOL0     O36721   1.550   6.457   9.480  0.1051 -0.5135  0.6198
  273MOL0     C36722   1.554   6.341   9.513  0.3383 -0.3214 -0.1560
  273MOL0     O36723   1.482   6.278   9.613  0.1107  0.5389 -0.2156
  273MOL0     C36724   1.407   6.359   9.691  0.3856 -1.1104  0.0166
  273MOL0     C36725   1.273   6.322   9.701 -0.7111 -0.4420  1.0790
  273MOL0     C36726   1.186   6.388   9.791  0.7208 -0.1395  0.3541
  273MOL0     C36727   1.236   6.481   9.879  0.9023  0.4687 -1.4217
  273MOL0     O36728   1.147   6.549   9.958  0.7288  0.6006 -0.5325
  273MOL0     C36729   1.124   6.688   9.924  0.8043  1.1233 -0.4637
  273MOL0     C36730   1.020   6.744  10.012 -0.1667  0.0396 -0.6099
  273MOL0     C36731   0.946   6.855   9.945 -0.2478 -0.7198  0.0261
  273MOL0     C36732   0.891   6.953  10.038  0.6244 -0.5462  0.1589
  273MOL0     C36733   0.804   7.063   9.973  1.4389 -0.1728  0.5294
  273MOL0     C36734   0.752   7.150  10.083 -0.5653  0.0029  0.3778
  273MOL0     C36735   0.638   7.234  10.039 -0.2339 -0.7294  0.0351
  273MOL0     C36736   0.572   7.305  10.154 -0.2338 -0.4908  0.3237
  273MOL0     N36737   0.644   7.419  10.215 -0.2058 -0.2611  0.0259
  273MOL0     C36738   0.694   7.527  10.148 -0.3841 -1.0773  0.2174
  273MOL0     C36739   0.796   7.579  10.220  0.2434 -0.7960 -0.2567
  273MOL0     C36740   0.862   7.708  10.182  0.3623  0.4987  0.7651
  273MOL0     C36741   0.964   7.678  10.061  0.1029  0.1332 -0.4741
  273MOL0     C36742   1.037   7.810  10.015  0.0295 -0.0350 -0.1463
  273MOL0     C36743   0.946   7.920   9.965 -0.1780 -0.5722 -0.3128
  273MOL0     O36744   0.834   7.871   9.883 -0.5724  0.2568 -0.7315
  273MOL0     C36745   0.857   7.800   9.771  0.0208  0.3199 -0.3852
  273MOL0     C36746   0.959   7.823   9.677  0.4683  0.7450 -0.2865
  273MOL0     C36747   0.983   7.731   9.574  0.2473  0.6006 -0.2469
  273MOL0     C36748   1.102   7.762   9.476  0.9593  0.1329 -1.2303
  273MOL0     C36749   0.897   7.621   9.561 -1.2497  0.2215  0.6122
  273MOL0     C36750   0.906   7.522   9.453  1.0991 -0.1671  0.2697
  273MOL0     O36751   0.793   7.452   9.419 -0.2707 -0.0095 -0.1802
  273MOL0     C36752   0.790   7.348   9.329 -0.4310  0.0623 -0.1895
  273MOL0     C36753   0.893   7.253   9.302 -0.3917  0.6850  0.0554
  273MOL0     C36754   0.890   7.166   9.200 -1.1301  0.3457  0.2494
  273MOL0     C36755   0.767   7.155   9.140  0.2619  0.7507  0.0244
  273MOL0     O36756   0.747   7.038   9.068  0.2067  0.4729 -0.0632
  273MOL0     C36757   0.754   7.048   8.929 -0.1826  0.6058 -0.5170
  273MOL0     C36758   0.821   6.926   8.867  1.3294 -0.9877  0.3722
  273MOL0     C36759   0.764   6.805   8.919  0.0065 -0.0239  0.4708
  273MOL0     C36760   0.788   6.699   8.815 -0.7657 -0.2497 -0.2739
  273MOL0     C36761   0.754   6.559   8.860  0.1654  1.0486  0.3282
  273MOL0     C36762   0.710   6.458   8.750  0.5444 -0.5702 -0.2428
  273MOL0     C36763   0.815   6.430   8.642  0.4023  0.5999 -0.6883
  273MOL0     C36764   0.783   6.313   8.545  0.5693  0.1999  0.6913
  273MOL0    Cl36765   0.938   6.274   8.449  0.0811 -0.1118  0.0717
  273MOL0     C36766   0.654   7.223   9.173  0.3236 -0.2142 -0.4651
  273MOL0     C36767   0.667   7.322   9.261  0.5698  0.0878 -0.2462
  273MOL0     O36768   1.017   7.497   9.417 -0.0106  0.2511 -0.1299
  273MOL0     C36769   0.782   7.620   9.638 -0.7443  0.1932  0.2936
  273MOL0     C36770   0.760   7.707   9.739 -0.5472  0.8666  0.4442
  273MOL0     N36771   0.805   7.508  10.337 -0.0621 -0.4310  0.2000
  273MOL0     N36772   0.708   7.409  10.333  0.5479  0.3986  0.8340
  273MOL0     C36773   1.368   6.523   9.870  1.3975 -1.0496  0.6485
  273MOL0     C36774   1.456   6.458   9.782  0.7800  0.1479 -0.0461
  273MOL0     C36775   1.633   6.258   9.426 -0.1764 -0.4155 -0.0447
  273MOL0     C36776   1.759   6.299   9.372 -0.0421  1.4667 -0.4317
  273MOL0     C36777   1.819   6.203   9.285 -0.0696  0.2793  0.3609
  273MOL0     C36778   1.750   6.092   9.237 -0.2340 -0.2311 -0.1811
  273MOL0     O36779   1.832   6.026   9.152  0.1568 -0.4310 -0.2382
  273MOL0     C36780   1.776   5.931   9.060 -0.0137  0.9730 -0.8740
  273MOL0     C36781   1.717   5.997   8.945 -0.2116 -0.1513  0.7121
  273MOL0     C36782   1.822   6.087   8.880 -0.1859  0.0050  0.7818
  273MOL0     C36783   1.774   6.146   8.731 -0.2329 -0.1201 -1.2400
  273MOL0     C36784   1.704   6.271   8.747 -0.2497  0.6126 -0.0030
  273MOL0     C36785   1.659   6.381   8.771  0.3843 -0.7632 -0.6141
  273MOL0     C36786   1.617   6.066   9.271 -0.4790  0.4587  0.3310
  273MOL0     C36787   1.561   6.150   9.373 -0.6593 -0.2624  0.7773
  273MOL0     H36788   1.233   6.244   9.636 -0.4546 -1.4292  2.0737
  273MOL0     H36789   1.084   6.349   9.791  1.5456 -2.5775 -1.7469
  273MOL0     H36790   1.216   6.746   9.932  2.3815 -1.1198 -1.4206
  273MOL0     H36791   1.092   6.682   9.820  3.6376  2.5506 -1.5119
  273MOL0     H36792   0.951   6.662  10.038  2.0359 -1.8733 -0.5165
  273MOL0     H36793   1.068   6.768  10.108 -0.7376  0.0353 -0.3168
  273MOL0     H36794   1.008   6.910   9.873  1.2931 -4.7247 -2.0158
  273MOL0     H36795   0.874   6.802   9.882  1.5388  0.5249 -3.3184
  273MOL0     H36796   0.833   6.908  10.119  0.0578  1.9678  1.2690
  273MOL0     H36797   0.974   7.006  10.086 -1.0350  0.6988  1.8341
  273MOL0     H36798   0.867   7.118   9.902  0.7383 -0.9209 -0.7081
  273MOL0     H36799   0.718   7.022   9.919  1.6364  0.0253  0.0608
  273MOL0     H36800   0.719   7.086  10.165  6.3220 -1.7046  2.4317
  273MOL0     H36801   0.830   7.210  10.132  0.8405 -0.9397 -0.6239
  273MOL0     H36802   0.669   7.307   9.963 -2.3575  1.1561  0.8438
  273MOL0     H36803   0.571   7.171   9.981  0.2871 -1.8128  0.5898
  273MOL0     H36804   0.536   7.241  10.235 -2.0904  2.5830  2.1629
  273MOL0     H36805   0.491   7.362  10.106  1.0845  2.2834  1.1550
  273MOL0     H36806   0.665   7.570  10.052 -1.0137  2.6467  1.9186
  273MOL0     H36807   0.771   7.759  10.148  1.1545  1.6242  0.2549
  273MOL0     H36808   0.897   7.774  10.262 -1.3428  3.0804 -0.4484
  273MOL0     H36809   0.921   7.624   9.977  1.5512 -0.5960 -0.7886
  273MOL0     H36810   1.037   7.614  10.112 -0.6008 -0.7856 -0.6068
  273MOL0     H36811   1.106   7.787   9.933  1.5348  0.2564  0.9922
  273MOL0     H36812   1.099   7.844  10.098 -0.1390 -2.1188  0.9028
  273MOL0     H36813   1.015   7.994   9.924 -0.4034  0.7666  1.5807
  273MOL0     H36814   0.901   7.963  10.055  2.1779  2.4647 -0.4243
  273MOL0     H36815   1.023   7.909   9.693 -1.7327  2.4033  0.1578
  273MOL0     H36816   1.152   7.855   9.503  2.8613 -1.6366  2.0383
  273MOL0     H36817   1.182   7.687   9.472  0.9466  0.1370 -1.6651
  273MOL0     H36818   1.055   7.783   9.379 -0.3256 -0.6916 -0.8093
  273MOL0     H36819   0.983   7.270   9.361 -1.4806  0.4807  1.8673
  273MOL0     H36820   0.971   7.101   9.170 -2.6319 -2.1295  1.2791
  273MOL0     H36821   0.652   7.049   8.891 -0.9694  0.5546  1.4976
  273MOL0     H36822   0.790   7.145   8.893  1.5398  0.5112  0.8376
  273MOL0     H36823   0.813   6.932   8.758  3.2027 -2.4833  0.0877
  273MOL0     H36824   0.927   6.943   8.888  0.8474  0.7027  1.7110
  273MOL0     H36825   0.655   6.808   8.933 -0.5691 -1.6999 -2.6959
  273MOL0     H36826   0.821   6.795   9.012  0.5519  0.7873  0.2381
  273MOL0     H36827   0.731   6.731   8.728  1.6497  0.4085 -1.6867
  273MOL0     H36828   0.894   6.701   8.789 -0.5423 -2.4981  0.2216
  273MOL0     H36829   0.679   6.562   8.940  0.5654  1.5602  0.6975
  273MOL0     H36830   0.834   6.520   8.924  3.1513  2.2521 -2.3831
  273MOL0     H36831   0.681   6.371   8.808  2.1888  0.2190  1.9337
  273MOL0     H36832   0.622   6.508   8.708  0.0850  0.6737  2.0310
  273MOL0     H36833   0.909   6.411   8.695 -0.8458 -1.4530  0.9458
  273MOL0     H36834   0.823   6.520   8.581  0.4701  0.2673 -1.1697
  273MOL0     H36835   0.696   6.333   8.482  0.3941 -2.3772  0.0000
  273MOL0     H36836   0.756   6.232   8.614 -0.4315  0.5123  0.6827
  273MOL0     H36837   0.558   7.202   9.125 -0.9914  0.8036  1.5871
  273MOL0     H36838   0.584   7.392   9.269  1.3962  0.9836  0.7959
  273MOL0     H36839   0.706   7.542   9.629 -2.2088  1.6969 -1.0539
  273MOL0     H36840   0.672   7.695   9.802 -0.2571 -2.3354  0.4108
  273MOL0     H36841   1.394   6.610   9.930 -1.1849 -0.7102  1.3929
  273MOL0     H36842   1.561   6.486   9.781  0.6453  0.8835 -3.4909
  273MOL0     H36843   1.821   6.379   9.410  2.3132 -0.3439 -0.2353
  273MOL0     H36844   1.920   6.228   9.255 -0.1913  1.1156  0.6082
  273MOL0     H36845   1.851   5.857   9.033 -0.2820  0.2276  0.3642
  273MOL0     H36846   1.703   5.866   9.110  0.2824  1.0521 -0.3300
  273MOL0     H36847   1.631   6.049   8.989 -1.5797 -0.7526 -1.1308
  273MOL0     H36848   1.685   5.924   8.870 -0.2147  2.1134 -1.6202
  273MOL0     H36849   1.909   6.021   8.871  0.0251  0.0170  2.3814
  273MOL0     H36850   1.841   6.170   8.949  0.7241  0.9609 -0.5706
  273MOL0     H36851   1.709   6.079   8.675 -0.5112 -0.5957 -0.3738
  273MOL0     H36852   1.871   6.161   8.684  0.6142 -0.5436  0.2970
  273MOL0     H36853   1.617   6.478   8.788  1.0303 -0.5711 -0.0700
  273MOL0     H36854   1.559   5.981   9.236 -1.3671  2.1040 -2.5177
  273MOL0     H36855   1.455   6.138   9.388 -0.7629  0.6456  0.7838
  274MOL0     O36856   0.545   0.940   7.513 -0.3370  0.9518  0.0831
  274MOL0     C36857   0.468   0.848   7.522  0.9032  0.3200  0.6512
  274MOL0     O36858   0.479   0.734   7.605 -0.5628 -0.6481 -0.3615
  274MOL0     C36859   0.575   0.717   7.700 -0.2808 -0.2881  0.9821
  274MOL0     C36860   0.704   0.676   7.657 -0.1495 -0.1848  0.1291
  274MOL0     C36861   0.808   0.680   7.749  0.5991 -0.5188 -0.7752
  274MOL0     C36862   0.784   0.718   7.884  0.4535 -0.1648 -0.2924
  274MOL0     O36863   0.879   0.733   7.984  0.5420  0.4285 -0.1124
  274MOL0     C36864   1.008   0.672   7.965  0.3055  0.0037  0.0721
  274MOL0     C36865   1.084   0.677   8.095  0.5940 -0.2136  0.4498
  274MOL0     C36866   1.163   0.799   8.125 -0.1034 -0.0264  0.3004
  274MOL0     C36867   1.252   0.786   8.255  0.5094  0.2073 -0.2217
  274MOL0     C36868   1.318   0.912   8.312  0.6364  0.3741  0.9328
  274MOL0     C36869   1.414   0.980   8.209 -0.7225  0.3328  0.6833
  274MOL0     C36870   1.491   1.096   8.272 -0.7035  0.4216  0.2636
  274MOL0     C36871   1.451   1.236   8.209 -1.2545  0.0590 -0.3631
  274MOL0     N36872   1.538   1.292   8.096 -0.0143  0.2419 -0.4607
  274MOL0     C36873   1.674   1.314   8.096 -0.5430 -0.0052  0.6231
  274MOL0     C36874   1.708   1.323   7.961 -0.1275 -0.1969  1.0923
  274MOL0     C36875   1.846   1.349   7.915 -0.5991  0.3500 -0.9436
  274MOL0     C36876   1.906   1.244   7.820 -0.3347 -0.1320  0.5438
  274MOL0     C36877   1.906   1.105   7.873 -0.2765  0.5903 -0.4477
  274MOL0     C36878   1.929   0.999   7.764  0.0537  0.5389  0.3913
  274MOL0     O36879   1.954   0.870   7.810 -0.1984  0.6186 -0.1618
  274MOL0     C36880   2.074   0.854   7.885 -0.0310 -0.4736 -0.3827
  274MOL0     C36881   2.172   0.951   7.907 -0.5074 -0.4575 -0.7573
  274MOL0     C36882   2.277   0.936   7.995 -0.1607 -0.2939  0.1714
  274MOL0     C36883   2.372   1.058   8.011  0.6074 -0.3533  0.6203
  274MOL0     C36884   2.294   0.807   8.057 -0.1868  0.0042  0.9318
  274MOL0     C36885   2.412   0.766   8.148 -0.4674 -0.5340  0.4332
  274MOL0     O36886   2.399   0.661   8.224 -0.2165  0.0798 -0.2716
  274MOL0     C36887   2.513   0.634   8.298  0.7432  0.0184 -0.1622
  274MOL0     C36888   2.548   0.705   8.417 -0.0650  0.4896 -0.2832
  274MOL0     C36889   2.662   0.670   8.498 -0.5030  0.5585 -0.3534
  274MOL0     C36890   2.747   0.567   8.445  0.7267 -0.0734  1.2582
  274MOL0     O36891   2.871   0.548   8.492 -0.6388 -1.2724  0.4914
  274MOL0     C36892   2.959   0.641   8.424 -0.2262 -0.4518  0.3846
  274MOL0     C36893   3.075   0.680   8.519 -0.1766  0.1149 -0.2862
  274MOL0     C36894   3.186   0.583   8.532  0.3526  0.0282  0.2821
  274MOL0     C36895   3.326   0.634   8.487 -0.0391  0.3935  0.9913
  274MOL0     C36896   3.440   0.519   8.499  0.8358 -0.1281 -0.1418
  274MOL0     C36897   3.576   0.584   8.474 -0.0149  0.7074 -0.5006
  274MOL0     C36898   3.688   0.476   8.472  0.2439 -0.6939  0.2349
  274MOL0     C36899   3.761   0.481   8.343  0.3071  0.0044 -0.3328
  274MOL0    Cl36900   3.838   0.320   8.335  0.1308  0.2767  0.3906
  274MOL0     C36901   2.714   0.505   8.323 -0.2336  0.1304 -0.1380
  274MOL0     C36902   2.601   0.538   8.255  0.4074  0.9940  0.0817
  274MOL0     O36903   2.510   0.836   8.156  0.1980 -0.4537 -0.1599
  274MOL0     C36904   2.195   0.718   8.032 -0.3912  1.5463  0.2163
  274MOL0     C36905   2.085   0.734   7.950 -0.8034 -0.6321  0.2643
  274MOL0     N36906   1.593   1.324   7.887 -0.5469  0.4914 -0.0803
  274MOL0     N36907   1.500   1.289   7.965 -0.0989 -0.5207  1.0399
  274MOL0     C36908   0.658   0.761   7.923 -0.2333 -0.2875  0.0413
  274MOL0     C36909   0.547   0.763   7.827 -0.0979  0.8566  0.0655
  274MOL0     C36910   0.383   0.843   7.404  0.7573  0.2726  0.9429
  274MOL0     C36911   0.329   0.951   7.337  0.5507  0.1581  0.6543
  274MOL0     C36912   0.254   0.924   7.223 -0.1261 -0.6170  0.3306
  274MOL0     C36913   0.240   0.804   7.173 -0.3708  0.9347  0.3481
  274MOL0     O36914   0.170   0.792   7.051 -0.8283 -0.1284  0.7112
  274MOL0     C36915   0.042   0.750   7.075  0.4511 -0.7569  0.6229
  274MOL0     C36916  -0.027   0.705   6.945 -0.0335 -0.2788  0.1788
  274MOL0     C36917  -0.137   0.599   6.957  0.5078  0.8715 -0.8713
  274MOL0     C36918  -0.201   0.570   6.821  0.4273  0.6556 -0.1310
  274MOL0     C36919  -0.105   0.515   6.723  0.0960 -0.6077 -0.9586
  274MOL0     C36920  -0.005   0.480   6.666 -0.4107 -0.8468 -0.6356
  274MOL0     C36921   0.283   0.692   7.243 -0.3394  0.0712 -0.8140
  274MOL0     C36922   0.354   0.709   7.363  0.2926  0.7012  0.7496
  274MOL0     H36923   0.702   0.642   7.554 -4.0281 -3.2968  0.9689
  274MOL0     H36924   0.911   0.653   7.725  0.1261 -1.9848 -1.2907
  274MOL0     H36925   0.991   0.573   7.920  1.6890  0.7174 -2.2009
  274MOL0     H36926   1.068   0.723   7.889  0.4317 -1.4223 -0.8370
  274MOL0     H36927   1.002   0.660   8.166  1.2959 -3.5766  0.5987
  274MOL0     H36928   1.151   0.594   8.120  1.6898  0.6114  0.3312
  274MOL0     H36929   1.228   0.828   8.042 -1.4810  0.7586 -0.5416
  274MOL0     H36930   1.086   0.872   8.152 -1.3505 -1.2958  0.3109
  274MOL0     H36931   1.204   0.739   8.342 -0.1780  0.6626 -0.3541
  274MOL0     H36932   1.333   0.721   8.220  0.2875  0.1631 -0.6522
  274MOL0     H36933   1.243   0.987   8.337 -0.7109 -0.3265 -0.8022
  274MOL0     H36934   1.364   0.882   8.407  0.7447 -1.0329  0.4534
  274MOL0     H36935   1.484   0.898   8.193  2.7698  3.4040 -1.5201
  274MOL0     H36936   1.360   0.999   8.116  1.5680  0.0642 -0.7966
  274MOL0     H36937   1.465   1.112   8.377  2.7917  1.5524  1.1098
  274MOL0     H36938   1.595   1.066   8.257 -2.0190 -3.3716 -2.9858
  274MOL0     H36939   1.450   1.308   8.291 -2.1744  0.2003 -0.4883
  274MOL0     H36940   1.343   1.224   8.192 -1.6837 -0.2808  2.1845
  274MOL0     H36941   1.732   1.316   8.187 -1.2048  0.1060  1.0484
  274MOL0     H36942   1.853   1.443   7.860  1.2183 -0.1917 -1.7089
  274MOL0     H36943   1.902   1.358   8.009  2.1554  2.2942 -2.6256
  274MOL0     H36944   2.003   1.274   7.778 -2.4085  4.0630 -1.8415
  274MOL0     H36945   1.837   1.257   7.737  1.9899  1.8970 -1.2325
  274MOL0     H36946   1.800   1.097   7.900 -0.5417  1.3317 -1.2206
  274MOL0     H36947   1.965   1.076   7.960 -2.7349 -2.2211  0.4611
  274MOL0     H36948   2.012   1.024   7.697 -1.1849 -2.8172 -2.7630
  274MOL0     H36949   1.845   0.994   7.694  1.5296  2.5562 -1.6787
  274MOL0     H36950   2.184   1.035   7.839  1.8843  0.2975  0.4705
  274MOL0     H36951   2.388   1.079   8.118 -1.3906 -0.9579  1.0922
  274MOL0     H36952   2.471   1.040   7.969  0.3354 -1.5410  0.4436
  274MOL0     H36953   2.335   1.145   7.957  1.1993 -2.3573 -3.3451
  274MOL0     H36954   2.473   0.781   8.439 -2.4264 -0.6235 -3.6317
  274MOL0     H36955   2.684   0.713   8.595  0.4295  1.1530 -0.8056
  274MOL0     H36956   3.010   0.596   8.339 -3.5532 -2.1794 -0.8688
  274MOL0     H36957   2.909   0.732   8.391 -0.3750 -1.3903 -2.1782
  274MOL0     H36958   3.111   0.780   8.494  0.6531 -0.7623 -2.8646
  274MOL0     H36959   3.041   0.692   8.623  4.3777  1.2355  1.3382
  274MOL0     H36960   3.162   0.503   8.461 -1.4900  0.2597  0.6047
  274MOL0     H36961   3.200   0.524   8.624  0.3819 -4.9716 -2.5452
  274MOL0     H36962   3.317   0.662   8.382 -0.4948 -0.1400  0.8824
  274MOL0     H36963   3.368   0.710   8.554  0.4714  0.6977  0.3323
  274MOL0     H36964   3.407   0.447   8.424  0.0501  0.5790 -0.4964
  274MOL0     H36965   3.427   0.486   8.602 -2.9323  0.7531 -0.1968
  274MOL0     H36966   3.565   0.629   8.375 -3.0563 -3.1823 -2.2070
  274MOL0     H36967   3.611   0.664   8.539  0.2056  0.2640 -0.0656
  274MOL0     H36968   3.640   0.379   8.492  1.9349 -1.3188  1.5313
  274MOL0     H36969   3.758   0.486   8.556  1.4972 -0.1694 -0.8406
  274MOL0     H36970   3.829   0.566   8.352  1.1976 -0.6816 -0.5420
  274MOL0     H36971   3.693   0.496   8.258  0.1249 -0.9579 -0.3662
  274MOL0     H36972   2.786   0.433   8.285 -0.1127 -0.2442  0.7776
  274MOL0     H36973   2.586   0.490   8.159  1.0273 -1.9278  1.3360
  274MOL0     H36974   2.208   0.625   8.087 -0.5838  1.6795  0.4887
  274MOL0     H36975   1.996   0.672   7.944 -1.7926  0.7743 -0.0946
  274MOL0     H36976   0.646   0.792   8.026  3.5397 -0.6798  0.7346
  274MOL0     H36977   0.446   0.800   7.838  0.1545  1.2656  1.0877
  274MOL0     H36978   0.355   1.054   7.358  1.5944  0.3914 -1.5345
  274MOL0     H36979   0.214   1.006   7.165 -0.5395 -2.8529 -2.7938
  274MOL0     H36980   0.042   0.665   7.144 -0.7501  0.0599  1.6752
  274MOL0     H36981  -0.023   0.821   7.127  1.8167  0.3780  0.8538
  274MOL0     H36982   0.048   0.659   6.879 -2.1615 -0.4487 -2.2846
  274MOL0     H36983  -0.054   0.800   6.898  0.1276 -2.3380 -4.6674
  274MOL0     H36984  -0.209   0.636   7.030  3.2311  2.2277  1.3449
  274MOL0     H36985  -0.084   0.514   7.001  0.3349 -1.2946 -4.4786
  274MOL0     H36986  -0.255   0.656   6.781 -1.2539 -0.9570 -1.4903
  274MOL0     H36987  -0.283   0.499   6.832  0.8095  0.3378  0.8589
  274MOL0     H36988   0.094   0.470   6.624  1.1415  2.5157  1.7247
  274MOL0     H36989   0.247   0.591   7.227  0.1062 -0.6450  2.0526
  274MOL0     H36990   0.390   0.616   7.407 -0.4668 -1.2342 -2.3912
  275MOL0     O36991   3.840   8.598   6.061 -0.1450  0.2741 -0.0423
  275MOL0     C36992   3.798   8.618   6.176  0.3514  0.7527  0.2679
  275MOL0     O36993   3.869   8.677   6.270  0.3407  0.2341 -0.4377
  275MOL0     C36994   3.986   8.748   6.230  0.7185  0.0462 -0.9447
  275MOL0     C36995   3.971   8.862   6.146  0.8649 -0.6493  1.4068
  275MOL0     C36996   4.082   8.918   6.088  0.2757  0.0298  0.7342
  275MOL0     C36997   4.210   8.884   6.135 -1.1663  0.0975 -0.6495
  275MOL0     O36998   4.319   8.973   6.096 -0.4298 -0.3217 -0.2907
  275MOL0     C36999   4.442   8.983   6.169 -0.1565 -0.1960  0.0605
  275MOL0     C37000   4.520   9.107   6.117  0.9921  0.5635 -0.8165
  275MOL0     C37001   4.446   9.239   6.158  0.3262 -0.5122 -0.6346
  275MOL0     C37002   4.415   9.328   6.036  0.6081  0.1200  0.9615
  275MOL0     C37003   4.375   9.469   6.062  0.8030 -0.3491  0.3936
  275MOL0     C37004   4.235   9.470   6.126 -0.1280 -0.0335  0.2684
  275MOL0     C37005   4.173   9.611   6.124 -0.2865 -0.6736 -1.3284
  275MOL0     C37006   4.207   9.686   6.263  0.0744 -0.0238 -0.1167
  275MOL0     N37007   4.136   9.812   6.260 -0.0234 -0.0948 -0.5519
  275MOL0     C37008   4.188   9.917   6.179 -0.8522 -0.4996  0.0675
  275MOL0     C37009   4.101  10.023   6.208 -0.1025  0.0155  0.3767
  275MOL0     C37010   4.095  10.161   6.157  0.7659 -0.1769  0.2932
  275MOL0     C37011   4.115  10.270   6.272  0.2413 -0.1083 -0.5579
  275MOL0     C37012   4.150  10.413   6.212  0.5865 -0.8175 -0.6341
  275MOL0     C37013   4.036  10.465   6.124 -0.0751 -0.2018 -0.2256
  275MOL0     O37014   4.064  10.607   6.094 -0.6274  0.7709  0.5629
  275MOL0     C37015   4.013  10.663   5.976  0.1919  0.0629  0.2078
  275MOL0     C37016   4.036  10.800   5.963 -0.1066 -0.5627  0.5004
  275MOL0     C37017   3.983  10.865   5.853 -0.6719 -0.0624 -0.0904
  275MOL0     C37018   4.033  11.013   5.837  0.4517  0.6161  0.2057
  275MOL0     C37019   3.927  10.794   5.746  0.1305 -0.0818  0.1189
  275MOL0     C37020   3.906  10.855   5.611  0.0548  0.7781  0.3708
  275MOL0     O37021   4.000  10.858   5.511  0.1435  1.0936 -0.2855
  275MOL0     C37022   3.988  10.949   5.411  0.7316  1.4828 -0.4742
  275MOL0     C37023   3.885  10.940   5.307 -0.0191  0.2844  0.1060
  275MOL0     C37024   3.880  11.043   5.212 -0.3398 -0.3024 -0.5370
  275MOL0     C37025   3.948  11.164   5.228  0.6440 -0.0888  1.0533
  275MOL0     O37026   3.941  11.262   5.135 -0.6169  0.2776 -0.4774
  275MOL0     C37027   3.926  11.399   5.196  0.2426  0.5186 -0.7355
  275MOL0     C37028   3.779  11.427   5.248  0.0144  0.4212 -0.1223
  275MOL0     C37029   3.680  11.450   5.124 -0.9415  0.3093 -1.5695
  275MOL0     C37030   3.542  11.513   5.170  0.4218  0.6548  0.3417
  275MOL0     C37031   3.456  11.428   5.271  0.0253  0.0634  0.4136
  275MOL0     C37032   3.330  11.506   5.306 -0.1100  0.4323 -0.5605
  275MOL0     C37033   3.240  11.537   5.197 -0.6961 -0.2236  0.4260
  275MOL0     C37034   3.225  11.690   5.168  0.0773 -0.4509 -0.8630
  275MOL0    Cl37035   3.191  11.692   4.993  0.1030 -0.0856  0.0352
  275MOL0     C37036   4.041  11.173   5.326 -0.6654 -0.3952 -0.4093
  275MOL0     C37037   4.065  11.068   5.413  0.4043 -0.2047 -0.5506
  275MOL0     O37038   3.794  10.907   5.606 -0.1837 -0.3255  0.1592
  275MOL0     C37039   3.916  10.658   5.750  1.7865 -0.5046  0.5746
  275MOL0     C37040   3.959  10.589   5.863  0.7440 -0.1902 -1.1197
  275MOL0     N37041   4.009   9.980   6.304  0.4742 -1.1446 -0.3241
  275MOL0     N37042   4.028   9.855   6.335  0.2161 -0.2341  0.3161
  275MOL0     C37043   4.229   8.770   6.227  0.4170 -0.8274  0.0532
  275MOL0     C37044   4.116   8.696   6.271  0.9581  0.0787  1.3931
  275MOL0     C37045   3.678   8.546   6.209  0.5670 -0.1951  0.1253
  275MOL0     C37046   3.610   8.464   6.112 -0.7054 -0.8585 -1.0584
  275MOL0     C37047   3.505   8.384   6.144 -0.3725  0.3708 -0.0413
  275MOL0     C37048   3.457   8.386   6.276  0.8299 -0.4474 -0.8761
  275MOL0     O37049   3.334   8.323   6.308 -0.2600 -0.2229 -0.3314
  275MOL0     C37050   3.306   8.285   6.447  0.1002 -0.2491  0.3261
  275MOL0     C37051   3.223   8.403   6.503  0.2172  0.5211  0.6479
  275MOL0     C37052   3.184   8.371   6.661 -0.5029 -0.5973  0.0760
  275MOL0     C37053   3.029   8.387   6.679  0.3236  0.3688  1.0828
  275MOL0     C37054   2.966   8.285   6.585  0.0008 -0.1224  0.3880
  275MOL0     C37055   2.905   8.230   6.494 -0.1988 -0.1618  0.0809
  275MOL0     C37056   3.526   8.454   6.380 -0.9200  0.3645  0.0357
  275MOL0     C37057   3.631   8.543   6.342 -1.0476  1.4308 -0.1617
  275MOL0     H37058   3.873   8.890   6.109  0.3935 -0.4186  2.7573
  275MOL0     H37059   4.071   8.993   6.010  0.0019 -0.1738  0.5761
  275MOL0     H37060   4.420   8.996   6.275  2.0533  1.4436  0.3805
  275MOL0     H37061   4.492   8.886   6.156 -0.1164 -0.1938  0.1987
  275MOL0     H37062   4.617   9.092   6.166 -0.1084 -1.6726  0.8679
  275MOL0     H37063   4.530   9.105   6.008  1.7057  0.1001 -0.7481
  275MOL0     H37064   4.359   9.217   6.220  1.4515  4.6532  3.5182
  275MOL0     H37065   4.520   9.290   6.220  0.3817 -1.3920  0.0473
  275MOL0     H37066   4.508   9.333   5.978  1.3168  2.1235  2.1348
  275MOL0     H37067   4.344   9.278   5.971  2.8269  1.2473 -2.6238
  275MOL0     H37068   4.445   9.513   6.134 -0.7122  3.9664 -0.4387
  275MOL0     H37069   4.385   9.528   5.970 -0.4966 -2.4710 -1.1848
  275MOL0     H37070   4.169   9.412   6.061 -1.3730  1.5260  0.0749
  275MOL0     H37071   4.232   9.432   6.228 -1.0652  0.9982  0.6455
  275MOL0     H37072   4.217   9.678   6.049  0.7718  0.0877 -0.0698
  275MOL0     H37073   4.065   9.609   6.107 -0.5736 -0.5242  0.2923
  275MOL0     H37074   4.316   9.697   6.263  0.2261 -1.3875 -0.3701
  275MOL0     H37075   4.176   9.635   6.354  0.7469  1.1402  0.7906
  275MOL0     H37076   4.273   9.927   6.112 -2.3398  1.6890 -1.6466
  275MOL0     H37077   4.177  10.164   6.085  1.8177 -1.3462  1.4037
  275MOL0     H37078   4.002  10.176   6.101  1.4334 -0.8847 -1.0584
  275MOL0     H37079   4.196  10.237   6.338 -0.4553 -0.2162  0.2532
  275MOL0     H37080   4.025  10.283   6.332 -0.5270 -2.0050 -1.2246
  275MOL0     H37081   4.246  10.403   6.160  1.1498  1.7314 -0.2020
  275MOL0     H37082   4.168  10.476   6.299  0.2344 -2.3535  0.5833
  275MOL0     H37083   3.938  10.468   6.172 -0.1850 -2.9553 -0.1595
  275MOL0     H37084   4.036  10.399   6.037  2.4830 -1.2248  0.4568
  275MOL0     H37085   4.088  10.859   6.038 -1.4010  1.6187 -0.2294
  275MOL0     H37086   3.983  11.072   5.760  0.4112  0.4668  0.1158
  275MOL0     H37087   4.024  11.068   5.931  1.7786 -0.4859  1.0240
  275MOL0     H37088   4.141  11.011   5.819  0.7238  0.9346  1.7031
  275MOL0     H37089   3.823  10.852   5.318 -0.1437  0.6585  3.3834
  275MOL0     H37090   3.805  11.034   5.134 -3.1806  1.9020  1.7098
  275MOL0     H37091   3.992  11.428   5.278 -0.0080  2.4634 -1.1759
  275MOL0     H37092   3.942  11.470   5.115 -1.5802 -0.2587 -1.8445
  275MOL0     H37093   3.737  11.348   5.311 -1.4879  0.2052 -1.3653
  275MOL0     H37094   3.792  11.514   5.313  2.6600  0.1444 -0.1551
  275MOL0     H37095   3.672  11.354   5.072  1.1514 -1.6939  1.4444
  275MOL0     H37096   3.724  11.519   5.052 -0.8201  1.1958 -0.6693
  275MOL0     H37097   3.557  11.613   5.212 -0.5638  0.9252  0.0712
  275MOL0     H37098   3.488  11.520   5.075 -1.7055 -1.2460  1.3307
  275MOL0     H37099   3.514  11.393   5.357  0.4882 -1.0982 -0.3387
  275MOL0     H37100   3.423  11.332   5.230 -4.5118  1.3834  0.4972
  275MOL0     H37101   3.269  11.435   5.362  0.2638 -0.1366 -0.8618
  275MOL0     H37102   3.344  11.588   5.377 -1.2477 -1.6079  2.2081
  275MOL0     H37103   3.144  11.495   5.230 -0.7532 -2.0784 -1.8781
  275MOL0     H37104   3.267  11.476   5.111 -2.5102 -2.1952  1.1389
  275MOL0     H37105   3.313  11.753   5.188  0.5276 -1.0184 -1.0324
  275MOL0     H37106   3.138  11.741   5.210  0.8826  1.5265 -1.4438
  275MOL0     H37107   4.112  11.255   5.324 -2.1041  0.8613 -1.7335
  275MOL0     H37108   4.139  11.081   5.492  0.2654  0.2010 -0.4828
  275MOL0     H37109   3.894  10.624   5.649  5.7536  0.2460 -0.7323
  275MOL0     H37110   3.955  10.480   5.861 -1.8879 -0.1697 -2.9537
  275MOL0     H37111   4.326   8.736   6.259 -0.3201 -3.4784 -0.3028
  275MOL0     H37112   4.130   8.600   6.320  1.3855 -1.0254 -0.7593
  275MOL0     H37113   3.637   8.461   6.007  1.5940  1.1935 -0.6351
  275MOL0     H37114   3.449   8.332   6.067  0.3215 -0.6189  0.1159
  275MOL0     H37115   3.242   8.196   6.453 -1.9425  1.0916 -0.4440
  275MOL0     H37116   3.388   8.279   6.519 -1.8634 -0.5298  2.6676
  275MOL0     H37117   3.140   8.410   6.432  0.6534 -0.1086  0.0641
  275MOL0     H37118   3.273   8.500   6.504  0.0677  0.6001  0.5086
  275MOL0     H37119   3.224   8.450   6.725 -0.9235  0.4927 -0.9510
  275MOL0     H37120   3.202   8.268   6.691 -0.9599 -1.1706 -1.4925
  275MOL0     H37121   2.992   8.489   6.660 -0.3960  0.1990  1.5418
  275MOL0     H37122   3.005   8.363   6.783 -0.2685 -2.7954  0.2924
  275MOL0     H37123   2.860   8.183   6.409 -0.8056  1.2640 -0.4076
  275MOL0     H37124   3.498   8.469   6.483  4.0793  1.8777  1.4222
  275MOL0     H37125   3.673   8.605   6.420  0.1661  1.5134 -0.8507
  276MOL0     O37126   8.022   8.886   1.846 -0.6535 -0.0222 -0.6699
  276MOL0     C37127   8.092   8.848   1.944 -0.8630  0.5680 -0.5244
  276MOL0     O37128   8.056   8.766   2.044  0.0851  0.5665 -0.1969
  276MOL0     C37129   7.930   8.703   2.035  0.2398 -0.0849  1.3397
  276MOL0     C37130   7.920   8.568   2.045 -0.8323 -0.0198  0.0138
  276MOL0     C37131   7.794   8.499   2.035  0.3714  0.5931 -0.4225
  276MOL0     C37132   7.674   8.582   2.031  0.1557  0.6884 -1.0240
  276MOL0     O37133   7.544   8.546   2.022  0.3320 -0.4560 -0.1652
  276MOL0     C37134   7.500   8.411   2.051 -0.5307  0.3392 -0.4434
  276MOL0     C37135   7.358   8.400   2.099 -0.0584  0.4807  0.6236
  276MOL0     C37136   7.350   8.378   2.245 -0.4682  0.2838  0.6037
  276MOL0     C37137   7.400   8.495   2.327 -0.1597 -0.2086  0.5088
  276MOL0     C37138   7.391   8.489   2.477  0.7910  0.7520 -0.2826
  276MOL0     C37139   7.255   8.472   2.539  0.2053 -0.2228 -0.1384
  276MOL0     C37140   7.171   8.598   2.499  0.4923  0.5251 -0.0798
  276MOL0     C37141   7.031   8.591   2.569 -0.4657 -0.2354  1.1382
  276MOL0     N37142   6.949   8.477   2.535  0.8305 -0.7674  0.8236
  276MOL0     C37143   6.930   8.365   2.611 -0.4001  0.4295 -0.3955
  276MOL0     C37144   6.854   8.273   2.536  0.4755 -0.0349 -0.1731
  276MOL0     C37145   6.786   8.145   2.583  0.3632 -0.4006  0.6195
  276MOL0     C37146   6.626   8.138   2.594  0.1308 -0.5771 -0.3219
  276MOL0     C37147   6.569   8.040   2.499 -0.5552  0.8130  0.7475
  276MOL0     C37148   6.580   8.097   2.354 -0.1397 -0.1143 -0.0102
  276MOL0     O37149   6.453   8.126   2.298 -0.2167  0.7480  0.3248
  276MOL0     C37150   6.367   8.024   2.249  0.0444  0.1567 -0.8380
  276MOL0     C37151   6.412   7.897   2.196  0.4616  0.2920 -0.4374
  276MOL0     C37152   6.331   7.798   2.143 -0.5437 -0.2840 -0.5199
  276MOL0     C37153   6.382   7.659   2.123  0.2071 -0.5710 -0.1228
  276MOL0     C37154   6.209   7.848   2.098  0.6565  0.7211 -0.3886
  276MOL0     C37155   6.126   7.777   2.000 -0.2548 -0.6253  0.2470
  276MOL0     O37156   6.009   7.841   1.969 -0.3481 -0.6940 -0.1739
  276MOL0     C37157   5.936   7.801   1.868  0.3034 -0.2189  0.0569
  276MOL0     C37158   5.793   7.816   1.888  0.2687 -0.8647  0.0017
  276MOL0     C37159   5.707   7.772   1.795  0.6604 -1.0134  0.3634
  276MOL0     C37160   5.746   7.719   1.674  0.7776  1.6533  0.1862
  276MOL0     O37161   5.646   7.671   1.591 -0.7635  0.3241 -0.4928
  276MOL0     C37162   5.664   7.685   1.449 -0.2011 -0.4930 -0.6690
  276MOL0     C37163   5.652   7.827   1.404  0.5568  0.9788 -0.2164
  276MOL0     C37164   5.502   7.880   1.447 -0.3928  1.1843 -0.3730
  276MOL0     C37165   5.488   8.023   1.386 -0.1003  0.7824  0.8478
  276MOL0     C37166   5.352   8.082   1.429 -0.5449 -0.7888 -0.7177
  276MOL0     C37167   5.341   8.232   1.377 -0.1206 -0.0680  0.3436
  276MOL0     C37168   5.218   8.315   1.442  0.1942 -0.5271 -0.7464
  276MOL0     C37169   5.230   8.467   1.416 -0.1066 -0.4716 -0.4835
  276MOL0    Cl37170   5.359   8.524   1.520 -0.3877 -0.7029  0.0255
  276MOL0     C37171   5.880   7.694   1.660 -0.5659  0.5991 -0.6240
  276MOL0     C37172   5.972   7.730   1.758 -0.6213  0.6997  0.5526
  276MOL0     O37173   6.156   7.668   1.965 -0.3145  0.2299 -0.4141
  276MOL0     C37174   6.159   7.966   2.143  0.7767 -0.6484  0.6656
  276MOL0     C37175   6.234   8.053   2.221  0.5089  0.6836  0.1727
  276MOL0     N37176   6.844   8.335   2.407  0.5133  0.1195 -0.2248
  276MOL0     N37177   6.901   8.447   2.409  0.8175  0.6276 -0.6302
  276MOL0     C37178   7.690   8.721   2.035  0.3125 -0.5921  0.0075
  276MOL0     C37179   7.810   8.782   2.029 -0.4801 -0.0940 -0.4626
  276MOL0     C37180   8.217   8.914   1.954 -0.3777  0.3628 -0.1471
  276MOL0     C37181   8.297   8.891   2.069  0.2037 -0.2452  0.9034
  276MOL0     C37182   8.419   8.947   2.076  0.3293  0.1046 -0.4313
  276MOL0     C37183   8.473   9.036   1.985  0.3014  0.7776  0.2151
  276MOL0     O37184   8.581   9.119   2.013  0.1478  1.1288 -0.1341
  276MOL0     C37185   8.672   9.102   2.126  1.1789  0.8682 -0.4190
  276MOL0     C37186   8.811   9.153   2.080  0.0562  0.8764  1.0009
  276MOL0     C37187   8.882   9.036   2.007 -0.7439  0.9061  0.1809
  276MOL0     C37188   8.977   8.960   2.093  0.2000 -0.0456  0.5636
  276MOL0     C37189   9.088   9.033   2.144 -0.2976  0.2859  0.9474
  276MOL0     C37190   9.176   9.104   2.179  0.6466 -0.4717 -1.2397
  276MOL0     C37191   8.396   9.060   1.875  0.1162 -0.6524  0.0988
  276MOL0     C37192   8.268   8.999   1.853  0.4282  0.4361 -0.2198
  276MOL0     H37193   8.019   8.523   2.052 -1.6511 -1.7935  0.6943
  276MOL0     H37194   7.787   8.391   2.035  0.2421  0.5927  0.4751
  276MOL0     H37195   7.512   8.350   1.961 -0.0666  0.9264 -0.7831
  276MOL0     H37196   7.555   8.365   2.134  0.6703  1.4799 -0.5743
  276MOL0     H37197   7.300   8.490   2.076 -0.4828  0.5816  2.0100
  276MOL0     H37198   7.304   8.316   2.053 -5.1542  2.7410  1.7248
  276MOL0     H37199   7.247   8.370   2.280 -0.3307  0.9818  1.1980
  276MOL0     H37200   7.390   8.281   2.274 -1.0190 -0.2547 -0.3892
  276MOL0     H37201   7.501   8.531   2.302  0.9394 -2.6034  1.2157
  276MOL0     H37202   7.344   8.587   2.310 -0.6071 -0.7412 -1.1235
  276MOL0     H37203   7.457   8.407   2.509 -1.6268 -1.1780  0.1156
  276MOL0     H37204   7.436   8.578   2.521  2.1504 -0.1473  0.2363
  276MOL0     H37205   7.210   8.378   2.504  0.9141 -0.0696 -1.5008
  276MOL0     H37206   7.274   8.460   2.647  1.9021  1.9472 -0.1354
  276MOL0     H37207   7.213   8.691   2.539 -5.5735  3.6694  0.1453
  276MOL0     H37208   7.159   8.606   2.390  0.4589 -0.6328 -0.1700
  276MOL0     H37209   6.970   8.678   2.543  1.1125 -0.1623 -3.1501
  276MOL0     H37210   7.049   8.593   2.677 -2.4337 -3.2766  1.6300
  276MOL0     H37211   6.963   8.348   2.713  1.1400 -1.8105 -1.2022
  276MOL0     H37212   6.826   8.072   2.512  3.7761  0.2542  1.6643
  276MOL0     H37213   6.834   8.113   2.676  0.6272 -1.3636  0.1659
  276MOL0     H37214   6.592   8.240   2.573 -3.7042 -1.4036  1.1694
  276MOL0     H37215   6.594   8.128   2.698 -1.0938 -0.8834 -0.7153
  276MOL0     H37216   6.463   8.031   2.526 -0.8280 -1.4043 -0.8022
  276MOL0     H37217   6.609   7.940   2.517 -2.0029  0.5870  3.1377
  276MOL0     H37218   6.633   8.019   2.298 -0.4216 -1.5124  1.5755
  276MOL0     H37219   6.630   8.194   2.359 -4.3331  2.3995 -1.2708
  276MOL0     H37220   6.518   7.873   2.193  0.4614  0.4235 -2.1259
  276MOL0     H37221   6.308   7.586   2.156 -1.7321  0.5656 -1.7472
  276MOL0     H37222   6.392   7.650   2.014 -2.4976 -2.5811 -0.3207
  276MOL0     H37223   6.480   7.641   2.168  0.3517 -0.3973 -0.3670
  276MOL0     H37224   5.749   7.882   1.962 -2.1900 -0.6979 -1.5293
  276MOL0     H37225   5.599   7.779   1.809  0.8339 -0.0327  1.4053
  276MOL0     H37226   5.767   7.663   1.421  0.8561 -0.8293  3.0546
  276MOL0     H37227   5.591   7.620   1.399 -0.6276 -1.0758  0.6792
  276MOL0     H37228   5.724   7.892   1.455  0.2119  0.3249  1.1522
  276MOL0     H37229   5.657   7.833   1.295  2.4534  0.6226 -0.1883
  276MOL0     H37230   5.506   7.894   1.556 -1.0412  0.4504 -0.2449
  276MOL0     H37231   5.418   7.814   1.422 -0.1931  1.0205 -0.6107
  276MOL0     H37232   5.570   8.094   1.401  1.0781  0.8468 -4.2360
  276MOL0     H37233   5.482   8.008   1.278 -2.5974 -1.4154  1.1826
  276MOL0     H37234   5.353   8.091   1.538  2.3780 -3.6894 -0.3815
  276MOL0     H37235   5.260   8.026   1.411 -2.2177  1.2150  1.0351
  276MOL0     H37236   5.436   8.284   1.392  0.9774 -1.7851 -0.2625
  276MOL0     H37237   5.323   8.246   1.270  0.3187  2.4111  0.5405
  276MOL0     H37238   5.231   8.309   1.551  0.7815  1.5056 -0.6486
  276MOL0     H37239   5.124   8.282   1.396  0.4550 -0.9857 -0.9490
  276MOL0     H37240   5.139   8.525   1.436  0.7739  0.8082  0.0141
  276MOL0     H37241   5.250   8.485   1.310  2.8629  0.2004  0.0871
  276MOL0     H37242   5.925   7.649   1.572  3.2922  1.7807  0.5593
  276MOL0     H37243   6.078   7.719   1.735 -1.4090  0.7951 -4.0654
  276MOL0     H37244   6.074   8.015   2.097  0.9537 -2.0404 -1.2885
  276MOL0     H37245   6.200   8.145   2.268 -1.5708  0.4963 -0.8636
  276MOL0     H37246   7.605   8.786   2.014  2.0864  1.6150 -0.6752
  276MOL0     H37247   7.819   8.890   2.040  0.7421 -0.3576  1.6436
  276MOL0     H37248   8.267   8.824   2.149 -1.2014 -0.5221  0.1818
  276MOL0     H37249   8.472   8.926   2.169 -0.9503 -1.6502 -0.0449
  276MOL0     H37250   8.632   9.159   2.210 -0.3923 -2.0229  0.9667
  276MOL0     H37251   8.672   8.998   2.161 -1.2361  1.4220  1.5917
  276MOL0     H37252   8.873   9.204   2.154 -2.3518 -0.5102  4.2292
  276MOL0     H37253   8.787   9.219   1.997 -0.4277  1.0595  1.2847
  276MOL0     H37254   8.949   9.076   1.931  0.0872  0.9546  0.9174
  276MOL0     H37255   8.806   8.970   1.964  2.3660 -1.0561 -2.7159
  276MOL0     H37256   9.011   8.885   2.021  2.4773 -0.4854  1.9988
  276MOL0     H37257   8.910   8.915   2.167 -1.2530  1.2131  0.0623
  276MOL0     H37258   9.267   9.158   2.199  0.2941 -0.6230  1.0058
  276MOL0     H37259   8.428   9.123   1.793 -0.2204  1.7096  1.6983
  276MOL0     H37260   8.219   9.019   1.758  2.8777  0.1882 -1.6022
  277MOL0     O37261   7.241   4.275   6.717  0.2479  0.4349 -0.2866
  277MOL0     C37262   7.205   4.373   6.787  0.6698  0.4784  0.8334
  277MOL0     O37263   7.082   4.391   6.849  0.0193 -0.4004 -0.4111
  277MOL0     C37264   7.003   4.282   6.863  0.0576  0.0842 -0.0740
  277MOL0     C37265   6.906   4.256   6.757 -0.6408 -0.4313  0.2533
  277MOL0     C37266   6.833   4.144   6.764  0.7700 -0.3630 -0.1347
  277MOL0     C37267   6.835   4.064   6.878  0.6651 -0.4659  0.3584
  277MOL0     O37268   6.744   3.966   6.873  0.5440 -0.2215  0.0249
  277MOL0     C37269   6.743   3.882   6.989  0.5129  0.4456 -1.6218
  277MOL0     C37270   6.615   3.792   6.979 -0.5711 -0.4507  0.8230
  277MOL0     C37271   6.611   3.708   7.109 -0.0254 -0.1043 -0.1767
  277MOL0     C37272   6.704   3.581   7.109 -0.3869 -1.0120  0.2524
  277MOL0     C37273   6.688   3.501   6.982 -0.7714 -0.9771  1.0072
  277MOL0     C37274   6.725   3.359   7.011  0.5833 -1.5338 -0.0965
  277MOL0     C37275   6.631   3.278   6.912 -0.1394 -0.4577 -0.4477
  277MOL0     C37276   6.646   3.126   6.932 -0.2898 -0.6326  0.9121
  277MOL0     N37277   6.775   3.072   6.968  0.2221  0.2249 -0.6564
  277MOL0     C37278   6.888   3.050   6.887  0.1474  0.2087 -0.6621
  277MOL0     C37279   6.978   2.996   6.975 -0.7672 -0.0445  0.2190
  277MOL0     C37280   7.109   2.940   6.931  0.1555 -0.5523  0.4354
  277MOL0     C37281   7.222   3.033   6.939  0.0615 -0.7452  0.2452
  277MOL0     C37282   7.355   2.967   6.879 -0.1516 -0.1556  0.1033
  277MOL0     C37283   7.488   3.027   6.929 -0.5526  0.4444 -0.2037
  277MOL0     O37284   7.521   2.942   7.047  1.0454 -0.1272  0.6037
  277MOL0     C37285   7.608   2.999   7.138  0.6717 -0.1958 -0.5855
  277MOL0     C37286   7.618   2.938   7.262 -0.6822 -0.3800  0.1115
  277MOL0     C37287   7.719   2.970   7.356  0.2250 -1.2319  0.6831
  277MOL0     C37288   7.709   2.885   7.482 -0.5568 -0.3599  0.3893
  277MOL0     C37289   7.809   3.070   7.324  0.5312 -0.0762  0.7803
  277MOL0     C37290   7.926   3.114   7.408  0.3041  0.4323  0.8243
  277MOL0     O37291   7.973   3.238   7.387 -0.1747 -0.0145  0.0111
  277MOL0     C37292   8.103   3.261   7.413  0.2169 -0.7711 -1.0211
  277MOL0     C37293   8.135   3.390   7.459  0.9795 -0.5331  0.9834
  277MOL0     C37294   8.271   3.426   7.492  0.4624 -1.0678  0.2954
  277MOL0     C37295   8.372   3.338   7.474 -0.0975  0.0813  0.2207
  277MOL0     O37296   8.495   3.383   7.507 -0.0773  0.5465  0.3270
  277MOL0     C37297   8.568   3.308   7.603  0.5171  0.0458 -0.5427
  277MOL0     C37298   8.667   3.205   7.541  0.2601  0.5748  0.1463
  277MOL0     C37299   8.766   3.270   7.445  0.2272  0.1312 -0.4763
  277MOL0     C37300   8.862   3.356   7.524  0.0287 -0.4400  0.3313
  277MOL0     C37301   8.968   3.422   7.450 -0.4652 -0.2529 -0.1624
  277MOL0     C37302   9.047   3.340   7.345  0.1211  0.2425  0.4312
  277MOL0     C37303   9.185   3.400   7.305  0.0690 -0.3008  0.5683
  277MOL0     C37304   9.179   3.542   7.241  0.3589 -0.9975 -0.1934
  277MOL0    Cl37305   9.333   3.579   7.179  0.4446 -0.0447  0.5480
  277MOL0     C37306   8.345   3.211   7.416 -0.0348 -0.2721 -0.1201
  277MOL0     C37307   8.212   3.174   7.382  0.6603  0.0506  0.1774
  277MOL0     O37308   7.966   3.032   7.495  0.7403  0.5730  0.1674
  277MOL0     C37309   7.792   3.144   7.204  0.5274  0.1507  0.3528
  277MOL0     C37310   7.689   3.119   7.117  0.3707  0.1394 -0.5508
  277MOL0     N37311   6.917   2.987   7.099  0.4774 -0.0070 -0.3024
  277MOL0     N37312   6.795   3.034   7.098 -0.8797  0.8466 -0.2162
  277MOL0     C37313   6.918   4.100   6.990  1.3665  1.0296 -0.1404
  277MOL0     C37314   7.005   4.204   6.970 -1.0126 -0.3255 -0.6373
  277MOL0     C37315   7.305   4.487   6.805  0.0747 -0.0782  0.8922
  277MOL0     C37316   7.436   4.493   6.748  0.8296  0.2633  0.7854
  277MOL0     C37317   7.521   4.608   6.757  0.0786  1.2469 -0.5329
  277MOL0     C37318   7.477   4.718   6.825  0.1935  0.1457  0.7789
  277MOL0     O37319   7.571   4.823   6.831 -0.9276 -0.1712  0.1131
  277MOL0     C37320   7.560   4.921   6.939 -0.1857 -0.5497 -0.5869
  277MOL0     C37321   7.702   4.961   6.976  0.4418  0.7996  1.0012
  277MOL0     C37322   7.718   5.076   7.079  0.2280  0.3372 -0.3747
  277MOL0     C37323   7.872   5.105   7.085 -0.5143  0.6646 -0.3480
  277MOL0     C37324   7.950   5.008   7.162  0.1264 -1.0201  1.0145
  277MOL0     C37325   8.016   4.922   7.216 -0.4635 -0.2708 -0.0602
  277MOL0     C37326   7.346   4.725   6.878 -0.9856  0.5824  0.4390
  277MOL0     C37327   7.259   4.609   6.869  0.4879  0.9909  0.5154
  277MOL0     H37328   6.877   4.324   6.677 -1.8370  0.8636  1.7453
  277MOL0     H37329   6.773   4.123   6.676  0.7357 -0.6095 -0.0545
  277MOL0     H37330   6.836   3.824   6.987  1.4272  1.8862 -2.1617
  277MOL0     H37331   6.737   3.935   7.085  2.4466 -0.2390 -1.0748
  277MOL0     H37332   6.535   3.866   6.982  0.3675  0.5992  0.6212
  277MOL0     H37333   6.602   3.730   6.889  1.6061 -2.8481  1.9972
  277MOL0     H37334   6.623   3.778   7.192 -0.1455  1.1361 -1.1584
  277MOL0     H37335   6.509   3.669   7.113 -0.3599  0.0614 -3.5861
  277MOL0     H37336   6.808   3.612   7.124 -0.7574  0.5491 -0.2204
  277MOL0     H37337   6.661   3.528   7.195 -1.4286  0.8657  0.9282
  277MOL0     H37338   6.588   3.518   6.941  0.0212  0.0038 -0.5928
  277MOL0     H37339   6.749   3.542   6.901 -0.4334  1.6453  2.4687
  277MOL0     H37340   6.832   3.341   6.998  0.8958 -1.2243  1.7292
  277MOL0     H37341   6.696   3.346   7.116  0.2146  1.5173  0.2897
  277MOL0     H37342   6.528   3.309   6.931 -0.0815 -0.0521 -0.7863
  277MOL0     H37343   6.664   3.303   6.811  1.1469  4.0195  0.8686
  277MOL0     H37344   6.617   3.081   6.836 -2.0096  0.2026  1.0086
  277MOL0     H37345   6.577   3.085   7.006 -0.2478  0.8263  1.7913
  277MOL0     H37346   6.887   3.064   6.779 -0.4699  1.5587 -0.4979
  277MOL0     H37347   7.118   2.846   6.985 -1.9737 -1.9712 -1.4828
  277MOL0     H37348   7.102   2.909   6.826  1.2046  2.4281 -0.6359
  277MOL0     H37349   7.241   3.085   7.033  0.3467 -0.7816  0.2091
  277MOL0     H37350   7.201   3.121   6.877  1.9303  0.4027  1.1519
  277MOL0     H37351   7.355   2.981   6.770 -1.9937 -4.7182 -0.7114
  277MOL0     H37352   7.351   2.858   6.891  1.0097 -0.1039  1.1054
  277MOL0     H37353   7.467   3.132   6.952  1.2839  0.8973 -0.4273
  277MOL0     H37354   7.564   3.020   6.850  1.2523 -0.6612  1.5236
  277MOL0     H37355   7.544   2.859   7.272 -3.7379  2.2332  0.0635
  277MOL0     H37356   7.706   2.930   7.581  0.9726 -0.8929  0.7092
  277MOL0     H37357   7.614   2.831   7.488 -1.4963  0.7618 -2.5421
  277MOL0     H37358   7.792   2.814   7.481 -0.8943 -0.7881 -1.2579
  277MOL0     H37359   8.063   3.463   7.494  2.7152 -0.1710  4.1819
  277MOL0     H37360   8.289   3.527   7.527  2.8002 -0.0028 -3.4066
  277MOL0     H37361   8.602   3.384   7.674 -0.8465 -0.5928  0.8531
  277MOL0     H37362   8.500   3.255   7.670  3.1191 -2.8293  0.0072
  277MOL0     H37363   8.716   3.164   7.629 -0.1829  2.7993  1.5091
  277MOL0     H37364   8.615   3.127   7.485 -0.2418  1.8906 -1.2861
  277MOL0     H37365   8.733   3.330   7.360  0.3674 -1.8227 -1.9805
  277MOL0     H37366   8.808   3.186   7.390 -2.6415 -2.5659  1.1424
  277MOL0     H37367   8.806   3.435   7.575 -1.4738 -0.5512 -1.0640
  277MOL0     H37368   8.914   3.296   7.600  1.4041  0.1960 -0.0658
  277MOL0     H37369   9.028   3.459   7.534 -1.3228  0.0806  0.3175
  277MOL0     H37370   8.938   3.519   7.410  3.0165  1.3354  0.7248
  277MOL0     H37371   9.061   3.235   7.372  0.7698  0.0598 -0.5489
  277MOL0     H37372   8.992   3.345   7.250  1.2019  0.9788 -0.1766
  277MOL0     H37373   9.228   3.327   7.236 -4.7616 -3.7316  0.6475
  277MOL0     H37374   9.252   3.403   7.391  1.8021 -0.3922 -0.7176
  277MOL0     H37375   9.161   3.615   7.320 -3.1929 -2.0364  0.0984
  277MOL0     H37376   9.113   3.556   7.156 -0.6704 -1.4844  0.5124
  277MOL0     H37377   8.420   3.143   7.377 -2.7903 -2.5000 -1.8491
  277MOL0     H37378   8.184   3.080   7.335  1.2555 -0.3995  0.7003
  277MOL0     H37379   7.860   3.224   7.177  0.5547 -0.1889 -0.6145
  277MOL0     H37380   7.683   3.188   7.033 -2.8239  0.7074  0.0105
  277MOL0     H37381   6.932   4.037   7.078  1.1004 -1.7019 -1.9213
  277MOL0     H37382   7.082   4.242   7.036 -1.1355 -0.6975 -0.2756
  277MOL0     H37383   7.477   4.410   6.692 -1.4864  0.2912 -1.1240
  277MOL0     H37384   7.619   4.597   6.713  0.0133 -3.2628 -0.0810
  277MOL0     H37385   7.512   5.013   6.907  0.8037  0.5473  0.9552
  277MOL0     H37386   7.497   4.889   7.022  0.8081 -0.7591  0.1152
  277MOL0     H37387   7.755   4.981   6.883  0.3292 -1.9522  0.2450
  277MOL0     H37388   7.750   4.884   7.037  0.5156  2.9083  3.8398
  277MOL0     H37389   7.679   5.037   7.173  3.0341  1.5765  1.4336
  277MOL0     H37390   7.667   5.169   7.054  0.2532  0.4019 -0.1856
  277MOL0     H37391   7.883   5.205   7.129  4.0586  2.6767 -5.0180
  277MOL0     H37392   7.909   5.104   6.982 -2.4682 -1.0818 -1.0988
  277MOL0     H37393   8.085   4.853   7.262  2.8972  2.5335 -0.4327
  277MOL0     H37394   7.308   4.817   6.921  0.2636  0.7302  1.2966
  277MOL0     H37395   7.165   4.614   6.923 -1.1217  0.6245 -2.1161
  278MOL0     O37396   5.585  10.043   8.875  0.0917 -1.1586 -0.6628
  278MOL0     C37397   5.617  10.155   8.907  0.7617 -0.0665  0.1899
  278MOL0     O37398   5.682  10.255   8.834  0.7126 -0.5929  0.7492
  278MOL0     C37399   5.763  10.207   8.723 -0.1259 -0.2934 -0.2367
  278MOL0     C37400   5.903  10.188   8.767 -0.1420 -0.1301  1.1925
  278MOL0     C37401   6.001  10.157   8.669  0.5659  0.2784 -1.3539
  278MOL0     C37402   5.963  10.136   8.543  0.0686  0.5143  1.0336
  278MOL0     O37403   6.055  10.101   8.453 -0.2862  0.7316  0.7914
  278MOL0     C37404   6.015  10.108   8.314  0.2445 -0.2618  0.1242
  278MOL0     C37405   6.138  10.094   8.221 -0.0548 -0.0618  0.1562
  278MOL0     C37406   6.231  10.221   8.238 -0.3540 -0.9101 -0.1178
  278MOL0     C37407   6.362  10.196   8.167  0.3035 -0.1736  0.7156
  278MOL0     C37408   6.418  10.336   8.147  1.0249  0.4094 -0.3141
  278MOL0     C37409   6.543  10.348   8.065 -0.4840 -0.3969 -0.1545
  278MOL0     C37410   6.530  10.274   7.941 -0.0248  0.1805  0.1373
  278MOL0     C37411   6.658  10.308   7.857 -0.2515 -0.9544 -0.8577
  278MOL0     N37412   6.666  10.242   7.728  0.5706 -0.5898  0.0264
  278MOL0     C37413   6.759  10.143   7.699  0.2848 -0.2147  0.8797
  278MOL0     C37414   6.718  10.105   7.572 -0.3371  0.2541  1.2094
  278MOL0     C37415   6.795  10.010   7.482  0.0468 -0.6634  0.4216
  278MOL0     C37416   6.933   9.980   7.531 -0.0054 -0.1852  0.0228
  278MOL0     C37417   7.023   9.944   7.415  0.2736  1.0373  0.1726
  278MOL0     C37418   7.042   9.790   7.384  0.1703  0.6986 -0.0311
  278MOL0     O37419   6.919   9.721   7.346 -0.0886 -0.1257 -0.1426
  278MOL0     C37420   6.830   9.771   7.250 -1.2318  0.3803  0.7248
  278MOL0     C37421   6.873   9.848   7.141 -0.1509 -0.2077  0.6114
  278MOL0     C37422   6.788   9.925   7.060 -1.1898 -0.2369 -0.7141
  278MOL0     C37423   6.846  10.019   6.957 -0.2705 -0.2299 -0.4637
  278MOL0     C37424   6.649   9.907   7.084 -0.8163 -0.1620 -0.8388
  278MOL0     C37425   6.549   9.991   7.003 -1.1388 -0.0623 -0.6265
  278MOL0     O37426   6.570  10.016   6.872  0.7861 -0.4860  0.3869
  278MOL0     C37427   6.482  10.103   6.812  0.6751  0.3168 -0.2187
  278MOL0     C37428   6.466  10.233   6.862  0.2305 -0.2976 -0.2756
  278MOL0     C37429   6.369  10.314   6.804 -0.0389  0.8078  0.4653
  278MOL0     C37430   6.298  10.275   6.691  1.2650 -0.3934  1.6497
  278MOL0     O37431   6.201  10.370   6.648  0.0666 -0.0233  0.0415
  278MOL0     C37432   6.102  10.322   6.556 -0.5380  0.2154  0.0715
  278MOL0     C37433   5.974  10.410   6.569 -0.7547 -0.9442 -0.1158
  278MOL0     C37434   5.830  10.333   6.567 -0.7644 -0.7682  0.0949
  278MOL0     C37435   5.717  10.436   6.561  1.2534  0.6620 -0.0816
  278MOL0     C37436   5.644  10.443   6.697  0.6942  0.6901  0.2994
  278MOL0     C37437   5.520  10.541   6.698 -0.9678  0.7515 -1.2467
  278MOL0     C37438   5.489  10.575   6.848  0.2018 -0.9538 -0.2100
  278MOL0     C37439   5.342  10.632   6.854  0.1405  0.0634 -0.8865
  278MOL0    Cl37440   5.302  10.674   7.027 -0.3197  0.9023 -0.1107
  278MOL0     C37441   6.325  10.147   6.636  0.0119 -0.1220 -0.3812
  278MOL0     C37442   6.418  10.061   6.694 -0.2797  1.0331 -0.5275
  278MOL0     O37443   6.457  10.029   7.064  0.3544  0.2394 -1.1458
  278MOL0     C37444   6.600   9.823   7.179 -0.2025  0.1564 -0.1939
  278MOL0     C37445   6.688   9.761   7.269  0.6649 -0.7652  1.6431
  278MOL0     N37446   6.603  10.170   7.531  0.0682 -0.8051  0.1179
  278MOL0     N37447   6.575  10.262   7.622  0.5521  0.9853  0.1396
  278MOL0     C37448   5.825  10.125   8.508  0.4977 -0.4425 -0.2412
  278MOL0     C37449   5.730  10.173   8.593  0.1186  0.1168 -0.3871
  278MOL0     C37450   5.581  10.179   9.050 -0.8530 -0.8401  0.4280
  278MOL0     C37451   5.591  10.083   9.148 -0.0535 -0.0510  0.5736
  278MOL0     C37452   5.546  10.117   9.273 -0.3343 -0.1659  1.1239
  278MOL0     C37453   5.494  10.238   9.304  0.7027 -0.0656 -0.3837
  278MOL0     O37454   5.462  10.288   9.434 -0.5960  0.2128  0.1252
  278MOL0     C37455   5.426  10.195   9.550  0.5115  0.7984 -0.9740
  278MOL0     C37456   5.544  10.176   9.645 -0.0405 -0.0626 -0.5654
  278MOL0     C37457   5.513  10.114   9.782 -0.8255  0.2478  0.5575
  278MOL0     C37458   5.642  10.038   9.831  0.2780 -0.7613  0.7134
  278MOL0     C37459   5.662   9.911   9.768  0.4219 -1.6599 -1.0751
  278MOL0     C37460   5.686   9.806   9.716 -0.7774 -0.1824 -0.2207
  278MOL0     C37461   5.486  10.338   9.202 -0.7218  0.6928  0.2441
  278MOL0     C37462   5.528  10.303   9.067 -0.4271  0.3455 -1.8378
  278MOL0     H37463   5.931  10.210   8.870  2.9759 -3.6936  1.3114
  278MOL0     H37464   6.105  10.156   8.699  1.0412 -0.7411 -2.9396
  278MOL0     H37465   5.949  10.028   8.277 -1.2357  1.9813 -2.4738
  278MOL0     H37466   5.976  10.206   8.288 -2.7205 -1.1708  0.7418
  278MOL0     H37467   6.199  10.012   8.261 -2.7460 -1.5661  1.4369
  278MOL0     H37468   6.111  10.082   8.116 -0.6325  2.6162 -0.0690
  278MOL0     H37469   6.178  10.311   8.207  2.7257  1.4085  0.7999
  278MOL0     H37470   6.252  10.233   8.345  1.9312  2.5653 -0.7710
  278MOL0     H37471   6.430  10.142   8.233  0.2878 -0.7449  0.2771
  278MOL0     H37472   6.334  10.144   8.075 -2.6527  2.6725 -0.1896
  278MOL0     H37473   6.336  10.403   8.116 -0.0026 -1.3223 -1.4934
  278MOL0     H37474   6.441  10.364   8.250  2.9352 -3.5038  0.4915
  278MOL0     H37475   6.565  10.452   8.041 -1.2102 -1.0915 -4.7895
  278MOL0     H37476   6.623  10.319   8.134 -1.4471 -0.2633  1.0572
  278MOL0     H37477   6.523  10.165   7.951  0.4315  0.2135  0.9225
  278MOL0     H37478   6.447  10.308   7.879  1.1617  2.7471 -0.1836
  278MOL0     H37479   6.744  10.277   7.916  0.7743 -3.1545 -3.3083
  278MOL0     H37480   6.669  10.414   7.829  1.5750 -0.6781  0.7129
  278MOL0     H37481   6.847  10.115   7.754  0.7170 -0.3017  0.1562
  278MOL0     H37482   6.734   9.920   7.473 -0.3328 -0.3683  0.0337
  278MOL0     H37483   6.793  10.056   7.383 -0.5960  0.3702  0.9041
  278MOL0     H37484   6.923   9.889   7.591  3.6448 -2.9745 -3.0371
  278MOL0     H37485   6.977  10.067   7.580 -0.9262  0.3615 -0.1024
  278MOL0     H37486   7.121   9.978   7.452  0.4723 -1.5859  2.3510
  278MOL0     H37487   6.996  10.001   7.326 -1.3769  0.2994  0.1644
  278MOL0     H37488   7.070   9.738   7.475  0.0629  2.6197  1.1571
  278MOL0     H37489   7.115   9.768   7.305 -0.2879  3.8204 -1.5006
  278MOL0     H37490   6.977   9.875   7.126  0.5033 -0.3275  4.0844
  278MOL0     H37491   6.793  10.113   6.978  2.1699  0.7376  2.1631
  278MOL0     H37492   6.954  10.020   6.976 -0.1599  0.6021 -1.0784
  278MOL0     H37493   6.831   9.974   6.859 -0.8644 -2.1656  0.4680
  278MOL0     H37494   6.503  10.270   6.957 -2.5177 -0.9362  1.1592
  278MOL0     H37495   6.359  10.414   6.843  1.0066  0.4116  1.8304
  278MOL0     H37496   6.153  10.326   6.460 -0.9269 -0.3333 -0.1667
  278MOL0     H37497   6.063  10.220   6.567 -0.1045  0.0679  0.2541
  278MOL0     H37498   5.979  10.467   6.662 -1.1067  0.4167 -0.9042
  278MOL0     H37499   5.971  10.465   6.475 -1.6961 -1.4613 -0.3946
  278MOL0     H37500   5.819  10.264   6.652 -0.7599  0.4072  1.0667
  278MOL0     H37501   5.824  10.273   6.476 -0.9718  0.3846 -0.6709
  278MOL0     H37502   5.757  10.536   6.542  3.9398  0.1181  2.1366
  278MOL0     H37503   5.641  10.422   6.484 -0.0584  0.9691  1.1255
  278MOL0     H37504   5.714  10.474   6.775 -2.0524  3.7187  1.7863
  278MOL0     H37505   5.619  10.338   6.714  1.4217 -0.0503 -2.5427
  278MOL0     H37506   5.552  10.627   6.639 -1.3336 -1.6243 -5.2434
  278MOL0     H37507   5.431  10.505   6.646 -0.3738  1.1370 -2.5768
  278MOL0     H37508   5.569  10.638   6.889 -2.1007  0.9681  1.5754
  278MOL0     H37509   5.494  10.480   6.902 -1.8691 -1.2883 -0.5402
  278MOL0     H37510   5.285  10.550   6.810  2.2049 -0.0108 -3.7419
  278MOL0     H37511   5.320  10.722   6.795 -0.9250  1.2681  1.2511
  278MOL0     H37512   6.277  10.117   6.543 -1.2124  2.6936 -0.7706
  278MOL0     H37513   6.452   9.968   6.648  3.1666  2.4336 -1.1210
  278MOL0     H37514   6.493   9.811   7.189 -0.0944  0.0379  1.0653
  278MOL0     H37515   6.648   9.700   7.349  0.3190  0.4831  2.4596
  278MOL0     H37516   5.807  10.097   8.405 -1.9138  3.3151 -1.0233
  278MOL0     H37517   5.626  10.169   8.561 -0.2244 -2.7419  0.7500
  278MOL0     H37518   5.603   9.980   9.117 -1.6534 -0.1617  0.2284
  278MOL0     H37519   5.536  10.041   9.350 -0.5676 -1.7879 -0.4338
  278MOL0     H37520   5.352  10.250   9.609  0.5004  1.1358 -1.3042
  278MOL0     H37521   5.386  10.098   9.519 -3.9412  1.7520  1.0062
  278MOL0     H37522   5.576  10.279   9.664 -0.5423  0.0769 -0.4737
  278MOL0     H37523   5.629  10.126   9.597  0.6957  0.3523  0.2740
  278MOL0     H37524   5.423  10.052   9.781 -0.9812  0.3448  3.1338
  278MOL0     H37525   5.496  10.198   9.851 -2.8610 -0.0118  0.4533
  278MOL0     H37526   5.629  10.024   9.939  0.8907 -0.7427  0.7948
  278MOL0     H37527   5.728  10.103   9.814  0.9721 -1.1822  2.3467
  278MOL0     H37528   5.689   9.706   9.679 -1.0856 -0.7498  1.2282
  278MOL0     H37529   5.464  10.441   9.226  0.1356  0.4413  2.3387
  278MOL0     H37530   5.527  10.362   8.976 -2.9304  3.1382 -0.1579
  279MOL0     O37531   9.978   1.036   8.481  0.1160 -0.0383 -0.5397
  279MOL0     C37532   9.965   1.053   8.607 -0.6553 -0.6117  0.7493
  279MOL0     O37533   9.913   0.963   8.701  0.6332  0.7452 -0.0482
  279MOL0     C37534   9.820   0.869   8.662  0.1297 -0.4923  0.2370
  279MOL0     C37535   9.784   0.774   8.767  0.2178  0.3428 -0.8948
  279MOL0     C37536   9.699   0.672   8.744 -0.0703  0.7345  0.6683
  279MOL0     C37537   9.634   0.658   8.621  0.6431 -0.4783 -0.5020
  279MOL0     O37538   9.562   0.542   8.609 -0.7579  0.2352  0.1392
  279MOL0     C37539   9.502   0.504   8.482  0.0133  0.6954  0.5811
  279MOL0     C37540   9.403   0.402   8.501  0.8990  0.9013  0.0511
  279MOL0     C37541   9.317   0.403   8.629 -0.2959  0.4379 -0.0214
  279MOL0     C37542   9.235   0.537   8.637 -1.0781 -0.5323 -0.7593
  279MOL0     C37543   9.106   0.524   8.715  0.4163 -1.2041 -0.3235
  279MOL0     C37544   9.137   0.501   8.863 -0.2462 -0.5055 -0.1471
  279MOL0     C37545   9.005   0.511   8.959  0.0701 -0.0947  1.1444
  279MOL0     C37546   9.010   0.639   9.045 -0.1277 -0.1580  0.3954
  279MOL0     N37547   8.992   0.766   8.978 -0.2154 -0.1603  0.4507
  279MOL0     C37548   8.882   0.820   8.910  0.3348 -0.0603  0.2306
  279MOL0     C37549   8.914   0.942   8.862 -0.0767 -0.4444 -0.3605
  279MOL0     C37550   8.832   1.040   8.781  0.4476  0.9639 -0.1269
  279MOL0     C37551   8.769   0.959   8.659 -0.2596 -0.6070 -0.6306
  279MOL0     C37552   8.651   1.050   8.606 -1.0174  0.9582  0.3084
  279MOL0     C37553   8.575   0.963   8.503  0.6978 -0.5604 -0.4498
  279MOL0     O37554   8.655   0.946   8.382  0.4044 -0.5236 -0.4975
  279MOL0     C37555   8.594   0.874   8.282  0.9096  0.9160  0.7836
  279MOL0     C37556   8.648   0.868   8.164  0.3267  0.1494 -0.0763
  279MOL0     C37557   8.592   0.828   8.038  0.1724  0.2205 -0.4382
  279MOL0     C37558   8.664   0.861   7.914 -0.1280 -0.4089 -0.4518
  279MOL0     C37559   8.472   0.764   8.041  0.5635 -0.5051  0.2671
  279MOL0     C37560   8.409   0.687   7.919  0.1979 -0.0149  0.3081
  279MOL0     O37561   8.290   0.628   7.950  0.4304  0.0317 -1.1295
  279MOL0     C37562   8.252   0.514   7.892  0.3496  0.4775 -0.3484
  279MOL0     C37563   8.216   0.521   7.757  0.4533 -0.2905  0.8088
  279MOL0     C37564   8.162   0.415   7.689 -0.6505 -0.4885  1.5673
  279MOL0     C37565   8.154   0.293   7.751 -0.2659  0.8545  0.9216
  279MOL0     O37566   8.112   0.181   7.686  0.4667 -0.3710 -0.1497
  279MOL0     C37567   8.212   0.110   7.608 -0.3306 -0.0388  0.0761
  279MOL0     C37568   8.203  -0.043   7.626 -0.3530  0.6553 -0.1356
  279MOL0     C37569   8.074  -0.103   7.557 -0.1548  0.1532 -0.8186
  279MOL0     C37570   8.036  -0.243   7.611  0.7368  0.5545  0.8037
  279MOL0     C37571   7.929  -0.298   7.527 -0.0789  0.4076  0.6089
  279MOL0     C37572   7.945  -0.452   7.513 -0.1808 -0.1533 -0.2975
  279MOL0     C37573   7.835  -0.507   7.423 -0.5023 -0.2128  0.1590
  279MOL0     C37574   7.852  -0.616   7.315  0.6702 -0.2318 -0.8562
  279MOL0    Cl37575   7.927  -0.759   7.395  0.2828  0.0295 -0.5110
  279MOL0     C37576   8.203   0.279   7.881  1.0332 -0.3003 -0.7796
  279MOL0     C37577   8.250   0.388   7.954  0.2856 -0.7869 -0.7015
  279MOL0     O37578   8.453   0.690   7.805 -0.3809 -0.1282  0.0418
  279MOL0     C37579   8.411   0.756   8.170  0.9715 -0.5560 -0.1609
  279MOL0     C37580   8.474   0.813   8.289  0.9282  1.0780 -0.1685
  279MOL0     N37581   9.042   0.966   8.906 -0.3535 -0.5162  0.0905
  279MOL0     N37582   9.092   0.861   8.973  0.1425 -0.4882 -0.5884
  279MOL0     C37583   9.663   0.748   8.525 -0.0996  0.5071  0.1086
  279MOL0     C37584   9.755   0.855   8.542  1.2809  0.4536  1.3475
  279MOL0     C37585  10.002   1.188   8.650 -0.2669 -0.2885 -0.2551
  279MOL0     C37586  10.089   1.269   8.576  0.9449 -0.3626  1.4603
  279MOL0     C37587  10.113   1.394   8.630 -0.3879 -0.2478 -0.2903
  279MOL0     C37588  10.073   1.437   8.754  0.5897 -0.1983 -0.5220
  279MOL0     O37589  10.122   1.555   8.799 -0.8122  1.1291 -0.7689
  279MOL0     C37590  10.185   1.572   8.929  0.3766 -0.1447  0.1524
  279MOL0     C37591  10.328   1.518   8.935 -1.1884 -0.3563  0.0904
  279MOL0     C37592  10.426   1.558   8.811  1.2534  0.3933  0.5910
  279MOL0     C37593  10.452   1.708   8.789  0.0089  0.2172  0.5575
  279MOL0     C37594  10.561   1.754   8.876 -0.3677 -0.8910  0.8862
  279MOL0     C37595  10.654   1.802   8.937  0.2693  0.1952  0.2926
  279MOL0     C37596  10.000   1.345   8.832 -0.0822  0.6626  0.5424
  279MOL0     C37597   9.961   1.227   8.775  0.3615 -0.9235 -0.6427
  279MOL0     H37598   9.841   0.770   8.859 -0.5855 -0.9834 -0.4263
  279MOL0     H37599   9.672   0.586   8.806 -0.0505 -0.7735 -1.3221
  279MOL0     H37600   9.441   0.581   8.433 -2.0331  0.1380  2.1082
  279MOL0     H37601   9.583   0.474   8.416  0.2275 -2.0646  1.9419
  279MOL0     H37602   9.349   0.408   8.406  0.7347  0.1850  0.0947
  279MOL0     H37603   9.459   0.308   8.497 -0.7001 -0.0509 -1.1206
  279MOL0     H37604   9.245   0.321   8.617  1.0839 -0.8719  0.3729
  279MOL0     H37605   9.375   0.384   8.719 -1.7929  1.4674  1.2166
  279MOL0     H37606   9.287   0.608   8.701  0.9651 -3.5575  1.1864
  279MOL0     H37607   9.215   0.572   8.535  2.1149  1.7885 -0.7376
  279MOL0     H37608   9.063   0.624   8.713  0.3294 -1.1235  2.4722
  279MOL0     H37609   9.041   0.450   8.668  1.1967 -1.5584 -0.8724
  279MOL0     H37610   9.175   0.400   8.881 -2.9075 -1.6188 -0.2711
  279MOL0     H37611   9.198   0.586   8.894  0.0979 -1.0506  0.7025
  279MOL0     H37612   8.911   0.494   8.907  1.6331 -3.1562 -0.9862
  279MOL0     H37613   9.020   0.435   9.036 -0.7277  1.9598  3.4861
  279MOL0     H37614   9.108   0.628   9.091 -1.1132  0.1876  2.7511
  279MOL0     H37615   8.929   0.634   9.119  1.1122  0.2081  1.8293
  279MOL0     H37616   8.790   0.770   8.881  0.0916  0.0843  0.7442
  279MOL0     H37617   8.761   1.085   8.850 -1.4390  1.2342 -2.1482
  279MOL0     H37618   8.894   1.121   8.740 -0.2184  0.0296 -3.2449
  279MOL0     H37619   8.724   0.862   8.686 -2.3036  0.0109 -1.6400
  279MOL0     H37620   8.832   0.955   8.570 -1.5622  1.0824 -1.6990
  279MOL0     H37621   8.696   1.130   8.547 -0.9880  1.0591  0.4688
  279MOL0     H37622   8.584   1.080   8.686 -2.6873 -0.9633 -0.2755
  279MOL0     H37623   8.489   1.028   8.482  1.0571 -0.3944 -1.4695
  279MOL0     H37624   8.540   0.867   8.541 -0.5303  0.1898  0.3882
  279MOL0     H37625   8.745   0.916   8.165 -0.8656  2.7638 -0.5920
  279MOL0     H37626   8.602   0.922   7.848  4.5716  4.4512 -1.1012
  279MOL0     H37627   8.752   0.925   7.927 -1.0335  0.9031 -0.5994
  279MOL0     H37628   8.699   0.778   7.852  1.1352 -0.1285 -0.1408
  279MOL0     H37629   8.237   0.612   7.702  3.2400 -1.7079 -0.6806
  279MOL0     H37630   8.122   0.424   7.588  0.2688  4.3312  1.3852
  279MOL0     H37631   8.202   0.129   7.501 -0.5711  0.1745  0.1367
  279MOL0     H37632   8.314   0.144   7.629 -0.3900 -0.7196  1.5774
  279MOL0     H37633   8.292  -0.096   7.591 -0.0796  1.6205 -0.9698
  279MOL0     H37634   8.195  -0.063   7.733 -2.3316  0.9964 -0.1875
  279MOL0     H37635   8.098  -0.098   7.450  1.8694  2.5158 -0.3654
  279MOL0     H37636   7.985  -0.040   7.567 -1.0174 -0.9728 -1.1591
  279MOL0     H37637   8.121  -0.313   7.611 -1.7036 -2.6741 -0.2509
  279MOL0     H37638   8.015  -0.238   7.718  1.2414  0.3487  0.9176
  279MOL0     H37639   7.926  -0.253   7.427 -0.1418  0.3209  0.5719
  279MOL0     H37640   7.832  -0.280   7.574  0.0143 -1.1570  1.4713
  279MOL0     H37641   8.044  -0.488   7.482 -0.1808 -4.4308  3.4338
  279MOL0     H37642   7.929  -0.504   7.608  0.2340 -1.8194 -1.0994
  279MOL0     H37643   7.796  -0.422   7.366 -2.4030 -0.8153  0.4903
  279MOL0     H37644   7.754  -0.533   7.492 -1.4857  7.1905  2.7244
  279MOL0     H37645   7.911  -0.583   7.229  0.9109 -0.8126 -0.9224
  279MOL0     H37646   7.755  -0.641   7.272 -0.0804 -1.4385  1.4062
  279MOL0     H37647   8.205   0.185   7.935 -1.7235  1.5464  2.9603
  279MOL0     H37648   8.278   0.376   8.058  0.5018 -1.8236 -0.8654
  279MOL0     H37649   8.310   0.719   8.189 -0.1252  1.8696 -0.8202
  279MOL0     H37650   8.408   0.802   8.374 -1.0341  0.0651 -1.7228
  279MOL0     H37651   9.623   0.735   8.425 -0.9234 -1.7456  0.6740
  279MOL0     H37652   9.777   0.931   8.468 -1.0543  0.7993  0.9272
  279MOL0     H37653  10.126   1.236   8.479  2.8762  1.0159  1.6745
  279MOL0     H37654  10.187   1.459   8.584 -0.8352  1.5113  1.3480
  279MOL0     H37655  10.183   1.680   8.948 -1.9683 -0.1249  0.1787
  279MOL0     H37656  10.131   1.519   9.009  1.4545  0.5928  1.4037
  279MOL0     H37657  10.316   1.410   8.941 -1.1733 -0.2925  2.1372
  279MOL0     H37658  10.368   1.557   9.029 -2.6421  2.5008 -0.3429
  279MOL0     H37659  10.376   1.517   8.723 -0.0221  1.9265  0.5460
  279MOL0     H37660  10.520   1.503   8.816  0.1058 -2.4784 -3.6379
  279MOL0     H37661  10.363   1.772   8.796 -0.8251 -0.9397  1.0123
  279MOL0     H37662  10.479   1.707   8.683  5.7914 -0.3213  1.7529
  279MOL0     H37663  10.733   1.848   8.991  1.9101 -1.3730 -0.6678
  279MOL0     H37664   9.943   1.384   8.917  0.2249  3.8731 -0.5688
  279MOL0     H37665   9.904   1.153   8.829 -1.2342  0.5753 -0.1766
  280MOL0     O37666   6.716  10.551   8.811 -0.1595 -0.6192 -0.6311
  280MOL0     C37667   6.752  10.646   8.748 -0.4833 -1.1883 -0.3136
  280MOL0     O37668   6.869  10.668   8.687 -0.3637 -0.6363  0.3300
  280MOL0     C37669   6.982  10.598   8.697 -0.0474 -0.5193 -0.0047
  280MOL0     C37670   7.019  10.499   8.792  0.1434  0.3605  0.0753
  280MOL0     C37671   7.149  10.445   8.801 -0.6508  0.3445 -0.4157
  280MOL0     C37672   7.244  10.506   8.723 -0.4033  0.9683 -0.9059
  280MOL0     O37673   7.379  10.473   8.727  0.0899  0.5515  0.1758
  280MOL0     C37674   7.427  10.399   8.839  0.0136  1.3796  0.4403
  280MOL0     C37675   7.582  10.403   8.839  0.1380 -1.3306 -0.7461
  280MOL0     C37676   7.638  10.271   8.890 -0.4884 -0.0209 -0.1974
  280MOL0     C37677   7.788  10.284   8.920  0.4769  0.0765 -0.6629
  280MOL0     C37678   7.866  10.329   8.793  0.3199 -0.1152 -0.3503
  280MOL0     C37679   8.017  10.301   8.831  1.1029 -0.7922 -0.4976
  280MOL0     C37680   8.109  10.335   8.719  0.2869  0.0110 -0.2704
  280MOL0     C37681   8.078  10.274   8.580 -0.5627  0.9490 -0.6746
  280MOL0     N37682   8.077  10.130   8.587 -0.1785 -0.6447  0.6637
  280MOL0     C37683   8.186  10.056   8.560 -0.2773  1.3604  0.1092
  280MOL0     C37684   8.137   9.929   8.559  0.2387 -0.5178  0.1406
  280MOL0     C37685   8.211   9.801   8.518  0.0502  0.4006  0.0501
  280MOL0     C37686   8.345   9.800   8.585 -0.2817  0.3966  0.3289
  280MOL0     C37687   8.431   9.677   8.574  0.0674  0.2526 -0.5540
  280MOL0     C37688   8.484   9.657   8.434 -0.3008  0.2208  0.7410
  280MOL0     O37689   8.575   9.766   8.389  0.1626  0.1832 -0.6061
  280MOL0     C37690   8.635   9.733   8.275  0.0008  0.0284  0.0819
  280MOL0     C37691   8.579   9.656   8.171  0.8880 -1.0215  0.4499
  280MOL0     C37692   8.649   9.630   8.051  0.5479 -0.7245 -0.1660
  280MOL0     C37693   8.578   9.536   7.953  0.0319 -1.3694  0.4057
  280MOL0     C37694   8.774   9.698   8.031 -0.3127  0.2349 -0.2207
  280MOL0     C37695   8.863   9.686   7.905  0.0434  0.6295 -0.1237
  280MOL0     O37696   8.832   9.585   7.822 -0.4378 -0.1415 -0.8725
  280MOL0     C37697   8.897   9.557   7.706 -0.5887  0.9743  1.0501
  280MOL0     C37698   8.829   9.483   7.611  0.4814  0.2544  0.0937
  280MOL0     C37699   8.901   9.410   7.516  0.5383 -0.9024  0.6668
  280MOL0     C37700   9.039   9.438   7.488  0.4770  0.6287 -0.0776
  280MOL0     O37701   9.111   9.377   7.392 -0.1799 -0.8354  0.0602
  280MOL0     C37702   9.045   9.298   7.287 -0.3144  0.5467  0.0972
  280MOL0     C37703   9.156   9.230   7.210  0.4367 -0.7578  0.1053
  280MOL0     C37704   9.122   9.154   7.080 -0.2253 -0.5372 -0.6753
  280MOL0     C37705   9.244   9.089   7.019 -0.3474  0.1642 -0.8881
  280MOL0     C37706   9.205   8.991   6.902 -0.9746  0.1019  0.3032
  280MOL0     C37707   9.115   8.868   6.951 -0.1587  0.3700  0.2114
  280MOL0     C37708   9.092   8.778   6.831 -0.2163 -0.3302  0.0785
  280MOL0     C37709   9.217   8.680   6.797  0.4274  0.2476 -0.6090
  280MOL0    Cl37710   9.225   8.565   6.931  0.3477  0.4322 -0.0409
  280MOL0     C37711   9.104   9.535   7.563  1.0589  0.3169  1.1278
  280MOL0     C37712   9.034   9.589   7.674  0.3444  0.3033  0.9897
  280MOL0     O37713   8.961   9.761   7.897 -1.2289  0.0862 -0.0230
  280MOL0     C37714   8.822   9.787   8.131  0.1671  0.0500 -0.0200
  280MOL0     C37715   8.763   9.791   8.256  0.1219  0.0118 -1.0661
  280MOL0     N37716   8.002   9.928   8.597 -0.2378  0.4194  0.0915
  280MOL0     N37717   7.969  10.053   8.609 -0.0624  0.1577  0.1752
  280MOL0     C37718   7.216  10.611   8.638  0.2873  0.5255  0.4984
  280MOL0     C37719   7.081  10.659   8.617  0.2409 -0.8330 -0.0961
  280MOL0     C37720   6.654  10.758   8.739 -0.3616 -0.0270  0.4219
  280MOL0     C37721   6.535  10.748   8.802  0.1712  0.1395  0.2182
  280MOL0     C37722   6.438  10.844   8.794 -0.2092 -0.6472  0.0595
  280MOL0     C37723   6.472  10.972   8.739  1.0598  0.9153  0.5121
  280MOL0     O37724   6.383  11.080   8.741 -0.0221  0.4677  0.8222
  280MOL0     C37725   6.331  11.105   8.879 -0.0847 -0.5812 -0.2863
  280MOL0     C37726   6.180  11.134   8.879  0.1643  0.6614 -1.2083
  280MOL0     C37727   6.105  11.032   8.804  0.2866  0.4998 -1.2470
  280MOL0     C37728   5.962  11.047   8.868  0.8847  0.1315  0.5908
  280MOL0     C37729   5.873  10.970   8.783  0.3357 -0.4222 -0.4064
  280MOL0     C37730   5.791  10.905   8.721 -0.5260 -0.5671 -0.1113
  280MOL0     C37731   6.602  10.992   8.686  0.5675 -0.5234 -0.1370
  280MOL0     C37732   6.686  10.881   8.686  0.2038 -0.2821 -0.7993
  280MOL0     H37733   6.946  10.462   8.863  0.4526 -0.2451  0.0782
  280MOL0     H37734   7.176  10.359   8.861 -0.5775 -0.7057 -1.9138
  280MOL0     H37735   7.383  10.430   8.935 -1.7234  1.7442 -0.4387
  280MOL0     H37736   7.406  10.293   8.824  1.7283  1.1054 -0.2812
  280MOL0     H37737   7.624  10.426   8.740 -1.2093  2.5262 -0.5948
  280MOL0     H37738   7.600  10.473   8.921 -1.7376 -2.5658  0.7897
  280MOL0     H37739   7.595  10.229   8.982 -0.3411  0.4593  0.0939
  280MOL0     H37740   7.623  10.194   8.813 -1.2983 -1.4210  1.2910
  280MOL0     H37741   7.811  10.361   8.994  2.0659 -0.0513 -0.9792
  280MOL0     H37742   7.828  10.190   8.961 -0.5791 -0.0672  0.0766
  280MOL0     H37743   7.834  10.267   8.709  3.1704  0.8879 -2.3530
  280MOL0     H37744   7.849  10.433   8.762  0.2603 -0.3692 -1.1895
  280MOL0     H37745   8.042  10.363   8.918 -0.7201  0.3398 -0.7283
  280MOL0     H37746   8.021  10.195   8.859  1.9485 -0.0188  2.7912
  280MOL0     H37747   8.105  10.444   8.717  0.8588  0.0297 -1.2906
  280MOL0     H37748   8.210  10.299   8.740 -0.7347 -3.1865 -0.2627
  280MOL0     H37749   8.158  10.294   8.508  0.6959  0.7299  0.6156
  280MOL0     H37750   7.979  10.305   8.546  0.5610  1.0428 -4.2297
  280MOL0     H37751   8.286  10.096   8.548  0.2336  0.1867  0.3216
  280MOL0     H37752   8.154   9.711   8.544  1.1413 -0.5017 -0.6178
  280MOL0     H37753   8.207   9.796   8.409  1.2986  3.5920 -0.2610
  280MOL0     H37754   8.330   9.814   8.692  0.8585 -1.0993  0.7147
  280MOL0     H37755   8.390   9.893   8.549 -5.1286  1.2598 -5.0172
  280MOL0     H37756   8.366   9.594   8.602 -1.0866  1.1002 -0.6072
  280MOL0     H37757   8.514   9.664   8.643 -1.0150 -0.9103  0.5742
  280MOL0     H37758   8.407   9.639   8.359  0.3117 -4.5403  0.9110
  280MOL0     H37759   8.521   9.554   8.432 -2.6140 -0.7142 -3.1276
  280MOL0     H37760   8.484   9.605   8.166  1.5085 -2.1510 -0.5135
  280MOL0     H37761   8.472   9.525   7.979 -0.2569 -0.8001 -0.4862
  280MOL0     H37762   8.586   9.577   7.853 -7.1147 -0.0603 -0.1643
  280MOL0     H37763   8.618   9.435   7.963  0.3962 -1.3457 -0.7759
  280MOL0     H37764   8.728   9.467   7.648  0.3407  0.5789 -0.1519
  280MOL0     H37765   8.845   9.335   7.460 -0.5979 -1.2000  2.1341
  280MOL0     H37766   8.987   9.211   7.322 -0.1587 -0.0378 -1.0621
  280MOL0     H37767   8.980   9.361   7.226 -3.2300 -1.0205  1.3737
  280MOL0     H37768   9.226   9.311   7.186 -0.2515 -0.5126 -1.2275
  280MOL0     H37769   9.215   9.163   7.273  0.0469 -0.8745  0.3493
  280MOL0     H37770   9.073   9.225   7.013  1.4413  1.0309 -0.3250
  280MOL0     H37771   9.050   9.077   7.108 -0.3720  0.2022  1.1578
  280MOL0     H37772   9.313   9.172   6.998  0.4960 -0.6285 -1.3282
  280MOL0     H37773   9.306   9.029   7.086 -0.0511 -1.8214 -2.8165
  280MOL0     H37774   9.292   8.950   6.849 -1.3677  0.1080 -0.3514
  280MOL0     H37775   9.153   9.059   6.834  1.6430  1.0932 -0.8691
  280MOL0     H37776   9.168   8.809   7.026  0.7272  0.3958 -0.3740
  280MOL0     H37777   9.022   8.911   6.990  0.7045  3.0494 -0.4617
  280MOL0     H37778   9.066   8.837   6.742  0.2188  0.8448  0.7153
  280MOL0     H37779   9.003   8.723   6.864 -0.3073  0.6607  1.5558
  280MOL0     H37780   9.304   8.747   6.795 -1.1314  2.3709 -0.0226
  280MOL0     H37781   9.206   8.635   6.698 -3.0349 -2.1148  0.6455
  280MOL0     H37782   9.211   9.551   7.553  1.1564 -0.1602  1.4207
  280MOL0     H37783   9.085   9.636   7.757 -2.5441  2.4182  1.7134
  280MOL0     H37784   8.919   9.834   8.124 -0.7111  2.5170  2.2750
  280MOL0     H37785   8.802   9.858   8.332 -2.3150  0.3107  0.0322
  280MOL0     H37786   7.285  10.676   8.584  0.7829  0.1322  0.6416
  280MOL0     H37787   7.078  10.748   8.555  1.2552  0.4345  1.5750
  280MOL0     H37788   6.499  10.655   8.846  0.4555  1.6279  3.9226
  280MOL0     H37789   6.339  10.836   8.838  0.3077  3.7025  2.6332
  280MOL0     H37790   6.342  11.027   8.954  4.1966  0.2113  0.1670
  280MOL0     H37791   6.401  11.181   8.916 -0.4375 -0.9885  1.2836
  280MOL0     H37792   6.178  11.231   8.828  5.7304  1.6777 -0.1138
  280MOL0     H37793   6.141  11.146   8.980 -0.1526  0.7199 -1.3363
  280MOL0     H37794   6.139  10.933   8.834 -1.5016  0.9583  3.1233
  280MOL0     H37795   6.108  11.048   8.696 -1.7319 -1.0122 -1.5833
  280MOL0     H37796   5.925  11.150   8.876 -1.7837 -0.7417  0.5608
  280MOL0     H37797   5.960  11.002   8.967  1.1921  2.2280  1.6077
  280MOL0     H37798   5.720  10.846   8.666 -0.3488  1.1439 -2.3095
  280MOL0     H37799   6.626  11.087   8.641 -2.4499 -0.9609 -2.9667
  280MOL0     H37800   6.775  10.900   8.628  0.3113  0.9771 -0.2406
  281MOL0     O37801   4.655   8.213   8.646  0.2188 -0.0725  0.6762
  281MOL0     C37802   4.667   8.093   8.622 -0.1295 -0.3271 -0.1621
  281MOL0     O37803   4.584   8.022   8.546 -1.0501  0.4505  0.1387
  281MOL0     C37804   4.491   8.076   8.469  0.5561  0.6057 -0.0044
  281MOL0     C37805   4.392   7.989   8.437 -0.7394 -0.7014  0.6853
  281MOL0     C37806   4.283   8.023   8.349 -0.8884  0.7426  0.3900
  281MOL0     C37807   4.290   8.147   8.292  0.4342  0.2496 -0.0357
  281MOL0     O37808   4.192   8.183   8.207  0.0987  0.4990  0.6509
  281MOL0     C37809   4.210   8.227   8.069 -0.1249 -0.3034  0.1291
  281MOL0     C37810   4.115   8.146   7.978 -0.0933  0.0725  0.7747
  281MOL0     C37811   4.147   7.991   7.965 -0.1193 -0.2269  0.7476
  281MOL0     C37812   4.229   7.964   7.843 -0.2198  0.1481  0.1130
  281MOL0     C37813   4.260   7.818   7.826 -0.0586  0.5116  0.4984
  281MOL0     C37814   4.307   7.739   7.948  0.9188  0.3235 -0.0610
  281MOL0     C37815   4.453   7.777   8.004  0.5106 -0.2469  0.4049
  281MOL0     C37816   4.481   7.704   8.133 -0.9365 -1.0240  0.0955
  281MOL0     N37817   4.620   7.724   8.181 -0.3503 -0.1908  0.1298
  281MOL0     C37818   4.683   7.850   8.197 -0.3185 -0.2881  0.0894
  281MOL0     C37819   4.802   7.815   8.252 -0.2829  0.6772 -0.1707
  281MOL0     C37820   4.909   7.918   8.299 -0.9996 -0.0305  1.0295
  281MOL0     C37821   5.052   7.851   8.305  0.2897 -0.3365 -0.3297
  281MOL0     C37822   5.136   7.913   8.419  0.4229 -0.6793  0.2138
  281MOL0     C37823   5.285   7.869   8.418 -0.1676 -0.0891 -0.3985
  281MOL0     O37824   5.300   7.726   8.449 -0.1491 -0.8407  0.4160
  281MOL0     C37825   5.347   7.658   8.346 -0.1411 -0.0260 -0.5210
  281MOL0     C37826   5.477   7.669   8.312  0.0533  0.4700 -0.3105
  281MOL0     C37827   5.530   7.599   8.209 -0.8939 -0.2101  0.6278
  281MOL0     C37828   5.687   7.609   8.188  0.2964  0.3153  0.4666
  281MOL0     C37829   5.445   7.520   8.120  0.1707  0.0270  0.3517
  281MOL0     C37830   5.494   7.436   8.008  0.0540  1.6468  0.8445
  281MOL0     O37831   5.418   7.331   7.979  0.2068 -0.4075  0.0279
  281MOL0     C37832   5.442   7.256   7.866  0.6446  0.7753  0.8175
  281MOL0     C37833   5.491   7.302   7.740 -0.3177  0.4448  0.0068
  281MOL0     C37834   5.501   7.216   7.631 -0.1042  0.3938 -0.2955
  281MOL0     C37835   5.460   7.086   7.640  0.0152  0.9086 -0.0733
  281MOL0     O37836   5.475   7.000   7.541  0.4424 -0.4721  1.3122
  281MOL0     C37837   5.610   6.964   7.506  1.3649  0.6474  0.7334
  281MOL0     C37838   5.674   6.876   7.620  0.0933 -0.5234  0.9189
  281MOL0     C37839   5.779   6.777   7.574 -0.7115  1.0814  1.0789
  281MOL0     C37840   5.900   6.851   7.520 -0.4338  0.5501 -0.3364
  281MOL0     C37841   6.018   6.749   7.498  0.1407 -0.2135  0.6112
  281MOL0     C37842   6.146   6.816   7.439  0.4457 -0.3762 -0.5457
  281MOL0     C37843   6.248   6.699   7.427  0.3045 -0.1865  0.0348
  281MOL0     C37844   6.385   6.765   7.441 -0.5585 -0.0930 -0.7793
  281MOL0    Cl37845   6.447   6.711   7.599  0.0560  0.1128  0.3331
  281MOL0     C37846   5.403   7.042   7.757 -1.0544 -0.7425 -0.4725
  281MOL0     C37847   5.411   7.126   7.874 -0.0384 -0.1774  0.0586
  281MOL0     O37848   5.609   7.453   7.968  0.1283  1.3126  0.0087
  281MOL0     C37849   5.305   7.515   8.152 -0.0502 -0.7453  0.6670
  281MOL0     C37850   5.261   7.584   8.271  0.1651  0.3777  0.1460
  281MOL0     N37851   4.812   7.677   8.265  0.5725 -0.7949 -0.5370
  281MOL0     N37852   4.706   7.623   8.214 -0.4106 -1.1475  0.5308
  281MOL0     C37853   4.389   8.241   8.330  0.0180 -0.5049 -0.4046
  281MOL0     C37854   4.482   8.207   8.423 -0.8712 -0.9571  0.0626
  281MOL0     C37855   4.784   8.022   8.674 -0.6514  0.1420  0.1703
  281MOL0     C37856   4.862   8.078   8.778 -0.2695  0.5173  0.4600
  281MOL0     C37857   4.972   8.006   8.822 -1.1680 -0.1328 -0.8180
  281MOL0     C37858   5.005   7.875   8.781 -0.1761  0.5053  1.0184
  281MOL0     O37859   5.123   7.828   8.830 -0.1943  0.4776  0.7419
  281MOL0     C37860   5.159   7.693   8.804 -1.0472  0.1093  0.1543
  281MOL0     C37861   5.293   7.662   8.859 -0.7934 -1.1489  0.2724
  281MOL0     C37862   5.402   7.757   8.801  0.8771  0.3064  0.3540
  281MOL0     C37863   5.544   7.710   8.837  0.2365 -0.0424 -0.1927
  281MOL0     C37864   5.583   7.579   8.774 -0.4010 -1.1407 -0.4975
  281MOL0     C37865   5.628   7.481   8.719 -0.0980 -0.3864  0.0386
  281MOL0     C37866   4.904   7.810   8.703  0.3884 -0.2299  0.6226
  281MOL0     C37867   4.805   7.890   8.642 -0.1987 -0.0881 -0.0577
  281MOL0     H37868   4.389   7.888   8.478 -2.4362 -1.0581 -0.2351
  281MOL0     H37869   4.214   7.949   8.310  1.2059  0.5406 -3.3890
  281MOL0     H37870   4.166   8.326   8.054  0.4618 -0.0766 -0.1077
  281MOL0     H37871   4.315   8.220   8.040  0.1019  0.3533  0.7481
  281MOL0     H37872   4.008   8.155   8.001 -0.6950  3.6448 -2.4298
  281MOL0     H37873   4.134   8.183   7.877 -0.5989 -0.3873  0.5088
  281MOL0     H37874   4.195   7.956   8.057 -1.2200 -0.1144  1.3769
  281MOL0     H37875   4.056   7.930   7.960  0.3358 -0.9044  0.6018
  281MOL0     H37876   4.182   8.000   7.751 -0.4017 -0.7618 -0.1624
  281MOL0     H37877   4.323   8.019   7.853 -0.8390  0.8779  2.5670
  281MOL0     H37878   4.167   7.770   7.794 -2.2932  4.7765 -0.2133
  281MOL0     H37879   4.330   7.801   7.744  0.5943  0.6532  1.0178
  281MOL0     H37880   4.233   7.761   8.026  0.8589 -1.1012  0.3239
  281MOL0     H37881   4.300   7.631   7.931  1.9091 -0.0965  1.9417
  281MOL0     H37882   4.530   7.755   7.929  0.0305 -3.3226  0.6551
  281MOL0     H37883   4.462   7.883   8.026  0.8225  0.0760 -1.1733
  281MOL0     H37884   4.478   7.596   8.119  2.1145 -1.0802 -0.8162
  281MOL0     H37885   4.415   7.743   8.211  0.7486  2.8602 -0.1983
  281MOL0     H37886   4.654   7.954   8.193  4.6709  1.5494  3.2623
  281MOL0     H37887   4.929   8.006   8.237  0.0097  1.0454  2.7593
  281MOL0     H37888   4.882   7.948   8.401 -0.0587  2.0286  0.7311
  281MOL0     H37889   5.095   7.856   8.205 -0.0091 -3.2346 -0.6766
  281MOL0     H37890   5.038   7.745   8.324 -0.6711 -0.2088 -0.2757
  281MOL0     H37891   5.101   7.889   8.520  2.4160  0.7372  1.3203
  281MOL0     H37892   5.121   8.021   8.408 -1.9521 -0.4667  3.8985
  281MOL0     H37893   5.354   7.917   8.488 -2.9846 -1.3706  3.5812
  281MOL0     H37894   5.325   7.898   8.320 -2.3877 -0.6905 -1.5345
  281MOL0     H37895   5.551   7.734   8.359  2.8789 -1.9760 -1.0305
  281MOL0     H37896   5.731   7.511   8.207  0.4598 -0.9305 -4.8346
  281MOL0     H37897   5.719   7.631   8.086 -1.0599  2.4424  0.4209
  281MOL0     H37898   5.741   7.689   8.241 -1.1474  3.2423 -2.1445
  281MOL0     H37899   5.525   7.405   7.730  1.2433 -0.2053 -2.1890
  281MOL0     H37900   5.542   7.239   7.533 -0.3014 -3.6345 -1.5291
  281MOL0     H37901   5.605   6.900   7.417 -0.4733  0.9422  0.5904
  281MOL0     H37902   5.666   7.052   7.474 -0.4113  0.8772 -2.0596
  281MOL0     H37903   5.728   6.948   7.682  0.1411 -0.6538  1.0298
  281MOL0     H37904   5.603   6.825   7.686 -0.8519 -0.2992  0.1002
  281MOL0     H37905   5.734   6.709   7.501 -0.1850 -3.5527  4.5672
  281MOL0     H37906   5.819   6.711   7.652  1.1580 -0.9821 -1.4374
  281MOL0     H37907   5.867   6.892   7.424 -0.3203  1.7880  0.1323
  281MOL0     H37908   5.935   6.930   7.587  0.2096  1.6148 -1.8854
  281MOL0     H37909   5.975   6.677   7.428 -1.8065  2.5490 -1.2533
  281MOL0     H37910   6.032   6.701   7.596 -0.8589 -2.6730 -0.3841
  281MOL0     H37911   6.136   6.876   7.348 -0.2379  0.9157  0.3425
  281MOL0     H37912   6.187   6.883   7.516 -2.3272 -1.2195  1.8592
  281MOL0     H37913   6.231   6.648   7.332  0.9618 -0.5605  0.1127
  281MOL0     H37914   6.233   6.623   7.504  1.2829 -0.2450  0.1804
  281MOL0     H37915   6.380   6.874   7.435 -4.5272 -0.0127  0.5240
  281MOL0     H37916   6.451   6.734   7.360  0.9363 -0.5703  0.5575
  281MOL0     H37917   5.395   6.935   7.768 -0.7543 -0.5347  2.5682
  281MOL0     H37918   5.391   7.093   7.975 -3.1855  3.5868  0.8674
  281MOL0     H37919   5.231   7.455   8.100 -0.2611 -0.7445  0.9693
  281MOL0     H37920   5.158   7.563   8.300  0.8129 -1.6994  1.1573
  281MOL0     H37921   4.378   8.340   8.288 -0.4642  0.1049  1.1146
  281MOL0     H37922   4.546   8.291   8.450 -0.3147 -1.9139  1.9214
  281MOL0     H37923   4.848   8.173   8.827  1.5380  1.5407 -0.9013
  281MOL0     H37924   5.037   8.056   8.893 -0.9000 -0.2917 -0.9515
  281MOL0     H37925   5.088   7.632   8.861 -1.5474 -1.2172 -1.8042
  281MOL0     H37926   5.160   7.672   8.697 -1.3323 -1.4296  0.4323
  281MOL0     H37927   5.316   7.555   8.850  4.0705 -0.1730 -2.3240
  281MOL0     H37928   5.289   7.687   8.965 -1.9870  0.8553 -0.1909
  281MOL0     H37929   5.385   7.854   8.849 -0.1562 -0.1634  0.9946
  281MOL0     H37930   5.397   7.766   8.692 -0.7108 -0.7524  0.2980
  281MOL0     H37931   5.553   7.691   8.944 -0.8655 -2.1434 -0.4288
  281MOL0     H37932   5.610   7.791   8.806  1.7952 -0.0083  2.9114
  281MOL0     H37933   5.671   7.392   8.678 -1.3752  0.0298 -2.4588
  281MOL0     H37934   4.915   7.703   8.688  2.7971  0.1093 -0.3862
  281MOL0     H37935   4.742   7.844   8.566  0.2846 -0.4551 -0.2385
  282MOL0     O37936   1.881   4.697   9.371 -0.5840 -0.6455 -0.9259
  282MOL0     C37937   1.795   4.665   9.450  0.2549  0.3916 -0.3329
  282MOL0     O37938   1.810   4.624   9.583 -0.3319  0.1373  0.8236
  282MOL0     C37939   1.944   4.618   9.617 -0.5338 -0.0103  0.5016
  282MOL0     C37940   2.032   4.520   9.562  0.4468 -0.5514  0.1963
  282MOL0     C37941   2.170   4.518   9.602  0.3929 -0.2867 -0.1921
  282MOL0     C37942   2.214   4.606   9.703  0.8037  0.4916 -0.3284
  282MOL0     O37943   2.347   4.605   9.738  0.0219  0.1190 -0.7756
  282MOL0     C37944   2.380   4.645   9.865 -0.4020 -0.6014 -0.3892
  282MOL0     C37945   2.535   4.616   9.872  0.4668  0.8450 -1.0560
  282MOL0     C37946   2.614   4.720   9.797 -0.0814  0.2466  0.7703
  282MOL0     C37947   2.767   4.673   9.806  0.4145  0.8990 -0.6728
  282MOL0     C37948   2.849   4.756   9.711 -0.6890 -2.1785 -1.1022
  282MOL0     C37949   3.004   4.737   9.756  0.4363 -0.5577  0.8596
  282MOL0     C37950   3.078   4.840   9.845 -0.3245 -0.8347 -0.2755
  282MOL0     C37951   3.112   4.970   9.770 -0.7357  0.5999 -0.2470
  282MOL0     N37952   3.187   5.053   9.867 -0.5731 -0.1919  1.0725
  282MOL0     C37953   3.328   5.048   9.878 -0.2328 -0.3500 -0.2254
  282MOL0     C37954   3.359   5.135   9.980  0.5741 -0.2418 -0.9264
  282MOL0     C37955   3.491   5.173  10.015 -0.3994 -1.4806 -0.3962
  282MOL0     C37956   3.598   5.101   9.930 -0.5928 -0.0871  0.2537
  282MOL0     C37957   3.741   5.158   9.964 -0.4020 -0.1507 -0.6377
  282MOL0     C37958   3.841   5.063   9.891 -0.2597  0.5428  0.1782
  282MOL0     O37959   3.974   5.104   9.926 -0.0227  0.0751  0.1347
  282MOL0     C37960   4.034   5.206   9.859  0.2803  0.3268  0.2904
  282MOL0     C37961   4.167   5.236   9.887  0.2983 -0.4080 -0.0416
  282MOL0     C37962   4.228   5.336   9.813 -0.6331 -1.1121 -0.1215
  282MOL0     C37963   4.376   5.356   9.827  0.7919 -0.4034  0.2398
  282MOL0     C37964   4.160   5.416   9.717  1.7297  0.2383 -1.1140
  282MOL0     C37965   4.221   5.525   9.638  0.4522  0.0444  0.1917
  282MOL0     O37966   4.126   5.611   9.580 -0.9666 -1.0780 -1.3642
  282MOL0     C37967   4.171   5.721   9.507  0.0356  0.0129 -0.2810
  282MOL0     C37968   4.096   5.746   9.395  0.3140  0.6872 -0.6497
  282MOL0     C37969   4.098   5.876   9.332 -0.3625  0.5863  0.0556
  282MOL0     C37970   4.180   5.974   9.380  0.2086  1.1699 -0.0420
  282MOL0     O37971   4.167   6.091   9.311 -0.4294  0.0864 -0.6168
  282MOL0     C37972   4.258   6.194   9.342 -0.1989  0.3594 -0.1750
  282MOL0     C37973   4.216   6.268   9.475 -0.3204  0.8105  0.2566
  282MOL0     C37974   4.298   6.394   9.503 -0.2787 -0.1177 -0.2351
  282MOL0     C37975   4.258   6.517   9.402  0.2330  0.2044 -1.1882
  282MOL0     C37976   4.344   6.640   9.439  0.7870  0.5477  0.2595
  282MOL0     C37977   4.335   6.694   9.582 -1.0389  0.4039  0.3716
  282MOL0     C37978   4.455   6.793   9.618  0.7403 -0.0944  0.2606
  282MOL0     C37979   4.592   6.730   9.619  1.5562 -0.1892  0.0001
  282MOL0    Cl37980   4.713   6.853   9.649 -0.4310  0.1019  0.2189
  282MOL0     C37981   4.261   5.946   9.495  0.3059 -0.2182 -0.2788
  282MOL0     C37982   4.260   5.817   9.563 -0.1468  0.1688 -0.2214
  282MOL0     O37983   4.340   5.535   9.631  0.0140 -0.4690 -0.9288
  282MOL0     C37984   4.027   5.380   9.685 -0.4207 -0.9990 -0.0901
  282MOL0     C37985   3.965   5.278   9.759 -0.4415 -0.4400  0.4909
  282MOL0     N37986   3.239   5.193  10.023 -0.2312 -0.2921 -0.5058
  282MOL0     N37987   3.142   5.138   9.962  0.4301  0.4605 -0.5945
  282MOL0     C37988   2.120   4.682   9.777 -0.5071  0.2756  0.5100
  282MOL0     C37989   1.986   4.685   9.731  0.5031 -0.4812 -0.0328
  282MOL0     C37990   1.665   4.638   9.385  0.6206  0.4943  0.2437
  282MOL0     C37991   1.574   4.539   9.445 -0.5477  0.9390 -0.0220
  282MOL0     C37992   1.472   4.501   9.375 -0.0656 -0.1568  0.5804
  282MOL0     C37993   1.450   4.550   9.248 -0.2751  0.2191 -0.3111
  282MOL0     O37994   1.337   4.501   9.193  0.0669  0.0380  0.1894
  282MOL0     C37995   1.304   4.517   9.053  0.1458  0.4168  0.7428
  282MOL0     C37996   1.377   4.403   8.979 -0.0678  0.3516 -0.3420
  282MOL0     C37997   1.342   4.258   9.024 -0.9057  0.5323 -0.8081
  282MOL0     C37998   1.382   4.151   8.917 -0.0364 -0.0633  0.0449
  282MOL0     C37999   1.512   4.177   8.852  0.4564  0.4653 -0.9387
  282MOL0     C38000   1.611   4.183   8.781 -0.9427  0.2395 -0.5143
  282MOL0     C38001   1.522   4.652   9.196  0.0910  0.5709 -0.2953
  282MOL0     C38002   1.630   4.700   9.264 -0.2704  0.2743  0.2609
  282MOL0     H38003   1.985   4.461   9.484 -1.6147  3.2165 -1.7064
  282MOL0     H38004   2.249   4.464   9.551 -0.0102  0.4016 -1.5809
  282MOL0     H38005   2.362   4.751   9.883 -1.7850 -1.1607  1.8847
  282MOL0     H38006   2.337   4.581   9.942 -0.6739 -0.2254 -0.2215
  282MOL0     H38007   2.576   4.630   9.972  4.2041  1.5501 -2.5319
  282MOL0     H38008   2.560   4.516   9.836 -0.0210  0.5389 -0.5471
  282MOL0     H38009   2.589   4.721   9.690 -1.0167 -0.3225  0.9656
  282MOL0     H38010   2.599   4.820   9.839 -3.4055  0.5824 -0.8520
  282MOL0     H38011   2.794   4.688   9.911  0.5097 -2.3935 -0.1046
  282MOL0     H38012   2.781   4.566   9.787 -0.0273  0.8895 -0.9601
  282MOL0     H38013   2.831   4.734   9.605 -0.6681  1.2024 -1.9409
  282MOL0     H38014   2.820   4.861   9.723 -5.4809 -3.3773 -0.0135
  282MOL0     H38015   3.019   4.639   9.804 -0.5503  0.1728  2.7764
  282MOL0     H38016   3.066   4.724   9.667 -0.7302  2.6475 -0.5702
  282MOL0     H38017   3.019   4.862   9.934 -2.5734 -2.4777 -1.2590
  282MOL0     H38018   3.169   4.795   9.888 -0.8989 -0.2955  1.5765
  282MOL0     H38019   3.013   5.014   9.751 -1.6982 -0.0306  2.7505
  282MOL0     H38020   3.168   4.947   9.679  1.2009 -0.0557  1.0354
  282MOL0     H38021   3.402   4.991   9.823 -1.1085 -0.5998 -1.1535
  282MOL0     H38022   3.510   5.281  10.016  5.4266 -2.0707  3.6625
  282MOL0     H38023   3.514   5.153  10.120  1.2663  0.0420 -0.4166
  282MOL0     H38024   3.570   5.119   9.826 -2.7165 -2.1692  0.3985
  282MOL0     H38025   3.592   4.996   9.959 -2.2160 -0.7004 -2.0828
  282MOL0     H38026   3.768   5.142  10.069 -2.5973 -0.4790 -0.0841
  282MOL0     H38027   3.757   5.265   9.946 -2.3840  0.2033 -0.4655
  282MOL0     H38028   3.822   5.060   9.784 -0.2499 -3.1713  0.1395
  282MOL0     H38029   3.833   4.959   9.926  2.6080 -0.5440 -1.9520
  282MOL0     H38030   4.219   5.190   9.970  1.7010  5.1331  2.5988
  282MOL0     H38031   4.408   5.294   9.912 -2.1595 -2.1905  0.1812
  282MOL0     H38032   4.424   5.321   9.735 -1.7734 -1.9710 -0.5929
  282MOL0     H38033   4.391   5.462   9.847  0.8964  0.1348 -2.3822
  282MOL0     H38034   4.027   5.667   9.367  0.4067  0.6849 -0.8784
  282MOL0     H38035   4.037   5.882   9.243 -0.6601  1.3130  0.3004
  282MOL0     H38036   4.363   6.165   9.351 -0.2189  0.8103  2.4705
  282MOL0     H38037   4.248   6.273   9.268 -3.0935  1.1628  0.9326
  282MOL0     H38038   4.110   6.290   9.461 -0.5904 -0.3917  0.3351
  282MOL0     H38039   4.214   6.199   9.560  0.6615 -1.6854 -1.6363
  282MOL0     H38040   4.406   6.384   9.511 -0.4132 -1.2261  0.2765
  282MOL0     H38041   4.267   6.423   9.604 -2.9028 -0.6708 -0.8105
  282MOL0     H38042   4.287   6.500   9.298  0.2257 -1.1979 -0.9890
  282MOL0     H38043   4.151   6.535   9.413  0.1020 -1.4055  0.9190
  282MOL0     H38044   4.320   6.715   9.363 -3.7435 -0.6435  0.2159
  282MOL0     H38045   4.449   6.614   9.429  0.9513  1.5780 -0.7917
  282MOL0     H38046   4.252   6.763   9.600  1.6601  3.7847  1.1894
  282MOL0     H38047   4.336   6.611   9.653  3.6612  0.8817  1.2418
  282MOL0     H38048   4.440   6.853   9.708 -0.2827 -0.3284  0.2591
  282MOL0     H38049   4.451   6.868   9.538 -2.2259 -0.4972 -0.0892
  282MOL0     H38050   4.612   6.688   9.520 -2.1356  2.5981 -2.1972
  282MOL0     H38051   4.594   6.659   9.702 -2.8954 -0.8647 -0.2020
  282MOL0     H38052   4.315   6.033   9.532 -0.8391 -0.3367  1.7827
  282MOL0     H38053   4.299   5.808   9.663 -1.4235  3.2365  0.6752
  282MOL0     H38054   3.973   5.431   9.606  0.1577 -0.8832 -0.4149
  282MOL0     H38055   3.861   5.262   9.732 -0.7745 -0.4455  1.6860
  282MOL0     H38056   2.137   4.742   9.866 -1.9482 -0.0065  0.9966
  282MOL0     H38057   1.911   4.742   9.785 -1.3928 -1.8695 -1.0833
  282MOL0     H38058   1.597   4.498   9.543 -0.0449  0.6233 -0.2632
  282MOL0     H38059   1.396   4.437   9.418  0.1397  0.2719  1.6310
  282MOL0     H38060   1.198   4.493   9.043  0.1443  0.4062  0.7853
  282MOL0     H38061   1.328   4.613   9.007  1.9679  0.2636  1.3037
  282MOL0     H38062   1.480   4.433   9.000  0.1196 -0.5540  0.0993
  282MOL0     H38063   1.338   4.421   8.879 -1.8950  1.0501  0.4461
  282MOL0     H38064   1.234   4.246   9.042 -1.1272 -1.4144 -3.0222
  282MOL0     H38065   1.393   4.241   9.119  0.2803 -0.1945 -1.5652
  282MOL0     H38066   1.312   4.157   8.833  0.9913 -0.5914 -0.8909
  282MOL0     H38067   1.385   4.048   8.952  1.3427  0.7519  2.6071
  282MOL0     H38068   1.709   4.197   8.739 -1.4875  0.1838 -1.8528
  282MOL0     H38069   1.495   4.692   9.099 -0.2433  1.9066  0.3297
  282MOL0     H38070   1.700   4.765   9.213 -0.7061  0.9414  0.5053
  283MOL0     O38071   7.692   7.217   1.214 -0.1670  0.1065 -0.3083
  283MOL0     C38072   7.705   7.341   1.216 -0.9175 -0.0539 -0.0683
  283MOL0     O38073   7.821   7.416   1.230  0.5973 -0.2896  0.6196
  283MOL0     C38074   7.942   7.354   1.202 -0.0983 -0.6620  0.2429
  283MOL0     C38075   7.997   7.360   1.073 -0.0711 -0.5910 -0.9260
  283MOL0     C38076   8.117   7.297   1.040 -0.2666  0.4781  0.5595
  283MOL0     C38077   8.191   7.228   1.141  0.1684  0.2778  1.4178
  283MOL0     O38078   8.305   7.151   1.111 -0.3840  0.1081 -0.7668
  283MOL0     C38079   8.426   7.229   1.120  0.4100 -0.1011  0.2758
  283MOL0     C38080   8.532   7.148   1.049 -0.6258  0.5430  1.1042
  283MOL0     C38081   8.533   7.151   0.899  0.6955  0.3916 -0.0163
  283MOL0     C38082   8.635   7.246   0.842 -0.0954 -1.3920  0.8763
  283MOL0     C38083   8.655   7.217   0.697  0.5460 -0.9047  0.1630
  283MOL0     C38084   8.736   7.091   0.655 -1.0462  0.0604  0.5481
  283MOL0     C38085   8.882   7.097   0.708 -0.7190  0.2821 -0.3623
  283MOL0     C38086   8.955   6.969   0.669  0.5178  1.0697 -0.2550
  283MOL0     N38087   8.903   6.860   0.747 -0.5801  1.1716  0.8549
  283MOL0     C38088   8.927   6.831   0.876 -0.5253  0.2372  0.0573
  283MOL0     C38089   8.829   6.734   0.904 -0.0529 -0.0458  0.1076
  283MOL0     C38090   8.789   6.692   1.040 -0.1029  0.0705 -0.1253
  283MOL0     C38091   8.648   6.734   1.077 -0.3891  0.0589 -0.1894
  283MOL0     C38092   8.600   6.683   1.211 -0.4281  0.2754  0.2617
  283MOL0     C38093   8.485   6.750   1.273  1.4104 -0.6844 -0.9570
  283MOL0     O38094   8.523   6.867   1.343  0.3803 -0.2753 -0.9689
  283MOL0     C38095   8.432   6.925   1.436 -0.7614 -0.4218 -0.4164
  283MOL0     C38096   8.305   6.872   1.476 -0.4883 -0.1835 -0.1875
  283MOL0     C38097   8.209   6.955   1.539 -0.4435  0.3295  0.7240
  283MOL0     C38098   8.079   6.888   1.559 -0.5717  0.2014  0.3556
  283MOL0     C38099   8.250   7.087   1.581  0.4857  0.6509  0.1208
  283MOL0     C38100   8.157   7.179   1.647 -0.1776 -0.2187  0.0668
  283MOL0     O38101   8.196   7.311   1.653  0.1677 -0.1431  0.6232
  283MOL0     C38102   8.129   7.395   1.738 -0.4060  1.0236  0.1811
  283MOL0     C38103   8.202   7.481   1.815  0.0606 -0.2764 -0.8976
  283MOL0     C38104   8.139   7.578   1.898 -0.1228  0.3616  0.1069
  283MOL0     C38105   8.000   7.584   1.906 -0.6505  0.1940 -0.2445
  283MOL0     O38106   7.961   7.666   2.008  0.0916  0.6028  0.0938
  283MOL0     C38107   7.821   7.648   2.059 -1.5475 -0.9931  0.0472
  283MOL0     C38108   7.784   7.745   2.163 -0.0526  0.4815 -0.1694
  283MOL0     C38109   7.793   7.889   2.112  0.5251 -1.0409  0.5040
  283MOL0     C38110   7.820   7.983   2.229 -0.0787 -0.5872  0.4124
  283MOL0     C38111   7.812   8.136   2.195 -0.0714  0.5772 -0.4058
  283MOL0     C38112   7.856   8.232   2.303  0.0618  0.1446  0.0035
  283MOL0     C38113   7.746   8.265   2.410 -1.0361  0.0477  0.1436
  283MOL0     C38114   7.791   8.380   2.501 -0.5162 -0.3393 -0.8967
  283MOL0    Cl38115   7.802   8.542   2.406  0.0883  0.0573 -0.2700
  283MOL0     C38116   7.925   7.492   1.829  0.0006 -0.1919 -1.0151
  283MOL0     C38117   7.985   7.402   1.750  0.1932  0.9481  0.9506
  283MOL0     O38118   8.061   7.127   1.701  0.5172  0.5116 -0.5941
  283MOL0     C38119   8.376   7.139   1.533  0.1941 -0.0458 -0.7012
  283MOL0     C38120   8.464   7.059   1.472  0.2065  1.0699 -0.4448
  283MOL0     N38121   8.769   6.699   0.787 -0.7077  0.0833  1.1348
  283MOL0     N38122   8.813   6.772   0.695 -0.0611 -0.2952  0.2249
  283MOL0     C38123   8.135   7.222   1.271 -0.2010  0.0553  0.4515
  283MOL0     C38124   8.016   7.284   1.299  0.5508 -0.3610  0.8496
  283MOL0     C38125   7.570   7.409   1.185 -0.0429  0.8618  0.4374
  283MOL0     C38126   7.568   7.545   1.158 -0.0970 -0.4508 -0.2280
  283MOL0     C38127   7.450   7.617   1.139 -0.6958  0.0493  0.8639
  283MOL0     C38128   7.332   7.553   1.149  0.4747  1.8670 -0.4340
  283MOL0     O38129   7.210   7.610   1.145  0.7287 -0.1579  0.2987
  283MOL0     C38130   7.181   7.681   1.258 -0.5299 -0.1746  0.0242
  283MOL0     C38131   7.224   7.827   1.254 -0.1762 -0.7467  0.0316
  283MOL0     C38132   7.110   7.922   1.208 -0.2916 -0.0182  0.2260
  283MOL0     C38133   7.036   7.886   1.075 -0.0076  0.3696 -0.6003
  283MOL0     C38134   6.892   7.928   1.079 -0.8029  0.1080  0.0866
  283MOL0     C38135   6.778   7.959   1.086 -0.5192 -0.3539 -0.3125
  283MOL0     C38136   7.328   7.411   1.146  1.2001  0.1715 -0.3656
  283MOL0     C38137   7.441   7.340   1.173 -0.1621 -0.2269 -0.3718
  283MOL0     H38138   7.949   7.417   0.994 -1.7092 -0.1788  0.3186
  283MOL0     H38139   8.158   7.306   0.940 -1.3235  1.2356  0.1714
  283MOL0     H38140   8.425   7.323   1.065  2.3615 -2.0513 -3.4493
  283MOL0     H38141   8.459   7.255   1.221  0.5971  2.9645 -0.4924
  283MOL0     H38142   8.631   7.188   1.074 -0.5113  2.4989 -1.8744
  283MOL0     H38143   8.523   7.045   1.085 -3.4874  0.4353  0.3267
  283MOL0     H38144   8.543   7.050   0.858  2.5415 -0.3178  1.9840
  283MOL0     H38145   8.432   7.180   0.867  1.1512 -0.7574 -2.7804
  283MOL0     H38146   8.598   7.349   0.844 -0.5898 -1.5062 -1.0236
  283MOL0     H38147   8.733   7.246   0.892  0.8687  1.3237 -0.7843
  283MOL0     H38148   8.559   7.220   0.644  1.6282 -1.7321 -1.9566
  283MOL0     H38149   8.717   7.301   0.664  0.8425 -0.4286  1.8662
  283MOL0     H38150   8.683   7.002   0.690 -3.4604  1.3780  0.5178
  283MOL0     H38151   8.723   7.074   0.547 -1.5479 -2.2472  0.9246
  283MOL0     H38152   8.935   7.179   0.658 -1.9572  1.0383 -0.4679
  283MOL0     H38153   8.879   7.120   0.815 -1.9201  0.8655 -0.5040
  283MOL0     H38154   9.064   6.980   0.680  0.6133  0.2236 -0.2956
  283MOL0     H38155   8.922   6.943   0.568  0.2243  2.1425 -0.4410
  283MOL0     H38156   8.967   6.886   0.962 -2.0383  0.5257  0.6119
  283MOL0     H38157   8.792   6.582   1.045  3.8019 -0.0270 -1.4688
  283MOL0     H38158   8.841   6.720   1.132 -3.0402 -0.3148  1.8013
  283MOL0     H38159   8.573   6.712   1.000 -2.0194  1.6155  0.8999
  283MOL0     H38160   8.654   6.842   1.087 -0.1310 -0.0714  1.1725
  283MOL0     H38161   8.673   6.674   1.291 -1.5225 -0.5481  1.2050
  283MOL0     H38162   8.587   6.575   1.204 -1.7447  0.4765 -0.8910
  283MOL0     H38163   8.442   6.685   1.350 -0.5793  0.3407 -1.1164
  283MOL0     H38164   8.408   6.768   1.197 -1.0472 -2.0597  1.0333
  283MOL0     H38165   8.281   6.771   1.444 -0.3302 -1.0568  2.2652
  283MOL0     H38166   7.992   6.953   1.568 -2.3029 -2.2773  4.3431
  283MOL0     H38167   8.054   6.820   1.477  1.9701 -0.4779  0.0546
  283MOL0     H38168   8.074   6.829   1.650  2.6120 -0.8946 -0.0510
  283MOL0     H38169   8.308   7.504   1.814  0.9366 -3.7298  0.2960
  283MOL0     H38170   8.194   7.652   1.955 -1.8392  2.1719 -0.4949
  283MOL0     H38171   7.758   7.657   1.969 -0.5594  2.9201 -0.4681
  283MOL0     H38172   7.801   7.548   2.096 -1.2760  0.0771  3.3644
  283MOL0     H38173   7.685   7.724   2.205  0.2375 -1.3492 -0.3248
  283MOL0     H38174   7.856   7.727   2.244  1.8401 -1.9844 -2.2493
  283MOL0     H38175   7.697   7.916   2.065  1.1574  1.3156  0.4519
  283MOL0     H38176   7.876   7.890   2.041  0.3964 -1.0248  0.3528
  283MOL0     H38177   7.750   7.965   2.312  0.1245 -0.1781  0.6772
  283MOL0     H38178   7.923   7.961   2.259  0.2492  0.4717  0.0850
  283MOL0     H38179   7.709   8.158   2.164 -0.9650 -0.9950  1.2062
  283MOL0     H38180   7.882   8.156   2.114 -0.3708  0.4378 -0.7025
  283MOL0     H38181   7.943   8.213   2.366 -1.3557  3.6590  3.4243
  283MOL0     H38182   7.886   8.321   2.245 -0.5544 -1.1736 -2.4818
  283MOL0     H38183   7.732   8.180   2.477 -1.9713  0.0631 -0.0078
  283MOL0     H38184   7.649   8.295   2.369 -0.1196  3.5210  0.1669
  283MOL0     H38185   7.878   8.352   2.560 -1.4417 -0.1187  0.6310
  283MOL0     H38186   7.718   8.387   2.583  0.0958 -0.7808 -0.3063
  283MOL0     H38187   7.817   7.488   1.833  0.0634 -3.1954 -0.1811
  283MOL0     H38188   7.914   7.342   1.693  1.8861  1.5357 -2.0353
  283MOL0     H38189   8.420   7.237   1.546 -1.8904  0.7521  0.9922
  283MOL0     H38190   8.563   7.100   1.454 -0.1355  2.0264 -0.1699
  283MOL0     H38191   8.171   7.158   1.351 -1.6794 -0.2369  0.9042
  283MOL0     H38192   7.976   7.285   1.400  0.1155 -3.5231  0.8208
  283MOL0     H38193   7.650   7.616   1.153 -2.7275  2.9106  0.3502
  283MOL0     H38194   7.460   7.723   1.114  1.0390 -0.4429 -0.7044
  283MOL0     H38195   7.074   7.679   1.279 -0.6184 -0.0126 -0.4057
  283MOL0     H38196   7.228   7.628   1.342  0.7847 -0.3145 -0.7740
  283MOL0     H38197   7.316   7.846   1.199 -1.0281  1.8729 -0.6184
  283MOL0     H38198   7.262   7.844   1.355  1.4785  2.4882 -1.0081
  283MOL0     H38199   7.160   8.018   1.191 -1.7865  0.5138 -1.4933
  283MOL0     H38200   7.033   7.918   1.286 -3.4635 -0.3424 -2.6839
  283MOL0     H38201   7.029   7.777   1.061 -5.9046  0.3298  0.0945
  283MOL0     H38202   7.091   7.931   0.992  3.5867 -0.5121  1.1318
  283MOL0     H38203   6.676   7.992   1.084  0.3422  2.6155 -1.8694
  283MOL0     H38204   7.242   7.346   1.137  1.5438 -0.4338  0.5540
  283MOL0     H38205   7.441   7.233   1.187  1.7980 -0.4811 -1.8447
  284MOL0     O38206   7.546   5.349  11.447  0.4231  0.1570 -0.1022
  284MOL0     C38207   7.602   5.257  11.397 -0.6342 -0.8405  0.0058
  284MOL0     O38208   7.745   5.246  11.399  0.8316  0.3299  0.3199
  284MOL0     C38209   7.823   5.345  11.446  0.2029 -0.2346 -1.1663
  284MOL0     C38210   7.843   5.470  11.393  1.6026  1.2311  0.3650
  284MOL0     C38211   7.927   5.559  11.445  0.2185 -0.3890  0.0271
  284MOL0     C38212   8.020   5.522  11.538  0.5000 -0.7216  0.7313
  284MOL0     O38213   8.131   5.593  11.574  0.3889 -0.4899  0.5779
  284MOL0     C38214   8.251   5.520  11.583  0.1399 -1.1114  0.3723
  284MOL0     C38215   8.372   5.614  11.576  0.0868  0.1796  0.5697
  284MOL0     C38216   8.498   5.539  11.522 -0.0708  0.1085 -0.3299
  284MOL0     C38217   8.474   5.491  11.374  0.4999  0.2303 -0.0002
  284MOL0     C38218   8.604   5.474  11.285  0.1500 -0.1567  0.5779
  284MOL0     C38219   8.573   5.422  11.140 -0.0421 -0.0733 -0.0942
  284MOL0     C38220   8.705   5.398  11.065  0.2196 -1.1838  1.0375
  284MOL0     C38221   8.672   5.391  10.912 -0.6895 -0.7799  0.3731
  284MOL0     N38222   8.608   5.264  10.869 -0.8768 -0.2723 -0.7764
  284MOL0     C38223   8.478   5.235  10.868  1.3693 -0.7608 -1.0951
  284MOL0     C38224   8.466   5.128  10.792 -1.1716  0.0876  0.4270
  284MOL0     C38225   8.334   5.056  10.775 -0.1726 -0.5246  0.6492
  284MOL0     C38226   8.322   4.948  10.665  0.6126 -0.1624  0.3155
  284MOL0     C38227   8.384   4.814  10.703 -0.4121 -0.5285  1.2326
  284MOL0     C38228   8.418   4.732  10.573 -0.2629 -0.3786 -0.3258
  284MOL0     O38229   8.543   4.778  10.530 -0.8216  0.4561  0.6369
  284MOL0     C38230   8.576   4.758  10.387  0.2268 -0.0436 -0.9389
  284MOL0     C38231   8.566   4.633  10.330 -0.0822 -0.4807 -0.2570
  284MOL0     C38232   8.584   4.612  10.197 -0.1460 -0.2442  0.6089
  284MOL0     C38233   8.561   4.474  10.158  0.4335 -0.1189  0.4738
  284MOL0     C38234   8.633   4.721  10.110  0.0034 -0.3619  0.1860
  284MOL0     C38235   8.677   4.711   9.963  0.4832  0.7175 -0.3326
  284MOL0     O38236   8.728   4.823   9.913 -0.0913  0.3108  0.0573
  284MOL0     C38237   8.757   4.820   9.773  0.3686  0.2182 -0.8398
  284MOL0     C38238   8.657   4.865   9.692 -0.2198  0.3503  0.1998
  284MOL0     C38239   8.688   4.880   9.552  0.2503 -0.1616  0.2411
  284MOL0     C38240   8.807   4.841   9.489 -0.0417  0.6261  0.1978
  284MOL0     O38241   8.835   4.833   9.355  0.2623 -0.2462 -0.4021
  284MOL0     C38242   8.729   4.802   9.263  0.6895 -0.3399  0.3510
  284MOL0     C38243   8.708   4.918   9.177  0.4977  0.4954  0.4033
  284MOL0     C38244   8.596   4.894   9.063 -1.0514 -0.8793 -0.4231
  284MOL0     C38245   8.597   5.002   8.963  0.7506  0.3832 -0.6054
  284MOL0     C38246   8.481   4.983   8.872  1.2261  0.6374 -0.2137
  284MOL0     C38247   8.482   5.100   8.782 -0.4090  0.8459 -0.6234
  284MOL0     C38248   8.381   5.092   8.661 -0.7112 -0.0333 -0.0632
  284MOL0     C38249   8.251   5.150   8.699  0.0819  0.3049 -0.0079
  284MOL0    Cl38250   8.154   5.158   8.548  0.0734  0.2991 -0.2021
  284MOL0     C38251   8.899   4.787   9.574 -0.3919 -0.2180  0.2024
  284MOL0     C38252   8.875   4.778   9.711  0.1295 -0.0851  0.4680
  284MOL0     O38253   8.667   4.603   9.901  0.0501 -0.2926  0.6882
  284MOL0     C38254   8.635   4.846  10.169 -0.0435 -0.7272 -0.7112
  284MOL0     C38255   8.607   4.866  10.305 -0.6261  0.6221 -0.6980
  284MOL0     N38256   8.592   5.098  10.743 -0.0746  0.5724  0.5509
  284MOL0     N38257   8.676   5.187  10.774  0.8985 -0.5896 -0.1905
  284MOL0     C38258   8.001   5.398  11.601 -0.4068  0.3035  0.4494
  284MOL0     C38259   7.907   5.310  11.551 -0.0966 -0.1558  0.6443
  284MOL0     C38260   7.514   5.147  11.350 -1.1202 -0.1419 -0.4161
  284MOL0     C38261   7.563   5.017  11.338 -0.7418  0.2305  0.6221
  284MOL0     C38262   7.491   4.914  11.283 -0.2520  0.2920  0.4871
  284MOL0     C38263   7.348   4.936  11.249  0.5286  0.2928  0.2163
  284MOL0     O38264   7.288   4.841  11.177 -0.2271 -0.4639 -0.2096
  284MOL0     C38265   7.149   4.861  11.136 -0.1644  0.5485 -0.4073
  284MOL0     C38266   7.090   4.752  11.054  0.1388  0.3936  0.7319
  284MOL0     C38267   7.166   4.756  10.912  0.7473  0.8515  0.3644
  284MOL0     C38268   7.079   4.765  10.795  0.8979  0.4107  0.5975
  284MOL0     C38269   6.980   4.872  10.803 -0.1341 -0.1877 -0.2838
  284MOL0     C38270   6.903   4.957  10.818  0.7083 -0.3063  1.2027
  284MOL0     C38271   7.292   5.057  11.291  0.1502  0.5373 -0.8722
  284MOL0     C38272   7.376   5.163  11.331 -0.5417 -0.4935 -0.9860
  284MOL0     H38273   7.780   5.490  11.306 -0.1214 -2.6118  0.5483
  284MOL0     H38274   7.936   5.654  11.393  0.1641 -0.9410 -1.0021
  284MOL0     H38275   8.250   5.455  11.671  0.9612 -1.2392  0.3004
  284MOL0     H38276   8.253   5.456  11.494  0.3486 -0.2363 -0.2656
  284MOL0     H38277   8.354   5.703  11.515 -5.0834  0.7277  2.4017
  284MOL0     H38278   8.400   5.662  11.671  1.1741  2.5082 -0.8556
  284MOL0     H38279   8.582   5.610  11.521  0.8193 -0.9137 -1.4054
  284MOL0     H38280   8.520   5.447  11.576  2.0962  0.7621 -0.0120
  284MOL0     H38281   8.425   5.394  11.363 -1.0876  0.9860  0.1462
  284MOL0     H38282   8.414   5.574  11.337 -0.7048 -0.3855  0.5401
  284MOL0     H38283   8.653   5.571  11.276  2.1056 -1.2251 -1.7341
  284MOL0     H38284   8.669   5.403  11.336 -0.2233 -0.0131  1.2638
  284MOL0     H38285   8.504   5.337  11.135 -1.5320  1.1852 -2.2726
  284MOL0     H38286   8.509   5.500  11.097 -0.0010  0.6353  1.0863
  284MOL0     H38287   8.783   5.471  11.088  0.0066 -1.0640  1.3828
  284MOL0     H38288   8.740   5.300  11.099  2.1691 -0.4692  1.2081
  284MOL0     H38289   8.763   5.383  10.852  0.2274 -2.8434  1.9222
  284MOL0     H38290   8.622   5.481  10.874  1.1171 -0.0394 -0.3409
  284MOL0     H38291   8.393   5.298  10.895  1.2981 -1.7026  1.0776
  284MOL0     H38292   8.303   5.018  10.873 -2.3278 -0.8082 -0.0828
  284MOL0     H38293   8.267   5.137  10.746 -0.4883 -1.6952 -2.2815
  284MOL0     H38294   8.359   4.983  10.569 -2.8133 -0.4777 -1.2622
  284MOL0     H38295   8.214   4.945  10.650  0.3902  2.9607  0.7261
  284MOL0     H38296   8.308   4.759  10.759 -3.3019 -0.5858 -2.4010
  284MOL0     H38297   8.470   4.827  10.769 -0.2741 -0.4216  1.0334
  284MOL0     H38298   8.342   4.771  10.505 -2.0639 -1.7600  0.7896
  284MOL0     H38299   8.419   4.624  10.591 -1.2204 -0.1608  1.2585
  284MOL0     H38300   8.535   4.552  10.395  1.2481 -1.3908 -0.7475
  284MOL0     H38301   8.631   4.452  10.077 -0.3220  1.8981 -0.7920
  284MOL0     H38302   8.581   4.398  10.234 -3.0420 -0.3572  1.3341
  284MOL0     H38303   8.457   4.464  10.126  0.4053  0.4700  0.3709
  284MOL0     H38304   8.559   4.897   9.724 -1.5154 -2.4238 -0.6353
  284MOL0     H38305   8.617   4.925   9.484  1.3731 -0.7162 -1.3495
  284MOL0     H38306   8.769   4.716   9.209 -1.2889 -1.0282 -0.0914
  284MOL0     H38307   8.633   4.782   9.312  1.4033  1.4466  2.6713
  284MOL0     H38308   8.683   5.010   9.231  0.8915 -0.0146  1.4880
  284MOL0     H38309   8.804   4.931   9.127 -0.4133 -1.7085 -2.1614
  284MOL0     H38310   8.495   4.900   9.103 -1.9695 -1.0629 -2.6175
  284MOL0     H38311   8.615   4.794   9.021  1.5795 -0.4495 -0.4152
  284MOL0     H38312   8.595   5.102   9.008 -2.1781 -0.7833  2.2898
  284MOL0     H38313   8.692   4.991   8.910  1.8019 -1.9759  1.5812
  284MOL0     H38314   8.386   4.978   8.925  0.4867  0.9871 -1.4634
  284MOL0     H38315   8.489   4.886   8.823 -4.3176 -1.6562  2.5842
  284MOL0     H38316   8.450   5.191   8.832 -0.5080  2.3645 -3.2449
  284MOL0     H38317   8.583   5.118   8.743  0.2545  3.6702  2.0311
  284MOL0     H38318   8.357   4.988   8.635  1.0890 -0.2123 -1.1677
  284MOL0     H38319   8.426   5.127   8.567 -0.9766 -0.9504 -0.5465
  284MOL0     H38320   8.256   5.250   8.742  1.6123  0.9919 -1.6711
  284MOL0     H38321   8.207   5.087   8.777  1.2646 -2.9372 -1.7373
  284MOL0     H38322   8.984   4.745   9.521 -0.0496  1.0061 -0.2454
  284MOL0     H38323   8.949   4.728   9.772 -0.0476  0.0908  0.8322
  284MOL0     H38324   8.671   4.935  10.117  2.7013 -2.3046 -1.7115
  284MOL0     H38325   8.599   4.967  10.344 -2.9882  0.8422 -1.6030
  284MOL0     H38326   8.049   5.369  11.694  1.2000  1.4713  0.0167
  284MOL0     H38327   7.905   5.216  11.606  0.9034  0.0488  1.0582
  284MOL0     H38328   7.668   4.990  11.339  0.0391  2.9343 -0.1249
  284MOL0     H38329   7.527   4.817  11.250 -3.3232 -0.4373 -1.1062
  284MOL0     H38330   7.077   4.854  11.218 -0.2208 -1.6288 -0.5803
  284MOL0     H38331   7.147   4.962  11.094  2.4615  0.6191 -0.4974
  284MOL0     H38332   6.982   4.769  11.051 -0.1946 -1.2454  2.1515
  284MOL0     H38333   7.119   4.656  11.096 -0.3863 -2.0416 -3.8239
  284MOL0     H38334   7.227   4.665  10.911 -0.1786 -0.0794 -5.4892
  284MOL0     H38335   7.221   4.851  10.908  1.0505  0.6454 -0.5669
  284MOL0     H38336   7.028   4.673  10.765  3.4678 -2.0218  3.0327
  284MOL0     H38337   7.141   4.788  10.708  1.5810  1.6798  1.3851
  284MOL0     H38338   6.826   5.029  10.839  1.3648  0.7260  0.1809
  284MOL0     H38339   7.186   5.075  11.280 -0.9667 -3.6215  1.1112
  284MOL0     H38340   7.337   5.258  11.365 -1.9653 -1.2947 -0.2428
  285MOL0     O38341   6.778   6.438   5.628 -1.0876  0.1517 -0.6014
  285MOL0     C38342   6.814   6.337   5.697 -0.2445  0.0627  0.5524
  285MOL0     O38343   6.873   6.340   5.818  0.3760 -0.2609 -0.4667
  285MOL0     C38344   6.919   6.444   5.895  0.1793  0.6187  0.2003
  285MOL0     C38345   6.965   6.397   6.020 -0.6346 -1.2178 -0.0931
  285MOL0     C38346   7.021   6.488   6.105 -0.7789  0.0775  0.1277
  285MOL0     C38347   7.044   6.625   6.068  0.1497  0.1616  0.2967
  285MOL0     O38348   7.100   6.703   6.167  0.4957 -0.0883  0.5344
  285MOL0     C38349   7.170   6.819   6.124 -0.0388 -0.5095 -0.0347
  285MOL0     C38350   7.235   6.890   6.242 -0.6370 -0.8041 -0.4505
  285MOL0     C38351   7.166   6.874   6.380  0.5578 -0.2017 -0.1085
  285MOL0     C38352   7.212   6.984   6.484 -0.9306  0.0659 -0.0474
  285MOL0     C38353   7.157   6.942   6.620 -0.2082 -0.6584  0.3674
  285MOL0     C38354   7.147   7.050   6.722  0.9093 -0.4640  0.2751
  285MOL0     C38355   7.087   7.004   6.849  0.2777 -0.2994  0.3722
  285MOL0     C38356   7.038   7.120   6.938 -0.2963  0.3591  0.0745
  285MOL0     N38357   6.897   7.160   6.925  0.3650  0.6809 -0.4468
  285MOL0     C38358   6.808   7.122   7.027  0.9896  0.0575 -0.4018
  285MOL0     C38359   6.693   7.173   6.972 -0.1808  0.4666 -0.1909
  285MOL0     C38360   6.569   7.172   7.061 -0.5000  0.4390  0.4944
  285MOL0     C38361   6.459   7.260   7.009 -0.1076 -1.1835 -0.7406
  285MOL0     C38362   6.381   7.340   7.118 -0.5864 -0.3751 -0.1000
  285MOL0     C38363   6.288   7.237   7.184 -0.6127  0.3442  0.6123
  285MOL0     O38364   6.353   7.162   7.286  0.1847  0.1288  0.5444
  285MOL0     C38365   6.377   7.218   7.409 -0.3973 -0.7800 -0.4444
  285MOL0     C38366   6.312   7.341   7.446  0.1306 -0.4885 -0.1730
  285MOL0     C38367   6.327   7.391   7.577  0.1762  0.3150 -0.6099
  285MOL0     C38368   6.236   7.514   7.598 -0.0482 -0.2811 -1.0075
  285MOL0     C38369   6.408   7.329   7.672 -0.5982  0.1525  0.5345
  285MOL0     C38370   6.416   7.362   7.814 -0.3233 -0.0796  0.6521
  285MOL0     O38371   6.526   7.295   7.875  0.2967  0.3897 -1.3874
  285MOL0     C38372   6.520   7.282   8.011 -0.0566  0.4806  1.0041
  285MOL0     C38373   6.632   7.296   8.084 -0.2012 -0.0200  0.6225
  285MOL0     C38374   6.647   7.254   8.217 -0.8401 -0.2668  0.2149
  285MOL0     C38375   6.541   7.213   8.288  0.3174 -0.0347  0.5580
  285MOL0     O38376   6.562   7.175   8.415 -0.0115 -0.0463  0.5541
  285MOL0     C38377   6.619   7.279   8.496 -0.6743 -0.6231 -0.1657
  285MOL0     C38378   6.552   7.270   8.636  1.2324 -1.0043  0.1810
  285MOL0     C38379   6.402   7.321   8.618 -0.1100 -0.5793  0.0691
  285MOL0     C38380   6.333   7.301   8.746 -0.3119  0.2983  0.3481
  285MOL0     C38381   6.237   7.409   8.773  0.4549  0.1555 -0.9279
  285MOL0     C38382   6.179   7.397   8.910  0.3604 -0.1754 -0.5452
  285MOL0     C38383   6.059   7.490   8.956  0.0948  0.4030 -0.5269
  285MOL0     C38384   6.074   7.643   8.950  0.0342 -0.3497 -0.6381
  285MOL0    Cl38385   5.922   7.745   8.951  0.0772  0.3198  0.5329
  285MOL0     C38386   6.420   7.198   8.216  1.0597  1.4210 -0.5372
  285MOL0     C38387   6.411   7.232   8.085 -0.3918  0.4209 -0.1200
  285MOL0     O38388   6.337   7.442   7.872  0.1972 -0.6948  1.2431
  285MOL0     C38389   6.476   7.210   7.632  0.0274 -0.6662  0.4734
  285MOL0     C38390   6.459   7.152   7.505  0.5475 -1.1194 -0.9753
  285MOL0     N38391   6.712   7.237   6.848 -0.7001 -0.5201  0.0388
  285MOL0     N38392   6.840   7.219   6.819 -0.0177  0.2580  0.3750
  285MOL0     C38393   6.999   6.665   5.934 -0.3592 -0.4082 -0.0275
  285MOL0     C38394   6.924   6.579   5.858 -0.6760 -0.4312 -0.1785
  285MOL0     C38395   6.802   6.197   5.638 -0.1041  0.0078 -0.2625
  285MOL0     C38396   6.842   6.088   5.702  0.5188  0.6649  0.4230
  285MOL0     C38397   6.826   5.962   5.650  0.6806 -0.4615 -0.3797
  285MOL0     C38398   6.762   5.940   5.533 -0.9123  0.3616 -0.2152
  285MOL0     O38399   6.727   5.821   5.469 -0.1377 -0.1953 -0.0477
  285MOL0     C38400   6.773   5.703   5.533  0.4372  0.2604  1.2415
  285MOL0     C38401   6.696   5.586   5.491  0.5980  0.3144 -0.2251
  285MOL0     C38402   6.554   5.603   5.519  0.3438  0.7695 -0.2997
  285MOL0     C38403   6.497   5.470   5.471 -0.8880 -0.2082  0.0825
  285MOL0     C38404   6.355   5.482   5.496  0.1271  0.2904 -0.0519
  285MOL0     C38405   6.231   5.479   5.500 -0.6212 -0.7578 -0.3138
  285MOL0     C38406   6.729   6.052   5.456  0.1971 -0.1691 -0.6325
  285MOL0     C38407   6.746   6.178   5.512 -0.1384  0.1361 -0.0529
  285MOL0     H38408   6.959   6.295   6.056 -0.0769  0.0949  4.2273
  285MOL0     H38409   7.061   6.453   6.199 -1.7508  0.2914  0.6303
  285MOL0     H38410   7.253   6.803   6.054  0.7805  3.3493 -0.1509
  285MOL0     H38411   7.102   6.887   6.073  0.2032 -1.0728 -1.1330
  285MOL0     H38412   7.337   6.853   6.256  1.3688  4.4425  1.4676
  285MOL0     H38413   7.246   6.996   6.217 -2.8977 -0.7707 -1.5301
  285MOL0     H38414   7.057   6.874   6.371  0.0962 -0.1832  3.8640
  285MOL0     H38415   7.195   6.772   6.406  4.2998  1.0907  1.4806
  285MOL0     H38416   7.320   6.981   6.496 -0.7564 -0.9321 -1.6173
  285MOL0     H38417   7.174   7.075   6.438 -2.1530 -1.8506 -3.1871
  285MOL0     H38418   7.056   6.900   6.611  0.0697 -0.8793 -5.7489
  285MOL0     H38419   7.214   6.855   6.653 -2.2218 -2.9327 -1.7216
  285MOL0     H38420   7.241   7.106   6.729 -0.2583  2.0802 -2.1160
  285MOL0     H38421   7.082   7.119   6.667  1.3697  1.0463  1.5444
  285MOL0     H38422   7.003   6.940   6.819  0.9469 -0.7903 -0.4714
  285MOL0     H38423   7.161   6.954   6.913 -0.3101  0.2075  1.4903
  285MOL0     H38424   7.102   7.206   6.916 -1.2723  1.0998  0.0623
  285MOL0     H38425   7.053   7.092   7.043 -3.8158 -1.7577  0.1451
  285MOL0     H38426   6.803   7.063   7.118 -0.6243  0.1542 -0.3979
  285MOL0     H38427   6.538   7.068   7.063 -1.1322  0.4916 -2.1784
  285MOL0     H38428   6.595   7.202   7.163  0.1057  0.8928  0.2148
  285MOL0     H38429   6.406   7.205   6.931  1.4139 -1.8346 -1.3398
  285MOL0     H38430   6.515   7.341   6.963 -3.4511  3.6024  2.5985
  285MOL0     H38431   6.315   7.410   7.066  0.2880 -1.2278 -2.5217
  285MOL0     H38432   6.450   7.388   7.187 -0.5989 -1.1931  0.4955
  285MOL0     H38433   6.243   7.167   7.113 -2.3201  2.4521 -0.5104
  285MOL0     H38434   6.197   7.292   7.210 -0.5838  1.2458 -1.0742
  285MOL0     H38435   6.237   7.386   7.381  1.0050  1.0097 -0.1905
  285MOL0     H38436   6.159   7.535   7.524 -3.6583  0.5854  2.6414
  285MOL0     H38437   6.177   7.501   7.689 -0.4334  0.7903 -1.0988
  285MOL0     H38438   6.298   7.604   7.606 -0.4459  0.0120 -1.1991
  285MOL0     H38439   6.713   7.340   8.027  0.7578 -0.2965  1.7449
  285MOL0     H38440   6.751   7.254   8.250 -0.0026  1.6211 -2.1590
  285MOL0     H38441   6.723   7.248   8.510 -0.5616  0.0592  0.6536
  285MOL0     H38442   6.605   7.380   8.457 -1.9109 -1.4344 -1.9283
  285MOL0     H38443   6.545   7.169   8.679 -0.5030 -1.8490 -1.8552
  285MOL0     H38444   6.608   7.340   8.698 -1.3940  0.6666  0.8148
  285MOL0     H38445   6.349   7.263   8.542 -2.5601  0.0657  1.1707
  285MOL0     H38446   6.398   7.425   8.586  0.9881 -1.3597 -2.9675
  285MOL0     H38447   6.279   7.206   8.742 -0.3704  0.3592 -1.0908
  285MOL0     H38448   6.407   7.299   8.826  0.5879 -1.3709 -0.4632
  285MOL0     H38449   6.163   7.385   8.696  0.6731 -2.1986 -0.4898
  285MOL0     H38450   6.255   7.516   8.762 -2.2038  0.6177 -1.4362
  285MOL0     H38451   6.142   7.294   8.910  0.5876 -0.3307  1.9260
  285MOL0     H38452   6.260   7.399   8.983 -0.8282 -2.1769  0.9339
  285MOL0     H38453   6.031   7.461   9.058  1.0301  0.5528 -0.2263
  285MOL0     H38454   5.976   7.469   8.887  1.7980 -0.5760 -2.3804
  285MOL0     H38455   6.130   7.672   8.861  0.9664  3.0059  0.8931
  285MOL0     H38456   6.144   7.654   9.034 -0.2354 -3.1687  0.0516
  285MOL0     H38457   6.337   7.147   8.265  0.1836  0.0785 -3.2035
  285MOL0     H38458   6.336   7.193   8.017  2.5014 -5.2561 -0.6530
  285MOL0     H38459   6.543   7.153   7.696  2.3804  0.5276 -0.7878
  285MOL0     H38460   6.513   7.063   7.475 -1.0130 -1.3737 -3.2609
  285MOL0     H38461   7.007   6.770   5.906 -0.5458  0.3439  2.4525
  285MOL0     H38462   6.881   6.623   5.768  2.2468  0.8828 -1.0522
  285MOL0     H38463   6.895   6.097   5.796  0.9835  0.5819  0.1706
  285MOL0     H38464   6.859   5.884   5.717  0.7417 -1.5051 -1.5863
  285MOL0     H38465   6.877   5.688   5.503  0.2595 -0.5242  0.9954
  285MOL0     H38466   6.768   5.712   5.641  3.5338  1.4467  1.3968
  285MOL0     H38467   6.741   5.494   5.531  2.8723  1.6311  0.4036
  285MOL0     H38468   6.714   5.571   5.384 -0.9778 -0.1772 -0.4426
  285MOL0     H38469   6.531   5.688   5.454 -0.1769  1.4143  0.7047
  285MOL0     H38470   6.542   5.622   5.626  1.3464 -1.8974  0.3612
  285MOL0     H38471   6.528   5.383   5.529 -3.6003  1.0370  3.8005
  285MOL0     H38472   6.509   5.451   5.364 -0.4212 -2.8317  0.5472
  285MOL0     H38473   6.124   5.480   5.511 -0.8530  1.4555 -1.9872
  285MOL0     H38474   6.686   6.035   5.357  1.4399 -1.8809 -0.9188
  285MOL0     H38475   6.725   6.261   5.446 -0.9306 -1.5349 -2.0139
  286MOL0     O38476   4.471   7.281   5.039  0.4078 -0.8641  0.6162
  286MOL0     C38477   4.505   7.166   5.001 -0.9192 -0.7703  1.2125
  286MOL0     O38478   4.515   7.125   4.867 -0.0182  0.0505 -0.9064
  286MOL0     C38479   4.474   7.218   4.769  0.2212  0.2905  0.1219
  286MOL0     C38480   4.360   7.200   4.691  0.0623 -0.0324  0.6883
  286MOL0     C38481   4.329   7.290   4.593  0.2383 -0.9573  0.0483
  286MOL0     C38482   4.410   7.398   4.565  0.4834  0.1189 -0.1272
  286MOL0     O38483   4.385   7.474   4.461  0.2645  0.2292 -0.5505
  286MOL0     C38484   4.391   7.419   4.328  0.4625 -0.4745 -0.6166
  286MOL0     C38485   4.526   7.418   4.255 -0.4983 -0.1612 -0.2621
  286MOL0     C38486   4.583   7.559   4.249 -0.5862 -0.4251  0.0891
  286MOL0     C38487   4.549   7.636   4.119  0.3059  0.2505  0.3624
  286MOL0     C38488   4.548   7.784   4.159 -0.4018  0.7257  1.1578
  286MOL0     C38489   4.467   7.862   4.055  0.4232 -0.2363 -0.5278
  286MOL0     C38490   4.481   8.010   4.077  0.9807  1.2972  0.0477
  286MOL0     C38491   4.385   8.092   3.980 -0.5115 -0.0005  0.3471
  286MOL0     N38492   4.440   8.094   3.842  0.2901 -0.5483 -0.2452
  286MOL0     C38493   4.394   8.002   3.751 -0.5750  0.3812  0.0209
  286MOL0     C38494   4.496   7.996   3.662 -0.6717 -1.1439  0.0695
  286MOL0     C38495   4.486   7.926   3.515 -0.1691 -0.5764 -0.8044
  286MOL0     C38496   4.442   7.786   3.540  0.1878 -0.9267 -0.5606
  286MOL0     C38497   4.359   7.732   3.423  0.3155  0.7762 -0.2135
  286MOL0     C38498   4.375   7.572   3.406  0.7576 -0.2396 -0.5686
  286MOL0     O38499   4.248   7.512   3.359  0.6612  0.0848  0.2972
  286MOL0     C38500   4.150   7.491   3.457 -0.7986  0.2100  1.0203
  286MOL0     C38501   4.018   7.479   3.413 -0.3911 -0.0511 -0.2406
  286MOL0     C38502   3.907   7.471   3.498 -0.0383  0.5318  0.8392
  286MOL0     C38503   3.761   7.483   3.435  0.0674  0.1097 -0.6217
  286MOL0     C38504   3.937   7.461   3.630  0.7482  0.3157 -0.4367
  286MOL0     C38505   3.837   7.444   3.734 -0.1760 -0.2269 -0.2375
  286MOL0     O38506   3.813   7.539   3.818 -0.0290 -0.6932 -0.2147
  286MOL0     C38507   3.723   7.515   3.918  0.1559  0.3578 -0.1141
  286MOL0     C38508   3.769   7.468   4.042  0.0671  0.1848 -0.1987
  286MOL0     C38509   3.680   7.458   4.149 -0.2186 -0.2976 -0.7204
  286MOL0     C38510   3.547   7.485   4.128  0.1823 -0.1027  0.4439
  286MOL0     O38511   3.475   7.491   4.241 -0.2049  0.0481 -0.0922
  286MOL0     C38512   3.385   7.381   4.267 -0.3790 -0.3253  0.2937
  286MOL0     C38513   3.240   7.417   4.212  0.5853 -0.2402 -0.2172
  286MOL0     C38514   3.134   7.312   4.251 -0.0653  0.3097 -0.5193
  286MOL0     C38515   3.098   7.322   4.398  0.5907 -0.3745  0.6390
  286MOL0     C38516   2.948   7.352   4.418 -0.4556  0.2582 -0.1147
  286MOL0     C38517   2.910   7.397   4.559 -0.3165  0.3953 -0.2767
  286MOL0     C38518   2.760   7.415   4.580 -0.1101  0.0239  0.2688
  286MOL0     C38519   2.716   7.555   4.542  0.7822 -0.9491 -0.0738
  286MOL0    Cl38520   2.548   7.565   4.592  0.8567 -0.6700  0.6024
  286MOL0     C38521   3.491   7.526   4.005 -0.2407 -0.3238  0.5252
  286MOL0     C38522   3.589   7.544   3.894  0.9137 -0.4965 -0.7427
  286MOL0     O38523   3.775   7.343   3.725  0.5578 -1.0636  0.3071
  286MOL0     C38524   4.069   7.460   3.679 -1.0810  0.5803  1.0559
  286MOL0     C38525   4.176   7.495   3.603  0.4588 -0.7717 -1.0094
  286MOL0     N38526   4.593   8.086   3.695  0.2924  0.3679  0.6070
  286MOL0     N38527   4.560   8.145   3.802  0.7063  0.2042 -0.1994
  286MOL0     C38528   4.519   7.419   4.641  0.3013 -0.3634 -0.0279
  286MOL0     C38529   4.553   7.330   4.742  0.9765  0.1144 -0.7366
  286MOL0     C38530   4.580   7.091   5.099 -0.5857  0.5204 -0.3895
  286MOL0     C38531   4.605   7.145   5.229 -0.2321  0.6065 -0.0536
  286MOL0     C38532   4.683   7.076   5.319 -0.4246  0.5343 -0.1697
  286MOL0     C38533   4.725   6.945   5.287 -0.9923  0.0509 -0.4124
  286MOL0     O38534   4.792   6.892   5.391  0.4441 -0.5491 -0.0843
  286MOL0     C38535   4.840   6.754   5.383  0.7965 -0.0971 -0.3876
  286MOL0     C38536   4.899   6.717   5.520 -0.6659 -0.3759  0.3007
  286MOL0     C38537   4.807   6.752   5.639  0.3614 -0.7299 -0.5012
  286MOL0     C38538   4.882   6.847   5.741 -0.5037 -1.0716  0.5158
  286MOL0     C38539   4.889   6.983   5.680  0.5142 -0.3050 -0.2956
  286MOL0     C38540   4.895   7.093   5.642  0.2317 -0.4075  0.3252
  286MOL0     C38541   4.703   6.894   5.168  0.4754  0.1158 -0.8667
  286MOL0     C38542   4.623   6.963   5.073 -0.1584 -0.2387  0.6340
  286MOL0     H38543   4.293   7.116   4.709 -0.3681  0.0464 -0.4426
  286MOL0     H38544   4.239   7.294   4.533 -0.7884 -1.0868  1.5216
  286MOL0     H38545   4.353   7.317   4.333 -3.0911  0.7166  0.2169
  286MOL0     H38546   4.323   7.466   4.255  0.0751 -3.2721 -2.1890
  286MOL0     H38547   4.594   7.361   4.319  0.2823  0.7609 -0.2608
  286MOL0     H38548   4.515   7.372   4.157  1.6173 -2.0949  0.3303
  286MOL0     H38549   4.537   7.613   4.332 -0.6717 -2.1453  1.1972
  286MOL0     H38550   4.686   7.549   4.287 -1.1543 -0.9183  1.5717
  286MOL0     H38551   4.624   7.619   4.042  1.3091 -3.3118  1.9221
  286MOL0     H38552   4.456   7.590   4.083  1.3767 -0.0282 -2.2828
  286MOL0     H38553   4.506   7.808   4.256 -0.4476  0.4611  1.2036
  286MOL0     H38554   4.652   7.819   4.154 -0.6734  1.5386  1.1704
  286MOL0     H38555   4.508   7.832   3.958  2.9709  1.2598 -0.0197
  286MOL0     H38556   4.365   7.823   4.052 -0.5882  2.2247 -3.5783
  286MOL0     H38557   4.463   8.036   4.181  1.5011 -2.4999  1.2227
  286MOL0     H38558   4.584   8.031   4.045  0.8639  1.3356 -0.3048
  286MOL0     H38559   4.370   8.196   4.008 -3.4234 -0.2052 -0.0522
  286MOL0     H38560   4.283   8.052   3.976  0.4368 -2.8665  1.6110
  286MOL0     H38561   4.298   7.952   3.736 -0.1511  0.5068 -4.1878
  286MOL0     H38562   4.424   7.977   3.441  1.0000  2.1496 -0.0433
  286MOL0     H38563   4.590   7.930   3.483 -0.1469  2.8059 -0.6536
  286MOL0     H38564   4.378   7.783   3.629  1.6864 -2.9336  0.5495
  286MOL0     H38565   4.529   7.726   3.569  0.3041 -0.6475 -0.3225
  286MOL0     H38566   4.394   7.764   3.324 -0.7105 -1.6546 -1.4475
  286MOL0     H38567   4.255   7.757   3.446 -0.3100 -2.2635  0.7754
  286MOL0     H38568   4.420   7.530   3.496 -0.2600 -3.3545 -1.3960
  286MOL0     H38569   4.447   7.570   3.324  1.6702  4.4452 -0.2074
  286MOL0     H38570   3.994   7.494   3.308  0.0157 -0.8336 -0.4506
  286MOL0     H38571   3.704   7.421   3.505  0.5664  1.5590  1.1359
  286MOL0     H38572   3.711   7.578   3.454 -0.5372 -0.5255  1.1256
  286MOL0     H38573   3.750   7.451   3.331  0.4659 -1.6578 -0.1623
  286MOL0     H38574   3.870   7.432   4.058 -0.9101 -1.8389  1.9713
  286MOL0     H38575   3.714   7.412   4.242  4.0764 -0.6481 -2.2169
  286MOL0     H38576   3.414   7.288   4.216  0.6251  0.3963 -0.4973
  286MOL0     H38577   3.373   7.347   4.370 -3.4645 -0.6710 -0.0810
  286MOL0     H38578   3.219   7.519   4.243  2.7600 -0.4924  2.4128
  286MOL0     H38579   3.239   7.419   4.103  1.2119 -0.6255 -0.2342
  286MOL0     H38580   3.172   7.212   4.229 -1.1447 -0.3049  0.2892
  286MOL0     H38581   3.048   7.326   4.184  0.0381  0.2214 -0.6723
  286MOL0     H38582   3.112   7.227   4.450 -3.0562 -0.8606  1.0450
  286MOL0     H38583   3.166   7.396   4.438 -0.0994 -1.7935  5.0009
  286MOL0     H38584   2.902   7.254   4.399 -0.4530  0.7821 -3.4067
  286MOL0     H38585   2.909   7.418   4.340  0.3601  1.5140  0.5159
  286MOL0     H38586   2.940   7.320   4.630  0.0383 -4.0340 -4.7432
  286MOL0     H38587   2.972   7.485   4.580  0.4518 -0.2052  0.0167
  286MOL0     H38588   2.727   7.388   4.681 -0.8236  0.5624  0.1914
  286MOL0     H38589   2.712   7.338   4.519  4.1359 -3.1745  0.4911
  286MOL0     H38590   2.729   7.573   4.435  1.7130  3.3766  0.6056
  286MOL0     H38591   2.760   7.631   4.607 -2.5502  2.2201 -1.2302
  286MOL0     H38592   3.389   7.561   3.991  0.2304  0.9390  0.1193
  286MOL0     H38593   3.555   7.582   3.798 -3.6512 -0.7977  0.5641
  286MOL0     H38594   4.090   7.427   3.781 -2.0114 -1.5592  0.6061
  286MOL0     H38595   4.272   7.499   3.654 -0.8034 -3.5837  1.9153
  286MOL0     H38596   4.573   7.512   4.630 -1.1158  0.8017  2.1455
  286MOL0     H38597   4.633   7.355   4.810  1.7506 -0.8115 -1.2813
  286MOL0     H38598   4.572   7.237   5.275 -2.7565 -1.4005  2.5459
  286MOL0     H38599   4.721   7.123   5.410 -1.7694  0.2805  0.5566
  286MOL0     H38600   4.754   6.689   5.366  0.9399 -1.0974  2.2647
  286MOL0     H38601   4.912   6.738   5.302  1.2947 -0.6435  0.1522
  286MOL0     H38602   4.996   6.762   5.541 -0.5164  0.4539 -1.9765
  286MOL0     H38603   4.915   6.609   5.525  5.6928  0.2187  4.0747
  286MOL0     H38604   4.802   6.656   5.691  0.3673  0.3020  1.5054
  286MOL0     H38605   4.709   6.784   5.605 -0.3796 -1.4434  0.8653
  286MOL0     H38606   4.984   6.809   5.756  0.2513  0.9190  0.7196
  286MOL0     H38607   4.828   6.846   5.836  0.3267  0.2698  1.0203
  286MOL0     H38608   4.892   7.197   5.614  1.2246 -0.5100 -0.2048
  286MOL0     H38609   4.739   6.795   5.140  1.8211  0.7449 -1.4420
  286MOL0     H38610   4.615   6.927   4.971 -0.6346 -1.4469  1.0788
  287MOL0     O38611   3.923  10.396   7.588 -0.1443  0.1467  0.4886
  287MOL0     C38612   4.017  10.464   7.542  0.5002 -0.5311 -0.3950
  287MOL0     O38613   4.134  10.422   7.478  0.3795 -0.3688 -0.5291
  287MOL0     C38614   4.151  10.283   7.461  0.4577 -0.4422 -0.0471
  287MOL0     C38615   4.120  10.193   7.568 -0.2986 -0.6687  0.4450
  287MOL0     C38616   4.131  10.058   7.537 -0.1624 -0.3484  0.3421
  287MOL0     C38617   4.187  10.016   7.410 -0.5834 -0.5865 -0.1658
  287MOL0     O38618   4.180   9.875   7.396  0.3487 -1.0905  0.7149
  287MOL0     C38619   4.268   9.812   7.306 -0.8276 -0.2165  0.5346
  287MOL0     C38620   4.409   9.838   7.356 -0.5464 -0.5176  0.1930
  287MOL0     C38621   4.502   9.729   7.323  0.5922  0.2095  1.1538
  287MOL0     C38622   4.510   9.711   7.168 -0.4684  0.3637 -0.3146
  287MOL0     C38623   4.642   9.636   7.133 -0.4069 -0.1015 -0.0450
  287MOL0     C38624   4.678   9.616   6.985 -0.4556  0.2283  0.1289
  287MOL0     C38625   4.618   9.712   6.877 -0.8474  0.3072  0.2456
  287MOL0     C38626   4.643   9.676   6.731 -0.5940  0.7676  0.9753
  287MOL0     N38627   4.584   9.768   6.634 -0.0174 -0.2536 -0.3997
  287MOL0     C38628   4.631   9.879   6.584  0.1267  0.3352  0.1756
  287MOL0     C38629   4.533   9.916   6.495  0.7618  0.2066  0.6488
  287MOL0     C38630   4.520  10.028   6.405 -0.3266 -1.1910 -0.1366
  287MOL0     C38631   4.428  10.143   6.469 -1.1449 -0.5992  0.7469
  287MOL0     C38632   4.488  10.215   6.586 -0.4469  0.1155 -0.6683
  287MOL0     C38633   4.411  10.339   6.612  0.5482 -0.1221  0.0470
  287MOL0     O38634   4.418  10.429   6.503  0.2640 -0.1729  0.3341
  287MOL0     C38635   4.380  10.560   6.533 -0.0738 -0.1824  0.0747
  287MOL0     C38636   4.449  10.667   6.470 -0.1463  0.2941 -0.1457
  287MOL0     C38637   4.399  10.793   6.480  0.3226 -0.1359 -0.0072
  287MOL0     C38638   4.483  10.894   6.402  0.1928 -0.0835 -0.1086
  287MOL0     C38639   4.285  10.828   6.557 -0.2150  0.7140  0.5408
  287MOL0     C38640   4.247  10.969   6.585 -0.3104  0.3804 -0.2508
  287MOL0     O38641   4.232  11.039   6.472  0.1565  0.2590 -0.5386
  287MOL0     C38642   4.187  11.171   6.473  0.0488  1.1966  0.8000
  287MOL0     C38643   4.220  11.251   6.364 -0.9104  0.6335 -0.0967
  287MOL0     C38644   4.189  11.389   6.362  0.8515  0.2266 -0.2487
  287MOL0     C38645   4.097  11.437   6.460 -0.1901 -0.5489  0.5419
  287MOL0     O38646   4.053  11.563   6.444 -0.2368  0.3218  0.0462
  287MOL0     C38647   3.988  11.618   6.557  0.5377 -0.3109  0.6220
  287MOL0     C38648   3.917  11.746   6.499 -0.9922  1.0834  0.5316
  287MOL0     C38649   3.863  11.847   6.591  0.3964 -0.1762  0.4239
  287MOL0     C38650   3.953  11.895   6.695 -0.9999  0.1685  0.9649
  287MOL0     C38651   3.885  12.004   6.778  0.1602  0.6479 -0.1756
  287MOL0     C38652   3.758  11.972   6.859 -0.1700  1.1640 -0.0235
  287MOL0     C38653   3.782  11.879   6.981  0.5048 -1.0896 -0.0861
  287MOL0     C38654   3.674  11.872   7.082 -0.5718 -0.6757  0.0841
  287MOL0    Cl38655   3.518  11.793   7.010 -0.4746 -0.3494 -0.1066
  287MOL0     C38656   4.041  11.345   6.554 -0.2136  0.0418  0.1972
  287MOL0     C38657   4.096  11.219   6.570  0.7255 -0.1935  0.2769
  287MOL0     O38658   4.227  10.999   6.705  0.3853  0.4355 -0.0852
  287MOL0     C38659   4.223  10.731   6.630  0.0453  0.0546  0.5205
  287MOL0     C38660   4.267  10.597   6.608 -0.5126 -0.2132 -0.6826
  287MOL0     N38661   4.426   9.830   6.502 -0.5467 -0.2867  0.0895
  287MOL0     N38662   4.457   9.743   6.585 -0.4020 -0.0664  0.2062
  287MOL0     C38663   4.234  10.118   7.323 -0.1895  0.0229 -0.1953
  287MOL0     C38664   4.221  10.248   7.348  0.2695  0.6815  0.6218
  287MOL0     C38665   3.999  10.608   7.552  0.2774 -0.5299 -0.1215
  287MOL0     C38666   4.103  10.694   7.504  0.1350  0.5652 -0.2390
  287MOL0     C38667   4.097  10.831   7.550 -1.2056  0.0485 -0.7455
  287MOL0     C38668   3.984  10.897   7.610 -0.2545  0.4936 -0.6887
  287MOL0     O38669   3.978  11.032   7.650  0.5876 -0.1909 -0.4942
  287MOL0     C38670   4.082  11.122   7.605 -0.3901 -0.1603 -0.4937
  287MOL0     C38671   4.031  11.268   7.616 -1.0344  0.5907  0.2040
  287MOL0     C38672   4.139  11.378   7.600  0.9959 -0.2957  0.0520
  287MOL0     C38673   4.223  11.392   7.727 -0.6233 -0.0990 -0.4998
  287MOL0     C38674   4.330  11.481   7.700  0.1163  0.0184  0.2083
  287MOL0     C38675   4.432  11.546   7.685  0.0225 -0.2443  0.4328
  287MOL0     C38676   3.883  10.805   7.652 -0.4180  0.5568  0.3177
  287MOL0     C38677   3.892  10.665   7.628 -0.2953  0.3635 -0.4645
  287MOL0     H38678   4.087  10.223   7.667  1.7575 -2.2034  1.6563
  287MOL0     H38679   4.109   9.980   7.609  1.2522 -0.7618  0.3618
  287MOL0     H38680   4.236   9.707   7.308 -1.9542  0.1104  0.2484
  287MOL0     H38681   4.258   9.851   7.204  2.4688  0.4420  0.3667
  287MOL0     H38682   4.450   9.931   7.317  1.3256 -1.7697 -1.0261
  287MOL0     H38683   4.404   9.852   7.464  2.3800 -0.9535  0.4641
  287MOL0     H38684   4.604   9.748   7.359  0.8334 -1.9901  1.7781
  287MOL0     H38685   4.464   9.644   7.381 -0.2281 -1.1390 -1.1827
  287MOL0     H38686   4.429   9.653   7.123  0.0975 -1.1098  0.4886
  287MOL0     H38687   4.510   9.807   7.116  0.6581  1.9492  2.3732
  287MOL0     H38688   4.722   9.692   7.182 -0.0359  0.5799 -1.4095
  287MOL0     H38689   4.657   9.538   7.181  1.4783  1.1101  1.9947
  287MOL0     H38690   4.784   9.597   6.967 -0.2949 -2.1216  2.7237
  287MOL0     H38691   4.630   9.518   6.975 -1.9219  0.6983  1.9224
  287MOL0     H38692   4.510   9.716   6.895 -0.8162 -2.2799  1.4019
  287MOL0     H38693   4.651   9.816   6.884 -2.2712  0.8617 -0.7090
  287MOL0     H38694   4.608   9.576   6.703  2.6970  0.1046 -1.2184
  287MOL0     H38695   4.750   9.665   6.712 -0.6186  2.7849 -0.6409
  287MOL0     H38696   4.722   9.936   6.600  0.6520 -0.2528 -0.6273
  287MOL0     H38697   4.612  10.078   6.373 -2.5406  2.4666 -1.4860
  287MOL0     H38698   4.472   9.999   6.311  2.9916  0.7535 -2.6577
  287MOL0     H38699   4.333  10.102   6.504 -0.9484 -0.6710  1.2034
  287MOL0     H38700   4.400  10.212   6.388  2.0518 -0.8378 -0.7258
  287MOL0     H38701   4.590  10.244   6.560 -1.2991  1.2089 -3.0138
  287MOL0     H38702   4.497  10.152   6.676  1.6599  1.9837  0.5386
  287MOL0     H38703   4.444  10.386   6.705  1.1280 -1.3784  0.4971
  287MOL0     H38704   4.309  10.305   6.633  0.9459 -0.1866  2.1497
  287MOL0     H38705   4.529  10.650   6.399 -0.9636  0.1924 -1.0596
  287MOL0     H38706   4.531  10.978   6.453 -0.2774  0.0462  0.1364
  287MOL0     H38707   4.562  10.833   6.357  0.2831 -1.1125  1.3304
  287MOL0     H38708   4.420  10.942   6.327 -2.1787 -4.7507 -1.5266
  287MOL0     H38709   4.297  11.211   6.299  1.2539  1.8063  1.5711
  287MOL0     H38710   4.229  11.456   6.287 -1.0340  4.0682  1.8888
  287MOL0     H38711   3.916  11.557   6.612 -0.0164  0.9873  1.3851
  287MOL0     H38712   4.064  11.645   6.630 -0.3019  0.6324  1.1691
  287MOL0     H38713   4.007  11.793   6.457  0.7037  1.7264  4.3628
  287MOL0     H38714   3.832  11.719   6.436 -0.3369  1.1064 -0.3920
  287MOL0     H38715   3.770  11.809   6.635 -0.1009 -0.2563 -0.6636
  287MOL0     H38716   3.835  11.925   6.520  1.4353 -0.2971 -0.1463
  287MOL0     H38717   3.976  11.816   6.767  2.3311  0.3390  0.2374
  287MOL0     H38718   4.042  11.932   6.643 -3.0171  2.3836 -1.1563
  287MOL0     H38719   3.860  12.079   6.702  1.0672 -0.1829 -1.3312
  287MOL0     H38720   3.954  12.053   6.847 -0.1469 -1.6723  1.9423
  287MOL0     H38721   3.725  12.068   6.900 -1.5196  0.8597 -0.3539
  287MOL0     H38722   3.674  11.943   6.796 -0.6775 -0.0698  1.1811
  287MOL0     H38723   3.882  11.896   7.020  0.5652  1.3363 -1.1714
  287MOL0     H38724   3.786  11.775   6.945 -1.6702 -1.7835  1.4351
  287MOL0     H38725   3.657  11.975   7.116 -1.4088 -1.2868  1.6767
  287MOL0     H38726   3.728  11.812   7.156  4.9729  1.4955 -1.6798
  287MOL0     H38727   3.950  11.356   6.613 -2.0856 -1.4403 -2.2078
  287MOL0     H38728   4.045  11.145   6.631  0.8555  0.6446  1.4344
  287MOL0     H38729   4.142  10.756   6.697 -0.7670 -0.3657 -0.2815
  287MOL0     H38730   4.210  10.521   6.660 -0.5802  0.5248  0.3502
  287MOL0     H38731   4.290  10.094   7.233  2.9346  1.3088  1.2821
  287MOL0     H38732   4.252  10.321   7.274 -0.1225  0.7812  0.5523
  287MOL0     H38733   4.198  10.658   7.465 -0.0297  0.4724 -0.5570
  287MOL0     H38734   4.182  10.897   7.534  2.3491 -2.8639  3.5785
  287MOL0     H38735   4.165  11.104   7.674 -1.6607 -0.1967  1.0549
  287MOL0     H38736   4.117  11.102   7.503 -1.7141  1.6520 -1.3672
  287MOL0     H38737   3.981  11.285   7.711 -1.0791 -0.8252  0.4624
  287MOL0     H38738   3.970  11.279   7.526 -2.4287 -1.9899  0.7391
  287MOL0     H38739   4.091  11.472   7.573 -3.4309 -2.9393 -2.4138
  287MOL0     H38740   4.202  11.358   7.513  3.9017 -1.2269  2.2104
  287MOL0     H38741   4.278  11.305   7.764  2.7577  0.2979 -3.9697
  287MOL0     H38742   4.167  11.435   7.810 -0.1550 -1.4069  0.5424
  287MOL0     H38743   4.526  11.593   7.664  0.6830 -1.8497 -0.3626
  287MOL0     H38744   3.804  10.856   7.707 -2.6664 -2.1824 -0.1402
  287MOL0     H38745   3.809  10.598   7.646 -1.4412  2.1048  0.9519
  288MOL0     O38746   2.630   7.441   9.483 -0.5798  0.8650  0.5341
  288MOL0     C38747   2.634   7.449   9.360  1.0138  1.1013 -1.0692
  288MOL0     O38748   2.524   7.467   9.269 -0.1438  0.1817  0.1135
  288MOL0     C38749   2.390   7.481   9.309  0.0832  0.8317  0.2745
  288MOL0     C38750   2.298   7.526   9.202 -0.7214 -0.3798  0.3205
  288MOL0     C38751   2.166   7.550   9.234 -0.0603  0.1963 -0.0350
  288MOL0     C38752   2.110   7.532   9.362  0.8474 -0.5048  0.4252
  288MOL0     O38753   1.977   7.562   9.381 -0.4353  0.3976 -0.1566
  288MOL0     C38754   1.905   7.534   9.502  0.2095 -0.4565 -0.1306
  288MOL0     C38755   1.830   7.405   9.473 -0.3354 -0.2523 -0.4027
  288MOL0     C38756   1.696   7.424   9.401 -0.1747 -0.8987  0.5664
  288MOL0     C38757   1.613   7.292   9.417  1.0850 -0.1127  0.3643
  288MOL0     C38758   1.480   7.298   9.342  0.4612 -1.0790 -0.0113
  288MOL0     C38759   1.409   7.173   9.367  0.5222  0.5272  0.1513
  288MOL0     C38760   1.484   7.038   9.382  0.5439  0.8017 -0.3966
  288MOL0     C38761   1.558   7.005   9.251 -0.0511  0.2045  0.2173
  288MOL0     N38762   1.482   7.025   9.126  0.3530  0.4093  0.5049
  288MOL0     C38763   1.525   7.110   9.022  1.6816  0.7814 -0.3308
  288MOL0     C38764   1.439   7.090   8.927  0.5496  0.6454  0.6231
  288MOL0     C38765   1.445   7.129   8.782  0.6827  0.0021 -0.6966
  288MOL0     C38766   1.478   7.274   8.763  1.1821  0.5681  0.8799
  288MOL0     C38767   1.501   7.307   8.614  0.6484  0.0205 -0.8489
  288MOL0     C38768   1.496   7.452   8.589 -0.0509 -0.6473 -0.4769
  288MOL0     O38769   1.438   7.469   8.465  0.2004  1.2717  0.5914
  288MOL0     C38770   1.446   7.584   8.393  0.6193  0.3245  0.1623
  288MOL0     C38771   1.362   7.619   8.288  0.4463 -1.0210 -0.7625
  288MOL0     C38772   1.383   7.734   8.199  0.2735  0.3542 -0.1762
  288MOL0     C38773   1.284   7.747   8.083 -0.4963  0.5961  0.8134
  288MOL0     C38774   1.478   7.833   8.235 -0.7839 -0.0725  0.2403
  288MOL0     C38775   1.501   7.967   8.174 -0.0718  0.0322 -0.1183
  288MOL0     O38776   1.416   8.002   8.072 -0.4039 -0.3920 -0.1745
  288MOL0     C38777   1.383   8.131   8.054 -0.0055  0.2132  0.3780
  288MOL0     C38778   1.384   8.225   8.160  0.2651 -0.5089 -0.2786
  288MOL0     C38779   1.323   8.348   8.131  0.1165 -0.3482  0.1624
  288MOL0     C38780   1.282   8.388   8.000  0.4140  0.4309 -0.2851
  288MOL0     O38781   1.228   8.514   7.985 -0.1705 -0.0004  0.3610
  288MOL0     C38782   1.325   8.625   8.004  0.4768  0.8506 -0.7559
  288MOL0     C38783   1.289   8.735   7.920  1.0001 -0.4010 -0.5014
  288MOL0     C38784   1.372   8.862   7.952  0.3744  0.5079  0.3778
  288MOL0     C38785   1.335   8.921   8.080 -0.8213 -0.1810  0.1200
  288MOL0     C38786   1.391   9.067   8.081  0.6083 -0.4167 -0.9035
  288MOL0     C38787   1.286   9.159   8.019  0.4753 -0.1075  1.4188
  288MOL0     C38788   1.314   9.309   8.034 -0.2591  0.5105  0.0786
  288MOL0     C38789   1.194   9.385   7.984  0.3855 -0.1292 -0.4281
  288MOL0    Cl38790   1.226   9.558   7.977  0.0316 -0.3732  0.0969
  288MOL0     C38791   1.284   8.295   7.897 -0.8220 -0.4261 -0.3046
  288MOL0     C38792   1.334   8.165   7.929 -0.5565  0.1152  0.3274
  288MOL0     O38793   1.594   8.037   8.213 -0.1584  0.2889 -0.4138
  288MOL0     C38794   1.558   7.796   8.347 -0.0213  0.4627  0.1280
  288MOL0     C38795   1.546   7.681   8.418  0.7150  0.2408 -0.5309
  288MOL0     N38796   1.352   6.995   8.966 -0.3026  0.0937  0.0966
  288MOL0     N38797   1.364   6.965   9.086  0.3312 -0.0251 -0.7486
  288MOL0     C38798   2.202   7.497   9.467 -0.0599 -0.0217 -0.0665
  288MOL0     C38799   2.338   7.471   9.440  1.5113  0.3202 -0.1936
  288MOL0     C38800   2.762   7.464   9.287  0.3467 -0.2238  1.4631
  288MOL0     C38801   2.774   7.534   9.169  0.5673  0.8335 -0.0207
  288MOL0     C38802   2.905   7.542   9.110 -0.2764 -0.3211  0.7981
  288MOL0     C38803   3.016   7.475   9.165 -0.0016 -0.0459 -0.4262
  288MOL0     O38804   3.140   7.473   9.117 -0.4493  0.8187 -0.5005
  288MOL0     C38805   3.174   7.547   9.000 -0.0749  0.0456  0.0876
  288MOL0     C38806   3.175   7.695   9.031 -0.1448 -0.9217  0.6406
  288MOL0     C38807   3.241   7.741   9.160 -0.3979  0.3585  0.3849
  288MOL0     C38808   3.264   7.896   9.163 -0.2488  0.4740 -0.2382
  288MOL0     C38809   3.146   7.978   9.201 -0.3058 -0.2130 -0.2793
  288MOL0     C38810   3.060   8.047   9.242  0.4604  0.1189  1.5093
  288MOL0     C38811   2.999   7.406   9.284 -0.0258  0.0792 -0.1725
  288MOL0     C38812   2.872   7.401   9.346 -0.1224  0.3817 -0.5624
  288MOL0     H38813   2.343   7.540   9.104  0.4349 -4.4846  0.0960
  288MOL0     H38814   2.106   7.589   9.152 -0.1500  1.5188  0.6278
  288MOL0     H38815   1.978   7.527   9.584 -1.0324  0.4045  1.0930
  288MOL0     H38816   1.829   7.607   9.530  0.7987  0.6545 -1.3507
  288MOL0     H38817   1.889   7.338   9.409  0.3084 -0.7247  0.6612
  288MOL0     H38818   1.818   7.350   9.567  0.5612  0.1173 -0.0617
  288MOL0     H38819   1.635   7.508   9.435  2.0813  1.5345 -1.0390
  288MOL0     H38820   1.722   7.443   9.297 -2.1680 -0.1847  0.1422
  288MOL0     H38821   1.681   7.209   9.398 -0.6006 -1.1746 -1.3960
  288MOL0     H38822   1.582   7.281   9.522 -2.8503  1.2910 -0.4517
  288MOL0     H38823   1.435   7.391   9.378  1.6742  0.6315 -2.6008
  288MOL0     H38824   1.494   7.312   9.235  1.5989  0.2474  0.2792
  288MOL0     H38825   1.351   7.189   9.458 -0.4675 -1.3351 -0.0999
  288MOL0     H38826   1.336   7.150   9.289  0.3722 -1.6796  0.8969
  288MOL0     H38827   1.555   7.026   9.465  0.3337 -0.5615 -0.3869
  288MOL0     H38828   1.404   6.967   9.403 -1.5641  2.2958 -2.8452
  288MOL0     H38829   1.591   6.901   9.259 -1.0195 -0.2307 -1.1074
  288MOL0     H38830   1.652   7.062   9.254  0.8755 -0.3203 -5.9483
  288MOL0     H38831   1.624   7.154   9.008  2.9262 -1.8039 -0.2479
  288MOL0     H38832   1.510   7.072   8.714  0.4527  0.3187 -1.1861
  288MOL0     H38833   1.344   7.110   8.742  1.8901 -5.9044 -1.9616
  288MOL0     H38834   1.564   7.313   8.820 -0.7075  1.0142  3.6446
  288MOL0     H38835   1.390   7.331   8.796 -0.4897  0.5040 -2.9316
  288MOL0     H38836   1.418   7.252   8.567  0.0349 -0.6456  0.9030
  288MOL0     H38837   1.598   7.266   8.585  0.3812 -1.3752  0.1222
  288MOL0     H38838   1.597   7.491   8.602 -0.8586  1.7812 -0.8815
  288MOL0     H38839   1.438   7.507   8.664  1.0388  0.6806 -0.5804
  288MOL0     H38840   1.272   7.567   8.257 -0.3949  1.5556 -3.0460
  288MOL0     H38841   1.332   7.790   7.994 -1.2106 -2.9051 -1.4632
  288MOL0     H38842   1.246   7.650   8.050 -0.7805 -0.3364  3.6300
  288MOL0     H38843   1.197   7.809   8.109 -1.3943 -0.0289 -0.5810
  288MOL0     H38844   1.420   8.196   8.258 -0.2489  1.5541  0.5859
  288MOL0     H38845   1.304   8.423   8.208 -1.2516 -0.9156  0.4106
  288MOL0     H38846   1.319   8.668   8.105  1.9390  1.9716 -1.1156
  288MOL0     H38847   1.421   8.586   7.970 -0.5002 -2.9623  0.3800
  288MOL0     H38848   1.303   8.706   7.816  2.0582  0.8067 -0.7176
  288MOL0     H38849   1.185   8.767   7.935  1.1935  0.4534 -0.8891
  288MOL0     H38850   1.355   8.923   7.863 -3.4649  0.2036  0.7286
  288MOL0     H38851   1.474   8.823   7.964  0.2008  0.2553  1.0783
  288MOL0     H38852   1.227   8.909   8.090 -1.0429 -0.2076 -1.9043
  288MOL0     H38853   1.394   8.879   8.162 -0.5053  4.0502  2.3728
  288MOL0     H38854   1.485   9.077   8.025 -0.2406 -0.5768 -2.4168
  288MOL0     H38855   1.402   9.091   8.187 -2.5732 -2.2278 -0.0298
  288MOL0     H38856   1.298   9.133   7.914  1.8079 -1.3211  1.8399
  288MOL0     H38857   1.187   9.136   8.061  0.5260 -3.1492  0.1492
  288MOL0     H38858   1.403   9.348   7.984  0.2905 -1.5244 -0.6117
  288MOL0     H38859   1.324   9.337   8.139  1.7720 -0.6859  0.2433
  288MOL0     H38860   1.106   9.372   8.047 -0.9154 -2.3699 -2.5260
  288MOL0     H38861   1.162   9.348   7.886 -1.0674  1.0161 -0.4119
  288MOL0     H38862   1.244   8.319   7.798  0.0937 -0.0304 -0.5912
  288MOL0     H38863   1.324   8.078   7.865 -1.8832  0.2746  0.2876
  288MOL0     H38864   1.646   7.857   8.364  0.9077 -0.1312 -2.1883
  288MOL0     H38865   1.621   7.670   8.496 -2.3941 -1.0397  2.5001
  288MOL0     H38866   2.175   7.490   9.572  0.3343  0.3291  0.0607
  288MOL0     H38867   2.398   7.450   9.528 -0.0143  0.5590  0.9282
  288MOL0     H38868   2.689   7.581   9.121 -2.2056 -1.3975  2.3202
  288MOL0     H38869   2.923   7.598   9.019 -2.1246  0.3289  0.7960
  288MOL0     H38870   3.276   7.519   8.970 -1.1092 -1.1407 -2.5376
  288MOL0     H38871   3.120   7.524   8.908  0.2636 -0.7659  0.0857
  288MOL0     H38872   3.072   7.731   9.021  0.4306  0.5776 -0.2708
  288MOL0     H38873   3.244   7.747   8.964  0.4459  3.0318  3.9538
  288MOL0     H38874   3.336   7.688   9.149 -0.2236  0.7660 -0.0491
  288MOL0     H38875   3.184   7.704   9.246  2.4492 -1.2177  1.7441
  288MOL0     H38876   3.281   7.945   9.066 -0.5860 -0.5413 -0.8319
  288MOL0     H38877   3.339   7.927   9.235  0.8416 -3.9408  0.8082
  288MOL0     H38878   2.994   8.120   9.284 -2.2846 -0.6230 -1.1801
  288MOL0     H38879   3.089   7.357   9.320  0.2984  0.3963 -0.5497
  288MOL0     H38880   2.866   7.337   9.434 -1.4661  1.7981  0.4212
  289MOL0     O38881   6.213   9.542   2.717 -0.1072  0.2921  0.5036
  289MOL0     C38882   6.221   9.509   2.823 -0.1006 -0.1815 -1.3758
  289MOL0     O38883   6.161   9.399   2.877 -0.0803 -0.2897  1.1982
  289MOL0     C38884   6.066   9.318   2.804 -0.2225 -0.7562 -0.1160
  289MOL0     C38885   5.954   9.281   2.876 -1.1217  0.1494 -1.1476
  289MOL0     C38886   5.855   9.208   2.806  0.1241 -0.4720  0.0616
  289MOL0     C38887   5.856   9.167   2.677 -0.4997 -0.0075 -1.3249
  289MOL0     O38888   5.759   9.106   2.613 -0.2795 -0.2437 -0.6372
  289MOL0     C38889   5.688   9.002   2.689 -0.5274 -0.7882 -0.4188
  289MOL0     C38890   5.701   8.888   2.587  1.1392 -0.3534 -0.3990
  289MOL0     C38891   5.625   8.760   2.646  0.8318  0.0471 -0.1122
  289MOL0     C38892   5.466   8.753   2.635 -0.4916  0.7165  0.0800
  289MOL0     C38893   5.420   8.611   2.658  0.6634 -0.1579  0.0360
  289MOL0     C38894   5.268   8.605   2.671 -0.3003  0.0958  0.2268
  289MOL0     C38895   5.218   8.459   2.707 -0.8648 -0.0975  0.1375
  289MOL0     C38896   5.066   8.460   2.713  0.3404 -0.9236  0.2878
  289MOL0     N38897   5.019   8.538   2.837 -0.1927  0.7274 -0.0501
  289MOL0     C38898   5.073   8.532   2.961 -0.7232 -0.2137 -0.2561
  289MOL0     C38899   4.990   8.577   3.052 -0.4821 -0.0671  0.6104
  289MOL0     C38900   5.006   8.583   3.205  0.2983  0.3734 -0.6434
  289MOL0     C38901   5.108   8.688   3.259 -0.5714 -0.3557  0.2498
  289MOL0     C38902   5.100   8.705   3.408  0.1621 -1.1272 -0.1918
  289MOL0     C38903   5.146   8.598   3.488 -0.3990  0.3887 -0.1690
  289MOL0     O38904   5.294   8.604   3.482  0.4157 -0.4344  0.4604
  289MOL0     C38905   5.359   8.494   3.541 -0.4090 -0.6011 -0.0576
  289MOL0     C38906   5.482   8.454   3.492 -0.4370  0.4944  0.0514
  289MOL0     C38907   5.538   8.331   3.534 -0.8685  0.3409 -0.6508
  289MOL0     C38908   5.666   8.284   3.477 -0.8316 -0.6410  0.5302
  289MOL0     C38909   5.463   8.242   3.621 -0.1952  1.2550 -0.8226
  289MOL0     C38910   5.508   8.112   3.684 -0.4782 -0.3411  0.2609
  289MOL0     O38911   5.437   8.089   3.807 -0.2251 -0.4689 -0.1081
  289MOL0     C38912   5.488   7.978   3.867  0.4593  1.0411  0.4447
  289MOL0     C38913   5.626   7.956   3.908  0.4502  0.5358 -0.5716
  289MOL0     C38914   5.659   7.835   3.966  0.2953  1.2147 -1.8880
  289MOL0     C38915   5.561   7.736   3.998 -0.0809  0.0301  0.2452
  289MOL0     O38916   5.611   7.620   4.048  0.8051 -0.5374  0.5104
  289MOL0     C38917   5.534   7.529   4.124  0.1058 -0.0602 -0.3580
  289MOL0     C38918   5.618   7.474   4.240  0.2055 -0.1226  0.4062
  289MOL0     C38919   5.565   7.327   4.266  0.1986 -1.1971  0.2185
  289MOL0     C38920   5.615   7.262   4.390  0.0798 -0.4222 -0.3109
  289MOL0     C38921   5.543   7.130   4.409  0.2627 -0.0119  0.6913
  289MOL0     C38922   5.586   7.083   4.545 -0.8825 -0.0078 -0.4033
  289MOL0     C38923   5.539   6.952   4.604 -0.2229 -0.2883  0.0421
  289MOL0     C38924   5.383   6.942   4.627  0.2717 -0.5909  0.5895
  289MOL0    Cl38925   5.348   6.923   4.800  0.3845 -0.0024 -0.3041
  289MOL0     C38926   5.431   7.763   3.974  0.7475  0.5960 -0.5122
  289MOL0     C38927   5.398   7.875   3.903 -0.0549 -0.1952  0.5163
  289MOL0     O38928   5.590   8.036   3.635 -0.1123 -0.1538 -0.0930
  289MOL0     C38929   5.331   8.282   3.654  0.1760 -0.3703  1.0316
  289MOL0     C38930   5.287   8.409   3.619 -0.3742 -0.0123  0.0703
  289MOL0     N38931   4.874   8.601   2.978 -0.0694 -0.4939 -0.2694
  289MOL0     N38932   4.894   8.596   2.855 -0.0531 -0.2423  0.3399
  289MOL0     C38933   5.969   9.215   2.604 -0.2062  0.5546  1.0462
  289MOL0     C38934   6.079   9.281   2.668 -0.2606 -1.2161  0.1134
  289MOL0     C38935   6.288   9.594   2.922  0.1343  0.1941 -0.5070
  289MOL0     C38936   6.314   9.532   3.048  0.2540  0.0927 -0.6567
  289MOL0     C38937   6.397   9.593   3.139 -0.1840  0.3482 -0.4218
  289MOL0     C38938   6.433   9.724   3.121 -0.4491  0.3910 -0.0080
  289MOL0     O38939   6.484   9.793   3.221  0.1442 -0.3091 -0.3437
  289MOL0     C38940   6.626   9.760   3.257  0.4259  0.0793  1.3529
  289MOL0     C38941   6.724   9.830   3.161 -0.0168 -0.5651  0.7618
  289MOL0     C38942   6.716   9.980   3.182 -0.3066 -0.0128  0.0604
  289MOL0     C38943   6.849  10.045   3.185  0.4920 -0.6329  0.9771
  289MOL0     C38944   6.919  10.032   3.053  0.5219 -1.0336 -0.9250
  289MOL0     C38945   6.966  10.020   2.939  0.3258  0.6710  0.4831
  289MOL0     C38946   6.412   9.789   2.999 -0.2152  0.5853 -0.4158
  289MOL0     C38947   6.337   9.721   2.898 -0.2958 -0.2740  0.8698
  289MOL0     H38948   5.944   9.290   2.984  1.6393 -1.2907 -0.6691
  289MOL0     H38949   5.764   9.186   2.861  0.2750 -0.1401  0.4566
  289MOL0     H38950   5.741   8.969   2.779  1.5543  1.9642 -0.4929
  289MOL0     H38951   5.586   9.036   2.713  1.2034  5.1325  0.3209
  289MOL0     H38952   5.657   8.916   2.491  0.0584  1.2923  0.5122
  289MOL0     H38953   5.807   8.860   2.585  2.0154  2.3601  1.6270
  289MOL0     H38954   5.651   8.668   2.593 -0.2507 -1.0116  1.1459
  289MOL0     H38955   5.643   8.743   2.752 -3.3772 -0.4453  0.6859
  289MOL0     H38956   5.417   8.816   2.709 -3.9928 -1.6616  0.0119
  289MOL0     H38957   5.427   8.789   2.539  0.0199  2.0743  0.3610
  289MOL0     H38958   5.446   8.552   2.570 -3.4030  0.5348 -1.8935
  289MOL0     H38959   5.456   8.565   2.751 -2.3370 -2.4442  0.2240
  289MOL0     H38960   5.241   8.665   2.758 -1.3297 -1.1573  0.8022
  289MOL0     H38961   5.212   8.650   2.588 -3.5921 -2.1071  1.0852
  289MOL0     H38962   5.249   8.388   2.630  0.6775  0.3463  0.3153
  289MOL0     H38963   5.262   8.415   2.797  1.6944  1.2346 -0.3575
  289MOL0     H38964   5.022   8.360   2.711 -5.2039  1.1343 -3.0571
  289MOL0     H38965   5.027   8.513   2.626 -1.3509  1.0854  2.1749
  289MOL0     H38966   5.172   8.498   2.987 -0.1842  1.2998 -0.2294
  289MOL0     H38967   4.907   8.612   3.241  0.5002  0.7315 -0.3744
  289MOL0     H38968   5.012   8.478   3.236 -0.4858 -0.3172 -2.6432
  289MOL0     H38969   5.107   8.776   3.195  2.9627 -1.1182 -1.0923
  289MOL0     H38970   5.212   8.657   3.243 -0.3581  1.2866 -1.9603
  289MOL0     H38971   5.000   8.738   3.438  0.8853 -0.0149  1.0711
  289MOL0     H38972   5.170   8.786   3.427 -0.0738 -1.1691  0.9332
  289MOL0     H38973   5.095   8.507   3.456  0.1974 -0.5348  1.3583
  289MOL0     H38974   5.112   8.620   3.590 -2.7244  0.1610 -0.8350
  289MOL0     H38975   5.525   8.529   3.426 -1.0929 -1.5656 -2.9006
  289MOL0     H38976   5.723   8.225   3.550 -1.1428 -0.1990  1.1348
  289MOL0     H38977   5.645   8.220   3.390 -2.7401 -3.2470  2.7491
  289MOL0     H38978   5.733   8.369   3.461 -0.3755 -0.6463  2.2455
  289MOL0     H38979   5.695   8.036   3.884  0.8264 -0.2712 -2.3264
  289MOL0     H38980   5.758   7.805   3.999 -2.1598 -1.2102  5.1573
  289MOL0     H38981   5.446   7.571   4.174 -0.3600 -0.6073 -0.7084
  289MOL0     H38982   5.510   7.451   4.051  0.3036  2.0990 -2.9056
  289MOL0     H38983   5.727   7.477   4.226  0.4722 -1.0329  1.9921
  289MOL0     H38984   5.607   7.525   4.336  2.9626  0.0259  0.7314
  289MOL0     H38985   5.598   7.264   4.183 -0.1553 -1.1102  0.0094
  289MOL0     H38986   5.458   7.344   4.273  0.5164  2.7547 -1.5432
  289MOL0     H38987   5.723   7.247   4.383  0.4641  2.5895 -4.3650
  289MOL0     H38988   5.584   7.329   4.471 -3.5854 -1.8997 -0.2647
  289MOL0     H38989   5.561   7.052   4.335 -2.1921 -0.9177  0.9504
  289MOL0     H38990   5.435   7.146   4.401 -0.1155 -1.3243  2.6007
  289MOL0     H38991   5.695   7.072   4.538 -0.7049  1.0822  0.4277
  289MOL0     H38992   5.561   7.163   4.616 -1.6299  0.5107 -1.2334
  289MOL0     H38993   5.586   6.941   4.702  1.3420  0.1808 -0.6387
  289MOL0     H38994   5.573   6.873   4.537  1.4000  1.4362 -1.2353
  289MOL0     H38995   5.348   6.854   4.572  0.5532 -1.0697  1.1764
  289MOL0     H38996   5.317   7.022   4.593 -0.2444  0.3401  3.5089
  289MOL0     H38997   5.364   7.681   3.997  0.9388  1.2026  2.6458
  289MOL0     H38998   5.300   7.883   3.856  0.3430 -4.2176 -1.4857
  289MOL0     H38999   5.263   8.215   3.706 -0.0195 -0.9734  0.0203
  289MOL0     H39000   5.187   8.426   3.656  0.9642 -0.7824  4.6027
  289MOL0     H39001   5.980   9.188   2.500  3.8506  2.1687  0.8515
  289MOL0     H39002   6.168   9.301   2.608 -0.7664 -0.9394 -0.5557
  289MOL0     H39003   6.275   9.434   3.074  1.7514 -0.8264 -1.7038
  289MOL0     H39004   6.420   9.549   3.235 -0.8960 -3.8580 -1.9771
  289MOL0     H39005   6.650   9.788   3.360  3.0025  4.0917 -0.0904
  289MOL0     H39006   6.630   9.653   3.234 -1.0266  0.3509 -0.4054
  289MOL0     H39007   6.691   9.812   3.058  0.4052  3.9221 -0.3500
  289MOL0     H39008   6.823   9.785   3.166 -0.4988 -1.5755  1.8358
  289MOL0     H39009   6.691  10.010   3.285  0.0521  2.8405 -0.5866
  289MOL0     H39010   6.644  10.020   3.110 -2.2753  2.2714  3.0412
  289MOL0     H39011   6.920   9.994   3.251 -0.4212 -1.2173  1.5248
  289MOL0     H39012   6.845  10.150   3.213  1.5956 -0.3005 -0.0025
  289MOL0     H39013   7.016  10.005   2.845 -2.7626  1.4405 -1.4314
  289MOL0     H39014   6.440   9.894   3.005  0.1542  0.4034  1.9557
  289MOL0     H39015   6.346   9.786   2.812  6.3185 -0.3007  0.9984
  290MOL0     O39016   6.234   2.730   8.480 -0.4130  0.1030  0.8579
  290MOL0     C39017   6.168   2.635   8.441 -0.7865 -0.4060  0.2304
  290MOL0     O39018   6.226   2.511   8.406  0.4254  0.2079 -1.0727
  290MOL0     C39019   6.359   2.490   8.456  0.0298  0.1279  1.2398
  290MOL0     C39020   6.476   2.542   8.404  0.4869  0.9183 -0.0668
  290MOL0     C39021   6.605   2.518   8.461  0.1060 -0.6411 -0.3588
  290MOL0     C39022   6.620   2.443   8.576 -0.3989  1.5699  0.0619
  290MOL0     O39023   6.747   2.412   8.629  0.4749 -0.0135  0.4014
  290MOL0     C39024   6.860   2.440   8.541 -0.4531 -0.6190  0.1125
  290MOL0     C39025   6.998   2.411   8.600 -1.2329 -1.6128 -0.1826
  290MOL0     C39026   7.022   2.265   8.622 -0.1420 -0.3236 -0.0811
  290MOL0     C39027   7.102   2.199   8.512 -0.6610  0.3371 -0.0766
  290MOL0     C39028   7.137   2.057   8.551 -0.1154 -0.0718  0.4522
  290MOL0     C39029   7.223   1.999   8.437 -0.0707  0.4151 -0.8898
  290MOL0     C39030   7.234   1.847   8.478  0.2714  0.6828 -1.0029
  290MOL0     C39031   7.353   1.825   8.587 -0.8997  0.5281  0.2757
  290MOL0     N39032   7.354   1.680   8.626  0.0054 -0.1942 -0.2324
  290MOL0     C39033   7.257   1.619   8.707 -0.3974  1.2677 -0.1293
  290MOL0     C39034   7.294   1.490   8.720 -0.0396 -0.1277  0.4177
  290MOL0     C39035   7.242   1.398   8.822 -0.3635  0.5645  0.0815
  290MOL0     C39036   7.212   1.252   8.776 -0.9688 -0.1228 -0.0060
  290MOL0     C39037   7.153   1.169   8.888  0.7986  0.4866  0.1216
  290MOL0     C39038   7.119   1.018   8.850  0.3226 -0.1146 -0.4947
  290MOL0     O39039   7.241   0.961   8.782 -0.1715 -0.5516  0.1321
  290MOL0     C39040   7.233   0.825   8.768 -0.0730  0.5685  0.8678
  290MOL0     C39041   7.121   0.744   8.752 -0.0885  0.0422 -0.4006
  290MOL0     C39042   7.124   0.606   8.718  1.1974  0.4859 -0.1061
  290MOL0     C39043   6.992   0.532   8.713  0.5266 -0.1860  0.1222
  290MOL0     C39044   7.249   0.547   8.710  0.4010 -0.1817  0.7354
  290MOL0     C39045   7.276   0.408   8.683  0.4668 -0.7143 -0.6905
  290MOL0     O39046   7.392   0.379   8.607  0.0151 -0.5893 -0.3909
  290MOL0     C39047   7.436   0.249   8.587  0.4565  0.8179  0.1526
  290MOL0     C39048   7.457   0.207   8.458 -1.1409 -0.4534 -0.3038
  290MOL0     C39049   7.525   0.085   8.443  0.1160  0.2123 -0.1495
  290MOL0     C39050   7.569   0.001   8.552  1.0841 -0.4607  1.0799
  290MOL0     O39051   7.628  -0.124   8.532  0.5109 -0.1699 -0.4860
  290MOL0     C39052   7.689  -0.159   8.403  0.4271  0.4832 -0.1024
  290MOL0     C39053   7.759  -0.300   8.404  0.1541  0.1281 -0.0527
  290MOL0     C39054   7.860  -0.310   8.519  0.4171 -0.4825  0.1665
  290MOL0     C39055   7.931  -0.451   8.514  1.0178  0.3573 -0.1426
  290MOL0     C39056   8.053  -0.448   8.434 -0.5410 -0.2499  0.2175
  290MOL0     C39057   8.138  -0.566   8.456  0.0575 -0.3964 -0.3146
  290MOL0     C39058   8.239  -0.572   8.344  0.1676 -0.2409  0.2415
  290MOL0     C39059   8.359  -0.485   8.365  0.2809 -0.4303 -0.0983
  290MOL0    Cl39060   8.458  -0.468   8.213  0.7614  0.1472  0.3845
  290MOL0     C39061   7.535   0.035   8.681 -0.1848 -0.3173 -0.5231
  290MOL0     C39062   7.463   0.151   8.697  0.3663 -0.6494 -0.3789
  290MOL0     O39063   7.200   0.331   8.730  0.4090  0.5275 -0.3729
  290MOL0     C39064   7.364   0.635   8.710 -0.8723  0.0690  0.0607
  290MOL0     C39065   7.358   0.765   8.745  0.3013  0.2476 -0.0659
  290MOL0     N39066   7.400   1.470   8.627 -0.8952 -0.5787 -0.0655
  290MOL0     N39067   7.442   1.583   8.583  1.1591  0.4565  0.3687
  290MOL0     C39068   6.509   2.388   8.626  0.8021  0.0626 -1.1081
  290MOL0     C39069   6.377   2.399   8.567 -0.2931 -1.2168  0.3197
  290MOL0     C39070   6.020   2.658   8.443 -0.3620 -0.4439 -0.2191
  290MOL0     C39071   5.967   2.782   8.491 -1.1071  0.2035  0.0584
  290MOL0     C39072   5.829   2.798   8.502  0.2475  0.0850 -0.2401
  290MOL0     C39073   5.740   2.693   8.486 -0.4898  0.2155  0.0459
  290MOL0     O39074   5.609   2.707   8.507  0.3813  0.3000  0.4340
  290MOL0     C39075   5.545   2.754   8.385 -0.0608 -0.6769  0.1293
  290MOL0     C39076   5.413   2.820   8.424  0.1564 -0.3505  0.0390
  290MOL0     C39077   5.434   2.961   8.475  0.4748 -0.0066 -0.7740
  290MOL0     C39078   5.300   3.008   8.536  0.0435 -0.5484  0.4661
  290MOL0     C39079   5.286   2.961   8.675 -0.3635 -0.5834 -0.3151
  290MOL0     C39080   5.269   2.924   8.795 -0.0133 -0.0841  0.5000
  290MOL0     C39081   5.797   2.565   8.455 -0.4531 -0.0307 -0.1438
  290MOL0     C39082   5.932   2.550   8.423 -0.1400 -1.0049  0.0890
  290MOL0     H39083   6.471   2.600   8.312 -2.9334 -0.8779 -1.1988
  290MOL0     H39084   6.692   2.561   8.412 -0.8745  0.7008 -0.9798
  290MOL0     H39085   6.860   2.383   8.448  3.7659 -2.5219  0.9997
  290MOL0     H39086   6.865   2.549   8.534 -0.9282 -0.5148  1.1519
  290MOL0     H39087   7.073   2.449   8.530 -1.1022 -1.3220  0.1104
  290MOL0     H39088   7.023   2.463   8.693  2.9984 -2.0346 -0.8820
  290MOL0     H39089   7.059   2.238   8.721 -0.2849 -0.7330 -0.1357
  290MOL0     H39090   6.927   2.213   8.609 -1.0846  1.3328 -0.0968
  290MOL0     H39091   7.052   2.197   8.415 -0.2547 -1.1366 -0.2845
  290MOL0     H39092   7.201   2.245   8.503  0.2101 -0.9006  2.1793
  290MOL0     H39093   7.186   2.071   8.648 -2.9834  0.4318  1.9626
  290MOL0     H39094   7.043   2.003   8.565 -1.2527  1.5382 -0.6458
  290MOL0     H39095   7.182   2.014   8.337  1.6091  0.6499 -1.5782
  290MOL0     H39096   7.327   2.033   8.436  0.4827 -1.1069 -3.0260
  290MOL0     H39097   7.147   1.808   8.532  1.2515 -2.0558 -1.2484
  290MOL0     H39098   7.257   1.778   8.397 -0.8300  0.7413 -1.3816
  290MOL0     H39099   7.360   1.881   8.680  1.8129 -1.9315  1.7219
  290MOL0     H39100   7.451   1.842   8.540  0.6074 -0.5155  2.8213
  290MOL0     H39101   7.174   1.667   8.757 -0.1029 -2.7279  5.0234
  290MOL0     H39102   7.313   1.395   8.905  2.5261 -0.6753 -2.2441
  290MOL0     H39103   7.145   1.433   8.858 -1.8122  1.5383 -4.1786
  290MOL0     H39104   7.312   1.219   8.749 -0.9271 -0.8296  0.9668
  290MOL0     H39105   7.142   1.247   8.692 -0.3435  1.0300 -0.6213
  290MOL0     H39106   7.063   1.221   8.922  1.8269  2.1740  0.3538
  290MOL0     H39107   7.214   1.172   8.978 -3.0920  1.5114  2.9961
  290MOL0     H39108   7.033   1.011   8.783  0.2830  0.1715 -0.4742
  290MOL0     H39109   7.090   0.966   8.942 -3.1209  0.1603 -1.2922
  290MOL0     H39110   7.024   0.792   8.764 -0.4352 -0.4859 -1.0098
  290MOL0     H39111   6.987   0.480   8.618 -1.5265  3.0168 -1.7199
  290MOL0     H39112   6.983   0.462   8.797  1.6104 -3.3392 -2.2178
  290MOL0     H39113   6.909   0.603   8.705  1.3625  0.8299  0.2774
  290MOL0     H39114   7.439   0.282   8.382 -0.8610  0.9693  0.9861
  290MOL0     H39115   7.554   0.049   8.345  2.7374 -0.6386  0.8459
  290MOL0     H39116   7.605  -0.167   8.333  1.9054  0.4233 -1.9697
  290MOL0     H39117   7.753  -0.077   8.370  0.0238  1.6884  1.9450
  290MOL0     H39118   7.684  -0.379   8.419  1.5549 -1.0348  1.1859
  290MOL0     H39119   7.809  -0.314   8.308 -2.2000 -0.1690 -1.2998
  290MOL0     H39120   7.821  -0.295   8.620  3.9878 -0.9812  1.7709
  290MOL0     H39121   7.916  -0.216   8.516 -0.8806  0.2927 -1.1794
  290MOL0     H39122   7.966  -0.487   8.611  0.2668 -0.1252 -0.0452
  290MOL0     H39123   7.860  -0.522   8.471 -0.6769 -0.0634  3.0166
  290MOL0     H39124   8.114  -0.370   8.481  3.6039 -2.7808 -0.4894
  290MOL0     H39125   8.022  -0.419   8.334 -0.1983  1.8788  0.6727
  290MOL0     H39126   8.195  -0.571   8.550 -1.8917  1.2410  1.0522
  290MOL0     H39127   8.072  -0.653   8.459 -0.6486 -0.2529  6.8700
  290MOL0     H39128   8.187  -0.543   8.252 -2.2908 -1.4314  1.1721
  290MOL0     H39129   8.280  -0.674   8.334  0.5331  0.0538 -1.7102
  290MOL0     H39130   8.422  -0.525   8.445  0.9633 -0.1036 -0.4640
  290MOL0     H39131   8.330  -0.385   8.398  0.5028 -0.0544 -1.0106
  290MOL0     H39132   7.558  -0.023   8.770  0.5158  2.3273  1.1057
  290MOL0     H39133   7.428   0.187   8.793 -2.4677  0.2938 -1.6632
  290MOL0     H39134   7.466   0.602   8.698 -1.5356 -1.9874 -0.4139
  290MOL0     H39135   7.447   0.827   8.755 -0.9834  3.4074 -4.6253
  290MOL0     H39136   6.524   2.333   8.719 -1.2533 -2.1591 -1.9902
  290MOL0     H39137   6.297   2.368   8.633  0.8452 -0.1783  2.3140
  290MOL0     H39138   6.037   2.857   8.526 -3.3127  2.3220  0.1881
  290MOL0     H39139   5.777   2.884   8.544  1.4079  0.7335 -0.0873
  290MOL0     H39140   5.612   2.836   8.355 -0.8647  0.9478  2.5429
  290MOL0     H39141   5.524   2.677   8.310 -3.9238  2.4470 -2.4223
  290MOL0     H39142   5.358   2.745   8.482  0.4410 -3.3394 -3.1986
  290MOL0     H39143   5.360   2.834   8.330 -0.0349 -1.2180  0.0077
  290MOL0     H39144   5.473   3.019   8.391 -0.5026 -0.5405 -1.6185
  290MOL0     H39145   5.498   2.965   8.564 -3.8252 -1.5258  2.7472
  290MOL0     H39146   5.212   2.974   8.480  0.4425  0.0821 -0.5758
  290MOL0     H39147   5.294   3.116   8.555 -0.9683 -0.4296 -0.4035
  290MOL0     H39148   5.256   2.899   8.898  0.7822  2.0083  1.1690
  290MOL0     H39149   5.725   2.485   8.436 -0.4535 -0.5630  1.8405
  290MOL0     H39150   5.973   2.459   8.381  2.5700  0.8856 -1.7108
  291MOL0     O39151   2.901   1.829   9.010  0.0083 -0.2859  0.3227
  291MOL0     C39152   2.985   1.911   9.036 -0.4254  0.7853 -0.5765
  291MOL0     O39153   3.120   1.894   9.037  0.5570 -0.7809  0.5228
  291MOL0     C39154   3.195   1.774   9.030  0.7946 -0.0505  0.1268
  291MOL0     C39155   3.296   1.742   9.120 -0.8859  0.4496 -0.2631
  291MOL0     C39156   3.356   1.621   9.103  0.1727  0.4720 -0.7025
  291MOL0     C39157   3.323   1.533   8.996 -0.2159 -0.8013  0.4052
  291MOL0     O39158   3.391   1.418   8.988  0.4859 -0.0615  0.3278
  291MOL0     C39159   3.315   1.304   8.970  0.2865 -0.5209  0.6907
  291MOL0     C39160   3.339   1.213   9.095 -0.2054 -1.0282  0.1234
  291MOL0     C39161   3.259   1.084   9.064  0.8389 -0.1056  0.0455
  291MOL0     C39162   3.340   0.957   9.065  0.4287  0.2013 -0.2045
  291MOL0     C39163   3.264   0.836   9.003 -0.3705 -0.0627 -1.2436
  291MOL0     C39164   3.147   0.773   9.077  0.2172 -0.1756 -0.2063
  291MOL0     C39165   3.067   0.668   8.990 -0.8146 -0.2516 -0.0710
  291MOL0     C39166   2.938   0.628   9.064  0.3486 -0.5250  0.0891
  291MOL0     N39167   2.876   0.507   9.009 -0.5704 -0.2354  0.1184
  291MOL0     C39168   2.823   0.490   8.884  0.6379  0.3738  1.3529
  291MOL0     C39169   2.777   0.368   8.894 -0.2580 -0.2761 -0.1937
  291MOL0     C39170   2.677   0.309   8.795 -0.1680 -0.6893 -0.0842
  291MOL0     C39171   2.763   0.222   8.711 -0.6247  1.4514 -0.3431
  291MOL0     C39172   2.680   0.178   8.591 -0.3294  0.9857 -0.0930
  291MOL0     C39173   2.640   0.028   8.592  0.0133 -0.6380 -0.6437
  291MOL0     O39174   2.763  -0.039   8.586 -0.6533  0.5627  0.4272
  291MOL0     C39175   2.838  -0.075   8.468  0.0695 -0.1683 -1.2927
  291MOL0     C39176   2.792  -0.043   8.339  0.4191 -0.1914  0.3562
  291MOL0     C39177   2.851  -0.092   8.221 -0.2614 -0.4733 -0.3832
  291MOL0     C39178   2.794  -0.063   8.083 -0.5785  0.4965  0.3516
  291MOL0     C39179   2.970  -0.168   8.230  0.0481  1.3010  0.1556
  291MOL0     C39180   3.035  -0.217   8.110  0.4021 -0.2407  0.2044
  291MOL0     O39181   3.101  -0.121   8.046 -0.2649 -0.5234  0.4642
  291MOL0     C39182   3.177  -0.158   7.940 -0.0300  1.1011 -0.7288
  291MOL0     C39183   3.122  -0.155   7.810  0.4265  0.7058  0.3557
  291MOL0     C39184   3.207  -0.183   7.710  0.0891 -0.4244 -0.3390
  291MOL0     C39185   3.330  -0.234   7.731  0.0531 -0.2486  0.0612
  291MOL0     O39186   3.414  -0.264   7.623 -0.6789  0.0813  0.2585
  291MOL0     C39187   3.537  -0.325   7.662 -0.9450 -0.2144 -0.3520
  291MOL0     C39188   3.624  -0.381   7.544 -0.5663  0.3343 -0.2923
  291MOL0     C39189   3.662  -0.270   7.438  0.5322 -0.7168 -1.0669
  291MOL0     C39190   3.750  -0.312   7.320 -0.3880 -0.4215  0.5781
  291MOL0     C39191   3.782  -0.205   7.214 -0.5055 -0.8204 -1.6119
  291MOL0     C39192   3.836  -0.062   7.268  1.1701  0.1498 -0.1416
  291MOL0     C39193   3.886   0.028   7.151  1.1344 -1.0656 -0.3200
  291MOL0     C39194   3.971  -0.038   7.047  0.2349 -0.2509  0.0093
  291MOL0    Cl39195   4.049   0.091   6.948 -0.0796 -0.2158  0.0354
  291MOL0     C39196   3.377  -0.239   7.860 -1.4767  0.7713 -0.4354
  291MOL0     C39197   3.301  -0.204   7.970  0.1891 -0.2989 -0.2761
  291MOL0     O39198   3.051  -0.338   8.091 -0.3801  0.2971 -0.3499
  291MOL0     C39199   3.012  -0.197   8.359  0.6107  0.0443  0.9808
  291MOL0     C39200   2.950  -0.161   8.474 -0.7797  0.2188 -0.4589
  291MOL0     N39201   2.820   0.311   9.010 -0.1439  0.1475  0.2019
  291MOL0     N39202   2.891   0.390   9.069 -0.0507  0.3749 -0.3810
  291MOL0     C39203   3.237   1.575   8.894  0.2315  0.4494  0.0770
  291MOL0     C39204   3.163   1.693   8.921 -0.2197 -1.5504 -0.1618
  291MOL0     C39205   2.935   2.047   9.077 -0.2060  0.1189 -0.0945
  291MOL0     C39206   2.800   2.084   9.067 -0.0692  0.2865  0.6554
  291MOL0     C39207   2.756   2.213   9.090 -0.0352 -0.7268 -0.0910
  291MOL0     C39208   2.844   2.315   9.115 -0.3981 -0.0386 -1.0830
  291MOL0     O39209   2.795   2.434   9.173  0.0012 -0.1284  0.4489
  291MOL0     C39210   2.855   2.562   9.135  0.4654 -0.3028 -0.0298
  291MOL0     C39211   2.726   2.660   9.112 -0.6243 -0.2602 -0.1702
  291MOL0     C39212   2.585   2.615   9.065  0.3159 -1.1122  0.1439
  291MOL0     C39213   2.499   2.735   9.056  0.7757  0.5105  0.2468
  291MOL0     C39214   2.356   2.696   9.053 -0.1446 -0.5592 -0.3704
  291MOL0     C39215   2.233   2.686   9.056 -0.0255 -0.0684 -0.6190
  291MOL0     C39216   2.980   2.283   9.123 -0.2501  0.0737  0.1210
  291MOL0     C39217   3.024   2.155   9.097 -0.4526  0.7662  0.9482
  291MOL0     H39218   3.332   1.816   9.190 -2.6151  0.4299  0.7158
  291MOL0     H39219   3.438   1.572   9.154 -2.1139 -2.7798  0.1655
  291MOL0     H39220   3.207   1.324   8.971  0.7603  2.8700 -0.6666
  291MOL0     H39221   3.346   1.249   8.880 -1.0485 -1.4353  0.7678
  291MOL0     H39222   3.445   1.186   9.101 -0.3012 -1.1495  1.6280
  291MOL0     H39223   3.305   1.253   9.191  1.1157 -2.8581  1.4635
  291MOL0     H39224   3.179   1.075   9.138  0.6079  1.2370 -0.0136
  291MOL0     H39225   3.215   1.077   8.965  1.6218 -0.3239 -0.2945
  291MOL0     H39226   3.421   0.985   8.996 -1.4955  0.2793 -2.5662
  291MOL0     H39227   3.380   0.943   9.166 -1.2065  1.8825  0.7339
  291MOL0     H39228   3.218   0.865   8.909 -1.0401 -0.8229 -1.1594
  291MOL0     H39229   3.334   0.752   8.992 -0.8687 -0.1698 -4.5540
  291MOL0     H39230   3.170   0.718   9.169 -0.9888 -2.0598 -0.9622
  291MOL0     H39231   3.070   0.847   9.100  0.3734 -0.1190  0.1495
  291MOL0     H39232   3.042   0.700   8.889  0.0821 -0.1086 -0.2620
  291MOL0     H39233   3.128   0.578   8.978  0.3349 -0.0542  3.2026
  291MOL0     H39234   2.864   0.707   9.050 -1.1647 -2.4039 -4.4191
  291MOL0     H39235   2.963   0.615   9.170 -0.4633 -4.1964 -0.0211
  291MOL0     H39236   2.828   0.557   8.799  4.1390 -0.4407  0.7459
  291MOL0     H39237   2.596   0.252   8.840 -1.4342  0.6710 -0.5299
  291MOL0     H39238   2.633   0.389   8.733 -1.4884 -1.1129  0.2667
  291MOL0     H39239   2.790   0.131   8.766 -2.4520 -0.0345 -1.7661
  291MOL0     H39240   2.849   0.275   8.668  0.0064  0.1332 -0.7875
  291MOL0     H39241   2.734   0.195   8.497  0.1397 -0.9725 -0.2069
  291MOL0     H39242   2.596   0.247   8.579 -1.6598 -0.6013 -0.2746
  291MOL0     H39243   2.569  -0.008   8.518 -1.2577  1.6691 -0.6173
  291MOL0     H39244   2.592   0.014   8.690 -1.7529 -0.2054 -1.4164
  291MOL0     H39245   2.698   0.009   8.321 -0.4837 -1.3790  1.4302
  291MOL0     H39246   2.860   0.005   8.028 -0.0971  0.9820  1.5060
  291MOL0     H39247   2.776  -0.158   8.031  1.7490 -1.2191  2.4497
  291MOL0     H39248   2.697  -0.014   8.094 -0.5734  0.6212 -0.1136
  291MOL0     H39249   3.027  -0.107   7.793  0.7643  1.7548  1.3370
  291MOL0     H39250   3.172  -0.167   7.608  0.4866  0.7651 -0.3068
  291MOL0     H39251   3.600  -0.256   7.718  0.5026 -2.8439  1.4558
  291MOL0     H39252   3.525  -0.412   7.727 -2.2304  0.8917  0.9580
  291MOL0     H39253   3.720  -0.416   7.585  1.0371  3.8246 -0.6081
  291MOL0     H39254   3.554  -0.450   7.497  0.9092  0.6556 -3.1967
  291MOL0     H39255   3.712  -0.193   7.497 -0.7931 -1.1471  0.6922
  291MOL0     H39256   3.566  -0.228   7.407  0.4871  2.4888  2.7768
  291MOL0     H39257   3.834  -0.352   7.377 -0.8851  1.6926  2.9944
  291MOL0     H39258   3.700  -0.387   7.259 -0.3675  0.1910 -0.2125
  291MOL0     H39259   3.692  -0.186   7.155  0.5774 -1.6995 -3.6264
  291MOL0     H39260   3.863  -0.253   7.158  2.1978 -0.1018  1.3267
  291MOL0     H39261   3.757  -0.012   7.325  0.0331 -2.0178  0.2970
  291MOL0     H39262   3.913  -0.086   7.343 -1.8084 -1.5973  2.6337
  291MOL0     H39263   3.941   0.100   7.212  1.3789 -2.9317  1.7826
  291MOL0     H39264   3.799   0.080   7.110  0.4249  0.8594  3.2487
  291MOL0     H39265   3.908  -0.099   6.981 -0.6488 -1.5738  2.0002
  291MOL0     H39266   4.049  -0.100   7.092 -0.2439 -0.1109  1.0550
  291MOL0     H39267   3.471  -0.278   7.896 -0.7473  0.2404 -2.7568
  291MOL0     H39268   3.342  -0.226   8.068  0.2989  1.6101  0.1488
  291MOL0     H39269   3.104  -0.253   8.371 -0.5187 -2.1203  0.2224
  291MOL0     H39270   2.990  -0.195   8.568 -1.0228 -1.8959 -1.0628
  291MOL0     H39271   3.217   1.511   8.808  0.1245 -2.8484  2.3545
  291MOL0     H39272   3.088   1.729   8.850 -1.7742 -1.5379  1.4336
  291MOL0     H39273   2.721   2.013   9.048  0.9811 -1.6475  3.0267
  291MOL0     H39274   2.649   2.235   9.090  0.4524  2.0141 -1.1523
  291MOL0     H39275   2.913   2.600   9.219  0.4418 -0.4074  0.0347
  291MOL0     H39276   2.913   2.551   9.044 -0.7993 -2.2873 -0.6637
  291MOL0     H39277   2.772   2.730   9.042 -0.3023 -2.9232 -2.8039
  291MOL0     H39278   2.732   2.691   9.217  0.2528 -1.9115  0.3159
  291MOL0     H39279   2.552   2.542   9.140  0.7513 -1.4777 -0.0147
  291MOL0     H39280   2.601   2.573   8.965  0.4602 -0.2255 -0.2156
  291MOL0     H39281   2.501   2.781   8.957 -2.7209 -1.4381 -0.9013
  291MOL0     H39282   2.511   2.808   9.136 -0.9925  1.1356 -0.0130
  291MOL0     H39283   2.126   2.677   9.066  0.1862 -2.1628  0.2660
  291MOL0     H39284   3.046   2.360   9.161  0.0180  0.2696 -0.7252
  291MOL0     H39285   3.132   2.140   9.099 -0.6860 -1.2365  0.5555
  292MOL0     O39286   4.892   7.624   5.601 -0.9952 -0.7077 -0.4755
  292MOL0     C39287   4.988   7.548   5.591 -0.0405 -0.4934 -0.6872
  292MOL0     O39288   5.043   7.509   5.480  0.4654  0.7838  0.1510
  292MOL0     C39289   4.971   7.543   5.369 -0.0567  1.1020 -0.2489
  292MOL0     C39290   4.858   7.476   5.318  1.0438 -0.1255 -0.4868
  292MOL0     C39291   4.796   7.499   5.201 -0.0267  0.2591  0.0210
  292MOL0     C39292   4.828   7.609   5.116 -0.2550 -0.0783 -0.9286
  292MOL0     O39293   4.762   7.643   5.005 -0.6590  0.0322 -1.0108
  292MOL0     C39294   4.629   7.601   4.993  0.8483  0.3949  1.0769
  292MOL0     C39295   4.537   7.678   4.892 -0.3992 -0.7212 -1.1968
  292MOL0     C39296   4.507   7.828   4.933 -0.2383  0.7990  0.0758
  292MOL0     C39297   4.399   7.889   4.835 -0.2739 -0.6650  0.6978
  292MOL0     C39298   4.254   7.835   4.850  0.4923  0.7779  0.0992
  292MOL0     C39299   4.186   7.891   4.724 -0.7440 -0.4534 -0.2271
  292MOL0     C39300   4.087   7.800   4.666  0.2631  0.1692 -0.1157
  292MOL0     C39301   4.168   7.678   4.612  0.4936  0.3345 -0.4391
  292MOL0     N39302   4.097   7.564   4.657 -0.0761 -0.0724  0.8593
  292MOL0     C39303   4.093   7.513   4.785  0.0673  0.9089  0.4081
  292MOL0     C39304   4.001   7.407   4.779 -0.3718 -0.0011  0.0402
  292MOL0     C39305   3.983   7.310   4.901 -0.3946 -0.5708  0.6165
  292MOL0     C39306   4.008   7.170   4.840  1.5231  0.0207 -0.1777
  292MOL0     C39307   4.064   7.077   4.948  0.9681  0.2156  0.3924
  292MOL0     C39308   3.962   7.049   5.058 -0.6524  0.4226 -0.0906
  292MOL0     O39309   3.842   7.009   4.998 -0.8322  0.5117 -0.3419
  292MOL0     C39310   3.740   6.975   5.082  0.2110  1.1343 -0.7142
  292MOL0     C39311   3.622   6.934   5.026  0.0979 -0.3070 -0.5530
  292MOL0     C39312   3.514   6.884   5.088 -0.9552  0.3536  0.1606
  292MOL0     C39313   3.409   6.820   5.005  0.2835  0.1705  0.3355
  292MOL0     C39314   3.518   6.882   5.229  0.3322 -0.0104  0.0369
  292MOL0     C39315   3.405   6.836   5.306  0.1992 -0.0537  0.1871
  292MOL0     O39316   3.275   6.899   5.289  0.2437  0.2763  0.0515
  292MOL0     C39317   3.170   6.823   5.358 -0.5627 -0.6362  0.0373
  292MOL0     C39318   3.108   6.874   5.472 -0.0240 -0.9593 -0.2861
  292MOL0     C39319   3.007   6.798   5.530 -0.2816 -0.8774 -0.4762
  292MOL0     C39320   2.953   6.676   5.476 -0.4498  0.5230 -0.0427
  292MOL0     O39321   2.842   6.615   5.523 -0.0722 -0.2223 -0.1297
  292MOL0     C39322   2.765   6.671   5.631 -0.1900 -0.3822  0.3245
  292MOL0     C39323   2.645   6.585   5.653 -0.8522  0.5192  0.4587
  292MOL0     C39324   2.566   6.614   5.778 -0.1639  0.1171 -0.6103
  292MOL0     C39325   2.420   6.666   5.763 -0.3785  0.5650 -0.3080
  292MOL0     C39326   2.361   6.715   5.900 -1.0092 -0.0594  0.1034
  292MOL0     C39327   2.329   6.609   6.009  0.1671  0.2412 -0.5609
  292MOL0     C39328   2.213   6.655   6.088  0.7237  0.6549 -0.9759
  292MOL0     C39329   2.166   6.550   6.188  0.2120 -0.5339  0.0370
  292MOL0    Cl39330   2.043   6.630   6.288 -0.1050 -0.3316  0.0142
  292MOL0     C39331   3.030   6.626   5.370  0.4616  0.7691 -0.2962
  292MOL0     C39332   3.126   6.704   5.303  0.1122 -0.3805  0.2203
  292MOL0     O39333   3.428   6.732   5.361 -0.1995 -0.4504 -0.3152
  292MOL0     C39334   3.636   6.924   5.291 -0.0476 -0.7231 -0.4833
  292MOL0     C39335   3.750   6.974   5.222  0.1414 -0.5822  0.6506
  292MOL0     N39336   3.954   7.398   4.648 -0.4915  0.1993 -0.4891
  292MOL0     N39337   4.019   7.494   4.578  0.3979  0.2462  0.0318
  292MOL0     C39338   4.945   7.666   5.158  0.6073 -0.4166  0.3738
  292MOL0     C39339   5.009   7.642   5.278 -0.1943 -0.1443  0.9610
  292MOL0     C39340   5.020   7.496   5.728  0.8137 -0.1538 -0.1799
  292MOL0     C39341   5.143   7.436   5.746  0.8213  0.2661 -0.3597
  292MOL0     C39342   5.176   7.387   5.870 -0.1227  0.4506 -0.8865
  292MOL0     C39343   5.097   7.399   5.983  0.6527  0.8771 -0.4168
  292MOL0     O39344   5.134   7.365   6.116  0.2294  0.8591 -0.0532
  292MOL0     C39345   5.172   7.482   6.192 -0.5540 -0.9651  0.4551
  292MOL0     C39346   5.329   7.492   6.200 -0.2469 -0.4626 -0.5088
  292MOL0     C39347   5.393   7.578   6.313  0.2529 -0.8272  0.3038
  292MOL0     C39348   5.550   7.589   6.295  0.0179  0.2679  0.8094
  292MOL0     C39349   5.587   7.687   6.398  0.4799  0.3117 -0.1505
  292MOL0     C39350   5.638   7.766   6.475 -0.1657 -0.6388 -0.2028
  292MOL0     C39351   4.965   7.444   5.962 -0.5328  0.3398  0.6720
  292MOL0     C39352   4.925   7.492   5.839 -0.0601 -0.2638 -0.3766
  292MOL0     H39353   4.818   7.394   5.377 -0.0930 -0.0541 -1.1192
  292MOL0     H39354   4.716   7.430   5.178  1.3232 -1.5160  0.4510
  292MOL0     H39355   4.622   7.494   4.969 -2.3590  0.6738  0.3101
  292MOL0     H39356   4.580   7.608   5.090  0.0164  1.3041  0.6110
  292MOL0     H39357   4.579   7.671   4.791 -1.3168 -0.7714 -1.5791
  292MOL0     H39358   4.444   7.621   4.893 -0.5029 -0.5530 -1.1665
  292MOL0     H39359   4.481   7.836   5.039 -0.0233 -1.6550  0.3672
  292MOL0     H39360   4.607   7.873   4.927  0.9235 -1.3529  1.9864
  292MOL0     H39361   4.396   7.995   4.861  1.3264 -0.8802  1.9189
  292MOL0     H39362   4.444   7.873   4.737  0.5725 -0.7903  1.0975
  292MOL0     H39363   4.248   7.726   4.843 -0.1780  0.6653  2.0362
  292MOL0     H39364   4.215   7.875   4.944  0.6374  1.1039  0.0217
  292MOL0     H39365   4.132   7.983   4.747 -1.4252 -0.9283  0.1113
  292MOL0     H39366   4.254   7.919   4.643  1.1481  0.6755  1.6582
  292MOL0     H39367   4.004   7.784   4.735 -1.8048  1.4991 -2.1524
  292MOL0     H39368   4.041   7.840   4.574  1.1864 -2.3971 -1.8243
  292MOL0     H39369   4.273   7.665   4.642 -0.7981 -3.4742  3.4576
  292MOL0     H39370   4.172   7.672   4.503 -1.7522  3.2684 -0.7872
  292MOL0     H39371   4.147   7.534   4.876 -2.6088  0.6844  2.1681
  292MOL0     H39372   4.044   7.329   4.990 -0.4810 -1.1845  0.8105
  292MOL0     H39373   3.877   7.318   4.926 -0.8662 -1.3273 -1.0227
  292MOL0     H39374   4.083   7.191   4.763  0.0321  1.4423 -1.3251
  292MOL0     H39375   3.918   7.132   4.791 -0.4823  0.7318  2.7058
  292MOL0     H39376   4.164   7.107   4.981  1.4049  0.1166 -0.8105
  292MOL0     H39377   4.076   6.979   4.900 -0.3453  1.9464 -3.8567
  292MOL0     H39378   3.938   7.140   5.115  0.0796 -0.2296  1.3192
  292MOL0     H39379   4.007   6.971   5.120 -3.3057 -1.3602 -0.2488
  292MOL0     H39380   3.627   6.940   4.918 -0.3924 -0.7006 -0.5976
  292MOL0     H39381   3.321   6.885   5.018  0.2882  0.8715 -2.3639
  292MOL0     H39382   3.418   6.802   4.897 -0.7753 -1.4662  0.4841
  292MOL0     H39383   3.372   6.727   5.049  1.8422 -1.1181 -0.9307
  292MOL0     H39384   3.146   6.963   5.521 -0.0454 -0.1907 -1.6207
  292MOL0     H39385   2.963   6.838   5.621  1.2656  1.8579 -0.8413
  292MOL0     H39386   2.820   6.674   5.726 -2.1961 -0.3680  1.5439
  292MOL0     H39387   2.732   6.771   5.603  1.2014  0.8230  2.7011
  292MOL0     H39388   2.581   6.592   5.564 -0.6302 -1.9599  0.0323
  292MOL0     H39389   2.687   6.484   5.663  1.4336  1.4386  0.5944
  292MOL0     H39390   2.624   6.690   5.832 -0.9324 -1.1613  2.2204
  292MOL0     H39391   2.558   6.521   5.836  0.3696 -0.2675 -1.1407
  292MOL0     H39392   2.415   6.745   5.688 -2.1912  1.2541  0.4769
  292MOL0     H39393   2.358   6.588   5.718  0.1487  0.6749 -1.2486
  292MOL0     H39394   2.274   6.776   5.872  0.1447  0.4325 -2.8377
  292MOL0     H39395   2.429   6.773   5.963 -1.0910 -0.6129  0.7066
  292MOL0     H39396   2.306   6.516   5.957 -0.1837 -0.3766  0.6507
  292MOL0     H39397   2.414   6.589   6.076 -1.3016 -0.3735  1.2216
  292MOL0     H39398   2.126   6.673   6.025 -2.4009 -3.9555  1.4186
  292MOL0     H39399   2.250   6.744   6.140 -0.0969 -0.8209  2.3969
  292MOL0     H39400   2.250   6.504   6.240 -0.1737 -1.1992  0.0913
  292MOL0     H39401   2.122   6.461   6.142  1.1559 -0.2933 -1.3925
  292MOL0     H39402   3.010   6.529   5.326  1.2446  1.4764 -2.3182
  292MOL0     H39403   3.181   6.677   5.214  4.6161 -2.4443  3.2690
  292MOL0     H39404   3.648   6.914   5.399 -2.0579 -1.7381 -0.3130
  292MOL0     H39405   3.842   6.995   5.275 -0.3402  0.4741  1.1088
  292MOL0     H39406   4.985   7.753   5.108 -1.2896 -0.0152 -0.5601
  292MOL0     H39407   5.097   7.706   5.283  0.4657 -0.3825 -3.6046
  292MOL0     H39408   5.216   7.438   5.666  0.4868  2.9506 -0.6906
  292MOL0     H39409   5.274   7.347   5.894 -1.3087 -0.8117  2.6119
  292MOL0     H39410   5.124   7.574   6.158 -0.5624 -1.2448 -0.3236
  292MOL0     H39411   5.136   7.468   6.294 -0.8354  1.6267  0.7647
  292MOL0     H39412   5.353   7.523   6.098 -1.2593  1.0951 -0.3039
  292MOL0     H39413   5.381   7.396   6.201  1.5378  0.3434 -3.1372
  292MOL0     H39414   5.363   7.557   6.416  1.5222  2.1768  1.3929
  292MOL0     H39415   5.351   7.679   6.302  1.8285 -0.2437 -0.5857
  292MOL0     H39416   5.588   7.624   6.198  0.4689 -0.9621  0.5300
  292MOL0     H39417   5.603   7.494   6.294 -0.5292 -0.2182 -3.4171
  292MOL0     H39418   5.672   7.837   6.549 -1.5478  0.6770 -0.7760
  292MOL0     H39419   4.886   7.449   6.037 -0.2002  0.2083  1.0383
  292MOL0     H39420   4.822   7.521   5.820  1.2938  4.1130 -2.4875
  293MOL0     O39421   3.369   4.435   8.398  0.0701  0.4220 -0.1163
  293MOL0     C39422   3.438   4.337   8.371  0.6431 -0.0916 -0.8240
  293MOL0     O39423   3.487   4.239   8.451 -0.9004  0.0974 -0.5160
  293MOL0     C39424   3.422   4.220   8.573 -0.4090 -0.2116 -0.3016
  293MOL0     C39425   3.280   4.231   8.585 -0.3067  0.7116 -0.5188
  293MOL0     C39426   3.209   4.202   8.710 -0.8254 -0.6420  0.1740
  293MOL0     C39427   3.286   4.160   8.816  0.1368 -0.3461 -0.5052
  293MOL0     O39428   3.231   4.114   8.942  1.0381  0.3090  0.3750
  293MOL0     C39429   3.097   4.166   8.971  0.9688  0.3397 -0.7520
  293MOL0     C39430   3.054   4.143   9.121  0.5997  0.7824  0.4871
  293MOL0     C39431   2.907   4.206   9.138 -1.0796 -0.7996  0.3118
  293MOL0     C39432   2.793   4.109   9.111  0.3743 -0.0373  0.6207
  293MOL0     C39433   2.648   4.162   9.151 -0.6238  0.5708 -0.6588
  293MOL0     C39434   2.541   4.063   9.112  0.2785 -1.0529 -0.0389
  293MOL0     C39435   2.402   4.100   9.158  0.0564 -0.6530  0.1841
  293MOL0     C39436   2.341   4.190   9.047  0.4923  1.1731 -0.2524
  293MOL0     N39437   2.230   4.255   9.105 -0.0045 -0.1571  0.3994
  293MOL0     C39438   2.110   4.286   9.047 -0.5746  0.8587 -0.3472
  293MOL0     C39439   2.038   4.357   9.134 -0.1071 -0.0760 -0.7887
  293MOL0     C39440   1.888   4.392   9.125 -1.0519  0.3067 -0.0336
  293MOL0     C39441   1.838   4.418   8.982  0.1616  0.3704  0.0639
  293MOL0     C39442   1.926   4.509   8.893  0.0119 -0.0050 -0.1148
  293MOL0     C39443   1.869   4.523   8.752 -0.4329 -0.8942  1.2070
  293MOL0     O39444   1.870   4.389   8.684 -0.4031  0.1883 -1.0918
  293MOL0     C39445   1.964   4.357   8.593 -0.1219  0.4830  0.4378
  293MOL0     C39446   2.011   4.224   8.578 -0.3544  0.6824 -0.2772
  293MOL0     C39447   2.119   4.184   8.488  0.6698 -0.5402  0.1122
  293MOL0     C39448   2.152   4.040   8.495 -0.1549 -0.8582 -0.1597
  293MOL0     C39449   2.175   4.283   8.400 -0.1428 -0.6338 -0.3790
  293MOL0     C39450   2.285   4.259   8.321 -0.5043 -0.2327  0.8564
  293MOL0     O39451   2.320   4.354   8.223 -0.3810 -0.1749  0.1161
  293MOL0     C39452   2.453   4.338   8.175  0.3375  0.0871 -0.6992
  293MOL0     C39453   2.458   4.294   8.046 -0.8857  1.2196  0.2775
  293MOL0     C39454   2.578   4.275   7.984 -0.7511  0.6912  0.2308
  293MOL0     C39455   2.696   4.303   8.059 -0.6162 -1.2111 -0.2787
  293MOL0     O39456   2.821   4.290   8.014  0.4541  0.6063 -0.4133
  293MOL0     C39457   2.845   4.284   7.874 -0.1174  0.1092 -0.7411
  293MOL0     C39458   2.839   4.138   7.844 -0.2261  1.1149 -0.1402
  293MOL0     C39459   2.900   4.101   7.714 -0.3314  0.7510  0.2495
  293MOL0     C39460   2.867   3.961   7.656  0.0216 -0.1472  0.3383
  293MOL0     C39461   2.957   3.929   7.537 -0.2950  0.0224  0.4470
  293MOL0     C39462   3.111   3.953   7.543  0.5213  0.0632  0.2769
  293MOL0     C39463   3.176   3.870   7.659  0.4303  0.3873  0.2863
  293MOL0     C39464   3.305   3.935   7.694 -0.5398  0.1541  0.1474
  293MOL0    Cl39465   3.286   4.087   7.772 -0.4890  0.1823  0.3124
  293MOL0     C39466   2.690   4.358   8.184 -0.3172  0.0709  0.5035
  293MOL0     C39467   2.566   4.364   8.254 -0.6860  0.1520  0.6432
  293MOL0     O39468   2.358   4.162   8.340 -0.0418  0.4975  0.4689
  293MOL0     C39469   2.112   4.407   8.404 -0.3025 -0.3008  0.4274
  293MOL0     C39470   2.014   4.448   8.498  0.1848  0.1695 -0.4934
  293MOL0     N39471   2.113   4.370   9.247  0.5018 -0.4248 -0.3319
  293MOL0     N39472   2.225   4.321   9.230  0.5526 -0.2259 -0.2011
  293MOL0     C39473   3.428   4.160   8.803  0.1980 -0.4123 -0.5919
  293MOL0     C39474   3.499   4.188   8.688 -0.0025 -0.2405  1.4041
  293MOL0     C39475   3.480   4.331   8.232  0.3910  0.2110 -0.8942
  293MOL0     C39476   3.550   4.212   8.186  0.0353 -0.0736  0.2073
  293MOL0     C39477   3.587   4.191   8.057  0.8929 -0.1361  0.1516
  293MOL0     C39478   3.553   4.285   7.959  1.0072 -0.2026 -0.0288
  293MOL0     O39479   3.571   4.283   7.822  0.0930  0.1361 -0.6389
  293MOL0     C39480   3.703   4.305   7.775  0.7599 -0.0775 -0.3483
  293MOL0     C39481   3.794   4.179   7.774  0.2101 -0.0456 -0.0900
  293MOL0     C39482   3.718   4.066   7.711 -1.2894 -1.0199  0.2213
  293MOL0     C39483   3.798   3.931   7.719  0.1243  0.1414  0.1443
  293MOL0     C39484   3.710   3.815   7.751  0.6222 -0.2742  0.4029
  293MOL0     C39485   3.631   3.725   7.785 -0.7665 -0.9254  0.9325
  293MOL0     C39486   3.479   4.396   7.999 -0.1297 -0.4188  0.4461
  293MOL0     C39487   3.446   4.420   8.131  0.2853 -0.5047 -0.7350
  293MOL0     H39488   3.211   4.241   8.502  1.1903  0.8782 -1.7908
  293MOL0     H39489   3.102   4.215   8.719 -1.0196 -1.9778  0.0162
  293MOL0     H39490   3.102   4.272   8.946 -2.3019 -0.1908 -4.8352
  293MOL0     H39491   3.023   4.121   8.904 -1.1551  2.9381 -0.3317
  293MOL0     H39492   3.068   4.043   9.161  4.0908  1.3436  0.9561
  293MOL0     H39493   3.122   4.209   9.175  0.2617 -1.3019  3.7228
  293MOL0     H39494   2.890   4.241   9.241 -2.5490 -0.9054  0.1361
  293MOL0     H39495   2.908   4.291   9.070 -4.0990  0.7327  1.9394
  293MOL0     H39496   2.795   4.070   9.009  1.3514 -1.0040  0.9972
  293MOL0     H39497   2.812   4.018   9.169  0.9565  0.2848  0.9483
  293MOL0     H39498   2.651   4.171   9.260 -2.3064 -0.6809 -0.4702
  293MOL0     H39499   2.636   4.265   9.118 -3.2893  0.3779 -0.4710
  293MOL0     H39500   2.546   4.039   9.005 -2.5762  0.6569 -0.6751
  293MOL0     H39501   2.568   3.964   9.151 -2.4464 -2.6559 -1.8089
  293MOL0     H39502   2.353   4.004   9.176  1.6344 -0.9979  3.2146
  293MOL0     H39503   2.403   4.163   9.247 -3.6269  0.9044 -0.6840
  293MOL0     H39504   2.319   4.135   8.955  1.5323  0.6834 -0.2315
  293MOL0     H39505   2.415   4.266   9.021 -0.5982  2.6199  0.7190
  293MOL0     H39506   2.065   4.253   8.954 -0.1354 -1.6061  0.2227
  293MOL0     H39507   1.824   4.314   9.169 -1.4345  0.5306 -0.1865
  293MOL0     H39508   1.859   4.484   9.176 -4.0919  0.0356 -1.0631
  293MOL0     H39509   1.738   4.461   8.981 -0.5737 -1.0537 -3.6937
  293MOL0     H39510   1.824   4.315   8.947 -1.6074  0.1282  1.3527
  293MOL0     H39511   2.026   4.464   8.885 -0.4211 -1.0877  0.3953
  293MOL0     H39512   1.949   4.607   8.936  1.1408  0.9973 -2.7331
  293MOL0     H39513   1.931   4.593   8.695  1.6285 -0.1751  4.0954
  293MOL0     H39514   1.768   4.562   8.742  0.0071  0.3267  1.3712
  293MOL0     H39515   1.969   4.148   8.643  0.9274  0.1877 -0.0028
  293MOL0     H39516   2.060   3.984   8.512  0.4329 -1.3529  1.6545
  293MOL0     H39517   2.198   4.014   8.399  1.6265  2.5167 -0.3901
  293MOL0     H39518   2.227   4.009   8.569 -1.5770  0.7362  2.0766
  293MOL0     H39519   2.366   4.267   7.995 -0.4729 -1.9146  0.9766
  293MOL0     H39520   2.572   4.240   7.882 -3.8056  4.9074 -1.3207
  293MOL0     H39521   2.775   4.339   7.811 -0.5471  1.1776  0.6104
  293MOL0     H39522   2.941   4.333   7.852 -0.8567  1.9281 -0.1538
  293MOL0     H39523   2.885   4.074   7.919  0.7021  2.7438  0.7293
  293MOL0     H39524   2.733   4.113   7.832  0.1982 -1.6515  1.1271
  293MOL0     H39525   3.009   4.113   7.713 -0.1287 -0.3231 -2.9386
  293MOL0     H39526   2.873   4.176   7.639  0.9522  1.6716  0.6795
  293MOL0     H39527   2.891   3.885   7.731 -2.1420  0.5656  1.8368
  293MOL0     H39528   2.759   3.950   7.646  0.1208 -1.5567  0.6556
  293MOL0     H39529   2.930   3.989   7.450  1.5600 -1.5974 -1.3379
  293MOL0     H39530   2.938   3.825   7.507 -1.3528  0.0503  0.9444
  293MOL0     H39531   3.164   3.927   7.451 -1.0012  1.7493 -1.1678
  293MOL0     H39532   3.124   4.061   7.554  0.8429 -0.0248  0.7911
  293MOL0     H39533   3.184   3.763   7.639 -0.9468  0.2779  0.2110
  293MOL0     H39534   3.115   3.891   7.747 -1.3997  2.3275 -1.3256
  293MOL0     H39535   3.364   3.938   7.602  0.1732 -2.5828  0.4150
  293MOL0     H39536   3.354   3.864   7.762  2.1885  0.7756 -1.0544
  293MOL0     H39537   2.781   4.379   8.240 -0.1586  1.1344 -0.1380
  293MOL0     H39538   2.551   4.400   8.355 -0.0741 -0.1712  0.8553
  293MOL0     H39539   2.163   4.478   8.339  1.6631 -1.4894  0.5647
  293MOL0     H39540   1.978   4.551   8.492  0.9424  0.4118 -1.0946
  293MOL0     H39541   3.485   4.096   8.870 -4.9327 -1.6848  3.2247
  293MOL0     H39542   3.607   4.179   8.693  0.3417  1.0490 -1.4289
  293MOL0     H39543   3.550   4.136   8.264 -3.9380 -0.7850 -0.2557
  293MOL0     H39544   3.639   4.101   8.026  0.5423 -0.6226  0.9543
  293MOL0     H39545   3.699   4.330   7.668 -1.5089  0.9684 -0.0792
  293MOL0     H39546   3.738   4.396   7.824 -4.2302  3.6589 -2.7735
  293MOL0     H39547   3.799   4.161   7.881 -2.1045 -0.3700  0.0309
  293MOL0     H39548   3.891   4.203   7.730  0.8635 -2.5613 -0.2010
  293MOL0     H39549   3.690   4.080   7.606 -3.2430 -2.0305  0.5502
  293MOL0     H39550   3.622   4.049   7.762 -1.2048 -0.4574  0.5761
  293MOL0     H39551   3.870   3.940   7.801  2.7250 -1.3530 -1.8122
  293MOL0     H39552   3.855   3.912   7.628  2.2275 -0.2630  1.4954
  293MOL0     H39553   3.565   3.643   7.802 -3.1081  0.0503 -2.4224
  293MOL0     H39554   3.453   4.461   7.916  2.9519  0.5472  0.1097
  293MOL0     H39555   3.376   4.503   8.139  0.7689 -0.1432 -0.1296
  294MOL0     O39556   9.998   5.810   5.371  0.0136 -0.4257  1.2312
  294MOL0     C39557   9.921   5.716   5.370 -0.1086  0.1388  0.1295
  294MOL0     O39558   9.966   5.588   5.400  0.3964 -0.3761 -0.1581
  294MOL0     C39559  10.097   5.564   5.412 -0.2958 -0.4091 -0.5847
  294MOL0     C39560  10.166   5.540   5.296  0.5981  0.1211  0.8113
  294MOL0     C39561  10.300   5.501   5.297 -0.4602  0.1427  0.2406
  294MOL0     C39562  10.372   5.491   5.422  0.1049 -1.1717 -0.0052
  294MOL0     O39563  10.502   5.456   5.423 -0.3487  0.2882 -0.2502
  294MOL0     C39564  10.574   5.413   5.305 -0.0460 -0.1222 -0.3180
  294MOL0     C39565  10.721   5.440   5.337 -0.0817 -0.2627 -0.6216
  294MOL0     C39566  10.811   5.345   5.254 -0.7670 -0.7163 -0.2996
  294MOL0     C39567  10.953   5.369   5.290 -0.9831 -0.4680 -0.1934
  294MOL0     C39568  11.043   5.313   5.178  0.7433 -0.5045 -0.3146
  294MOL0     C39569  11.031   5.154   5.178  0.8516 -0.9826  0.2956
  294MOL0     C39570  11.161   5.097   5.117 -0.1029  0.6702  0.2988
  294MOL0     C39571  11.268   5.101   5.227  0.5980 -0.4162  0.5164
  294MOL0     N39572  11.320   4.963   5.254  0.1508 -0.9891 -0.4307
  294MOL0     C39573  11.332   4.909   5.385  0.6838  0.5378  0.2060
  294MOL0     C39574  11.381   4.786   5.363 -0.7396 -0.2695  0.3352
  294MOL0     C39575  11.425   4.679   5.454  0.4689  0.1863 -0.3349
  294MOL0     C39576  11.576   4.637   5.423 -0.0840  0.1157 -1.3320
  294MOL0     C39577  11.595   4.536   5.312  0.1115  0.5135  0.9112
  294MOL0     C39578  11.696   4.428   5.337  0.2982 -0.0063 -0.1450
  294MOL0     O39579  11.823   4.469   5.402  0.4784  0.1473  0.2868
  294MOL0     C39580  11.919   4.542   5.336 -0.0284 -0.3275 -0.5342
  294MOL0     C39581  11.907   4.597   5.209 -0.6665  0.0269 -0.2292
  294MOL0     C39582  12.015   4.676   5.148  0.3168 -1.0192 -0.2383
  294MOL0     C39583  12.013   4.719   5.005  0.5812  0.5101 -0.0862
  294MOL0     C39584  12.127   4.706   5.231 -0.0272  1.5005 -1.0663
  294MOL0     C39585  12.249   4.780   5.193  0.8457 -0.1310 -0.1960
  294MOL0     O39586  12.236   4.873   5.097  0.4238  0.7066  0.1391
  294MOL0     C39587  12.353   4.949   5.064  1.0277  0.1980  0.6311
  294MOL0     C39588  12.333   5.080   5.041  0.4346  0.9065 -0.6235
  294MOL0     C39589  12.439   5.169   5.018 -0.0226  0.3214 -0.1466
  294MOL0     C39590  12.572   5.120   5.007 -0.3964  0.2402 -0.4249
  294MOL0     O39591  12.672   5.215   4.999  0.5647  0.3149  0.0696
  294MOL0     C39592  12.809   5.173   4.986 -0.2463  0.2504  0.4382
  294MOL0     C39593  12.850   5.101   4.855  0.2166  0.9652 -0.8111
  294MOL0     C39594  12.774   5.164   4.730  0.1159 -0.0384  0.8167
  294MOL0     C39595  12.782   5.068   4.614 -0.5337  0.7917 -0.5008
  294MOL0     C39596  12.683   4.948   4.616 -0.2757  0.1064  0.6559
  294MOL0     C39597  12.716   4.851   4.503 -1.3472 -1.0349 -0.9847
  294MOL0     C39598  12.637   4.729   4.507  0.3843 -0.9713 -0.1101
  294MOL0     C39599  12.641   4.660   4.373 -0.9179 -0.0885 -0.9350
  294MOL0    Cl39600  12.552   4.748   4.246 -0.3402 -0.1721  0.1540
  294MOL0     C39601  12.590   4.985   5.029  0.3665  0.3975 -0.6985
  294MOL0     C39602  12.480   4.902   5.055 -0.6145 -0.4221 -0.0430
  294MOL0     O39603  12.349   4.764   5.261  0.7158 -0.4125 -0.4612
  294MOL0     C39604  12.139   4.639   5.361 -1.0844  1.1199  1.8774
  294MOL0     C39605  12.044   4.550   5.403 -0.2175  0.1908 -0.1212
  294MOL0     N39606  11.404   4.773   5.227 -0.0231  0.2756 -0.3849
  294MOL0     N39607  11.357   4.870   5.164  0.2372 -0.5144  0.1180
  294MOL0     C39608  10.309   5.533   5.542  0.4230 -0.5397  0.2200
  294MOL0     C39609  10.166   5.566   5.526 -0.8510  0.3345 -1.7442
  294MOL0     C39610   9.784   5.738   5.316  0.0597 -0.4362  0.8615
  294MOL0     C39611   9.755   5.866   5.253 -0.3822  0.7097  1.1646
  294MOL0     C39612   9.630   5.893   5.199 -0.2366 -0.2631 -0.7663
  294MOL0     C39613   9.534   5.797   5.191  0.2674  0.1152  0.2879
  294MOL0     O39614   9.417   5.832   5.127 -1.0693  0.3222  0.3976
  294MOL0     C39615   9.323   5.724   5.085 -0.6307  0.0785  0.1027
  294MOL0     C39616   9.187   5.791   5.073 -0.0854 -0.1496  0.4306
  294MOL0     C39617   9.079   5.705   4.997 -0.4046  0.4783  0.7320
  294MOL0     C39618   9.095   5.552   4.988 -0.5344  0.1060  0.6595
  294MOL0     C39619   9.066   5.480   5.114 -0.6284  0.2432  0.1537
  294MOL0     C39620   9.059   5.413   5.221  0.3818  0.2593 -0.2361
  294MOL0     C39621   9.562   5.667   5.246  0.4115 -0.5815  0.3701
  294MOL0     C39622   9.684   5.642   5.300  0.3938  0.8793 -1.7294
  294MOL0     H39623  10.109   5.545   5.204  0.3689  1.3087  0.9980
  294MOL0     H39624  10.347   5.476   5.203  0.7032  2.2362  0.1958
  294MOL0     H39625  10.557   5.307   5.286 -0.3255  0.0864 -1.3005
  294MOL0     H39626  10.551   5.465   5.211  0.5044 -2.0266 -1.5534
  294MOL0     H39627  10.740   5.543   5.307  0.5078  0.1057  0.9279
  294MOL0     H39628  10.746   5.439   5.444  1.6419 -1.7702 -0.9777
  294MOL0     H39629  10.773   5.242   5.258 -0.5212 -0.7908  0.2688
  294MOL0     H39630  10.782   5.383   5.156 -0.1714 -0.6821 -0.4612
  294MOL0     H39631  10.965   5.476   5.307  3.9305 -0.1144 -3.8017
  294MOL0     H39632  10.969   5.322   5.387 -1.1848 -3.2678 -1.4125
  294MOL0     H39633  11.011   5.362   5.085  0.7809 -0.0311 -0.0829
  294MOL0     H39634  11.147   5.339   5.202  0.3604  0.5972  0.2244
  294MOL0     H39635  11.025   5.118   5.282 -0.8172  2.5113  1.5616
  294MOL0     H39636  10.939   5.126   5.127 -0.8632  1.7698  1.6088
  294MOL0     H39637  11.148   4.992   5.089 -2.7414  1.6384 -2.6841
  294MOL0     H39638  11.191   5.149   5.025 -2.5845 -0.0723 -0.9988
  294MOL0     H39639  11.237   5.129   5.328  1.4420  1.2569  0.3480
  294MOL0     H39640  11.347   5.167   5.188 -1.6943  2.1536 -0.1085
  294MOL0     H39641  11.312   4.950   5.483  0.7595 -2.5508  1.6274
  294MOL0     H39642  11.409   4.697   5.560 -0.0334 -0.3026 -0.3211
  294MOL0     H39643  11.354   4.596   5.444  0.3374  0.2247  0.2518
  294MOL0     H39644  11.611   4.576   5.506  2.0293 -1.2193 -3.0744
  294MOL0     H39645  11.652   4.715   5.429 -0.3285  0.2171  1.1746
  294MOL0     H39646  11.624   4.591   5.222 -2.5748  1.3438  0.4749
  294MOL0     H39647  11.498   4.492   5.289  1.9136 -3.6254  0.4228
  294MOL0     H39648  11.722   4.387   5.239  2.3115 -0.6451  0.6060
  294MOL0     H39649  11.651   4.356   5.407  0.3580  0.1926  0.1013
  294MOL0     H39650  11.822   4.573   5.146 -0.3134 -0.9701 -0.3439
  294MOL0     H39651  12.109   4.710   4.954  0.4147 -2.8807 -0.0896
  294MOL0     H39652  11.942   4.663   4.943  1.3419  2.2972 -2.7267
  294MOL0     H39653  11.976   4.821   4.990 -0.5468  0.2028  0.4590
  294MOL0     H39654  12.232   5.115   5.057 -1.0154 -3.5144  1.3166
  294MOL0     H39655  12.430   5.278   5.015  0.6398  0.3675 -0.7995
  294MOL0     H39656  12.868   5.265   4.993  0.4973 -0.2039  0.2196
  294MOL0     H39657  12.831   5.113   5.075 -2.7131  0.4421  1.2573
  294MOL0     H39658  12.959   5.111   4.849  0.1921  1.1549 -0.9660
  294MOL0     H39659  12.825   4.995   4.864  1.0143  0.3450 -4.3184
  294MOL0     H39660  12.822   5.257   4.698  0.1260 -0.4784 -0.4627
  294MOL0     H39661  12.669   5.179   4.757  0.5167  0.9103  1.9491
  294MOL0     H39662  12.752   5.120   4.522 -0.6149 -2.3536 -2.3896
  294MOL0     H39663  12.885   5.036   4.600  0.2044  2.2306  1.2508
  294MOL0     H39664  12.585   4.993   4.595 -0.1308 -0.5300 -1.6452
  294MOL0     H39665  12.684   4.901   4.715  1.1881 -2.2562 -0.3917
  294MOL0     H39666  12.710   4.899   4.405 -1.3631 -0.0361 -0.5107
  294MOL0     H39667  12.823   4.830   4.509 -1.4772 -1.3093  2.0909
  294MOL0     H39668  12.538   4.769   4.533  2.5758  3.5150  2.4749
  294MOL0     H39669  12.678   4.675   4.593  1.2688  1.7544  1.2769
  294MOL0     H39670  12.604   4.557   4.379  3.0981 -1.6071  1.4694
  294MOL0     H39671  12.748   4.653   4.356 -0.2355  2.9881  1.2443
  294MOL0     H39672  12.689   4.941   5.030  0.7450  1.2284 -0.4032
  294MOL0     H39673  12.510   4.799   5.071 -1.4431 -0.9115 -1.5331
  294MOL0     H39674  12.222   4.648   5.431 -0.8860  1.6530  1.5753
  294MOL0     H39675  12.065   4.510   5.502 -0.7774 -0.3172 -0.2050
  294MOL0     H39676  10.361   5.529   5.637 -3.3757 -0.6701  2.5433
  294MOL0     H39677  10.127   5.586   5.625  0.6472 -0.0075 -1.0570
  294MOL0     H39678   9.827   5.945   5.235 -1.1475  0.9328 -1.2918
  294MOL0     H39679   9.605   5.987   5.151 -2.5774 -0.8354 -0.7940
  294MOL0     H39680   9.365   5.686   4.992 -0.8504 -0.7879  0.3513
  294MOL0     H39681   9.319   5.651   5.166  1.9057  0.2877  0.5004
  294MOL0     H39682   9.206   5.882   5.015 -0.6993 -0.6029 -0.5138
  294MOL0     H39683   9.148   5.817   5.172 -0.9131 -1.5392  0.4935
  294MOL0     H39684   9.076   5.758   4.901  1.3971 -0.0803  0.3325
  294MOL0     H39685   8.977   5.733   5.027 -0.7418  0.6011 -0.4697
  294MOL0     H39686   9.199   5.520   4.970 -0.4844  0.4938  0.2513
  294MOL0     H39687   9.037   5.507   4.907  1.8096 -0.9128 -0.5677
  294MOL0     H39688   9.056   5.345   5.304 -2.6433 -0.4397 -0.8214
  294MOL0     H39689   9.490   5.587   5.238  0.6217 -0.6174 -1.5945
  294MOL0     H39690   9.709   5.540   5.330  1.0772  1.2002 -1.1730
  295MOL0     O39691   5.079   5.596   7.718  0.0387  0.0324  0.1536
  295MOL0     C39692   5.065   5.563   7.836  0.7306 -0.7548  0.3628
  295MOL0     O39693   5.001   5.640   7.932  0.0303  0.6174 -0.6484
  295MOL0     C39694   4.989   5.774   7.923 -0.8362 -0.5124  0.2650
  295MOL0     C39695   4.861   5.835   7.928  0.2633  0.6187 -0.1592
  295MOL0     C39696   4.848   5.975   7.922  0.6938 -0.0288 -0.2303
  295MOL0     C39697   4.955   6.070   7.928 -0.1385 -1.2629  0.2516
  295MOL0     O39698   4.933   6.204   7.918 -0.9010  0.0856  0.4554
  295MOL0     C39699   5.042   6.284   7.865  0.3894 -0.3412  0.9380
  295MOL0     C39700   4.991   6.429   7.857 -0.1973  0.8980 -0.2022
  295MOL0     C39701   4.881   6.443   7.762 -0.0118  0.9200  0.2324
  295MOL0     C39702   4.820   6.575   7.743  0.1216  0.1515  0.5970
  295MOL0     C39703   4.730   6.613   7.857  0.3427 -1.4789 -0.1188
  295MOL0     C39704   4.667   6.758   7.847 -0.0177 -0.1544  0.4664
  295MOL0     C39705   4.755   6.863   7.787  0.1786  0.1890 -0.0196
  295MOL0     C39706   4.682   6.990   7.754 -0.9002  0.1232 -0.4139
  295MOL0     N39707   4.611   7.049   7.866 -0.4713  0.0525 -0.0569
  295MOL0     C39708   4.677   7.104   7.983  1.3679  0.6482  1.2092
  295MOL0     C39709   4.571   7.149   8.059 -0.1612  0.6728 -0.0793
  295MOL0     C39710   4.586   7.209   8.201  0.9266  0.0073 -0.2666
  295MOL0     C39711   4.676   7.115   8.280  0.1789 -0.0452  0.4536
  295MOL0     C39712   4.609   7.004   8.334  0.5513  0.8833  0.1215
  295MOL0     C39713   4.611   6.876   8.243 -0.7234  0.2169  0.0142
  295MOL0     O39714   4.721   6.795   8.274 -0.3856  0.3855 -0.1988
  295MOL0     C39715   4.723   6.709   8.374 -0.4745 -1.4218 -0.1400
  295MOL0     C39716   4.845   6.649   8.385 -0.2078 -0.2453 -0.0977
  295MOL0     C39717   4.884   6.577   8.502 -0.0178 -0.0588  0.6233
  295MOL0     C39718   5.024   6.523   8.498 -0.0346  0.5359 -1.0999
  295MOL0     C39719   4.794   6.563   8.602  0.8728 -0.5507 -0.7381
  295MOL0     C39720   4.820   6.482   8.725  0.1073  0.2921 -0.1694
  295MOL0     O39721   4.705   6.451   8.800 -0.4922 -0.0164 -0.3674
  295MOL0     C39722   4.704   6.392   8.927  0.0307  0.1025  0.8435
  295MOL0     C39723   4.811   6.338   8.993 -0.3592 -0.1465  0.4633
  295MOL0     C39724   4.800   6.256   9.107  0.8669 -0.5772 -0.2409
  295MOL0     C39725   4.670   6.243   9.171 -0.6221  0.5995 -0.3740
  295MOL0     O39726   4.648   6.172   9.284  0.3145 -0.6434  0.1007
  295MOL0     C39727   4.761   6.160   9.374 -0.4302  0.7929  0.4311
  295MOL0     C39728   4.732   6.120   9.515  0.7069  1.1823 -0.3990
  295MOL0     C39729   4.629   6.220   9.567  0.5496 -0.3137 -0.1407
  295MOL0     C39730   4.580   6.181   9.713  0.5442 -0.1030  0.7954
  295MOL0     C39731   4.464   6.264   9.771 -0.1297  1.5123 -0.0800
  295MOL0     C39732   4.449   6.233   9.919  0.2349 -0.1986 -0.6146
  295MOL0     C39733   4.587   6.263  10.002  0.5592 -0.1040 -0.3804
  295MOL0     C39734   4.568   6.326  10.148  0.1938 -0.3373 -0.0680
  295MOL0    Cl39735   4.550   6.503  10.111 -0.0436  0.3246  0.1960
  295MOL0     C39736   4.570   6.313   9.111 -0.5188  0.1251 -0.3272
  295MOL0     C39737   4.577   6.389   8.987  0.2081  0.4607 -0.2253
  295MOL0     O39738   4.931   6.446   8.753 -0.6519  0.1259  0.1649
  295MOL0     C39739   4.662   6.625   8.593  0.1268  1.1933  0.5826
  295MOL0     C39740   4.624   6.694   8.471  0.0943  0.0923 -1.0108
  295MOL0     N39741   4.462   7.115   7.987 -0.0202 -0.4836  0.0626
  295MOL0     N39742   4.485   7.068   7.868  0.3264 -0.1749 -0.2465
  295MOL0     C39743   5.085   6.004   7.927 -0.4454  0.0091 -0.2473
  295MOL0     C39744   5.101   5.861   7.918  0.3924  0.6083 -0.8514
  295MOL0     C39745   5.102   5.433   7.873 -0.1570  0.1134  0.1485
  295MOL0     C39746   5.108   5.398   8.008  0.2993  1.2939 -0.8614
  295MOL0     C39747   5.123   5.266   8.044 -0.6518 -0.4081 -0.1891
  295MOL0     C39748   5.139   5.160   7.948  0.3667  0.3194  0.0474
  295MOL0     O39749   5.149   5.024   7.966  0.2702 -0.0082  0.0130
  295MOL0     C39750   5.114   4.969   8.103 -0.3551 -0.0215  0.3423
  295MOL0     C39751   5.092   4.823   8.086  1.4835  0.2110  0.1616
  295MOL0     C39752   5.208   4.732   8.031 -0.8534  0.0316 -0.9301
  295MOL0     C39753   5.168   4.590   8.003  1.0962  0.7139  0.4046
  295MOL0     C39754   5.074   4.584   7.884  0.0479 -0.2369  0.3549
  295MOL0     C39755   5.008   4.603   7.780 -0.3947 -0.2157 -0.1284
  295MOL0     C39756   5.152   5.198   7.818  0.3258  0.5609  0.6674
  295MOL0     C39757   5.130   5.332   7.777  0.6835  0.1206 -0.5627
  295MOL0     H39758   4.767   5.781   7.933  0.3683  0.4623  0.1417
  295MOL0     H39759   4.747   6.012   7.912  0.5135 -0.4607 -0.0401
  295MOL0     H39760   5.122   6.299   7.937  3.3341 -0.4619 -2.0621
  295MOL0     H39761   5.080   6.238   7.773 -1.1145  0.3009 -0.0523
  295MOL0     H39762   4.967   6.473   7.955 -0.2330  0.3671  0.0275
  295MOL0     H39763   5.073   6.485   7.810 -1.2063  3.1922  0.6428
  295MOL0     H39764   4.905   6.394   7.667 -1.2989  1.0805 -0.2049
  295MOL0     H39765   4.793   6.396   7.808  1.8326 -0.5342  2.5262
  295MOL0     H39766   4.901   6.647   7.731  0.8768 -0.9171 -1.1844
  295MOL0     H39767   4.767   6.594   7.649  2.4839  1.1912 -0.6134
  295MOL0     H39768   4.646   6.548   7.886 -1.1817  1.6967  3.3574
  295MOL0     H39769   4.796   6.623   7.944 -0.6073  0.9878  0.4003
  295MOL0     H39770   4.568   6.760   7.800 -0.5917 -2.2308  1.4412
  295MOL0     H39771   4.640   6.802   7.944  2.0103  3.2153 -0.3562
  295MOL0     H39772   4.824   6.880   7.870  1.6888 -0.5751 -1.0812
  295MOL0     H39773   4.803   6.824   7.697 -2.4713 -2.4297 -0.4672
  295MOL0     H39774   4.613   6.962   7.673  2.9707 -3.9141 -2.7422
  295MOL0     H39775   4.754   7.065   7.721 -1.7796  0.8658 -0.6737
  295MOL0     H39776   4.784   7.102   8.002  1.6303 -2.3616 -0.1003
  295MOL0     H39777   4.628   7.310   8.210 -0.4061  0.5417  0.4202
  295MOL0     H39778   4.483   7.218   8.237  0.9263  1.8228 -0.6492
  295MOL0     H39779   4.732   7.161   8.362 -0.6270  0.0187  0.9789
  295MOL0     H39780   4.756   7.086   8.211 -0.4801  0.6062 -0.6271
  295MOL0     H39781   4.512   7.040   8.368  0.3891  1.1095 -0.5703
  295MOL0     H39782   4.666   6.983   8.426  0.3159 -1.6148 -0.2296
  295MOL0     H39783   4.633   6.902   8.139 -0.9687  1.5005  0.2590
  295MOL0     H39784   4.511   6.831   8.239 -1.1494  1.2317 -2.6281
  295MOL0     H39785   4.901   6.657   8.293  0.8045 -1.0805  0.4265
  295MOL0     H39786   5.087   6.580   8.429  0.0859  1.7737 -0.0082
  295MOL0     H39787   5.071   6.536   8.595  1.2401  0.2572 -1.6626
  295MOL0     H39788   5.027   6.417   8.474 -1.5715  0.5790 -1.6267
  295MOL0     H39789   4.909   6.340   8.946 -0.0594 -1.3310  1.0135
  295MOL0     H39790   4.891   6.212   9.146  2.1857  3.0840  1.3238
  295MOL0     H39791   4.835   6.088   9.337 -3.1625 -0.6160 -2.7933
  295MOL0     H39792   4.786   6.266   9.390 -1.1777  1.2176 -1.0226
  295MOL0     H39793   4.696   6.017   9.513  0.3742  1.3018 -0.6799
  295MOL0     H39794   4.818   6.144   9.579  0.1019  0.5744  0.6724
  295MOL0     H39795   4.541   6.224   9.501  1.1799  0.1215 -0.9655
  295MOL0     H39796   4.675   6.319   9.570  3.7072 -1.7013  2.4491
  295MOL0     H39797   4.552   6.075   9.715 -0.2743  0.0974  0.2566
  295MOL0     H39798   4.672   6.186   9.772  1.4009 -0.9797 -0.4002
  295MOL0     H39799   4.380   6.233   9.708  2.5974 -0.5230 -3.0383
  295MOL0     H39800   4.480   6.372   9.759  2.9793  0.9153 -2.6639
  295MOL0     H39801   4.388   6.310   9.967  1.2906  0.2445  0.0730
  295MOL0     H39802   4.414   6.139   9.963 -0.1412  0.5793  0.8077
  295MOL0     H39803   4.646   6.335   9.945 -0.9622 -0.7983 -2.9716
  295MOL0     H39804   4.650   6.173  10.002 -2.1991 -2.1705 -1.7118
  295MOL0     H39805   4.652   6.307  10.215  0.8750 -0.0144 -0.8135
  295MOL0     H39806   4.479   6.288  10.199  2.2129 -1.7724  2.6107
  295MOL0     H39807   4.481   6.277   9.161 -1.1334 -1.2761 -2.3115
  295MOL0     H39808   4.484   6.422   8.941  1.6166  0.4529 -3.3208
  295MOL0     H39809   4.579   6.609   8.662 -1.1763  1.1257 -0.9509
  295MOL0     H39810   4.521   6.729   8.458  0.5869  2.0630 -0.0872
  295MOL0     H39811   5.176   6.063   7.931 -1.3582  1.4233  2.9890
  295MOL0     H39812   5.196   5.812   7.902  0.3659  0.0440  0.5450
  295MOL0     H39813   5.091   5.468   8.089 -0.6646  1.0667 -0.8639
  295MOL0     H39814   5.103   5.227   8.143 -1.9332 -2.4565 -1.1841
  295MOL0     H39815   5.187   5.003   8.177  0.6958  0.2184 -0.7761
  295MOL0     H39816   5.022   5.017   8.138 -0.6972 -0.6629  0.3314
  295MOL0     H39817   5.004   4.819   8.021  1.0102  1.2067  0.7092
  295MOL0     H39818   5.068   4.785   8.186  0.1930 -1.1925 -0.6397
  295MOL0     H39819   5.281   4.720   8.112 -3.5467  1.5548  1.9810
  295MOL0     H39820   5.263   4.779   7.950  2.4249  1.2472  1.7555
  295MOL0     H39821   5.111   4.543   8.084  0.0564 -1.2963 -1.3859
  295MOL0     H39822   5.260   4.534   7.983 -0.1602 -0.9396 -1.0982
  295MOL0     H39823   4.934   4.597   7.703  0.3240 -2.2725 -0.7257
  295MOL0     H39824   5.183   5.119   7.751 -2.5778  0.7344 -1.0364
  295MOL0     H39825   5.139   5.344   7.669 -2.0291 -2.9593 -1.2606
  296MOL0     O39826   9.229  10.410   0.074 -0.5941 -0.5950  0.1452
  296MOL0     C39827   9.280  10.516   0.095  0.1415 -0.1091  0.8146
  296MOL0     O39828   9.261  10.598   0.202  0.5604  0.3853 -0.0369
  296MOL0     C39829   9.180  10.558   0.303  0.1983  0.4741 -1.2895
  296MOL0     C39830   9.199  10.443   0.383  0.5849 -0.4182 -0.3211
  296MOL0     C39831   9.108  10.411   0.486  0.0931 -0.4782 -0.4176
  296MOL0     C39832   9.005  10.493   0.522 -0.5288 -0.0662 -0.3176
  296MOL0     O39833   8.919  10.475   0.628 -0.2147 -0.5869  0.0055
  296MOL0     C39834   8.957  10.380   0.730 -0.3857 -0.3466 -0.1193
  296MOL0     C39835   8.921  10.235   0.695  0.8431 -0.3354  0.6817
  296MOL0     C39836   8.990  10.130   0.787 -0.6935  0.9255  0.3419
  296MOL0     C39837   8.913   9.998   0.780 -0.8688 -0.6187  0.3586
  296MOL0     C39838   8.980   9.882   0.845  0.1667  0.0199  0.4689
  296MOL0     C39839   8.932   9.743   0.800 -0.0520  0.2132  0.2826
  296MOL0     C39840   8.789   9.725   0.821 -0.4826  0.2419 -0.5181
  296MOL0     C39841   8.755   9.583   0.780  0.2656 -0.1429 -0.6110
  296MOL0     N39842   8.734   9.560   0.635  0.4746  0.1207 -1.1046
  296MOL0     C39843   8.825   9.559   0.533 -0.7555  0.7610 -0.0443
  296MOL0     C39844   8.742   9.546   0.422 -0.8114 -0.0536  0.8917
  296MOL0     C39845   8.786   9.527   0.278 -0.3628  0.6772  0.6706
  296MOL0     C39846   8.870   9.401   0.259 -0.2832 -0.0176  0.4882
  296MOL0     C39847   8.768   9.292   0.268  0.1908 -0.1212  0.4704
  296MOL0     C39848   8.825   9.159   0.244 -0.4957  0.7396 -0.6712
  296MOL0     O39849   8.931   9.125   0.332 -0.8445 -1.1500 -0.4567
  296MOL0     C39850   8.901   9.066   0.452  0.0858  0.5209  0.2563
  296MOL0     C39851   9.010   9.025   0.527  0.4228  0.3564  0.1888
  296MOL0     C39852   9.005   8.986   0.661  0.3135 -1.0387 -0.4652
  296MOL0     C39853   9.137   8.936   0.721  0.4861 -0.0287 -0.2938
  296MOL0     C39854   8.886   9.004   0.735  0.1524  0.3995  0.6110
  296MOL0     C39855   8.883   8.969   0.873 -0.0611 -0.4878  0.3077
  296MOL0     O39856   8.771   8.905   0.927 -0.8330  1.0155  0.7361
  296MOL0     C39857   8.779   8.851   1.055 -0.4701  0.6307  0.3377
  296MOL0     C39858   8.879   8.777   1.099 -0.7308  0.1926  0.5522
  296MOL0     C39859   8.897   8.735   1.225 -0.4147 -0.5092  0.3394
  296MOL0     C39860   8.818   8.801   1.322  0.2253 -0.2774 -0.7231
  296MOL0     O39861   8.849   8.816   1.457 -0.5320 -0.0768  0.7244
  296MOL0     C39862   8.927   8.705   1.507  0.0059 -0.2919  0.1870
  296MOL0     C39863   8.980   8.742   1.650 -0.6159  0.4911  0.5778
  296MOL0     C39864   9.043   8.615   1.716 -0.3417 -0.9694  0.8873
  296MOL0     C39865   9.173   8.576   1.645 -0.6299  0.0989 -0.4947
  296MOL0     C39866   9.241   8.484   1.755 -1.2195  0.7100 -0.8807
  296MOL0     C39867   9.361   8.403   1.698 -0.0574  0.9220  0.4152
  296MOL0     C39868   9.335   8.299   1.581  1.1262  0.9253  0.7732
  296MOL0     C39869   9.227   8.196   1.607  0.4936  0.2542 -0.4064
  296MOL0    Cl39870   9.233   8.083   1.464 -0.0941 -0.0996  0.5307
  296MOL0     C39871   8.707   8.867   1.277  1.0284  0.3305 -0.1619
  296MOL0     C39872   8.681   8.883   1.146  0.5679  0.3960 -0.4782
  296MOL0     O39873   8.983   9.001   0.931 -0.0288 -0.1104 -0.5654
  296MOL0     C39874   8.775   9.043   0.656 -0.2686  0.6170  0.3741
  296MOL0     C39875   8.787   9.073   0.522  0.3033 -1.0868  0.1820
  296MOL0     N39876   8.608   9.552   0.462  0.8769  0.3238  0.5770
  296MOL0     N39877   8.605   9.564   0.592  0.0369  0.4607 -0.1574
  296MOL0     C39878   8.981  10.602   0.448 -1.3384 -0.1105  0.4628
  296MOL0     C39879   9.068  10.638   0.341  1.0251  0.6647 -0.4136
  296MOL0     C39880   9.385  10.557  -0.007 -0.3742  0.4458 -0.3624
  296MOL0     C39881   9.418  10.684  -0.026 -0.3336  0.2441 -0.0183
  296MOL0     C39882   9.523  10.729  -0.107 -1.1261 -0.3155  0.4931
  296MOL0     C39883   9.591  10.635  -0.187 -0.3875  0.1628 -0.1076
  296MOL0     O39884   9.689  10.647  -0.280 -0.8353 -0.7473 -0.7469
  296MOL0     C39885   9.746  10.779  -0.298  0.9735  1.0984 -0.2321
  296MOL0     C39886   9.881  10.761  -0.361 -0.4575  0.3821  0.4992
  296MOL0     C39887   9.976  10.666  -0.280 -0.8444  0.4167  0.5078
  296MOL0     C39888   9.978  10.698  -0.132  0.0056 -0.4839  0.9423
  296MOL0     C39889   9.993  10.838  -0.093 -0.2532 -1.1984  0.6428
  296MOL0     C39890   9.984  10.943  -0.041 -0.2555 -0.7740 -0.2250
  296MOL0     C39891   9.552  10.500  -0.182  0.3120  0.4667 -1.3508
  296MOL0     C39892   9.453  10.466  -0.091  0.4536  0.6453 -0.2237
  296MOL0     H39893   9.286  10.382   0.361  0.7126  0.9492 -4.4091
  296MOL0     H39894   9.127  10.323   0.547  0.2578 -0.5122 -0.5173
  296MOL0     H39895   9.065  10.386   0.745 -0.4102  3.0175 -0.5510
  296MOL0     H39896   8.912  10.411   0.825 -1.0451  0.2406 -0.6109
  296MOL0     H39897   8.815  10.208   0.694  1.3398 -2.5115  0.4007
  296MOL0     H39898   8.955  10.216   0.592 -0.7993 -1.4889  0.3239
  296MOL0     H39899   9.091  10.122   0.745  0.0348 -1.7217  2.3337
  296MOL0     H39900   8.997  10.162   0.891 -2.5860 -3.0896  1.8899
  296MOL0     H39901   8.816  10.017   0.827 -0.3036  0.4733  1.1440
  296MOL0     H39902   8.899   9.974   0.675  1.9064 -0.4503 -0.1248
  296MOL0     H39903   9.088   9.886   0.828  0.4165 -2.5202  1.0308
  296MOL0     H39904   8.970   9.880   0.954  0.6811 -3.8315  0.5706
  296MOL0     H39905   8.953   9.733   0.693  1.7233  4.4407  0.0395
  296MOL0     H39906   8.987   9.668   0.857  2.5078  2.0553  0.4083
  296MOL0     H39907   8.756   9.738   0.925 -2.8718 -3.8300 -0.5638
  296MOL0     H39908   8.728   9.796   0.763 -0.7715  1.2156  0.9185
  296MOL0     H39909   8.660   9.558   0.828 -0.8008  1.0137 -1.9983
  296MOL0     H39910   8.835   9.516   0.814  2.9710  2.9456 -0.4304
  296MOL0     H39911   8.933   9.561   0.529 -0.7853  1.7251 -0.8151
  296MOL0     H39912   8.703   9.520   0.207 -1.0045 -3.6856  1.5456
  296MOL0     H39913   8.843   9.614   0.244  0.5970 -0.3902 -0.5344
  296MOL0     H39914   8.955   9.403   0.328  0.2192 -0.6156 -0.0955
  296MOL0     H39915   8.909   9.390   0.157 -1.6767 -1.2229  0.0365
  296MOL0     H39916   8.693   9.316   0.192 -1.3108 -0.4932  1.7826
  296MOL0     H39917   8.719   9.292   0.366  2.1133 -0.7854  1.4791
  296MOL0     H39918   8.854   9.154   0.138 -0.6401 -0.9622 -0.6640
  296MOL0     H39919   8.731   9.104   0.248  0.4383 -1.1491 -2.4545
  296MOL0     H39920   9.108   9.021   0.479  1.0870  2.7700  1.2065
  296MOL0     H39921   9.139   8.887   0.819  0.7331  3.0338  1.3548
  296MOL0     H39922   9.177   8.864   0.649 -2.5694 -2.3393  0.0939
  296MOL0     H39923   9.204   9.022   0.718 -2.0499  2.0612 -3.4921
  296MOL0     H39924   8.962   8.751   1.033  0.0958  3.5911  0.0707
  296MOL0     H39925   8.974   8.664   1.253  2.5206  2.3813  0.1443
  296MOL0     H39926   8.856   8.624   1.520 -1.6556  0.5305 -2.8383
  296MOL0     H39927   9.015   8.672   1.450 -0.2000 -1.1670  0.3695
  296MOL0     H39928   9.060   8.816   1.637  1.1415 -0.8851  2.6999
  296MOL0     H39929   8.902   8.780   1.717 -0.2414  1.0170  0.7211
  296MOL0     H39930   8.966   8.539   1.734 -0.5282 -0.7699  0.9462
  296MOL0     H39931   9.054   8.648   1.820 -4.1864  3.1925  0.2829
  296MOL0     H39932   9.164   8.532   1.545 -1.0441  1.4661 -1.0734
  296MOL0     H39933   9.234   8.664   1.625 -2.2144  2.0961  2.5936
  296MOL0     H39934   9.168   8.410   1.791  1.4055 -2.6145 -1.8522
  296MOL0     H39935   9.272   8.549   1.837  0.7792  2.2119 -2.7204
  296MOL0     H39936   9.447   8.458   1.658  1.0154  1.3103  3.0208
  296MOL0     H39937   9.402   8.353   1.786 -2.7863 -1.9102  0.2219
  296MOL0     H39938   9.421   8.245   1.540 -0.8413 -2.2266  0.4575
  296MOL0     H39939   9.296   8.362   1.501 -0.4412 -1.0625 -0.1373
  296MOL0     H39940   9.127   8.240   1.614 -0.1371 -1.0784 -0.7740
  296MOL0     H39941   9.258   8.136   1.692  0.7397 -0.3634 -0.9235
  296MOL0     H39942   8.640   8.905   1.354 -0.7793 -2.6362 -0.1300
  296MOL0     H39943   8.593   8.942   1.125  1.0823  0.1123 -4.0162
  296MOL0     H39944   8.675   9.046   0.698 -1.5251  3.2437 -2.4798
  296MOL0     H39945   8.700   9.106   0.467  0.4054 -1.3456 -0.1447
  296MOL0     H39946   8.894  10.667   0.460 -0.7474  1.4759 -2.6638
  296MOL0     H39947   9.038  10.721   0.277  2.1312  0.6009 -1.0461
  296MOL0     H39948   9.351  10.754   0.024 -1.0797 -0.4438 -0.0283
  296MOL0     H39949   9.548  10.834  -0.118 -3.3262 -0.0248 -3.8693
  296MOL0     H39950   9.677  10.822  -0.372  1.8866  2.2035 -0.4752
  296MOL0     H39951   9.749  10.844  -0.209  0.9245  2.7754 -1.4068
  296MOL0     H39952   9.936  10.856  -0.365  2.2195 -0.9823  1.8357
  296MOL0     H39953   9.870  10.720  -0.462 -1.7007  3.1171 -0.5720
  296MOL0     H39954  10.078  10.671  -0.321 -1.3541  4.4917 -0.7759
  296MOL0     H39955   9.930  10.569  -0.302 -0.2707 -0.2356  2.0316
  296MOL0     H39956  10.049  10.631  -0.081  2.3138  0.3300 -1.0058
  296MOL0     H39957   9.881  10.679  -0.086 -0.4652  0.0281  0.1775
  296MOL0     H39958   9.991  11.023   0.030  3.9500 -1.3102  0.2163
  296MOL0     H39959   9.603  10.436  -0.253 -1.3387  1.1067 -3.1800
  296MOL0     H39960   9.420  10.363  -0.082  1.9722  0.0883 -0.6949
  297MOL0     O39961   8.033   3.393   1.058  0.0594 -0.6278  0.3192
  297MOL0     C39962   8.025   3.338   0.949  0.5411 -0.7999  0.3284
  297MOL0     O39963   7.949   3.378   0.840 -0.1638  0.1441  0.2772
  297MOL0     C39964   7.876   3.496   0.828 -0.4274 -0.1746  0.1476
  297MOL0     C39965   7.818   3.575   0.938 -0.0149 -0.3237 -0.0587
  297MOL0     C39966   7.739   3.687   0.916 -0.6608  0.1567  0.0753
  297MOL0     C39967   7.700   3.728   0.787  0.0152  1.0023  1.2153
  297MOL0     O39968   7.636   3.845   0.770 -0.2409 -0.0687  0.7108
  297MOL0     C39969   7.531   3.854   0.677  0.5440  0.0994  0.0519
  297MOL0     C39970   7.570   3.951   0.559 -0.5681 -0.6006  0.4222
  297MOL0     C39971   7.571   4.104   0.593  0.7571 -0.2585 -0.2084
  297MOL0     C39972   7.439   4.165   0.634 -0.1870  0.2073  0.3922
  297MOL0     C39973   7.460   4.313   0.658 -0.8283  0.8007 -0.4090
  297MOL0     C39974   7.326   4.387   0.625 -0.1729  0.1851 -0.7413
  297MOL0     C39975   7.339   4.537   0.658 -0.2853 -0.4184  0.1812
  297MOL0     C39976   7.238   4.626   0.579  0.5708  0.0610 -0.0184
  297MOL0     N39977   7.220   4.771   0.619 -0.1670  0.4363  0.7800
  297MOL0     C39978   7.242   4.819   0.751  0.4534  0.3270 -0.4590
  297MOL0     C39979   7.224   4.956   0.727  0.2153  0.5143  0.2727
  297MOL0     C39980   7.226   5.056   0.841 -0.3378  0.2957 -0.5389
  297MOL0     C39981   7.129   5.176   0.824 -0.4391 -0.1980  0.9541
  297MOL0     C39982   6.997   5.141   0.773  0.1540  0.2418 -0.3803
  297MOL0     C39983   6.928   5.029   0.858 -0.2973 -0.5900 -0.6854
  297MOL0     O39984   6.796   5.024   0.805  0.4224  0.1721  0.4010
  297MOL0     C39985   6.702   4.967   0.890 -0.0721  1.0799 -0.7523
  297MOL0     C39986   6.716   4.832   0.944 -0.1932 -0.1177 -0.2814
  297MOL0     C39987   6.615   4.780   1.019 -0.2947  0.4714  0.5119
  297MOL0     C39988   6.625   4.640   1.072 -0.4897 -0.7258 -0.1939
  297MOL0     C39989   6.495   4.845   1.016  0.3169 -0.8933 -0.2507
  297MOL0     C39990   6.371   4.791   1.085  1.5774  0.8893  0.2920
  297MOL0     O39991   6.389   4.731   1.213  0.1957 -0.1208 -0.3038
  297MOL0     C39992   6.277   4.660   1.260  0.8528 -0.3788  0.4365
  297MOL0     C39993   6.315   4.538   1.316  1.0803  0.6866 -0.6358
  297MOL0     C39994   6.215   4.458   1.367 -0.2153  0.2194 -0.0210
  297MOL0     C39995   6.083   4.500   1.393  0.5563  0.3033  0.5527
  297MOL0     O39996   5.998   4.403   1.435  0.6327 -0.6737 -0.0381
  297MOL0     C39997   5.868   4.445   1.491  0.1383 -0.0939  0.8698
  297MOL0     C39998   5.837   4.364   1.623 -0.2319  0.2106 -0.6683
  297MOL0     C39999   5.807   4.219   1.573  0.0640 -0.2544  0.1778
  297MOL0     C40000   5.734   4.138   1.674  1.0955  0.3894  0.4012
  297MOL0     C40001   5.585   4.113   1.650 -0.1276 -0.4838  0.0453
  297MOL0     C40002   5.508   4.247   1.637 -0.6784  0.2860 -0.0708
  297MOL0     C40003   5.355   4.247   1.629  0.3591 -0.4848 -0.3595
  297MOL0     C40004   5.275   4.156   1.537 -0.3048  0.1207 -0.0382
  297MOL0    Cl40005   5.352   4.186   1.371 -0.4273 -0.7355 -0.0216
  297MOL0     C40006   6.048   4.622   1.341 -0.8722 -0.1265  0.3176
  297MOL0     C40007   6.141   4.699   1.265  0.4139  0.4624 -0.8515
  297MOL0     O40008   6.259   4.815   1.029 -0.0507 -0.4310 -0.0987
  297MOL0     C40009   6.484   4.972   0.965  0.0416  0.3108  0.4070
  297MOL0     C40010   6.583   5.045   0.904  0.2281 -0.8797 -0.9105
  297MOL0     N40011   7.214   4.981   0.589  0.3447  0.4179  0.9184
  297MOL0     N40012   7.209   4.868   0.530 -0.5592 -0.2630 -0.4631
  297MOL0     C40013   7.752   3.646   0.678  0.4314 -1.2560 -1.3055
  297MOL0     C40014   7.838   3.534   0.699 -0.3871  0.6861  0.2991
  297MOL0     C40015   8.083   3.203   0.950 -0.1439  1.1683  0.1721
  297MOL0     C40016   8.081   3.125   0.836 -0.3383  0.3350 -0.2817
  297MOL0     C40017   8.128   2.992   0.838  1.4798  0.0892  0.5264
  297MOL0     C40018   8.177   2.935   0.954  0.0224 -0.2735  0.4166
  297MOL0     O40019   8.233   2.808   0.969 -0.1456  0.0784 -0.6674
  297MOL0     C40020   8.155   2.697   0.909  0.5725  0.2271  0.0563
  297MOL0     C40021   8.179   2.567   0.993  0.1986  0.3020 -0.0320
  297MOL0     C40022   8.305   2.499   0.934  0.2342 -0.1109  0.7595
  297MOL0     C40023   8.311   2.354   0.967  0.7012  0.1632  0.8515
  297MOL0     C40024   8.439   2.287   0.917  0.5363  0.0026  0.3202
  297MOL0     C40025   8.542   2.233   0.877 -0.1373  0.5343  1.0036
  297MOL0     C40026   8.178   3.019   1.067  0.6357 -0.1334  0.4093
  297MOL0     C40027   8.132   3.149   1.070 -0.4799 -0.0855  0.1608
  297MOL0     H40028   7.836   3.547   1.041 -2.3809 -0.5597  0.3434
  297MOL0     H40029   7.694   3.741   0.999 -0.5428 -0.9566  0.8939
  297MOL0     H40030   7.492   3.757   0.645 -3.7592  2.1002 -1.6443
  297MOL0     H40031   7.446   3.903   0.726  0.5521  0.7272 -0.5486
  297MOL0     H40032   7.673   3.922   0.535 -0.1465 -0.9806  2.4850
  297MOL0     H40033   7.512   3.939   0.467  4.8031  0.3413 -3.5562
  297MOL0     H40034   7.652   4.124   0.664  0.8013 -1.2669  0.0297
  297MOL0     H40035   7.611   4.153   0.503 -1.1056  0.3530 -0.7394
  297MOL0     H40036   7.369   4.138   0.555 -0.6581 -0.2853  0.9654
  297MOL0     H40037   7.407   4.119   0.728  0.9135 -2.2333 -0.3491
  297MOL0     H40038   7.494   4.334   0.760  0.7158 -1.6071 -0.3587
  297MOL0     H40039   7.533   4.355   0.589 -2.2113  0.6618 -2.0333
  297MOL0     H40040   7.306   4.363   0.520  0.8079 -4.5056 -0.0872
  297MOL0     H40041   7.253   4.335   0.688  1.3884  0.3785  1.3023
  297MOL0     H40042   7.327   4.558   0.765 -0.9242  3.0823 -0.4562
  297MOL0     H40043   7.438   4.570   0.624 -0.1233  0.0519  1.0821
  297MOL0     H40044   7.140   4.582   0.598  1.2582 -1.4643  0.1687
  297MOL0     H40045   7.263   4.627   0.472 -0.4253  2.0389 -0.2799
  297MOL0     H40046   7.246   4.766   0.845 -1.7553 -1.2046 -1.1415
  297MOL0     H40047   7.216   5.004   0.937  1.2173  3.4956  1.5019
  297MOL0     H40048   7.325   5.101   0.837 -0.0984  0.1377  1.8850
  297MOL0     H40049   7.182   5.244   0.757  0.2510 -0.8099  0.8634
  297MOL0     H40050   7.112   5.232   0.916 -1.4323 -0.7224  1.1059
  297MOL0     H40051   7.004   5.116   0.667 -0.9336  1.8288 -0.8584
  297MOL0     H40052   6.933   5.230   0.776 -2.1091 -1.3261  1.5997
  297MOL0     H40053   6.923   5.057   0.963 -2.4212 -1.5180 -0.4705
  297MOL0     H40054   6.976   4.931   0.859  1.1743  0.1075  0.4069
  297MOL0     H40055   6.811   4.781   0.933 -0.5802 -1.2647  1.4032
  297MOL0     H40056   6.592   4.636   1.177  0.1647 -0.1953  0.0337
  297MOL0     H40057   6.568   4.561   1.022  0.0696 -0.9095 -0.5445
  297MOL0     H40058   6.732   4.623   1.061 -0.3485 -0.5454  0.7923
  297MOL0     H40059   6.420   4.512   1.305  0.8066 -1.8975  1.8569
  297MOL0     H40060   6.241   4.361   1.406  1.6654  1.3265  1.6472
  297MOL0     H40061   5.880   4.549   1.523  3.7155 -0.0326 -0.2493
  297MOL0     H40062   5.797   4.419   1.412  0.9629  0.8228 -0.2087
  297MOL0     H40063   5.933   4.358   1.675  0.6745  0.3421 -2.2738
  297MOL0     H40064   5.761   4.410   1.688  1.0226  0.3925  0.7282
  297MOL0     H40065   5.900   4.161   1.573 -1.3178 -2.6561 -1.8510
  297MOL0     H40066   5.762   4.229   1.474 -0.5710 -1.4493  0.3299
  297MOL0     H40067   5.778   4.038   1.674 -1.3835 -0.7812 -0.4775
  297MOL0     H40068   5.744   4.176   1.776  1.5949 -1.3681  1.0497
  297MOL0     H40069   5.534   4.051   1.725  0.8450 -3.7003 -1.7471
  297MOL0     H40070   5.566   4.070   1.551  0.6005 -2.0459  0.5483
  297MOL0     H40071   5.527   4.299   1.732 -1.8169 -1.3666  1.1041
  297MOL0     H40072   5.561   4.296   1.554 -0.0020 -2.7430 -1.5704
  297MOL0     H40073   5.324   4.349   1.604  2.3788  0.3368  0.2511
  297MOL0     H40074   5.318   4.224   1.729 -0.8710 -4.3947 -1.5191
  297MOL0     H40075   5.173   4.194   1.526 -0.0868  1.3207  1.6652
  297MOL0     H40076   5.289   4.052   1.567  1.2606  0.3201  0.0002
  297MOL0     H40077   5.945   4.652   1.352 -0.0931  2.3568  1.7554
  297MOL0     H40078   6.101   4.797   1.244 -1.4122  0.4134  1.9220
  297MOL0     H40079   6.383   5.012   0.973 -1.1123 -2.7175  3.1993
  297MOL0     H40080   6.555   5.142   0.863 -2.8929 -1.1650  0.2215
  297MOL0     H40081   7.739   3.700   0.584 -0.8275 -0.5511 -0.7457
  297MOL0     H40082   7.871   3.484   0.609  0.2790  2.1300 -0.2866
  297MOL0     H40083   8.053   3.170   0.741  1.1877  1.5425 -0.2016
  297MOL0     H40084   8.135   2.932   0.749 -2.5277 -0.2475  0.2180
  297MOL0     H40085   8.049   2.721   0.893  0.5674 -1.6298 -3.8915
  297MOL0     H40086   8.189   2.677   0.807 -0.7876 -0.7711 -0.2243
  297MOL0     H40087   8.103   2.491   0.975  1.2553 -0.7830 -0.0871
  297MOL0     H40088   8.184   2.585   1.101 -2.0299  0.2248  0.1338
  297MOL0     H40089   8.405   2.540   0.949  2.3291 -0.6778 -7.1441
  297MOL0     H40090   8.299   2.505   0.825 -1.0438  0.3664  0.8387
  297MOL0     H40091   8.233   2.302   0.910 -0.0161  0.2986  1.6935
  297MOL0     H40092   8.291   2.335   1.072  0.2966  0.3047  0.8020
  297MOL0     H40093   8.639   2.197   0.850 -0.4202  0.3269  0.2576
  297MOL0     H40094   8.241   2.982   1.148 -0.3896 -1.8629  0.4529
  297MOL0     H40095   8.138   3.217   1.155 -1.1633  0.7589 -0.4501
  298MOL0     O40096   3.224   7.593   2.641 -0.3567 -0.2407 -0.2798
  298MOL0     C40097   3.219   7.691   2.563  0.2634 -0.1846  0.1677
  298MOL0     O40098   3.327   7.731   2.496 -0.1533  0.6978  0.7255
  298MOL0     C40099   3.444   7.651   2.508 -0.2659  1.5040 -0.3627
  298MOL0     C40100   3.453   7.511   2.513 -0.4891  0.5108 -0.8398
  298MOL0     C40101   3.578   7.450   2.526 -0.1419 -1.0450 -1.1098
  298MOL0     C40102   3.698   7.523   2.546  0.0823 -0.6710  0.7919
  298MOL0     O40103   3.804   7.448   2.596  0.6420 -0.3870  0.2794
  298MOL0     C40104   3.943   7.478   2.573  0.2712  0.9217 -0.7482
  298MOL0     C40105   4.033   7.357   2.622 -0.4431  0.8049  0.6854
  298MOL0     C40106   4.027   7.239   2.522 -0.1525  0.3718  0.4460
  298MOL0     C40107   4.098   7.111   2.570 -0.5613  0.0563 -0.0594
  298MOL0     C40108   4.244   7.112   2.607  0.1900 -0.2546 -0.5152
  298MOL0     C40109   4.316   7.139   2.470  1.2714 -0.4491  0.7248
  298MOL0     C40110   4.471   7.159   2.484 -0.5017 -0.6139 -0.4482
  298MOL0     C40111   4.546   7.067   2.585  0.4463  0.1733 -1.1608
  298MOL0     N40112   4.537   6.924   2.543  0.1047 -0.4813  0.1501
  298MOL0     C40113   4.596   6.878   2.431 -0.3840  0.4573 -0.2249
  298MOL0     C40114   4.552   6.754   2.401 -0.0488 -0.7170 -0.2659
  298MOL0     C40115   4.593   6.690   2.262  0.3761 -0.5440  0.9438
  298MOL0     C40116   4.518   6.739   2.139  0.5094  0.1048  0.4681
  298MOL0     C40117   4.549   6.889   2.111 -0.7392  0.2320 -0.3730
  298MOL0     C40118   4.467   6.937   1.992 -0.2494 -0.1901 -1.1142
  298MOL0     O40119   4.327   6.948   2.024 -0.2035 -1.0122 -0.4738
  298MOL0     C40120   4.278   7.075   2.070 -0.3231 -0.5502 -1.0463
  298MOL0     C40121   4.358   7.178   2.122 -0.0029  0.6002 -0.5991
  298MOL0     C40122   4.305   7.311   2.150 -0.4357  0.6083  0.5203
  298MOL0     C40123   4.399   7.410   2.204 -0.1971 -0.5231  0.1914
  298MOL0     C40124   4.165   7.332   2.142 -0.2663 -0.9152  1.7083
  298MOL0     C40125   4.096   7.462   2.179  0.7735  0.8466 -0.0888
  298MOL0     O40126   3.958   7.444   2.184 -0.1796  0.4164 -0.6934
  298MOL0     C40127   3.868   7.548   2.173 -0.2899  0.0911  1.3149
  298MOL0     C40128   3.763   7.513   2.084  0.2378  0.1470  0.4585
  298MOL0     C40129   3.652   7.601   2.071 -0.3783  0.8799 -0.3920
  298MOL0     C40130   3.653   7.720   2.141  0.2690  0.4583  0.0163
  298MOL0     O40131   3.547   7.809   2.149 -0.1422 -0.1776  0.0215
  298MOL0     C40132   3.474   7.826   2.030 -0.4962 -0.0390 -0.8125
  298MOL0     C40133   3.407   7.962   2.027  0.4347 -0.1410 -0.4970
  298MOL0     C40134   3.355   8.011   2.165 -0.2583 -0.7353  0.4010
  298MOL0     C40135   3.462   8.062   2.259 -0.0943 -0.9562  0.2624
  298MOL0     C40136   3.404   8.148   2.370 -0.2892  0.4618 -0.1572
  298MOL0     C40137   3.520   8.193   2.454 -0.3745  0.4467  0.1549
  298MOL0     C40138   3.494   8.292   2.567  0.1072 -0.9020 -0.2924
  298MOL0     C40139   3.375   8.265   2.657 -0.1402  0.0835  0.0676
  298MOL0    Cl40140   3.362   8.400   2.771 -0.5176 -0.1872 -0.0239
  298MOL0     C40141   3.751   7.751   2.234  0.2282 -0.2226  0.4578
  298MOL0     C40142   3.864   7.667   2.249 -0.8147 -0.4168 -0.0428
  298MOL0     O40143   4.153   7.564   2.203 -0.7310  1.4459 -0.3149
  298MOL0     C40144   4.088   7.231   2.096  0.2356 -0.5982 -0.1777
  298MOL0     C40145   4.141   7.103   2.062  0.2774 -0.0866 -0.2513
  298MOL0     N40146   4.457   6.728   2.502  0.3434  0.6490  0.1581
  298MOL0     N40147   4.457   6.821   2.587  0.2703  0.0539 -0.1545
  298MOL0     C40148   3.691   7.663   2.530  0.0754  0.1535 -0.3533
  298MOL0     C40149   3.560   7.721   2.517  0.1631  0.2124  0.5920
  298MOL0     C40150   3.079   7.754   2.552  0.4218 -0.8002 -0.3078
  298MOL0     C40151   3.058   7.845   2.454 -0.2516  0.4733 -0.3296
  298MOL0     C40152   2.940   7.924   2.446 -0.1241  0.6342  0.8248
  298MOL0     C40153   2.831   7.902   2.531  0.2515  0.3928 -0.6611
  298MOL0     O40154   2.711   7.969   2.532 -0.5345 -0.4827 -0.8410
  298MOL0     C40155   2.666   8.040   2.407 -1.4220  0.1938  0.0124
  298MOL0     C40156   2.530   8.110   2.427  0.3435  0.0827 -0.7561
  298MOL0     C40157   2.509   8.241   2.357 -0.7510  1.0125  0.0970
  298MOL0     C40158   2.370   8.279   2.335 -0.3384 -0.3806 -0.1626
  298MOL0     C40159   2.302   8.183   2.242 -0.1103 -1.5700  0.0818
  298MOL0     C40160   2.246   8.105   2.171 -0.3175  0.0713 -0.8564
  298MOL0     C40161   2.852   7.795   2.628  0.1009  0.1544 -0.2872
  298MOL0     C40162   2.971   7.727   2.644 -0.7057  0.6469  0.7800
  298MOL0     H40163   3.360   7.458   2.492 -1.4487  1.3005  1.1573
  298MOL0     H40164   3.594   7.343   2.519  0.5555 -1.0707  0.4122
  298MOL0     H40165   3.964   7.505   2.469 -1.9176  0.5176 -1.3549
  298MOL0     H40166   3.969   7.559   2.641  1.6726 -0.8024  0.8720
  298MOL0     H40167   4.140   7.377   2.634 -0.0444  0.7681 -2.1327
  298MOL0     H40168   3.997   7.325   2.720  1.8690 -0.9939  1.0307
  298MOL0     H40169   3.924   7.204   2.513 -0.2146  0.9910 -2.0777
  298MOL0     H40170   4.050   7.267   2.419  0.7078 -0.1901  0.4775
  298MOL0     H40171   4.041   7.080   2.659 -0.5031  2.1103  0.7405
  298MOL0     H40172   4.075   7.032   2.498  0.6611  0.9609 -1.4871
  298MOL0     H40173   4.267   7.191   2.678 -2.5999  0.3805 -0.2290
  298MOL0     H40174   4.283   7.025   2.660 -0.4996 -0.8154 -0.9087
  298MOL0     H40175   4.306   7.045   2.414  1.7022  0.1916 -0.4511
  298MOL0     H40176   4.278   7.227   2.419  0.5778  0.4535  2.7011
  298MOL0     H40177   4.522   7.147   2.388  0.8851 -1.3714  0.3504
  298MOL0     H40178   4.485   7.259   2.527 -1.8353 -0.1390 -1.0658
  298MOL0     H40179   4.498   7.077   2.683 -2.3714  1.5143 -2.5534
  298MOL0     H40180   4.652   7.093   2.589 -0.1189  2.6483  0.2075
  298MOL0     H40181   4.667   6.940   2.377  0.4366 -0.5876 -0.3803
  298MOL0     H40182   4.696   6.716   2.237 -1.0196  1.7141 -3.3956
  298MOL0     H40183   4.591   6.581   2.265 -2.1608 -0.5461  2.3187
  298MOL0     H40184   4.411   6.728   2.158  0.3620  0.4771 -0.1345
  298MOL0     H40185   4.546   6.678   2.053  2.1697 -1.5150  2.0825
  298MOL0     H40186   4.655   6.896   2.087 -0.4513 -3.5404 -0.7356
  298MOL0     H40187   4.528   6.957   2.194  1.1797  1.7954 -1.0869
  298MOL0     H40188   4.485   6.871   1.907 -1.2819 -0.3372 -1.2274
  298MOL0     H40189   4.504   7.037   1.965 -1.1547  1.1459  2.0415
  298MOL0     H40190   4.465   7.160   2.128 -0.3024 -1.0657  0.6572
  298MOL0     H40191   4.501   7.379   2.231 -0.2598 -0.6258  0.3123
  298MOL0     H40192   4.409   7.500   2.143 -2.6285 -0.1150  0.3275
  298MOL0     H40193   4.351   7.431   2.300 -1.8501 -2.6087 -0.1053
  298MOL0     H40194   3.763   7.420   2.027 -0.7524  0.0880  0.5374
  298MOL0     H40195   3.575   7.578   1.998  0.2343  0.8806 -1.0392
  298MOL0     H40196   3.547   7.825   1.950 -1.4500 -2.4561 -1.7486
  298MOL0     H40197   3.404   7.747   2.002  1.5740 -1.9838 -0.7293
  298MOL0     H40198   3.471   8.035   1.977  1.3569 -1.3825 -1.1619
  298MOL0     H40199   3.318   7.941   1.966 -0.1092 -1.9420  0.8298
  298MOL0     H40200   3.295   7.941   2.225  1.6063 -0.9203  2.1593
  298MOL0     H40201   3.296   8.097   2.131  1.7067  0.4802 -0.0593
  298MOL0     H40202   3.507   7.975   2.306  0.7556 -0.2950  0.7147
  298MOL0     H40203   3.538   8.122   2.207 -0.6815  0.1080  0.6080
  298MOL0     H40204   3.333   8.093   2.433 -1.9303 -0.9315 -3.0565
  298MOL0     H40205   3.345   8.229   2.326 -1.8872  0.0078  1.0184
  298MOL0     H40206   3.560   8.102   2.498  2.0249  0.7366 -1.2492
  298MOL0     H40207   3.589   8.249   2.391  0.3231 -1.3258 -0.7219
  298MOL0     H40208   3.480   8.387   2.516 -2.5098 -1.6191 -1.0541
  298MOL0     H40209   3.583   8.305   2.629  0.3390 -1.9594 -0.3816
  298MOL0     H40210   3.392   8.166   2.700 -0.9332 -1.3164 -2.6477
  298MOL0     H40211   3.274   8.262   2.615  0.0077  1.2452 -0.4177
  298MOL0     H40212   3.734   7.837   2.298 -0.4363  0.4790 -0.6288
  298MOL0     H40213   3.947   7.690   2.316 -0.2910 -0.4016 -0.6899
  298MOL0     H40214   3.980   7.238   2.085  0.2059  2.1673  1.1513
  298MOL0     H40215   4.065   7.032   2.031  1.9843 -1.4462 -1.4910
  298MOL0     H40216   3.772   7.732   2.548 -1.0138  1.3908 -0.1102
  298MOL0     H40217   3.558   7.827   2.542 -1.2901  1.5722 -4.1754
  298MOL0     H40218   3.140   7.864   2.385  0.2557 -0.3746  0.0293
  298MOL0     H40219   2.933   8.011   2.381 -0.8205  0.8162  1.1327
  298MOL0     H40220   2.738   8.119   2.382 -0.5891 -0.3730  0.5538
  298MOL0     H40221   2.656   7.966   2.327  0.9640 -0.4395  0.2135
  298MOL0     H40222   2.518   8.131   2.534  1.0202  1.1520 -0.8814
  298MOL0     H40223   2.457   8.041   2.384 -0.0025  1.2177 -2.0403
  298MOL0     H40224   2.567   8.222   2.266  1.2130 -1.5671  1.7175
  298MOL0     H40225   2.556   8.329   2.400 -1.7927  1.4302  0.4226
  298MOL0     H40226   2.354   8.380   2.298  1.1532  0.7488  2.0537
  298MOL0     H40227   2.327   8.264   2.435  2.4408 -1.9034  0.9357
  298MOL0     H40228   2.180   8.043   2.114 -2.1075  1.3130 -0.2266
  298MOL0     H40229   2.777   7.764   2.699  1.3371 -1.7315  0.2698
  298MOL0     H40230   2.986   7.641   2.710 -1.6578  0.7978  1.2038
  299MOL0     O40231   4.712   5.614   3.245  0.1690 -0.7114 -0.2750
  299MOL0     C40232   4.765   5.730   3.260  1.0749  0.3556  0.4351
  299MOL0     O40233   4.753   5.827   3.158 -0.2505  0.0224  0.2382
  299MOL0     C40234   4.875   5.889   3.141  0.2046  0.5994 -0.1790
  299MOL0     C40235   4.997   5.818   3.141 -0.4658 -0.1415  0.0052
  299MOL0     C40236   5.120   5.877   3.104 -0.4867  0.4004  0.6511
  299MOL0     C40237   5.120   6.008   3.058 -0.0043 -0.4491 -1.1510
  299MOL0     O40238   5.224   6.065   2.999 -0.2700  0.5972 -0.8264
  299MOL0     C40239   5.330   5.988   2.941 -0.0413 -0.8283 -1.3735
  299MOL0     C40240   5.388   6.060   2.826 -0.1474 -0.0832  0.3508
  299MOL0     C40241   5.490   5.986   2.737  0.0915 -0.0452 -1.1184
  299MOL0     C40242   5.542   6.074   2.629 -0.0795 -0.4041  0.2730
  299MOL0     C40243   5.693   6.057   2.592 -0.5524  0.1958 -0.5358
  299MOL0     C40244   5.741   5.910   2.596 -0.0379 -0.2069 -0.9652
  299MOL0     C40245   5.884   5.897   2.528  0.1625 -0.5816  0.8370
  299MOL0     C40246   5.907   5.748   2.517  0.2217 -0.0069 -0.2710
  299MOL0     N40247   6.027   5.721   2.432 -0.7315  0.2329 -0.2078
  299MOL0     C40248   6.158   5.748   2.473 -0.3959 -0.9516 -0.9654
  299MOL0     C40249   6.230   5.730   2.364 -0.0905 -0.2589  0.0254
  299MOL0     C40250   6.383   5.744   2.354  0.2717  0.2841  0.1698
  299MOL0     C40251   6.445   5.623   2.413  0.0541  0.2964  0.5498
  299MOL0     C40252   6.429   5.497   2.337 -0.2478 -0.5651 -0.1963
  299MOL0     C40253   6.544   5.385   2.351  0.2340 -0.0651  1.0028
  299MOL0     O40254   6.575   5.363   2.490 -0.0722  0.4925  0.0588
  299MOL0     C40255   6.557   5.223   2.535  0.1314 -1.7119  0.3481
  299MOL0     C40256   6.659   5.174   2.614  0.5174 -0.4966  0.4502
  299MOL0     C40257   6.654   5.051   2.692 -0.4238 -1.0173 -0.4644
  299MOL0     C40258   6.774   5.009   2.780  0.0680 -0.0710  0.7273
  299MOL0     C40259   6.526   4.981   2.683 -0.8729  0.1222  0.5130
  299MOL0     C40260   6.503   4.848   2.750 -0.5350 -0.1734  1.2519
  299MOL0     O40261   6.377   4.804   2.741 -0.4843 -0.1055 -0.3038
  299MOL0     C40262   6.339   4.682   2.795  0.2260 -0.9470  0.5990
  299MOL0     C40263   6.353   4.648   2.930  1.3674  0.5152 -0.5129
  299MOL0     C40264   6.283   4.535   2.974 -0.2532 -0.3598  0.6657
  299MOL0     C40265   6.213   4.450   2.884  0.3558 -0.1260  0.5159
  299MOL0     O40266   6.143   4.355   2.953  0.8375 -0.3383  1.0306
  299MOL0     C40267   6.021   4.316   2.895  0.2022 -0.0507  0.8563
  299MOL0     C40268   5.970   4.191   2.958  1.0547 -0.6800  0.1797
  299MOL0     C40269   6.051   4.059   2.935  0.2618 -0.7098 -0.4021
  299MOL0     C40270   6.122   4.024   2.803  0.1586 -0.4966 -0.2240
  299MOL0     C40271   6.167   3.877   2.825 -0.1970  0.6351 -0.5808
  299MOL0     C40272   6.294   3.854   2.729  0.4547 -0.3712 -0.4459
  299MOL0     C40273   6.334   3.711   2.711  0.2809 -0.4024 -0.9790
  299MOL0     C40274   6.455   3.657   2.795 -0.2114 -0.2099  0.6963
  299MOL0    Cl40275   6.596   3.761   2.814 -0.7264 -0.4487  0.1344
  299MOL0     C40276   6.216   4.467   2.745 -0.0635 -0.4362  0.9675
  299MOL0     C40277   6.273   4.589   2.707  0.4091 -0.5891  0.5412
  299MOL0     O40278   6.594   4.789   2.796  0.1337  0.0101 -0.6776
  299MOL0     C40279   6.428   5.025   2.599 -0.4320 -0.6010 -0.2383
  299MOL0     C40280   6.443   5.145   2.523  0.2829 -0.2615  0.0161
  299MOL0     N40281   6.150   5.687   2.261 -1.2834 -1.2496  0.1467
  299MOL0     N40282   6.034   5.681   2.299  0.1727  0.3965  0.2071
  299MOL0     C40283   4.999   6.082   3.056 -0.4421 -0.2690 -0.1375
  299MOL0     C40284   4.885   6.023   3.103 -0.1273 -0.1633 -0.0115
  299MOL0     C40285   4.816   5.771   3.390  0.0053  1.3170  0.2569
  299MOL0     C40286   4.781   5.899   3.425 -0.0924 -0.0324 -0.9066
  299MOL0     C40287   4.812   5.944   3.550 -0.9694  0.4140  0.0838
  299MOL0     C40288   4.879   5.861   3.644  0.5782 -0.2677  0.1133
  299MOL0     O40289   4.915   5.909   3.763 -0.5572 -0.2924  0.0660
  299MOL0     C40290   4.830   5.853   3.858 -0.8364  0.6739 -0.1508
  299MOL0     C40291   4.904   5.871   3.998  0.6397 -0.7125 -0.6926
  299MOL0     C40292   4.971   6.010   4.032 -0.1475  0.4913  0.0270
  299MOL0     C40293   4.882   6.124   4.076  0.2119 -0.1692  0.3733
  299MOL0     C40294   4.828   6.094   4.203  1.1854  0.0262  0.9183
  299MOL0     C40295   4.765   6.059   4.296 -0.6678 -0.3638  0.9625
  299MOL0     C40296   4.903   5.729   3.610  0.0572  0.2688  1.1838
  299MOL0     C40297   4.877   5.682   3.480 -0.3225  0.8508 -1.3457
  299MOL0     H40298   4.990   5.716   3.176 -0.4266  0.1573  0.9325
  299MOL0     H40299   5.211   5.820   3.109 -0.4969 -0.0119 -2.2175
  299MOL0     H40300   5.408   5.979   3.018 -0.8469 -2.0372 -0.6668
  299MOL0     H40301   5.287   5.891   2.916 -0.3589 -0.9310 -0.4827
  299MOL0     H40302   5.306   6.076   2.755  3.1881 -1.0868 -4.1933
  299MOL0     H40303   5.439   6.150   2.861  5.1199 -2.1033 -1.1238
  299MOL0     H40304   5.574   5.957   2.801 -1.1401  0.6300  0.8886
  299MOL0     H40305   5.436   5.902   2.693  0.5452 -2.8307  3.0756
  299MOL0     H40306   5.487   6.051   2.537 -0.2913 -2.6055  0.8976
  299MOL0     H40307   5.518   6.180   2.632 -2.4987 -0.8833 -0.1730
  299MOL0     H40308   5.700   6.089   2.488  0.9581 -3.5194 -1.7482
  299MOL0     H40309   5.759   6.126   2.646  1.5371 -3.2288  1.7045
  299MOL0     H40310   5.746   5.881   2.701  1.8677  0.9847 -0.6754
  299MOL0     H40311   5.671   5.843   2.545 -0.4708  0.3858 -1.1624
  299MOL0     H40312   5.867   5.940   2.429 -1.9291 -0.7185  1.0976
  299MOL0     H40313   5.964   5.948   2.583 -1.3991  2.4549  0.5233
  299MOL0     H40314   5.821   5.695   2.476 -0.8805  1.6577 -0.2392
  299MOL0     H40315   5.907   5.698   2.614 -0.4146  0.4427 -0.0269
  299MOL0     H40316   6.174   5.778   2.576 -1.2796 -0.0537 -1.0725
  299MOL0     H40317   6.412   5.780   2.255 -1.8113 -1.0365 -1.0139
  299MOL0     H40318   6.416   5.831   2.412  1.6083 -0.2960  0.3023
  299MOL0     H40319   6.414   5.601   2.516 -0.0419  1.1146  0.7068
  299MOL0     H40320   6.552   5.646   2.413  0.3415 -0.8580 -1.6162
  299MOL0     H40321   6.410   5.525   2.233 -0.1374 -1.1058 -0.3673
  299MOL0     H40322   6.332   5.456   2.366 -2.7218  3.1190 -2.3819
  299MOL0     H40323   6.640   5.413   2.305  0.0974 -0.8231  0.2490
  299MOL0     H40324   6.512   5.293   2.302 -0.0901  0.5136  0.0928
  299MOL0     H40325   6.754   5.227   2.617  1.1815 -1.6376  0.0202
  299MOL0     H40326   6.724   4.959   2.863 -0.2237 -3.2592 -1.2019
  299MOL0     H40327   6.828   4.928   2.729  1.5080  1.1722  0.2119
  299MOL0     H40328   6.838   5.096   2.800  2.6464 -1.7461  0.2365
  299MOL0     H40329   6.390   4.704   3.015  0.9281  0.0273  0.0136
  299MOL0     H40330   6.277   4.525   3.082  0.5838 -2.3164  0.5733
  299MOL0     H40331   5.944   4.393   2.902  0.1110 -0.0702  0.1651
  299MOL0     H40332   6.028   4.294   2.788 -0.9787  1.9549  0.3200
  299MOL0     H40333   5.950   4.218   3.062  2.7179  2.6033 -0.2218
  299MOL0     H40334   5.877   4.180   2.902  0.5245  0.3023  0.8463
  299MOL0     H40335   5.984   3.981   2.971 -2.7433  2.3417  1.2003
  299MOL0     H40336   6.134   4.061   3.007  3.3259  3.4925 -3.5187
  299MOL0     H40337   6.061   4.025   2.712 -0.7770 -1.7479  0.3624
  299MOL0     H40338   6.210   4.088   2.787  0.5744 -0.8924  0.4142
  299MOL0     H40339   6.077   3.817   2.807  0.6813 -1.2090  0.8683
  299MOL0     H40340   6.192   3.845   2.926  0.7158 -1.8466 -1.5222
  299MOL0     H40341   6.268   3.901   2.634 -2.6321 -3.0541 -1.1129
  299MOL0     H40342   6.379   3.912   2.766  0.8493 -1.0091 -0.3425
  299MOL0     H40343   6.348   3.695   2.604 -1.3331  1.0514 -1.4706
  299MOL0     H40344   6.247   3.650   2.737 -1.2730 -0.2421 -5.1059
  299MOL0     H40345   6.490   3.564   2.750 -0.2999 -0.2387  0.6862
  299MOL0     H40346   6.417   3.619   2.890  2.4138 -6.2340 -0.2472
  299MOL0     H40347   6.158   4.409   2.673  1.6049  2.9466 -3.5414
  299MOL0     H40348   6.259   4.630   2.607 -3.4533 -0.8578  0.8246
  299MOL0     H40349   6.328   4.985   2.612 -2.2031  2.3492 -3.0606
  299MOL0     H40350   6.356   5.179   2.468  1.1399  0.3592 -0.9860
  299MOL0     H40351   4.998   6.180   3.009 -0.6447  1.4737  3.2137
  299MOL0     H40352   4.795   6.083   3.095 -1.0909 -1.6393 -0.9217
  299MOL0     H40353   4.722   5.965   3.362 -0.0492  0.5251 -0.3711
  299MOL0     H40354   4.793   6.043   3.590  1.6301  1.9919 -2.1811
  299MOL0     H40355   4.748   5.924   3.859  2.3571  4.7413  0.4519
  299MOL0     H40356   4.799   5.748   3.859 -0.1792  0.4757 -0.0521
  299MOL0     H40357   4.987   5.801   3.990 -0.1437 -1.5258 -2.5894
  299MOL0     H40358   4.824   5.844   4.067  0.6492  0.0041 -0.3895
  299MOL0     H40359   5.039   6.044   3.954  1.2031  1.9707  1.7900
  299MOL0     H40360   5.038   6.000   4.118 -0.7134  0.6507  0.4932
  299MOL0     H40361   4.808   6.142   3.997  2.5731  3.0148 -1.3843
  299MOL0     H40362   4.942   6.215   4.081  0.3277 -0.2996  1.5300
  299MOL0     H40363   4.709   6.054   4.387 -0.8299  2.9417  1.1769
  299MOL0     H40364   4.972   5.662   3.661  5.0424  1.6792 -2.8795
  299MOL0     H40365   4.901   5.577   3.468 -1.6348  0.4174 -0.4222
  300MOL0     O40366   9.299   0.495   7.470  0.0243  0.4191  0.1934
  300MOL0     C40367   9.391   0.440   7.523  0.1654 -0.1705  0.3491
  300MOL0     O40368   9.416   0.424   7.651 -0.2170 -0.7825  0.2272
  300MOL0     C40369   9.340   0.478   7.753  0.0509 -1.4530  0.8971
  300MOL0     C40370   9.212   0.543   7.742 -0.0348 -0.1606 -0.4192
  300MOL0     C40371   9.156   0.612   7.857 -1.0577 -0.6767 -0.1641
  300MOL0     C40372   9.221   0.616   7.977  0.1593  0.6833  0.3658
  300MOL0     O40373   9.167   0.671   8.097 -0.6428  0.7500  0.5183
  300MOL0     C40374   9.135   0.806   8.084  0.3432 -1.5542 -1.5412
  300MOL0     C40375   9.098   0.857   8.227  0.4501 -0.1039  0.3523
  300MOL0     C40376   9.219   0.838   8.315 -0.1665  0.4255 -0.7786
  300MOL0     C40377   9.211   0.924   8.440  0.0313 -0.5184  0.7598
  300MOL0     C40378   9.339   0.901   8.528 -0.0405  0.5540  0.3768
  300MOL0     C40379   9.339   1.005   8.643  0.9909 -0.2754  0.2115
  300MOL0     C40380   9.451   0.956   8.735  0.0522  0.0948  0.4387
  300MOL0     C40381   9.439   1.033   8.872 -0.4103 -0.0386  1.2207
  300MOL0     N40382   9.447   1.180   8.852 -0.0184  0.0901  0.6197
  300MOL0     C40383   9.558   1.244   8.795  0.3796  0.7696  0.1751
  300MOL0     C40384   9.534   1.377   8.792 -0.0615  0.4463  0.0893
  300MOL0     C40385   9.619   1.496   8.751 -0.0852 -0.4557 -0.2487
  300MOL0     C40386   9.669   1.566   8.878 -0.1548  0.4423  0.0050
  300MOL0     C40387   9.595   1.696   8.932  0.1362  0.9637  0.0153
  300MOL0     C40388   9.616   1.811   8.832 -0.1105  0.2244 -0.5637
  300MOL0     O40389   9.761   1.827   8.787 -0.0618  0.1005 -0.4789
  300MOL0     C40390   9.800   1.838   8.655 -0.0296 -0.5676 -0.0898
  300MOL0     C40391   9.935   1.823   8.632 -0.0232  0.4139 -0.4749
  300MOL0     C40392   9.991   1.825   8.506 -1.0307 -0.8650 -1.2170
  300MOL0     C40393  10.142   1.799   8.497  0.0796 -0.3270  0.0379
  300MOL0     C40394   9.908   1.853   8.390  0.5972  0.0068  0.2444
  300MOL0     C40395   9.956   1.871   8.250 -0.4755  0.1238 -0.5561
  300MOL0     O40396   9.859   1.875   8.162  0.5337  0.3124 -0.3080
  300MOL0     C40397   9.873   1.955   8.054 -0.4314 -1.0658  0.2245
  300MOL0     C40398   9.991   1.945   7.978  0.1533 -0.4337  0.2764
  300MOL0     C40399  10.006   2.011   7.862 -0.4541 -1.5022 -1.1216
  300MOL0     C40400   9.895   2.085   7.808  0.6016  0.0532  0.0918
  300MOL0     O40401   9.907   2.122   7.680  0.6771  0.6152 -0.9609
  300MOL0     C40402   9.812   2.208   7.621 -0.2976  0.0025 -0.1059
  300MOL0     C40403   9.888   2.240   7.492  0.8452 -0.0873  0.1736
  300MOL0     C40404   9.796   2.277   7.373 -0.2021 -0.8875 -0.2411
  300MOL0     C40405   9.730   2.163   7.291 -0.2075  0.3326  0.1184
  300MOL0     C40406   9.638   2.234   7.190  0.3888 -0.2786  0.3936
  300MOL0     C40407   9.525   2.137   7.149  0.4742 -0.9351 -0.6226
  300MOL0     C40408   9.432   2.203   7.037  0.2483  0.2641 -0.0422
  300MOL0     C40409   9.488   2.194   6.886 -0.4392  0.1973 -0.1578
  300MOL0    Cl40410   9.492   2.021   6.844  0.2105 -0.0072  0.3812
  300MOL0     C40411   9.780   2.104   7.887 -0.5204 -0.0542  0.9479
  300MOL0     C40412   9.765   2.032   8.002 -0.3652  0.1493  0.4549
  300MOL0     O40413  10.078   1.881   8.227 -0.3261  0.2091  0.3496
  300MOL0     C40414   9.767   1.840   8.419 -0.2571 -0.0081  0.3420
  300MOL0     C40415   9.717   1.855   8.541 -0.4482 -0.1264 -0.1674
  300MOL0     N40416   9.401   1.389   8.846  0.2756  0.0935 -0.6838
  300MOL0     N40417   9.357   1.275   8.891 -0.4804 -1.4528  0.1760
  300MOL0     C40418   9.351   0.559   7.992  0.1239  0.5784 -0.2105
  300MOL0     C40419   9.410   0.492   7.883  0.6206  0.6196  0.5757
  300MOL0     C40420   9.490   0.389   7.423 -0.5596 -0.8745  0.0875
  300MOL0     C40421   9.598   0.303   7.466  0.0828 -0.6617  0.6023
  300MOL0     C40422   9.686   0.239   7.380  0.0819  0.5740  0.5286
  300MOL0     C40423   9.684   0.267   7.242 -0.6651  0.7144  0.1589
  300MOL0     O40424   9.769   0.220   7.139  0.1729  0.3297 -0.4201
  300MOL0     C40425   9.901   0.186   7.175  0.0894  0.7197 -0.9241
  300MOL0     C40426   9.988   0.301   7.232 -0.1294  0.4921 -0.2433
  300MOL0     C40427  10.139   0.280   7.231  0.5137  2.0246  0.0854
  300MOL0     C40428  10.203   0.402   7.187  0.3186  0.3371 -0.3909
  300MOL0     C40429  10.190   0.501   7.299  0.2225  0.2915 -0.4011
  300MOL0     C40430  10.197   0.586   7.381  0.1342  1.0240 -0.6515
  300MOL0     C40431   9.584   0.352   7.188  0.7801 -0.4920 -0.2713
  300MOL0     C40432   9.483   0.409   7.275  1.1298 -0.4428 -0.7436
  300MOL0     H40433   9.150   0.528   7.654  2.8845  0.0189 -2.6577
  300MOL0     H40434   9.064   0.669   7.858 -2.0504 -2.2200  0.2614
  300MOL0     H40435   9.223   0.860   8.050  2.3429 -2.0021  2.3922
  300MOL0     H40436   9.045   0.824   8.024 -0.5439 -0.1359  0.1096
  300MOL0     H40437   9.079   0.965   8.226 -4.4081 -0.6865  2.2116
  300MOL0     H40438   9.008   0.807   8.264 -0.7314 -1.0659 -3.4461
  300MOL0     H40439   9.234   0.734   8.347  0.5053  0.5746 -0.5936
  300MOL0     H40440   9.301   0.884   8.260  0.3190  0.9210  0.3247
  300MOL0     H40441   9.203   1.028   8.407 -1.1580 -0.6151  0.7073
  300MOL0     H40442   9.127   0.904   8.507 -0.5001  1.6933  0.8384
  300MOL0     H40443   9.334   0.796   8.560  0.9180  1.2956  3.2421
  300MOL0     H40444   9.431   0.908   8.470 -1.3861  0.3812 -1.9291
  300MOL0     H40445   9.371   1.103   8.607 -1.0778 -0.4244 -2.2530
  300MOL0     H40446   9.240   1.007   8.688  1.3003  0.6249  0.8870
  300MOL0     H40447   9.443   0.850   8.758  0.3257  0.3211  1.6778
  300MOL0     H40448   9.547   0.974   8.687  0.7450  0.4112  1.8846
  300MOL0     H40449   9.508   0.990   8.946  0.2584 -0.9745  0.0843
  300MOL0     H40450   9.341   1.004   8.910 -1.8346 -0.3930 -2.3445
  300MOL0     H40451   9.651   1.194   8.768 -1.3074 -3.4839  1.4225
  300MOL0     H40452   9.706   1.461   8.694  2.5274  3.0094  1.2551
  300MOL0     H40453   9.571   1.574   8.691 -2.2680 -1.5663 -0.0837
  300MOL0     H40454   9.773   1.584   8.849  0.5654 -1.8735  0.8672
  300MOL0     H40455   9.665   1.500   8.966 -1.0907 -0.4661 -0.6947
  300MOL0     H40456   9.641   1.734   9.024  2.6271 -0.3993 -0.5648
  300MOL0     H40457   9.490   1.674   8.951  0.5811 -1.2167  0.1345
  300MOL0     H40458   9.580   1.908   8.865  1.9164  1.5348 -1.9378
  300MOL0     H40459   9.546   1.785   8.752 -1.2607  1.3326  0.0676
  300MOL0     H40460   9.999   1.788   8.713 -4.0344 -2.1648  1.9596
  300MOL0     H40461  10.187   1.894   8.469 -3.5098  1.0774 -1.5429
  300MOL0     H40462  10.189   1.767   8.591  2.3959  0.2970 -0.8462
  300MOL0     H40463  10.156   1.728   8.415 -1.8769  0.5173 -1.0992
  300MOL0     H40464  10.070   1.873   7.998  0.7756  0.8464  2.8714
  300MOL0     H40465  10.092   1.999   7.796 -0.0181  0.9475 -1.0977
  300MOL0     H40466   9.713   2.164   7.604 -0.5792 -0.8339  3.0680
  300MOL0     H40467   9.795   2.303   7.673  1.9221  1.0239 -1.1519
  300MOL0     H40468   9.947   2.330   7.512  0.4737  0.8954 -2.7146
  300MOL0     H40469   9.943   2.156   7.450 -0.8142 -0.4983 -1.2677
  300MOL0     H40470   9.865   2.337   7.312 -0.9657 -1.5013 -1.7685
  300MOL0     H40471   9.719   2.336   7.423 -2.1967 -2.5735 -1.1638
  300MOL0     H40472   9.804   2.097   7.245 -0.2639  0.9628 -0.9107
  300MOL0     H40473   9.668   2.098   7.353  0.8801 -1.4791 -0.5965
  300MOL0     H40474   9.689   2.272   7.101  0.0824 -0.8677 -0.0388
  300MOL0     H40475   9.592   2.326   7.228 -0.1977  0.0749 -1.1086
  300MOL0     H40476   9.561   2.038   7.119 -1.4710 -1.1636 -2.3736
  300MOL0     H40477   9.460   2.120   7.235 -0.6081  0.4873 -1.1282
  300MOL0     H40478   9.411   2.305   7.071  2.2308 -0.0173  2.3254
  300MOL0     H40479   9.329   2.165   7.035  0.4636 -0.4093  0.7637
  300MOL0     H40480   9.586   2.241   6.877  0.0154 -0.6287  0.2962
  300MOL0     H40481   9.419   2.246   6.819 -1.6858 -0.0498  0.8835
  300MOL0     H40482   9.700   2.174   7.864 -0.6991 -0.3417  0.6754
  300MOL0     H40483   9.679   2.054   8.064 -1.8237  4.2533 -2.5743
  300MOL0     H40484   9.705   1.841   8.329  1.6435 -0.1125 -1.0211
  300MOL0     H40485   9.609   1.855   8.554 -0.2853 -1.2627  1.5483
  300MOL0     H40486   9.403   0.555   8.087 -1.2818  0.4704  0.5771
  300MOL0     H40487   9.497   0.428   7.890 -0.4657 -0.9856 -0.1711
  300MOL0     H40488   9.587   0.249   7.560  1.8082 -2.3670 -0.1030
  300MOL0     H40489   9.766   0.175   7.417 -1.6342 -2.0278  0.0185
  300MOL0     H40490   9.906   0.096   7.236 -1.1510  0.9865 -0.3970
  300MOL0     H40491   9.947   0.166   7.078  0.4397 -4.0186 -0.0096
  300MOL0     H40492   9.949   0.324   7.332  1.5864  0.4596  0.4607
  300MOL0     H40493   9.959   0.383   7.165 -1.6474  0.4549  0.3301
  300MOL0     H40494  10.183   0.214   7.156 -0.2745  1.4692  0.0914
  300MOL0     H40495  10.172   0.240   7.328  0.7029 -2.6167 -1.6346
  300MOL0     H40496  10.149   0.446   7.102  1.2874  2.9469  0.2456
  300MOL0     H40497  10.309   0.385   7.166  0.8931  1.2470  1.5594
  300MOL0     H40498  10.193   0.653   7.465 -1.2821  1.3479 -0.9381
  300MOL0     H40499   9.593   0.356   7.079  0.3542 -0.1137 -0.2972
  300MOL0     H40500   9.395   0.458   7.234  0.1117 -0.6530  1.0802
  301MOL0     O40501   1.217   0.339   6.279  0.6278 -0.2462 -0.5325
  301MOL0     C40502   1.277   0.342   6.173  0.1878 -0.0211 -0.3177
  301MOL0     O40503   1.415   0.353   6.152 -0.0893 -0.5045 -0.2690
  301MOL0     C40504   1.505   0.354   6.264 -0.0797  0.0100 -0.2196
  301MOL0     C40505   1.622   0.422   6.243  0.0729 -0.8350 -0.1186
  301MOL0     C40506   1.719   0.436   6.338  0.2544  0.0842 -0.4456
  301MOL0     C40507   1.694   0.377   6.465  1.0749 -0.2940  0.3300
  301MOL0     O40508   1.771   0.351   6.572 -0.2456 -0.0752 -0.3409
  301MOL0     C40509   1.901   0.405   6.571 -0.1599  0.0954 -0.1386
  301MOL0     C40510   1.892   0.537   6.659 -0.2121  0.5854  0.4307
  301MOL0     C40511   2.036   0.560   6.722  0.1290  0.0891 -0.2118
  301MOL0     C40512   2.141   0.538   6.615  0.9148  0.4512  0.3722
  301MOL0     C40513   2.277   0.583   6.662  0.0759  0.5157  0.5948
  301MOL0     C40514   2.359   0.621   6.541  0.2767 -0.3140 -0.0799
  301MOL0     C40515   2.480   0.688   6.590  0.4552  0.2121 -0.3916
  301MOL0     C40516   2.560   0.759   6.482 -0.0026  0.4457  0.4710
  301MOL0     N40517   2.646   0.871   6.526  0.3724  0.2060  0.4568
  301MOL0     C40518   2.589   0.993   6.558 -0.7184 -0.3372 -0.4100
  301MOL0     C40519   2.704   1.065   6.599 -0.1153  0.3295 -1.2830
  301MOL0     C40520   2.707   1.201   6.653  0.5686 -0.6559 -0.0202
  301MOL0     C40521   2.605   1.289   6.589  0.1820 -0.2936 -0.1366
  301MOL0     C40522   2.625   1.442   6.614  0.2882  0.0020  0.5484
  301MOL0     C40523   2.507   1.517   6.549 -0.3972  0.6275  0.3391
  301MOL0     O40524   2.477   1.641   6.620 -0.3861 -0.5002 -0.4274
  301MOL0     C40525   2.441   1.648   6.751 -0.0839 -0.4062 -0.2886
  301MOL0     C40526   2.397   1.540   6.831 -0.4325 -0.3572 -0.5898
  301MOL0     C40527   2.328   1.561   6.959 -0.6487 -0.3524  0.7487
  301MOL0     C40528   2.272   1.438   7.018  0.4804  0.0612  1.2726
  301MOL0     C40529   2.342   1.694   7.018  0.9371 -0.3119 -0.5421
  301MOL0     C40530   2.285   1.735   7.148  0.3509  0.3405 -0.0912
  301MOL0     O40531   2.293   1.866   7.189 -0.7088  0.2332  0.0905
  301MOL0     C40532   2.279   1.893   7.324 -0.5633  1.2150 -0.4420
  301MOL0     C40533   2.360   1.827   7.420 -0.8597  0.8592 -0.1631
  301MOL0     C40534   2.338   1.838   7.558 -0.3159  0.1394  0.2454
  301MOL0     C40535   2.251   1.931   7.605 -0.7398 -0.3170  0.0715
  301MOL0     O40536   2.251   1.961   7.740 -0.2780 -0.7584 -0.5096
  301MOL0     C40537   2.150   1.887   7.810 -0.0127  0.2143 -0.3315
  301MOL0     C40538   2.079   1.976   7.903  0.5934 -0.5481 -0.7609
  301MOL0     C40539   1.939   1.924   7.952 -0.4969  0.8316  0.2462
  301MOL0     C40540   1.964   1.785   8.017  0.4694  0.6164  0.4335
  301MOL0     C40541   1.845   1.744   8.104  0.2288 -0.4802 -0.0441
  301MOL0     C40542   1.715   1.745   8.024 -0.7428 -0.1994  0.4296
  301MOL0     C40543   1.594   1.710   8.117  0.0635 -0.3972  0.0196
  301MOL0     C40544   1.462   1.695   8.039 -0.3521 -0.1412  0.0987
  301MOL0    Cl40545   1.399   1.840   7.955  0.2093  0.1809  0.0422
  301MOL0     C40546   2.161   1.991   7.523  0.0216 -0.6424 -0.6905
  301MOL0     C40547   2.181   1.971   7.382 -0.4418 -0.9391  0.8943
  301MOL0     O40548   2.247   1.642   7.217 -0.7275 -0.1607 -0.0444
  301MOL0     C40549   2.403   1.794   6.940  0.4636 -0.6065 -0.0615
  301MOL0     C40550   2.439   1.777   6.808  0.8229  0.1783  0.4199
  301MOL0     N40551   2.817   0.984   6.573 -0.0128  1.3449 -0.4054
  301MOL0     N40552   2.780   0.860   6.555  0.6401  0.1110  0.2416
  301MOL0     C40553   1.567   0.307   6.481 -0.5525  0.3826  0.2950
  301MOL0     C40554   1.473   0.294   6.381 -0.4266  0.7036 -0.0178
  301MOL0     C40555   1.208   0.316   6.051 -0.4166 -0.0836  0.0613
  301MOL0     C40556   1.269   0.277   5.930  0.5708  0.7789 -0.3751
  301MOL0     C40557   1.206   0.273   5.801 -0.3919  0.2450  0.0523
  301MOL0     C40558   1.074   0.309   5.796  0.1532 -0.1232  0.3026
  301MOL0     O40559   1.016   0.323   5.678  0.0545 -0.1128  0.5026
  301MOL0     C40560   0.875   0.361   5.660 -0.0628  0.1523  0.0137
  301MOL0     C40561   0.827   0.339   5.517 -0.2579  0.2823 -0.5638
  301MOL0     C40562   0.697   0.412   5.494 -0.1373 -0.1398 -0.2677
  301MOL0     C40563   0.586   0.304   5.445  0.4917 -0.1949 -0.4597
  301MOL0     C40564   0.637   0.263   5.317  1.1312  0.3773 -0.4768
  301MOL0     C40565   0.697   0.229   5.224  0.0552 -0.0879 -0.1610
  301MOL0     C40566   1.012   0.357   5.910  0.8331 -0.2288 -0.0364
  301MOL0     C40567   1.073   0.354   6.036  0.5044  0.8140 -0.9286
  301MOL0     H40568   1.649   0.473   6.151 -1.4768 -1.1112 -0.7649
  301MOL0     H40569   1.808   0.491   6.310  0.0947  1.3673  1.4129
  301MOL0     H40570   1.966   0.338   6.628  3.5174  1.2819 -2.5717
  301MOL0     H40571   1.955   0.417   6.476  2.2085  1.6616  1.3188
  301MOL0     H40572   1.864   0.616   6.588  2.6597  0.9031 -0.4792
  301MOL0     H40573   1.814   0.525   6.734 -0.5397 -3.0983 -0.3046
  301MOL0     H40574   2.051   0.666   6.746 -0.0512 -0.4065  2.4920
  301MOL0     H40575   2.045   0.492   6.807  1.0868 -0.3972 -0.6821
  301MOL0     H40576   2.159   0.433   6.590  0.7062 -0.0094  2.0770
  301MOL0     H40577   2.108   0.597   6.529  2.5204 -0.6785 -1.0813
  301MOL0     H40578   2.272   0.664   6.735  0.9199  0.0173  1.2243
  301MOL0     H40579   2.330   0.506   6.719 -2.8907 -0.5043  2.2209
  301MOL0     H40580   2.398   0.530   6.494  4.9314  2.2418 -1.8868
  301MOL0     H40581   2.306   0.685   6.470 -0.3785 -1.9559 -1.1261
  301MOL0     H40582   2.450   0.768   6.658 -0.1985 -0.5971  0.2875
  301MOL0     H40583   2.549   0.624   6.646 -0.0088 -1.3604 -1.5653
  301MOL0     H40584   2.495   0.818   6.416  1.3023  4.0675  2.1732
  301MOL0     H40585   2.618   0.688   6.422 -2.3254 -0.5693 -0.7110
  301MOL0     H40586   2.481   1.002   6.558 -0.8779 -1.7548 -2.4442
  301MOL0     H40587   2.669   1.197   6.756  0.8310 -1.3678  0.0542
  301MOL0     H40588   2.808   1.242   6.645 -0.1814  1.1652 -0.7755
  301MOL0     H40589   2.502   1.258   6.606  0.7722 -1.5598  1.3160
  301MOL0     H40590   2.621   1.256   6.486  2.1960 -1.8297  0.6096
  301MOL0     H40591   2.725   1.476   6.585  0.4119 -1.0397 -0.2990
  301MOL0     H40592   2.632   1.457   6.722  0.0808  0.5737  0.4905
  301MOL0     H40593   2.416   1.456   6.541  0.5003 -0.5640 -5.6786
  301MOL0     H40594   2.524   1.526   6.442 -1.3850 -1.5015 -0.0465
  301MOL0     H40595   2.404   1.437   6.800 -1.6223 -0.8203  0.6199
  301MOL0     H40596   2.344   1.386   7.082  0.3052 -0.9455  0.6821
  301MOL0     H40597   2.176   1.467   7.061 -0.8128  0.7564 -1.7779
  301MOL0     H40598   2.242   1.366   6.940 -1.0881  1.0569  0.9029
  301MOL0     H40599   2.453   1.781   7.387  0.3550  2.0980  1.4030
  301MOL0     H40600   2.399   1.773   7.620 -1.0533  0.1035  0.9456
  301MOL0     H40601   2.080   1.843   7.739 -2.1698  1.0046  1.2111
  301MOL0     H40602   2.211   1.811   7.860  2.3815  2.7341  0.8185
  301MOL0     H40603   2.129   1.986   8.000 -0.9481  0.7315 -0.0388
  301MOL0     H40604   2.071   2.081   7.872  1.9672 -0.4077 -0.7204
  301MOL0     H40605   1.855   1.923   7.882 -1.0882  1.7850  0.9289
  301MOL0     H40606   1.899   1.994   8.025 -0.9248  0.2938  0.5287
  301MOL0     H40607   1.979   1.709   7.939 -1.5562 -0.1598  0.7231
  301MOL0     H40608   2.051   1.793   8.081  1.7843 -1.6678 -0.9232
  301MOL0     H40609   1.835   1.804   8.196  2.2391 -2.0105  1.2637
  301MOL0     H40610   1.857   1.641   8.140 -0.8466 -1.1211 -1.4730
  301MOL0     H40611   1.683   1.841   7.983 -1.2646 -0.1683  0.9132
  301MOL0     H40612   1.725   1.672   7.942  1.8463  0.0495  0.4258
  301MOL0     H40613   1.595   1.784   8.197  4.3426 -1.8526  1.6444
  301MOL0     H40614   1.620   1.613   8.161  2.5363 -0.0744 -0.5889
  301MOL0     H40615   1.385   1.682   8.116  0.5346  3.7627  1.9056
  301MOL0     H40616   1.471   1.610   7.970 -0.5602  0.1205 -0.2489
  301MOL0     H40617   2.086   2.061   7.560 -0.3387 -2.0983  1.4969
  301MOL0     H40618   2.115   2.032   7.320 -1.8077  0.0951  3.2443
  301MOL0     H40619   2.406   1.895   6.978 -0.8916 -0.7503  0.4947
  301MOL0     H40620   2.465   1.864   6.748 -1.9978  0.8759  0.0846
  301MOL0     H40621   1.540   0.268   6.579 -2.7346  0.4170 -0.2311
  301MOL0     H40622   1.377   0.245   6.398 -0.2786  0.1344 -0.7954
  301MOL0     H40623   1.377   0.272   5.928  0.5054 -0.8696 -1.2838
  301MOL0     H40624   1.273   0.232   5.726 -1.7750 -0.0261 -1.0798
  301MOL0     H40625   0.821   0.295   5.729  2.9045 -0.7920  1.6260
  301MOL0     H40626   0.864   0.469   5.674  0.2710  0.4435 -1.7056
  301MOL0     H40627   0.807   0.232   5.506 -0.9540  0.2437  0.8792
  301MOL0     H40628   0.903   0.383   5.450  0.7050  1.3725  1.1763
  301MOL0     H40629   0.705   0.488   5.415 -3.7319  0.4168 -0.2411
  301MOL0     H40630   0.668   0.473   5.580 -0.3292  1.5647 -1.4786
  301MOL0     H40631   0.487   0.351   5.444  0.7313  0.3168 -1.5051
  301MOL0     H40632   0.569   0.215   5.506 -1.5651 -0.5605 -1.4702
  301MOL0     H40633   0.733   0.202   5.126 -0.5712  1.9556 -1.0161
  301MOL0     H40634   0.918   0.411   5.909 -0.2152 -1.9112  1.0223
  301MOL0     H40635   1.014   0.374   6.125 -0.7896 -0.9478 -1.3438
  302MOL0     O40636   2.819   3.735   4.588  0.1685 -0.4663  0.2581
  302MOL0     C40637   2.729   3.655   4.570  0.3225  0.2724 -0.2212
  302MOL0     O40638   2.632   3.662   4.478  0.7522  0.0453  0.1222
  302MOL0     C40639   2.619   3.775   4.406 -0.5025  0.1446 -0.1445
  302MOL0     C40640   2.489   3.841   4.398  0.1972  0.6177  0.4571
  302MOL0     C40641   2.473   3.964   4.329  0.8295  0.4296 -0.2653
  302MOL0     C40642   2.577   4.008   4.260  0.2878 -0.2787  0.2914
  302MOL0     O40643   2.583   4.123   4.186 -0.0549 -0.2663  0.7207
  302MOL0     C40644   2.499   4.228   4.233  0.2405  0.1274  0.5961
  302MOL0     C40645   2.516   4.346   4.136  0.3950  0.1579 -0.0764
  302MOL0     C40646   2.407   4.452   4.199  0.5824  0.1597  0.0453
  302MOL0     C40647   2.396   4.579   4.115  0.2728 -0.2861 -0.9468
  302MOL0     C40648   2.302   4.675   4.202 -0.2294  0.8593  0.1762
  302MOL0     C40649   2.157   4.642   4.197  0.3530  0.1877 -0.2080
  302MOL0     C40650   2.067   4.746   4.257 -0.2046 -0.0642  0.3079
  302MOL0     C40651   2.065   4.882   4.182  0.9256  0.0549 -0.1739
  302MOL0     N40652   1.945   4.959   4.212  0.6436 -0.5546  0.7282
  302MOL0     C40653   1.821   4.926   4.154  0.0184  1.1070 -0.5401
  302MOL0     C40654   1.733   5.016   4.198  0.6006  0.1223 -0.1283
  302MOL0     C40655   1.597   5.029   4.156 -0.0141  0.4425  0.6118
  302MOL0     C40656   1.518   5.128   4.236  0.0875 -0.4296  0.4505
  302MOL0     C40657   1.555   5.276   4.195 -0.3041  0.0508  0.6583
  302MOL0     C40658   1.546   5.387   4.303 -0.0156 -1.0097  1.0206
  302MOL0     O40659   1.621   5.358   4.426 -0.0635  0.0596 -0.4373
  302MOL0     C40660   1.605   5.438   4.533 -0.1107 -0.3778 -0.8105
  302MOL0     C40661   1.595   5.577   4.523 -0.0439  0.5141 -0.2221
  302MOL0     C40662   1.602   5.666   4.632  1.4067  0.4458  0.0757
  302MOL0     C40663   1.608   5.811   4.591 -1.1382 -0.0231  0.6501
  302MOL0     C40664   1.599   5.608   4.764 -0.2943  0.2260 -0.0814
  302MOL0     C40665   1.596   5.691   4.885 -0.9644  0.1725 -0.5584
  302MOL0     O40666   1.580   5.824   4.879 -0.2275  0.2097  0.4022
  302MOL0     C40667   1.584   5.907   4.988 -0.4116  0.4400 -0.0451
  302MOL0     C40668   1.484   5.908   5.092 -0.6533 -0.0033  0.0567
  302MOL0     C40669   1.491   6.010   5.182 -0.0923  0.5757  0.3619
  302MOL0     C40670   1.594   6.101   5.181 -0.7323 -0.7249 -0.9847
  302MOL0     O40671   1.588   6.192   5.285 -0.1196 -0.7559 -0.3628
  302MOL0     C40672   1.695   6.290   5.301  0.2883  0.2434 -0.4165
  302MOL0     C40673   1.689   6.366   5.435 -0.1284 -0.6816 -0.6321
  302MOL0     C40674   1.548   6.408   5.468 -0.5523 -0.7918 -0.9784
  302MOL0     C40675   1.551   6.511   5.585 -0.9724  0.2860 -0.1596
  302MOL0     C40676   1.416   6.509   5.651  0.8483 -1.1830  0.0993
  302MOL0     C40677   1.394   6.637   5.733 -0.5786  0.3152  0.2072
  302MOL0     C40678   1.263   6.647   5.795 -0.7361 -0.4533 -0.5434
  302MOL0     C40679   1.135   6.647   5.698 -0.1871  0.6145 -0.9913
  302MOL0    Cl40680   0.992   6.640   5.810  0.4160 -0.4243  0.1782
  302MOL0     C40681   1.705   6.079   5.105 -0.3051  0.2005  1.0320
  302MOL0     C40682   1.694   5.991   4.997 -0.1351 -0.3169 -1.0462
  302MOL0     O40683   1.612   5.632   4.991 -0.2176  0.0237 -0.1580
  302MOL0     C40684   1.597   5.465   4.770 -0.5841  0.0084 -0.0941
  302MOL0     C40685   1.615   5.384   4.663  0.0411 -0.6095 -0.9010
  302MOL0     N40686   1.797   5.109   4.283  0.2316  0.4720 -0.2733
  302MOL0     N40687   1.924   5.067   4.300 -0.5143 -0.3980 -0.7867
  302MOL0     C40688   2.697   3.941   4.255  0.2128  0.9425  0.2942
  302MOL0     C40689   2.724   3.826   4.331  0.0697  0.2437 -0.2209
  302MOL0     C40690   2.729   3.531   4.653 -0.6718 -0.2614  0.1976
  302MOL0     C40691   2.627   3.435   4.655 -0.3312 -0.4733  0.6481
  302MOL0     C40692   2.628   3.327   4.738 -0.4113 -0.4031 -0.5829
  302MOL0     C40693   2.738   3.302   4.831  0.2235  0.1313 -0.1739
  302MOL0     O40694   2.730   3.198   4.922 -0.5840 -0.1244  0.4540
  302MOL0     C40695   2.855   3.139   4.973  0.3080  0.1310  0.9323
  302MOL0     C40696   2.916   3.038   4.874  1.0442 -0.4437 -0.8925
  302MOL0     C40697   3.038   2.973   4.928 -0.8252 -1.3036 -0.2129
  302MOL0     C40698   3.133   2.934   4.813 -1.0180  0.5363  0.0555
  302MOL0     C40699   3.208   3.051   4.768 -0.3626  0.7425  0.0100
  302MOL0     C40700   3.270   3.149   4.721  0.4263  0.1264  0.2130
  302MOL0     C40701   2.855   3.385   4.805 -0.3066  0.2457  0.3300
  302MOL0     C40702   2.850   3.500   4.725  0.0608 -0.4994  0.0313
  302MOL0     H40703   2.403   3.781   4.426 -1.1733  0.1502 -3.9346
  302MOL0     H40704   2.369   3.996   4.321  0.0820 -1.8429 -0.4241
  302MOL0     H40705   2.394   4.200   4.220  0.2749 -0.4063  1.4143
  302MOL0     H40706   2.512   4.255   4.338 -0.5684  0.6153  0.5843
  302MOL0     H40707   2.619   4.385   4.137  0.8974 -1.1031 -0.9559
  302MOL0     H40708   2.482   4.315   4.037  2.9313  0.7439 -1.2252
  302MOL0     H40709   2.306   4.411   4.199  0.2051  1.0112 -1.4479
  302MOL0     H40710   2.443   4.478   4.299  1.6536 -1.4789  0.1130
  302MOL0     H40711   2.494   4.625   4.098  0.0781 -0.3081 -2.3048
  302MOL0     H40712   2.354   4.558   4.016 -0.0676  0.4677 -0.9744
  302MOL0     H40713   2.335   4.664   4.306  2.6329 -4.2595 -0.8835
  302MOL0     H40714   2.329   4.779   4.186  2.6566 -0.2138 -3.5766
  302MOL0     H40715   2.132   4.620   4.093  3.2891 -4.4708 -0.2022
  302MOL0     H40716   2.138   4.550   4.255  1.5603 -1.4610 -2.2802
  302MOL0     H40717   1.974   4.689   4.264  0.9989 -2.3838 -1.2101
  302MOL0     H40718   2.100   4.761   4.360 -0.3950 -1.1814  0.5457
  302MOL0     H40719   2.060   4.855   4.076 -0.8347  0.3128 -0.1900
  302MOL0     H40720   2.157   4.938   4.205  0.6164  0.4536  0.0990
  302MOL0     H40721   1.807   4.852   4.075 -3.6948 -0.0392  0.9643
  302MOL0     H40722   1.599   5.060   4.051  0.9511 -0.5139  0.3281
  302MOL0     H40723   1.557   4.927   4.146  3.1354 -0.8757  0.1174
  302MOL0     H40724   1.542   5.114   4.342 -2.0735  0.6965  1.1545
  302MOL0     H40725   1.410   5.113   4.228 -0.0513  0.5999  0.2426
  302MOL0     H40726   1.494   5.299   4.108  0.9811 -1.8267 -0.8337
  302MOL0     H40727   1.653   5.290   4.148 -1.9477  2.3576 -2.4855
  302MOL0     H40728   1.445   5.387   4.345 -0.2884 -0.0622  0.3994
  302MOL0     H40729   1.572   5.485   4.262 -0.0791 -1.1204  0.7109
  302MOL0     H40730   1.581   5.614   4.421 -0.6206 -0.7529 -0.6143
  302MOL0     H40731   1.683   5.871   4.643  1.9107  0.5884 -3.8295
  302MOL0     H40732   1.647   5.821   4.489  2.1001  0.3786  1.8109
  302MOL0     H40733   1.507   5.855   4.589 -2.5158 -2.9863 -0.2906
  302MOL0     H40734   1.403   5.836   5.082  0.3656 -1.2480  0.5296
  302MOL0     H40735   1.406   6.022   5.248 -0.7719 -1.8324  0.0223
  302MOL0     H40736   1.792   6.240   5.311 -1.2161 -2.7927 -0.2273
  302MOL0     H40737   1.691   6.361   5.217  0.5377  2.3829  1.2726
  302MOL0     H40738   1.726   6.307   5.520 -3.3750 -0.1557  1.3492
  302MOL0     H40739   1.759   6.449   5.426  0.8247 -1.3250  0.6185
  302MOL0     H40740   1.488   6.318   5.480  1.8155 -2.6344 -2.1739
  302MOL0     H40741   1.514   6.455   5.376  0.0829 -3.4304 -2.6450
  302MOL0     H40742   1.615   6.474   5.666  1.1087  0.5524 -1.6018
  302MOL0     H40743   1.568   6.616   5.559  0.2841 -0.1921 -1.4395
  302MOL0     H40744   1.394   6.419   5.710 -0.5944 -0.3324  0.8992
  302MOL0     H40745   1.342   6.504   5.570 -0.2389 -0.0896  1.0007
  302MOL0     H40746   1.469   6.628   5.812  0.0028 -2.1046 -0.5577
  302MOL0     H40747   1.411   6.727   5.672  1.3991  1.6577  2.5622
  302MOL0     H40748   1.263   6.746   5.841 -0.1201 -0.5637 -0.3030
  302MOL0     H40749   1.251   6.568   5.870  2.5416  1.3940  2.2057
  302MOL0     H40750   1.133   6.558   5.634  0.6478  0.6776 -1.1093
  302MOL0     H40751   1.141   6.728   5.625  4.1345  1.5117  0.1036
  302MOL0     H40752   1.794   6.136   5.125  0.8034 -1.3899  0.8160
  302MOL0     H40753   1.778   5.975   4.931  0.1286 -1.5366 -0.4336
  302MOL0     H40754   1.584   5.432   4.873  0.4074 -2.0210 -0.5787
  302MOL0     H40755   1.627   5.278   4.683  3.6816 -0.0422  0.8718
  302MOL0     H40756   2.783   3.982   4.203 -0.8905  2.3685 -0.5012
  302MOL0     H40757   2.820   3.778   4.342 -1.5567 -2.9107  1.7550
  302MOL0     H40758   2.538   3.432   4.592  1.5156 -1.0317 -2.1174
  302MOL0     H40759   2.541   3.266   4.757  0.4245 -1.3869  0.2130
  302MOL0     H40760   2.926   3.217   5.000 -2.4697  2.0345  3.3920
  302MOL0     H40761   2.840   3.089   5.069  0.6917  0.2981  1.0787
  302MOL0     H40762   2.939   3.096   4.784  2.6665 -1.8712 -1.4466
  302MOL0     H40763   2.844   2.962   4.842 -0.2054  1.0593 -1.8324
  302MOL0     H40764   3.009   2.881   4.981 -2.2029  1.3417  4.2138
  302MOL0     H40765   3.087   3.036   5.002 -2.5034  1.4361 -1.2664
  302MOL0     H40766   3.083   2.889   4.727 -1.3395  0.5495  0.2325
  302MOL0     H40767   3.196   2.854   4.851 -0.2445  0.6514 -0.9360
  302MOL0     H40768   3.320   3.233   4.677 -3.5193  1.6596 -1.9257
  302MOL0     H40769   2.942   3.375   4.870  0.5859 -0.7150 -0.9651
  302MOL0     H40770   2.938   3.562   4.712 -1.1445  1.2887  0.0990
  303MOL0     O40771   6.669   9.045   9.643  1.1681  0.2527 -0.1428
  303MOL0     C40772   6.708   8.996   9.542  0.3342 -0.1734  0.0908
  303MOL0     O40773   6.814   8.908   9.538  0.7482  0.2123  0.0383
  303MOL0     C40774   6.858   8.870   9.666 -0.9064 -0.4836 -0.7898
  303MOL0     C40775   6.826   8.749   9.727  1.0620  0.0411 -0.3588
  303MOL0     C40776   6.876   8.723   9.858  0.4804  0.2216 -0.4722
  303MOL0     C40777   6.927   8.829   9.945 -0.1286  0.8237  0.1645
  303MOL0     O40778   6.935   8.818  10.078  0.2538 -0.4773 -0.6995
  303MOL0     C40779   6.908   8.700  10.156 -0.4381  0.1205 -1.2870
  303MOL0     C40780   6.905   8.713  10.302  0.5212 -0.1719  0.3171
  303MOL0     C40781   6.799   8.808  10.341  0.2546  0.5673  0.3411
  303MOL0     C40782   6.657   8.788  10.313  0.5991  1.1753  0.9083
  303MOL0     C40783   6.573   8.892  10.394 -0.0092 -0.0219  1.5983
  303MOL0     C40784   6.429   8.852  10.363  0.1544  0.3788 -0.2556
  303MOL0     C40785   6.334   8.956  10.413 -0.1534 -0.6824 -0.5858
  303MOL0     C40786   6.315   8.981  10.565  1.2601  0.4024 -0.8528
  303MOL0     N40787   6.189   8.923  10.636 -0.3035 -0.3500 -0.4104
  303MOL0     C40788   6.099   8.850  10.568  0.4450 -0.1577  0.0852
  303MOL0     C40789   6.004   8.829  10.655 -0.0450 -0.2117  0.2594
  303MOL0     C40790   5.878   8.749  10.608  0.3123  0.0783  0.3044
  303MOL0     C40791   5.742   8.764  10.692  0.4478 -0.8009 -0.0195
  303MOL0     C40792   5.614   8.737  10.614  0.5854 -0.3045  1.2333
  303MOL0     C40793   5.601   8.588  10.567  0.2868  0.0206 -0.9902
  303MOL0     O40794   5.627   8.488  10.667 -0.2131 -0.9159  0.8896
  303MOL0     C40795   5.686   8.373  10.628 -0.1431 -0.0506 -0.4230
  303MOL0     C40796   5.636   8.262  10.695 -0.3332 -0.8386 -0.2819
  303MOL0     C40797   5.682   8.136  10.665  0.5961  1.0961  0.9847
  303MOL0     C40798   5.605   8.015  10.727  0.3675 -1.3182  0.3092
  303MOL0     C40799   5.798   8.125  10.590 -0.1520 -1.3223  0.9532
  303MOL0     C40800   5.853   7.996  10.551 -1.0363  0.3341 -0.3143
  303MOL0     O40801   5.977   8.004  10.491  0.1988 -0.3696  0.1538
  303MOL0     C40802   6.033   7.891  10.428 -0.2607 -0.5029 -0.0086
  303MOL0     C40803   6.180   7.878  10.433 -0.2829 -0.5852  0.1176
  303MOL0     C40804   6.238   7.767  10.365 -0.5873 -1.1146 -0.3283
  303MOL0     C40805   6.155   7.676  10.296 -0.5053 -0.2805  0.9559
  303MOL0     O40806   6.202   7.573  10.226 -0.8932  0.5002  0.0195
  303MOL0     C40807   6.347   7.557  10.193  0.0200  0.2220 -0.8135
  303MOL0     C40808   6.372   7.488  10.055 -0.0513  1.6098  0.1603
  303MOL0     C40809   6.282   7.356  10.050  0.3516 -0.3672  0.2657
  303MOL0     C40810   6.308   7.274   9.925 -0.1608 -1.0977  0.2449
  303MOL0     C40811   6.251   7.131   9.930 -0.0069 -0.1403  0.0776
  303MOL0     C40812   6.285   7.056   9.807  0.7043  0.5271  0.2082
  303MOL0     C40813   6.205   6.921   9.793 -0.5762  0.3533 -0.5077
  303MOL0     C40814   6.269   6.819   9.699 -0.3117 -0.8491 -0.6411
  303MOL0    Cl40815   6.150   6.692   9.664 -0.1720  0.1396  0.1429
  303MOL0     C40816   6.017   7.702  10.284 -0.8996 -0.1614  0.4270
  303MOL0     C40817   5.955   7.790  10.358  0.6217 -0.0320  0.5543
  303MOL0     O40818   5.800   7.887  10.574  0.6330 -0.1578  0.0485
  303MOL0     C40819   5.848   8.243  10.518 -0.3391 -0.4453  0.0176
  303MOL0     C40820   5.796   8.370  10.550  0.1281  0.2482 -0.0826
  303MOL0     N40821   6.025   8.909  10.763 -0.5871  0.1337 -0.2137
  303MOL0     N40822   6.145   8.967  10.751  0.2155  0.4196 -0.7679
  303MOL0     C40823   6.968   8.946   9.880  0.7214 -0.0777 -0.2820
  303MOL0     C40824   6.924   8.971   9.743 -0.2514  0.4301  0.3400
  303MOL0     C40825   6.629   9.002   9.421 -1.0711 -1.4007 -0.6090
  303MOL0     C40826   6.683   8.969   9.297  0.0598 -0.4610 -0.7129
  303MOL0     C40827   6.607   8.977   9.180  0.2590  0.4702 -0.3905
  303MOL0     C40828   6.470   9.015   9.201 -0.1487 -1.3464  0.3970
  303MOL0     O40829   6.385   9.027   9.095  0.0271  0.0735 -0.1208
  303MOL0     C40830   6.436   8.983   8.972 -1.0385  0.2023  0.1954
  303MOL0     C40831   6.328   8.984   8.877  0.4647  0.2986  1.0628
  303MOL0     C40832   6.211   8.885   8.907 -0.3917  0.2065 -0.0593
  303MOL0     C40833   6.113   8.871   8.791  0.5010  0.2283 -0.4810
  303MOL0     C40834   6.047   8.746   8.814 -0.8595  1.4994 -0.3345
  303MOL0     C40835   5.996   8.637   8.820  0.2405  0.3822  0.6647
  303MOL0     C40836   6.416   9.049   9.321 -0.4007  0.3941 -0.4402
  303MOL0     C40837   6.491   9.051   9.440 -0.1708  0.5562  0.6925
  303MOL0     H40838   6.749   8.684   9.685  1.4754 -1.1513  0.6592
  303MOL0     H40839   6.848   8.625   9.894 -1.5514 -0.0801 -2.5936
  303MOL0     H40840   6.809   8.664  10.127 -2.0533  2.5888  0.6605
  303MOL0     H40841   6.985   8.624  10.138 -0.2783 -1.3310  3.9279
  303MOL0     H40842   6.863   8.620  10.341 -0.9371  1.2398  2.3583
  303MOL0     H40843   7.004   8.722  10.347 -0.0720 -1.6687  2.0765
  303MOL0     H40844   6.797   8.817  10.450 -0.8876 -0.4848  0.4331
  303MOL0     H40845   6.819   8.908  10.301 -0.2072 -0.8036 -3.8322
  303MOL0     H40846   6.634   8.806  10.207  1.2117  0.0580  0.5682
  303MOL0     H40847   6.618   8.689  10.337  1.5682  0.9290  1.5100
  303MOL0     H40848   6.586   8.898  10.502 -3.8569  0.4812  2.1977
  303MOL0     H40849   6.577   8.996  10.359  0.2598 -0.5392  0.0187
  303MOL0     H40850   6.418   8.848  10.254 -2.7778  1.6024 -0.1064
  303MOL0     H40851   6.403   8.750  10.395  1.4257 -0.3716 -1.4960
  303MOL0     H40852   6.379   9.047  10.372 -0.4619 -0.4457 -0.3958
  303MOL0     H40853   6.240   8.931  10.364  0.0954  1.7140 -2.4435
  303MOL0     H40854   6.315   9.088  10.588  1.6239 -0.3639  3.5910
  303MOL0     H40855   6.399   8.937  10.620  1.3285 -1.5482 -2.3927
  303MOL0     H40856   6.096   8.806  10.469 -1.7760 -0.0697  0.0783
  303MOL0     H40857   5.855   8.791  10.510 -0.9061 -0.6542  0.2576
  303MOL0     H40858   5.908   8.645  10.598  1.0250  0.1437  1.5610
  303MOL0     H40859   5.737   8.867  10.728 -0.5182 -0.6221 -0.6247
  303MOL0     H40860   5.743   8.702  10.782  1.9270 -0.5847  0.1369
  303MOL0     H40861   5.614   8.798  10.523 -0.0544 -0.1414  1.3368
  303MOL0     H40862   5.531   8.758  10.683 -0.1713 -2.9415  1.2342
  303MOL0     H40863   5.652   8.578  10.471  0.4584  0.2978 -0.9257
  303MOL0     H40864   5.498   8.560  10.541  0.6576 -1.5857 -0.8560
  303MOL0     H40865   5.545   8.273  10.753  0.7241  2.1882  1.0245
  303MOL0     H40866   5.659   7.977  10.813 -1.8098  0.8258  2.8417
  303MOL0     H40867   5.505   8.042  10.763  0.9273 -0.0669  1.0084
  303MOL0     H40868   5.591   7.940  10.649  3.0931 -1.1863 -0.3966
  303MOL0     H40869   6.240   7.945  10.495 -0.4575 -0.1953 -0.1340
  303MOL0     H40870   6.343   7.740  10.366 -0.3175 -0.0822  0.7685
  303MOL0     H40871   6.404   7.650  10.189 -0.3451  0.5781  1.0698
  303MOL0     H40872   6.394   7.495  10.270 -2.6070  3.0152  3.5021
  303MOL0     H40873   6.362   7.566   9.978  0.8777  5.3492  3.4736
  303MOL0     H40874   6.476   7.452  10.056 -1.1515 -1.9115  0.5131
  303MOL0     H40875   6.176   7.382  10.047  0.1884 -1.0764 -0.7105
  303MOL0     H40876   6.297   7.311  10.148  0.2843 -3.2713 -0.9537
  303MOL0     H40877   6.277   7.329   9.836 -0.8473  0.3723  1.3401
  303MOL0     H40878   6.417   7.264   9.921 -0.0346  0.3154 -2.9889
  303MOL0     H40879   6.141   7.133   9.932 -0.1620 -2.8969 -0.8476
  303MOL0     H40880   6.288   7.075  10.016  0.6925 -3.8139 -2.3956
  303MOL0     H40881   6.265   7.126   9.726 -2.1510 -1.9681 -1.4644
  303MOL0     H40882   6.389   7.022   9.804 -0.0641 -2.0019 -1.7746
  303MOL0     H40883   6.102   6.943   9.762 -0.7087  1.4538  0.6441
  303MOL0     H40884   6.198   6.866   9.887  3.3762  2.2011  1.0818
  303MOL0     H40885   6.353   6.771   9.749  0.1232  0.9018  0.3960
  303MOL0     H40886   6.308   6.872   9.612  0.3618  3.7944  2.1493
  303MOL0     H40887   5.973   7.633  10.212  0.6840  0.5914 -1.3582
  303MOL0     H40888   5.847   7.788  10.356  0.5275  2.2031  0.4347
  303MOL0     H40889   5.922   8.221  10.441  1.9200  0.3239  1.8624
  303MOL0     H40890   5.837   8.453  10.494  0.1289 -0.4158 -1.0827
  303MOL0     H40891   7.018   9.022   9.940  2.5821 -1.1803 -0.3489
  303MOL0     H40892   6.933   9.072   9.703  1.6987  1.6817  3.5242
  303MOL0     H40893   6.790   8.954   9.285  0.2085 -0.4000  0.4126
  303MOL0     H40894   6.669   8.964   9.092  1.9051  1.3806  0.6064
  303MOL0     H40895   6.518   9.046   8.935 -1.3704 -0.2332 -1.3235
  303MOL0     H40896   6.476   8.883   8.991  0.0957  1.3000  4.6980
  303MOL0     H40897   6.373   8.953   8.782  0.4925  4.0136 -0.3033
  303MOL0     H40898   6.285   9.084   8.872 -1.7292 -0.6428 -0.3474
  303MOL0     H40899   6.163   8.915   9.001  0.7081  1.2391  0.1955
  303MOL0     H40900   6.254   8.788   8.934  2.0603  1.4885  0.8968
  303MOL0     H40901   6.169   8.863   8.698 -1.3539 -1.9205 -1.4824
  303MOL0     H40902   6.051   8.960   8.800  0.1573 -0.0183 -0.4200
  303MOL0     H40903   5.940   8.546   8.820 -0.1229  0.6014  1.2081
  303MOL0     H40904   6.313   9.078   9.336  0.3403  1.9704  2.2579
  303MOL0     H40905   6.454   9.087   9.535  1.7605  1.8382  1.0200
  304MOL0     O40906   0.178   6.311   2.605 -0.5249  0.2392 -0.3949
  304MOL0     C40907   0.162   6.329   2.724  0.1485 -0.1014  1.1030
  304MOL0     O40908   0.172   6.454   2.785 -0.4140 -0.0258 -0.3353
  304MOL0     C40909   0.165   6.578   2.720 -0.2614 -0.0664  0.1050
  304MOL0     C40910   0.236   6.686   2.775 -0.1792  0.4086  0.7647
  304MOL0     C40911   0.220   6.807   2.712  0.6586 -0.4269 -0.6114
  304MOL0     C40912   0.172   6.830   2.580  0.0252 -0.3727 -0.1402
  304MOL0     O40913   0.160   6.956   2.530 -0.5436  0.0811 -0.6230
  304MOL0     C40914   0.197   7.075   2.608 -0.3773 -0.2318  0.3225
  304MOL0     C40915   0.101   7.184   2.565 -0.4453 -0.1481 -0.3667
  304MOL0     C40916  -0.038   7.167   2.634  0.9148  0.0810 -0.6854
  304MOL0     C40917  -0.109   7.308   2.649  0.1979  0.9572 -0.1978
  304MOL0     C40918  -0.222   7.308   2.749 -0.3978  0.2235 -0.3608
  304MOL0     C40919  -0.278   7.449   2.755  0.5936 -0.4119 -0.1496
  304MOL0     C40920  -0.332   7.501   2.618  1.3090 -0.0011 -0.7176
  304MOL0     C40921  -0.427   7.619   2.631  0.0325  0.4272 -0.0177
  304MOL0     N40922  -0.370   7.724   2.712 -0.6259  0.4339  0.5258
  304MOL0     C40923  -0.327   7.840   2.669  0.6962  0.3148 -0.7187
  304MOL0     C40924  -0.285   7.909   2.781  1.2639 -0.8716  0.9753
  304MOL0     C40925  -0.207   8.042   2.782  0.7310  0.3940 -0.1787
  304MOL0     C40926  -0.066   8.045   2.707  0.3504  1.2609  0.0014
  304MOL0     C40927   0.040   7.956   2.768  0.1785  0.0447  0.3283
  304MOL0     C40928   0.182   7.978   2.718 -0.0328  0.3232  0.2857
  304MOL0     O40929   0.286   7.939   2.812  0.9923 -0.4009 -0.2976
  304MOL0     C40930   0.280   7.815   2.866 -1.2214 -0.0358  1.4843
  304MOL0     C40931   0.323   7.790   2.996 -0.1354  0.8194 -0.3487
  304MOL0     C40932   0.334   7.660   3.053  1.2024  0.9187  0.0598
  304MOL0     C40933   0.381   7.649   3.189 -0.0935  0.3393 -0.8771
  304MOL0     C40934   0.302   7.548   2.972  0.0048 -1.3413 -0.4427
  304MOL0     C40935   0.303   7.402   3.014 -0.6008 -1.0402  0.7059
  304MOL0     O40936   0.233   7.324   2.931  0.5107  0.2238  0.2896
  304MOL0     C40937   0.256   7.184   2.951  0.4160 -0.4802 -0.5191
  304MOL0     C40938   0.378   7.123   2.912  0.0440  0.5786 -0.0280
  304MOL0     C40939   0.414   6.989   2.953  0.6580  0.7475 -0.7006
  304MOL0     C40940   0.325   6.929   3.049 -0.6191  0.0388 -0.1027
  304MOL0     O40941   0.365   6.807   3.096  0.2564  0.4394 -0.4423
  304MOL0     C40942   0.396   6.811   3.231 -0.1707 -0.2148 -0.3983
  304MOL0     C40943   0.465   6.674   3.257  0.1513 -0.1292 -0.1390
  304MOL0     C40944   0.513   6.661   3.403 -0.0463  0.3227 -0.5002
  304MOL0     C40945   0.596   6.539   3.432  0.2751 -0.2045 -0.1464
  304MOL0     C40946   0.742   6.571   3.415  0.3679 -0.3345  0.3619
  304MOL0     C40947   0.819   6.436   3.408  1.0341 -1.3325 -0.7488
  304MOL0     C40948   0.971   6.456   3.445 -0.5742  0.3333 -0.5025
  304MOL0     C40949   1.058   6.417   3.326  0.0932  0.4085  0.9085
  304MOL0    Cl40950   1.233   6.416   3.358 -0.0619  0.0848  0.2766
  304MOL0     C40951   0.203   6.995   3.094 -0.7834 -0.1969 -0.0345
  304MOL0     C40952   0.169   7.118   3.049 -0.3260 -1.0279 -0.3191
  304MOL0     O40953   0.390   7.366   3.098 -0.0142 -0.5582  0.4060
  304MOL0     C40954   0.239   7.575   2.848  0.2018  0.9938 -0.4124
  304MOL0     C40955   0.239   7.704   2.794 -0.2650  1.5574 -0.6500
  304MOL0     N40956  -0.324   7.836   2.894 -0.0778 -0.0119  0.3276
  304MOL0     N40957  -0.372   7.730   2.847  0.4710  0.6977  0.5179
  304MOL0     C40958   0.123   6.715   2.521 -0.0888  0.2786 -0.0699
  304MOL0     C40959   0.125   6.593   2.585  0.9678  0.2776  0.1598
  304MOL0     C40960   0.117   6.222   2.812 -0.2000 -0.1692 -0.0696
  304MOL0     C40961   0.046   6.107   2.768 -0.0186  0.7313  0.5612
  304MOL0     C40962   0.014   6.002   2.853 -0.5166  0.0310  0.1566
  304MOL0     C40963   0.037   6.015   2.989  0.6392  0.0151  0.2036
  304MOL0     O40964   0.008   5.915   3.077 -1.4461 -0.4431  0.5061
  304MOL0     C40965  -0.129   5.897   3.104 -0.2784  0.0126  1.0764
  304MOL0     C40966  -0.164   6.012   3.207 -1.4741  0.4278  0.0095
  304MOL0     C40967  -0.233   6.135   3.146 -0.1678 -0.0067  0.2611
  304MOL0     C40968  -0.359   6.118   3.064 -0.4234  0.5887  0.5148
  304MOL0     C40969  -0.399   6.241   3.004 -0.2819  0.6876  0.1888
  304MOL0     C40970  -0.434   6.345   2.948  0.5394 -0.3102 -0.0430
  304MOL0     C40971   0.109   6.125   3.041  0.0204  0.9933 -0.4113
  304MOL0     C40972   0.138   6.228   2.951 -0.8227  0.1274 -0.4892
  304MOL0     H40973   0.286   6.684   2.872 -0.0144  2.0216  0.7390
  304MOL0     H40974   0.262   6.886   2.773  0.3292  1.1745 -2.3602
  304MOL0     H40975   0.210   7.062   2.716  2.2557 -2.0232 -0.1209
  304MOL0     H40976   0.294   7.115   2.574 -1.3818  2.7615  0.6343
  304MOL0     H40977   0.149   7.279   2.590 -3.4545  0.5685  3.6966
  304MOL0     H40978   0.089   7.170   2.457  1.1683  0.5083 -0.6499
  304MOL0     H40979  -0.101   7.094   2.583  1.0660 -1.4088  1.1518
  304MOL0     H40980  -0.015   7.122   2.731 -2.4119  1.9191  1.1119
  304MOL0     H40981  -0.032   7.381   2.673  1.3554 -0.1880 -0.3544
  304MOL0     H40982  -0.143   7.316   2.545  0.3099  0.3403 -0.2866
  304MOL0     H40983  -0.308   7.240   2.743 -1.8793  2.0612 -1.1447
  304MOL0     H40984  -0.169   7.298   2.844  2.2086  1.9818 -1.4939
  304MOL0     H40985  -0.348   7.460   2.838  1.7707 -0.6696  0.9208
  304MOL0     H40986  -0.195   7.513   2.786 -0.4067  0.5747  0.5490
  304MOL0     H40987  -0.248   7.527   2.553  1.7132 -0.4450 -0.3791
  304MOL0     H40988  -0.382   7.413   2.576  1.3442  0.0595 -0.8880
  304MOL0     H40989  -0.520   7.579   2.673  1.3852 -4.8609 -1.3363
  304MOL0     H40990  -0.442   7.655   2.528 -0.9478 -0.1182 -0.0806
  304MOL0     H40991  -0.309   7.870   2.567  4.9550  1.0132  0.0523
  304MOL0     H40992  -0.267   8.122   2.735 -1.2871 -1.1446 -0.3457
  304MOL0     H40993  -0.179   8.082   2.880  0.4104  1.0797 -0.3552
  304MOL0     H40994  -0.033   8.149   2.713 -0.1731  1.5708 -1.9492
  304MOL0     H40995  -0.088   8.033   2.600  0.8708 -0.3334  0.0487
  304MOL0     H40996   0.029   7.853   2.734  1.9393 -2.0165  5.1370
  304MOL0     H40997   0.037   7.943   2.876  0.0687 -1.7714  0.1309
  304MOL0     H40998   0.202   8.085   2.705 -0.2784  0.3219 -0.1049
  304MOL0     H40999   0.211   7.937   2.621 -0.0269 -0.5333  0.6420
  304MOL0     H41000   0.366   7.867   3.059 -1.6769  3.2902 -2.1576
  304MOL0     H41001   0.330   7.581   3.256  1.7246 -1.2507 -1.0214
  304MOL0     H41002   0.488   7.624   3.188  0.0164  0.7902 -1.5975
  304MOL0     H41003   0.359   7.739   3.248 -0.5172 -1.6198  2.1461
  304MOL0     H41004   0.438   7.168   2.834  0.1393 -0.6360 -0.6731
  304MOL0     H41005   0.496   6.936   2.907 -0.1071  1.2505 -2.7696
  304MOL0     H41006   0.462   6.896   3.249  0.1438 -0.9011  2.2051
  304MOL0     H41007   0.307   6.819   3.295  0.5062 -2.1927  0.8906
  304MOL0     H41008   0.405   6.591   3.220  2.0285 -1.1397 -1.0645
  304MOL0     H41009   0.553   6.673   3.193  0.9533  0.8298  0.9076
  304MOL0     H41010   0.423   6.667   3.465  0.4902  0.5018  0.2713
  304MOL0     H41011   0.572   6.748   3.432  0.0541 -0.5181  2.1579
  304MOL0     H41012   0.581   6.502   3.534  3.4677  2.2390  1.3727
  304MOL0     H41013   0.570   6.461   3.359  1.5902 -0.0761 -0.7699
  304MOL0     H41014   0.779   6.633   3.497  0.5069 -0.2655  0.2475
  304MOL0     H41015   0.758   6.636   3.328  2.8632 -1.7694 -0.3551
  304MOL0     H41016   0.779   6.370   3.485  3.0942  0.1141  1.7351
  304MOL0     H41017   0.807   6.386   3.312 -3.0396 -0.2216 -1.0026
  304MOL0     H41018   0.998   6.393   3.530 -1.0345  0.0974 -0.5281
  304MOL0     H41019   1.002   6.558   3.470 -0.1016  0.1806 -0.4573
  304MOL0     H41020   1.038   6.487   3.244 -0.5816  0.6709  1.2898
  304MOL0     H41021   1.027   6.319   3.290  1.0299  0.2120  0.6020
  304MOL0     H41022   0.136   6.959   3.172 -0.1803  2.1997  1.6897
  304MOL0     H41023   0.095   7.177   3.102  0.5991 -1.2744  1.3099
  304MOL0     H41024   0.199   7.500   2.780 -1.5877  1.3013  0.2653
  304MOL0     H41025   0.205   7.719   2.692 -1.6155 -0.4717 -0.5605
  304MOL0     H41026   0.080   6.722   2.422  1.3918 -1.2514 -0.8560
  304MOL0     H41027   0.074   6.510   2.538 -0.5569 -1.3018  4.1546
  304MOL0     H41028   0.034   6.092   2.661  1.2708 -1.5671  0.6628
  304MOL0     H41029  -0.032   5.914   2.809 -3.2270  0.6905  1.4526
  304MOL0     H41030  -0.201   5.897   3.021  0.2782 -0.6130  0.5838
  304MOL0     H41031  -0.131   5.802   3.158  3.9954 -0.2338  1.1169
  304MOL0     H41032  -0.071   6.043   3.255  0.4140 -1.6947 -1.9940
  304MOL0     H41033  -0.235   5.978   3.282 -2.1718 -1.8624 -1.6016
  304MOL0     H41034  -0.159   6.181   3.080 -1.4510  0.4580 -0.8852
  304MOL0     H41035  -0.254   6.194   3.236 -2.4654  0.9316 -0.8063
  304MOL0     H41036  -0.441   6.065   3.114  0.5657  0.4817  2.1045
  304MOL0     H41037  -0.337   6.068   2.969  4.8467  2.2953  0.4889
  304MOL0     H41038  -0.484   6.434   2.914  1.1712 -0.7104 -2.1369
  304MOL0     H41039   0.149   6.119   3.141  3.0516 -2.0094 -1.6117
  304MOL0     H41040   0.195   6.316   2.980 -1.2971  1.2303 -2.7171
  305MOL0     O41041   4.843  10.193   6.814  0.3543 -0.2299 -0.4565
  305MOL0     C41042   4.783  10.258   6.894  0.4492 -0.0873  1.0811
  305MOL0     O41043   4.752  10.391   6.875  0.5599  0.1309  0.5337
  305MOL0     C41044   4.832  10.457   6.794  0.1838 -0.4650  0.5373
  305MOL0     C41045   4.877  10.424   6.665 -0.1077  0.2962  0.1689
  305MOL0     C41046   4.983  10.500   6.606  0.8529 -0.1632 -0.0644
  305MOL0     C41047   5.018  10.630   6.656  0.8142  0.8397 -0.5686
  305MOL0     O41048   5.111  10.712   6.609 -0.1550 -0.1003  0.0395
  305MOL0     C41049   5.175  10.670   6.487 -0.0457  0.0617  0.3497
  305MOL0     C41050   5.288  10.762   6.446  0.2401 -0.4108 -0.8312
  305MOL0     C41051   5.356  10.724   6.308 -0.1909 -1.1914 -0.0302
  305MOL0     C41052   5.507  10.735   6.317  0.8314  0.9949  0.2087
  305MOL0     C41053   5.564  10.669   6.189 -0.0499  0.5243  0.4981
  305MOL0     C41054   5.525  10.522   6.170  0.0765  0.2441  0.1112
  305MOL0     C41055   5.615  10.448   6.069 -0.1705 -0.0162  0.4144
  305MOL0     C41056   5.586  10.299   6.039 -0.4171 -0.3607  0.6970
  305MOL0     N41057   5.607  10.234   6.165  0.1896  0.8366  0.5277
  305MOL0     C41058   5.515  10.193   6.260  0.4416  0.4314  0.2621
  305MOL0     C41059   5.588  10.129   6.352 -1.5263  0.4901  0.5928
  305MOL0     C41060   5.524  10.078   6.480  0.0817 -0.2823  0.4512
  305MOL0     C41061   5.551   9.927   6.492 -0.1224  0.1056 -0.0397
  305MOL0     C41062   5.478   9.829   6.405 -0.4802  0.5483  0.1999
  305MOL0     C41063   5.563   9.703   6.391  0.5870 -0.0639  0.0926
  305MOL0     O41064   5.478   9.616   6.316  0.5363 -0.2210  0.1265
  305MOL0     C41065   5.533   9.497   6.288 -0.9634  1.1066  0.0311
  305MOL0     C41066   5.660   9.483   6.232  0.5722 -0.2431 -0.2165
  305MOL0     C41067   5.727   9.359   6.229 -0.7648  0.0121 -1.4217
  305MOL0     C41068   5.871   9.360   6.172  0.2861  0.2569  0.4399
  305MOL0     C41069   5.657   9.239   6.276  0.1913 -0.4154  0.1481
  305MOL0     C41070   5.717   9.104   6.268  0.9560 -0.5650  0.4253
  305MOL0     O41071   5.809   9.091   6.169 -0.0106  0.2367 -0.6302
  305MOL0     C41072   5.903   8.995   6.185 -0.3200 -0.1183  0.0013
  305MOL0     C41073   5.970   8.970   6.304 -0.6719 -0.2026  0.6799
  305MOL0     C41074   6.042   8.865   6.328  0.3984  0.5491  0.1862
  305MOL0     C41075   6.062   8.772   6.225  0.2889  1.3721  0.2649
  305MOL0     O41076   6.148   8.665   6.232 -0.1240  0.0544  0.2362
  305MOL0     C41077   6.276   8.699   6.202 -0.0952 -0.4989 -0.3541
  305MOL0     C41078   6.375   8.580   6.206  0.1014 -0.0826  0.6808
  305MOL0     C41079   6.440   8.573   6.341  0.1285  0.5692  0.6274
  305MOL0     C41080   6.535   8.449   6.356  0.6221 -0.3393  0.4533
  305MOL0     C41081   6.672   8.507   6.317 -0.0724  1.0532 -0.1250
  305MOL0     C41082   6.790   8.417   6.354 -0.4782  0.1059 -0.0899
  305MOL0     C41083   6.801   8.299   6.263  0.1454 -1.3793 -0.6731
  305MOL0     C41084   6.787   8.326   6.111  0.0118  0.4066  0.1857
  305MOL0    Cl41085   6.814   8.160   6.033 -0.2914  0.3069  0.1562
  305MOL0     C41086   6.011   8.796   6.099  0.8650 -1.1015 -0.3846
  305MOL0     C41087   5.920   8.904   6.084  0.3591  0.4417 -0.2370
  305MOL0     O41088   5.678   9.018   6.342  0.4252 -0.0893 -0.3085
  305MOL0     C41089   5.530   9.259   6.335  0.2930 -0.3428 -0.0760
  305MOL0     C41090   5.479   9.382   6.345  0.4387  0.1230 -0.8946
  305MOL0     N41091   5.719  10.117   6.301 -0.0358  0.2707 -0.4380
  305MOL0     N41092   5.734  10.198   6.203  0.3155 -0.6637 -0.3223
  305MOL0     C41093   4.947  10.672   6.765  0.0621  0.1914  1.0312
  305MOL0     C41094   4.864  10.588   6.833 -0.3544 -0.5982 -0.6424
  305MOL0     C41095   4.743  10.200   7.025  0.4578 -0.2061 -0.4373
  305MOL0     C41096   4.676  10.290   7.117  0.0831  0.0171  0.5566
  305MOL0     C41097   4.653  10.244   7.248  0.2332 -0.2091  0.1075
  305MOL0     C41098   4.690  10.117   7.293  0.1782 -1.0410 -0.2260
  305MOL0     O41099   4.654  10.069   7.413 -0.7253 -0.0372 -0.0599
  305MOL0     C41100   4.629  10.160   7.520  0.4127  0.6920  0.3516
  305MOL0     C41101   4.571  10.081   7.641  1.2516 -1.3483 -0.4982
  305MOL0     C41102   4.653   9.967   7.709 -1.1482  0.2166  0.3339
  305MOL0     C41103   4.584   9.925   7.829  0.2040  0.1831 -0.9126
  305MOL0     C41104   4.456   9.848   7.804  0.1842 -0.3029  0.5425
  305MOL0     C41105   4.366   9.767   7.791 -1.2221  0.1999  0.1948
  305MOL0     C41106   4.764  10.043   7.205  0.2867  0.0161  0.0655
  305MOL0     C41107   4.785  10.076   7.072  0.6777 -0.0754 -0.6132
  305MOL0     H41108   4.844  10.330   6.624 -0.3173  0.7508 -0.7331
  305MOL0     H41109   5.030  10.452   6.520 -0.3949 -1.8529  0.1315
  305MOL0     H41110   5.209  10.567   6.498  2.2825  0.2258 -3.2225
  305MOL0     H41111   5.105  10.656   6.404  0.1024 -3.9922  0.7553
  305MOL0     H41112   5.247  10.863   6.436 -0.8787 -0.7251  0.2928
  305MOL0     H41113   5.359  10.756   6.529  1.8550  0.1736 -2.1105
  305MOL0     H41114   5.342  10.619   6.282  4.8770 -2.4140  1.1355
  305MOL0     H41115   5.314  10.793   6.234 -1.9356 -0.8966  1.1710
  305MOL0     H41116   5.543  10.839   6.320  2.9547  0.2985  0.6539
  305MOL0     H41117   5.552  10.682   6.401  2.8822 -0.5687 -1.7559
  305MOL0     H41118   5.527  10.733   6.108 -1.1211 -0.5859  0.0648
  305MOL0     H41119   5.673  10.677   6.185 -0.0838  0.9881  0.4416
  305MOL0     H41120   5.525  10.486   6.273  0.3586 -0.6983 -0.2115
  305MOL0     H41121   5.420  10.509   6.140 -1.0268  1.6393  2.9471
  305MOL0     H41122   5.623  10.497   5.972  0.9103 -2.3651 -0.7646
  305MOL0     H41123   5.717  10.460   6.107  0.1325 -0.2288 -0.3238
  305MOL0     H41124   5.644  10.256   5.957 -2.1996 -0.8932 -0.3467
  305MOL0     H41125   5.481  10.285   6.011 -0.1006 -0.8622 -0.2849
  305MOL0     H41126   5.409  10.215   6.269  0.3895  0.6929 -0.8630
  305MOL0     H41127   5.575  10.128   6.563  1.7611  1.5538 -1.5579
  305MOL0     H41128   5.421  10.110   6.498 -0.0941 -1.5019  1.7567
  305MOL0     H41129   5.519   9.882   6.587 -1.1914 -0.5765 -0.7006
  305MOL0     H41130   5.659   9.909   6.489 -0.1937 -1.4760  2.9148
  305MOL0     H41131   5.442   9.866   6.308  1.3010 -0.8149 -1.0416
  305MOL0     H41132   5.389   9.800   6.462  0.4908 -3.8828 -0.1813
  305MOL0     H41133   5.587   9.650   6.484 -2.4677 -1.5203  0.1922
  305MOL0     H41134   5.652   9.729   6.335 -0.7231  3.1070 -0.7104
  305MOL0     H41135   5.704   9.572   6.189  1.5493 -0.0271  1.1610
  305MOL0     H41136   5.862   9.311   6.074 -1.8387  0.1382  0.6422
  305MOL0     H41137   5.915   9.458   6.152 -0.0260 -0.1611 -2.9979
  305MOL0     H41138   5.938   9.316   6.246 -2.4039 -0.1583  2.7867
  305MOL0     H41139   5.963   9.048   6.380 -0.8708 -1.9472  2.5526
  305MOL0     H41140   6.113   8.860   6.410  0.4826 -2.1685  0.0458
  305MOL0     H41141   6.288   8.733   6.099  1.6930  0.3525  0.1014
  305MOL0     H41142   6.312   8.786   6.256 -0.2094  1.3300 -3.0253
  305MOL0     H41143   6.319   8.493   6.169  0.6424  1.5975 -5.1227
  305MOL0     H41144   6.453   8.591   6.131  0.0054 -2.6621  0.1080
  305MOL0     H41145   6.362   8.562   6.417 -0.9799  0.6173 -0.4718
  305MOL0     H41146   6.499   8.665   6.339 -1.0489  1.3612  1.2721
  305MOL0     H41147   6.539   8.402   6.455  2.9881  0.1532  0.6421
  305MOL0     H41148   6.515   8.366   6.288 -2.1463 -0.8841  1.8077
  305MOL0     H41149   6.690   8.600   6.373  0.9106  0.8422 -0.0827
  305MOL0     H41150   6.679   8.539   6.213  1.4079  3.7691  0.7082
  305MOL0     H41151   6.888   8.464   6.341 -0.1999 -0.0812  1.1867
  305MOL0     H41152   6.779   8.390   6.459 -0.3833  1.9375  0.4410
  305MOL0     H41153   6.723   8.226   6.287 -0.3138 -0.0599  2.2119
  305MOL0     H41154   6.891   8.245   6.292  0.4757  0.3704  1.8292
  305MOL0     H41155   6.860   8.400   6.079 -2.0980  1.2673 -3.1024
  305MOL0     H41156   6.691   8.370   6.081  1.4453  3.1865 -0.6471
  305MOL0     H41157   6.036   8.737   6.012 -1.4462 -0.4211 -1.5616
  305MOL0     H41158   5.870   8.924   5.990  1.1187 -1.2068 -1.0225
  305MOL0     H41159   5.470   9.172   6.359  1.1709 -1.1309 -0.6768
  305MOL0     H41160   5.375   9.392   6.375  0.7084 -2.9121  1.5384
  305MOL0     H41161   4.974  10.770   6.802 -1.0889 -0.2556  3.1950
  305MOL0     H41162   4.827  10.623   6.929  0.6244 -2.7708  0.6077
  305MOL0     H41163   4.640  10.389   7.090  1.7081 -0.7967 -6.6308
  305MOL0     H41164   4.591  10.305   7.313  2.9033  3.0112 -0.1026
  305MOL0     H41165   4.718  10.216   7.549  0.9370  1.2381 -2.0882
  305MOL0     H41166   4.558  10.240   7.495  1.4085  1.2136 -0.9732
  305MOL0     H41167   4.478  10.033   7.609 -2.0663  4.3154 -0.7448
  305MOL0     H41168   4.533  10.137   7.727 -1.3707 -5.6458  1.4671
  305MOL0     H41169   4.750  10.017   7.723 -0.1748 -1.5524  0.2150
  305MOL0     H41170   4.682   9.876   7.655 -2.8871  0.1191 -0.4853
  305MOL0     H41171   4.547  10.008   7.890 -1.9850  0.7768 -2.8974
  305MOL0     H41172   4.640   9.863   7.899 -1.7799 -2.6271 -1.6525
  305MOL0     H41173   4.290   9.695   7.769 -0.1238 -0.9037 -0.0719
  305MOL0     H41174   4.784   9.939   7.230  1.2515  0.0886 -0.3257
  305MOL0     H41175   4.834  10.009   7.002  2.1417 -0.0592  0.3542
  306MOL0     O41176   5.250   0.979   0.615  0.1039  0.0739  0.1321
  306MOL0     C41177   5.267   1.041   0.509  0.0399 -0.6562 -0.6319
  306MOL0     O41178   5.367   1.011   0.420  0.4326  0.5483  0.3220
  306MOL0     C41179   5.467   0.923   0.460 -0.3056  0.6839 -0.1454
  306MOL0     C41180   5.449   0.794   0.510  0.5135 -0.5155 -0.5373
  306MOL0     C41181   5.559   0.727   0.562 -0.6945 -0.4942 -0.6848
  306MOL0     C41182   5.691   0.785   0.561 -0.3720 -0.1478  0.5953
  306MOL0     O41183   5.799   0.719   0.622 -0.5741  0.3238 -0.0845
  306MOL0     C41184   5.872   0.812   0.703  0.1087 -0.2940 -0.1797
  306MOL0     C41185   5.958   0.724   0.796  0.0805 -0.0066  0.6062
  306MOL0     C41186   5.876   0.675   0.908 -0.2038  0.1043 -0.5406
  306MOL0     C41187   5.850   0.769   1.024  0.6958 -1.3514 -0.0775
  306MOL0     C41188   5.791   0.704   1.156  0.3664 -0.1802 -0.7311
  306MOL0     C41189   5.645   0.698   1.117  0.0135 -0.3048 -0.2906
  306MOL0     C41190   5.563   0.602   1.216 -1.2338  0.9005  0.4886
  306MOL0     C41191   5.419   0.644   1.246 -0.0637  0.4663  0.3030
  306MOL0     N41192   5.381   0.580   1.367 -0.3596  0.3139 -0.3762
  306MOL0     C41193   5.402   0.443   1.401  0.1869  0.4987  0.3834
  306MOL0     C41194   5.342   0.419   1.512 -0.6360 -0.7636 -0.3893
  306MOL0     C41195   5.320   0.297   1.600  0.2462  0.9233 -0.1060
  306MOL0     C41196   5.417   0.179   1.584 -0.2039  0.1643  0.4869
  306MOL0     C41197   5.384   0.062   1.682 -0.2012 -0.2055 -0.4071
  306MOL0     C41198   5.506  -0.020   1.721 -0.0562  0.4457 -0.3480
  306MOL0     O41199   5.581  -0.034   1.597  0.2886  0.5209 -0.4536
  306MOL0     C41200   5.683  -0.125   1.579 -0.6504 -0.0187  0.3349
  306MOL0     C41201   5.725  -0.210   1.674  0.4428 -0.5317  0.6722
  306MOL0     C41202   5.825  -0.299   1.647  0.3928  0.5834 -0.6416
  306MOL0     C41203   5.852  -0.408   1.762 -0.4959 -0.2643 -0.9054
  306MOL0     C41204   5.886  -0.309   1.520 -0.0364 -0.3599  0.5339
  306MOL0     C41205   5.996  -0.401   1.486 -0.2062 -0.1297  0.4462
  306MOL0     O41206   6.048  -0.384   1.361  0.0779 -0.3400 -0.3934
  306MOL0     C41207   6.158  -0.457   1.315  0.0384 -0.2165  0.0498
  306MOL0     C41208   6.249  -0.530   1.385 -0.2696 -0.2933 -0.0764
  306MOL0     C41209   6.352  -0.598   1.319  0.9188 -0.8324 -0.3688
  306MOL0     C41210   6.371  -0.588   1.183 -0.2412 -0.2268  0.3471
  306MOL0     O41211   6.489  -0.640   1.135 -0.4202  0.2187  0.2151
  306MOL0     C41212   6.510  -0.650   0.993  0.9596  0.4705  0.1519
  306MOL0     C41213   6.639  -0.721   0.978  0.0608 -0.4387  0.1607
  306MOL0     C41214   6.650  -0.858   1.042  1.2530  1.1067 -0.5712
  306MOL0     C41215   6.782  -0.940   1.024  0.5863  0.4368  0.0580
  306MOL0     C41216   6.811  -1.044   1.139 -0.6004 -0.7086  0.0278
  306MOL0     C41217   6.703  -1.154   1.154  0.0568  0.7223 -0.6325
  306MOL0     C41218   6.743  -1.259   1.260  0.1653  0.3084  0.3462
  306MOL0     C41219   6.640  -1.365   1.286 -0.8660 -0.8170 -0.1833
  306MOL0    Cl41220   6.577  -1.442   1.143  0.3525  0.0041 -0.1364
  306MOL0     C41221   6.279  -0.508   1.112  1.2901 -0.1583  0.3895
  306MOL0     C41222   6.177  -0.437   1.174  0.6805  0.4953  0.0153
  306MOL0     O41223   6.039  -0.478   1.574 -0.1743  0.5282  0.4429
  306MOL0     C41224   5.845  -0.222   1.421  0.0591 -0.4331  0.4270
  306MOL0     C41225   5.750  -0.128   1.455 -0.8241  0.4679  0.3920
  306MOL0     N41226   5.280   0.544   1.550  0.5229 -0.2039  0.6715
  306MOL0     N41227   5.300   0.642   1.463  0.0503  0.6024 -0.6082
  306MOL0     C41228   5.707   0.901   0.490 -0.8975 -0.4893 -0.1638
  306MOL0     C41229   5.592   0.966   0.426 -0.1983 -1.3294 -0.9298
  306MOL0     C41230   5.169   1.157   0.488 -0.4857  0.2647 -0.2667
  306MOL0     C41231   5.193   1.253   0.395  0.6936 -0.0857  1.7159
  306MOL0     C41232   5.114   1.361   0.371  0.4426 -0.5320  0.0323
  306MOL0     C41233   4.999   1.378   0.461  0.9379  0.2233  0.1638
  306MOL0     O41234   4.900   1.477   0.456 -0.4772 -0.4237  0.2000
  306MOL0     C41235   4.903   1.569   0.343  0.6132 -0.3065  0.2251
  306MOL0     C41236   4.779   1.659   0.326 -0.1196  0.3593 -0.6161
  306MOL0     C41237   4.660   1.584   0.268  0.1269 -0.7184  0.1375
  306MOL0     C41238   4.542   1.663   0.202 -0.6030  0.2456 -0.4221
  306MOL0     C41239   4.480   1.748   0.303 -0.2429 -0.0917  0.6775
  306MOL0     C41240   4.443   1.823   0.396 -0.0387 -0.1088  0.8420
  306MOL0     C41241   4.963   1.269   0.541  0.2841 -0.4926  1.2443
  306MOL0     C41242   5.050   1.172   0.568 -0.0991  0.9368 -1.1827
  306MOL0     H41243   5.350   0.749   0.511 -0.1076  0.8024  0.9879
  306MOL0     H41244   5.556   0.626   0.601 -0.4026 -0.3859 -0.3746
  306MOL0     H41245   5.929   0.886   0.645 -1.1169 -0.5597 -1.7920
  306MOL0     H41246   5.808   0.875   0.766 -0.3645  1.2883 -2.1465
  306MOL0     H41247   6.001   0.641   0.739  0.3716  3.0210 -4.0945
  306MOL0     H41248   6.038   0.784   0.839  0.6805  0.2486 -0.8207
  306MOL0     H41249   5.786   0.636   0.860 -0.0307 -1.6277  0.4515
  306MOL0     H41250   5.925   0.586   0.949 -0.6158  1.3208  2.9009
  306MOL0     H41251   5.937   0.829   1.052 -0.2967 -0.0503  0.2877
  306MOL0     H41252   5.775   0.836   0.981 -1.0620 -3.6091 -0.7542
  306MOL0     H41253   5.839   0.613   1.191 -0.5245  1.4037  5.8656
  306MOL0     H41254   5.796   0.769   1.244  2.0027  0.1238 -1.0026
  306MOL0     H41255   5.604   0.798   1.138  2.0255  1.2482 -3.0095
  306MOL0     H41256   5.634   0.684   1.009  1.9827  1.4013 -0.7786
  306MOL0     H41257   5.562   0.502   1.171 -1.9263  1.3088 -0.4367
  306MOL0     H41258   5.623   0.608   1.307 -1.1850  0.4248  0.4893
  306MOL0     H41259   5.350   0.630   1.162  1.1770  3.4889 -1.4044
  306MOL0     H41260   5.414   0.752   1.260  0.3721  0.3916  1.0975
  306MOL0     H41261   5.462   0.367   1.353  0.6956  1.3477 -0.3626
  306MOL0     H41262   5.306   0.332   1.703 -1.1353 -1.7734  0.7185
  306MOL0     H41263   5.220   0.254   1.592 -0.2088  1.7163  1.0857
  306MOL0     H41264   5.514   0.228   1.602 -1.7597  2.8910  2.0348
  306MOL0     H41265   5.412   0.146   1.480  0.2198  0.5552  0.3383
  306MOL0     H41266   5.310  -0.007   1.640  0.1442 -1.3533  0.8364
  306MOL0     H41267   5.342   0.102   1.775  0.9551 -1.2537  0.5953
  306MOL0     H41268   5.471  -0.114   1.766 -0.5944  1.0981  0.6350
  306MOL0     H41269   5.575   0.038   1.784  0.1011  2.4438 -2.2360
  306MOL0     H41270   5.672  -0.199   1.768 -0.8096 -1.1796  0.0793
  306MOL0     H41271   5.814  -0.371   1.858  0.9688  1.3114 -0.8744
  306MOL0     H41272   5.812  -0.507   1.739 -2.0322  0.6920 -2.5802
  306MOL0     H41273   5.960  -0.406   1.775 -0.5868  1.3473 -0.0780
  306MOL0     H41274   6.246  -0.538   1.494 -0.9539 -0.2847 -0.0921
  306MOL0     H41275   6.426  -0.646   1.382  2.9235  0.5985 -1.5226
  306MOL0     H41276   6.420  -0.690   0.945  0.4547  2.9851 -1.1894
  306MOL0     H41277   6.526  -0.546   0.961  1.2236  1.4701  3.2435
  306MOL0     H41278   6.647  -0.732   0.870 -1.6354 -0.2588 -0.0170
  306MOL0     H41279   6.720  -0.655   1.009 -1.8969  2.9431 -1.3600
  306MOL0     H41280   6.562  -0.922   1.026  0.5295  0.3739  4.7223
  306MOL0     H41281   6.654  -0.846   1.150 -0.4151 -2.7572  0.1211
  306MOL0     H41282   6.778  -0.995   0.930  1.1192 -0.5305  0.5821
  306MOL0     H41283   6.866  -0.870   1.018 -1.3206  2.9000  0.1838
  306MOL0     H41284   6.820  -0.994   1.236 -3.4494 -1.8665  0.9982
  306MOL0     H41285   6.903  -1.091   1.105 -0.4183  0.3685 -1.0252
  306MOL0     H41286   6.612  -1.112   1.198 -1.2784 -2.3155 -0.2361
  306MOL0     H41287   6.690  -1.206   1.059  3.8303 -0.8575 -0.4357
  306MOL0     H41288   6.766  -1.230   1.362  1.9032 -2.6743  0.9414
  306MOL0     H41289   6.832  -1.311   1.224 -0.2056 -0.7598  0.9176
  306MOL0     H41290   6.556  -1.323   1.341 -0.3860 -0.1597  0.0526
  306MOL0     H41291   6.686  -1.437   1.354  2.6470  2.2244  0.9724
  306MOL0     H41292   6.290  -0.482   1.007 -0.8090  3.6556  0.9224
  306MOL0     H41293   6.115  -0.367   1.120  0.7724  1.2908  0.9110
  306MOL0     H41294   5.888  -0.223   1.322  1.9731  2.4473  1.1174
  306MOL0     H41295   5.723  -0.067   1.370  0.4751  0.1444 -0.2782
  306MOL0     H41296   5.808   0.937   0.473 -1.9407  1.9113 -1.6906
  306MOL0     H41297   5.593   1.053   0.360  0.7423 -1.6129 -1.3154
  306MOL0     H41298   5.282   1.246   0.333  0.1496  1.6012  0.6822
  306MOL0     H41299   5.145   1.439   0.302 -0.9773  2.6150  2.6796
  306MOL0     H41300   4.995   1.628   0.341  0.6860 -0.4251  0.0152
  306MOL0     H41301   4.910   1.503   0.255  0.1950 -0.2521  0.1478
  306MOL0     H41302   4.799   1.743   0.259 -3.0916 -0.0718 -2.1863
  306MOL0     H41303   4.754   1.700   0.425  0.7489  3.3126 -1.5090
  306MOL0     H41304   4.616   1.526   0.350  1.5862 -2.3332 -0.1633
  306MOL0     H41305   4.707   1.523   0.190  3.4428  1.5675  0.1271
  306MOL0     H41306   4.470   1.592   0.161  1.2918 -1.9986 -0.1041
  306MOL0     H41307   4.577   1.723   0.118 -1.1518 -2.3494 -2.6384
  306MOL0     H41308   4.413   1.867   0.489 -1.5115  0.7922 -0.0176
  306MOL0     H41309   4.861   1.260   0.577 -1.4327  3.1383 -1.9269
  306MOL0     H41310   5.021   1.090   0.632  1.2070  0.1975 -1.4930
  307MOL0     O41311   6.745   6.851   2.738 -0.8369 -0.7066 -0.2373
  307MOL0     C41312   6.695   6.924   2.820  0.7589 -0.8922 -0.8486
  307MOL0     O41313   6.561   6.954   2.835  0.1805  0.0632 -0.1934
  307MOL0     C41314   6.462   6.872   2.778  0.4920 -0.6887 -0.2086
  307MOL0     C41315   6.371   6.933   2.691 -0.7165 -0.0942  0.3477
  307MOL0     C41316   6.277   6.852   2.629 -0.3456  0.1017  0.3472
  307MOL0     C41317   6.278   6.714   2.661  0.5285 -0.1741  1.0664
  307MOL0     O41318   6.187   6.641   2.593  0.3959 -1.1192  0.7279
  307MOL0     C41319   6.163   6.507   2.644  0.1685 -0.0748 -0.5285
  307MOL0     C41320   6.058   6.440   2.567 -0.1547  0.2499 -0.2785
  307MOL0     C41321   6.115   6.387   2.429  0.1342 -0.2508  0.7590
  307MOL0     C41322   6.121   6.237   2.441 -0.2270 -0.7379 -0.0606
  307MOL0     C41323   6.200   6.172   2.330  0.0128  0.7092  0.3135
  307MOL0     C41324   6.162   6.219   2.185 -0.0821 -0.2067  0.7546
  307MOL0     C41325   6.162   6.096   2.094  0.3280 -0.6555 -0.1501
  307MOL0     C41326   6.034   6.002   2.109 -0.0144 -0.7520 -0.2005
  307MOL0     N41327   5.922   6.070   2.054  0.6179  0.6063 -0.5529
  307MOL0     C41328   5.886   6.057   1.925 -1.0712 -0.1843  0.5533
  307MOL0     C41329   5.788   6.149   1.903  0.7417  0.7214  0.0916
  307MOL0     C41330   5.717   6.165   1.768 -0.0920  0.5388  0.2553
  307MOL0     C41331   5.598   6.066   1.744 -0.2142  0.4852 -0.1476
  307MOL0     C41332   5.542   6.100   1.603  0.6125  0.6851 -0.4505
  307MOL0     C41333   5.424   5.997   1.574  0.6773  0.3806 -0.1025
  307MOL0     O41334   5.319   6.058   1.646 -0.9950  0.9338  0.3282
  307MOL0     C41335   5.193   6.018   1.625  0.1601 -0.8159  0.6940
  307MOL0     C41336   5.141   5.916   1.546  0.3395 -0.0525 -0.4598
  307MOL0     C41337   5.004   5.892   1.528  0.3175 -0.6697 -0.7916
  307MOL0     C41338   4.960   5.802   1.424 -0.1767  0.7781  0.7867
  307MOL0     C41339   4.911   5.967   1.601 -0.4243  1.1635 -0.8555
  307MOL0     C41340   4.766   5.937   1.609  0.4298 -0.7650  0.0777
  307MOL0     O41341   4.708   5.903   1.494 -0.9345 -0.5623  0.5374
  307MOL0     C41342   4.583   5.954   1.480 -1.1048 -0.2256  0.2240
  307MOL0     C41343   4.479   5.865   1.477  0.1528 -1.0003  0.2916
  307MOL0     C41344   4.341   5.900   1.469 -0.4209  0.3674 -0.2519
  307MOL0     C41345   4.314   6.038   1.441  0.0717  0.0217 -0.2346
  307MOL0     O41346   4.188   6.065   1.422  0.0198  0.8957 -0.8053
  307MOL0     C41347   4.147   6.198   1.409 -0.3703  0.1744  0.0475
  307MOL0     C41348   3.997   6.207   1.407 -0.0433  0.2820  0.2992
  307MOL0     C41349   3.931   6.119   1.507  0.4726 -0.2772 -0.3922
  307MOL0     C41350   3.783   6.126   1.484  0.2637  0.5953 -1.0959
  307MOL0     C41351   3.714   6.026   1.582 -0.7879  0.2826 -0.6498
  307MOL0     C41352   3.565   6.056   1.577 -0.5710 -0.1114 -0.2437
  307MOL0     C41353   3.490   5.960   1.665  0.5819 -0.0605  0.0071
  307MOL0     C41354   3.359   5.921   1.603  0.8392  0.2214  0.4468
  307MOL0    Cl41355   3.355   5.836   1.441  0.1173  0.0833 -0.1508
  307MOL0     C41356   4.425   6.136   1.450 -0.2702  1.1509  0.1450
  307MOL0     C41357   4.555   6.089   1.475 -0.8184  0.1462  0.7915
  307MOL0     O41358   4.701   5.963   1.716 -0.4494 -0.5578 -0.0827
  307MOL0     C41359   4.964   6.087   1.658  0.4697 -0.1931  0.0636
  307MOL0     C41360   5.098   6.103   1.675  0.2323 -0.6773  0.0502
  307MOL0     N41361   5.766   6.215   2.026  0.5476  0.1338  0.0754
  307MOL0     N41362   5.836   6.153   2.115  0.4484  0.1276 -0.1500
  307MOL0     C41363   6.371   6.663   2.757 -0.9124 -0.1066  0.0524
  307MOL0     C41364   6.466   6.738   2.823  0.4963  0.6488  0.2715
  307MOL0     C41365   6.777   6.996   2.917 -0.4326 -0.8433 -0.0341
  307MOL0     C41366   6.910   6.983   2.907 -0.3379 -0.4182 -0.7410
  307MOL0     C41367   6.996   7.065   2.989 -0.1520 -0.2871  0.2944
  307MOL0     C41368   6.939   7.145   3.089 -1.0274  0.1098 -0.4043
  307MOL0     O41369   7.018   7.214   3.165  0.4118  0.5142 -0.2000
  307MOL0     C41370   6.981   7.327   3.251 -0.6451  0.7261 -0.8026
  307MOL0     C41371   6.972   7.447   3.163  0.1390 -0.2331  0.0464
  307MOL0     C41372   6.994   7.570   3.246  0.0474 -0.5756  0.0253
  307MOL0     C41373   6.860   7.635   3.293 -0.0053 -0.5546  0.7147
  307MOL0     C41374   6.774   7.556   3.376  1.2849  0.3887 -0.4804
  307MOL0     C41375   6.711   7.474   3.444 -0.3352  0.7566  0.1307
  307MOL0     C41376   6.807   7.133   3.117 -1.2333 -0.4884 -0.2078
  307MOL0     C41377   6.720   7.071   3.028  0.7575  0.6812  0.9795
  307MOL0     H41378   6.386   7.036   2.663 -0.2485 -0.5167 -1.0164
  307MOL0     H41379   6.198   6.877   2.560  0.5515 -0.6673 -1.0027
  307MOL0     H41380   6.256   6.450   2.638  0.7971  0.6472  1.5721
  307MOL0     H41381   6.137   6.512   2.750 -0.3520  0.3194 -0.6699
  307MOL0     H41382   6.006   6.358   2.618 -2.3784  0.8941 -1.3505
  307MOL0     H41383   5.982   6.519   2.567  1.4117  1.8132  0.4454
  307MOL0     H41384   6.055   6.424   2.346  2.3154 -0.0875 -0.8301
  307MOL0     H41385   6.215   6.426   2.405 -0.5846  1.9362  1.0656
  307MOL0     H41386   6.164   6.202   2.535  0.2988  1.1203  0.4301
  307MOL0     H41387   6.023   6.191   2.430 -0.7477  0.9649 -4.6302
  307MOL0     H41388   6.308   6.186   2.335 -0.2281  2.9524  0.4875
  307MOL0     H41389   6.174   6.066   2.339 -1.4725  0.6114 -3.3827
  307MOL0     H41390   6.061   6.257   2.197  0.0832  0.4413  0.1815
  307MOL0     H41391   6.240   6.285   2.145  1.4645 -2.7593 -0.7614
  307MOL0     H41392   6.156   6.123   1.988 -5.0694 -2.2302 -0.5380
  307MOL0     H41393   6.253   6.037   2.106  0.8435 -0.1106 -1.3239
  307MOL0     H41394   6.017   6.006   2.217  0.5785 -2.1476 -0.0374
  307MOL0     H41395   6.051   5.896   2.088  0.0733 -0.9718  0.8786
  307MOL0     H41396   5.930   5.986   1.856 -3.1762 -2.7584  1.6936
  307MOL0     H41397   5.664   6.261   1.776 -2.4832 -0.8407  2.2942
  307MOL0     H41398   5.790   6.158   1.687  1.1756 -2.6782  1.5523
  307MOL0     H41399   5.526   6.081   1.824  1.9664 -0.6112  2.1436
  307MOL0     H41400   5.628   5.961   1.751 -3.6995 -0.5794  0.3071
  307MOL0     H41401   5.620   6.098   1.526  0.0623 -1.0785 -1.0211
  307MOL0     H41402   5.512   6.205   1.597  1.9289  1.1027 -0.0364
  307MOL0     H41403   5.449   5.899   1.615  2.3252  1.0934  0.6956
  307MOL0     H41404   5.395   5.998   1.469 -2.0501 -0.9391  0.5577
  307MOL0     H41405   5.211   5.854   1.490 -0.8595  0.4088 -2.5665
  307MOL0     H41406   4.894   5.848   1.350  0.8021 -0.1089 -0.6882
  307MOL0     H41407   5.048   5.766   1.369 -0.8799  1.2451 -0.6888
  307MOL0     H41408   4.911   5.713   1.465  2.7549 -1.9365 -1.1062
  307MOL0     H41409   4.507   5.760   1.485 -0.6257 -1.1061  2.5285
  307MOL0     H41410   4.264   5.824   1.458  2.9167 -3.0569 -2.1172
  307MOL0     H41411   4.190   6.261   1.487  2.4159  1.1840 -2.1083
  307MOL0     H41412   4.186   6.241   1.316  1.4702 -0.8520  0.2789
  307MOL0     H41413   3.979   6.312   1.433 -2.5888 -0.3726  1.4919
  307MOL0     H41414   3.966   6.177   1.307  2.8303  0.8429 -0.8783
  307MOL0     H41415   3.961   6.140   1.610 -1.0984  0.2278 -0.0039
  307MOL0     H41416   3.952   6.013   1.490  0.1622 -0.6649  1.3764
  307MOL0     H41417   3.745   6.226   1.509  2.1765  1.3170 -0.8749
  307MOL0     H41418   3.749   6.096   1.385  0.8141 -0.2533 -1.0409
  307MOL0     H41419   3.748   6.047   1.684  0.0036  0.5042 -0.9496
  307MOL0     H41420   3.750   5.928   1.549 -3.2637  0.2622 -3.6230
  307MOL0     H41421   3.546   6.157   1.617  1.6970 -0.2058  1.2226
  307MOL0     H41422   3.529   6.060   1.474  0.7096  1.4722 -0.6704
  307MOL0     H41423   3.466   6.005   1.762  2.1282  1.4717 -0.2686
  307MOL0     H41424   3.552   5.873   1.685 -0.2967 -0.3685  1.5510
  307MOL0     H41425   3.296   6.010   1.591 -0.2728 -0.8784 -3.9094
  307MOL0     H41426   3.308   5.856   1.674  1.6308 -0.0895  0.7411
  307MOL0     H41427   4.395   6.238   1.432 -0.6748  1.0152  0.0257
  307MOL0     H41428   4.636   6.162   1.470 -0.9236  0.4668  2.9115
  307MOL0     H41429   4.893   6.147   1.713 -0.4428  0.1818 -1.4610
  307MOL0     H41430   5.142   6.185   1.730  1.3386 -0.4251 -1.1714
  307MOL0     H41431   6.375   6.563   2.799 -0.9017  1.2063  3.4996
  307MOL0     H41432   6.532   6.703   2.901 -0.5110 -0.1147  0.8009
  307MOL0     H41433   6.961   6.907   2.848  2.0402 -0.8999  1.7713
  307MOL0     H41434   7.103   7.062   2.971 -0.6525 -1.0587 -3.2053
  307MOL0     H41435   6.882   7.313   3.297 -0.6071  3.5935  0.3994
  307MOL0     H41436   7.054   7.341   3.331 -0.2015 -1.3276 -0.7981
  307MOL0     H41437   6.879   7.459   3.106 -0.1658 -0.1790  0.5515
  307MOL0     H41438   7.048   7.440   3.085 -2.0995  3.8522 -2.9007
  307MOL0     H41439   7.026   7.651   3.180 -1.6593 -0.6426 -0.9365
  307MOL0     H41440   7.082   7.564   3.311  0.6347 -1.2527 -0.8037
  307MOL0     H41441   6.805   7.688   3.215 -6.4712 -2.3440  3.4272
  307MOL0     H41442   6.896   7.716   3.358  4.3181 -1.5287 -0.1448
  307MOL0     H41443   6.660   7.401   3.505  1.5923 -1.9592 -1.3036
  307MOL0     H41444   6.763   7.181   3.203  0.3691 -1.0853  0.9994
  307MOL0     H41445   6.612   7.080   3.033  0.3935 -0.9227 -1.6803
  308MOL0     O41446   6.041   5.370  11.157 -0.1909  0.4538 -0.0626
  308MOL0     C41447   5.955   5.288  11.123 -0.0597 -0.1414  0.4219
  308MOL0     O41448   5.945   5.235  10.992 -1.0623  0.4401  0.5376
  308MOL0     C41449   6.047   5.257  10.899  0.3060  0.3468 -0.3232
  308MOL0     C41450   6.004   5.298  10.771 -0.3588  0.4225  0.6299
  308MOL0     C41451   6.093   5.284  10.667 -0.1596  0.0238 -0.2221
  308MOL0     C41452   6.222   5.229  10.687  0.8580  0.9986 -0.1614
  308MOL0     O41453   6.320   5.227  10.589  0.7828  0.0426  0.7515
  308MOL0     C41454   6.297   5.267  10.457  0.5494  0.3092  0.2065
  308MOL0     C41455   6.426   5.260  10.372 -0.6432 -0.2910  0.1777
  308MOL0     C41456   6.392   5.258  10.217 -0.4627  1.0938  0.2581
  308MOL0     C41457   6.414   5.117  10.158 -0.4349  0.3794  0.1608
  308MOL0     C41458   6.332   5.088  10.038 -0.3315 -0.0706 -0.3037
  308MOL0     C41459   6.383   5.170   9.909  1.1216 -0.2880 -0.5581
  308MOL0     C41460   6.302   5.129   9.795 -0.7648  0.1563 -0.3393
  308MOL0     C41461   6.366   5.025   9.709 -1.0204 -0.4400 -0.6313
  308MOL0     N41462   6.361   4.894   9.762 -0.3581 -0.7214  0.4756
  308MOL0     C41463   6.240   4.824   9.773  0.2823 -0.8637  0.7686
  308MOL0     C41464   6.261   4.698   9.740 -0.2702 -0.0534  0.6460
  308MOL0     C41465   6.164   4.585   9.740 -0.2057  0.4378 -0.1638
  308MOL0     C41466   6.129   4.540   9.589  0.6695  0.1784  0.9061
  308MOL0     C41467   6.008   4.452   9.588  1.2520  0.3359  0.4323
  308MOL0     C41468   5.972   4.418   9.444  0.2510  0.9283  0.0016
  308MOL0     O41469   5.898   4.518   9.379  0.0543 -0.2839 -0.5009
  308MOL0     C41470   5.962   4.606   9.293  0.3159  0.7130 -0.2082
  308MOL0     C41471   6.008   4.572   9.173 -0.6144 -0.7888  0.3877
  308MOL0     C41472   6.040   4.666   9.083  0.6786  1.1247  1.2440
  308MOL0     C41473   6.084   4.614   8.947  0.1835  0.3406  0.1840
  308MOL0     C41474   6.019   4.804   9.108  0.5896 -0.1567 -0.3254
  308MOL0     C41475   6.067   4.910   9.015  1.0405 -0.7126 -0.4672
  308MOL0     O41476   6.008   5.042   9.031  0.4474  0.2317 -0.7619
  308MOL0     C41477   6.063   5.132   8.944 -0.5979 -0.5923 -0.5961
  308MOL0     C41478   5.988   5.209   8.865  0.3376 -0.3275  0.1029
  308MOL0     C41479   6.039   5.300   8.766 -0.6235  0.0528  0.3222
  308MOL0     C41480   6.166   5.330   8.759  0.4506  0.0391  0.2102
  308MOL0     O41481   6.200   5.432   8.674  0.1497  0.7885 -0.2578
  308MOL0     C41482   6.342   5.460   8.647  1.0734  0.4194 -1.3893
  308MOL0     C41483   6.337   5.525   8.513  0.3455  0.2489 -0.0134
  308MOL0     C41484   6.273   5.671   8.521  1.0854 -0.2077 -0.5285
  308MOL0     C41485   6.300   5.742   8.391  0.1751 -0.5372  0.1717
  308MOL0     C41486   6.306   5.888   8.402 -0.5053  0.3770 -0.2875
  308MOL0     C41487   6.345   5.969   8.278 -0.6773  0.7126 -0.4646
  308MOL0     C41488   6.382   6.106   8.321 -0.1616  0.2548 -0.2833
  308MOL0     C41489   6.364   6.214   8.214  0.5435  0.1136  0.4435
  308MOL0    Cl41490   6.473   6.195   8.081 -0.2451  0.4493 -0.5422
  308MOL0     C41491   6.254   5.271   8.850 -0.2817 -0.0458 -0.8186
  308MOL0     C41492   6.198   5.174   8.938 -0.7127 -0.2192 -0.2900
  308MOL0     O41493   6.148   4.886   8.929  0.4009  0.0436 -0.8561
  308MOL0     C41494   5.967   4.838   9.236  0.1064  0.4032 -0.6703
  308MOL0     C41495   5.943   4.740   9.327 -0.5095  0.3834 -0.7121
  308MOL0     N41496   6.395   4.686   9.725  1.5490  0.2632 -0.4694
  308MOL0     N41497   6.449   4.801   9.725 -0.3974 -0.2916  0.8249
  308MOL0     C41498   6.264   5.187  10.816 -0.0119 -0.0282 -0.2527
  308MOL0     C41499   6.173   5.206  10.915 -0.1899  0.1676 -0.3550
  308MOL0     C41500   5.844   5.242  11.214  0.2919  0.1477 -0.7807
  308MOL0     C41501   5.848   5.293  11.349  0.1644  1.0315 -0.3020
  308MOL0     C41502   5.749   5.261  11.442  0.5656  0.1377 -0.1699
  308MOL0     C41503   5.636   5.195  11.405  0.7544 -0.3719  0.6457
  308MOL0     O41504   5.528   5.164  11.493  0.4297 -0.0125  0.7604
  308MOL0     C41505   5.500   5.244  11.603 -0.3797 -1.4117  0.1018
  308MOL0     C41506   5.380   5.190  11.687 -1.0211  0.6922 -0.4601
  308MOL0     C41507   5.327   5.277  11.803 -0.1712 -1.0703  1.2079
  308MOL0     C41508   5.217   5.211  11.882  0.1530 -0.2705  0.3241
  308MOL0     C41509   5.172   5.284  12.007 -0.0104 -0.2688  0.1953
  308MOL0     C41510   5.160   5.348  12.106  0.4128  0.8697  0.4143
  308MOL0     C41511   5.616   5.177  11.272  0.6365  0.4130  0.4153
  308MOL0     C41512   5.723   5.195  11.171 -0.0686 -0.1056  0.0884
  308MOL0     H41513   5.908   5.342  10.744 -0.8606 -1.7902 -1.5104
  308MOL0     H41514   6.074   5.315  10.565  0.3853 -0.0939 -0.3640
  308MOL0     H41515   6.226   5.190  10.423 -2.8795  3.3507 -0.1543
  308MOL0     H41516   6.237   5.359  10.456  0.4844  0.3408 -2.9619
  308MOL0     H41517   6.478   5.355  10.375  1.0155 -1.1957  1.8411
  308MOL0     H41518   6.496   5.183  10.405  2.9549  2.3702 -0.6365
  308MOL0     H41519   6.303   5.315  10.189 -1.7485  0.4038  2.6144
  308MOL0     H41520   6.470   5.317  10.170  0.5916 -1.1703 -1.0104
  308MOL0     H41521   6.518   5.093  10.133 -0.6129 -0.0466 -0.1739
  308MOL0     H41522   6.393   5.039  10.232  0.2057  0.7399  0.7366
  308MOL0     H41523   6.345   4.981  10.019 -2.2639 -0.6808  1.4910
  308MOL0     H41524   6.225   5.104  10.056 -0.4737 -2.3482  1.2392
  308MOL0     H41525   6.370   5.277   9.925  0.8710 -0.3900 -0.0508
  308MOL0     H41526   6.487   5.141   9.890  0.9448 -2.3444  1.2176
  308MOL0     H41527   6.206   5.094   9.834 -0.8136 -2.2690 -2.3258
  308MOL0     H41528   6.276   5.217   9.736 -0.7430 -0.5853 -1.4909
  308MOL0     H41529   6.474   5.043   9.701 -0.6705 -0.6990  2.5587
  308MOL0     H41530   6.331   5.028   9.605  3.3111  0.6215 -2.2907
  308MOL0     H41531   6.143   4.867   9.794  0.0933 -2.6849  4.2072
  308MOL0     H41532   6.202   4.495   9.788  1.3815  0.9496 -0.4131
  308MOL0     H41533   6.072   4.618   9.790 -1.0475 -3.6195  1.3356
  308MOL0     H41534   6.221   4.495   9.550  0.3484 -1.1555  1.6370
  308MOL0     H41535   6.106   4.630   9.530  0.6968  0.4882  1.3654
  308MOL0     H41536   5.919   4.501   9.628  1.9445  3.0566 -1.0821
  308MOL0     H41537   6.024   4.360   9.645 -2.2990 -2.2043 -2.2155
  308MOL0     H41538   5.910   4.328   9.449 -3.9829  3.5374 -0.6041
  308MOL0     H41539   6.057   4.384   9.384  0.6379  1.5597  0.1836
  308MOL0     H41540   6.011   4.469   9.139 -1.8037 -0.3168 -1.3377
  308MOL0     H41541   6.024   4.657   8.867 -0.0078  0.2155  0.2584
  308MOL0     H41542   6.189   4.637   8.929  0.6610 -2.0008 -0.3535
  308MOL0     H41543   6.077   4.505   8.950 -3.2053  0.4863  2.4769
  308MOL0     H41544   5.881   5.194   8.869  0.4651 -1.0514  1.6644
  308MOL0     H41545   5.971   5.356   8.702  0.4525 -0.4416 -1.2988
  308MOL0     H41546   6.382   5.527   8.724 -1.2087  0.0679  0.2176
  308MOL0     H41547   6.412   5.376   8.656  0.6861  0.1660 -0.5497
  308MOL0     H41548   6.438   5.552   8.482 -0.0725 -0.0319 -1.7063
  308MOL0     H41549   6.286   5.468   8.435 -1.1537  4.2912 -2.2913
  308MOL0     H41550   6.325   5.728   8.598 -0.0156  1.6618 -1.1150
  308MOL0     H41551   6.166   5.651   8.535  1.7540 -3.2814  1.1727
  308MOL0     H41552   6.394   5.697   8.359  0.6502  0.0222  0.7402
  308MOL0     H41553   6.231   5.722   8.309  0.5639 -0.6658 -0.1259
  308MOL0     H41554   6.383   5.902   8.478  0.2081 -2.0024 -0.4956
  308MOL0     H41555   6.213   5.926   8.447  0.7467  1.0241  1.8725
  308MOL0     H41556   6.433   5.924   8.231  0.3757  1.8579  0.3223
  308MOL0     H41557   6.260   5.973   8.210 -0.3380  0.2235 -0.9219
  308MOL0     H41558   6.488   6.103   8.349 -0.8439 -1.2030  2.6007
  308MOL0     H41559   6.311   6.130   8.401 -0.5449  3.6633 -1.4814
  308MOL0     H41560   6.372   6.315   8.257  2.1674  1.2540 -2.2946
  308MOL0     H41561   6.261   6.214   8.179  1.0122  3.2547 -1.3266
  308MOL0     H41562   6.360   5.293   8.854  0.4290 -2.5742 -2.8970
  308MOL0     H41563   6.274   5.117   8.990 -0.1362  0.6432 -0.1678
  308MOL0     H41564   5.980   4.942   9.263 -1.4670  0.4224  0.0840
  308MOL0     H41565   5.901   4.752   9.426 -4.9377 -2.1350 -1.9923
  308MOL0     H41566   6.360   5.146  10.848 -0.9885 -0.0146  3.1706
  308MOL0     H41567   6.213   5.175  11.011  3.4804  2.5485 -0.9073
  308MOL0     H41568   5.933   5.351  11.384  1.1737 -0.9289  0.6540
  308MOL0     H41569   5.759   5.291  11.545 -0.6750 -1.1052  0.3466
  308MOL0     H41570   5.596   5.252  11.654  0.1286 -2.6113 -0.6086
  308MOL0     H41571   5.472   5.342  11.565  0.3208 -0.8697  0.9397
  308MOL0     H41572   5.407   5.091  11.724 -0.4768  1.6589  1.9639
  308MOL0     H41573   5.299   5.175  11.615  0.0326 -2.7628 -1.0816
  308MOL0     H41574   5.292   5.372  11.761  3.9168 -1.2758 -3.6579
  308MOL0     H41575   5.411   5.302  11.869 -1.0246  1.6769  1.3724
  308MOL0     H41576   5.270   5.121  11.911  1.8766  0.9483  1.1095
  308MOL0     H41577   5.130   5.194  11.818 -0.8050  1.1423  1.1891
  308MOL0     H41578   5.160   5.402  12.199  2.4931  0.1643  0.8927
  308MOL0     H41579   5.521   5.129  11.249  0.5694 -0.9598  3.1032
  308MOL0     H41580   5.699   5.189  11.065 -0.1584  2.0379 -0.0579
  309MOL0     O41581   2.063   1.623   2.481  0.0636  1.0530 -0.6140
  309MOL0     C41582   2.102   1.505   2.472  0.1140  0.2713 -1.0279
  309MOL0     O41583   2.185   1.468   2.378 -0.0196 -0.0106  0.1054
  309MOL0     C41584   2.253   1.562   2.301  0.7483 -0.6669 -0.0418
  309MOL0     C41585   2.392   1.551   2.295  0.0955  0.6764  0.0704
  309MOL0     C41586   2.460   1.640   2.204  0.1211  0.3286  0.2748
  309MOL0     C41587   2.400   1.729   2.123  0.7729 -0.3995 -1.2000
  309MOL0     O41588   2.479   1.796   2.039 -0.1835 -0.2903  0.8429
  309MOL0     C41589   2.414   1.875   1.933 -0.3031 -0.5346  0.6539
  309MOL0     C41590   2.514   1.930   1.829 -0.5552  0.1601  1.0861
  309MOL0     C41591   2.456   1.964   1.690 -0.0091  0.1773  0.6064
  309MOL0     C41592   2.544   2.068   1.613 -0.4207 -0.0277  0.5204
  309MOL0     C41593   2.469   2.100   1.482 -0.4082  0.3887  0.3366
  309MOL0     C41594   2.340   2.171   1.489 -0.6496  0.6615 -0.1632
  309MOL0     C41595   2.295   2.227   1.351  0.2823  0.0969 -0.1798
  309MOL0     C41596   2.363   2.355   1.305  0.9984  0.1498 -0.6234
  309MOL0     N41597   2.334   2.386   1.160  0.8876 -0.1361 -0.1182
  309MOL0     C41598   2.373   2.308   1.056  0.2397  1.0868 -0.2119
  309MOL0     C41599   2.322   2.367   0.946  0.2646 -0.2618 -0.2758
  309MOL0     C41600   2.332   2.340   0.794  0.0110  0.3275 -0.9290
  309MOL0     C41601   2.439   2.228   0.760  0.6061 -0.0414  1.0038
  309MOL0     C41602   2.441   2.179   0.616  0.6227 -0.3854  0.1448
  309MOL0     C41603   2.537   2.069   0.605 -0.7651  0.0223 -0.9060
  309MOL0     O41604   2.484   1.949   0.662 -0.6131 -0.7839  0.1524
  309MOL0     C41605   2.571   1.836   0.657  0.4666 -0.9736  0.3464
  309MOL0     C41606   2.698   1.845   0.609  0.9204  0.2087  0.4290
  309MOL0     C41607   2.783   1.730   0.605  0.1115 -0.6056 -1.0852
  309MOL0     C41608   2.920   1.744   0.539  0.0321  0.1145 -0.1804
  309MOL0     C41609   2.729   1.604   0.653 -0.9974  0.9554  0.5414
  309MOL0     C41610   2.815   1.474   0.652  0.1901  0.4565 -0.4611
  309MOL0     O41611   2.934   1.482   0.597  0.3672 -0.3368  0.4990
  309MOL0     C41612   3.029   1.379   0.586 -0.0255 -0.9780 -0.5753
  309MOL0     C41613   3.004   1.238   0.597 -0.1842 -0.2191  0.3955
  309MOL0     C41614   3.115   1.142   0.578  0.0716 -0.9531 -0.0278
  309MOL0     C41615   3.253   1.191   0.565  0.6165  0.1875 -0.9128
  309MOL0     O41616   3.356   1.102   0.544 -0.2810  0.8038  0.7840
  309MOL0     C41617   3.458   1.088   0.651 -0.3098 -0.0597  0.5845
  309MOL0     C41618   3.601   1.079   0.583  0.1805  0.1077  0.1867
  309MOL0     C41619   3.707   1.069   0.701  0.3011 -0.4789 -1.0685
  309MOL0     C41620   3.851   1.094   0.674 -0.5245  0.1691  0.4867
  309MOL0     C41621   3.920   1.010   0.566  0.7356 -0.4078  0.4472
  309MOL0     C41622   3.901   0.860   0.588  0.3852 -0.8865 -0.2256
  309MOL0     C41623   3.962   0.757   0.486 -0.3646  0.5350 -0.1571
  309MOL0     C41624   4.092   0.799   0.422 -0.6497  0.3426  0.4008
  309MOL0    Cl41625   4.163   0.642   0.369  0.1882 -0.2559  0.1148
  309MOL0     C41626   3.270   1.331   0.573 -0.4955  0.9340  0.1121
  309MOL0     C41627   3.170   1.425   0.588  1.0844 -0.5347 -0.1971
  309MOL0     O41628   2.766   1.372   0.695  0.5786  0.2647 -0.3732
  309MOL0     C41629   2.599   1.603   0.713  1.1964  0.0307 -0.4034
  309MOL0     C41630   2.521   1.715   0.708  0.0493 -0.2903 -0.5003
  309MOL0     N41631   2.248   2.478   0.982 -0.2056 -0.2075  0.0442
  309MOL0     N41632   2.257   2.488   1.119  0.7667  0.1871  0.4346
  309MOL0     C41633   2.260   1.738   2.140 -0.6697 -0.6394 -0.3030
  309MOL0     C41634   2.182   1.663   2.228  0.3306  0.3380 -0.2458
  309MOL0     C41635   2.028   1.393   2.543  0.2918 -0.2512  0.3052
  309MOL0     C41636   2.041   1.264   2.495 -0.3706 -0.7569  0.3896
  309MOL0     C41637   1.967   1.156   2.556  0.0439 -0.2868 -0.2046
  309MOL0     C41638   1.882   1.182   2.653  0.1970  1.0527 -0.1300
  309MOL0     O41639   1.807   1.079   2.709  0.6580  0.8608  0.5848
  309MOL0     C41640   1.883   0.961   2.758 -0.0041 -0.5544 -0.1385
  309MOL0     C41641   1.845   0.854   2.660 -0.6101  0.6956  0.2805
  309MOL0     C41642   1.696   0.825   2.643 -0.1521  0.2789 -0.9040
  309MOL0     C41643   1.609   0.791   2.768 -0.4510 -1.5082 -0.5499
  309MOL0     C41644   1.658   0.659   2.821  0.0458  0.3437  0.8213
  309MOL0     C41645   1.714   0.560   2.866 -0.5660  0.9632  0.9105
  309MOL0     C41646   1.860   1.308   2.704 -0.0868 -0.7354  0.0295
  309MOL0     C41647   1.943   1.411   2.656  0.6383  0.0742 -0.4725
  309MOL0     H41648   2.444   1.472   2.347  0.9487  0.5677 -0.9288
  309MOL0     H41649   2.565   1.617   2.186 -0.3417 -0.8153 -1.0953
  309MOL0     H41650   2.346   1.809   1.878 -1.7809  0.4294  1.2810
  309MOL0     H41651   2.355   1.960   1.968  0.2213  0.8347 -1.5722
  309MOL0     H41652   2.574   2.010   1.874 -1.9656  2.0050 -0.1267
  309MOL0     H41653   2.590   1.854   1.808  2.2803  2.6430  1.6363
  309MOL0     H41654   2.436   1.885   1.617  0.9354 -0.6965  1.2613
  309MOL0     H41655   2.358   2.010   1.706  0.4461  1.3878 -0.0490
  309MOL0     H41656   2.568   2.158   1.670 -2.5005  1.4801 -0.8514
  309MOL0     H41657   2.637   2.014   1.596  0.0145  0.4830  1.2290
  309MOL0     H41658   2.535   2.148   1.409  0.1592 -1.3641 -0.3475
  309MOL0     H41659   2.443   2.007   1.431  0.0236 -1.6427  3.5059
  309MOL0     H41660   2.259   2.114   1.535 -1.8410  2.4475  0.0619
  309MOL0     H41661   2.356   2.257   1.555  1.1759 -0.9077  1.5743
  309MOL0     H41662   2.324   2.148   1.281 -0.7099 -0.4393 -0.0073
  309MOL0     H41663   2.187   2.240   1.347  0.4250  1.1833 -1.4572
  309MOL0     H41664   2.471   2.345   1.318  0.6618 -1.9914  1.2095
  309MOL0     H41665   2.322   2.440   1.361  0.0073 -0.1449 -0.8763
  309MOL0     H41666   2.427   2.216   1.074  1.2833  1.8799  0.9177
  309MOL0     H41667   2.231   2.325   0.753 -0.5925  0.0834  0.5843
  309MOL0     H41668   2.370   2.435   0.755  0.0791  0.4903 -0.4630
  309MOL0     H41669   2.425   2.143   0.827  1.5115 -0.2051  1.0052
  309MOL0     H41670   2.536   2.274   0.783  1.2435  0.3099 -1.9581
  309MOL0     H41671   2.459   2.265   0.551 -2.5441  1.6925  1.7054
  309MOL0     H41672   2.350   2.126   0.585  1.5702 -2.5789  0.9161
  309MOL0     H41673   2.627   2.103   0.657 -1.5313 -2.1907  2.1271
  309MOL0     H41674   2.557   2.054   0.498 -1.3999  0.6711 -1.1274
  309MOL0     H41675   2.738   1.943   0.586 -2.5122  1.8293  0.7466
  309MOL0     H41676   2.926   1.690   0.444 -0.7997  0.1610 -0.2680
  309MOL0     H41677   2.939   1.851   0.524 -1.1098  0.2445 -0.7936
  309MOL0     H41678   3.004   1.711   0.601 -0.7224 -3.3076 -0.7537
  309MOL0     H41679   2.906   1.204   0.629 -0.0119 -1.4464 -0.2971
  309MOL0     H41680   3.107   1.035   0.568  2.0353 -1.0519 -1.1242
  309MOL0     H41681   3.450   1.166   0.727 -0.0958  1.1918 -0.6272
  309MOL0     H41682   3.429   0.992   0.695 -2.5066 -0.0082 -0.5627
  309MOL0     H41683   3.611   0.988   0.523  4.8977 -0.0338  0.7904
  309MOL0     H41684   3.627   1.171   0.530  1.2822  0.0462  0.5974
  309MOL0     H41685   3.683   0.969   0.741 -2.7627  0.8086  0.7291
  309MOL0     H41686   3.690   1.143   0.780  0.0456 -0.7982 -0.8203
  309MOL0     H41687   3.866   1.200   0.653 -0.2561  0.1412  0.5352
  309MOL0     H41688   3.908   1.076   0.766  0.3439 -0.8100 -0.2344
  309MOL0     H41689   4.024   1.038   0.577  0.0433  1.4517  2.9976
  309MOL0     H41690   3.897   1.044   0.465  4.8070  1.4290 -0.0136
  309MOL0     H41691   3.936   0.840   0.689  2.2237  3.3492  0.2092
  309MOL0     H41692   3.793   0.842   0.580 -0.0885  1.5778 -0.4065
  309MOL0     H41693   3.895   0.720   0.408  2.4498 -2.0541 -1.6038
  309MOL0     H41694   3.978   0.665   0.543  0.3311  0.5915 -0.2508
  309MOL0     H41695   4.155   0.857   0.490  3.6113  0.7291 -3.4171
  309MOL0     H41696   4.064   0.873   0.347 -0.0252 -0.2580 -0.4468
  309MOL0     H41697   3.371   1.363   0.547 -0.2493 -0.8355 -1.3122
  309MOL0     H41698   3.193   1.531   0.588  2.4637 -0.8019 -0.8810
  309MOL0     H41699   2.552   1.511   0.747 -0.9145  0.9328 -0.7075
  309MOL0     H41700   2.424   1.699   0.754  0.5411  0.6360  0.9143
  309MOL0     H41701   2.222   1.823   2.084  0.6634 -0.5870 -1.1697
  309MOL0     H41702   2.074   1.673   2.242  0.0649 -4.0728  2.7120
  309MOL0     H41703   2.097   1.241   2.405  1.0407  1.8040  0.5206
  309MOL0     H41704   1.989   1.056   2.520 -1.0413 -0.6073 -0.0360
  309MOL0     H41705   1.988   0.991   2.770 -1.2336  3.8495  1.7035
  309MOL0     H41706   1.850   0.938   2.860  1.7688 -1.0820  0.3516
  309MOL0     H41707   1.903   0.767   2.694  2.8664  1.9155 -1.9646
  309MOL0     H41708   1.886   0.878   2.562  2.2995 -1.7731  0.7338
  309MOL0     H41709   1.685   0.746   2.568  1.9044 -1.6953  0.7361
  309MOL0     H41710   1.651   0.918   2.607 -0.0363 -0.7287 -3.9830
  309MOL0     H41711   1.503   0.791   2.745 -0.9331  1.0809  1.2017
  309MOL0     H41712   1.618   0.873   2.841 -0.3765 -1.0904 -1.0199
  309MOL0     H41713   1.771   0.474   2.895  0.9915  1.6475  0.0162
  309MOL0     H41714   1.789   1.323   2.785 -1.1360  0.0076 -1.0039
  309MOL0     H41715   1.945   1.502   2.715  0.8019 -1.6348  2.3824
  310MOL0     O41716   4.620  10.738  10.491 -0.0548  0.5156 -0.7309
  310MOL0     C41717   4.558  10.841  10.534  0.1833  0.0482  0.5286
  310MOL0     O41718   4.487  10.925  10.459  0.7863  0.3833  0.5500
  310MOL0     C41719   4.451  10.884  10.334  0.5869  0.4169 -0.7905
  310MOL0     C41720   4.370  10.772  10.310  0.2249 -0.4727  0.5721
  310MOL0     C41721   4.319  10.758  10.175  0.1100 -0.7129  0.8915
  310MOL0     C41722   4.355  10.848  10.073  0.4211 -1.0669 -0.0318
  310MOL0     O41723   4.283  10.869   9.955  0.1547 -0.1524  0.7987
  310MOL0     C41724   4.161  10.795   9.936  0.6023  0.5468 -0.6713
  310MOL0     C41725   4.116  10.830   9.796 -0.1684  0.7574  0.0506
  310MOL0     C41726   4.012  10.945   9.796 -0.4188 -0.2600  0.2211
  310MOL0     C41727   3.993  10.993   9.652 -0.1499  0.0016 -0.0470
  310MOL0     C41728   3.908  11.128   9.637 -0.2290  0.2617  0.0336
  310MOL0     C41729   3.879  11.187   9.495 -0.7784 -0.6618  0.2342
  310MOL0     C41730   4.006  11.178   9.408 -0.3678  0.3436  0.2081
  310MOL0     C41731   4.105  11.276   9.456 -0.3157 -0.9908 -0.3190
  310MOL0     N41732   4.225  11.279   9.382 -0.4738  0.2331  0.1050
  310MOL0     C41733   4.258  11.368   9.279 -0.0497  0.2079 -0.0316
  310MOL0     C41734   4.387  11.341   9.250 -0.1441 -0.1832 -0.3708
  310MOL0     C41735   4.453  11.425   9.146  0.1330  0.3711  0.4285
  310MOL0     C41736   4.426  11.404   8.993 -0.0638 -0.3931 -0.2256
  310MOL0     C41737   4.458  11.264   8.948 -1.0937 -0.2155  0.3648
  310MOL0     C41738   4.475  11.245   8.805  0.0856  0.0998 -0.6965
  310MOL0     O41739   4.364  11.298   8.719 -0.2552  0.1329 -0.8405
  310MOL0     C41740   4.403  11.317   8.588  0.8878  0.1265 -0.8238
  310MOL0     C41741   4.488  11.233   8.519  0.7087  0.0786  0.1349
  310MOL0     C41742   4.535  11.260   8.386  0.5448  0.1204 -0.0392
  310MOL0     C41743   4.628  11.170   8.323  0.2857  0.2993 -1.4938
  310MOL0     C41744   4.478  11.368   8.313 -0.6598  0.4736 -0.5895
  310MOL0     C41745   4.508  11.406   8.171  0.6462  0.7465  0.0852
  310MOL0     O41746   4.568  11.534   8.155 -0.4804  0.1519  0.7983
  310MOL0     C41747   4.631  11.569   8.037 -0.5233 -0.1736  0.5739
  310MOL0     C41748   4.684  11.481   7.939 -0.5881 -0.7637 -0.7553
  310MOL0     C41749   4.746  11.533   7.828 -0.9339  0.6534 -0.3844
  310MOL0     C41750   4.758  11.665   7.804 -0.7518  0.1524  0.5495
  310MOL0     O41751   4.806  11.700   7.681 -0.7464 -0.2860  0.4206
  310MOL0     C41752   4.893  11.815   7.655  0.7541  0.5184 -0.1024
  310MOL0     C41753   4.931  11.822   7.502 -0.9708 -0.5841 -0.7901
  310MOL0     C41754   5.030  11.935   7.482 -0.4167  0.2196  0.5378
  310MOL0     C41755   5.105  11.917   7.334 -0.2828 -0.1694 -0.3121
  310MOL0     C41756   5.212  12.028   7.326  0.3042  0.1030  0.0770
  310MOL0     C41757   5.293  12.023   7.203  0.0802  1.1766 -0.9550
  310MOL0     C41758   5.422  12.105   7.224 -0.2382  0.5587  0.4220
  310MOL0     C41759   5.490  12.136   7.090  0.6527 -0.3076  0.7074
  310MOL0    Cl41760   5.576  12.302   7.107  0.3193  0.2427 -0.0473
  310MOL0     C41761   4.721  11.758   7.903  0.6591  0.2729 -0.2621
  310MOL0     C41762   4.661  11.707   8.026  0.2155  0.1681 -0.0554
  310MOL0     O41763   4.463  11.330   8.080  0.9937 -0.1714  0.0180
  310MOL0     C41764   4.392  11.451   8.379  0.4931 -0.1267  1.0728
  310MOL0     C41765   4.347  11.421   8.508 -0.4346 -0.7710  0.0911
  310MOL0     N41766   4.435  11.241   9.324  0.7893 -0.7469  0.0180
  310MOL0     N41767   4.335  11.204   9.407 -0.1487 -0.1908 -0.1937
  310MOL0     C41768   4.446  10.953  10.106  0.0216 -0.8824  1.1452
  310MOL0     C41769   4.488  10.970  10.237  0.0463 -0.1979  0.9561
  310MOL0     C41770   4.560  10.882  10.680 -0.2288  0.2341 -0.5209
  310MOL0     C41771   4.483  10.989  10.725  0.2061  0.3054 -0.1098
  310MOL0     C41772   4.480  11.012  10.860  0.4387 -0.2480 -0.2124
  310MOL0     C41773   4.560  10.936  10.961  0.5650  0.2531  0.6744
  310MOL0     O41774   4.553  10.966  11.092  0.5971 -0.4695 -0.0318
  310MOL0     C41775   4.662  10.933  11.177  0.4105  0.4704  0.2319
  310MOL0     C41776   4.640  11.013  11.299 -0.3716 -0.0585  0.2454
  310MOL0     C41777   4.512  11.003  11.377 -0.7197  0.3273  0.1912
  310MOL0     C41778   4.495  11.088  11.497 -1.1810 -0.0799  0.7646
  310MOL0     C41779   4.594  11.064  11.597 -0.1665  0.0044  0.3213
  310MOL0     C41780   4.672  11.025  11.688 -0.7764 -0.6359 -0.6693
  310MOL0     C41781   4.621  10.820  10.912 -0.7744 -0.3216  0.1565
  310MOL0     C41782   4.628  10.801  10.775 -0.1049  1.0074 -0.3296
  310MOL0     H41783   4.323  10.706  10.382 -2.6787  2.8007  1.9735
  310MOL0     H41784   4.235  10.692  10.158 -2.5075  2.4914  0.4501
  310MOL0     H41785   4.162  10.686   9.932  0.2051  0.4847  0.4051
  310MOL0     H41786   4.087  10.822  10.012 -0.0909 -4.5919  0.8180
  310MOL0     H41787   4.201  10.862   9.734 -1.4444 -0.3240 -2.4372
  310MOL0     H41788   4.068  10.743   9.748  1.9159  0.7636 -2.2345
  310MOL0     H41789   3.919  10.911   9.843 -2.9899 -0.2653 -4.2761
  310MOL0     H41790   4.041  11.029   9.858 -2.2827 -0.4873  1.4954
  310MOL0     H41791   4.093  11.001   9.609 -0.9703 -3.4128 -3.1949
  310MOL0     H41792   3.948  10.922   9.581  0.2101  0.0398 -0.3192
  310MOL0     H41793   3.815  11.110   9.692  0.8044  0.2818  1.8983
  310MOL0     H41794   3.969  11.205   9.686 -1.2634  2.8139 -2.4339
  310MOL0     H41795   3.803  11.128   9.442  0.1790 -1.4811 -0.2587
  310MOL0     H41796   3.841  11.290   9.501 -0.7084 -0.5728 -0.6222
  310MOL0     H41797   4.050  11.079   9.421  0.4164  0.6565 -0.0085
  310MOL0     H41798   3.981  11.172   9.302 -0.6059  1.7129  0.1747
  310MOL0     H41799   4.131  11.255   9.560  0.0573 -0.3099 -0.2720
  310MOL0     H41800   4.050  11.371   9.457 -0.4123 -1.0491  0.2279
  310MOL0     H41801   4.198  11.452   9.245  0.4653  0.3218 -0.6543
  310MOL0     H41802   4.441  11.533   9.158  1.4676  0.5352  0.5223
  310MOL0     H41803   4.560  11.419   9.168  0.4240 -2.7718 -1.3463
  310MOL0     H41804   4.482  11.482   8.941 -3.2800  1.4033 -1.2815
  310MOL0     H41805   4.317  11.409   8.987 -0.5139 -4.4304  1.4273
  310MOL0     H41806   4.387  11.194   8.994 -2.5266  1.3787  0.6603
  310MOL0     H41807   4.555  11.239   8.992 -0.3964  0.0078 -1.0018
  310MOL0     H41808   4.497  11.139   8.790 -0.4540 -0.1259  0.0108
  310MOL0     H41809   4.560  11.309   8.779  1.2615  0.1924  2.8857
  310MOL0     H41810   4.508  11.132   8.552 -2.8202 -0.1903  1.9174
  310MOL0     H41811   4.569  11.081   8.302 -1.6298  0.7065  1.5162
  310MOL0     H41812   4.674  11.209   8.231  4.1363  0.9013  0.4889
  310MOL0     H41813   4.704  11.156   8.400 -0.6519  1.8977 -0.2051
  310MOL0     H41814   4.685  11.375   7.965 -0.4755 -0.2404  1.6316
  310MOL0     H41815   4.777  11.459   7.754  0.2016  1.2085 -0.4860
  310MOL0     H41816   4.840  11.910   7.664 -2.6519 -1.2684  0.8061
  310MOL0     H41817   4.976  11.818   7.726 -0.3047  2.2891  1.1570
  310MOL0     H41818   4.983  11.729   7.474  1.2296 -0.0862  1.3057
  310MOL0     H41819   4.841  11.836   7.442 -0.0470  1.5521 -1.7664
  310MOL0     H41820   5.114  11.929   7.552 -0.0644  2.0171  0.3089
  310MOL0     H41821   4.974  12.028   7.496  2.0819  1.5650  2.3913
  310MOL0     H41822   5.163  11.825   7.334  0.9149  0.5440  0.9241
  310MOL0     H41823   5.036  11.910   7.249  1.3824 -1.0346 -1.6667
  310MOL0     H41824   5.267  12.008   7.419  0.8085 -1.3704 -0.5097
  310MOL0     H41825   5.177  12.131   7.337 -1.7240 -0.5850  0.4717
  310MOL0     H41826   5.302  11.916   7.185 -4.5316 -0.1768  2.9461
  310MOL0     H41827   5.242  12.051   7.110 -1.3366 -1.4781 -1.0625
  310MOL0     H41828   5.488  12.054   7.295 -2.1772 -0.9359  1.2294
  310MOL0     H41829   5.387  12.202   7.262 -0.4401  1.2261 -1.3873
  310MOL0     H41830   5.422  12.143   7.005  0.1532 -1.8030  0.9559
  310MOL0     H41831   5.563  12.059   7.064  1.4795  0.4575  0.7067
  310MOL0     H41832   4.725  11.864   7.882 -1.5175  0.4659  0.0378
  310MOL0     H41833   4.643  11.773   8.111 -4.1535  1.8641 -1.9810
  310MOL0     H41834   4.353  11.533   8.320 -1.1607 -2.8596 -1.9771
  310MOL0     H41835   4.275  11.486   8.557 -1.1541 -0.1351 -1.7223
  310MOL0     H41836   4.465  11.022  10.024  0.2918  0.2470  2.1324
  310MOL0     H41837   4.550  11.058  10.255  1.2556 -0.8160 -0.0552
  310MOL0     H41838   4.413  11.040  10.660 -2.3672 -0.3249  2.0194
  310MOL0     H41839   4.417  11.087  10.905  0.2011 -1.9178  2.4692
  310MOL0     H41840   4.660  10.829  11.211  1.3489  0.6001  0.6942
  310MOL0     H41841   4.761  10.942  11.133  1.2886 -4.7915  0.5034
  310MOL0     H41842   4.645  11.115  11.259  1.2196 -0.7970 -1.5760
  310MOL0     H41843   4.726  10.988  11.362 -2.0824 -2.3128  1.8332
  310MOL0     H41844   4.515  10.901  11.418 -3.8927  0.0306 -0.0839
  310MOL0     H41845   4.419  11.014  11.321 -0.2140  2.7250 -0.2779
  310MOL0     H41846   4.395  11.057  11.532 -1.5453 -0.8596 -0.8897
  310MOL0     H41847   4.499  11.195  11.475 -0.0573 -0.5136 -1.3267
  310MOL0     H41848   4.747  11.000  11.761 -0.7537 -1.1859 -0.8789
  310MOL0     H41849   4.665  10.746  10.979 -1.3179 -1.0975 -0.3266
  310MOL0     H41850   4.687  10.720  10.734 -0.1115  0.6807  0.2869
  311MOL0     O41851   3.353   5.248   3.812  0.9599 -0.0770 -0.8995
  311MOL0     C41852   3.397   5.134   3.809  0.6064 -0.6134 -0.1869
  311MOL0     O41853   3.514   5.090   3.859  0.8346  0.0414 -0.0983
  311MOL0     C41854   3.634   5.164   3.856  0.0559  0.1726  0.0165
  311MOL0     C41855   3.737   5.084   3.894 -0.6591  0.4927  0.4252
  311MOL0     C41856   3.868   5.138   3.890 -0.4590 -0.1538  0.2878
  311MOL0     C41857   3.888   5.263   3.830 -0.1799 -1.0728 -0.2103
  311MOL0     O41858   4.018   5.300   3.815 -0.0216  0.1525 -0.1127
  311MOL0     C41859   4.047   5.438   3.866 -0.7162 -0.2061  0.9905
  311MOL0     C41860   4.205   5.453   3.869 -0.9825  0.9840 -0.8911
  311MOL0     C41861   4.272   5.353   3.961 -0.3540  0.4802  0.9539
  311MOL0     C41862   4.252   5.387   4.106  0.5620  0.5819  0.6926
  311MOL0     C41863   4.256   5.275   4.215 -0.3873 -0.4066  0.7577
  311MOL0     C41864   4.115   5.214   4.235  0.6182 -0.4979 -0.4164
  311MOL0     C41865   4.106   5.136   4.367 -0.5363 -0.1571 -0.7498
  311MOL0     C41866   4.117   4.985   4.352 -0.1989 -0.0285 -0.1646
  311MOL0     N41867   4.001   4.941   4.273  0.3253 -0.2448 -0.8336
  311MOL0     C41868   3.882   4.911   4.330 -0.1048 -0.0760 -1.3566
  311MOL0     C41869   3.803   4.876   4.229 -0.2219  0.2507 -0.9132
  311MOL0     C41870   3.654   4.841   4.240 -0.3688  0.2191  0.4984
  311MOL0     C41871   3.642   4.694   4.288  0.9200  0.0532  0.9392
  311MOL0     C41872   3.502   4.636   4.257 -0.1127  0.3599  1.2098
  311MOL0     C41873   3.495   4.591   4.102  0.7994  0.4507 -0.6198
  311MOL0     O41874   3.368   4.550   4.054 -0.2736 -0.2501 -0.2265
  311MOL0     C41875   3.322   4.418   4.063  0.0978 -0.7553 -0.2700
  311MOL0     C41876   3.388   4.322   4.139 -0.1458 -0.3495 -0.7313
  311MOL0     C41877   3.348   4.192   4.138  0.3737  0.8440 -0.1795
  311MOL0     C41878   3.441   4.093   4.202  0.4048 -0.2956 -0.0613
  311MOL0     C41879   3.222   4.158   4.070  0.8074 -0.1202 -0.4909
  311MOL0     C41880   3.160   4.023   4.079  0.3013  0.8784  0.8197
  311MOL0     O41881   3.059   4.004   4.002 -0.2111  0.1528 -0.0132
  311MOL0     C41882   2.995   3.884   3.978 -1.1955  0.1710 -0.3919
  311MOL0     C41883   2.958   3.856   3.850  0.9756 -0.3896 -0.4457
  311MOL0     C41884   2.869   3.756   3.816  0.3357  0.3164 -0.5252
  311MOL0     C41885   2.832   3.655   3.902  0.6950 -0.7625  0.2043
  311MOL0     O41886   2.751   3.550   3.869  0.2958 -0.4885 -0.0148
  311MOL0     C41887   2.683   3.471   3.962  0.3619  0.3960  0.4503
  311MOL0     C41888   2.570   3.540   4.035  0.5507 -0.9220 -0.1374
  311MOL0     C41889   2.435   3.561   3.947  0.0496 -0.4123 -0.0419
  311MOL0     C41890   2.430   3.687   3.851 -0.3683 -0.1889 -0.8223
  311MOL0     C41891   2.302   3.695   3.762  0.0371 -0.4462 -0.1385
  311MOL0     C41892   2.160   3.707   3.827 -0.6722  0.0816 -0.9473
  311MOL0     C41893   2.149   3.810   3.936  0.4441 -0.7762  0.7662
  311MOL0     C41894   2.008   3.829   3.967  0.1356  0.5358 -1.0785
  311MOL0    Cl41895   1.919   3.955   3.860 -0.4767 -0.3483  0.4632
  311MOL0     C41896   2.880   3.680   4.037  0.6379  0.1306 -0.6047
  311MOL0     C41897   2.952   3.792   4.080  0.0124 -0.0032 -1.6799
  311MOL0     O41898   3.199   3.943   4.168  0.7699 -0.5921  0.3176
  311MOL0     C41899   3.139   4.256   4.022 -0.5580 -0.2261 -0.5771
  311MOL0     C41900   3.198   4.385   4.012 -0.2484  0.8673  0.3977
  311MOL0     N41901   3.889   4.876   4.117 -0.2231 -0.1755  0.3311
  311MOL0     N41902   4.002   4.914   4.146 -0.1415  0.2415  0.0915
  311MOL0     C41903   3.788   5.342   3.784  0.1409 -0.4648 -0.0531
  311MOL0     C41904   3.653   5.285   3.789 -0.3924 -0.3082 -0.5066
  311MOL0     C41905   3.313   5.023   3.769 -0.6841 -0.6769  0.3952
  311MOL0     C41906   3.206   5.039   3.676 -0.4182  0.2922  1.3533
  311MOL0     C41907   3.143   4.928   3.610  1.0591 -0.1803 -0.1301
  311MOL0     C41908   3.176   4.809   3.653 -0.3044 -1.0977 -0.6635
  311MOL0     O41909   3.117   4.688   3.616  0.4543 -0.2855  0.0808
  311MOL0     C41910   3.052   4.681   3.482  0.6409  0.3665 -0.1204
  311MOL0     C41911   2.909   4.739   3.477 -0.1805 -0.5739 -0.6296
  311MOL0     C41912   2.858   4.792   3.335  0.2627 -0.4563 -0.5277
  311MOL0     C41913   2.717   4.860   3.346 -0.7465  0.4107  0.0937
  311MOL0     C41914   2.727   4.994   3.408 -0.8723 -0.3498  0.0096
  311MOL0     C41915   2.744   5.098   3.480  0.5705 -0.2329 -0.7184
  311MOL0     C41916   3.264   4.787   3.758  0.2956 -0.9399  0.4309
  311MOL0     C41917   3.336   4.895   3.810  0.8154 -0.6783  0.3368
  311MOL0     H41918   3.708   4.990   3.941 -0.8996 -0.0327 -0.7507
  311MOL0     H41919   3.948   5.083   3.939  0.6590  0.8692 -0.3424
  311MOL0     H41920   4.006   5.519   3.805 -0.8472 -0.9877  0.0181
  311MOL0     H41921   4.005   5.444   3.966 -1.1175 -3.1548  1.0917
  311MOL0     H41922   4.236   5.418   3.770 -0.2095  0.3694 -0.4409
  311MOL0     H41923   4.244   5.552   3.892 -0.3882  0.7891 -1.0484
  311MOL0     H41924   4.234   5.252   3.941  3.6074 -0.9143 -0.5355
  311MOL0     H41925   4.379   5.346   3.939 -0.4217  0.9069  0.4748
  311MOL0     H41926   4.329   5.456   4.142 -0.9457  2.5360  0.3746
  311MOL0     H41927   4.176   5.461   4.131  2.0529  1.3036  3.5789
  311MOL0     H41928   4.324   5.193   4.190 -0.9728 -2.2305  4.5121
  311MOL0     H41929   4.305   5.316   4.303  1.3685  1.6329 -1.0439
  311MOL0     H41930   4.041   5.293   4.253  1.0443  0.0415 -1.0025
  311MOL0     H41931   4.062   5.158   4.158 -4.7196 -0.1997  2.5642
  311MOL0     H41932   4.184   5.175   4.433 -1.8225  2.5086 -0.6713
  311MOL0     H41933   4.011   5.147   4.420 -0.1103  0.0140 -0.0179
  311MOL0     H41934   4.127   4.939   4.451  2.3865  2.7395  1.0311
  311MOL0     H41935   4.207   4.964   4.292 -3.3330  0.8820 -5.9041
  311MOL0     H41936   3.846   4.927   4.431 -1.3818 -2.8607 -1.2681
  311MOL0     H41937   3.600   4.903   4.312 -1.5075 -1.3232  1.0262
  311MOL0     H41938   3.602   4.858   4.146  2.2633 -0.2186 -1.1434
  311MOL0     H41939   3.646   4.673   4.395 -0.6538 -0.7354  0.8731
  311MOL0     H41940   3.728   4.649   4.237  0.6456 -0.1940  0.6937
  311MOL0     H41941   3.416   4.697   4.285 -1.4105  0.6187 -2.7391
  311MOL0     H41942   3.500   4.548   4.322  2.2362  0.0166  0.9169
  311MOL0     H41943   3.574   4.521   4.071  0.0006 -0.1265 -1.3998
  311MOL0     H41944   3.516   4.675   4.035 -1.0868 -0.0642 -1.9314
  311MOL0     H41945   3.484   4.341   4.186  2.3505 -1.9515 -4.6642
  311MOL0     H41946   3.429   4.087   4.311  1.0781  2.2996  0.2309
  311MOL0     H41947   3.418   3.996   4.158 -5.0413  1.9449 -3.2895
  311MOL0     H41948   3.548   4.114   4.196  0.6833 -1.7918 -0.7715
  311MOL0     H41949   3.007   3.913   3.772 -0.4475 -0.0907 -1.1608
  311MOL0     H41950   2.837   3.739   3.714  0.9491 -1.8306 -0.3951
  311MOL0     H41951   2.645   3.381   3.913  0.3592  0.1705  0.8593
  311MOL0     H41952   2.756   3.429   4.031  0.2427 -0.9959 -0.2395
  311MOL0     H41953   2.535   3.477   4.117  1.3639 -1.5674 -0.2724
  311MOL0     H41954   2.609   3.634   4.075 -1.7739 -1.5433  4.2065
  311MOL0     H41955   2.348   3.557   4.012 -0.2031 -1.5415 -0.4344
  311MOL0     H41956   2.431   3.467   3.892 -0.9070  0.0603 -0.8068
  311MOL0     H41957   2.426   3.778   3.912 -1.1379  2.3617 -4.3291
  311MOL0     H41958   2.520   3.690   3.788 -1.5321  0.3311 -2.5229
  311MOL0     H41959   2.300   3.609   3.694  0.0559  1.4826 -2.7364
  311MOL0     H41960   2.318   3.772   3.686  1.1836  0.5952  1.1253
  311MOL0     H41961   2.078   3.727   3.757 -2.0680  1.8672  1.0787
  311MOL0     H41962   2.132   3.609   3.868 -1.4612  0.7028  0.0521
  311MOL0     H41963   2.201   3.906   3.922 -1.7715  0.5125  0.9247
  311MOL0     H41964   2.193   3.773   4.029 -2.7235  2.2477  3.7459
  311MOL0     H41965   2.002   3.859   4.072 -1.4094 -1.5905 -0.4747
  311MOL0     H41966   1.944   3.740   3.968  1.3419 -0.3556 -0.8118
  311MOL0     H41967   2.847   3.614   4.116 -1.0736 -0.5640 -1.8381
  311MOL0     H41968   2.967   3.803   4.187 -1.4544 -1.2383 -1.3071
  311MOL0     H41969   3.043   4.243   3.973 -0.5368 -1.4502 -0.3326
  311MOL0     H41970   3.145   4.461   3.956 -2.4244  0.6576  2.0001
  311MOL0     H41971   3.802   5.437   3.735 -1.9221 -0.7323 -1.2816
  311MOL0     H41972   3.576   5.352   3.752 -0.5337 -0.7575 -1.0414
  311MOL0     H41973   3.173   5.137   3.641  1.2009 -0.8114 -4.4598
  311MOL0     H41974   3.068   4.939   3.532  1.3585 -2.7900 -0.9018
  311MOL0     H41975   3.114   4.728   3.405  2.7779 -2.4136 -0.2797
  311MOL0     H41976   3.043   4.580   3.440 -0.0484  1.4833 -2.8705
  311MOL0     H41977   2.895   4.823   3.546  1.9782 -0.7184  0.0615
  311MOL0     H41978   2.841   4.667   3.522 -1.2024 -0.2490 -1.6224
  311MOL0     H41979   2.860   4.710   3.263  3.5758 -1.6285  0.6966
  311MOL0     H41980   2.922   4.873   3.298 -1.4729  0.3797 -1.8094
  311MOL0     H41981   2.650   4.798   3.407 -2.8288 -1.1821 -3.4250
  311MOL0     H41982   2.668   4.863   3.248 -0.7317 -1.9449 -0.0580
  311MOL0     H41983   2.756   5.180   3.548  2.8512 -1.2657  0.2378
  311MOL0     H41984   3.283   4.693   3.807 -1.9479 -2.7571 -1.8809
  311MOL0     H41985   3.404   4.875   3.891  0.1889  0.5002  1.1845
  312MOL0     O41986   6.755  11.206  10.368 -0.5320 -0.1616 -0.4969
  312MOL0     C41987   6.710  11.174  10.266  0.0110 -0.0770  1.0630
  312MOL0     O41988   6.778  11.113  10.163  0.6195 -0.1075  0.0554
  312MOL0     C41989   6.905  11.059  10.187  0.9529  0.1839 -0.7793
  312MOL0     C41990   6.941  10.989  10.301  0.0789  0.3020  0.7981
  312MOL0     C41991   7.060  10.917  10.313 -0.3575  0.3642 -0.5615
  312MOL0     C41992   7.139  10.910  10.194 -0.2365 -0.6736  0.1397
  312MOL0     O41993   7.264  10.842  10.188  1.0160 -0.5157  1.0344
  312MOL0     C41994   7.260  10.703  10.125  0.2553 -0.9005 -0.0121
  312MOL0     C41995   7.402  10.663  10.086 -0.4923 -0.6723  0.1027
  312MOL0     C41996   7.499  10.634  10.197  0.7378  0.0258 -0.2705
  312MOL0     C41997   7.470  10.494  10.257  0.8702  0.3179 -0.0680
  312MOL0     C41998   7.567  10.459  10.377  0.3875  0.7128 -0.6290
  312MOL0     C41999   7.511  10.346  10.463 -0.2211  0.4317 -0.2804
  312MOL0     C42000   7.604  10.327  10.588 -0.2097 -0.2074 -0.0836
  312MOL0     C42001   7.524  10.311  10.714 -0.0461 -0.0610  0.3724
  312MOL0     N42002   7.445  10.186  10.729 -0.1562  0.9657 -0.1160
  312MOL0     C42003   7.339  10.134  10.660 -0.4036 -0.2455 -0.2243
  312MOL0     C42004   7.331  10.001  10.699  0.1269 -0.0989 -0.7643
  312MOL0     C42005   7.283   9.882  10.616  0.2939 -0.1822 -0.0558
  312MOL0     C42006   7.248   9.928  10.484  0.5192  0.4633 -0.3523
  312MOL0     C42007   7.218   9.815  10.398 -0.2161  1.1789 -1.1237
  312MOL0     C42008   7.173   9.842  10.259 -0.0033  0.2734 -0.0044
  312MOL0     O42009   7.053   9.920  10.261 -1.1069 -0.4808  0.2193
  312MOL0     C42010   7.056  10.040  10.195 -0.2274  0.6352 -0.0285
  312MOL0     C42011   7.175  10.115  10.148  0.0957  0.1264 -0.1288
  312MOL0     C42012   7.156  10.229  10.071  0.6480  0.7996 -0.6026
  312MOL0     C42013   7.289  10.291  10.026  0.1246  0.1560  0.0438
  312MOL0     C42014   7.024  10.274  10.033 -1.4823 -0.4758 -0.0391
  312MOL0     C42015   6.998  10.390   9.943  0.9706  0.8758  0.3105
  312MOL0     O42016   6.862  10.436   9.938  0.6937 -0.3681  0.1377
  312MOL0     C42017   6.848  10.568   9.895  0.9743  0.3968 -0.4633
  312MOL0     C42018   6.830  10.677   9.983  0.0932  0.1216 -1.1285
  312MOL0     C42019   6.808  10.806   9.931 -1.0460  0.0628  0.2082
  312MOL0     C42020   6.810  10.820   9.791  1.8108 -0.6734  0.2491
  312MOL0     O42021   6.770  10.946   9.754 -0.3729 -0.1829  0.1387
  312MOL0     C42022   6.647  10.962   9.679 -0.2199 -0.2654  0.5056
  312MOL0     C42023   6.542  11.049   9.748  0.7884 -0.0440  0.3849
  312MOL0     C42024   6.394  11.034   9.688 -0.5482 -0.0338 -0.1350
  312MOL0     C42025   6.367  11.121   9.563  0.4473 -0.3809 -0.0820
  312MOL0     C42026   6.311  11.258   9.598 -0.1962  0.1817  0.8340
  312MOL0     C42027   6.195  11.256   9.694  0.1558 -0.5079  0.3397
  312MOL0     C42028   6.155  11.405   9.729 -0.8934  0.4837  0.9809
  312MOL0     C42029   6.009  11.436   9.757 -0.2968  0.3748 -0.1730
  312MOL0    Cl42030   5.923  11.405   9.595 -0.0519 -0.2692 -0.3823
  312MOL0     C42031   6.844  10.722   9.706 -0.5797  0.7032  0.3022
  312MOL0     C42032   6.852  10.581   9.757 -0.2402  0.4188  0.3407
  312MOL0     O42033   7.095  10.438   9.879 -0.4625 -0.1630  0.2401
  312MOL0     C42034   6.918  10.209  10.091 -0.1428  0.3622 -0.1171
  312MOL0     C42035   6.927  10.091  10.167 -1.0240  0.7929 -0.0204
  312MOL0     N42036   7.434   9.977  10.800  0.6702 -0.2112  0.1565
  312MOL0     N42037   7.490  10.090  10.821 -0.3782  0.3000 -0.1886
  312MOL0     C42038   7.091  10.962  10.075  0.1770  1.0628  0.3687
  312MOL0     C42039   6.990  11.048  10.074 -0.3842  0.2569 -1.2632
  312MOL0     C42040   6.569  11.216  10.235  1.0981  0.4619  0.2232
  312MOL0     C42041   6.488  11.280  10.331  0.4868  1.1094 -0.5484
  312MOL0     C42042   6.355  11.315  10.296 -1.3240 -0.5905  0.2641
  312MOL0     C42043   6.293  11.276  10.167  0.0445  0.4408  0.2385
  312MOL0     O42044   6.163  11.313  10.132 -0.3634  0.3237 -0.0807
  312MOL0     C42045   6.060  11.279  10.228  1.1592  0.2911  0.0402
  312MOL0     C42046   5.984  11.405  10.273 -0.1005 -0.4157 -0.0729
  312MOL0     C42047   5.916  11.485  10.160 -0.1421  0.2067  0.2341
  312MOL0     C42048   5.850  11.621  10.204 -0.0314  0.1762  0.1062
  312MOL0     C42049   5.797  11.616  10.345 -0.7013 -0.9876 -0.2466
  312MOL0     C42050   5.745  11.608  10.454  0.1844  0.4158 -0.1728
  312MOL0     C42051   6.381  11.213  10.075 -0.0686 -0.4800  0.1589
  312MOL0     C42052   6.509  11.192  10.111 -0.1084  1.0949  0.6682
  312MOL0     H42053   6.876  10.977  10.388 -2.2309 -1.2311 -1.0137
  312MOL0     H42054   7.090  10.851  10.395 -0.5943 -1.3633 -1.8144
  312MOL0     H42055   7.214  10.640  10.201 -1.6934  1.3430  0.7798
  312MOL0     H42056   7.197  10.707  10.036 -0.4624  4.3170  0.4423
  312MOL0     H42057   7.393  10.570  10.029  2.6589 -1.2483  0.3573
  312MOL0     H42058   7.430  10.747  10.022 -0.2122  0.1383  1.2646
  312MOL0     H42059   7.598  10.638  10.152 -0.7112 -1.0286 -3.9154
  312MOL0     H42060   7.494  10.710  10.275 -1.7656 -1.8185  1.5458
  312MOL0     H42061   7.368  10.469  10.287  2.0099 -1.4354  2.8149
  312MOL0     H42062   7.488  10.428  10.172  1.9964 -3.1426  2.6034
  312MOL0     H42063   7.665  10.422  10.343  1.2309  0.6734  1.6959
  312MOL0     H42064   7.585  10.545  10.442 -0.1208  1.3176 -1.2642
  312MOL0     H42065   7.411  10.375  10.497 -1.0786 -1.7643 -0.7902
  312MOL0     H42066   7.505  10.254  10.404 -2.3688 -0.7470  1.5796
  312MOL0     H42067   7.665  10.238  10.568 -2.8380 -2.2417  0.3662
  312MOL0     H42068   7.673  10.411  10.598 -0.0013  0.1922 -3.6914
  312MOL0     H42069   7.457  10.395  10.734 -0.3249 -0.0682 -0.4876
  312MOL0     H42070   7.596  10.314  10.796  1.6742  1.4247 -1.1047
  312MOL0     H42071   7.286  10.171  10.573 -1.3558 -1.6064 -0.2494
  312MOL0     H42072   7.360   9.805  10.611  1.2027  0.7451 -0.7835
  312MOL0     H42073   7.198   9.841  10.673  0.4279  0.6372  0.7490
  312MOL0     H42074   7.338   9.977  10.444  0.7149  0.0347 -0.4442
  312MOL0     H42075   7.158   9.987  10.499 -1.5521 -2.8095  1.3406
  312MOL0     H42076   7.142   9.749  10.442 -0.7136  0.9684 -2.2535
  312MOL0     H42077   7.304   9.749  10.388 -0.6282  0.7889 -2.3643
  312MOL0     H42078   7.155   9.749  10.203  1.8599 -1.6930  2.4328
  312MOL0     H42079   7.261   9.885  10.210  0.0155 -1.0586 -1.2098
  312MOL0     H42080   7.274  10.081  10.175 -0.0398 -1.2439 -1.2370
  312MOL0     H42081   7.291  10.393  10.064  1.5328  0.0590  0.2840
  312MOL0     H42082   7.375  10.233  10.060 -0.3825 -0.7943 -0.2592
  312MOL0     H42083   7.298  10.305   9.918 -0.1702  0.9002  0.1103
  312MOL0     H42084   6.799  10.657  10.085 -1.2438  1.3652 -1.2672
  312MOL0     H42085   6.801  10.875  10.014  2.6469 -1.9092  2.4621
  312MOL0     H42086   6.667  11.000   9.578  1.3028  1.8941  1.5522
  312MOL0     H42087   6.609  10.860   9.665  2.8832 -1.6301  1.1496
  312MOL0     H42088   6.537  11.018   9.853 -0.6026 -0.7725  0.1261
  312MOL0     H42089   6.588  11.148   9.741  4.2103 -1.4179  1.2725
  312MOL0     H42090   6.315  11.026   9.763 -0.3064 -2.0502 -0.0200
  312MOL0     H42091   6.395  10.936   9.638 -1.4608 -0.6235  0.9489
  312MOL0     H42092   6.450  11.122   9.492 -0.0246 -1.9996 -0.6918
  312MOL0     H42093   6.287  11.072   9.506 -1.1279  2.2137 -0.2622
  312MOL0     H42094   6.293  11.311   9.504 -0.7992  0.4751  1.1073
  312MOL0     H42095   6.395  11.310   9.644  3.1367 -2.4200 -1.7261
  312MOL0     H42096   6.115  11.206   9.640  4.3588 -4.5192 -3.0300
  312MOL0     H42097   6.227  11.210   9.787 -1.0351 -3.7965 -0.7511
  312MOL0     H42098   6.181  11.473   9.647  0.5502 -0.2593  0.7851
  312MOL0     H42099   6.218  11.433   9.814  4.0191 -0.2243 -1.9826
  312MOL0     H42100   6.002  11.544   9.778 -0.9479  0.6638 -1.7466
  312MOL0     H42101   5.974  11.376   9.842 -0.1212 -1.0955 -1.1053
  312MOL0     H42102   6.867  10.732   9.600  1.3114  0.6707  0.6819
  312MOL0     H42103   6.869  10.490   9.701 -3.3921  0.7706 -1.4089
  312MOL0     H42104   6.818  10.247  10.075 -0.4694 -0.6946 -0.7130
  312MOL0     H42105   6.840  10.041  10.211  1.6225 -2.2640  2.2151
  312MOL0     H42106   7.159  10.961   9.990 -2.0198  1.5522 -1.4910
  312MOL0     H42107   6.971  11.099   9.980  0.6111 -1.4635 -2.4405
  312MOL0     H42108   6.524  11.302  10.431  2.5713 -1.0665 -0.7221
  312MOL0     H42109   6.299  11.368  10.372 -0.0244  0.6475  0.4109
  312MOL0     H42110   5.992  11.205  10.185  1.0648  3.1212 -5.5734
  312MOL0     H42111   6.110  11.231  10.313  2.5349  4.1736  1.6407
  312MOL0     H42112   6.051  11.474  10.325  3.5036  0.6894 -5.4424
  312MOL0     H42113   5.905  11.365  10.338  0.7627 -1.9306  0.0927
  312MOL0     H42114   5.844  11.417  10.112 -1.5651  2.6529 -1.2771
  312MOL0     H42115   5.999  11.516  10.097 -0.2640  2.7761  1.2104
  312MOL0     H42116   5.766  11.643  10.138  0.6661  1.4504 -0.3864
  312MOL0     H42117   5.923  11.700  10.187  2.1030 -1.5990  0.5714
  312MOL0     H42118   5.692  11.602  10.547 -1.0225 -0.2872 -0.8776
  312MOL0     H42119   6.348  11.207   9.972 -1.0986  2.1998  0.2676
  312MOL0     H42120   6.569  11.151  10.029  2.3788 -3.4393  4.2630
  313MOL0     O42121   7.501  10.867   9.079 -0.3563  0.0815  0.1390
  313MOL0     C42122   7.456  10.764   9.120  0.9329 -0.8862  1.1196
  313MOL0     O42123   7.324  10.730   9.113  0.3900  0.0173  0.7352
  313MOL0     C42124   7.232  10.832   9.076  0.5902 -0.2390 -0.0417
  313MOL0     C42125   7.183  10.815   8.949  0.6771 -0.5547 -0.6664
  313MOL0     C42126   7.093  10.904   8.894 -0.2377  1.0294 -1.8835
  313MOL0     C42127   7.066  11.019   8.964  0.6125 -0.2152  0.0343
  313MOL0     O42128   6.987  11.118   8.909  0.0425 -0.8466  0.1595
  313MOL0     C42129   6.853  11.078   8.909  0.0560 -1.0761  0.1806
  313MOL0     C42130   6.771  11.211   8.928 -0.0657 -0.6852 -1.0076
  313MOL0     C42131   6.788  11.305   8.805 -0.0244  0.2606  0.4389
  313MOL0     C42132   6.706  11.425   8.838  0.0606  0.0524 -0.1950
  313MOL0     C42133   6.726  11.542   8.739  0.3698 -0.0789 -0.3836
  313MOL0     C42134   6.605  11.636   8.731 -0.2150 -0.5608  0.3435
  313MOL0     C42135   6.616  11.728   8.610 -0.1755  0.2129 -0.3060
  313MOL0     C42136   6.729  11.840   8.623  0.4259 -0.0500 -0.5035
  313MOL0     N42137   6.665  11.944   8.710  0.2236 -0.0367  0.3805
  313MOL0     C42138   6.565  12.033   8.678 -0.3005 -0.4543 -0.7406
  313MOL0     C42139   6.525  12.093   8.795  0.3884 -0.7805 -0.4788
  313MOL0     C42140   6.398  12.168   8.832  0.0564 -0.1266  1.1470
  313MOL0     C42141   6.269  12.086   8.801 -0.4087 -0.2405 -0.3986
  313MOL0     C42142   6.260  11.939   8.856  0.1461  0.3634  0.0486
  313MOL0     C42143   6.111  11.880   8.857 -0.3798 -0.1015  0.6286
  313MOL0     O42144   6.010  11.972   8.916 -0.3379  0.3818  0.5970
  313MOL0     C42145   5.940  11.896   9.012  0.0719  0.7499  0.3680
  313MOL0     C42146   5.851  11.800   8.968  0.3701 -0.1199 -0.0700
  313MOL0     C42147   5.771  11.739   9.053  0.9297  1.0371  0.3189
  313MOL0     C42148   5.663  11.648   8.995  0.2514  0.5402 -0.0386
  313MOL0     C42149   5.785  11.759   9.198 -0.0529 -0.3182 -0.4718
  313MOL0     C42150   5.701  11.686   9.305 -0.2381 -0.4252  0.2744
  313MOL0     O42151   5.735  11.713   9.435  0.0167  0.1611 -0.2486
  313MOL0     C42152   5.692  11.636   9.535  0.2346 -0.4458 -0.1462
  313MOL0     C42153   5.625  11.509   9.541  0.4620 -0.4454  0.4837
  313MOL0     C42154   5.588  11.446   9.666  0.6726 -0.3533  0.3600
  313MOL0     C42155   5.623  11.509   9.795 -0.4080 -0.1391 -0.2269
  313MOL0     O42156   5.596  11.451   9.921  0.6488 -0.4827  0.0905
  313MOL0     C42157   5.523  11.328   9.919 -0.1851  0.5050  0.9031
  313MOL0     C42158   5.532  11.262  10.063  0.4732 -0.3172 -0.0801
  313MOL0     C42159   5.410  11.292  10.150  1.2026  0.1804  0.1411
  313MOL0     C42160   5.437  11.204  10.270 -0.1299  0.3930 -0.4741
  313MOL0     C42161   5.335  11.215  10.386  0.6922 -1.0375 -0.8847
  313MOL0     C42162   5.395  11.138  10.509  0.3679 -1.0483  0.2912
  313MOL0     C42163   5.301  11.148  10.634  0.6330  0.1081 -0.3085
  313MOL0     C42164   5.348  11.059  10.754  0.0755 -1.0110 -0.1948
  313MOL0    Cl42165   5.368  10.879  10.721 -0.2332 -0.5147  0.3635
  313MOL0     C42166   5.692  11.630   9.791  1.0764 -1.0395 -0.2892
  313MOL0     C42167   5.721  11.688   9.665  0.4349 -0.3708 -0.3202
  313MOL0     O42168   5.604  11.619   9.268 -0.6360  0.4167  0.4224
  313MOL0     C42169   5.887  11.858   9.238  0.3010  0.5887  0.5753
  313MOL0     C42170   5.950  11.928   9.146 -0.5960  0.1374  0.0238
  313MOL0     N42171   6.616  12.055   8.891 -0.5549  0.0947 -0.1877
  313MOL0     N42172   6.688  11.965   8.840  0.0871  0.0231  0.4639
  313MOL0     C42173   7.106  11.037   9.097  0.1017  0.7238  0.9291
  313MOL0     C42174   7.195  10.942   9.156 -0.3890  0.2100 -0.3503
  313MOL0     C42175   7.544  10.663   9.169  0.1200 -0.0578  0.3436
  313MOL0     C42176   7.504  10.537   9.177 -0.4046  0.5052 -0.4218
  313MOL0     C42177   7.589  10.443   9.229 -0.6239 -0.1772  0.5169
  313MOL0     C42178   7.718  10.471   9.276  0.3711 -0.0735  0.4094
  313MOL0     O42179   7.786  10.374   9.347  0.4755 -0.3783  0.1280
  313MOL0     C42180   7.913  10.400   9.403 -0.7257 -0.0035 -0.2321
  313MOL0     C42181   7.971  10.264   9.467  0.3839 -0.6966 -0.0140
  313MOL0     C42182   8.028  10.289   9.609  0.4005  0.7824  0.9422
  313MOL0     C42183   8.094  10.177   9.683 -1.1308  0.7689  0.6683
  313MOL0     C42184   7.994  10.099   9.752 -0.1008  1.0389  0.6446
  313MOL0     C42185   7.898  10.049   9.808 -0.3498  0.3033 -0.1097
  313MOL0     C42186   7.756  10.612   9.268  0.1130  0.4327 -0.1761
  313MOL0     C42187   7.671  10.707   9.211  0.1444  1.2518 -0.6094
  313MOL0     H42188   7.231  10.745   8.881  2.3773  1.0359 -1.1877
  313MOL0     H42189   7.061  10.884   8.793  2.8477  0.8709 -2.9391
  313MOL0     H42190   6.818  11.037   8.814 -0.2261  1.0965 -0.7100
  313MOL0     H42191   6.830  11.003   8.985  2.6620 -0.7486  1.4161
  313MOL0     H42192   6.668  11.195   8.960  0.2440  0.9588  0.9739
  313MOL0     H42193   6.820  11.255   9.015 -0.0191  0.4323 -1.5873
  313MOL0     H42194   6.892  11.337   8.791  1.1945 -3.2452  0.6267
  313MOL0     H42195   6.757  11.266   8.708 -0.4822 -1.1903  1.1502
  313MOL0     H42196   6.601  11.394   8.832  0.0655 -0.0300  0.1555
  313MOL0     H42197   6.721  11.472   8.935  1.7865  1.8716 -1.2571
  313MOL0     H42198   6.800  11.613   8.775 -0.2203  0.6776 -0.6381
  313MOL0     H42199   6.758  11.504   8.642 -1.3387 -0.3879 -0.8503
  313MOL0     H42200   6.514  11.577   8.716  1.6547 -3.5247 -0.1494
  313MOL0     H42201   6.582  11.684   8.827  1.6866  0.4861  0.3144
  313MOL0     H42202   6.632  11.671   8.518 -2.9799 -1.3649  0.0793
  313MOL0     H42203   6.520  11.779   8.597  0.7522  2.5290  1.2690
  313MOL0     H42204   6.751  11.895   8.531  0.2273 -3.3149 -2.6803
  313MOL0     H42205   6.819  11.800   8.671  0.7837 -1.2014 -2.0607
  313MOL0     H42206   6.503  12.033   8.588 -1.1913  4.3025 -0.3452
  313MOL0     H42207   6.403  12.189   8.940 -2.3424  0.1502  1.2509
  313MOL0     H42208   6.401  12.259   8.772 -1.3792 -2.0157 -1.9903
  313MOL0     H42209   6.275  12.076   8.693  2.0009 -0.5764 -0.2736
  313MOL0     H42210   6.179  12.143   8.828 -0.9088 -0.1219 -2.2055
  313MOL0     H42211   6.305  11.941   8.956 -0.4192  0.7775  0.2963
  313MOL0     H42212   6.324  11.874   8.795  0.8118  1.8081 -0.8570
  313MOL0     H42213   6.121  11.787   8.914  0.4838 -0.2501  0.2395
  313MOL0     H42214   6.080  11.859   8.754  0.3508 -1.3162  0.6408
  313MOL0     H42215   5.843  11.796   8.859 -0.1569  1.6810 -0.1189
  313MOL0     H42216   5.559  11.675   9.014  0.0912 -0.7729  1.1183
  313MOL0     H42217   5.669  11.637   8.887 -1.9493  2.3627 -0.4140
  313MOL0     H42218   5.674  11.546   9.033 -0.1680  0.7864  0.7659
  313MOL0     H42219   5.601  11.459   9.448  2.5565  1.9318 -1.4919
  313MOL0     H42220   5.535  11.352   9.663 -2.3268  1.2296  0.0073
  313MOL0     H42221   5.416  11.331   9.895 -0.2145 -0.0210  0.9554
  313MOL0     H42222   5.568  11.256   9.850 -2.0163  0.6859 -0.5566
  313MOL0     H42223   5.528  11.155  10.037 -0.8729  0.1152 -1.8244
  313MOL0     H42224   5.624  11.282  10.118 -1.1258  1.8892  1.9901
  313MOL0     H42225   5.314  11.271  10.102  0.1460  1.2787  1.6665
  313MOL0     H42226   5.400  11.400  10.166  0.8283  0.5061 -1.9738
  313MOL0     H42227   5.424  11.101  10.235 -2.0298  0.8409 -1.2525
  313MOL0     H42228   5.536  11.223  10.311 -0.0550  1.5482 -1.1360
  313MOL0     H42229   5.238  11.175  10.358  0.8563 -1.0289 -1.4818
  313MOL0     H42230   5.330  11.315  10.430  1.5263 -2.5185  3.0305
  313MOL0     H42231   5.400  11.031  10.488  1.9212 -0.5732 -2.1427
  313MOL0     H42232   5.496  11.166  10.538  0.4824 -1.5128  0.3550
  313MOL0     H42233   5.205  11.102  10.611 -0.4874  1.9859  0.3732
  313MOL0     H42234   5.287  11.252  10.666  1.0538  0.5448 -1.4623
  313MOL0     H42235   5.273  11.074  10.831 -0.5935  1.8527 -1.2423
  313MOL0     H42236   5.445  11.103  10.779  1.3606 -0.9374 -4.4827
  313MOL0     H42237   5.709  11.670   9.891 -2.8537 -0.8244  0.4384
  313MOL0     H42238   5.769  11.784   9.675  1.9587 -1.1473  0.2278
  313MOL0     H42239   5.907  11.879   9.343  1.2965 -2.1142  1.0041
  313MOL0     H42240   6.004  12.015   9.183 -1.0860 -0.9671  3.8252
  313MOL0     H42241   7.072  11.126   9.150 -1.3213 -0.5459  2.2351
  313MOL0     H42242   7.247  10.956   9.251 -0.3377 -2.4009  0.0740
  313MOL0     H42243   7.404  10.503   9.154 -0.6796  1.0350 -0.0283
  313MOL0     H42244   7.551  10.342   9.226 -0.6383 -0.3800  3.7506
  313MOL0     H42245   7.986  10.430   9.328  2.4705  1.1566  3.0711
  313MOL0     H42246   7.912  10.477   9.481  2.1494 -0.8787  0.8132
  313MOL0     H42247   8.050  10.231   9.399 -0.8906 -1.7251 -1.0413
  313MOL0     H42248   7.894  10.189   9.487 -1.6399  1.1547 -0.4730
  313MOL0     H42249   7.943  10.325   9.667 -1.4796 -1.1082 -0.4873
  313MOL0     H42250   8.103  10.368   9.598 -1.2856  2.3509  0.2046
  313MOL0     H42251   8.159  10.214   9.763  0.7035 -1.6172  0.3880
  313MOL0     H42252   8.158  10.120   9.616  0.4805  2.6905  0.4891
  313MOL0     H42253   7.820  10.022   9.876 -0.1811  2.4574  1.0449
  313MOL0     H42254   7.849  10.652   9.308 -0.6882 -0.3615  2.7298
  313MOL0     H42255   7.707  10.809   9.207  0.9229  1.0090  0.0091
  314MOL0     O42256   2.614   3.872  10.673  0.2457 -0.0809  0.1191
  314MOL0     C42257   2.528   3.790  10.627 -1.2396 -0.5980 -0.0354
  314MOL0     O42258   2.554   3.675  10.569  0.1751 -0.1340 -0.2542
  314MOL0     C42259   2.684   3.644  10.549  0.9768  0.3382 -0.3548
  314MOL0     C42260   2.778   3.712  10.469 -0.4186  0.2694 -0.6747
  314MOL0     C42261   2.914   3.675  10.479  0.2763  0.5346  1.3090
  314MOL0     C42262   2.958   3.569  10.562 -0.1057 -0.4575 -0.2617
  314MOL0     O42263   3.085   3.526  10.570 -0.5992  0.2298 -0.1094
  314MOL0     C42264   3.164   3.531  10.448  0.4115  0.6881 -0.3777
  314MOL0     C42265   3.269   3.415  10.468  0.0943  0.1447  0.2913
  314MOL0     C42266   3.392   3.430  10.381 -0.1684 -0.3182 -1.1712
  314MOL0     C42267   3.505   3.329  10.408  0.8801  0.7904  0.7734
  314MOL0     C42268   3.634   3.355  10.327  0.0013 -0.1160  0.0799
  314MOL0     C42269   3.731   3.236  10.335 -0.7618  0.3614  0.8626
  314MOL0     C42270   3.880   3.262  10.301  0.1753  0.3740  0.1814
  314MOL0     C42271   3.892   3.295  10.153  1.0045  0.2012  0.4954
  314MOL0     N42272   4.029   3.317  10.115 -0.0972  0.0885  0.0261
  314MOL0     C42273   4.115   3.421  10.162  0.4619 -0.1720  0.8261
  314MOL0     C42274   4.241   3.385  10.121 -0.9623 -0.7688  0.3838
  314MOL0     C42275   4.368   3.460  10.146  0.0689  0.7438  0.3417
  314MOL0     C42276   4.370   3.595  10.219  0.3936 -0.7036 -0.7332
  314MOL0     C42277   4.407   3.579  10.369  0.7864 -0.4466  0.7696
  314MOL0     C42278   4.290   3.534  10.460 -0.3045  0.0033 -0.0976
  314MOL0     O42279   4.195   3.636  10.452 -0.2351 -0.2839  0.0243
  314MOL0     C42280   4.070   3.616  10.499  1.2183  0.1413 -0.6378
  314MOL0     C42281   4.034   3.521  10.586 -0.0393  0.0350 -0.0219
  314MOL0     C42282   3.909   3.502  10.645  0.6164 -0.5287 -0.4735
  314MOL0     C42283   3.890   3.394  10.741 -0.6976  0.6586  0.5374
  314MOL0     C42284   3.810   3.595  10.612  0.1863  0.2906 -0.1156
  314MOL0     C42285   3.674   3.590  10.677  0.6691 -0.1212  0.0025
  314MOL0     O42286   3.639   3.712  10.730  0.2087 -0.0063 -0.7884
  314MOL0     C42287   3.514   3.742  10.788  0.1532  0.0005 -0.2086
  314MOL0     C42288   3.393   3.683  10.743 -1.0660 -0.6820 -0.1197
  314MOL0     C42289   3.271   3.714  10.804 -0.0932 -0.0157 -0.0918
  314MOL0     C42290   3.265   3.806  10.908 -0.7536 -0.8417 -0.4389
  314MOL0     O42291   3.153   3.861  10.972 -0.0056 -0.2113  0.7106
  314MOL0     C42292   3.016   3.808  10.947 -0.7424 -0.0617 -0.7364
  314MOL0     C42293   2.915   3.862  11.046 -0.0156 -0.9156  0.7168
  314MOL0     C42294   2.875   4.005  11.012 -0.8891  0.1129  0.0526
  314MOL0     C42295   2.990   4.102  11.050  0.5287 -0.2785  0.1153
  314MOL0     C42296   2.939   4.243  11.098 -0.7789  0.8600 -0.7497
  314MOL0     C42297   3.035   4.361  11.095 -0.8719 -1.2689 -0.0506
  314MOL0     C42298   3.022   4.448  11.223  0.7358 -0.2400  0.2799
  314MOL0     C42299   3.061   4.381  11.357 -0.0017 -0.0043 -0.4008
  314MOL0    Cl42300   3.239   4.340  11.379  0.2912 -0.0293 -0.6015
  314MOL0     C42301   3.382   3.879  10.947 -0.0404  0.1613  0.7772
  314MOL0     C42302   3.507   3.843  10.888  0.4250  0.1580  0.0795
  314MOL0     O42303   3.616   3.485  10.703 -0.7268  0.2090  0.1859
  314MOL0     C42304   3.837   3.697  10.520 -0.9729  0.8319  0.8185
  314MOL0     C42305   3.969   3.707  10.471  0.5245  0.1221 -0.0307
  314MOL0     N42306   4.226   3.261  10.060 -0.3853  0.3617 -0.1858
  314MOL0     N42307   4.103   3.224  10.050 -0.6173  0.3399  0.6004
  314MOL0     C42308   2.861   3.505  10.633 -0.0983  1.3284 -0.2298
  314MOL0     C42309   2.729   3.547  10.637  0.3293 -0.3712  0.3042
  314MOL0     C42310   2.382   3.806  10.652 -0.1137  0.5346  0.4750
  314MOL0     C42311   2.279   3.732  10.588  0.8121 -0.7704 -0.1409
  314MOL0     C42312   2.140   3.757  10.606 -0.1460 -0.6663 -1.0879
  314MOL0     C42313   2.098   3.842  10.714  0.1160  0.8319  0.6824
  314MOL0     O42314   1.959   3.852  10.724  1.1223  0.1902 -0.5066
  314MOL0     C42315   1.905   3.940  10.827  0.0331  0.6631  0.5265
  314MOL0     C42316   1.899   4.078  10.750  0.3085  0.6395 -0.2901
  314MOL0     C42317   1.793   4.068  10.648 -0.5445 -0.2581  0.0686
  314MOL0     C42318   1.750   4.202  10.579 -0.5691  0.3329  0.2290
  314MOL0     C42319   1.863   4.259  10.509  0.5482  0.5794  0.2073
  314MOL0     C42320   1.951   4.310  10.456  0.8314 -0.3911  0.5870
  314MOL0     C42321   2.200   3.920  10.776 -0.1051 -0.6043  0.8440
  314MOL0     C42322   2.340   3.908  10.743 -0.1448  0.1568 -0.2185
  314MOL0     H42323   2.750   3.792  10.401  1.3750  1.8283  0.3361
  314MOL0     H42324   2.986   3.733  10.423 -0.1677  1.0267  1.2394
  314MOL0     H42325   3.101   3.514  10.360  0.3708 -3.4015  0.2707
  314MOL0     H42326   3.216   3.626  10.433 -1.4093  1.5442 -1.5823
  314MOL0     H42327   3.293   3.414  10.575 -1.6335 -4.0439  0.8531
  314MOL0     H42328   3.216   3.324  10.439  0.1939  0.3571 -0.5707
  314MOL0     H42329   3.361   3.408  10.278  2.1391 -0.0303 -1.9968
  314MOL0     H42330   3.432   3.531  10.385 -0.2802 -0.3123  0.1027
  314MOL0     H42331   3.517   3.342  10.516 -1.0553  2.7553  0.8255
  314MOL0     H42332   3.465   3.229  10.389  1.7254  0.3764  1.1091
  314MOL0     H42333   3.612   3.377  10.223 -0.4944 -0.9453  0.0016
  314MOL0     H42334   3.689   3.437  10.374 -0.1226 -1.4375  2.7475
  314MOL0     H42335   3.732   3.193  10.436  0.6225 -2.3258 -0.2038
  314MOL0     H42336   3.682   3.167  10.266 -0.9337  1.7600 -0.4691
  314MOL0     H42337   3.914   3.345  10.364 -0.9151  2.2784 -1.6106
  314MOL0     H42338   3.941   3.172  10.316  1.5019  0.9233 -1.5279
  314MOL0     H42339   3.829   3.380  10.123 -0.3070 -1.0705 -0.5062
  314MOL0     H42340   3.853   3.207  10.100 -2.9139 -0.5325  3.9722
  314MOL0     H42341   4.083   3.510  10.214 -1.2779  0.3347 -1.0000
  314MOL0     H42342   4.435   3.393  10.201 -1.3400 -0.6558  0.4047
  314MOL0     H42343   4.411   3.468  10.045 -0.9798 -3.1185 -0.5758
  314MOL0     H42344   4.274   3.643  10.200  0.0575 -2.7587 -5.9961
  314MOL0     H42345   4.446   3.664  10.182 -0.2524 -0.0168 -0.8063
  314MOL0     H42346   4.436   3.681  10.397 -0.7357 -0.0113  0.8475
  314MOL0     H42347   4.492   3.511  10.379  0.8274 -0.5071  0.0320
  314MOL0     H42348   4.320   3.522  10.564 -1.1516  1.4477  0.3327
  314MOL0     H42349   4.255   3.440  10.416 -1.5904  0.4972 -0.1844
  314MOL0     H42350   4.110   3.443  10.586 -0.3652 -0.3746 -2.7165
  314MOL0     H42351   3.981   3.377  10.800 -0.0057  1.5234 -0.2357
  314MOL0     H42352   3.806   3.419  10.805 -1.2148 -1.5238  0.7625
  314MOL0     H42353   3.874   3.310  10.673  2.1078  0.5020 -0.0878
  314MOL0     H42354   3.396   3.609  10.664  0.9449  0.3547 -1.1020
  314MOL0     H42355   3.176   3.671  10.773 -0.9229  2.0297 -0.5453
  314MOL0     H42356   2.989   3.822  10.843 -2.5420 -2.5233 -0.6814
  314MOL0     H42357   3.024   3.699  10.956  2.2439  0.0497 -0.9266
  314MOL0     H42358   2.820   3.808  11.047 -1.0611  0.7695  2.9994
  314MOL0     H42359   2.958   3.848  11.146  0.4180  0.0239  0.6767
  314MOL0     H42360   2.778   4.019  11.061  0.5517 -1.7981  3.9021
  314MOL0     H42361   2.859   4.020  10.905 -3.1065  0.0200  0.3236
  314MOL0     H42362   3.060   4.054  11.119 -0.0336 -0.1534  0.7787
  314MOL0     H42363   3.043   4.121  10.956 -0.5006 -0.6674 -0.5633
  314MOL0     H42364   2.894   4.213  11.194 -1.2841  1.9147 -0.6458
  314MOL0     H42365   2.862   4.280  11.029 -1.1870 -1.7163 -1.7853
  314MOL0     H42366   3.140   4.329  11.090 -0.0861  1.1210 -0.2646
  314MOL0     H42367   3.016   4.428  11.011 -2.3134  1.7464  2.4896
  314MOL0     H42368   2.920   4.488  11.227  1.8134  2.7630  0.7408
  314MOL0     H42369   3.088   4.535  11.213  0.0990  0.4018  1.4499
  314MOL0     H42370   3.004   4.288  11.370 -1.6425  1.1505  1.3226
  314MOL0     H42371   3.037   4.456  11.433  0.2188 -0.4402  0.1060
  314MOL0     H42372   3.379   3.958  11.020  3.6234  0.5208  0.7099
  314MOL0     H42373   3.589   3.909  10.915  0.1428  0.2281  0.7683
  314MOL0     H42374   3.756   3.767  10.506 -0.1723  1.4207 -1.1083
  314MOL0     H42375   3.981   3.786  10.398 -1.6579 -0.0032 -0.5991
  314MOL0     H42376   2.880   3.421  10.699 -0.4090 -0.5450 -2.4116
  314MOL0     H42377   2.650   3.502  10.696 -0.0555 -0.2976 -0.1501
  314MOL0     H42378   2.304   3.662  10.508 -1.5609 -0.5159 -1.1751
  314MOL0     H42379   2.067   3.703  10.547 -1.0658 -1.4992  0.7252
  314MOL0     H42380   1.806   3.907  10.860  0.1937 -1.9072 -1.2006
  314MOL0     H42381   1.963   3.944  10.919  2.5873  1.3263 -1.0077
  314MOL0     H42382   1.992   4.125  10.718  0.5520  1.1393  1.0810
  314MOL0     H42383   1.864   4.147  10.828  2.8362  1.5832  0.1124
  314MOL0     H42384   1.698   4.040  10.693  0.6436  0.5024  3.3959
  314MOL0     H42385   1.820   3.999  10.567  1.8249 -4.1941  3.7928
  314MOL0     H42386   1.701   4.275  10.643 -1.8234 -0.8855  0.7017
  314MOL0     H42387   1.672   4.179  10.506  0.0001 -1.7529  0.2317
  314MOL0     H42388   2.032   4.358  10.405  0.7873 -2.0831 -1.1801
  314MOL0     H42389   2.157   3.983  10.853 -0.2698 -1.8028  1.7604
  314MOL0     H42390   2.412   3.978  10.784 -2.1743  2.8095 -0.9336
  315MOL0     O42391   2.341   6.248  11.255  0.1672 -0.4007 -0.0231
  315MOL0     C42392   2.224   6.240  11.210  0.6480 -0.6583 -0.5068
  315MOL0     O42393   2.178   6.310  11.107  0.5307 -0.4213 -0.1940
  315MOL0     C42394   2.249   6.407  11.058  1.2693  0.9368 -0.4014
  315MOL0     C42395   2.340   6.376  10.952 -0.1080 -1.3927 -0.6747
  315MOL0     C42396   2.425   6.481  10.899 -0.2069  0.8071  0.7913
  315MOL0     C42397   2.397   6.614  10.926  0.0299  0.2066 -0.1062
  315MOL0     O42398   2.476   6.714  10.871 -0.1491  0.5257  0.3344
  315MOL0     C42399   2.482   6.839  10.945  1.1563 -0.1082  0.7913
  315MOL0     C42400   2.585   6.924  10.867 -0.0745 -0.8497 -0.3088
  315MOL0     C42401   2.553   6.967  10.721 -0.1640  0.0316 -0.6821
  315MOL0     C42402   2.487   7.106  10.710  0.8755  0.0986  0.6125
  315MOL0     C42403   2.459   7.159  10.566  0.1220 -0.3885 -0.3489
  315MOL0     C42404   2.357   7.074  10.488 -0.3296 -0.4384 -0.5820
  315MOL0     C42405   2.358   7.118  10.334  0.3875 -0.0358  0.1449
  315MOL0     C42406   2.269   7.013  10.254  0.4601 -0.7527  1.1167
  315MOL0     N42407   2.141   7.015  10.317  0.5320  0.8518 -0.7395
  315MOL0     C42408   2.072   6.919  10.390 -0.4677 -0.1170  0.5995
  315MOL0     C42409   1.952   6.976  10.413 -0.2092  0.6266 -0.4612
  315MOL0     C42410   1.847   6.900  10.488  0.6708  0.7869  0.1908
  315MOL0     C42411   1.828   6.984  10.621  0.4629  0.0075 -0.1994
  315MOL0     C42412   1.934   6.977  10.726  0.9090 -0.2669  1.2360
  315MOL0     C42413   1.977   6.840  10.767 -0.7431 -0.6198 -0.2160
  315MOL0     O42414   1.870   6.772  10.825 -0.5787 -0.1947 -0.5883
  315MOL0     C42415   1.839   6.787  10.957  0.3401  0.1544  0.1879
  315MOL0     C42416   1.927   6.845  11.055 -0.1032  0.6935 -0.3536
  315MOL0     C42417   1.898   6.840  11.195 -0.5310  0.3876 -0.3649
  315MOL0     C42418   2.021   6.868  11.285  0.3607  0.5008  0.1010
  315MOL0     C42419   1.760   6.803  11.230 -0.4794 -0.0568  0.5375
  315MOL0     C42420   1.698   6.815  11.367  0.3122  0.2080  0.2823
  315MOL0     O42421   1.557   6.824  11.377  0.7977 -0.3091 -0.2466
  315MOL0     C42422   1.501   6.777  11.494 -0.2179  0.3393  2.1521
  315MOL0     C42423   1.398   6.848  11.557  0.1926  0.6086 -0.2154
  315MOL0     C42424   1.320   6.801  11.666  0.6075  0.4887  0.3771
  315MOL0     C42425   1.346   6.669  11.706 -0.5268  0.3018 -0.9203
  315MOL0     O42426   1.271   6.613  11.813  0.1294 -0.2293 -0.2584
  315MOL0     C42427   1.195   6.693  11.903 -0.0836  1.0297  0.7216
  315MOL0     C42428   1.150   6.614  12.011  0.6182  0.6778 -0.1314
  315MOL0     C42429   1.263   6.565  12.095  0.4100 -0.3248 -0.0104
  315MOL0     C42430   1.195   6.462  12.206 -0.0378  0.4778 -0.2222
  315MOL0     C42431   1.287   6.432  12.329  0.2309 -0.8791  1.0725
  315MOL0     C42432   1.324   6.555  12.412 -0.5363  1.4127 -0.3656
  315MOL0     C42433   1.194   6.607  12.472  0.0463  0.0021  0.5366
  315MOL0     C42434   1.213   6.719  12.580 -0.2949 -0.3079 -0.1422
  315MOL0    Cl42435   1.302   6.635  12.723  0.2668 -0.1225  0.0048
  315MOL0     C42436   1.445   6.597  11.638 -0.0533  0.2943 -0.4488
  315MOL0     C42437   1.522   6.649  11.526 -0.1960 -0.2390 -0.7407
  315MOL0     O42438   1.766   6.812  11.470 -0.1992  0.3691  0.2693
  315MOL0     C42439   1.675   6.756  11.128 -0.1873  0.0394 -0.6753
  315MOL0     C42440   1.715   6.737  11.000  0.4020  0.4801 -0.0166
  315MOL0     N42441   1.949   7.099  10.343 -0.3079  0.5452  0.2085
  315MOL0     N42442   2.067   7.118  10.294 -0.0330  0.0811  0.5432
  315MOL0     C42443   2.288   6.635  11.020 -0.2909  0.0130 -0.3395
  315MOL0     C42444   2.216   6.538  11.082 -0.0426  0.6711 -0.1558
  315MOL0     C42445   2.136   6.127  11.260  0.2397 -0.0457  0.7432
  315MOL0     C42446   2.183   6.016  11.335  0.2439 -1.3032  0.1125
  315MOL0     C42447   2.106   5.912  11.383 -0.3363  0.3453 -0.7207
  315MOL0     C42448   1.970   5.902  11.346 -0.1705 -0.0775 -0.3365
  315MOL0     O42449   1.878   5.806  11.366 -0.3637 -0.2780 -0.9700
  315MOL0     C42450   1.909   5.711  11.469 -0.5087  1.0012  0.8031
  315MOL0     C42451   1.781   5.662  11.535 -0.0500  0.2179  0.5787
  315MOL0     C42452   1.793   5.601  11.668  0.4251 -0.6525  1.3683
  315MOL0     C42453   1.691   5.500  11.706  0.0911  0.0202 -0.0459
  315MOL0     C42454   1.557   5.563  11.714 -0.2927 -1.1667 -0.2265
  315MOL0     C42455   1.454   5.615  11.748 -0.2747 -0.7739  0.2742
  315MOL0     C42456   1.922   6.002  11.259 -0.8684  0.4158 -0.2329
  315MOL0     C42457   2.001   6.112  11.227 -0.1303  0.5669 -0.0666
  315MOL0     H42458   2.368   6.272  10.939  0.5630 -1.4645  1.0774
  315MOL0     H42459   2.515   6.458  10.843 -0.3564 -0.4332  1.0157
  315MOL0     H42460   2.386   6.889  10.938  1.6304  0.8507  0.9692
  315MOL0     H42461   2.506   6.835  11.052  1.7185 -2.5905  0.6274
  315MOL0     H42462   2.593   7.024  10.911 -1.4532  1.1187 -4.0808
  315MOL0     H42463   2.680   6.872  10.881 -0.0483 -1.0380 -1.0974
  315MOL0     H42464   2.644   6.960  10.660 -0.3545 -1.1666 -0.8581
  315MOL0     H42465   2.490   6.885  10.684  0.7087 -0.7008 -0.6061
  315MOL0     H42466   2.384   7.107  10.745  0.7762  1.0554  0.3150
  315MOL0     H42467   2.543   7.180  10.768  1.3811  1.1543 -1.1623
  315MOL0     H42468   2.429   7.262  10.585 -0.4649 -1.0145  2.6328
  315MOL0     H42469   2.557   7.161  10.518  1.4262  0.6136  2.1771
  315MOL0     H42470   2.388   6.969  10.490 -1.7732 -0.9124 -1.8309
  315MOL0     H42471   2.258   7.082  10.535 -0.6762  2.7872 -1.6451
  315MOL0     H42472   2.317   7.220  10.344  0.0937  0.1601 -2.3790
  315MOL0     H42473   2.453   7.112  10.281 -0.6609 -0.1868 -1.8037
  315MOL0     H42474   2.313   6.915  10.272  0.8528 -1.1089 -1.3983
  315MOL0     H42475   2.260   7.029  10.146  0.2523  0.1625  1.2603
  315MOL0     H42476   2.103   6.817  10.409  0.7493 -0.3262 -2.0474
  315MOL0     H42477   1.755   6.885  10.429  1.2155 -2.2561 -0.0742
  315MOL0     H42478   1.877   6.798  10.512 -3.9872 -0.1701  3.4098
  315MOL0     H42479   1.736   6.947  10.669 -0.0583  1.8547  0.3176
  315MOL0     H42480   1.802   7.086  10.594 -3.0149 -0.4949  0.6684
  315MOL0     H42481   1.886   7.026  10.811 -0.9305 -1.4737  0.9557
  315MOL0     H42482   2.023   7.030  10.694  0.4741 -1.4055 -2.3686
  315MOL0     H42483   2.060   6.849  10.838 -1.4276  2.1800  0.3595
  315MOL0     H42484   2.013   6.787  10.679 -1.4010 -0.4906 -0.5691
  315MOL0     H42485   2.026   6.876  11.023  0.8822 -1.6081  0.2680
  315MOL0     H42486   1.987   6.930  11.368 -1.3713  1.7181 -1.4324
  315MOL0     H42487   2.044   6.773  11.334  1.3527 -0.7838 -2.6032
  315MOL0     H42488   2.105   6.901  11.223  0.5574 -0.2445 -0.0390
  315MOL0     H42489   1.381   6.950  11.524 -1.3336  1.3108  2.4648
  315MOL0     H42490   1.249   6.857  11.726  0.5585 -0.2424  1.0146
  315MOL0     H42491   1.253   6.779  11.938 -0.3138  1.5600 -0.1929
  315MOL0     H42492   1.108   6.728  11.848 -0.9207  0.6801  1.7846
  315MOL0     H42493   1.076   6.678  12.060 -0.4239 -0.9249  0.4595
  315MOL0     H42494   1.116   6.518  11.972  0.8886  0.7043 -0.4386
  315MOL0     H42495   1.292   6.663  12.135 -4.0693  1.3035 -0.1637
  315MOL0     H42496   1.339   6.505  12.044  0.0957  1.5730 -2.9945
  315MOL0     H42497   1.099   6.506  12.232 -0.7240  0.2025 -2.1242
  315MOL0     H42498   1.170   6.368  12.156 -1.5339  0.1449  1.0842
  315MOL0     H42499   1.376   6.386  12.286  1.0196  1.3222  0.1696
  315MOL0     H42500   1.226   6.365  12.390 -1.8296  2.2603  2.7338
  315MOL0     H42501   1.385   6.520  12.496 -2.2337  0.0056  0.3400
  315MOL0     H42502   1.386   6.622  12.351  0.5683  0.3032 -0.5085
  315MOL0     H42503   1.134   6.527  12.515 -3.4641  1.5277 -1.0841
  315MOL0     H42504   1.137   6.654  12.390  1.7862  0.2725 -0.5827
  315MOL0     H42505   1.117   6.760  12.611  0.2301  0.8133  0.0421
  315MOL0     H42506   1.266   6.805  12.538  0.1715 -0.6542 -0.2745
  315MOL0     H42507   1.466   6.493  11.661 -1.7915  0.7209  4.0274
  315MOL0     H42508   1.591   6.587  11.468  3.0830 -0.0930  2.6170
  315MOL0     H42509   1.581   6.705  11.147  2.2248 -5.2176 -1.2042
  315MOL0     H42510   1.666   6.665  10.936  0.5679 -1.2601  1.7036
  315MOL0     H42511   2.270   6.742  11.032  2.7395  0.4968  0.8468
  315MOL0     H42512   2.133   6.566  11.147  1.3161 -0.8734  2.3865
  315MOL0     H42513   2.289   5.994  11.342  0.7153  0.7341  0.0928
  315MOL0     H42514   2.140   5.828  11.442 -1.0556 -1.0134 -2.1705
  315MOL0     H42515   1.975   5.631  11.434 -3.6131 -1.0670 -0.7865
  315MOL0     H42516   1.959   5.757  11.554 -1.1875  1.5583  0.9083
  315MOL0     H42517   1.718   5.605  11.467  1.8466 -0.2527 -0.8822
  315MOL0     H42518   1.728   5.757  11.535 -0.5161  0.0555 -2.3347
  315MOL0     H42519   1.769   5.682  11.737  0.1780  0.3020  0.1973
  315MOL0     H42520   1.894   5.560  11.676  0.6949 -0.6739 -1.3326
  315MOL0     H42521   1.710   5.468  11.808  0.9071 -3.0141 -1.0420
  315MOL0     H42522   1.701   5.412  11.641 -0.3266  0.9450 -1.4179
  315MOL0     H42523   1.362   5.668  11.760 -0.1371 -0.1550 -1.1835
  315MOL0     H42524   1.816   6.008  11.235 -0.8446 -0.6101 -0.6782
  315MOL0     H42525   1.957   6.188  11.163  3.2018  2.1362 -0.7254
  316MOL0     O42526   8.312   7.913   3.300  0.0219  0.3614  0.6479
  316MOL0     C42527   8.236   7.994   3.364  0.3689  1.2433 -0.6108
  316MOL0     O42528   8.157   8.102   3.314  0.4298  0.4949 -0.1271
  316MOL0     C42529   8.178   8.139   3.179  1.1769  0.4262  0.0854
  316MOL0     C42530   8.058   8.134   3.103 -0.4765 -1.2123  1.0930
  316MOL0     C42531   8.060   8.172   2.968 -0.1560 -0.0035 -1.0156
  316MOL0     C42532   8.183   8.204   2.907 -0.1946 -0.1541  0.1044
  316MOL0     O42533   8.174   8.212   2.774 -0.1191 -0.3188  0.1741
  316MOL0     C42534   8.270   8.285   2.696  0.4215 -0.3250 -0.0931
  316MOL0     C42535   8.177   8.371   2.599  0.0084 -0.1796  0.2868
  316MOL0     C42536   8.257   8.465   2.502  0.2739 -0.3525 -0.3333
  316MOL0     C42537   8.326   8.389   2.396 -1.0691  0.1884 -0.1735
  316MOL0     C42538   8.371   8.490   2.280  0.2389  0.3426 -0.5581
  316MOL0     C42539   8.452   8.610   2.315 -0.2527 -1.4433 -0.3531
  316MOL0     C42540   8.566   8.565   2.407  0.6688 -0.5866 -0.6967
  316MOL0     C42541   8.675   8.676   2.404  0.5908  0.2495  0.3054
  316MOL0     N42542   8.782   8.625   2.325  0.0547 -0.1875 -0.5998
  316MOL0     C42543   8.886   8.555   2.383 -0.0191  0.5803 -0.2634
  316MOL0     C42544   8.981   8.549   2.291 -0.6584  0.4579 -0.6661
  316MOL0     C42545   9.116   8.489   2.312 -1.0743 -1.1143  1.0599
  316MOL0     C42546   9.210   8.556   2.418 -0.0427 -0.1724 -0.4557
  316MOL0     C42547   9.231   8.711   2.402  0.5715  0.5715  0.4816
  316MOL0     C42548   9.280   8.775   2.262 -0.9944  0.8676 -0.3662
  316MOL0     O42549   9.416   8.728   2.243 -0.0719  0.2850  0.3673
  316MOL0     C42550   9.463   8.734   2.116 -0.6639  0.0336 -0.5620
  316MOL0     C42551   9.444   8.849   2.041 -0.2688 -0.1658 -0.7988
  316MOL0     C42552   9.503   8.862   1.914 -0.3988 -0.2258  0.3246
  316MOL0     C42553   9.486   8.991   1.844 -0.2249 -0.7530 -0.1913
  316MOL0     C42554   9.553   8.753   1.848 -0.6356 -0.1193  0.6155
  316MOL0     C42555   9.621   8.759   1.719  0.2926  0.4784  0.3595
  316MOL0     O42556   9.577   8.674   1.611 -0.2177 -1.4058  0.6518
  316MOL0     C42557   9.621   8.678   1.483  0.3885 -0.3980  0.4254
  316MOL0     C42558   9.638   8.560   1.410 -0.2948  0.5542  0.0189
  316MOL0     C42559   9.682   8.571   1.279 -0.9902  0.2634  0.1206
  316MOL0     C42560   9.705   8.693   1.212 -0.2083 -0.0996 -0.4906
  316MOL0     O42561   9.736   8.706   1.084 -0.4270  0.5595  0.1927
  316MOL0     C42562   9.784   8.597   1.014  0.2169 -0.2686  0.4056
  316MOL0     C42563   9.808   8.638   0.861 -0.2941  0.3924  0.1621
  316MOL0     C42564   9.877   8.781   0.836 -0.2231 -0.0547  0.1962
  316MOL0     C42565   9.867   8.805   0.690 -0.8229  1.1767  0.3074
  316MOL0     C42566   9.946   8.928   0.644 -0.6923 -0.7225 -0.5709
  316MOL0     C42567   9.858   9.052   0.638  0.2707 -0.1139  0.2939
  316MOL0     C42568   9.918   9.171   0.561  0.9543  1.1153  0.5822
  316MOL0     C42569   9.813   9.261   0.489 -0.7256 -1.2421 -0.0949
  316MOL0    Cl42570   9.896   9.378   0.383 -0.0160 -0.2083 -0.1512
  316MOL0     C42571   9.680   8.810   1.287  0.3909 -0.0007 -0.2388
  316MOL0     C42572   9.641   8.808   1.423  0.0685  0.8670 -0.3011
  316MOL0     O42573   9.699   8.849   1.704 -0.3711 -0.0018 -0.7588
  316MOL0     C42574   9.564   8.633   1.913 -0.2808 -1.5780 -0.8049
  316MOL0     C42575   9.525   8.627   2.053 -0.0961 -0.2094  0.9711
  316MOL0     N42576   8.943   8.611   2.176  0.4907 -0.2519 -0.5063
  316MOL0     N42577   8.826   8.666   2.198  0.2270 -0.3546 -0.1350
  316MOL0     C42578   8.302   8.217   2.979  0.3895 -0.6370 -0.2542
  316MOL0     C42579   8.294   8.180   3.111 -0.3744  0.2175 -0.2504
  316MOL0     C42580   8.238   7.953   3.506 -0.0455  0.1390 -0.9621
  316MOL0     C42581   8.142   8.010   3.592 -0.1852  0.3104 -0.3261
  316MOL0     C42582   8.126   7.979   3.724 -0.3108  0.2710  0.1232
  316MOL0     C42583   8.209   7.882   3.779 -0.1592 -0.2965 -0.1687
  316MOL0     O42584   8.199   7.840   3.915 -0.2334  0.2941  1.0035
  316MOL0     C42585   8.070   7.824   3.979  0.0446  0.0068  0.9098
  316MOL0     C42586   8.085   7.793   4.129 -0.0343 -0.6765 -0.2811
  316MOL0     C42587   8.187   7.872   4.210  0.4447 -0.3719 -0.3437
  316MOL0     C42588   8.146   8.017   4.222  0.1073  0.1589  0.1428
  316MOL0     C42589   8.272   8.102   4.220 -0.5733 -0.8643  0.2955
  316MOL0     C42590   8.368   8.176   4.213 -0.4982 -0.0089 -0.3126
  316MOL0     C42591   8.321   7.834   3.706  1.3133 -0.1516 -0.8409
  316MOL0     C42592   8.327   7.870   3.571  0.2225 -0.2886  0.5802
  316MOL0     H42593   7.969   8.080   3.134 -1.5299  0.9011  2.0076
  316MOL0     H42594   7.979   8.171   2.895 -0.9247 -1.0894 -0.1819
  316MOL0     H42595   8.338   8.351   2.751 -1.2965  2.4030 -1.0251
  316MOL0     H42596   8.327   8.216   2.634 -0.3230  1.0983 -2.4734
  316MOL0     H42597   8.109   8.306   2.543 -1.4893  0.2171  1.5672
  316MOL0     H42598   8.102   8.429   2.654  0.0176  1.9627 -1.8097
  316MOL0     H42599   8.184   8.533   2.457  0.4394 -0.3411 -0.5853
  316MOL0     H42600   8.322   8.529   2.563 -0.6014  1.2154 -0.9795
  316MOL0     H42601   8.409   8.325   2.427 -0.1371  1.6904  0.5401
  316MOL0     H42602   8.249   8.323   2.354 -2.3080  1.9452 -0.7669
  316MOL0     H42603   8.429   8.427   2.211  2.5919 -0.5641  2.0471
  316MOL0     H42604   8.287   8.527   2.221  2.3625 -0.1118 -4.1175
  316MOL0     H42605   8.489   8.661   2.227  2.7081 -0.7604  1.1697
  316MOL0     H42606   8.384   8.682   2.363  0.7847 -1.6547  1.5298
  316MOL0     H42607   8.518   8.554   2.504  0.9885  2.4911 -0.0801
  316MOL0     H42608   8.595   8.462   2.387 -0.4482 -1.3495  1.3250
  316MOL0     H42609   8.714   8.710   2.501  1.7904  3.9606 -1.2977
  316MOL0     H42610   8.631   8.763   2.356 -0.6905 -0.4070  0.2610
  316MOL0     H42611   8.879   8.526   2.488 -1.1623  1.6708 -0.0075
  316MOL0     H42612   9.114   8.382   2.335 -1.0442 -1.5817 -0.9095
  316MOL0     H42613   9.149   8.504   2.209  2.2252  2.0106  2.3702
  316MOL0     H42614   9.313   8.518   2.414  0.3561  0.6387  1.3787
  316MOL0     H42615   9.162   8.535   2.514  1.5957  0.6180  0.5753
  316MOL0     H42616   9.307   8.740   2.475  0.4725 -0.3538  0.9680
  316MOL0     H42617   9.137   8.760   2.429  1.1546  0.4447  3.0723
  316MOL0     H42618   9.285   8.884   2.259  0.0699  0.9001  1.4283
  316MOL0     H42619   9.208   8.739   2.188  0.2801 -0.4082 -1.0395
  316MOL0     H42620   9.393   8.932   2.090  0.9064  0.4651 -0.5882
  316MOL0     H42621   9.390   9.042   1.854  1.4320  3.3962 -2.8341
  316MOL0     H42622   9.552   9.069   1.882 -2.7834  1.0938  0.7177
  316MOL0     H42623   9.489   8.981   1.735  1.0028  0.9682 -0.3536
  316MOL0     H42624   9.620   8.467   1.463 -0.3766  0.4523 -0.1843
  316MOL0     H42625   9.706   8.475   1.236 -2.2639  0.0717 -0.2121
  316MOL0     H42626   9.876   8.553   1.052  1.2232 -0.5320 -2.1575
  316MOL0     H42627   9.712   8.516   1.001  3.3492 -2.7358 -3.6853
  316MOL0     H42628   9.864   8.561   0.807 -2.4105 -2.9290  2.3257
  316MOL0     H42629   9.708   8.644   0.818  0.3286  0.6571 -1.3277
  316MOL0     H42630   9.983   8.778   0.861  0.2457  3.0176 -0.9602
  316MOL0     H42631   9.818   8.851   0.897 -1.2589 -0.4597 -0.3076
  316MOL0     H42632   9.916   8.727   0.631 -1.8923  2.0977 -1.9348
  316MOL0     H42633   9.760   8.800   0.669 -1.1830 -2.7454  2.2940
  316MOL0     H42634   9.990   8.910   0.546  1.2192 -0.9738  0.2925
  316MOL0     H42635  10.022   8.929   0.723 -0.7320 -1.2901 -0.5267
  316MOL0     H42636   9.768   9.025   0.582 -0.0977  0.0475  0.8004
  316MOL0     H42637   9.846   9.080   0.743  3.8709 -1.4108  1.1818
  316MOL0     H42638   9.999   9.146   0.493  0.5839  1.5620 -0.0363
  316MOL0     H42639   9.968   9.236   0.633  0.6951  2.1397 -0.1435
  316MOL0     H42640   9.744   9.299   0.565 -0.3243 -1.7981  0.5610
  316MOL0     H42641   9.746   9.211   0.417  0.0974  0.2841 -1.9892
  316MOL0     H42642   9.693   8.900   1.227 -0.6596  0.4980  0.2603
  316MOL0     H42643   9.602   8.897   1.471 -2.3875 -0.7874  0.9530
  316MOL0     H42644   9.631   8.559   1.869  3.0307  1.3059 -1.0696
  316MOL0     H42645   9.555   8.549   2.122 -0.0299  1.3796  2.8388
  316MOL0     H42646   8.391   8.267   2.942 -0.9078 -0.1535 -2.9964
  316MOL0     H42647   8.398   8.181   3.143  0.4785  0.1607 -2.7997
  316MOL0     H42648   8.085   8.099   3.569  2.9261  2.1856 -1.5614
  316MOL0     H42649   8.054   8.025   3.790  2.0830  2.7270  1.2032
  316MOL0     H42650   8.010   7.915   3.967 -0.2381 -0.1965  0.7750
  316MOL0     H42651   8.017   7.735   3.944 -1.2748  0.4730  1.6557
  316MOL0     H42652   8.101   7.685   4.138  2.8091 -0.7876 -4.0937
  316MOL0     H42653   7.989   7.816   4.176  0.2474 -0.9734  0.4551
  316MOL0     H42654   8.286   7.863   4.164  0.6738  0.7593 -0.1082
  316MOL0     H42655   8.189   7.839   4.314  0.2959 -0.6393 -0.4231
  316MOL0     H42656   8.085   8.027   4.313 -0.0406  0.4411  0.0132
  316MOL0     H42657   8.095   8.049   4.131  1.8693 -1.0695 -1.3296
  316MOL0     H42658   8.449   8.246   4.212 -3.3846  3.6838  1.0413
  316MOL0     H42659   8.393   7.776   3.762  0.1181  0.1323  1.0456
  316MOL0     H42660   8.403   7.843   3.498 -3.6517 -1.9790 -3.2403
  317MOL0     O42661   9.788   2.511   6.201 -0.7000  0.0965  0.6410
  317MOL0     C42662   9.727   2.602   6.269 -0.0480  0.4686  0.5456
  317MOL0     O42663   9.760   2.647   6.394  0.2295 -0.1815 -0.6425
  317MOL0     C42664   9.884   2.618   6.438 -0.4068  0.5940 -0.0309
  317MOL0     C42665  10.003   2.653   6.377  0.1002  0.0404  0.5652
  317MOL0     C42666  10.125   2.611   6.427 -1.0300  0.5146  0.1760
  317MOL0     C42667  10.141   2.547   6.548  0.0388  1.0947 -0.3406
  317MOL0     O42668  10.268   2.519   6.596 -0.7212 -0.6248 -0.4243
  317MOL0     C42669  10.350   2.435   6.518 -0.5966 -0.7264 -0.4212
  317MOL0     C42670  10.478   2.401   6.598  0.6669  0.0281  0.3911
  317MOL0     C42671  10.464   2.332   6.726  0.6583 -0.2155  0.2735
  317MOL0     C42672  10.433   2.180   6.701  0.7926  0.1169 -0.1455
  317MOL0     C42673  10.435   2.094   6.826  0.2876 -0.8216 -0.7397
  317MOL0     C42674  10.384   1.960   6.782 -0.0795  0.3207  0.6093
  317MOL0     C42675  10.416   1.865   6.895  0.1085 -0.4254 -0.8034
  317MOL0     C42676  10.360   1.727   6.873 -0.4258 -0.2750 -0.9613
  317MOL0     N42677  10.414   1.663   6.762  0.3225 -0.9278 -0.9313
  317MOL0     C42678  10.539   1.653   6.730 -0.6920 -0.0828  0.9770
  317MOL0     C42679  10.555   1.624   6.603 -0.3644  1.2863 -0.9303
  317MOL0     C42680  10.680   1.588   6.523  0.0937  0.6179 -1.1270
  317MOL0     C42681  10.694   1.440   6.503 -0.3323 -0.0763 -0.6858
  317MOL0     C42682  10.621   1.376   6.381 -0.8018  1.3770  0.4662
  317MOL0     C42683  10.646   1.213   6.375  0.6449 -0.0241  0.0731
  317MOL0     O42684  10.774   1.187   6.322  0.4856  0.7533  0.6095
  317MOL0     C42685  10.814   1.053   6.313  0.9037 -0.0245  0.7535
  317MOL0     C42686  10.734   0.943   6.338 -0.6845 -0.0929 -1.2836
  317MOL0     C42687  10.786   0.812   6.334 -0.4632 -0.3441 -0.0683
  317MOL0     C42688  10.698   0.701   6.374  0.4127  0.4176 -0.3698
  317MOL0     C42689  10.921   0.793   6.290  0.0066 -0.4395  0.0909
  317MOL0     C42690  10.994   0.664   6.295  0.5184  0.2183  0.4309
  317MOL0     O42691  11.133   0.668   6.302  0.4124  0.6112 -0.1491
  317MOL0     C42692  11.209   0.557   6.323 -0.6001  0.8871 -1.0880
  317MOL0     C42693  11.165   0.430   6.372  0.2445  0.5195 -0.0163
  317MOL0     C42694  11.251   0.320   6.388  0.0033 -0.3760  0.0284
  317MOL0     C42695  11.387   0.338   6.358  0.1236 -0.1472  0.5731
  317MOL0     O42696  11.481   0.235   6.403  1.1092 -0.1623  0.3332
  317MOL0     C42697  11.448   0.102   6.425 -0.7385  0.5604 -0.6903
  317MOL0     C42698  11.376   0.034   6.313 -1.0213 -0.0924  0.5949
  317MOL0     C42699  11.427  -0.097   6.258  0.3096  1.2158  0.6640
  317MOL0     C42700  11.450  -0.211   6.362  0.3412  0.6653  0.7389
  317MOL0     C42701  11.514  -0.340   6.292  0.1776  0.1600  0.3836
  317MOL0     C42702  11.468  -0.461   6.367  0.1990 -0.3331  0.0087
  317MOL0     C42703  11.511  -0.591   6.308 -0.9321  0.3552  0.1491
  317MOL0     C42704  11.478  -0.712   6.399  0.4417 -0.0815  0.1753
  317MOL0    Cl42705  11.615  -0.825   6.426  0.0889 -0.1698  0.3197
  317MOL0     C42706  11.432   0.464   6.317  0.7693  0.9182  0.0087
  317MOL0     C42707  11.346   0.569   6.295 -0.0076 -0.0787 -0.0578
  317MOL0     O42708  10.925   0.562   6.297  0.3083 -0.4240 -0.5685
  317MOL0     C42709  10.999   0.901   6.248  0.1486 -0.0791 -0.6000
  317MOL0     C42710  10.943   1.031   6.258 -0.4041  1.0692  0.3677
  317MOL0     N42711  10.427   1.598   6.559  0.0021 -0.8860 -0.6683
  317MOL0     N42712  10.345   1.633   6.652 -0.5195  0.1535  1.1523
  317MOL0     C42713  10.027   2.533   6.626 -0.5782 -0.5424  1.3671
  317MOL0     C42714   9.898   2.570   6.570 -0.7016 -0.0629 -0.1398
  317MOL0     C42715   9.612   2.682   6.204 -0.1736 -1.0464 -0.4709
  317MOL0     C42716   9.583   2.686   6.069 -0.3443  0.0361  0.0530
  317MOL0     C42717   9.490   2.775   6.010  0.0878  0.2949  0.1154
  317MOL0     C42718   9.406   2.842   6.089  0.2556 -1.1447 -0.3264
  317MOL0     O42719   9.327   2.935   6.026  0.1268  0.2740  0.6899
  317MOL0     C42720   9.247   3.019   6.111  0.6547  0.3085 -0.1565
  317MOL0     C42721   9.158   3.119   6.028  0.3441  0.7561 -0.3358
  317MOL0     C42722   9.079   3.208   6.128 -0.6036  0.0793  0.5711
  317MOL0     C42723   8.927   3.215   6.111 -0.4090 -0.0553 -0.0146
  317MOL0     C42724   8.893   3.329   6.026  0.1198  0.1891  0.6470
  317MOL0     C42725   8.855   3.424   5.951 -0.5025 -0.4759 -0.2073
  317MOL0     C42726   9.421   2.832   6.233 -0.5657 -0.2652  0.4811
  317MOL0     C42727   9.522   2.753   6.286  0.9344  0.1636 -0.6494
  317MOL0     H42728  10.016   2.695   6.278  0.7136  1.5302  1.2438
  317MOL0     H42729  10.215   2.628   6.370 -1.1157 -1.2567 -0.5647
  317MOL0     H42730  10.285   2.349   6.498 -1.8424 -0.9699  3.7928
  317MOL0     H42731  10.385   2.488   6.429 -0.2620 -0.1083  0.0714
  317MOL0     H42732  10.537   2.333   6.536  2.3730 -0.2951  2.2623
  317MOL0     H42733  10.549   2.482   6.615  2.1499 -0.5927 -2.2898
  317MOL0     H42734  10.557   2.344   6.781  2.4015 -2.6672 -1.9153
  317MOL0     H42735  10.380   2.374   6.782  0.8230 -1.7384  1.7520
  317MOL0     H42736  10.342   2.166   6.642  0.8833  1.9363 -0.7799
  317MOL0     H42737  10.504   2.146   6.625  0.4011  0.7323 -0.8028
  317MOL0     H42738  10.535   2.101   6.870  0.1386  3.7716 -0.5905
  317MOL0     H42739  10.358   2.136   6.892  0.7372 -0.9754 -0.1129
  317MOL0     H42740  10.281   1.967   6.745  0.4816  0.2358 -1.0873
  317MOL0     H42741  10.452   1.946   6.697  1.1407  4.4098  0.7019
  317MOL0     H42742  10.521   1.849   6.918  1.0498  2.2455 -2.7281
  317MOL0     H42743  10.365   1.889   6.989 -0.1600 -3.1823 -0.1618
  317MOL0     H42744  10.251   1.733   6.864 -0.6045  0.4565  1.1414
  317MOL0     H42745  10.394   1.672   6.961  0.4771 -1.1981 -1.8637
  317MOL0     H42746  10.623   1.680   6.794 -3.4834 -0.2053  5.0034
  317MOL0     H42747  10.665   1.648   6.432 -1.4253  3.0182  0.5757
  317MOL0     H42748  10.774   1.622   6.569 -1.2148 -0.1145  2.3787
  317MOL0     H42749  10.661   1.398   6.598 -2.6953  0.5079 -1.1817
  317MOL0     H42750  10.801   1.421   6.493 -0.6268 -0.5759 -6.0824
  317MOL0     H42751  10.666   1.425   6.294  1.2192  1.7322  1.6394
  317MOL0     H42752  10.512   1.387   6.384 -0.7061  3.2242 -1.0586
  317MOL0     H42753  10.580   1.180   6.294 -0.7718  2.2632  0.2007
  317MOL0     H42754  10.611   1.158   6.463  1.0863 -0.1149  0.1957
  317MOL0     H42755  10.631   0.958   6.367 -0.0352  0.2025  1.1407
  317MOL0     H42756  10.612   0.745   6.426 -0.6453  0.6443 -2.2203
  317MOL0     H42757  10.667   0.642   6.287 -0.5760  0.1225  0.1726
  317MOL0     H42758  10.747   0.628   6.440  1.7194 -1.5252 -3.2812
  317MOL0     H42759  11.065   0.407   6.408 -0.3891  2.3936 -0.4616
  317MOL0     H42760  11.206   0.224   6.411 -3.3650  0.1246 -3.5152
  317MOL0     H42761  11.539   0.053   6.461  0.1229  1.6721 -1.2967
  317MOL0     H42762  11.374   0.104   6.506 -0.8713  1.5696 -0.8304
  317MOL0     H42763  11.270   0.024   6.338 -0.5547 -1.7085  2.1172
  317MOL0     H42764  11.394   0.108   6.235 -1.4388 -0.9599 -0.3488
  317MOL0     H42765  11.515  -0.067   6.201  0.8111  2.8273  2.1952
  317MOL0     H42766  11.344  -0.128   6.193  0.4668 -0.7387  1.3464
  317MOL0     H42767  11.513  -0.173   6.444  1.2991 -0.5794  0.6122
  317MOL0     H42768  11.350  -0.226   6.403  0.4926 -4.1818 -0.0827
  317MOL0     H42769  11.623  -0.330   6.286  0.1385  1.9487  1.6483
  317MOL0     H42770  11.471  -0.344   6.192 -4.6572  1.9529  2.0514
  317MOL0     H42771  11.502  -0.439   6.468  0.1700 -1.0793  0.1895
  317MOL0     H42772  11.359  -0.467   6.369  0.0207  2.1267 -0.1307
  317MOL0     H42773  11.620  -0.603   6.305 -1.2067 -3.5356 -2.1004
  317MOL0     H42774  11.471  -0.608   6.207  2.0226 -2.5542 -0.7075
  317MOL0     H42775  11.384  -0.747   6.357  0.7187 -0.6170 -0.0057
  317MOL0     H42776  11.456  -0.677   6.500  2.8070  0.2445  0.6377
  317MOL0     H42777  11.535   0.475   6.283  0.9838  0.2146  0.4067
  317MOL0     H42778  11.377   0.663   6.251 -2.8780 -0.5621 -3.6591
  317MOL0     H42779  11.100   0.884   6.213 -0.2451 -2.5227 -0.7327
  317MOL0     H42780  11.016   1.110   6.241  3.2842 -1.7182  1.6503
  317MOL0     H42781  10.045   2.503   6.729 -3.0583 -4.6634  0.8325
  317MOL0     H42782   9.820   2.588   6.643  0.4464  3.1884  0.4715
  317MOL0     H42783   9.651   2.628   6.007  2.2871 -0.7306  3.3579
  317MOL0     H42784   9.492   2.789   5.903  4.4401  1.9796  0.2228
  317MOL0     H42785   9.182   2.958   6.175 -2.1860 -0.0270 -3.0828
  317MOL0     H42786   9.312   3.081   6.173  2.1225 -0.9267 -0.4186
  317MOL0     H42787   9.102   3.061   5.954  1.9007 -0.9341 -0.2490
  317MOL0     H42788   9.220   3.189   5.970  1.0248  1.9490  1.7156
  317MOL0     H42789   9.108   3.313   6.116 -1.4106  0.1017 -1.5325
  317MOL0     H42790   9.113   3.184   6.229  0.0951  0.5454  0.4544
  317MOL0     H42791   8.879   3.202   6.208  4.4663 -1.5063  2.5310
  317MOL0     H42792   8.903   3.131   6.045  0.1164  2.1540 -3.3103
  317MOL0     H42793   8.816   3.508   5.897 -1.8471  0.3364  1.9263
  317MOL0     H42794   9.367   2.902   6.295  0.2917 -1.3933  2.6206
  317MOL0     H42795   9.547   2.758   6.391  2.9173 -1.5540 -0.9757
  318MOL0     O42796   6.929   7.893   7.606 -0.2689 -0.1054 -0.5526
  318MOL0     C42797   6.927   7.870   7.484 -0.7938 -0.2295 -0.5750
  318MOL0     O42798   6.879   7.957   7.390  0.6915  0.3813 -0.2956
  318MOL0     C42799   6.858   8.094   7.416 -0.8071 -0.1852  0.7206
  318MOL0     C42800   6.934   8.182   7.511 -0.9489 -0.3258  0.9890
  318MOL0     C42801   6.890   8.318   7.520  0.5241 -0.1523 -0.1269
  318MOL0     C42802   6.793   8.372   7.427  0.2177 -0.6327 -0.6079
  318MOL0     O42803   6.745   8.502   7.435 -0.0117 -0.8406  0.9025
  318MOL0     C42804   6.845   8.608   7.410 -0.4370 -0.0655  0.0984
  318MOL0     C42805   6.805   8.758   7.426 -0.7886  0.5328 -0.5871
  318MOL0     C42806   6.783   8.793   7.579 -0.3832 -0.3359  0.0508
  318MOL0     C42807   6.703   8.914   7.584 -0.5722  0.8463 -0.3669
  318MOL0     C42808   6.560   8.906   7.528  0.0524 -0.3144  0.2082
  318MOL0     C42809   6.458   8.847   7.635 -0.8253 -0.3605  1.3157
  318MOL0     C42810   6.332   8.798   7.563 -0.8855 -0.8407  0.3574
  318MOL0     C42811   6.358   8.670   7.478  1.4346  0.9625 -0.2113
  318MOL0     N42812   6.233   8.590   7.480  0.6362  0.1808 -1.1702
  318MOL0     C42813   6.176   8.530   7.592 -0.0040  0.2924  0.2171
  318MOL0     C42814   6.051   8.487   7.561 -0.3057 -0.0315  1.2803
  318MOL0     C42815   5.957   8.398   7.640 -0.3427 -1.0369 -0.0977
  318MOL0     C42816   5.889   8.478   7.753  1.0319  0.0170 -0.7530
  318MOL0     C42817   5.752   8.426   7.796  0.4932  0.4526  0.5945
  318MOL0     C42818   5.710   8.511   7.927  0.1497  0.8878 -0.0805
  318MOL0     O42819   5.752   8.432   8.036  0.1657 -0.1994 -0.5480
  318MOL0     C42820   5.848   8.477   8.126 -0.3048  0.1934  0.2477
  318MOL0     C42821   5.919   8.388   8.197  0.7431  0.4311 -0.5860
  318MOL0     C42822   6.014   8.425   8.292 -0.6574  0.1783 -0.3699
  318MOL0     C42823   6.093   8.316   8.369 -0.3969  0.1983 -0.8867
  318MOL0     C42824   6.037   8.570   8.304  0.1272  0.3710 -0.0843
  318MOL0     C42825   6.151   8.630   8.371  0.5600 -0.0577  0.3185
  318MOL0     O42826   6.210   8.550   8.460 -0.9037  0.1503 -0.6811
  318MOL0     C42827   6.326   8.585   8.513 -0.6662  0.6153  0.0621
  318MOL0     C42828   6.441   8.613   8.442 -0.5350 -0.9085  0.2537
  318MOL0     C42829   6.561   8.641   8.508  0.9951  0.8072 -0.5993
  318MOL0     C42830   6.563   8.662   8.646 -0.8305  0.2541  0.0180
  318MOL0     O42831   6.682   8.700   8.711 -0.6537  0.1443  0.3381
  318MOL0     C42832   6.683   8.735   8.847  0.1018 -1.1122 -0.7319
  318MOL0     C42833   6.827   8.811   8.875 -0.0264  0.4628  0.4574
  318MOL0     C42834   6.955   8.735   8.848 -0.1770 -0.5351  0.4594
  318MOL0     C42835   6.995   8.720   8.700 -0.3152 -0.0410 -0.0117
  318MOL0     C42836   7.137   8.680   8.665  1.7746 -0.1684  0.5407
  318MOL0     C42837   7.150   8.715   8.510 -0.0495 -0.1858  0.4118
  318MOL0     C42838   7.297   8.674   8.452  0.1433 -0.1260 -0.7795
  318MOL0     C42839   7.332   8.732   8.311  0.1487  1.2307 -0.3968
  318MOL0    Cl42840   7.506   8.676   8.305  0.0041  0.3583 -0.7170
  318MOL0     C42841   6.457   8.641   8.716 -0.2415  0.0456 -0.1865
  318MOL0     C42842   6.337   8.603   8.651 -0.2704 -1.1236  0.2831
  318MOL0     O42843   6.179   8.744   8.354  0.1328 -0.1892 -0.0255
  318MOL0     C42844   5.955   8.661   8.232  0.3186  0.9781  0.1766
  318MOL0     C42845   5.859   8.611   8.150  1.0611  0.6297 -0.4297
  318MOL0     N42846   6.027   8.528   7.432 -0.4186 -0.1736 -0.4226
  318MOL0     N42847   6.136   8.592   7.388 -0.4348  0.0642 -0.6639
  318MOL0     C42848   6.732   8.293   7.335  0.6832 -0.4177  1.4912
  318MOL0     C42849   6.757   8.154   7.342 -0.1846 -0.4534 -0.0047
  318MOL0     C42850   6.977   7.736   7.450  0.0663 -0.1321 -0.4483
  318MOL0     C42851   7.044   7.662   7.544  0.9970  0.1335 -0.3976
  318MOL0     C42852   7.095   7.540   7.494 -0.1452  0.2516 -0.4519
  318MOL0     C42853   7.089   7.494   7.361 -0.5200 -0.4963 -0.7632
  318MOL0     O42854   7.137   7.377   7.313 -0.3716  0.2220  0.1054
  318MOL0     C42855   7.221   7.296   7.394 -1.2122  0.1072  0.3192
  318MOL0     C42856   7.267   7.169   7.317 -0.9204  0.4395  0.6974
  318MOL0     C42857   7.346   7.204   7.190 -0.3815 -0.3991  0.3369
  318MOL0     C42858   7.390   7.076   7.118 -0.6895 -0.0342  0.4419
  318MOL0     C42859   7.427   7.108   6.971  0.2156  0.3102  0.0847
  318MOL0     C42860   7.463   7.138   6.859  0.4334  0.3226 -0.5484
  318MOL0     C42861   7.020   7.573   7.276 -0.0942  0.5039  0.0150
  318MOL0     C42862   6.949   7.691   7.321 -0.5738 -0.8235  0.4827
  318MOL0     H42863   7.018   8.137   7.562 -2.1133 -1.3774  2.0388
  318MOL0     H42864   6.933   8.374   7.602  2.1818  1.3197 -1.8980
  318MOL0     H42865   6.926   8.572   7.474  0.1659 -1.2853 -1.2822
  318MOL0     H42866   6.878   8.602   7.306 -0.9105  4.7534 -0.5262
  318MOL0     H42867   6.888   8.818   7.386  1.3609 -1.3313  0.8616
  318MOL0     H42868   6.720   8.772   7.359 -4.1597  0.0606  3.2091
  318MOL0     H42869   6.728   8.722   7.643  0.9671  1.3012  3.2578
  318MOL0     H42870   6.879   8.811   7.629  1.1566 -2.7000 -1.8146
  318MOL0     H42871   6.708   8.944   7.690 -0.6246 -0.7811  0.1257
  318MOL0     H42872   6.754   8.990   7.526  0.3934  1.2248  0.9212
  318MOL0     H42873   6.531   9.010   7.507 -2.1151  0.0534  4.0467
  318MOL0     H42874   6.553   8.865   7.427 -1.4864 -1.2282  0.6535
  318MOL0     H42875   6.510   8.766   7.686  0.8699 -1.5943 -2.0549
  318MOL0     H42876   6.429   8.928   7.701  1.0340  1.0204  0.5313
  318MOL0     H42877   6.255   8.786   7.639 -1.9323  1.1731 -0.3235
  318MOL0     H42878   6.299   8.878   7.497  2.9310  1.9830  1.4948
  318MOL0     H42879   6.448   8.612   7.503  0.3040 -0.6991  0.1063
  318MOL0     H42880   6.369   8.708   7.375 -2.3301  2.2632 -0.2776
  318MOL0     H42881   6.233   8.512   7.683  2.1559  2.5710 -0.5477
  318MOL0     H42882   5.892   8.364   7.559  4.2756 -5.2859 -2.6443
  318MOL0     H42883   6.011   8.309   7.674  0.4357 -0.3789  0.4285
  318MOL0     H42884   5.867   8.580   7.721  0.8209 -0.1255 -1.0582
  318MOL0     H42885   5.962   8.478   7.834 -2.0637 -2.1974  2.3818
  318MOL0     H42886   5.753   8.316   7.799  0.9971  0.3212 -1.9928
  318MOL0     H42887   5.683   8.446   7.713  4.2159  2.2985 -2.3648
  318MOL0     H42888   5.602   8.522   7.934 -0.7847 -4.7212 -0.6488
  318MOL0     H42889   5.759   8.609   7.924  4.5103 -1.0415  0.3975
  318MOL0     H42890   5.893   8.285   8.172  0.7973  0.2976 -0.0943
  318MOL0     H42891   6.201   8.313   8.351 -0.1886 -0.2986  0.3777
  318MOL0     H42892   6.078   8.346   8.473  2.3845  1.0249 -0.6406
  318MOL0     H42893   6.057   8.215   8.346  1.9200 -1.3798  1.8860
  318MOL0     H42894   6.439   8.602   8.334  2.0132 -3.1921  0.3348
  318MOL0     H42895   6.655   8.651   8.455 -0.4082 -0.7972 -3.6962
  318MOL0     H42896   6.604   8.811   8.850 -0.7587 -2.0048  0.0655
  318MOL0     H42897   6.650   8.665   8.924 -0.8739 -1.5828 -1.5524
  318MOL0     H42898   6.826   8.902   8.814 -2.2513 -0.3041 -0.7628
  318MOL0     H42899   6.834   8.843   8.980  0.5159  1.5752  0.1030
  318MOL0     H42900   6.940   8.636   8.893  0.4225 -1.3008 -0.9525
  318MOL0     H42901   7.038   8.787   8.898  1.1544 -3.3043  1.3716
  318MOL0     H42902   6.923   8.650   8.657  2.2553 -2.6350 -0.3479
  318MOL0     H42903   6.981   8.822   8.661 -3.0060 -0.5608 -0.6190
  318MOL0     H42904   7.164   8.575   8.681  1.1656 -0.2660  0.9472
  318MOL0     H42905   7.209   8.738   8.723  1.6453  0.6183 -0.0763
  318MOL0     H42906   7.094   8.657   8.436  4.2084 -0.8048 -2.7098
  318MOL0     H42907   7.130   8.814   8.470 -1.1669 -1.4826 -2.5872
  318MOL0     H42908   7.321   8.569   8.469 -1.1882 -0.3935 -0.4676
  318MOL0     H42909   7.358   8.734   8.521 -0.7016  0.2212 -0.3204
  318MOL0     H42910   7.321   8.840   8.296  0.2324  1.2830 -0.0757
  318MOL0     H42911   7.277   8.678   8.233  1.1931  0.9117 -0.9318
  318MOL0     H42912   6.461   8.649   8.824 -1.3325 -0.3626 -0.1012
  318MOL0     H42913   6.246   8.586   8.708  1.5587 -3.1700  2.8163
  318MOL0     H42914   5.952   8.767   8.254 -2.6709  1.0009  0.0213
  318MOL0     H42915   5.778   8.667   8.105 -1.5179 -2.8132 -0.4754
  318MOL0     H42916   6.657   8.328   7.264  0.3131 -3.9109 -0.0477
  318MOL0     H42917   6.686   8.091   7.289 -2.4322  1.3697  0.6869
  318MOL0     H42918   7.060   7.683   7.649 -0.8906 -2.3123  0.4738
  318MOL0     H42919   7.131   7.464   7.562  1.6895  0.8693 -0.6875
  318MOL0     H42920   7.312   7.350   7.419  0.5583 -1.7147 -1.7413
  318MOL0     H42921   7.167   7.255   7.481 -1.4794  0.3642  0.2768
  318MOL0     H42922   7.181   7.106   7.292  2.0208 -3.4691 -0.5303
  318MOL0     H42923   7.333   7.106   7.376 -2.5097 -2.6378 -0.5861
  318MOL0     H42924   7.436   7.263   7.208 -1.9401  2.5923 -0.8732
  318MOL0     H42925   7.275   7.260   7.128 -0.8971  1.4249  2.4655
  318MOL0     H42926   7.302   7.012   7.127 -0.5954 -0.3482 -0.7447
  318MOL0     H42927   7.474   7.025   7.166  0.7220  1.9807  0.2703
  318MOL0     H42928   7.486   7.178   6.762 -1.8512  2.2218 -0.3993
  318MOL0     H42929   7.011   7.545   7.172  2.2292 -2.0121  0.3908
  318MOL0     H42930   6.902   7.761   7.253  2.6863  0.1406 -1.0045
  319MOL0     O42931   8.199   4.882   1.327 -0.4378  0.1567 -0.0940
  319MOL0     C42932   8.084   4.894   1.360 -0.8758 -0.0375 -0.8265
  319MOL0     O42933   8.030   5.008   1.412 -0.4807 -0.5531 -0.5964
  319MOL0     C42934   8.093   5.130   1.416  0.6098  0.2885 -0.1399
  319MOL0     C42935   8.024   5.233   1.346  0.7571 -0.8090  0.4942
  319MOL0     C42936   8.074   5.362   1.357 -0.1633 -0.1696 -0.5380
  319MOL0     C42937   8.191   5.393   1.427  0.2689  0.1851  0.0632
  319MOL0     O42938   8.225   5.524   1.442 -0.2663 -0.5729  0.6152
  319MOL0     C42939   8.332   5.575   1.519 -0.1733  0.2154  0.3330
  319MOL0     C42940   8.470   5.535   1.460  0.2541 -0.2456 -0.0160
  319MOL0     C42941   8.590   5.590   1.522 -0.5070 -0.0145 -0.1376
  319MOL0     C42942   8.710   5.505   1.480  0.1758  0.1907 -0.2117
  319MOL0     C42943   8.737   5.508   1.327 -0.0320 -0.1396  0.7021
  319MOL0     C42944   8.888   5.511   1.289  0.1288 -0.4308  0.8445
  319MOL0     C42945   8.947   5.373   1.330  0.0724 -0.4543  0.1427
  319MOL0     C42946   9.091   5.367   1.293 -0.5528 -0.1557 -0.1152
  319MOL0     N42947   9.157   5.234   1.316 -0.8233  0.2715 -0.6951
  319MOL0     C42948   9.098   5.108   1.330  0.2880 -0.2253 -0.6123
  319MOL0     C42949   9.188   5.024   1.381  0.7510 -0.1521 -0.2646
  319MOL0     C42950   9.143   4.894   1.440 -1.1594  0.6196  1.1482
  319MOL0     C42951   9.245   4.777   1.411 -0.7330 -0.6472 -0.1587
  319MOL0     C42952   9.374   4.789   1.495  0.1774  0.6466  0.9008
  319MOL0     C42953   9.359   4.830   1.638 -0.6553 -0.0600  0.1847
  319MOL0     O42954   9.472   4.785   1.708  0.0656  0.2004 -1.0706
  319MOL0     C42955   9.508   4.862   1.812 -0.6489 -0.6298  1.1306
  319MOL0     C42956   9.508   4.805   1.934 -0.0554 -0.0737  1.2790
  319MOL0     C42957   9.545   4.873   2.050  0.3759 -0.3185 -1.5623
  319MOL0     C42958   9.535   4.793   2.175  0.1916  0.1171 -0.0664
  319MOL0     C42959   9.565   5.020   2.035 -0.5589  0.4233 -0.1525
  319MOL0     C42960   9.601   5.110   2.149 -0.3148  0.0886  0.1253
  319MOL0     O42961   9.631   5.243   2.124  0.4068  0.3794  0.7994
  319MOL0     C42962   9.660   5.316   2.235 -0.3410 -0.4068 -0.6381
  319MOL0     C42963   9.575   5.341   2.338  0.4133 -0.2701 -0.4081
  319MOL0     C42964   9.625   5.411   2.451  0.0434 -0.0933 -0.8110
  319MOL0     C42965   9.760   5.458   2.457 -0.3056 -0.2382  0.6048
  319MOL0     O42966   9.821   5.519   2.566 -0.7103  0.5728 -0.3171
  319MOL0     C42967   9.866   5.444   2.686  0.3033 -0.1879  0.4987
  319MOL0     C42968   9.983   5.347   2.660  0.8211  0.3872  0.5487
  319MOL0     C42969  10.018   5.256   2.786 -0.5323 -1.0895  0.0924
  319MOL0     C42970  10.059   5.343   2.913  0.2078  1.2636 -0.0370
  319MOL0     C42971   9.949   5.402   3.004  0.8323 -0.5188  0.8954
  319MOL0     C42972  10.014   5.477   3.128 -1.1440  0.2247  1.1152
  319MOL0     C42973   9.914   5.500   3.239  0.1317  0.2223 -0.3725
  319MOL0     C42974   9.789   5.576   3.206  0.0935  0.8051 -0.4699
  319MOL0    Cl42975   9.705   5.615   3.360  0.2453  0.5729 -0.3706
  319MOL0     C42976   9.834   5.454   2.344  0.3299 -0.3638  1.1607
  319MOL0     C42977   9.790   5.377   2.234 -0.4110  0.4259 -0.0623
  319MOL0     O42978   9.625   5.055   2.255  0.5259 -0.3843  0.0018
  319MOL0     C42979   9.567   5.075   1.907  0.2730 -0.7938 -0.5442
  319MOL0     C42980   9.534   4.999   1.791 -0.3166  1.4228  0.0053
  319MOL0     N42981   9.295   5.104   1.415  0.5735 -0.6454 -0.0558
  319MOL0     N42982   9.290   5.222   1.354 -0.6323  0.0685  0.8675
  319MOL0     C42983   8.258   5.283   1.486 -0.0875  0.7930 -0.2041
  319MOL0     C42984   8.208   5.151   1.476  0.0591 -0.3531 -0.7485
  319MOL0     C42985   7.991   4.786   1.352  0.7510 -0.3889  0.8490
  319MOL0     C42986   8.023   4.650   1.346 -0.3482  0.3539 -0.0690
  319MOL0     C42987   7.928   4.546   1.354 -0.6527 -0.1641 -0.3492
  319MOL0     C42988   7.793   4.580   1.357 -0.8736  0.9229 -0.8220
  319MOL0     O42989   7.691   4.489   1.357 -0.0264  0.6689  0.1980
  319MOL0     C42990   7.686   4.413   1.476 -0.4364  0.2757  0.0217
  319MOL0     C42991   7.563   4.337   1.489  0.6918  0.3859  0.2779
  319MOL0     C42992   7.540   4.238   1.367  0.2300  0.5536  0.3003
  319MOL0     C42993   7.613   4.096   1.382  0.0359 -0.3646 -1.1070
  319MOL0     C42994   7.565   4.004   1.284 -0.4716 -0.1490 -0.6574
  319MOL0     C42995   7.535   3.923   1.198  0.4887 -0.9320 -0.5987
  319MOL0     C42996   7.761   4.717   1.348  0.3574  0.5601  0.9585
  319MOL0     C42997   7.853   4.818   1.348  0.3224  1.3032  0.5369
  319MOL0     H42998   7.933   5.218   1.289 -1.5362  1.3037  3.2458
  319MOL0     H42999   8.024   5.453   1.324  1.0133  1.5136  1.9785
  319MOL0     H43000   8.332   5.684   1.530 -0.3288  0.0101  2.9586
  319MOL0     H43001   8.328   5.523   1.615 -2.0466  1.2388  0.8532
  319MOL0     H43002   8.474   5.426   1.462 -0.6538 -0.3133 -1.1422
  319MOL0     H43003   8.473   5.560   1.354  1.2536  1.7188  0.4067
  319MOL0     H43004   8.595   5.694   1.489 -1.9159 -0.1430 -0.8263
  319MOL0     H43005   8.576   5.587   1.631 -1.7130  2.7413 -0.1379
  319MOL0     H43006   8.796   5.547   1.533 -2.0300  0.0501  3.8908
  319MOL0     H43007   8.696   5.404   1.520  0.7269  0.3880  0.5131
  319MOL0     H43008   8.677   5.427   1.285  0.3362 -0.5998  1.0503
  319MOL0     H43009   8.695   5.596   1.276 -0.7235 -0.5091  0.6250
  319MOL0     H43010   8.883   5.528   1.181  2.6680  1.1012  0.8752
  319MOL0     H43011   8.931   5.603   1.329 -0.2650  0.0691  0.1499
  319MOL0     H43012   8.939   5.365   1.439  0.2483  2.4912  0.4533
  319MOL0     H43013   8.873   5.309   1.280 -0.2006  1.0096 -1.4177
  319MOL0     H43014   9.136   5.427   1.374 -1.0303 -1.9984  1.5836
  319MOL0     H43015   9.120   5.401   1.194  2.1080 -0.8706  0.3264
  319MOL0     H43016   8.992   5.086   1.317  0.5854 -1.8289 -0.4976
  319MOL0     H43017   9.117   4.904   1.546 -2.7978 -1.4428  1.0275
  319MOL0     H43018   9.051   4.866   1.388 -0.8174  1.2620  0.1850
  319MOL0     H43019   9.283   4.783   1.309  1.3800  4.1886  0.6266
  319MOL0     H43020   9.199   4.679   1.427  0.0489 -0.9972  0.0182
  319MOL0     H43021   9.449   4.859   1.456 -0.5115  1.7059  1.4008
  319MOL0     H43022   9.413   4.688   1.501 -1.3331  0.1130  2.7493
  319MOL0     H43023   9.272   4.783   1.686  1.0065 -3.3028  0.2872
  319MOL0     H43024   9.337   4.937   1.647 -0.0295  0.1543 -0.6808
  319MOL0     H43025   9.483   4.699   1.933  0.5846 -0.3798 -3.3275
  319MOL0     H43026   9.435   4.813   2.215 -0.5404  0.5847 -2.0093
  319MOL0     H43027   9.541   4.685   2.158  0.8605  0.4174 -1.9752
  319MOL0     H43028   9.609   4.817   2.253 -0.2201 -3.8385  1.8036
  319MOL0     H43029   9.477   5.294   2.340 -0.3202  1.2369 -0.0390
  319MOL0     H43030   9.563   5.406   2.540 -0.4450  1.2787 -1.0567
  319MOL0     H43031   9.901   5.521   2.756 -0.7488 -0.9673  1.9188
  319MOL0     H43032   9.783   5.383   2.721  0.0888 -0.6204 -0.7110
  319MOL0     H43033   9.968   5.293   2.566  0.8806 -1.2841  1.4636
  319MOL0     H43034  10.062   5.420   2.641  0.3096  0.7119 -0.4243
  319MOL0     H43035  10.116   5.215   2.759  2.3485  3.5608  2.2778
  319MOL0     H43036   9.940   5.185   2.813 -1.1660 -0.0610  1.0453
  319MOL0     H43037  10.100   5.259   2.968 -0.6967 -0.2826 -1.6262
  319MOL0     H43038  10.122   5.429   2.888 -1.0740  1.7728 -1.7311
  319MOL0     H43039   9.902   5.306   3.026 -1.0583  0.0729 -0.4112
  319MOL0     H43040   9.882   5.469   2.950  1.2158 -2.7928 -2.7160
  319MOL0     H43041  10.102   5.426   3.168 -1.3214 -0.7825  0.2887
  319MOL0     H43042  10.058   5.572   3.098  0.3816 -0.7056  0.3009
  319MOL0     H43043   9.966   5.559   3.315 -0.4852  0.8812 -0.4582
  319MOL0     H43044   9.879   5.401   3.271  0.6801 -1.9956 -5.5514
  319MOL0     H43045   9.718   5.521   3.142 -1.2948 -0.8642  2.3186
  319MOL0     H43046   9.802   5.671   3.153 -1.9305  1.0515 -0.6300
  319MOL0     H43047   9.938   5.486   2.345  0.1052  0.4303  2.4549
  319MOL0     H43048   9.843   5.359   2.141 -0.4905  1.5054 -0.3270
  319MOL0     H43049   9.590   5.181   1.900  2.4323 -1.1474  0.5778
  319MOL0     H43050   9.541   5.053   1.697 -2.6364  1.6613 -0.0766
  319MOL0     H43051   8.344   5.292   1.552 -0.5726  0.2512  0.5224
  319MOL0     H43052   8.256   5.064   1.519 -3.1744 -3.6730 -3.1923
  319MOL0     H43053   8.128   4.625   1.348  0.7664  4.2821 -1.0118
  319MOL0     H43054   7.963   4.443   1.349 -1.6933 -0.6790  1.7402
  319MOL0     H43055   7.778   4.353   1.475 -0.9728 -0.5732 -0.8328
  319MOL0     H43056   7.696   4.476   1.565 -0.7610  0.0875  0.1941
  319MOL0     H43057   7.478   4.407   1.491  0.7538  0.4465  2.1705
  319MOL0     H43058   7.573   4.278   1.580  0.3254 -0.4816 -0.2351
  319MOL0     H43059   7.569   4.279   1.270 -0.7119  1.1202  0.2375
  319MOL0     H43060   7.431   4.230   1.362  0.0989  2.3508 -0.6212
  319MOL0     H43061   7.593   4.058   1.483  1.0025  2.4375  0.2565
  319MOL0     H43062   7.721   4.108   1.366  0.1028  0.3808 -0.1678
  319MOL0     H43063   7.519   3.852   1.120  0.4800 -1.2367 -0.3230
  319MOL0     H43064   7.655   4.740   1.341  0.1435 -0.9258 -3.0031
  319MOL0     H43065   7.822   4.920   1.328 -2.5629 -0.1787 -4.1132
  320MOL0     O43066   6.187  11.073   8.331  0.0964  0.1855  0.6801
  320MOL0     C43067   6.272  10.990   8.363 -0.6980  1.3990 -0.5594
  320MOL0     O43068   6.397  10.980   8.313  0.0565 -0.1240 -0.1971
  320MOL0     C43069   6.481  11.084   8.306 -0.1869  0.3920  0.7126
  320MOL0     C43070   6.532  11.092   8.179  0.4103 -0.5031 -1.2064
  320MOL0     C43071   6.619  11.198   8.147 -0.1302  0.2643 -0.2517
  320MOL0     C43072   6.640  11.304   8.242 -0.1465  0.5441  0.4022
  320MOL0     O43073   6.709  11.419   8.223  0.2097 -0.9842 -1.3288
  320MOL0     C43074   6.803  11.438   8.118 -0.6315 -0.6757  0.8066
  320MOL0     C43075   6.827  11.587   8.101  0.3277  1.2072  0.6851
  320MOL0     C43076   6.929  11.626   7.992 -0.4024 -0.4623  0.7083
  320MOL0     C43077   6.921  11.781   7.958 -0.1312  0.0449  0.4538
  320MOL0     C43078   7.036  11.832   7.865  0.1796 -0.3451  0.3059
  320MOL0     C43079   7.017  11.776   7.725 -0.3002  0.2403 -0.0133
  320MOL0     C43080   7.113  11.830   7.616  0.2662  0.5127  0.6674
  320MOL0     C43081   7.250  11.789   7.651 -0.1956  0.8434  0.3329
  320MOL0     N43082   7.345  11.779   7.539  0.3979  0.7638  0.0384
  320MOL0     C43083   7.416  11.883   7.476 -0.7224  0.0872  0.5453
  320MOL0     C43084   7.507  11.816   7.390  0.3853  0.7682 -0.5413
  320MOL0     C43085   7.608  11.878   7.297  0.3147  0.7679  0.6077
  320MOL0     C43086   7.695  11.983   7.375  0.4450 -1.2722 -0.0661
  320MOL0     C43087   7.817  11.936   7.450 -0.0178  0.4416  0.0310
  320MOL0     C43088   7.801  11.807   7.533 -0.7666 -0.1844  0.0168
  320MOL0     O43089   7.719  11.841   7.650  0.2292 -0.1724 -0.5976
  320MOL0     C43090   7.690  11.740   7.741 -0.6315 -0.3005  0.1842
  320MOL0     C43091   7.612  11.776   7.846  0.6034 -0.7121 -0.3275
  320MOL0     C43092   7.585  11.686   7.955 -0.4988  0.4745 -0.6766
  320MOL0     C43093   7.487  11.733   8.056  0.0349  0.4078 -0.6588
  320MOL0     C43094   7.639  11.557   7.948 -0.5795 -0.1842  0.2743
  320MOL0     C43095   7.612  11.441   8.039  0.1967  0.2071 -0.5346
  320MOL0     O43096   7.691  11.327   8.010  0.5174  0.5803 -0.9152
  320MOL0     C43097   7.665  11.199   8.055  0.2917  0.8676 -0.1735
  320MOL0     C43098   7.548  11.133   8.119 -0.6489 -0.7239 -0.1496
  320MOL0     C43099   7.545  10.996   8.148  0.8310  0.8005 -0.0612
  320MOL0     C43100   7.646  10.911   8.105  1.2907  0.0809  0.2359
  320MOL0     O43101   7.646  10.780   8.117 -0.4672  0.1062  0.3736
  320MOL0     C43102   7.520  10.712   8.135 -0.1221 -0.4982 -0.3073
  320MOL0     C43103   7.534  10.555   8.133 -0.7751 -0.7740 -0.7393
  320MOL0     C43104   7.611  10.515   8.256 -0.4106  0.2328 -0.9601
  320MOL0     C43105   7.628  10.359   8.268  0.1678 -0.2985 -0.6572
  320MOL0     C43106   7.668  10.328   8.409 -0.8264  0.1260  0.2562
  320MOL0     C43107   7.665  10.173   8.450 -0.0199 -0.0410 -0.2895
  320MOL0     C43108   7.532  10.106   8.419 -0.2944 -0.6990 -0.8118
  320MOL0     C43109   7.416  10.152   8.519  0.5912 -1.3875  0.0829
  320MOL0    Cl43110   7.252  10.104   8.478  0.0639  0.3690  0.0154
  320MOL0     C43111   7.759  10.973   8.054 -1.1663  0.1701 -0.0691
  320MOL0     C43112   7.771  11.108   8.032  0.2129  0.1649  0.7242
  320MOL0     O43113   7.523  11.448   8.120  0.0348  0.6699  0.1374
  320MOL0     C43114   7.716  11.521   7.833 -0.2077  0.3862 -1.0077
  320MOL0     C43115   7.748  11.616   7.738 -0.9379 -0.5056  0.1365
  320MOL0     N43116   7.464  11.686   7.398 -0.8881 -0.6649  0.2582
  320MOL0     N43117   7.369  11.661   7.478  0.1788  0.6005  0.3483
  320MOL0     C43118   6.578  11.292   8.366  0.6299  0.2163 -0.5751
  320MOL0     C43119   6.496  11.181   8.399 -0.2414  0.1156  0.1340
  320MOL0     C43120   6.234  10.870   8.454 -1.1859 -0.0730 -0.3778
  320MOL0     C43121   6.333  10.780   8.488 -0.4869 -0.3972  0.1547
  320MOL0     C43122   6.318  10.671   8.574  0.7935  0.0359  0.5383
  320MOL0     C43123   6.189  10.645   8.619 -0.4327 -0.0424  0.3369
  320MOL0     O43124   6.181  10.529   8.700 -0.5051 -0.6180 -0.0923
  320MOL0     C43125   6.063  10.514   8.785 -0.3196 -0.4959  0.8167
  320MOL0     C43126   6.085  10.582   8.919 -0.0098 -0.1272  0.2785
  320MOL0     C43127   6.007  10.509   9.034  0.0816 -0.9960  0.7666
  320MOL0     C43128   5.862  10.476   8.991 -0.4935  0.8894  0.2852
  320MOL0     C43129   5.777  10.594   8.973  0.0272 -1.1587 -0.2473
  320MOL0     C43130   5.715  10.696   8.963 -0.7880  0.6848 -0.6539
  320MOL0     C43131   6.086  10.735   8.586  0.0861  0.6711 -1.2990
  320MOL0     C43132   6.110  10.852   8.507  0.0827  0.3575 -0.8521
  320MOL0     H43133   6.515  11.015   8.105 -2.4265 -1.9252  0.7284
  320MOL0     H43134   6.664  11.196   8.048 -1.3993 -1.4056 -0.8444
  320MOL0     H43135   6.888  11.374   8.146 -0.3991 -0.2886  0.9860
  320MOL0     H43136   6.763  11.394   8.026 -0.9260 -0.8086  0.9951
  320MOL0     H43137   6.732  11.639   8.087 -1.1440 -1.1121  1.4762
  320MOL0     H43138   6.868  11.616   8.197 -0.6124 -2.2612  2.3188
  320MOL0     H43139   7.028  11.593   8.026  1.3836 -0.7281 -3.9429
  320MOL0     H43140   6.910  11.583   7.893  5.8076 -0.0288 -1.1684
  320MOL0     H43141   6.823  11.802   7.915 -1.7853 -1.5967  3.0877
  320MOL0     H43142   6.929  11.838   8.051  1.3854  4.5633 -2.1478
  320MOL0     H43143   7.024  11.939   7.849 -0.8901 -0.5542 -0.4075
  320MOL0     H43144   7.131  11.821   7.917 -1.0734  1.3560  3.1947
  320MOL0     H43145   7.038  11.668   7.733  0.5498  0.3191 -0.9792
  320MOL0     H43146   6.916  11.785   7.687 -0.9456 -1.8464  1.0134
  320MOL0     H43147   7.082  11.797   7.517  0.9123  2.1360 -0.1210
  320MOL0     H43148   7.101  11.939   7.609 -0.1362  0.4593  0.5329
  320MOL0     H43149   7.248  11.697   7.710  0.6599  3.0895  4.2350
  320MOL0     H43150   7.301  11.852   7.724  0.3275 -1.2577  1.8651
  320MOL0     H43151   7.422  11.988   7.503  1.1384  0.0705  0.3347
  320MOL0     H43152   7.668  11.800   7.250 -0.3881  1.7187 -2.0509
  320MOL0     H43153   7.550  11.931   7.221  3.2677  0.1481 -2.3070
  320MOL0     H43154   7.634  12.043   7.444  1.4357 -1.5415  1.0815
  320MOL0     H43155   7.724  12.057   7.301  0.3860  0.0224  1.1719
  320MOL0     H43156   7.858  12.020   7.507 -0.0636 -0.4085  1.3865
  320MOL0     H43157   7.905  11.910   7.390 -0.1284  0.1500 -0.0089
  320MOL0     H43158   7.907  11.789   7.553  0.1401  2.2075 -2.0707
  320MOL0     H43159   7.767  11.729   7.465  1.2302  0.5767 -1.9726
  320MOL0     H43160   7.573  11.877   7.840 -2.8146 -1.8470  0.3273
  320MOL0     H43161   7.512  11.693   8.155 -1.8143  1.4038  0.2790
  320MOL0     H43162   7.474  11.841   8.068 -3.2773  0.0195  0.3329
  320MOL0     H43163   7.387  11.696   8.033 -0.2216  0.6460  0.0389
  320MOL0     H43164   7.467  11.194   8.157  1.1226  0.9139  1.2397
  320MOL0     H43165   7.464  10.962   8.210  1.2751 -2.2255 -1.0026
  320MOL0     H43166   7.482  10.740   8.234  1.0539  1.6824 -0.4169
  320MOL0     H43167   7.451  10.739   8.054  0.8995  1.2211 -0.6332
  320MOL0     H43168   7.435  10.517   8.159  0.2221 -0.9851  3.3876
  320MOL0     H43169   7.577  10.528   8.035  0.8046 -0.6222 -0.1235
  320MOL0     H43170   7.573  10.558   8.349 -1.7368  0.0694 -1.4130
  320MOL0     H43171   7.709  10.561   8.238 -1.0247  1.2098 -1.9062
  320MOL0     H43172   7.529  10.314   8.260 -0.5541  0.9509  0.7501
  320MOL0     H43173   7.678  10.306   8.187 -1.3303 -1.0665 -1.1025
  320MOL0     H43174   7.614  10.381   8.487  2.7098  3.3044  0.8392
  320MOL0     H43175   7.771  10.359   8.431  0.6336 -2.6052 -2.0095
  320MOL0     H43176   7.743  10.112   8.404  0.4102  0.9700 -0.9350
  320MOL0     H43177   7.689  10.168   8.556 -1.8274  2.3932  0.3246
  320MOL0     H43178   7.556  10.002   8.443  0.0936 -0.4489 -0.1041
  320MOL0     H43179   7.499  10.117   8.315  0.9532 -1.9006 -1.3578
  320MOL0     H43180   7.412  10.259   8.498 -2.4447 -1.9940 -3.4485
  320MOL0     H43181   7.428  10.132   8.626 -1.0112  1.2633  0.8404
  320MOL0     H43182   7.843  10.905   8.040 -1.6213 -0.4124  0.0009
  320MOL0     H43183   7.871  11.141   8.004 -0.2008  1.2529  0.5033
  320MOL0     H43184   7.772  11.428   7.834 -2.3622 -1.1182 -3.9001
  320MOL0     H43185   7.809  11.585   7.654  3.0911  3.9035  0.9871
  320MOL0     H43186   6.580  11.371   8.441 -0.6350 -0.4451  0.2039
  320MOL0     H43187   6.453  11.160   8.496  2.1887 -3.0847  0.7013
  320MOL0     H43188   6.434  10.799   8.453 -0.2667 -2.1801 -0.2457
  320MOL0     H43189   6.401  10.611   8.611 -1.0374 -1.5819  2.2744
  320MOL0     H43190   5.967  10.533   8.737  0.3541 -0.1137 -0.4195
  320MOL0     H43191   6.062  10.406   8.800 -0.4329 -0.2577  2.8714
  320MOL0     H43192   6.051  10.686   8.917 -0.2400 -0.2139 -1.3681
  320MOL0     H43193   6.193  10.589   8.939 -0.4991 -1.1723  4.1859
  320MOL0     H43194   5.998  10.569   9.124  2.1580  2.5230 -1.1540
  320MOL0     H43195   6.054  10.415   9.065 -1.2311 -2.3808 -1.1433
  320MOL0     H43196   5.811  10.414   9.065 -1.4404  0.5967 -0.5891
  320MOL0     H43197   5.865  10.429   8.892  3.4525 -0.5251  0.8720
  320MOL0     H43198   5.673  10.794   8.954  0.3289  1.1744 -0.7257
  320MOL0     H43199   5.988  10.733   8.633  1.1728  3.6083  1.4770
  320MOL0     H43200   6.044  10.935   8.487 -0.9927  0.3946  2.3007
  321MOL0     O43201   9.251   9.181   8.026  0.0675  0.5181 -0.6117
  321MOL0     C43202   9.171   9.225   7.938 -0.4798 -0.4662 -0.4258
  321MOL0     O43203   9.101   9.347   7.935 -0.6080 -0.9898 -0.0019
  321MOL0     C43204   9.160   9.445   8.019  0.7522 -0.6163 -0.2150
  321MOL0     C43205   9.281   9.494   7.967 -0.0978 -0.2041 -0.2761
  321MOL0     C43206   9.343   9.597   8.034  0.4715  1.1039 -0.2563
  321MOL0     C43207   9.287   9.651   8.153 -0.3422  0.0666  0.5339
  321MOL0     O43208   9.371   9.751   8.195 -0.3644  0.2757 -0.1146
  321MOL0     C43209   9.308   9.871   8.250  0.3782  0.2860  0.6489
  321MOL0     C43210   9.280   9.861   8.400  0.0947  0.5136  0.7178
  321MOL0     C43211   9.406   9.837   8.490 -0.8360  0.0606 -0.0897
  321MOL0     C43212   9.363   9.806   8.632  0.4768 -0.2623  0.2967
  321MOL0     C43213   9.468   9.793   8.736 -1.5583  0.3788  0.2221
  321MOL0     C43214   9.581   9.900   8.745 -0.6052  0.2015 -0.0873
  321MOL0     C43215   9.533  10.034   8.779 -0.6850 -0.0742 -0.0267
  321MOL0     C43216   9.646  10.133   8.767  1.1619 -0.4644  0.0584
  321MOL0     N43217   9.699  10.146   8.632 -0.3645  0.0131  0.2784
  321MOL0     C43218   9.617  10.148   8.519 -0.6451 -0.8883 -0.2932
  321MOL0     C43219   9.701  10.189   8.419  0.0050 -0.8451 -0.3168
  321MOL0     C43220   9.656  10.181   8.274 -1.7761 -1.1284 -0.0736
  321MOL0     C43221   9.688  10.316   8.209 -0.1695 -0.5899 -0.0310
  321MOL0     C43222   9.575  10.423   8.257 -0.0297 -0.5579 -0.6580
  321MOL0     C43223   9.609  10.555   8.184 -0.1478 -0.6403  0.1912
  321MOL0     O43224   9.743  10.601   8.224 -0.3456 -0.2610 -0.1205
  321MOL0     C43225   9.746  10.725   8.267  0.4905  0.4585 -0.1401
  321MOL0     C43226   9.683  10.835   8.216  0.7000 -0.5148 -0.3533
  321MOL0     C43227   9.673  10.963   8.291 -0.2002  0.1800  0.2696
  321MOL0     C43228   9.574  11.068   8.237  0.5643 -0.7952  0.0626
  321MOL0     C43229   9.735  10.970   8.418  0.0697  0.0588 -0.5260
  321MOL0     C43230   9.722  11.082   8.510 -0.1369  0.6302 -0.4785
  321MOL0     O43231   9.758  11.052   8.636  0.2235 -0.3377 -0.6528
  321MOL0     C43232   9.807  11.141   8.727  0.2498 -0.2670  0.0642
  321MOL0     C43233   9.844  11.081   8.841 -0.1467  0.4842 -0.9357
  321MOL0     C43234   9.885  11.169   8.947 -0.1333  0.3310 -0.4175
  321MOL0     C43235   9.903  11.302   8.943  0.9955 -0.1410  0.3323
  321MOL0     O43236   9.930  11.374   9.057 -0.0753 -0.5783 -0.0963
  321MOL0     C43237  10.048  11.348   9.128 -0.1452  0.5855  0.4580
  321MOL0     C43238  10.166  11.346   9.037  0.1427  0.3136  0.8498
  321MOL0     C43239  10.303  11.361   9.110 -0.8930  0.3570 -0.0763
  321MOL0     C43240  10.357  11.501   9.146 -0.6101 -0.0796  0.3034
  321MOL0     C43241  10.488  11.500   9.215 -0.0837 -0.1386  0.4392
  321MOL0     C43242  10.535  11.631   9.272 -0.4439 -0.5275  0.7606
  321MOL0     C43243  10.530  11.746   9.162  0.5469  0.9059  1.0753
  321MOL0     C43244  10.591  11.870   9.210  0.4051 -1.0864 -0.8131
  321MOL0    Cl43245  10.532  11.935   9.370 -0.8590 -0.0389  0.0587
  321MOL0     C43246   9.867  11.360   8.812  0.3515  0.2922 -0.6531
  321MOL0     C43247   9.810  11.286   8.711  0.6291  0.2805  0.5507
  321MOL0     O43248   9.676  11.189   8.469  0.5212  0.8478  0.3892
  321MOL0     C43249   9.804  10.859   8.459  0.3364 -0.2592 -0.2231
  321MOL0     C43250   9.814  10.735   8.384 -0.0302 -0.4410  0.2533
  321MOL0     N43251   9.827  10.204   8.474 -0.2633  0.3692  0.1234
  321MOL0     N43252   9.819  10.191   8.607 -0.0366  0.7247 -0.4892
  321MOL0     C43253   9.168   9.607   8.199  0.5355 -0.2535  0.3294
  321MOL0     C43254   9.102   9.491   8.139  0.8901 -0.9234  0.1464
  321MOL0     C43255   9.157   9.134   7.824 -0.1585 -0.6342  0.9701
  321MOL0     C43256   9.227   9.017   7.801 -0.0865  0.4717 -0.2153
  321MOL0     C43257   9.201   8.941   7.686  0.0957 -0.6133 -0.3269
  321MOL0     C43258   9.100   8.984   7.593  0.0838  0.3392 -0.7454
  321MOL0     O43259   9.065   8.912   7.482 -0.4918  0.8442  0.1384
  321MOL0     C43260   9.124   8.780   7.453 -0.1711 -0.1211  0.4424
  321MOL0     C43261   9.048   8.709   7.339  0.0116 -0.6695  0.4968
  321MOL0     C43262   8.901   8.732   7.332  0.5533 -0.0482  0.3403
  321MOL0     C43263   8.843   8.655   7.214 -0.1532  1.1461  0.0997
  321MOL0     C43264   8.702   8.691   7.185 -0.2876 -0.8653  0.3574
  321MOL0     C43265   8.586   8.714   7.167 -0.1328  0.3814 -0.0527
  321MOL0     C43266   9.034   9.106   7.618  0.6688 -1.1836 -0.2049
  321MOL0     C43267   9.055   9.173   7.733 -0.1105 -0.3060  0.0604
  321MOL0     H43268   9.322   9.460   7.873 -3.6791 -0.8937 -1.7244
  321MOL0     H43269   9.435   9.633   7.989 -0.3418  0.6207 -2.4283
  321MOL0     H43270   9.379   9.952   8.232  2.2084 -1.3792  0.0861
  321MOL0     H43271   9.216   9.900   8.197 -0.0298 -2.1735 -0.0974
  321MOL0     H43272   9.228   9.955   8.421  0.1791  1.0984 -1.4052
  321MOL0     H43273   9.218   9.772   8.412  0.0326  0.1532 -1.7536
  321MOL0     H43274   9.470   9.755   8.458  1.1867  3.1389 -5.0702
  321MOL0     H43275   9.462   9.931   8.484 -3.3972  1.5984 -2.9872
  321MOL0     H43276   9.286   9.876   8.667 -0.0289  0.1114 -1.4414
  321MOL0     H43277   9.296   9.720   8.624 -1.3391  0.9851  1.0712
  321MOL0     H43278   9.419   9.783   8.834 -2.6143  1.5149 -0.1625
  321MOL0     H43279   9.505   9.693   8.715 -2.4479  0.1722 -0.4058
  321MOL0     H43280   9.646   9.875   8.830 -1.4592  1.8879  1.1308
  321MOL0     H43281   9.640   9.896   8.653  3.3098  2.4568  1.9962
  321MOL0     H43282   9.459  10.065   8.704 -0.4687  0.8646  0.1354
  321MOL0     H43283   9.498  10.034   8.883 -0.4406  3.5710  0.1669
  321MOL0     H43284   9.722  10.120   8.845  1.4478  3.6997  0.7001
  321MOL0     H43285   9.595  10.226   8.792 -1.2970 -1.8383  0.4167
  321MOL0     H43286   9.513  10.116   8.519 -0.3513 -1.9448  1.3458
  321MOL0     H43287   9.720  10.104   8.230  1.3185  0.3734  1.4059
  321MOL0     H43288   9.556  10.139   8.261 -2.1039 -0.2315 -0.4852
  321MOL0     H43289   9.665  10.312   8.102  2.2869  0.4792 -0.6712
  321MOL0     H43290   9.789  10.349   8.233 -0.4071  0.7850 -0.7870
  321MOL0     H43291   9.584  10.451   8.362 -0.1970  0.0440 -0.8025
  321MOL0     H43292   9.474  10.387   8.236  0.1581 -1.6227  0.1676
  321MOL0     H43293   9.530  10.628   8.204  0.7249  0.2122  0.6139
  321MOL0     H43294   9.612  10.544   8.075 -2.5531 -1.9298  0.1981
  321MOL0     H43295   9.630  10.821   8.122 -0.5718 -1.2263  0.4399
  321MOL0     H43296   9.523  11.030   8.148  2.8989 -0.6803 -1.4355
  321MOL0     H43297   9.494  11.097   8.305  2.3099  2.6597  0.8507
  321MOL0     H43298   9.624  11.162   8.212 -3.1210  1.2304 -0.3952
  321MOL0     H43299   9.822  10.977   8.861 -3.6130  1.4198  0.8632
  321MOL0     H43300   9.889  11.122   9.045 -0.1332  1.5194  0.1657
  321MOL0     H43301  10.065  11.443   9.180  0.9586  0.0763  1.0662
  321MOL0     H43302  10.043  11.265   9.200  0.7224  1.6120  1.7588
  321MOL0     H43303  10.171  11.251   8.981  1.0484 -0.1394  1.6800
  321MOL0     H43304  10.165  11.425   8.961 -0.8617 -2.4422 -2.2812
  321MOL0     H43305  10.370  11.304   9.046 -1.9430  1.0699 -1.8862
  321MOL0     H43306  10.292  11.310   9.206  0.6389  0.7799  0.3542
  321MOL0     H43307  10.364  11.559   9.054 -0.5306  0.3567  0.5831
  321MOL0     H43308  10.280  11.559   9.198 -1.5496 -2.2532  1.4695
  321MOL0     H43309  10.555  11.466   9.135 -0.1471  2.3666 -0.7592
  321MOL0     H43310  10.475  11.432   9.300  0.1984  2.4327  2.6640
  321MOL0     H43311  10.487  11.683   9.355 -2.0583  0.6308 -0.8180
  321MOL0     H43312  10.638  11.616   9.306 -1.0780  1.9131  4.2832
  321MOL0     H43313  10.425  11.758   9.131  0.6231 -0.1451  0.3837
  321MOL0     H43314  10.582  11.719   9.070 -1.8242 -2.9719  0.6364
  321MOL0     H43315  10.561  11.948   9.139  1.6408  0.5788  0.4218
  321MOL0     H43316  10.699  11.856   9.212  0.4553 -1.0155 -2.0934
  321MOL0     H43317   9.871  11.468   8.815 -1.3797  0.3882 -0.8026
  321MOL0     H43318   9.774  11.337   8.621 -3.0645  0.1606  1.7870
  321MOL0     H43319   9.866  10.856   8.549  2.6825  1.0255 -1.6839
  321MOL0     H43320   9.857  10.647   8.430 -1.4333 -1.4311 -0.2399
  321MOL0     H43321   9.125   9.642   8.293 -0.7149 -2.0635  0.5000
  321MOL0     H43322   9.010   9.442   8.169 -1.9477  2.4400 -2.1909
  321MOL0     H43323   9.303   8.992   7.874  0.2793 -2.3656 -1.4461
  321MOL0     H43324   9.281   8.867   7.680 -1.2224 -2.0431 -0.8713
  321MOL0     H43325   9.230   8.786   7.427 -0.6889  0.0833 -1.8154
  321MOL0     H43326   9.125   8.719   7.544  3.8138 -4.0312 -1.8542
  321MOL0     H43327   9.069   8.601   7.339  1.7586 -0.3687 -0.1920
  321MOL0     H43328   9.085   8.746   7.243 -1.6526 -4.3008 -1.7783
  321MOL0     H43329   8.873   8.837   7.318 -2.1887 -0.8426 -0.8944
  321MOL0     H43330   8.843   8.696   7.419  2.2029 -0.7265  1.2031
  321MOL0     H43331   8.871   8.552   7.236 -0.5054  1.8486  4.9146
  321MOL0     H43332   8.900   8.671   7.122  2.3522 -1.0914  1.1413
  321MOL0     H43333   8.479   8.716   7.165 -0.3355 -1.8547  2.2736
  321MOL0     H43334   8.964   9.138   7.542  0.9019 -1.9110 -0.7328
  321MOL0     H43335   8.992   9.260   7.750  0.8192  0.2703  0.6895
  322MOL0     O43336   0.657   1.417   0.073  0.0503  0.2730 -0.0129
  322MOL0     C43337   0.731   1.394   0.175  0.7278 -0.3457  0.9181
  322MOL0     O43338   0.834   1.305   0.177 -0.4873  0.5369 -0.7501
  322MOL0     C43339   0.905   1.256   0.073 -0.2201 -0.5396  0.6196
  322MOL0     C43340   0.994   1.143   0.093 -0.3041 -0.4222 -0.4504
  322MOL0     C43341   1.055   1.088  -0.017 -0.0865  0.0760  0.3959
  322MOL0     C43342   1.034   1.137  -0.146  0.1534  1.0279 -0.2341
  322MOL0     O43343   1.094   1.087  -0.265  0.3702 -0.0385 -0.0964
  322MOL0     C43344   1.207   0.996  -0.257  0.2734  0.1721 -0.3473
  322MOL0     C43345   1.160   0.853  -0.238  0.5260  0.8678  0.4534
  322MOL0     C43346   1.262   0.744  -0.238 -0.7910 -0.1740  0.2851
  322MOL0     C43347   1.377   0.739  -0.133 -0.0440 -0.3858 -0.2984
  322MOL0     C43348   1.322   0.722   0.008  0.5251  0.4699 -0.5833
  322MOL0     C43349   1.450   0.709   0.091 -0.4967  0.2409  0.1535
  322MOL0     C43350   1.413   0.668   0.233  0.3084  0.6136 -0.0433
  322MOL0     C43351   1.339   0.776   0.312  0.0266 -0.6123  1.3575
  322MOL0     N43352   1.401   0.911   0.293 -0.4782  0.2067  0.8102
  322MOL0     C43353   1.507   0.931   0.363  0.2807 -0.3292  0.9604
  322MOL0     C43354   1.546   1.057   0.341  0.1033  0.0288  0.3414
  322MOL0     C43355   1.665   1.136   0.401  0.0287  0.0726 -0.3457
  322MOL0     C43356   1.648   1.281   0.411 -0.8574  0.7986 -0.4283
  322MOL0     C43357   1.535   1.326   0.503  0.9794 -0.0661  0.0512
  322MOL0     C43358   1.539   1.471   0.546 -0.8746 -0.3020 -0.2725
  322MOL0     O43359   1.660   1.477   0.626 -0.4548  0.4446  0.4413
  322MOL0     C43360   1.676   1.439   0.753 -1.4019 -0.6559  0.1996
  322MOL0     C43361   1.808   1.429   0.810  0.0469  1.3155  0.6166
  322MOL0     C43362   1.824   1.411   0.945 -0.5491  0.1084 -0.7583
  322MOL0     C43363   1.961   1.402   1.019 -0.1707 -0.0613  0.4678
  322MOL0     C43364   1.707   1.387   1.026 -0.8806 -1.1502  1.0246
  322MOL0     C43365   1.714   1.366   1.174  0.8647 -0.6936  0.7231
  322MOL0     O43366   1.689   1.465   1.256 -0.4702  0.1583  0.1156
  322MOL0     C43367   1.629   1.448   1.388  0.6172  0.5449 -0.4875
  322MOL0     C43368   1.659   1.545   1.477  0.5901 -0.3473 -0.7828
  322MOL0     C43369   1.595   1.546   1.597 -0.8909 -0.4979 -0.2769
  322MOL0     C43370   1.492   1.459   1.617  0.2019  0.3849 -0.0878
  322MOL0     O43371   1.413   1.467   1.728 -0.0447  0.3206  0.1832
  322MOL0     C43372   1.288   1.536   1.708 -0.6266  0.1605  0.1329
  322MOL0     C43373   1.213   1.562   1.837  0.0297  0.1966  1.7317
  322MOL0     C43374   1.083   1.647   1.820  0.0986  0.4096 -0.4045
  322MOL0     C43375   1.001   1.610   1.943  0.5198  0.4001  0.4236
  322MOL0     C43376   0.870   1.660   1.911  0.7855  0.5821 -0.6900
  322MOL0     C43377   0.785   1.698   2.038 -0.4726 -0.1728  0.4528
  322MOL0     C43378   0.656   1.777   1.998 -0.5195  0.1604  0.3076
  322MOL0     C43379   0.580   1.840   2.114  0.5448  0.1342 -0.7644
  322MOL0    Cl43380   0.430   1.899   2.049 -0.1515  0.0901 -0.0324
  322MOL0     C43381   1.462   1.357   1.529  0.2119 -0.0411  0.6116
  322MOL0     C43382   1.535   1.348   1.414 -0.5525  0.0446 -0.5428
  322MOL0     O43383   1.732   1.250   1.203 -0.8585  0.6448  0.0913
  322MOL0     C43384   1.583   1.390   0.969  0.0484  0.1575 -0.6048
  322MOL0     C43385   1.569   1.434   0.840  0.1585  0.1713 -0.3096
  322MOL0     N43386   1.460   1.103   0.242  0.6842 -0.2714 -0.1263
  322MOL0     N43387   1.362   1.020   0.220  0.2026  0.7363  0.3766
  322MOL0     C43388   0.957   1.245  -0.168  1.2728 -1.0050  0.0597
  322MOL0     C43389   0.886   1.300  -0.060 -0.0883  0.7473  0.1464
  322MOL0     C43390   0.696   1.462   0.290 -0.5416  0.4743 -1.1356
  322MOL0     C43391   0.795   1.485   0.392  0.5459 -0.2593 -0.0538
  322MOL0     C43392   0.757   1.536   0.516  0.0478  0.0845 -0.2576
  322MOL0     C43393   0.628   1.562   0.541  0.8023  0.0696  0.6757
  322MOL0     O43394   0.598   1.604   0.668 -0.3633  0.7112  0.3877
  322MOL0     C43395   0.475   1.649   0.715  0.7324  0.1203 -0.1891
  322MOL0     C43396   0.509   1.761   0.826 -0.3048  1.0021  0.5356
  322MOL0     C43397   0.387   1.832   0.867 -0.9762 -0.8362  0.3087
  322MOL0     C43398   0.416   1.957   0.963 -1.0773 -0.3047  0.4043
  322MOL0     C43399   0.498   1.932   1.082 -1.0525  0.8463  0.3552
  322MOL0     C43400   0.564   1.910   1.189  0.1302 -0.2147  0.2012
  322MOL0     C43401   0.533   1.550   0.442  0.3861  0.4256 -0.0346
  322MOL0     C43402   0.571   1.514   0.315  0.5063  0.3030  0.6559
  322MOL0     H43403   1.000   1.103   0.194 -1.1726  0.4176 -0.0544
  322MOL0     H43404   1.117   1.001   0.000  0.1815 -0.2332 -1.8685
  322MOL0     H43405   1.255   0.994  -0.355  3.1975  0.0191  0.9636
  322MOL0     H43406   1.286   1.038  -0.194  0.6367 -0.2480 -0.5143
  322MOL0     H43407   1.096   0.839  -0.150  1.5084  0.1052  1.0633
  322MOL0     H43408   1.099   0.835  -0.327  2.3521  0.7384 -0.8244
  322MOL0     H43409   1.207   0.650  -0.234 -2.4125  0.7613  0.8304
  322MOL0     H43410   1.303   0.733  -0.339 -1.9713 -6.1400  0.1003
  322MOL0     H43411   1.443   0.654  -0.148 -1.5957 -1.9271  1.1303
  322MOL0     H43412   1.436   0.830  -0.147  0.8537 -0.8068  0.6206
  322MOL0     H43413   1.261   0.805   0.045  1.3953  2.4418 -3.2870
  322MOL0     H43414   1.261   0.631   0.012  1.9187 -0.4727  3.6930
  322MOL0     H43415   1.516   0.635   0.046 -2.2346 -0.7827 -0.8471
  322MOL0     H43416   1.503   0.804   0.091  2.1265 -1.1106  1.8126
  322MOL0     H43417   1.353   0.577   0.227  1.8065 -0.4260  0.1583
  322MOL0     H43418   1.500   0.640   0.294  0.2048 -0.5172 -0.3878
  322MOL0     H43419   1.309   0.750   0.414 -0.9224  1.6701  1.7280
  322MOL0     H43420   1.241   0.787   0.266 -0.2357 -2.9531  1.2403
  322MOL0     H43421   1.561   0.857   0.422  0.1642 -0.8742  0.3988
  322MOL0     H43422   1.692   1.097   0.499 -0.1921  1.3281  0.2337
  322MOL0     H43423   1.744   1.122   0.326 -0.1272 -0.9905 -0.3224
  322MOL0     H43424   1.635   1.323   0.311  1.8915  0.4210 -1.0163
  322MOL0     H43425   1.745   1.326   0.435  0.2629  0.6559 -4.0691
  322MOL0     H43426   1.535   1.267   0.595 -3.8517 -0.5326 -0.0046
  322MOL0     H43427   1.435   1.306   0.464  0.1466  2.3158  0.7951
  322MOL0     H43428   1.444   1.483   0.599 -1.3621  2.1353 -1.5424
  322MOL0     H43429   1.538   1.538   0.459 -0.7177 -1.3811 -1.1277
  322MOL0     H43430   1.886   1.433   0.734 -0.1515  1.1248  0.4027
  322MOL0     H43431   2.035   1.449   0.954 -1.0398 -0.3116 -0.7512
  322MOL0     H43432   1.955   1.465   1.109 -2.7964  3.8131 -2.0802
  322MOL0     H43433   1.979   1.298   1.047 -4.0442 -1.3808 -1.1885
  322MOL0     H43434   1.737   1.617   1.459  1.0688  0.6161  3.9998
  322MOL0     H43435   1.625   1.629   1.659 -3.3838 -0.9070  1.6505
  322MOL0     H43436   1.311   1.632   1.660  0.3252 -1.7623 -3.6398
  322MOL0     H43437   1.219   1.481   1.645  0.1278 -3.4500  2.1445
  322MOL0     H43438   1.196   1.467   1.888 -1.0842  0.9233  2.7673
  322MOL0     H43439   1.284   1.617   1.900  1.9259 -0.0924 -0.0480
  322MOL0     H43440   1.029   1.610   1.732  1.1392 -3.7386  0.4767
  322MOL0     H43441   1.100   1.753   1.802  1.4865  0.6839  2.0988
  322MOL0     H43442   0.993   1.502   1.952 -0.4369  0.2908 -1.4503
  322MOL0     H43443   1.039   1.651   2.038 -1.8464  1.7633  0.8633
  322MOL0     H43444   0.810   1.596   1.846  1.6047  0.9775 -1.8600
  322MOL0     H43445   0.881   1.758   1.863 -1.0724  0.9999 -0.3393
  322MOL0     H43446   0.760   1.618   2.108  2.8619  0.8647  3.1149
  322MOL0     H43447   0.856   1.757   2.097  1.0951 -2.0455  0.5418
  322MOL0     H43448   0.595   1.703   1.947  2.3348 -0.7546 -2.0861
  322MOL0     H43449   0.682   1.853   1.924  2.1140 -0.8722  0.0393
  322MOL0     H43450   0.626   1.927   2.162  2.3797 -1.1108 -0.1537
  322MOL0     H43451   0.560   1.758   2.184  0.6839 -2.2063 -3.2865
  322MOL0     H43452   1.374   1.296   1.544 -2.1255  3.7399  4.5467
  322MOL0     H43453   1.511   1.264   1.349  0.4155 -1.5558  1.0509
  322MOL0     H43454   1.491   1.365   1.021  0.0714 -2.1408 -1.5466
  322MOL0     H43455   1.470   1.438   0.794  0.7418  0.6478 -1.5386
  322MOL0     H43456   0.917   1.281  -0.263 -2.2924 -2.9753  0.6456
  322MOL0     H43457   0.817   1.377  -0.092  0.4853  0.2911 -2.4235
  322MOL0     H43458   0.897   1.460   0.365  0.5196  0.2422 -0.6405
  322MOL0     H43459   0.823   1.545   0.601  0.6640 -0.2928 -0.6810
  322MOL0     H43460   0.412   1.685   0.633 -0.2247 -2.6180 -0.7741
  322MOL0     H43461   0.424   1.562   0.758 -2.1596  0.4341 -2.6089
  322MOL0     H43462   0.575   1.827   0.769 -0.9961 -0.4652 -2.1586
  322MOL0     H43463   0.555   1.710   0.910 -0.5050 -3.8506 -1.9421
  322MOL0     H43464   0.335   1.767   0.937 -3.4584  0.4889 -0.2119
  322MOL0     H43465   0.328   1.857   0.779  0.1566  1.8437  0.1780
  322MOL0     H43466   0.327   2.000   1.008  0.7063  0.9158  3.0205
  322MOL0     H43467   0.461   2.034   0.901 -3.7635  0.8305 -0.2691
  322MOL0     H43468   0.630   1.891   1.271 -1.0961 -1.2461  0.9810
  322MOL0     H43469   0.433   1.589   0.452  0.8351  1.2643  1.4369
  322MOL0     H43470   0.484   1.496   0.251 -0.5856 -0.9114  2.3767
  323MOL0     O43471   6.983   6.082   7.864  0.5562  0.0180 -0.5183
  323MOL0     C43472   7.045   6.106   7.971 -0.0106  0.4407 -0.0455
  323MOL0     O43473   7.018   6.050   8.095 -0.2881 -0.1003  0.4073
  323MOL0     C43474   6.914   5.967   8.104 -0.0853  0.4429  0.8685
  323MOL0     C43475   6.787   5.983   8.049  0.5184  0.3779  0.5007
  323MOL0     C43476   6.690   5.886   8.083 -1.0492 -0.0620  0.1053
  323MOL0     C43477   6.721   5.767   8.154 -0.5367 -0.8860  0.3753
  323MOL0     O43478   6.636   5.668   8.175 -0.4926 -0.6581  1.0369
  323MOL0     C43479   6.638   5.570   8.074 -0.0180  0.7551  0.0772
  323MOL0     C43480   6.574   5.437   8.134 -0.0855  0.2121 -0.0466
  323MOL0     C43481   6.669   5.371   8.238 -0.2859  0.6184  0.3304
  323MOL0     C43482   6.604   5.247   8.293  0.8885  0.5086  0.0465
  323MOL0     C43483   6.670   5.192   8.418 -0.1726 -0.8122 -0.2507
  323MOL0     C43484   6.588   5.068   8.456  0.4476  0.9079 -0.0663
  323MOL0     C43485   6.622   5.006   8.593 -0.2785 -0.7974 -1.0822
  323MOL0     C43486   6.511   5.045   8.695  0.8201 -0.6515  0.3622
  323MOL0     N43487   6.540   4.973   8.816  0.5683  0.5962 -0.1232
  323MOL0     C43488   6.471   4.865   8.870 -0.6779  0.9092  0.7075
  323MOL0     C43489   6.549   4.827   8.977 -0.1697 -0.3799 -0.3774
  323MOL0     C43490   6.528   4.717   9.075  0.1018 -0.4475 -0.3521
  323MOL0     C43491   6.430   4.765   9.188  0.6678 -0.5116  0.8263
  323MOL0     C43492   6.370   4.684   9.303  0.3236 -0.0530 -0.7820
  323MOL0     C43493   6.473   4.639   9.408  0.2096  0.7259 -0.0330
  323MOL0     O43494   6.584   4.567   9.356  0.2081 -0.0712  0.1759
  323MOL0     C43495   6.688   4.540   9.440  0.1296  0.8217 -0.0892
  323MOL0     C43496   6.673   4.509   9.576  0.3309  0.2337  0.8730
  323MOL0     C43497   6.785   4.469   9.646 -0.3664  0.1567 -0.1666
  323MOL0     C43498   6.750   4.425   9.782  0.0911  0.2609 -0.2050
  323MOL0     C43499   6.915   4.469   9.589 -0.0339  0.0763  0.4986
  323MOL0     C43500   7.047   4.445   9.658 -0.0322 -0.1352 -0.3171
  323MOL0     O43501   7.162   4.430   9.584 -0.0604 -0.3629  0.0527
  323MOL0     C43502   7.274   4.381   9.648  0.2442 -0.8056 -0.7150
  323MOL0     C43503   7.329   4.264   9.599 -0.3106  1.2906 -0.4156
  323MOL0     C43504   7.451   4.213   9.636 -0.1992 -0.0993 -0.7279
  323MOL0     C43505   7.520   4.272   9.738  0.6070 -0.3683 -0.2238
  323MOL0     O43506   7.639   4.215   9.777  0.1670  0.1494 -0.4242
  323MOL0     C43507   7.625   4.084   9.829 -0.9184  0.7918 -0.2225
  323MOL0     C43508   7.759   4.005   9.817  0.0600  0.6507 -0.2816
  323MOL0     C43509   7.800   3.983   9.674 -0.2129  0.2819  0.4488
  323MOL0     C43510   7.867   3.842   9.662  0.1827 -0.1526 -0.0479
  323MOL0     C43511   7.926   3.825   9.521  0.0577 -0.9778 -0.1169
  323MOL0     C43512   7.976   3.681   9.497  0.6855  0.3343 -0.1205
  323MOL0     C43513   8.071   3.681   9.377  0.1000  0.9200 -0.2653
  323MOL0     C43514   8.000   3.659   9.241 -0.5073 -0.5214 -0.0427
  323MOL0    Cl43515   7.951   3.494   9.216 -0.6275 -0.1670 -0.2908
  323MOL0     C43516   7.478   4.400   9.787 -0.0314  0.5294  0.0500
  323MOL0     C43517   7.355   4.451   9.743  0.3933  0.1376  0.4085
  323MOL0     O43518   7.045   4.464   9.780  0.1615  0.6472 -0.1242
  323MOL0     C43519   6.921   4.492   9.448  0.4824  0.1671 -0.2240
  323MOL0     C43520   6.807   4.532   9.372 -0.3554 -0.5592  0.2280
  323MOL0     N43521   6.659   4.910   8.981 -0.6421 -0.2859 -0.0478
  323MOL0     N43522   6.658   4.990   8.886  0.5760 -0.3500 -0.2719
  323MOL0     C43523   6.851   5.753   8.208  0.1693 -1.0297 -0.0593
  323MOL0     C43524   6.940   5.854   8.180  0.8958  0.0612 -0.0465
  323MOL0     C43525   7.153   6.205   7.963  0.0831 -0.1621 -0.1696
  323MOL0     C43526   7.148   6.315   7.867 -0.7589 -0.5802  0.0446
  323MOL0     C43527   7.245   6.415   7.863  0.3675 -0.2083 -0.3836
  323MOL0     C43528   7.346   6.409   7.954  0.1389  0.1400  1.0890
  323MOL0     O43529   7.437   6.508   7.956  0.0412  0.0223  0.4558
  323MOL0     C43530   7.427   6.607   8.067  0.5069  0.0941 -0.2703
  323MOL0     C43531   7.315   6.710   8.015  0.2974 -0.0382  0.9066
  323MOL0     C43532   7.320   6.842   8.107  0.9818 -0.1108 -0.5144
  323MOL0     C43533   7.301   6.802   8.250 -0.3747 -0.2176  0.2192
  323MOL0     C43534   7.270   6.924   8.316 -0.0195 -0.7744  0.4181
  323MOL0     C43535   7.229   7.028   8.370 -0.0157 -0.3239  1.2961
  323MOL0     C43536   7.351   6.295   8.041  0.1781 -0.2914  0.1625
  323MOL0     C43537   7.255   6.192   8.058  0.8561 -0.0759 -0.0901
  323MOL0     H43538   6.760   6.059   7.977  3.1816 -0.6704 -1.7428
  323MOL0     H43539   6.593   5.907   8.039 -1.0320  0.1126  0.1490
  323MOL0     H43540   6.575   5.608   7.993  0.4109 -0.2602 -0.7454
  323MOL0     H43541   6.742   5.559   8.043  0.2256  2.2507  0.2729
  323MOL0     H43542   6.475   5.454   8.178  0.4057  0.5429  0.9630
  323MOL0     H43543   6.571   5.369   8.049 -0.9092 -1.0705  0.9688
  323MOL0     H43544   6.752   5.331   8.179 -2.4993 -2.6419 -0.9000
  323MOL0     H43545   6.695   5.440   8.319  1.1509 -0.3327  0.7160
  323MOL0     H43546   6.498   5.269   8.305  0.9174  0.9374 -0.4621
  323MOL0     H43547   6.603   5.173   8.212  0.4428 -1.7369  1.9803
  323MOL0     H43548   6.777   5.170   8.414 -0.0907 -1.7318  3.6819
  323MOL0     H43549   6.655   5.271   8.492 -0.4605 -0.0902 -1.0506
  323MOL0     H43550   6.482   5.092   8.454  0.0870 -0.6196 -0.9138
  323MOL0     H43551   6.603   4.996   8.374  2.2478 -0.6263  1.5048
  323MOL0     H43552   6.617   4.897   8.591 -0.5388 -1.0019  2.9773
  323MOL0     H43553   6.724   5.037   8.615 -0.8787  1.5504 -1.3249
  323MOL0     H43554   6.409   5.021   8.664 -0.1407 -1.1159  3.5180
  323MOL0     H43555   6.518   5.151   8.723 -0.9152 -0.3118 -0.3995
  323MOL0     H43556   6.372   4.840   8.834 -0.4858 -0.4768  1.1139
  323MOL0     H43557   6.479   4.635   9.022  0.3674 -2.0414  1.7249
  323MOL0     H43558   6.622   4.673   9.109  0.6191  1.9447  1.5711
  323MOL0     H43559   6.345   4.812   9.139  2.1420 -1.7215 -3.2569
  323MOL0     H43560   6.492   4.838   9.240  1.0703  0.4598 -0.9475
  323MOL0     H43561   6.302   4.606   9.266  1.9241 -1.8649 -0.0110
  323MOL0     H43562   6.311   4.763   9.351  1.4850  1.4169 -1.6897
  323MOL0     H43563   6.428   4.564   9.473  1.5455 -1.0793 -1.0949
  323MOL0     H43564   6.498   4.717   9.480  1.8509  1.8736 -1.7425
  323MOL0     H43565   6.578   4.520   9.626  0.5366  0.9677  1.1207
  323MOL0     H43566   6.651   4.380   9.794  0.0978  0.8582  2.7729
  323MOL0     H43567   6.820   4.355   9.829 -1.8275 -0.5001  1.6828
  323MOL0     H43568   6.742   4.508   9.852  1.9036  0.1363  0.1991
  323MOL0     H43569   7.270   4.206   9.528  0.3759  0.0519 -0.0025
  323MOL0     H43570   7.483   4.122   9.588 -2.6613 -1.5246  0.1347
  323MOL0     H43571   7.597   4.100   9.934 -0.5514 -0.3634  0.0648
  323MOL0     H43572   7.546   4.029   9.778 -1.0022 -0.1386  0.8737
  323MOL0     H43573   7.842   4.053   9.871 -1.2978 -2.4913  5.4165
  323MOL0     H43574   7.752   3.911   9.872 -1.5066  0.7270 -0.3312
  323MOL0     H43575   7.866   4.058   9.630  0.5098 -0.9272 -0.6009
  323MOL0     H43576   7.712   3.979   9.609  0.3350 -4.4498 -0.3422
  323MOL0     H43577   7.944   3.821   9.737  1.4111 -3.5528 -2.0387
  323MOL0     H43578   7.782   3.777   9.686 -1.7233  3.1334  3.0838
  323MOL0     H43579   8.004   3.901   9.513  0.2018 -0.7446  2.5797
  323MOL0     H43580   7.844   3.855   9.454 -0.4127  0.0862  0.8839
  323MOL0     H43581   8.022   3.644   9.589 -0.7143 -1.5345 -0.1122
  323MOL0     H43582   7.887   3.622   9.474  0.2062  0.6129  0.9406
  323MOL0     H43583   8.142   3.598   9.378 -1.5601 -0.9255 -5.1206
  323MOL0     H43584   8.135   3.769   9.375 -0.3252  1.2771 -3.1724
  323MOL0     H43585   8.075   3.681   9.164  0.1446 -2.1785  0.0762
  323MOL0     H43586   7.921   3.732   9.219  0.4635  0.0699 -1.7879
  323MOL0     H43587   7.535   4.449   9.865 -0.8794 -2.8120  3.0112
  323MOL0     H43588   7.328   4.552   9.770 -0.5439 -0.0290  0.1166
  323MOL0     H43589   7.013   4.470   9.395  0.2364 -3.8771  0.7445
  323MOL0     H43590   6.833   4.560   9.271  3.2735 -2.8984  0.3492
  323MOL0     H43591   6.868   5.677   8.284 -0.7202  0.2665  1.5182
  323MOL0     H43592   7.028   5.846   8.244  0.4908 -0.2584  0.4780
  323MOL0     H43593   7.061   6.311   7.803 -0.2005 -1.1071 -0.6934
  323MOL0     H43594   7.230   6.500   7.798  2.6771  1.6390  1.3407
  323MOL0     H43595   7.405   6.549   8.157 -3.0113 -0.6888 -1.4601
  323MOL0     H43596   7.520   6.665   8.067  0.5726  0.0127 -1.5173
  323MOL0     H43597   7.213   6.672   8.017  0.0862  0.1498 -1.9931
  323MOL0     H43598   7.332   6.735   7.910 -2.1591  2.3747  0.9470
  323MOL0     H43599   7.231   6.899   8.082  0.6720 -0.4187 -0.1244
  323MOL0     H43600   7.419   6.888   8.098  1.7954 -1.8306 -0.6492
  323MOL0     H43601   7.392   6.755   8.288 -0.9081 -1.0885  0.4578
  323MOL0     H43602   7.215   6.735   8.252  0.1187 -1.0348 -2.3742
  323MOL0     H43603   7.193   7.116   8.420  1.1341 -0.4439  2.3773
  323MOL0     H43604   7.438   6.289   8.106  0.9723 -0.7136 -0.8967
  323MOL0     H43605   7.254   6.111   8.130 -1.1362  1.8149  2.1918
  324MOL0     O43606   1.272   1.596   5.036 -0.1697  0.2953 -0.1478
  324MOL0     C43607   1.227   1.589   5.154 -0.9338 -0.5533 -0.0975
  324MOL0     O43608   1.223   1.696   5.241  0.2699 -0.2186  0.5214
  324MOL0     C43609   1.257   1.825   5.209  0.5623  0.0057 -0.0855
  324MOL0     C43610   1.355   1.861   5.112  0.5516  0.0307 -0.3067
  324MOL0     C43611   1.374   1.998   5.086 -0.3415 -0.3945 -0.5968
  324MOL0     C43612   1.318   2.103   5.171 -0.1838 -0.3270 -0.4103
  324MOL0     O43613   1.353   2.235   5.139  0.2012  0.0198 -0.5023
  324MOL0     C43614   1.271   2.308   5.044 -0.2627 -0.2911 -0.0986
  324MOL0     C43615   1.334   2.437   4.986 -0.1700  0.4086 -0.1091
  324MOL0     C43616   1.286   2.491   4.849 -0.4521 -0.1551 -0.2114
  324MOL0     C43617   1.135   2.491   4.825 -0.1529 -0.3377 -0.8503
  324MOL0     C43618   1.080   2.606   4.911  0.9193 -0.0750  0.0630
  324MOL0     C43619   0.932   2.651   4.879  0.0191 -0.3147  0.0684
  324MOL0     C43620   0.858   2.675   5.014  0.2169 -0.6495  0.4552
  324MOL0     C43621   0.806   2.550   5.088  0.1213 -0.6055  1.0218
  324MOL0     N43622   0.912   2.484   5.171 -0.0033 -0.2312  0.5232
  324MOL0     C43623   0.957   2.516   5.294  0.1812 -0.4881  0.1685
  324MOL0     C43624   1.006   2.409   5.361  0.5138 -0.3183 -0.0323
  324MOL0     C43625   1.041   2.410   5.507 -1.2627 -0.1940  0.1226
  324MOL0     C43626   1.183   2.458   5.542 -0.1272 -0.8693 -0.3971
  324MOL0     C43627   1.291   2.357   5.510  0.5168 -0.5148 -0.0179
  324MOL0     C43628   1.415   2.356   5.594  0.6844 -1.4533  0.2847
  324MOL0     O43629   1.477   2.486   5.588 -0.3659 -0.7854  0.4088
  324MOL0     C43630   1.568   2.515   5.691 -0.3691  0.3145  0.5551
  324MOL0     C43631   1.553   2.642   5.756  0.1223  0.1171 -1.1151
  324MOL0     C43632   1.647   2.680   5.855  0.3122  0.8333 -0.7536
  324MOL0     C43633   1.615   2.810   5.933 -0.3974 -0.2446  0.3682
  324MOL0     C43634   1.761   2.597   5.883 -0.1928  0.2681  0.6418
  324MOL0     C43635   1.870   2.652   5.970 -0.5290 -0.0793  0.5639
  324MOL0     O43636   1.943   2.580   6.055 -0.6217 -0.0518  0.1840
  324MOL0     C43637   2.031   2.644   6.136 -0.0769 -0.3226  0.2162
  324MOL0     C43638   2.158   2.698   6.104  0.2484 -0.1700 -0.5146
  324MOL0     C43639   2.233   2.782   6.193 -0.1545  0.0704  0.2536
  324MOL0     C43640   2.187   2.789   6.329  0.4410  0.3320 -1.3666
  324MOL0     O43641   2.280   2.850   6.421 -0.2585  0.9201 -0.0871
  324MOL0     C43642   2.242   2.845   6.553  0.0255 -0.6646  0.7425
  324MOL0     C43643   2.365   2.879   6.634 -0.7762 -1.0483 -0.0291
  324MOL0     C43644   2.393   3.034   6.650  0.3803  1.1041 -0.1703
  324MOL0     C43645   2.274   3.112   6.712  0.1456  0.0471  0.2148
  324MOL0     C43646   2.315   3.249   6.757 -0.0196  0.2207 -0.4647
  324MOL0     C43647   2.201   3.356   6.790 -0.2371  0.6683  0.3820
  324MOL0     C43648   2.146   3.344   6.924 -0.1644  0.4876  0.0845
  324MOL0     C43649   2.065   3.468   6.953 -1.3471 -0.0560 -0.1939
  324MOL0    Cl43650   2.154   3.619   7.003 -0.1840 -0.0287  0.1502
  324MOL0     C43651   2.071   2.725   6.364 -0.2754 -0.1952  0.5217
  324MOL0     C43652   1.986   2.658   6.265  0.6219 -0.8977  0.0279
  324MOL0     O43653   1.901   2.768   5.936 -0.2543  0.2585  0.0839
  324MOL0     C43654   1.776   2.466   5.824  0.0162 -0.3991 -0.1844
  324MOL0     C43655   1.672   2.431   5.729 -0.5065 -0.0302 -0.4915
  324MOL0     N43656   0.993   2.310   5.270  1.0303  0.0174 -0.0403
  324MOL0     N43657   0.944   2.352   5.158  0.5540 -0.4704  0.8149
  324MOL0     C43658   1.223   2.066   5.269 -0.4069  1.1274 -0.9304
  324MOL0     C43659   1.198   1.930   5.284  0.4545 -0.0354 -0.2251
  324MOL0     C43660   1.182   1.469   5.210  0.7380 -1.3361 -1.0674
  324MOL0     C43661   1.223   1.351   5.153 -0.6660 -0.1642  0.2334
  324MOL0     C43662   1.228   1.227   5.230 -0.1360 -0.1228  0.0435
  324MOL0     C43663   1.163   1.226   5.357 -0.7659  0.1236  0.2072
  324MOL0     O43664   1.145   1.112   5.426 -0.2570  0.8889 -0.5090
  324MOL0     C43665   1.181   0.979   5.373 -0.3621 -0.5691  0.4399
  324MOL0     C43666   1.101   0.884   5.456  0.2470  0.6088 -0.1708
  324MOL0     C43667   1.139   0.864   5.602  0.3371  0.2494  0.1743
  324MOL0     C43668   1.259   0.772   5.614 -0.1017  0.5169 -0.6165
  324MOL0     C43669   1.290   0.694   5.747 -0.1691  0.1038 -1.3362
  324MOL0     C43670   1.318   0.653   5.862 -0.2668  0.3021 -0.3323
  324MOL0     C43671   1.113   1.344   5.409 -0.3039 -0.0653  1.2233
  324MOL0     C43672   1.116   1.463   5.339 -0.5660 -0.2970  0.3113
  324MOL0     H43673   1.402   1.784   5.051  3.5158  2.0014 -0.7435
  324MOL0     H43674   1.444   2.023   5.008  3.8601 -0.9666  2.6170
  324MOL0     H43675   1.231   2.240   4.969 -2.7783  1.8109 -0.8025
  324MOL0     H43676   1.194   2.355   5.107  0.6766  3.0070 -1.1936
  324MOL0     H43677   1.312   2.523   5.050 -0.9346  0.5662 -0.5592
  324MOL0     H43678   1.443   2.443   4.988 -0.0514 -0.1103 -2.3907
  324MOL0     H43679   1.320   2.594   4.836  0.3896 -0.4059 -0.0710
  324MOL0     H43680   1.344   2.440   4.772 -1.0088  0.5139 -1.0896
  324MOL0     H43681   1.109   2.521   4.723 -1.5095 -0.0519 -0.4419
  324MOL0     H43682   1.105   2.390   4.853  4.8189 -1.7349  0.4715
  324MOL0     H43683   1.095   2.580   5.016  2.1568  1.9434  0.4191
  324MOL0     H43684   1.143   2.694   4.901  1.0622 -0.3047 -1.3426
  324MOL0     H43685   0.929   2.752   4.837 -2.2624  0.0557  0.9580
  324MOL0     H43686   0.873   2.582   4.818  0.5346 -1.1085  0.4442
  324MOL0     H43687   0.927   2.732   5.076 -3.0813  2.6937  1.3692
  324MOL0     H43688   0.774   2.739   4.986  0.4800 -1.2485 -1.9511
  324MOL0     H43689   0.786   2.471   5.015 -0.3394 -0.2368  0.7407
  324MOL0     H43690   0.714   2.575   5.141 -0.8916  2.4877 -1.8286
  324MOL0     H43691   0.933   2.613   5.337  1.9014 -1.3050  3.3496
  324MOL0     H43692   0.966   2.458   5.570 -2.1389 -0.6946 -0.5230
  324MOL0     H43693   1.042   2.307   5.543  0.4739  0.4136  1.9957
  324MOL0     H43694   1.176   2.462   5.651 -2.5568  0.7540 -0.5080
  324MOL0     H43695   1.216   2.556   5.506  1.2366 -1.1262  0.0999
  324MOL0     H43696   1.313   2.371   5.403 -0.0756 -0.3214 -0.1134
  324MOL0     H43697   1.250   2.257   5.525  0.3552 -0.3261  0.8484
  324MOL0     H43698   1.491   2.291   5.551  1.7724  0.2957 -0.5725
  324MOL0     H43699   1.390   2.317   5.693  0.2406 -1.8185  0.0379
  324MOL0     H43700   1.459   2.692   5.740 -2.6446 -3.0312  3.1032
  324MOL0     H43701   1.693   2.881   5.906 -0.5112 -0.6021 -0.9689
  324MOL0     H43702   1.525   2.854   5.890 -1.7908 -3.0944  0.0956
  324MOL0     H43703   1.620   2.797   6.042 -0.0946  2.4861  0.7396
  324MOL0     H43704   2.179   2.706   5.998 -2.5795  1.9907 -1.0377
  324MOL0     H43705   2.325   2.813   6.145 -1.5923 -3.3618 -5.6831
  324MOL0     H43706   2.157   2.914   6.563 -0.6743 -1.3420 -0.2763
  324MOL0     H43707   2.217   2.739   6.566 -2.4335 -0.9975 -4.1495
  324MOL0     H43708   2.352   2.841   6.735 -1.9191  2.1265  1.1182
  324MOL0     H43709   2.454   2.835   6.586 -1.0411 -0.5290 -1.0278
  324MOL0     H43710   2.418   3.077   6.552 -1.6022 -2.6586 -2.5832
  324MOL0     H43711   2.474   3.034   6.723 -0.5714 -2.1489  1.0521
  324MOL0     H43712   2.198   3.104   6.633  0.9288 -1.7169 -0.4086
  324MOL0     H43713   2.221   3.048   6.783 -0.4268 -3.9212 -3.3813
  324MOL0     H43714   2.376   3.292   6.676  2.4414 -1.9047  0.1350
  324MOL0     H43715   2.379   3.230   6.843  0.6083 -1.8394 -1.3072
  324MOL0     H43716   2.239   3.458   6.778 -0.8808  0.8593 -0.0748
  324MOL0     H43717   2.115   3.335   6.727 -1.0722  3.3655  0.4974
  324MOL0     H43718   2.228   3.341   6.997  2.6951  1.6341 -2.8147
  324MOL0     H43719   2.086   3.253   6.921 -2.0293  1.6843 -0.2458
  324MOL0     H43720   2.009   3.457   7.046  2.6639  1.7802  2.7594
  324MOL0     H43721   2.014   3.485   6.858  1.9443  0.6555 -2.0005
  324MOL0     H43722   2.043   2.720   6.469 -0.2296 -1.2437  0.4911
  324MOL0     H43723   1.889   2.613   6.284  0.3159  0.3899  1.7737
  324MOL0     H43724   1.870   2.415   5.840  2.8169  3.7081 -1.8251
  324MOL0     H43725   1.676   2.335   5.678 -1.5717  0.2210 -1.0609
  324MOL0     H43726   1.166   2.143   5.321  1.3395  0.6367  1.9237
  324MOL0     H43727   1.122   1.907   5.358  0.6472  0.3323  0.0863
  324MOL0     H43728   1.268   1.348   5.054 -0.5176 -0.9453  0.3145
  324MOL0     H43729   1.281   1.139   5.193 -1.9135 -2.4439  2.6172
  324MOL0     H43730   1.146   0.976   5.269  0.9518  0.1571 -0.0456
  324MOL0     H43731   1.288   0.957   5.366 -0.7068 -2.3876  0.3985
  324MOL0     H43732   1.091   0.789   5.401  1.4566  1.1737 -1.4239
  324MOL0     H43733   0.998   0.921   5.454 -0.5460 -1.4716 -0.0620
  324MOL0     H43734   1.062   0.806   5.654 -1.1352  0.1386 -1.9753
  324MOL0     H43735   1.151   0.963   5.647  1.9748 -1.0891  2.9783
  324MOL0     H43736   1.340   0.840   5.584  0.1974  1.4660  1.9897
  324MOL0     H43737   1.242   0.692   5.543  0.4075 -1.4223  1.3338
  324MOL0     H43738   1.348   0.613   5.957  2.6929  2.1277 -0.3405
  324MOL0     H43739   1.065   1.347   5.506 -0.2725 -0.2941  1.2481
  324MOL0     H43740   1.071   1.555   5.376 -2.1859 -0.4029 -1.3080
  325MOL0     O43741   4.762   2.335   3.514  0.0026  0.5600  0.4987
  325MOL0     C43742   4.700   2.257   3.442  0.3728 -0.1402  0.2718
  325MOL0     O43743   4.700   2.126   3.453 -0.7984 -0.7563  0.6169
  325MOL0     C43744   4.763   2.033   3.537  0.3591 -0.5964  0.9927
  325MOL0     C43745   4.867   2.071   3.615  0.8518  0.4845  0.3278
  325MOL0     C43746   4.919   1.982   3.712 -0.1648  0.2840 -0.5028
  325MOL0     C43747   4.879   1.844   3.716 -0.1324  0.0393  1.4252
  325MOL0     O43748   4.938   1.740   3.788  0.0580 -0.5334  0.8397
  325MOL0     C43749   5.083   1.746   3.785  0.5198  0.1863  0.4759
  325MOL0     C43750   5.140   1.738   3.634  0.0628 -0.1822 -0.5203
  325MOL0     C43751   5.293   1.743   3.637  0.4580  0.0274  0.0710
  325MOL0     C43752   5.358   1.873   3.700  0.0267 -0.3003  0.0716
  325MOL0     C43753   5.489   1.840   3.769 -0.1367 -0.1835  0.2877
  325MOL0     C43754   5.539   1.960   3.839 -0.0149 -0.0575  0.2778
  325MOL0     C43755   5.679   1.933   3.889 -0.8503 -0.1128  0.5633
  325MOL0     C43756   5.728   2.047   3.974  0.0902 -1.1641  0.4441
  325MOL0     N43757   5.875   2.029   4.000  1.3616 -0.2676 -0.8464
  325MOL0     C43758   5.931   1.921   4.068  0.3838  0.5791 -0.0267
  325MOL0     C43759   6.059   1.944   4.063 -1.2361 -0.1851  0.5162
  325MOL0     C43760   6.169   1.845   4.109  0.4312 -0.5655 -0.1322
  325MOL0     C43761   6.167   1.716   4.032  0.5322  0.2934  1.6099
  325MOL0     C43762   6.178   1.742   3.877  0.4786  0.1777 -0.0414
  325MOL0     C43763   6.203   1.604   3.817 -0.2746  0.6359  0.1880
  325MOL0     O43764   6.331   1.545   3.866  0.1699  0.1810  0.9654
  325MOL0     C43765   6.337   1.408   3.863  0.1758 -0.1272 -0.3223
  325MOL0     C43766   6.267   1.336   3.758 -0.4312 -0.9848 -0.3241
  325MOL0     C43767   6.283   1.200   3.751 -0.0147  0.0079  0.0560
  325MOL0     C43768   6.208   1.129   3.648  0.1896  0.1791  0.2160
  325MOL0     C43769   6.350   1.126   3.858 -0.7472 -0.1622  0.4557
  325MOL0     C43770   6.366   0.979   3.870  0.5035 -1.4873 -0.1779
  325MOL0     O43771   6.335   0.898   3.759 -0.9645 -0.9017 -0.3975
  325MOL0     C43772   6.357   0.762   3.754  0.9794 -0.0605  0.2794
  325MOL0     C43773   6.256   0.686   3.704 -0.3491 -0.0270  0.9591
  325MOL0     C43774   6.272   0.553   3.651 -0.7264  0.0146  0.4071
  325MOL0     C43775   6.396   0.486   3.661 -0.9160 -0.6173  0.1384
  325MOL0     O43776   6.420   0.352   3.620  0.3769 -0.7359 -0.1716
  325MOL0     C43777   6.320   0.288   3.537  1.1696  0.2875  0.5266
  325MOL0     C43778   6.212   0.203   3.592  0.2807 -0.1166  0.3854
  325MOL0     C43779   6.172   0.072   3.510 -0.5473  0.6796 -0.5803
  325MOL0     C43780   6.096  -0.035   3.607  0.1059  0.3795  0.2168
  325MOL0     C43781   6.192  -0.108   3.705  0.5810  0.3393 -0.0296
  325MOL0     C43782   6.280  -0.216   3.644  0.8378 -0.6849  0.2340
  325MOL0     C43783   6.368  -0.279   3.761 -0.1451 -0.4857  0.1858
  325MOL0     C43784   6.482  -0.179   3.797 -0.6644  0.0884 -1.0891
  325MOL0    Cl43785   6.593  -0.252   3.926  0.3894  0.1821 -0.0004
  325MOL0     C43786   6.504   0.562   3.726 -0.0771 -0.0091 -1.3693
  325MOL0     C43787   6.481   0.695   3.768  0.0027 -0.1817  0.3865
  325MOL0     O43788   6.390   0.948   3.987  0.7612  0.0065  0.1373
  325MOL0     C43789   6.421   1.207   3.953  0.1205 -0.0416 -0.3529
  325MOL0     C43790   6.430   1.346   3.951  0.1750 -0.0556 -0.2226
  325MOL0     N43791   6.083   2.060   3.995  0.5975 -0.0900  0.3938
  325MOL0     N43792   5.972   2.106   3.959 -0.4580 -0.7520  0.0627
  325MOL0     C43793   4.778   1.806   3.628  0.5592  0.4882  0.4189
  325MOL0     C43794   4.715   1.901   3.538 -0.1091  0.5477  0.1022
  325MOL0     C43795   4.606   2.330   3.340  0.2321  1.2758  1.1153
  325MOL0     C43796   4.594   2.280   3.210  0.1902  0.1179 -0.9667
  325MOL0     C43797   4.523   2.358   3.110 -0.0528 -0.0336 -1.2035
  325MOL0     C43798   4.451   2.477   3.143 -0.5758 -0.4703  0.8820
  325MOL0     O43799   4.378   2.538   3.046  0.1143 -0.6578 -0.2267
  325MOL0     C43800   4.290   2.644   3.085 -0.2575  0.5456 -0.7895
  325MOL0     C43801   4.182   2.679   2.980  0.8885 -0.0648 -0.2258
  325MOL0     C43802   4.242   2.764   2.855 -0.0888  0.2741  0.3847
  325MOL0     C43803   4.370   2.701   2.782  0.5357 -0.7833 -0.6005
  325MOL0     C43804   4.346   2.713   2.637  0.3627  0.0383 -1.3533
  325MOL0     C43805   4.323   2.733   2.521 -0.2051 -0.0555 -0.4033
  325MOL0     C43806   4.472   2.523   3.276 -0.3678  0.4751  0.3600
  325MOL0     C43807   4.546   2.446   3.371 -0.3929 -0.8362  0.6915
  325MOL0     H43808   4.921   2.165   3.602 -2.1104  2.1318 -0.8905
  325MOL0     H43809   4.999   2.027   3.771 -4.0814  3.8844  2.6672
  325MOL0     H43810   5.118   1.830   3.845 -0.1442  1.2061 -0.5286
  325MOL0     H43811   5.119   1.656   3.837 -1.6371 -0.6073  0.7044
  325MOL0     H43812   5.107   1.647   3.584  1.8596 -0.7736 -0.7264
  325MOL0     H43813   5.102   1.816   3.568 -0.5053  0.3521  0.4202
  325MOL0     H43814   5.313   1.655   3.698 -0.8372 -1.1234 -1.0826
  325MOL0     H43815   5.332   1.738   3.535  1.0330  1.3984  0.2055
  325MOL0     H43816   5.365   1.958   3.631  0.3939  2.2600  2.9990
  325MOL0     H43817   5.296   1.916   3.779 -1.7433 -2.6033  0.0298
  325MOL0     H43818   5.481   1.755   3.839 -2.4180  0.0438  0.3641
  325MOL0     H43819   5.558   1.821   3.687 -1.4971  2.0649 -1.4794
  325MOL0     H43820   5.568   2.036   3.766 -1.6428 -2.1245 -2.7155
  325MOL0     H43821   5.467   1.999   3.911  0.7182  1.8563  0.0297
  325MOL0     H43822   5.675   1.839   3.946  0.0359  0.6299  1.9219
  325MOL0     H43823   5.749   1.913   3.807 -1.0281 -0.5308  0.5092
  325MOL0     H43824   5.672   2.041   4.068 -3.0076  0.9715 -1.0828
  325MOL0     H43825   5.719   2.143   3.922 -0.0779 -1.5520 -0.2638
  325MOL0     H43826   5.879   1.837   4.113  1.6620  0.8499  2.0622
  325MOL0     H43827   6.272   1.869   4.082  0.7514 -3.0593 -1.4168
  325MOL0     H43828   6.164   1.823   4.216  1.4841 -0.0682  0.0223
  325MOL0     H43829   6.079   1.656   4.061  0.6986  0.3654  2.2864
  325MOL0     H43830   6.260   1.671   4.068  1.0863 -1.1921 -1.3505
  325MOL0     H43831   6.260   1.804   3.840  0.9075  0.4562  1.3418
  325MOL0     H43832   6.093   1.804   3.847  1.1354  0.3132 -1.7348
  325MOL0     H43833   6.211   1.599   3.708 -2.2668 -1.7104  0.0472
  325MOL0     H43834   6.119   1.543   3.853 -0.2328  0.2168 -0.4189
  325MOL0     H43835   6.206   1.382   3.682  0.5715 -1.7870 -1.6603
  325MOL0     H43836   6.266   1.051   3.598 -0.2186  0.0205 -0.0135
  325MOL0     H43837   6.119   1.076   3.684  0.7501 -0.4959  0.6260
  325MOL0     H43838   6.185   1.200   3.568  0.4667 -0.8050 -0.7538
  325MOL0     H43839   6.166   0.744   3.690  0.4897  1.0790 -0.1087
  325MOL0     H43840   6.192   0.499   3.603  0.4255 -0.0073 -1.5876
  325MOL0     H43841   6.272   0.356   3.466 -0.1879 -0.8241  0.3427
  325MOL0     H43842   6.384   0.217   3.483  1.5667 -0.4217  1.8745
  325MOL0     H43843   6.234   0.177   3.696 -2.6603  3.1512  2.0535
  325MOL0     H43844   6.121   0.264   3.586  0.2724  0.0265  1.6076
  325MOL0     H43845   6.265   0.022   3.484 -2.0868 -1.6570 -1.9817
  325MOL0     H43846   6.101   0.091   3.429 -1.6671 -1.5047 -0.1946
  325MOL0     H43847   6.030   0.028   3.668  0.0971  0.0373  0.5673
  325MOL0     H43848   6.041  -0.107   3.546  1.5448 -0.3873 -0.2098
  325MOL0     H43849   6.132  -0.167   3.776  3.2265 -6.2630 -2.5037
  325MOL0     H43850   6.242  -0.031   3.764  1.6382  0.6534 -1.2937
  325MOL0     H43851   6.224  -0.290   3.587  0.9053 -0.9027  0.4494
  325MOL0     H43852   6.346  -0.183   3.564  1.0029 -1.8361 -0.1085
  325MOL0     H43853   6.403  -0.382   3.748 -1.4617 -1.0199  0.7207
  325MOL0     H43854   6.306  -0.286   3.851  0.5684 -0.3307  0.7006
  325MOL0     H43855   6.448  -0.077   3.817 -3.2407 -0.8083 -0.5483
  325MOL0     H43856   6.555  -0.173   3.716  1.3008 -0.0040  0.5946
  325MOL0     H43857   6.602   0.518   3.742 -0.5209 -1.5231 -2.5252
  325MOL0     H43858   6.556   0.769   3.797 -1.1211  1.6434 -1.1346
  325MOL0     H43859   6.489   1.162   4.025  0.1246  1.6846  0.7711
  325MOL0     H43860   6.491   1.393   4.027 -1.4373 -1.4478  2.0857
  325MOL0     H43861   4.746   1.702   3.631  1.9025 -0.1199 -2.5206
  325MOL0     H43862   4.643   1.869   3.463  3.9678 -1.5667 -3.3562
  325MOL0     H43863   4.641   2.193   3.165 -3.0712 -1.4539 -1.6043
  325MOL0     H43864   4.522   2.316   3.010 -2.8118  2.2589 -2.3057
  325MOL0     H43865   4.248   2.610   3.180  1.8142  0.7676  0.2508
  325MOL0     H43866   4.351   2.732   3.107  0.9631 -0.8152  1.6833
  325MOL0     H43867   4.096   2.734   3.021 -1.0139 -3.1544  0.2735
  325MOL0     H43868   4.133   2.589   2.940  1.5894  0.1035 -1.5194
  325MOL0     H43869   4.283   2.856   2.898  0.8124 -0.8614  2.0417
  325MOL0     H43870   4.175   2.809   2.781 -0.6654 -0.6583  0.3271
  325MOL0     H43871   4.380   2.597   2.814  1.1599  0.1152  2.3935
  325MOL0     H43872   4.462   2.749   2.816  1.5284 -1.2974 -2.4031
  325MOL0     H43873   4.318   2.747   2.415 -3.3889 -0.7369 -0.4427
  325MOL0     H43874   4.431   2.621   3.301  2.4369  1.5416  1.1013
  325MOL0     H43875   4.576   2.479   3.470  2.3283 -3.6573  0.9376
  326MOL0     O43876   7.581   4.701  11.459  0.5215 -0.0115 -0.5589
  326MOL0     C43877   7.687   4.704  11.514 -0.8673 -0.0133 -1.2772
  326MOL0     O43878   7.719   4.790  11.619 -0.3634  0.1821  0.1660
  326MOL0     C43879   7.622   4.884  11.654  0.3755 -0.9872 -0.4151
  326MOL0     C43880   7.665   5.018  11.661 -0.0719  0.5044 -0.0413
  326MOL0     C43881   7.571   5.115  11.698  0.3737 -1.4217  0.7650
  326MOL0     C43882   7.446   5.085  11.738  0.7051  0.5818 -0.8303
  326MOL0     O43883   7.350   5.162  11.778  0.1846 -0.3903 -0.0526
  326MOL0     C43884   7.383   5.312  11.780  0.1368 -0.1347  0.7244
  326MOL0     C43885   7.266   5.399  11.834 -0.6870 -0.4246  0.2936
  326MOL0     C43886   7.224   5.361  11.973  0.5198  0.2527 -0.2770
  326MOL0     C43887   7.089   5.409  12.013  0.2433 -0.1062 -0.2069
  326MOL0     C43888   7.087   5.557  12.047 -0.0548  0.5953  0.0886
  326MOL0     C43889   6.954   5.603  12.120 -0.1895  0.6400  0.6549
  326MOL0     C43890   6.979   5.730  12.200  0.4559 -0.9508 -0.5360
  326MOL0     C43891   7.029   5.860  12.135 -0.6516 -0.8486 -0.8371
  326MOL0     N43892   6.991   5.898  12.001  0.0684  0.0817  0.1551
  326MOL0     C43893   6.859   5.923  11.963 -0.0381  0.0212 -0.2997
  326MOL0     C43894   6.868   5.940  11.823  0.9759 -0.3142 -0.8528
  326MOL0     C43895   6.750   5.918  11.726  0.2946  0.7083 -0.4761
  326MOL0     C43896   6.721   5.768  11.718 -0.3208  0.5732 -0.0103
  326MOL0     C43897   6.626   5.730  11.595 -0.3273 -0.7840 -1.0680
  326MOL0     C43898   6.617   5.579  11.581 -0.4880  0.7596  0.0068
  326MOL0     O43899   6.532   5.548  11.469 -0.7188 -0.3111  0.5586
  326MOL0     C43900   6.473   5.426  11.462  0.5190  0.0724 -0.4178
  326MOL0     C43901   6.520   5.316  11.540  0.5786 -1.2083  0.7122
  326MOL0     C43902   6.457   5.200  11.540  0.7677  0.0961 -0.3833
  326MOL0     C43903   6.526   5.095  11.618 -0.9573 -0.4512 -0.0526
  326MOL0     C43904   6.342   5.175  11.456 -0.8377 -0.3436  0.8825
  326MOL0     C43905   6.258   5.047  11.447  0.1269  0.3812 -0.5390
  326MOL0     O43906   6.171   5.033  11.336 -0.2166 -0.9543  0.5641
  326MOL0     C43907   6.089   4.922  11.332  0.6335 -0.5593 -0.5560
  326MOL0     C43908   6.122   4.805  11.259 -0.0953 -0.1849 -0.5933
  326MOL0     C43909   6.040   4.699  11.269  0.3634  0.0475  1.3890
  326MOL0     C43910   5.914   4.697  11.337  0.8089 -0.5629  1.1551
  326MOL0     O43911   5.814   4.596  11.333 -0.5491 -0.4591 -0.5683
  326MOL0     C43912   5.835   4.496  11.234  0.0322  0.0296  0.0248
  326MOL0     C43913   5.724   4.394  11.238 -0.1689 -0.8727 -0.5775
  326MOL0     C43914   5.758   4.282  11.135 -0.7018  0.1530 -0.8047
  326MOL0     C43915   5.654   4.176  11.164  0.9393 -0.3279  0.6297
  326MOL0     C43916   5.657   4.081  11.039 -0.2492  0.0637  0.0160
  326MOL0     C43917   5.591   3.945  11.055 -0.3912  0.3149  0.2172
  326MOL0     C43918   5.607   3.859  11.185  0.3394 -0.7117 -0.1350
  326MOL0     C43919   5.546   3.726  11.170 -0.1224  1.4462 -0.0991
  326MOL0    Cl43920   5.550   3.614  11.315  0.5839  0.0098 -0.1865
  326MOL0     C43921   5.872   4.813  11.405 -1.1041 -0.2688  0.4242
  326MOL0     C43922   5.967   4.924  11.415 -0.4200  0.3791  0.5196
  326MOL0     O43923   6.269   4.965  11.544  0.0574 -0.5826  0.0635
  326MOL0     C43924   6.295   5.285  11.381 -0.6028  0.4564 -0.6665
  326MOL0     C43925   6.352   5.413  11.388  0.3303 -0.4363 -0.1442
  326MOL0     N43926   7.002   5.934  11.789 -0.7621  0.1123 -0.0333
  326MOL0     N43927   7.074   5.919  11.896  0.1782 -0.9836 -0.1616
  326MOL0     C43928   7.402   4.947  11.732  0.1121 -0.2196  0.6594
  326MOL0     C43929   7.488   4.848  11.683  0.5085 -0.7881 -1.0171
  326MOL0     C43930   7.775   4.583  11.482  0.7009  1.1618 -0.1512
  326MOL0     C43931   7.859   4.522  11.577  0.6683 -0.4031  0.0816
  326MOL0     C43932   7.924   4.402  11.551 -0.0822 -0.3702 -0.2351
  326MOL0     C43933   7.931   4.351  11.426 -0.3508  0.6817  0.3937
  326MOL0     O43934   7.989   4.227  11.392 -0.2356  0.7945  0.1623
  326MOL0     C43935   8.042   4.143  11.498 -0.5132  0.6833 -0.1213
  326MOL0     C43936   8.119   4.029  11.432  0.0581  0.9301 -0.3293
  326MOL0     C43937   8.225   4.074  11.329 -0.6385 -0.2959  0.6003
  326MOL0     C43938   8.284   3.945  11.268  0.5412  0.5400 -0.9373
  326MOL0     C43939   8.364   3.861  11.358 -0.4622 -0.2270 -0.1900
  326MOL0     C43940   8.446   3.794  11.417 -0.1705 -0.0491  0.9145
  326MOL0     C43941   7.848   4.409  11.328  0.4695  0.2819 -0.1906
  326MOL0     C43942   7.770   4.529  11.351 -0.2081 -1.1418  0.4597
  326MOL0     H43943   7.767   5.046  11.638  0.4292  0.2183  1.7148
  326MOL0     H43944   7.606   5.217  11.709 -2.4795 -0.4502  1.8174
  326MOL0     H43945   7.473   5.330  11.839  1.0545 -0.0842 -0.6426
  326MOL0     H43946   7.421   5.344  11.683  1.2582  3.5873  2.2171
  326MOL0     H43947   7.290   5.506  11.834 -1.0582 -0.3370  0.0977
  326MOL0     H43948   7.184   5.392  11.762  0.8432  2.1821 -1.9075
  326MOL0     H43949   7.226   5.252  11.971  1.2296  0.0556  3.7326
  326MOL0     H43950   7.307   5.386  12.040  0.4144 -1.4494  0.5436
  326MOL0     H43951   7.025   5.377  11.930  3.5711  2.5194 -4.2530
  326MOL0     H43952   7.051   5.362  12.104  0.9847 -2.2213 -0.9216
  326MOL0     H43953   7.183   5.590  12.089  0.1506 -1.2599  1.1687
  326MOL0     H43954   7.068   5.601  11.949 -3.7950 -0.4130  0.2141
  326MOL0     H43955   6.878   5.615  12.043 -0.1581  2.7508  0.8954
  326MOL0     H43956   6.920   5.520  12.183  1.3268 -1.7709 -1.5384
  326MOL0     H43957   6.887   5.765  12.248  2.0583  2.9454  0.0279
  326MOL0     H43958   7.034   5.706  12.291 -2.6469  1.3274  2.1645
  326MOL0     H43959   7.138   5.853  12.141 -0.5128  1.1284 -0.4203
  326MOL0     H43960   6.984   5.947  12.184 -1.9596 -0.1098 -3.1776
  326MOL0     H43961   6.764   5.919  12.015 -0.4914  1.0587 -1.0081
  326MOL0     H43962   6.658   5.961  11.768  0.6856  1.1362 -0.0339
  326MOL0     H43963   6.781   5.953  11.627 -1.2334  0.6016 -1.0198
  326MOL0     H43964   6.673   5.723  11.805 -2.4470  0.9040 -0.9457
  326MOL0     H43965   6.817   5.718  11.703 -0.4285 -0.0284  1.1635
  326MOL0     H43966   6.670   5.766  11.501  0.1903 -1.1076 -0.9524
  326MOL0     H43967   6.521   5.761  11.603 -0.0044  1.1733 -3.3333
  326MOL0     H43968   6.569   5.545  11.673  0.7167 -1.6343 -0.1784
  326MOL0     H43969   6.721   5.549  11.566 -0.3926  1.3023 -0.4682
  326MOL0     H43970   6.611   5.334  11.597  0.9941  0.2226 -0.3368
  326MOL0     H43971   6.622   5.123  11.661 -0.3213 -2.5308  0.0104
  326MOL0     H43972   6.458   5.048  11.690  2.6388 -2.3584  2.4167
  326MOL0     H43973   6.554   5.013  11.550  0.4599 -1.9741  2.2375
  326MOL0     H43974   6.215   4.791  11.205  0.4207 -1.5315  0.5577
  326MOL0     H43975   6.058   4.615  11.204 -1.0295  0.6972  0.1008
  326MOL0     H43976   5.831   4.531  11.131  1.5298 -0.8377 -0.3502
  326MOL0     H43977   5.928   4.443  11.252 -0.7955 -1.5357 -0.1093
  326MOL0     H43978   5.711   4.363  11.342 -0.0681  1.9894  0.3832
  326MOL0     H43979   5.629   4.433  11.200 -0.9944 -3.2464 -1.1268
  326MOL0     H43980   5.859   4.240  11.135 -0.2052  1.2213 -2.4359
  326MOL0     H43981   5.732   4.316  11.034  1.4423  1.9719 -0.8300
  326MOL0     H43982   5.680   4.123  11.256  2.9010 -2.3003 -0.9617
  326MOL0     H43983   5.556   4.224  11.164  1.3692  0.7302 -1.7780
  326MOL0     H43984   5.761   4.058  11.013  0.0606 -0.3487  1.4997
  326MOL0     H43985   5.614   4.118  10.945  0.8174 -2.0917 -1.4002
  326MOL0     H43986   5.485   3.967  11.038 -0.6082  1.7138  2.8346
  326MOL0     H43987   5.632   3.885  10.974 -0.0594  1.3957 -0.4333
  326MOL0     H43988   5.561   3.921  11.263  1.4245  0.6639 -0.5395
  326MOL0     H43989   5.713   3.849  11.207  0.1301  0.9416  2.0046
  326MOL0     H43990   5.601   3.674  11.091  0.8573 -0.8099  1.9383
  326MOL0     H43991   5.441   3.729  11.137 -2.3060 -0.7731  5.4398
  326MOL0     H43992   5.773   4.816  11.449 -2.2245 -2.1010 -1.8190
  326MOL0     H43993   5.947   5.013  11.473  1.0509  1.2722 -0.2708
  326MOL0     H43994   6.215   5.265  11.310 -0.0867 -4.5941 -0.1672
  326MOL0     H43995   6.311   5.491  11.324 -0.5947 -0.0980  0.8237
  326MOL0     H43996   7.295   4.932  11.737 -0.6315  3.5084 -0.5437
  326MOL0     H43997   7.461   4.743  11.682  0.2188 -0.7150 -1.3389
  326MOL0     H43998   7.859   4.567  11.676  1.3019  1.5649 -0.7497
  326MOL0     H43999   7.996   4.362  11.622  1.4198  4.1556  1.1556
  326MOL0     H44000   8.118   4.190  11.561  1.3110  1.0588 -2.4162
  326MOL0     H44001   7.966   4.105  11.566 -0.2250  0.7962  0.2652
  326MOL0     H44002   8.044   3.974  11.374 -2.0965  1.8912  1.4323
  326MOL0     H44003   8.168   3.974  11.513 -3.1962  1.1867  1.9889
  326MOL0     H44004   8.298   4.135  11.384 -2.7178  3.7403 -0.6683
  326MOL0     H44005   8.182   4.133  11.246 -1.8913 -1.0165  0.7193
  326MOL0     H44006   8.361   3.968  11.194  3.4830 -3.2069  0.6736
  326MOL0     H44007   8.198   3.883  11.239 -0.1536 -0.3848  2.6291
  326MOL0     H44008   8.507   3.734  11.481 -1.8463 -3.4720 -0.4700
  326MOL0     H44009   7.844   4.373  11.226 -0.1238 -2.3437  0.7026
  326MOL0     H44010   7.702   4.564  11.274 -3.4376 -2.2087  2.5745
  327MOL0     O44011   0.386   0.724   0.860 -0.2044  0.7924  0.2723
  327MOL0     C44012   0.298   0.782   0.794  0.0275  0.5173 -0.3714
  327MOL0     O44013   0.193   0.847   0.856  0.1068  0.2542  0.9053
  327MOL0     C44014   0.179   0.879   0.990 -0.2479 -0.0192  0.8762
  327MOL0     C44015   0.264   0.831   1.090  0.7162  0.2505 -0.3951
  327MOL0     C44016   0.209   0.848   1.215 -0.3564  1.9427  0.2180
  327MOL0     C44017   0.098   0.921   1.252 -0.2503 -0.8419 -0.3595
  327MOL0     O44018   0.062   0.929   1.383  0.3026  0.2313  0.8975
  327MOL0     C44019   0.066   0.806   1.459  0.3697 -0.5134  0.1107
  327MOL0     C44020   0.021   0.822   1.600 -0.3378  0.5558 -0.5701
  327MOL0     C44021  -0.119   0.894   1.605  0.5111 -0.2003  0.0742
  327MOL0     C44022  -0.171   0.912   1.750 -0.0413 -1.4740 -0.0647
  327MOL0     C44023  -0.103   1.037   1.810 -0.3314 -0.7939  1.1131
  327MOL0     C44024  -0.128   1.072   1.959  1.2314 -0.5306  0.0084
  327MOL0     C44025  -0.282   1.072   1.998 -0.1260  0.1311  0.5432
  327MOL0     C44026  -0.327   1.218   1.992  0.2550 -1.0889 -0.7716
  327MOL0     N44027  -0.248   1.304   2.094 -0.2960 -0.3131  0.7068
  327MOL0     C44028  -0.262   1.297   2.229  0.8548 -0.1948  1.0561
  327MOL0     C44029  -0.194   1.398   2.279 -1.1216 -0.0450  0.0171
  327MOL0     C44030  -0.182   1.438   2.418  0.0399  0.2818  0.1698
  327MOL0     C44031  -0.068   1.373   2.498  0.6897  0.0855  0.4636
  327MOL0     C44032  -0.051   1.396   2.652  0.8345 -0.1611 -0.9954
  327MOL0     C44033  -0.165   1.337   2.724 -0.1442  0.2511 -0.2952
  327MOL0     O44034  -0.271   1.437   2.723 -0.8303  0.2188 -0.3364
  327MOL0     C44035  -0.393   1.397   2.765 -0.9600 -0.5706  0.4281
  327MOL0     C44036  -0.414   1.288   2.854 -0.8777 -0.7776  0.6113
  327MOL0     C44037  -0.534   1.259   2.899  0.3371  0.6301  0.4182
  327MOL0     C44038  -0.542   1.145   2.994  0.1816 -0.5665  0.3573
  327MOL0     C44039  -0.648   1.331   2.849  0.7779  0.1982 -0.3931
  327MOL0     C44040  -0.796   1.315   2.895 -0.4629  1.0426 -0.3830
  327MOL0     O44041  -0.827   1.262   3.014 -0.3573 -0.6865 -0.0454
  327MOL0     C44042  -0.951   1.287   3.070 -0.2804  0.5139 -0.4356
  327MOL0     C44043  -1.071   1.231   3.028  0.9793  0.2039  0.6293
  327MOL0     C44044  -1.195   1.244   3.096 -1.3886 -0.2331 -1.0585
  327MOL0     C44045  -1.195   1.320   3.213  0.7790 -0.0167 -0.0842
  327MOL0     O44046  -1.307   1.299   3.289  0.0193  0.0980  0.1083
  327MOL0     C44047  -1.291   1.334   3.431 -0.5940  0.5880  1.3716
  327MOL0     C44048  -1.424   1.343   3.503 -1.8940  0.2711  0.2920
  327MOL0     C44049  -1.513   1.454   3.449  0.0557 -0.3246  0.8265
  327MOL0     C44050  -1.647   1.458   3.530 -1.2726  0.1337 -0.1672
  327MOL0     C44051  -1.760   1.525   3.454  0.5019  0.4970 -0.2987
  327MOL0     C44052  -1.882   1.568   3.527  0.1684 -0.4624 -0.3882
  327MOL0     C44053  -1.952   1.448   3.588  0.6223  0.7080 -0.1864
  327MOL0     C44054  -1.919   1.434   3.740  0.6312 -0.6995  0.2822
  327MOL0    Cl44055  -2.007   1.289   3.809  0.2031  0.0553  0.0345
  327MOL0     C44056  -1.082   1.382   3.255  0.4562 -0.5241  0.2052
  327MOL0     C44057  -0.965   1.370   3.181  0.6062 -1.1323  0.1767
  327MOL0     O44058  -0.882   1.346   2.813  0.1104 -0.1461  0.3830
  327MOL0     C44059  -0.630   1.442   2.767 -0.5525 -0.6770  0.4063
  327MOL0     C44060  -0.500   1.466   2.716  0.4867  0.4570 -0.8982
  327MOL0     N44061  -0.132   1.466   2.177  0.5400 -0.8284  0.4243
  327MOL0     N44062  -0.165   1.406   2.071 -1.2370 -0.5455 -0.3570
  327MOL0     C44063   0.025   0.969   1.151  0.3922 -0.2125  0.2004
  327MOL0     C44064   0.059   0.940   1.018 -1.8198 -0.0696  0.0279
  327MOL0     C44065   0.304   0.778   0.650  0.0098  0.6004 -0.3993
  327MOL0     C44066   0.403   0.705   0.577  0.9474  1.0614 -0.5901
  327MOL0     C44067   0.405   0.709   0.440  0.3484  0.9613  0.4044
  327MOL0     C44068   0.300   0.764   0.365  0.4146 -0.1669 -0.5557
  327MOL0     O44069   0.279   0.754   0.232 -0.1851  0.0998  0.2562
  327MOL0     C44070   0.344   0.643   0.162 -0.5600  0.4129  0.9198
  327MOL0     C44071   0.331   0.670   0.014  0.6023 -0.5970  0.4633
  327MOL0     C44072   0.188   0.669  -0.027  0.3345  0.2849  0.7881
  327MOL0     C44073   0.176   0.682  -0.179  0.3831 -0.3905 -0.2062
  327MOL0     C44074   0.210   0.559  -0.260 -0.6279  0.4666  0.2432
  327MOL0     C44075   0.218   0.466  -0.343  0.6008  0.5576  0.1024
  327MOL0     C44076   0.207   0.850   0.426  0.1300 -0.3968 -1.0574
  327MOL0     C44077   0.202   0.838   0.569 -0.1523 -0.0871 -0.6220
  327MOL0     H44078   0.360   0.781   1.084  1.6741  1.8939  0.3400
  327MOL0     H44079   0.273   0.814   1.297  0.5170  1.4039 -0.6643
  327MOL0     H44080   0.018   0.722   1.409 -0.5967  0.5330 -0.7883
  327MOL0     H44081   0.171   0.779   1.473  0.8324  1.3518  0.5428
  327MOL0     H44082   0.011   0.722   1.644 -0.6782  0.3502 -1.0998
  327MOL0     H44083   0.099   0.866   1.662  0.6268 -1.3645 -0.3212
  327MOL0     H44084  -0.099   0.990   1.558  2.0290  0.4142  1.8383
  327MOL0     H44085  -0.200   0.850   1.547 -0.2151 -0.1794  1.0390
  327MOL0     H44086  -0.280   0.925   1.742  0.1549 -0.8617 -3.2608
  327MOL0     H44087  -0.144   0.828   1.814  0.3478 -1.5497 -0.3226
  327MOL0     H44088   0.005   1.022   1.800 -0.3987 -2.1719  2.0587
  327MOL0     H44089  -0.127   1.122   1.746  0.5152 -1.0796  0.3999
  327MOL0     H44090  -0.085   0.995   2.024 -0.5309 -1.3410  0.2837
  327MOL0     H44091  -0.075   1.165   1.980 -0.5999  0.8093 -1.0803
  327MOL0     H44092  -0.346   1.001   1.946  0.5812  2.1497 -3.5634
  327MOL0     H44093  -0.283   1.037   2.102  1.6480  1.6331  1.1259
  327MOL0     H44094  -0.434   1.228   2.014  0.2548 -0.0285 -1.1782
  327MOL0     H44095  -0.309   1.257   1.892  0.4278 -2.3661 -1.2607
  327MOL0     H44096  -0.334   1.233   2.278  2.0836 -0.6237  2.3624
  327MOL0     H44097  -0.169   1.546   2.427 -3.9001  0.6851  3.5507
  327MOL0     H44098  -0.275   1.407   2.466  1.6882 -4.0268  1.0639
  327MOL0     H44099   0.030   1.404   2.460  0.4856 -0.5161 -0.5715
  327MOL0     H44100  -0.070   1.266   2.476  4.1770  0.6441 -4.1855
  327MOL0     H44101  -0.035   1.501   2.678  3.0259 -0.5961 -0.3549
  327MOL0     H44102   0.039   1.342   2.683  0.4244 -1.5676 -2.1568
  327MOL0     H44103  -0.132   1.329   2.828 -0.2266 -0.3246 -0.3133
  327MOL0     H44104  -0.181   1.236   2.686 -0.3284  0.3875 -0.5876
  327MOL0     H44105  -0.322   1.252   2.899  1.7723  3.3082 -0.8760
  327MOL0     H44106  -0.592   1.061   2.946  1.1039 -0.9499  0.0348
  327MOL0     H44107  -0.446   1.112   3.035 -0.2104 -1.1309  0.8315
  327MOL0     H44108  -0.590   1.171   3.089 -0.3683 -2.7766  0.7381
  327MOL0     H44109  -1.080   1.198   2.925 -1.2648  2.6977 -0.0990
  327MOL0     H44110  -1.285   1.187   3.078 -1.5280 -0.3411 -0.0967
  327MOL0     H44111  -1.230   1.261   3.484  2.5703  2.2349  0.2991
  327MOL0     H44112  -1.239   1.430   3.443 -0.2928  0.5775  0.2312
  327MOL0     H44113  -1.473   1.245   3.498  1.9190 -1.8989  1.7562
  327MOL0     H44114  -1.406   1.365   3.609  1.9274 -0.4627 -0.0653
  327MOL0     H44115  -1.519   1.443   3.341  5.4782 -0.1397  0.2151
  327MOL0     H44116  -1.463   1.550   3.468  1.2808 -0.3003 -2.0419
  327MOL0     H44117  -1.672   1.356   3.561 -0.5414 -0.1916 -0.6339
  327MOL0     H44118  -1.612   1.516   3.616  0.9431 -0.5840 -0.5174
  327MOL0     H44119  -1.789   1.465   3.367  3.0204  1.0195 -1.5859
  327MOL0     H44120  -1.713   1.613   3.409  2.0126 -1.0725 -1.9407
  327MOL0     H44121  -1.860   1.638   3.609 -0.1256 -0.2586 -0.4804
  327MOL0     H44122  -1.942   1.620   3.452  0.9246  0.0272 -0.6572
  327MOL0     H44123  -1.932   1.346   3.555 -0.1420  0.4245  0.2071
  327MOL0     H44124  -2.060   1.465   3.576 -0.3978 -2.2454  3.0142
  327MOL0     H44125  -1.956   1.512   3.806 -4.8334 -2.7866  0.2475
  327MOL0     H44126  -1.813   1.411   3.752  0.0143 -2.9380  2.2028
  327MOL0     H44127  -1.072   1.452   3.338  0.6838  1.7462 -1.6359
  327MOL0     H44128  -0.876   1.425   3.207 -0.2928  1.9138 -2.6593
  327MOL0     H44129  -0.714   1.511   2.764  0.0961  0.1199 -2.3122
  327MOL0     H44130  -0.474   1.547   2.648  0.8645  2.2788  1.3105
  327MOL0     H44131  -0.065   1.028   1.164 -3.5764 -5.0125 -2.1863
  327MOL0     H44132  -0.009   0.955   0.935  1.0549 -0.5505 -2.5929
  327MOL0     H44133   0.464   0.636   0.634 -1.5398 -2.4807 -1.8822
  327MOL0     H44134   0.472   0.642   0.388  1.3537  4.4750 -3.3776
  327MOL0     H44135   0.450   0.627   0.183 -1.0417 -1.6726  1.9979
  327MOL0     H44136   0.295   0.551   0.195 -1.3017  1.1367  1.9309
  327MOL0     H44137   0.396   0.598  -0.037 -0.2280 -1.7689  0.9937
  327MOL0     H44138   0.377   0.767  -0.004 -0.3819 -0.4065 -1.2694
  327MOL0     H44139   0.133   0.754   0.015 -1.3235  0.3538 -1.3357
  327MOL0     H44140   0.133   0.581   0.009 -3.8118  2.4775  0.4742
  327MOL0     H44141   0.236   0.765  -0.219 -1.3784  0.4829 -1.1599
  327MOL0     H44142   0.069   0.705  -0.178  0.3680 -0.4799  0.7740
  327MOL0     H44143   0.247   0.394  -0.416 -0.1997  0.7380 -0.4034
  327MOL0     H44144   0.117   0.884   0.376 -0.7912  2.6860  2.2924
  327MOL0     H44145   0.120   0.873   0.631 -1.0428  2.3230 -2.9721
  328MOL0     O44146  10.364   3.052   9.239  0.4657 -1.0342 -0.3188
  328MOL0     C44147  10.268   3.080   9.312  0.8433 -0.0065 -0.0559
  328MOL0     O44148  10.156   2.999   9.329 -0.2101  0.9509  0.3480
  328MOL0     C44149  10.141   2.867   9.288  0.1271  0.0709 -0.0741
  328MOL0     C44150  10.012   2.829   9.277 -1.9158  0.4684 -0.2244
  328MOL0     C44151   9.983   2.699   9.233 -0.3624 -0.5102 -0.5662
  328MOL0     C44152  10.082   2.602   9.228 -0.6592 -0.1435 -0.1076
  328MOL0     O44153  10.057   2.464   9.216  0.1209 -0.1823  0.6041
  328MOL0     C44154  10.094   2.410   9.086  0.3565  0.3379  0.0108
  328MOL0     C44155  10.030   2.491   8.967  0.1308 -0.5187 -0.1478
  328MOL0     C44156  10.095   2.433   8.833  0.4365  0.5069 -0.2719
  328MOL0     C44157  10.098   2.525   8.718  0.4396 -0.5622 -0.8743
  328MOL0     C44158  10.156   2.452   8.595  0.0624  0.8218  1.2730
  328MOL0     C44159  10.057   2.349   8.538  0.0055  0.0491  0.0047
  328MOL0     C44160  10.100   2.309   8.406  0.9196 -0.6911  0.3903
  328MOL0     C44161  10.011   2.204   8.346  0.4565 -0.0335 -0.1125
  328MOL0     N44162   9.872   2.251   8.341 -0.5941 -0.5618  0.3702
  328MOL0     C44163   9.771   2.188   8.406 -0.4859 -0.0780  0.9335
  328MOL0     C44164   9.662   2.232   8.336  0.1833  0.0372  0.3541
  328MOL0     C44165   9.518   2.211   8.375 -1.0139  0.7428  0.3417
  328MOL0     C44166   9.463   2.077   8.339 -0.2285  0.4075 -0.0335
  328MOL0     C44167   9.327   2.058   8.412 -0.8497  0.1480  0.3897
  328MOL0     C44168   9.224   2.171   8.400  0.2971 -0.6945 -0.0383
  328MOL0     O44169   9.259   2.306   8.451  0.2616 -1.1698 -0.4164
  328MOL0     C44170   9.169   2.415   8.458 -0.0089 -0.4206  0.9862
  328MOL0     C44171   9.081   2.443   8.354  0.4008  0.8952  0.0440
  328MOL0     C44172   9.015   2.565   8.344  1.3069 -0.5720  0.4027
  328MOL0     C44173   8.897   2.567   8.249  0.0690 -0.3708 -0.4170
  328MOL0     C44174   9.032   2.670   8.439  0.6818 -0.4112 -0.3266
  328MOL0     C44175   8.977   2.812   8.427 -0.9513  0.0487  0.2581
  328MOL0     O44176   8.967   2.875   8.536  0.4493  0.7437  0.0895
  328MOL0     C44177   8.890   2.996   8.536 -1.3823 -0.2363  0.0056
  328MOL0     C44178   8.780   3.015   8.613 -0.0878 -0.2618 -0.3996
  328MOL0     C44179   8.695   3.124   8.600  0.7523  0.0422  0.4297
  328MOL0     C44180   8.724   3.229   8.522  0.1079 -0.5612  0.0018
  328MOL0     O44181   8.658   3.351   8.522 -0.2384  0.8577  0.0743
  328MOL0     C44182   8.523   3.342   8.551  1.0952  0.2561 -0.5928
  328MOL0     C44183   8.450   3.452   8.468 -0.1459 -0.0984 -0.2484
  328MOL0     C44184   8.299   3.447   8.500  0.5723 -0.5474  0.3709
  328MOL0     C44185   8.207   3.545   8.420 -0.7664 -1.0476 -0.6275
  328MOL0     C44186   8.208   3.691   8.488  0.1774  1.4603 -0.1306
  328MOL0     C44187   8.069   3.725   8.538  0.5155  0.6509 -1.2837
  328MOL0     C44188   8.065   3.871   8.553  0.2908  0.1290 -0.4119
  328MOL0     C44189   7.927   3.909   8.556  1.0014  0.2132  0.3502
  328MOL0    Cl44190   7.910   4.084   8.564  0.1096  0.1303 -0.1329
  328MOL0     C44191   8.840   3.216   8.443 -0.6765 -0.3022 -0.2547
  328MOL0     C44192   8.929   3.103   8.459 -0.5786  0.0680  0.8085
  328MOL0     O44193   8.945   2.857   8.316 -0.5024  0.0149 -0.0059
  328MOL0     C44194   9.110   2.634   8.550 -0.0292  0.9545 -0.0437
  328MOL0     C44195   9.186   2.508   8.556  0.7808 -0.8707 -0.8962
  328MOL0     N44196   9.705   2.306   8.225  0.4184 -0.1498 -0.6489
  328MOL0     N44197   9.828   2.315   8.225  0.0430  0.7562 -0.4101
  328MOL0     C44198  10.212   2.647   9.253  0.2402 -0.1651 -0.0067
  328MOL0     C44199  10.246   2.778   9.280  1.1134 -0.8035  0.4663
  328MOL0     C44200  10.258   3.220   9.364  0.2207  0.5867 -0.5564
  328MOL0     C44201  10.191   3.248   9.482 -1.2367 -0.3076 -0.6522
  328MOL0     C44202  10.175   3.385   9.536 -0.2913 -0.1165  0.3582
  328MOL0     C44203  10.238   3.495   9.467 -0.3020 -0.6029 -0.4321
  328MOL0     O44204  10.215   3.619   9.512 -0.1519 -0.2200  0.1514
  328MOL0     C44205  10.276   3.741   9.452 -0.3107 -0.1543  1.2349
  328MOL0     C44206  10.250   3.867   9.518  0.5511  0.3331  0.3363
  328MOL0     C44207  10.297   3.994   9.448  0.5836 -0.3682  0.5906
  328MOL0     C44208  10.441   3.991   9.401 -0.0502  0.1748  0.4679
  328MOL0     C44209  10.478   4.107   9.315 -0.2014  0.9792  0.5756
  328MOL0     C44210  10.492   4.219   9.270 -0.5431  0.5521  0.3117
  328MOL0     C44211  10.309   3.462   9.353  0.2518  0.5420 -0.1998
  328MOL0     C44212  10.328   3.327   9.306 -1.3918  0.4219 -0.5097
  328MOL0     H44213   9.927   2.893   9.295 -1.5522  0.7507  0.5675
  328MOL0     H44214   9.882   2.675   9.201 -1.5464  4.1823 -1.1018
  328MOL0     H44215  10.202   2.392   9.079  0.1069 -1.2085 -0.1634
  328MOL0     H44216  10.053   2.309   9.072  1.3967 -0.2377  0.9150
  328MOL0     H44217   9.922   2.473   8.971  0.4252 -2.2261  1.4298
  328MOL0     H44218  10.065   2.595   8.970 -1.1366 -0.0573 -0.5589
  328MOL0     H44219  10.199   2.405   8.850  0.5241  1.5411  1.0787
  328MOL0     H44220  10.029   2.349   8.810 -1.7489  2.3882 -1.4126
  328MOL0     H44221   9.996   2.565   8.706 -0.1447 -0.7419  2.5025
  328MOL0     H44222  10.146   2.616   8.755 -1.9274 -0.3583  2.1569
  328MOL0     H44223  10.168   2.535   8.524 -1.2947  0.9684  1.1968
  328MOL0     H44224  10.255   2.408   8.609 -1.4157 -3.2797  0.2217
  328MOL0     H44225  10.044   2.261   8.602  0.8309 -0.8084 -0.9617
  328MOL0     H44226   9.958   2.395   8.543 -0.6000 -1.2111  4.9926
  328MOL0     H44227  10.089   2.400   8.346 -1.9850  0.6374  2.7002
  328MOL0     H44228  10.203   2.271   8.411  2.7298  3.3614 -1.2573
  328MOL0     H44229  10.016   2.109   8.400 -1.6073 -0.9961 -1.4670
  328MOL0     H44230  10.017   2.188   8.238 -4.0517  0.1223 -0.5793
  328MOL0     H44231   9.779   2.122   8.492  1.5800 -0.7955  0.2444
  328MOL0     H44232   9.516   2.221   8.484 -3.0636 -1.5681  0.6148
  328MOL0     H44233   9.458   2.282   8.318  0.2341 -1.4393 -4.1208
  328MOL0     H44234   9.529   1.993   8.361 -0.7018 -0.2702 -1.1343
  328MOL0     H44235   9.442   2.059   8.233 -1.0783  1.4843 -0.0631
  328MOL0     H44236   9.344   2.053   8.520 -0.5913  4.2376  0.7119
  328MOL0     H44237   9.300   1.958   8.376  2.3515 -0.4465 -0.7095
  328MOL0     H44238   9.131   2.152   8.456 -0.2205  0.5377 -0.4449
  328MOL0     H44239   9.199   2.194   8.296 -0.4590  2.6958  0.7725
  328MOL0     H44240   9.070   2.362   8.283  0.6804  1.3293 -0.4991
  328MOL0     H44241   8.814   2.603   8.310  0.7781 -0.9684  0.9460
  328MOL0     H44242   8.914   2.625   8.158 -0.5118 -2.6956 -2.1027
  328MOL0     H44243   8.876   2.469   8.205 -0.9283  0.1596 -1.1764
  328MOL0     H44244   8.752   2.917   8.652 -0.8039 -0.7624 -2.0931
  328MOL0     H44245   8.601   3.132   8.654  1.0014 -0.4353  0.9474
  328MOL0     H44246   8.478   3.248   8.517 -1.2244  1.0332  0.0903
  328MOL0     H44247   8.515   3.362   8.658  2.1343 -0.8468 -0.2933
  328MOL0     H44248   8.500   3.547   8.489  0.5585  0.4953 -4.0125
  328MOL0     H44249   8.468   3.416   8.367 -2.5881 -0.6985 -0.5465
  328MOL0     H44250   8.289   3.464   8.608  0.2615 -2.6494  0.7081
  328MOL0     H44251   8.251   3.353   8.472  0.3303  0.3958 -2.7630
  328MOL0     H44252   8.246   3.553   8.318 -2.2726  2.5665 -1.0733
  328MOL0     H44253   8.103   3.510   8.426 -1.3615  0.8598  2.3113
  328MOL0     H44254   8.243   3.758   8.409  0.8425 -0.5000 -1.5470
  328MOL0     H44255   8.299   3.704   8.548  0.0247  2.8774 -0.1647
  328MOL0     H44256   7.999   3.695   8.460  0.5933  0.2650 -1.2039
  328MOL0     H44257   8.038   3.676   8.630  4.5580 -2.9954 -1.5323
  328MOL0     H44258   8.116   3.925   8.473  1.1406 -0.6331 -0.3947
  328MOL0     H44259   8.119   3.901   8.643 -0.3037 -1.6809  0.6176
  328MOL0     H44260   7.878   3.855   8.638  0.8903 -1.5659 -0.8345
  328MOL0     H44261   7.876   3.879   8.465  1.1347 -0.1377  0.3858
  328MOL0     H44262   8.890   3.296   8.388  0.8390 -0.8860  0.2277
  328MOL0     H44263   9.027   3.106   8.414 -0.6653  0.0620  0.6159
  328MOL0     H44264   9.132   2.698   8.635 -1.0551 -0.7279  1.5905
  328MOL0     H44265   9.239   2.486   8.648  1.0604  3.6261  0.2492
  328MOL0     H44266  10.289   2.570   9.256 -0.4004 -0.8002  1.4799
  328MOL0     H44267  10.345   2.818   9.299 -0.7376  3.0176  3.3705
  328MOL0     H44268  10.138   3.166   9.529 -0.1488 -1.2146 -0.9620
  328MOL0     H44269  10.115   3.410   9.623  1.1585 -0.4684  1.4852
  328MOL0     H44270  10.382   3.731   9.426 -0.9026  0.1397 -1.5560
  328MOL0     H44271  10.228   3.767   9.357  1.2641  1.6219  0.8493
  328MOL0     H44272  10.309   3.854   9.609 -2.7218 -3.0907  2.2593
  328MOL0     H44273  10.145   3.884   9.542  0.1028 -0.7497 -0.7451
  328MOL0     H44274  10.279   4.078   9.515 -1.3380 -1.0303  0.9514
  328MOL0     H44275  10.241   4.016   9.356  0.3132  2.5557  1.3426
  328MOL0     H44276  10.466   3.908   9.334  1.6419 -0.0710  1.3396
  328MOL0     H44277  10.514   4.008   9.481  1.5374 -0.9098 -0.6872
  328MOL0     H44278  10.504   4.324   9.251 -2.8408  1.3302  2.6144
  328MOL0     H44279  10.366   3.540   9.303  0.6988 -0.7838 -1.8752
  328MOL0     H44280  10.382   3.303   9.215 -1.5185 -0.4510 -0.3709
  329MOL0     O44281   9.899   1.883   3.550 -0.5869 -0.1079 -0.7672
  329MOL0     C44282   9.802   1.886   3.463 -0.6648  0.1009  0.1996
  329MOL0     O44283   9.821   1.880   3.325  0.4238 -0.2181 -0.8467
  329MOL0     C44284   9.950   1.867   3.280  0.0166 -0.5314 -0.0011
  329MOL0     C44285   9.999   1.749   3.225 -0.6306  0.4781 -0.8389
  329MOL0     C44286  10.123   1.746   3.172 -0.5573  0.2239  0.1195
  329MOL0     C44287  10.211   1.849   3.181  0.8211 -0.1479 -0.4175
  329MOL0     O44288  10.345   1.861   3.136  0.4214 -0.3089  0.8821
  329MOL0     C44289  10.396   1.743   3.054  0.2247  0.1777  0.1763
  329MOL0     C44290  10.551   1.747   3.028  0.4277  1.0295  0.4584
  329MOL0     C44291  10.618   1.731   3.165  1.3371 -1.3668 -0.0740
  329MOL0     C44292  10.765   1.696   3.149  0.1655 -0.0045  0.8194
  329MOL0     C44293  10.867   1.789   3.078 -0.0778 -0.7029 -0.4167
  329MOL0     C44294  10.888   1.904   3.175  0.4847  0.0858 -0.2388
  329MOL0     C44295  10.939   2.028   3.098  1.0239 -0.8852  0.9448
  329MOL0     C44296  10.932   2.168   3.178  0.5660  0.4789 -0.1416
  329MOL0     N44297  11.023   2.259   3.120 -0.0654  1.3442  0.5700
  329MOL0     C44298  11.110   2.342   3.184  0.3100  0.1064  0.5210
  329MOL0     C44299  11.133   2.433   3.087 -0.5740  1.1830  0.0659
  329MOL0     C44300  11.215   2.557   3.103 -0.5823  0.5692 -0.0651
  329MOL0     C44301  11.144   2.673   3.156  0.1451  0.4373  0.9379
  329MOL0     C44302  11.094   2.637   3.300 -0.3845  0.3968  0.2035
  329MOL0     C44303  11.050   2.756   3.379  1.1872 -0.4644 -0.4359
  329MOL0     O44304  10.947   2.838   3.318 -0.4397 -0.1347  0.1394
  329MOL0     C44305  10.987   2.958   3.264  1.4799  0.3257  0.5711
  329MOL0     C44306  10.885   3.028   3.192 -0.3881 -0.3526  0.2845
  329MOL0     C44307  10.910   3.134   3.107 -0.1861  0.2103  0.1031
  329MOL0     C44308  10.797   3.164   3.004 -0.0453 -1.2521  0.1118
  329MOL0     C44309  11.039   3.198   3.106  0.0166  0.1706 -1.0109
  329MOL0     C44310  11.072   3.317   3.026 -0.4029  0.4749  0.1292
  329MOL0     O44311  11.065   3.440   3.092 -0.6476  0.1052 -1.0513
  329MOL0     C44312  11.055   3.554   3.017  0.1217  0.4689 -0.6030
  329MOL0     C44313  11.108   3.671   3.085  0.2179 -0.6514 -0.4526
  329MOL0     C44314  11.089   3.791   3.022  0.0910  0.1205 -0.5893
  329MOL0     C44315  11.031   3.802   2.899  0.3002 -0.1523 -0.0041
  329MOL0     O44316  11.005   3.935   2.864 -0.9012 -0.3798 -0.0071
  329MOL0     C44317  11.118   4.002   2.798 -0.1688  0.1942  0.4178
  329MOL0     C44318  11.246   4.016   2.880 -0.4811  0.6116 -0.7619
  329MOL0     C44319  11.228   4.133   2.980 -0.4694  1.1380  0.2286
  329MOL0     C44320  11.334   4.130   3.085  0.0673  0.6261 -0.2603
  329MOL0     C44321  11.322   4.256   3.184 -0.0775  0.6553 -0.8391
  329MOL0     C44322  11.449   4.266   3.282 -0.0740 -0.1158  0.6717
  329MOL0     C44323  11.457   4.391   3.371 -0.8530  0.5162  0.2282
  329MOL0     C44324  11.576   4.368   3.469 -0.4658 -0.2897  0.3318
  329MOL0    Cl44325  11.601   4.517   3.559 -0.3056 -0.3632 -0.2640
  329MOL0     C44326  10.991   3.691   2.831 -0.2761  0.4409  0.2198
  329MOL0     C44327  10.991   3.567   2.896 -0.4236 -0.4931  0.5794
  329MOL0     O44328  11.095   3.298   2.906  0.0144  0.4252 -0.3838
  329MOL0     C44329  11.132   3.142   3.192  0.4771 -0.4353  0.0965
  329MOL0     C44330  11.112   3.015   3.255  0.5953 -0.9706  0.8754
  329MOL0     N44331  11.057   2.412   2.970 -0.1625  0.1927 -0.8458
  329MOL0     N44332  10.980   2.311   3.000 -0.3813 -0.0850  1.0846
  329MOL0     C44333  10.170   1.968   3.225  0.1837  0.2424 -0.9685
  329MOL0     C44334  10.037   1.981   3.276  0.3855  0.1889  0.0886
  329MOL0     C44335   9.653   1.890   3.500 -1.0647 -0.7596  0.2187
  329MOL0     C44336   9.616   1.900   3.634 -0.6634  0.0851  1.0033
  329MOL0     C44337   9.479   1.901   3.668 -0.3438 -0.1036  0.1289
  329MOL0     C44338   9.380   1.918   3.567  0.1957 -0.0173  0.1068
  329MOL0     O44339   9.238   1.931   3.592 -0.1812  0.0465  0.3134
  329MOL0     C44340   9.200   1.962   3.728 -0.1820  0.1225 -0.0991
  329MOL0     C44341   9.181   1.838   3.810 -0.1245  0.2884  1.4700
  329MOL0     C44342   9.129   1.715   3.730 -0.2141  0.1346  0.1375
  329MOL0     C44343   9.077   1.612   3.842  0.0615  0.3396 -0.0836
  329MOL0     C44344   8.963   1.543   3.774 -0.1773 -0.1177 -0.2939
  329MOL0     C44345   8.866   1.502   3.722 -0.2710 -0.1130  1.0271
  329MOL0     C44346   9.424   1.910   3.435  0.6830  0.3139  0.2573
  329MOL0     C44347   9.552   1.881   3.405 -0.0036 -0.6929  0.3760
  329MOL0     H44348   9.947   1.654   3.223  1.0288 -0.5215  0.4988
  329MOL0     H44349  10.158   1.652   3.131  0.0714  0.0725  0.9761
  329MOL0     H44350  10.382   1.648   3.107 -1.1856 -0.1070 -0.6575
  329MOL0     H44351  10.357   1.737   2.952  1.1544  0.2717 -0.2017
  329MOL0     H44352  10.574   1.668   2.955 -1.9696  0.2317  0.4848
  329MOL0     H44353  10.578   1.841   2.978 -2.9105  0.5783 -2.6049
  329MOL0     H44354  10.615   1.828   3.216  4.9287 -0.5063 -1.1876
  329MOL0     H44355  10.567   1.655   3.225  0.0245 -1.0434 -0.7456
  329MOL0     H44356  10.804   1.677   3.250  0.0137  1.2107  1.1214
  329MOL0     H44357  10.766   1.604   3.089  0.6126 -0.5905  1.7026
  329MOL0     H44358  10.956   1.733   3.046 -0.4257 -1.6969  0.3179
  329MOL0     H44359  10.824   1.826   2.984  2.3569  0.8311 -1.0420
  329MOL0     H44360  10.791   1.936   3.216  0.7807  2.4000 -1.2241
  329MOL0     H44361  10.948   1.875   3.262 -0.2230  4.1666  1.8590
  329MOL0     H44362  11.048   2.017   3.090  1.2987  1.9430 -0.5194
  329MOL0     H44363  10.879   2.030   3.006 -1.1832 -2.5928  2.2516
  329MOL0     H44364  10.963   2.145   3.280  1.5560 -1.0010 -0.7433
  329MOL0     H44365  10.832   2.211   3.186  0.5375  0.0468  2.9298
  329MOL0     H44366  11.139   2.346   3.288  0.9320  2.6357  0.3267
  329MOL0     H44367  11.293   2.523   3.171  2.8669 -2.3295 -4.8607
  329MOL0     H44368  11.257   2.557   3.002  3.3117 -0.7898  1.3683
  329MOL0     H44369  11.070   2.709   3.084  0.6079 -0.6373 -0.1066
  329MOL0     H44370  11.210   2.760   3.162  0.1920  0.3483  1.8717
  329MOL0     H44371  11.180   2.596   3.354  0.3225  1.8137  0.2252
  329MOL0     H44372  11.013   2.564   3.300 -1.8173  1.9276 -0.3389
  329MOL0     H44373  11.126   2.802   3.443  1.3485 -0.6324 -0.5052
  329MOL0     H44374  10.989   2.713   3.459 -1.2767 -0.0912 -2.0338
  329MOL0     H44375  10.786   2.985   3.191 -0.2970 -0.5733 -1.4606
  329MOL0     H44376  10.804   3.088   2.926  0.5609 -1.3125  0.2188
  329MOL0     H44377  10.695   3.154   3.042 -0.5713  1.9013 -0.2171
  329MOL0     H44378  10.799   3.266   2.966 -0.1908 -1.6748 -1.0665
  329MOL0     H44379  11.157   3.654   3.180  1.0534 -4.4778 -1.4294
  329MOL0     H44380  11.123   3.879   3.077 -3.3140 -0.2497  2.4181
  329MOL0     H44381  11.148   3.939   2.715  1.0353  0.0992  0.9044
  329MOL0     H44382  11.096   4.100   2.754  2.2225  1.5937  2.0877
  329MOL0     H44383  11.278   3.921   2.924  0.4927  2.1920  2.1874
  329MOL0     H44384  11.329   4.046   2.816  0.1181  3.0199  0.9926
  329MOL0     H44385  11.125   4.128   3.017 -0.2958  0.8999  0.6937
  329MOL0     H44386  11.235   4.223   2.919  0.4109  2.9815  2.8695
  329MOL0     H44387  11.332   4.034   3.137 -1.4886 -1.3806 -3.6703
  329MOL0     H44388  11.427   4.143   3.028  0.1475 -0.2151 -0.3264
  329MOL0     H44389  11.237   4.249   3.252  1.1900 -1.0352  0.6669
  329MOL0     H44390  11.306   4.347   3.125 -1.1685  1.3378  0.4592
  329MOL0     H44391  11.450   4.180   3.350  0.9045  2.2499  3.8717
  329MOL0     H44392  11.534   4.266   3.213  0.0196  1.0946  0.7808
  329MOL0     H44393  11.364   4.408   3.427 -1.6430 -1.2116 -0.4905
  329MOL0     H44394  11.475   4.484   3.318  1.0025  1.0262  1.6724
  329MOL0     H44395  11.665   4.321   3.425  0.3701 -0.6106  2.2492
  329MOL0     H44396  11.546   4.287   3.537 -1.0397  1.1029  1.7902
  329MOL0     H44397  10.953   3.692   2.729  1.2485 -3.2593 -0.5382
  329MOL0     H44398  10.951   3.481   2.844  0.5436 -0.4304 -0.2905
  329MOL0     H44399  11.223   3.201   3.199 -1.5214  2.9695 -0.2432
  329MOL0     H44400  11.208   2.987   3.296  1.6279  1.8698  0.6031
  329MOL0     H44401  10.235   2.054   3.222 -0.4412  0.7147 -3.3917
  329MOL0     H44402  10.008   2.072   3.327  0.6214  0.1878  0.2234
  329MOL0     H44403   9.686   1.896   3.717 -2.7544 -0.2237  2.8282
  329MOL0     H44404   9.449   1.896   3.772 -1.0299  1.0780  0.0023
  329MOL0     H44405   9.275   2.031   3.767  0.0779 -0.9427  1.3380
  329MOL0     H44406   9.102   2.009   3.718 -0.6166 -0.3449  1.6380
  329MOL0     H44407   9.119   1.868   3.895  0.5043 -0.2777  2.1471
  329MOL0     H44408   9.271   1.813   3.868 -0.8147 -1.1972  1.9419
  329MOL0     H44409   9.218   1.684   3.674  0.2496 -1.1843  1.5335
  329MOL0     H44410   9.051   1.758   3.666  1.8920  1.5466 -1.6143
  329MOL0     H44411   9.061   1.653   3.942 -1.8592  0.3318 -0.3507
  329MOL0     H44412   9.163   1.544   3.846  0.3027  0.5194 -1.4922
  329MOL0     H44413   8.775   1.454   3.693 -0.3951  0.2459  0.8009
  329MOL0     H44414   9.352   1.924   3.355 -0.8022  1.1045  1.6508
  329MOL0     H44415   9.585   1.865   3.303  0.9468  2.4171  0.1228
  330MOL0     O44416  10.107   0.517   9.882  0.2884 -0.0183 -0.0412
  330MOL0     C44417  10.198   0.490   9.966  0.1368 -0.9549  0.8958
  330MOL0     O44418  10.199   0.527  10.099  0.4386 -0.6023 -0.6309
  330MOL0     C44419  10.095   0.545  10.187  0.3019  0.2320  0.4456
  330MOL0     C44420   9.965   0.492  10.161 -0.3024 -0.0671 -0.2952
  330MOL0     C44421   9.866   0.523  10.255  0.2017 -0.0472  0.2829
  330MOL0     C44422   9.905   0.574  10.386 -0.6523  0.5999 -0.8787
  330MOL0     O44423   9.806   0.601  10.476  0.2900 -0.3669  0.1354
  330MOL0     C44424   9.796   0.730  10.536 -0.0148 -1.1403  0.4006
  330MOL0     C44425   9.828   0.730  10.682  0.9346 -0.6530 -0.6376
  330MOL0     C44426   9.809   0.873  10.735 -0.3189  0.0518  0.4074
  330MOL0     C44427   9.824   0.890  10.894  0.4527 -0.2624  0.4466
  330MOL0     C44428   9.885   1.033  10.915 -0.2335  0.0398  0.5502
  330MOL0     C44429   9.886   1.051  11.072 -0.0945  0.8006  0.5909
  330MOL0     C44430   9.962   1.181  11.100  0.3987 -0.2674  0.0711
  330MOL0     C44431   9.985   1.207  11.245  0.1282  0.1994 -0.2913
  330MOL0     N44432   9.871   1.193  11.342 -0.0393 -0.5771  0.7478
  330MOL0     C44433   9.837   1.083  11.419 -0.3521  0.2844  0.3148
  330MOL0     C44434   9.729   1.122  11.490  1.2525  0.0644 -0.2409
  330MOL0     C44435   9.682   1.047  11.613  0.4718 -0.5568  0.1569
  330MOL0     C44436   9.536   1.063  11.633 -0.6766 -0.5434  0.3999
  330MOL0     C44437   9.458   1.001  11.516 -0.3626 -0.1152  0.9300
  330MOL0     C44438   9.453   0.847  11.513 -0.0822  0.3414  0.2746
  330MOL0     O44439   9.406   0.795  11.642 -0.6497 -0.0645  0.9279
  330MOL0     C44440   9.274   0.802  11.679 -0.2575  0.0073  0.7199
  330MOL0     C44441   9.244   0.753  11.802 -0.1163  1.2845 -0.7542
  330MOL0     C44442   9.116   0.756  11.858 -0.2066  0.0275  0.3358
  330MOL0     C44443   9.103   0.715  12.008 -0.0618 -0.7161  0.6397
  330MOL0     C44444   9.009   0.803  11.785 -0.8278 -0.4423  0.3350
  330MOL0     C44445   8.863   0.792  11.827 -1.0218 -0.6749 -0.7279
  330MOL0     O44446   8.771   0.880  11.769  0.5309 -0.9789  0.0560
  330MOL0     C44447   8.642   0.890  11.825  0.3997 -0.1664 -0.5094
  330MOL0     C44448   8.537   0.808  11.783 -0.2854 -0.0071  0.0304
  330MOL0     C44449   8.402   0.833  11.835 -0.2807  1.0294  0.7435
  330MOL0     C44450   8.382   0.939  11.923 -0.0067 -0.1955  0.2866
  330MOL0     O44451   8.258   0.974  11.962  0.2026 -0.1865 -0.1860
  330MOL0     C44452   8.148   0.882  11.921  0.2386 -0.0226  0.1786
  330MOL0     C44453   8.032   0.926  12.003 -0.0644 -0.1524 -0.1242
  330MOL0     C44454   8.039   0.905  12.155  0.0686 -0.3731 -0.2237
  330MOL0     C44455   7.915   0.956  12.212 -0.4351  0.5962  0.3914
  330MOL0     C44456   7.903   0.941  12.368  0.5664 -0.1174 -0.9654
  330MOL0     C44457   7.986   1.046  12.454  0.5223 -0.2987  0.4882
  330MOL0     C44458   7.901   1.177  12.463  0.1530 -0.5403 -0.9026
  330MOL0     C44459   7.965   1.293  12.550  1.2624 -0.4196  0.8708
  330MOL0    Cl44460   7.890   1.455  12.523 -0.0325 -0.2209  0.5345
  330MOL0     C44461   8.491   1.011  11.970  0.4107 -0.2099 -0.9118
  330MOL0     C44462   8.618   0.978  11.934  0.2545  0.2776 -0.1241
  330MOL0     O44463   8.836   0.701  11.906 -0.6254 -0.6666 -1.0781
  330MOL0     C44464   9.029   0.847  11.656 -1.0552 -0.2741  0.8391
  330MOL0     C44465   9.166   0.854  11.602 -0.4117  0.2032  0.4399
  330MOL0     N44466   9.692   1.248  11.442  0.0962 -0.0733 -0.4552
  330MOL0     N44467   9.777   1.291  11.363  0.4383 -0.3775 -1.2125
  330MOL0     C44468  10.041   0.599  10.414  0.9006  0.3527  0.2465
  330MOL0     C44469  10.135   0.586  10.308 -0.9981 -0.3425 -0.9684
  330MOL0     C44470  10.315   0.424   9.913  0.0617  0.1982  0.0354
  330MOL0     C44471  10.412   0.370   9.998 -0.0136  1.3654 -0.0322
  330MOL0     C44472  10.530   0.306   9.946  0.0445  0.4521  0.7908
  330MOL0     C44473  10.550   0.306   9.799  0.0164  1.1138 -1.0701
  330MOL0     O44474  10.668   0.264   9.732  0.4026  0.1454  0.7328
  330MOL0     C44475  10.760   0.192   9.801  0.5639  0.0907 -0.1295
  330MOL0     C44476  10.898   0.168   9.730 -0.9517 -0.1508 -0.3372
  330MOL0     C44477  10.884   0.117   9.597  0.0353 -0.5813 -1.0009
  330MOL0     C44478  11.019   0.061   9.550  0.6247 -0.0046  0.6841
  330MOL0     C44479  10.994   0.003   9.421  0.0828 -0.1089 -0.3675
  330MOL0     C44480  10.982  -0.067   9.318 -0.3877  0.4888  1.2962
  330MOL0     C44481  10.450   0.355   9.725 -0.9470 -0.6731 -0.4246
  330MOL0     C44482  10.334   0.415   9.776  0.3285 -0.5549 -0.7626
  330MOL0     H44483   9.949   0.440  10.067  2.3364 -1.6306  0.0288
  330MOL0     H44484   9.760   0.506  10.242  0.1882  1.3441 -1.7706
  330MOL0     H44485   9.865   0.800  10.487 -0.3906 -2.5885 -2.4122
  330MOL0     H44486   9.693   0.760  10.516  0.4300 -0.8910 -1.7987
  330MOL0     H44487   9.749   0.673  10.732  1.0540 -1.6539 -1.5504
  330MOL0     H44488   9.929   0.689  10.691  1.5370  0.9620  0.5304
  330MOL0     H44489   9.887   0.936  10.692  0.1943 -0.0845  1.1174
  330MOL0     H44490   9.710   0.906  10.701 -0.5279  1.7250  2.3662
  330MOL0     H44491   9.731   0.887  10.952  0.3275  2.6576  0.5337
  330MOL0     H44492   9.888   0.807  10.924  1.3104 -0.2294 -1.1722
  330MOL0     H44493   9.986   1.032  10.871 -0.9070 -1.5632 -1.1418
  330MOL0     H44494   9.825   1.107  10.862 -0.3881 -1.6079 -1.7253
  330MOL0     H44495   9.788   1.056  11.120 -0.5498 -0.7965 -0.1035
  330MOL0     H44496   9.938   0.964  11.114 -1.9668  0.6063  2.7043
  330MOL0     H44497  10.059   1.181  11.049  0.8079  2.1980  0.7281
  330MOL0     H44498   9.895   1.263  11.072 -1.3104 -1.4888  0.3811
  330MOL0     H44499  10.011   1.313  11.256 -1.7290  0.5889  0.8289
  330MOL0     H44500  10.068   1.145  11.280  0.2936  0.0903 -0.8781
  330MOL0     H44501   9.903   0.997  11.432  2.0234  1.5429 -2.2758
  330MOL0     H44502   9.709   0.942  11.602 -0.1886 -0.8942  1.4813
  330MOL0     H44503   9.743   1.073  11.700  4.1029 -1.9056 -1.7508
  330MOL0     H44504   9.508   1.168  11.626 -0.1138 -0.4966 -2.2308
  330MOL0     H44505   9.500   1.017  11.725 -0.6434 -0.5543  0.4075
  330MOL0     H44506   9.502   1.029  11.420 -1.9275 -2.5925 -0.6002
  330MOL0     H44507   9.356   1.039  11.522 -0.7926  0.9380 -5.7998
  330MOL0     H44508   9.552   0.818  11.477  0.0657  0.9471  0.1797
  330MOL0     H44509   9.386   0.796  11.444 -2.1012 -0.7678  2.8628
  330MOL0     H44510   9.321   0.695  11.852 -0.8199  1.1957  0.2534
  330MOL0     H44511   9.042   0.624  12.013 -0.8438 -0.2718 -0.2869
  330MOL0     H44512   9.203   0.690  12.043  2.0412  2.0073 -2.7348
  330MOL0     H44513   9.047   0.796  12.056  1.1058  1.4506 -1.4148
  330MOL0     H44514   8.558   0.736  11.705  0.3832  1.2842 -1.0321
  330MOL0     H44515   8.317   0.776  11.801 -1.4827  2.3622  1.3702
  330MOL0     H44516   8.128   0.887  11.814  0.2193 -4.7503 -0.2357
  330MOL0     H44517   8.174   0.780  11.951 -0.7512 -1.5315 -3.5519
  330MOL0     H44518   8.006   1.032  11.987 -1.6900  0.2936  4.2497
  330MOL0     H44519   7.947   0.867  11.968 -1.7284  1.8648  0.3399
  330MOL0     H44520   8.119   0.969  12.194 -0.8270  1.6157 -1.4745
  330MOL0     H44521   8.058   0.802  12.184 -1.0589 -0.5037  0.0854
  330MOL0     H44522   7.912   1.060  12.177  2.8639  0.3018 -1.2016
  330MOL0     H44523   7.824   0.918  12.164  0.7274 -1.4116 -0.3502
  330MOL0     H44524   7.939   0.846  12.410 -3.0033 -1.1701  0.0266
  330MOL0     H44525   7.801   0.963  12.401  0.8067 -1.3307  0.7437
  330MOL0     H44526   8.006   1.016  12.558 -0.2289 -1.1836  0.3862
  330MOL0     H44527   8.081   1.074  12.408 -2.7084  5.1699 -3.9489
  330MOL0     H44528   7.804   1.160  12.512  0.0646  2.1378  0.0565
  330MOL0     H44529   7.859   1.212  12.368 -4.6445  1.6285  1.6494
  330MOL0     H44530   8.071   1.305  12.525  0.8512  1.4437 -0.1863
  330MOL0     H44531   7.944   1.260  12.652 -2.7987  0.2339  0.4171
  330MOL0     H44532   8.468   1.090  12.040 -2.7299 -0.6092 -1.3745
  330MOL0     H44533   8.691   1.032  11.993 -1.4300  0.9765  1.4116
  330MOL0     H44534   8.945   0.881  11.596 -0.1269  3.8754  1.5850
  330MOL0     H44535   9.188   0.900  11.507 -0.3251  0.2339  0.4753
  330MOL0     H44536  10.079   0.646  10.504  1.5413 -0.2334  0.2924
  330MOL0     H44537  10.232   0.632  10.316 -1.5455  0.5060  2.0711
  330MOL0     H44538  10.407   0.370  10.106 -1.0644  2.1362 -0.0650
  330MOL0     H44539  10.606   0.275  10.018  0.6727 -1.1155 -0.4591
  330MOL0     H44540  10.778   0.243   9.896 -0.6485 -0.5943  0.4936
  330MOL0     H44541  10.708   0.101   9.834 -0.1655  0.8988  1.0379
  330MOL0     H44542  10.956   0.103   9.795  1.9439  2.8740  0.3767
  330MOL0     H44543  10.961   0.257   9.733  4.4757 -3.4518 -2.1181
  330MOL0     H44544  10.847   0.185   9.520  0.1459  0.3242 -0.2774
  330MOL0     H44545  10.817   0.032   9.613  0.7110 -0.7514  1.2041
  330MOL0     H44546  11.053  -0.016   9.620 -0.2814 -3.4979 -2.4170
  330MOL0     H44547  11.104   0.129   9.537  0.5488 -0.4097 -2.9521
  330MOL0     H44548  10.982  -0.157   9.259  2.5116 -0.0580  1.9676
  330MOL0     H44549  10.471   0.363   9.619  1.7266 -3.9574 -0.3544
  330MOL0     H44550  10.269   0.462   9.702  0.6755  3.1693  1.0712
  331MOL0     O44551   3.984   4.606   5.263  0.4768  0.4334  0.5786
  331MOL0     C44552   3.969   4.557   5.373 -0.7799  0.3757  0.0920
  331MOL0     O44553   3.995   4.616   5.490 -0.7896 -0.3227  0.5184
  331MOL0     C44554   4.043   4.749   5.490  1.0253  0.0018  0.2469
  331MOL0     C44555   4.176   4.778   5.451 -0.0751 -0.1560  0.0950
  331MOL0     C44556   4.216   4.911   5.447 -0.7096  0.0382  0.3711
  331MOL0     C44557   4.146   5.011   5.506  0.6318 -0.6659 -0.9168
  331MOL0     O44558   4.200   5.137   5.505 -0.0591  1.4723 -0.2931
  331MOL0     C44559   4.129   5.252   5.540 -0.1074  0.0398 -0.1044
  331MOL0     C44560   4.210   5.363   5.493 -0.4387  0.7307  0.1724
  331MOL0     C44561   4.245   5.368   5.337  0.3928 -0.0450  0.3069
  331MOL0     C44562   4.293   5.505   5.297  0.6038 -0.5274  0.3788
  331MOL0     C44563   4.297   5.516   5.136 -0.0482  0.3039  0.1391
  331MOL0     C44564   4.322   5.665   5.106 -1.1521 -0.3838  0.0623
  331MOL0     C44565   4.350   5.685   4.958 -0.2563  0.3477 -0.1330
  331MOL0     C44566   4.340   5.832   4.924 -0.0677  0.1082  0.1519
  331MOL0     N44567   4.418   5.925   5.008  0.5625  0.0978 -0.7318
  331MOL0     C44568   4.551   5.901   5.049  1.3109  1.1712 -0.7693
  331MOL0     C44569   4.566   5.977   5.158 -0.5171 -0.7603 -0.1365
  331MOL0     C44570   4.703   5.987   5.231  0.2060  0.1533 -0.8485
  331MOL0     C44571   4.750   5.844   5.268  0.4003  0.1538  0.0535
  331MOL0     C44572   4.871   5.843   5.364 -0.8822  0.3382  0.2983
  331MOL0     C44573   4.815   5.850   5.502  0.3690 -1.0619 -0.4212
  331MOL0     O44574   4.767   5.711   5.517 -0.5369  0.6600 -0.6476
  331MOL0     C44575   4.738   5.661   5.642  0.0481 -0.0309 -1.1911
  331MOL0     C44576   4.748   5.729   5.762  0.0596  1.3108  0.2202
  331MOL0     C44577   4.732   5.662   5.887  0.2315  0.0556  0.4910
  331MOL0     C44578   4.760   5.752   6.012  0.3307 -0.3370  0.8189
  331MOL0     C44579   4.709   5.519   5.891 -0.5386 -0.9572 -0.5873
  331MOL0     C44580   4.694   5.445   6.016  0.4756 -0.5628 -0.4550
  331MOL0     O44581   4.718   5.309   6.005  0.0043 -0.1179  1.1836
  331MOL0     C44582   4.739   5.242   6.117  0.2678 -1.1248  0.6292
  331MOL0     C44583   4.865   5.237   6.169  1.5980  0.3458 -0.0271
  331MOL0     C44584   4.884   5.184   6.287 -0.0700  0.7948 -0.8353
  331MOL0     C44585   4.784   5.134   6.368  0.3668 -0.8408  0.5329
  331MOL0     O44586   4.821   5.108   6.490 -0.1186  0.1248 -0.0493
  331MOL0     C44587   4.745   5.036   6.581 -0.1823 -0.5328  0.0175
  331MOL0     C44588   4.758   4.881   6.559 -0.5091  0.6083 -0.9442
  331MOL0     C44589   4.735   4.798   6.690  0.1658  0.0328 -0.8449
  331MOL0     C44590   4.819   4.664   6.698 -0.6914  0.1105  0.7233
  331MOL0     C44591   4.776   4.581   6.823 -0.4866 -0.2478  0.4220
  331MOL0     C44592   4.858   4.451   6.837  0.0960 -0.5023 -1.0335
  331MOL0     C44593   5.013   4.462   6.812 -0.3146 -0.0429  0.2476
  331MOL0     C44594   5.072   4.318   6.815  0.7603 -1.1544 -0.2616
  331MOL0    Cl44595   5.061   4.249   6.983 -0.3527  0.1102  0.2238
  331MOL0     C44596   4.656   5.127   6.314  0.5308 -0.3259 -0.0896
  331MOL0     C44597   4.632   5.188   6.187  0.1459  0.3768 -1.2778
  331MOL0     O44598   4.652   5.498   6.115 -0.4782 -0.4471  0.1345
  331MOL0     C44599   4.710   5.451   5.763  0.2920 -0.2091 -0.2272
  331MOL0     C44600   4.728   5.517   5.646  0.4043 -1.3146 -0.1096
  331MOL0     N44601   4.452   6.052   5.186  0.0202  0.0005 -0.3604
  331MOL0     N44602   4.361   6.011   5.101  0.1392 -0.1314  0.7869
  331MOL0     C44603   4.026   4.975   5.567 -0.1746  0.2196  0.2600
  331MOL0     C44604   3.967   4.850   5.552 -0.1477  0.0006  0.4321
  331MOL0     C44605   3.925   4.417   5.371 -0.3972  0.1077  0.3885
  331MOL0     C44606   3.923   4.344   5.487  0.4406 -0.1126  0.0519
  331MOL0     C44607   3.888   4.212   5.483  0.3623 -0.1021  0.6582
  331MOL0     C44608   3.872   4.130   5.368  0.0783 -0.0876 -0.2276
  331MOL0     O44609   3.865   3.996   5.388  0.3674  0.3277  0.5273
  331MOL0     C44610   3.872   3.917   5.265  0.9392  0.1305 -0.8463
  331MOL0     C44611   3.889   3.775   5.309 -0.5552 -0.3624 -0.1828
  331MOL0     C44612   4.028   3.751   5.374 -0.5695 -0.5991 -0.8801
  331MOL0     C44613   4.019   3.602   5.413  0.2018  0.7008  0.1154
  331MOL0     C44614   3.914   3.573   5.519  0.9060 -0.2757  0.2963
  331MOL0     C44615   3.835   3.557   5.607  0.1049  0.4436  0.5079
  331MOL0     C44616   3.860   4.213   5.253 -0.2914  0.7865 -0.9071
  331MOL0     C44617   3.885   4.353   5.251  0.8705  0.2709  0.3775
  331MOL0     H44618   4.237   4.697   5.412 -0.1425  0.4180 -1.2610
  331MOL0     H44619   4.306   4.922   5.388 -0.9646  3.1237  0.4123
  331MOL0     H44620   4.027   5.234   5.505 -0.2736 -3.1249  1.5998
  331MOL0     H44621   4.123   5.273   5.647  0.1910  2.6968 -0.5477
  331MOL0     H44622   4.158   5.454   5.524  1.1477  1.3151  1.2189
  331MOL0     H44623   4.299   5.367   5.557 -1.6436  0.0016  1.9751
  331MOL0     H44624   4.315   5.290   5.307 -1.2694 -0.6817 -2.1810
  331MOL0     H44625   4.163   5.344   5.269 -0.6847 -0.8907  1.8566
  331MOL0     H44626   4.236   5.588   5.340  2.5639  2.2728 -2.0212
  331MOL0     H44627   4.392   5.514   5.344 -0.3793  0.3732  2.4108
  331MOL0     H44628   4.359   5.436   5.096  0.6189 -0.5758  2.7379
  331MOL0     H44629   4.194   5.500   5.101 -0.1389 -2.3094  1.3890
  331MOL0     H44630   4.245   5.731   5.146  3.2053  3.1177  3.6563
  331MOL0     H44631   4.418   5.694   5.150 -1.0343 -1.8431  0.8394
  331MOL0     H44632   4.454   5.663   4.930  1.0877  3.3033  1.9597
  331MOL0     H44633   4.274   5.631   4.901  1.0548 -0.7845 -0.8743
  331MOL0     H44634   4.235   5.861   4.934  0.4690  2.3948 -0.2876
  331MOL0     H44635   4.357   5.839   4.816  1.9009 -1.3848  0.3093
  331MOL0     H44636   4.620   5.826   5.011  1.6312  0.7402  0.5941
  331MOL0     H44637   4.782   6.038   5.175  0.2958  1.7127  0.6021
  331MOL0     H44638   4.700   6.045   5.323 -0.1794  0.8291 -1.2765
  331MOL0     H44639   4.772   5.782   5.181 -0.4605  1.9117 -1.4931
  331MOL0     H44640   4.659   5.801   5.311 -0.7553  3.4626  1.2671
  331MOL0     H44641   4.942   5.925   5.345  0.2958 -0.3896  1.3967
  331MOL0     H44642   4.925   5.749   5.356 -0.7870 -0.0670  3.8935
  331MOL0     H44643   4.725   5.911   5.510 -0.9746 -2.7985 -1.5414
  331MOL0     H44644   4.901   5.885   5.560 -1.1450  1.3779  0.5323
  331MOL0     H44645   4.774   5.835   5.767  1.7092  0.9242  0.1840
  331MOL0     H44646   4.795   5.852   5.986 -0.1114 -0.7146 -1.4145
  331MOL0     H44647   4.668   5.767   6.070  0.6546  2.9077  0.6934
  331MOL0     H44648   4.827   5.706   6.084  0.3025 -3.0411 -0.7543
  331MOL0     H44649   4.952   5.267   6.111  0.8484  3.4066  0.2486
  331MOL0     H44650   4.986   5.186   6.325  0.0293 -3.8003 -0.2531
  331MOL0     H44651   4.788   5.048   6.681  0.9739  0.4202 -0.5719
  331MOL0     H44652   4.638   5.060   6.587 -0.5804 -2.0904 -0.2757
  331MOL0     H44653   4.671   4.865   6.495 -1.2752 -1.1300  0.4371
  331MOL0     H44654   4.856   4.853   6.519  0.4573 -1.6065  2.5275
  331MOL0     H44655   4.631   4.764   6.699  0.7149 -2.3170 -2.3336
  331MOL0     H44656   4.769   4.852   6.779 -3.3115 -0.8394  1.2123
  331MOL0     H44657   4.797   4.600   6.613  3.3746  0.5373 -0.8955
  331MOL0     H44658   4.927   4.683   6.696 -0.1651 -2.5125  1.1861
  331MOL0     H44659   4.671   4.553   6.816 -0.3737 -1.0913  1.7820
  331MOL0     H44660   4.778   4.631   6.920 -1.4330  1.8208 -0.5755
  331MOL0     H44661   4.841   4.414   6.939 -2.0694 -0.1573 -1.2237
  331MOL0     H44662   4.821   4.375   6.769 -2.6574  0.9934 -1.3617
  331MOL0     H44663   5.062   4.531   6.881  0.2909  0.4414 -0.6369
  331MOL0     H44664   5.033   4.490   6.708  0.8775  0.3062  0.5597
  331MOL0     H44665   5.173   4.320   6.775  0.8367  1.1934 -0.0890
  331MOL0     H44666   5.016   4.260   6.740 -4.8050  1.7640  1.1004
  331MOL0     H44667   4.571   5.094   6.374  0.7948 -5.3680 -1.9764
  331MOL0     H44668   4.533   5.189   6.142 -0.2551  2.6152 -0.5038
  331MOL0     H44669   4.696   5.344   5.763  0.4797 -0.2639 -1.9540
  331MOL0     H44670   4.726   5.456   5.557  0.1926 -2.5164  0.6965
  331MOL0     H44671   3.963   5.051   5.612  1.4885  1.1780  1.0796
  331MOL0     H44672   3.876   4.829   5.608 -1.9049  1.3042 -1.7400
  331MOL0     H44673   3.961   4.373   5.584 -1.1652  1.1725  0.3439
  331MOL0     H44674   3.887   4.150   5.572 -4.1180 -2.8404 -0.9709
  331MOL0     H44675   3.784   3.932   5.202 -0.2596  0.3862  0.8465
  331MOL0     H44676   3.965   3.946   5.215  2.0373  0.1266  1.1174
  331MOL0     H44677   3.873   3.692   5.240  2.3300 -1.5945  0.4856
  331MOL0     H44678   3.821   3.770   5.395 -2.8596  3.1172 -1.5571
  331MOL0     H44679   4.036   3.823   5.456 -1.6773  1.3271 -2.3767
  331MOL0     H44680   4.115   3.772   5.312  1.7590 -1.4981  1.8396
  331MOL0     H44681   4.113   3.574   5.461  1.3738 -0.3299 -2.6028
  331MOL0     H44682   4.001   3.548   5.320  1.8462 -0.0404  0.1998
  331MOL0     H44683   3.770   3.524   5.685  1.4109  0.0571  1.4769
  331MOL0     H44684   3.831   4.185   5.153 -1.1000  2.4202 -1.1744
  331MOL0     H44685   3.864   4.415   5.165  0.1786  3.3187  2.5801
  332MOL0     O44686  11.363   1.420   9.653 -0.0973 -0.2448 -0.0200
  332MOL0     C44687  11.364   1.504   9.742  0.5298  0.2049  0.2433
  332MOL0     O44688  11.435   1.623   9.751 -0.9395 -0.2163 -0.0545
  332MOL0     C44689  11.501   1.659   9.633  0.1722  0.3762  0.0556
  332MOL0     C44690  11.483   1.624   9.497 -0.5082  0.6344  0.0768
  332MOL0     C44691  11.584   1.663   9.397 -0.8647 -0.5791 -0.2616
  332MOL0     C44692  11.692   1.741   9.450 -0.6664  1.0025 -0.4948
  332MOL0     O44693  11.773   1.781   9.350 -0.2759 -0.8033 -0.6704
  332MOL0     C44694  11.893   1.853   9.378 -0.1794  0.1423  0.4482
  332MOL0     C44695  11.978   1.904   9.255  0.2859 -1.0245  0.1389
  332MOL0     C44696  11.909   2.031   9.205 -0.0568 -0.4350  0.0143
  332MOL0     C44697  11.993   2.103   9.109 -0.2628 -0.4506 -0.2708
  332MOL0     C44698  11.910   2.207   9.031 -0.2519 -0.1358  1.0435
  332MOL0     C44699  11.969   2.205   8.889 -0.7617 -0.5511 -0.2201
  332MOL0     C44700  11.942   2.321   8.796  0.7639 -0.4335 -0.4767
  332MOL0     C44701  11.970   2.461   8.854  0.3291 -0.5602 -0.4979
  332MOL0     N44702  12.110   2.482   8.894 -0.7896  0.1377 -0.0719
  332MOL0     C44703  12.170   2.446   9.018  0.4620  0.3547 -0.3440
  332MOL0     C44704  12.308   2.466   8.998 -0.0207  0.1781  0.0905
  332MOL0     C44705  12.412   2.456   9.106  0.4558 -0.9715 -0.3247
  332MOL0     C44706  12.384   2.548   9.227  0.1910 -0.6574  0.0973
  332MOL0     C44707  12.397   2.456   9.341  0.4834  0.0952 -0.0639
  332MOL0     C44708  12.352   2.541   9.477 -0.0708  0.2807  0.2785
  332MOL0     O44709  12.228   2.599   9.450  0.5354 -0.0868 -0.9526
  332MOL0     C44710  12.110   2.528   9.453  0.5674  0.8181  0.4879
  332MOL0     C44711  12.001   2.594   9.390 -0.6875  0.0220 -0.6769
  332MOL0     C44712  11.875   2.538   9.368  0.5254  0.5772 -0.1703
  332MOL0     C44713  11.774   2.620   9.295 -0.6274  0.4116 -0.7136
  332MOL0     C44714  11.852   2.408   9.423  1.1267  0.5753 -0.1099
  332MOL0     C44715  11.717   2.354   9.431 -0.0954  0.4276 -1.0817
  332MOL0     O44716  11.700   2.218   9.405 -1.1077  0.1685  0.4149
  332MOL0     C44717  11.566   2.166   9.407 -0.6285 -0.2125 -1.2527
  332MOL0     C44718  11.520   2.075   9.312 -0.0744 -0.2093  0.8349
  332MOL0     C44719  11.397   2.008   9.321 -0.3803 -0.4905  0.6325
  332MOL0     C44720  11.309   2.033   9.421 -0.0077 -0.4307 -0.1551
  332MOL0     O44721  11.183   1.971   9.410  1.0489 -0.3465  0.0800
  332MOL0     C44722  11.140   1.928   9.537 -0.3084 -0.6484 -0.1945
  332MOL0     C44723  11.044   1.817   9.537  0.4569  0.2352  0.2481
  332MOL0     C44724  11.127   1.675   9.499  0.4734 -1.1993 -0.0881
  332MOL0     C44725  11.030   1.554   9.500  0.0843 -0.1082 -0.3865
  332MOL0     C44726  11.080   1.409   9.512  0.8397 -0.1714  0.7497
  332MOL0     C44727  10.962   1.324   9.503 -0.0312 -0.6298  0.4797
  332MOL0     C44728  10.906   1.304   9.640  0.0736  0.0685 -1.6136
  332MOL0     C44729  10.784   1.208   9.654 -0.8479  1.2106  0.0582
  332MOL0    Cl44730  10.722   1.239   9.823  0.3301 -0.1527  0.6631
  332MOL0     C44731  11.353   2.123   9.525  0.2309 -0.3900 -0.4477
  332MOL0     C44732  11.477   2.184   9.514  0.4225  0.4307 -0.4219
  332MOL0     O44733  11.628   2.429   9.466  0.0388  0.3799 -0.3482
  332MOL0     C44734  11.960   2.341   9.493 -0.2999 -0.4121  0.7949
  332MOL0     C44735  12.085   2.401   9.511  0.3027  0.5135 -0.3691
  332MOL0     N44736  12.329   2.525   8.883 -0.2658  0.4556  1.1569
  332MOL0     N44737  12.224   2.508   8.818 -0.2596  0.2943 -0.7377
  332MOL0     C44738  11.710   1.775   9.586  0.8320  0.3017  0.6516
  332MOL0     C44739  11.613   1.732   9.668  0.5594  0.7141  0.7785
  332MOL0     C44740  11.284   1.461   9.857  0.5931  0.3110  0.4297
  332MOL0     C44741  11.234   1.331   9.875 -0.0317  0.9014 -0.8579
  332MOL0     C44742  11.159   1.298   9.990 -0.3751  0.5672  0.0626
  332MOL0     C44743  11.143   1.394  10.085  0.3101  0.5598  0.2974
  332MOL0     O44744  11.079   1.364  10.203  0.6233  0.0576  0.7420
  332MOL0     C44745  10.944   1.311  10.195 -0.5940  0.0018  0.0523
  332MOL0     C44746  10.918   1.168  10.153 -0.2217 -0.3322  0.2209
  332MOL0     C44747  10.791   1.122  10.222  0.6514  0.2838 -0.5455
  332MOL0     C44748  10.718   1.019  10.127 -0.0988 -0.8090  0.2368
  332MOL0     C44749  10.776   0.888  10.131 -0.0376  0.9390 -0.6759
  332MOL0     C44750  10.813   0.775  10.108  0.3960 -1.2625  0.0640
  332MOL0     C44751  11.193   1.525  10.061  0.5202  0.3229  0.4027
  332MOL0     C44752  11.259   1.552   9.952  0.1089 -0.8929  0.0247
  332MOL0     H44753  11.397   1.570   9.459 -0.6591  0.6227  0.4300
  332MOL0     H44754  11.578   1.620   9.298  2.1015 -1.0065 -0.3444
  332MOL0     H44755  11.866   1.939   9.440  1.5807  0.8174  0.3425
  332MOL0     H44756  11.946   1.783   9.444 -1.8983 -1.4125  0.2714
  332MOL0     H44757  12.075   1.944   9.286  1.3604  0.4488 -4.3271
  332MOL0     H44758  11.990   1.835   9.171 -0.8374  1.6467 -2.3956
  332MOL0     H44759  11.815   1.998   9.160 -0.2039  1.6691 -1.3438
  332MOL0     H44760  11.890   2.100   9.288  1.4748 -2.3499  2.0732
  332MOL0     H44761  12.079   2.149   9.159 -0.0706  1.5295 -2.2467
  332MOL0     H44762  12.031   2.031   9.036 -0.2718 -1.9098  1.0964
  332MOL0     H44763  11.803   2.185   9.027 -0.0104 -1.4048  1.1525
  332MOL0     H44764  11.916   2.307   9.075  5.3850  0.2290  0.1999
  332MOL0     H44765  12.076   2.195   8.907 -0.5255 -1.2560 -1.8697
  332MOL0     H44766  11.939   2.117   8.832 -1.3101  0.5070 -1.6440
  332MOL0     H44767  12.010   2.329   8.710  0.4588  1.0515 -0.6048
  332MOL0     H44768  11.839   2.311   8.762  0.4975 -0.8274  0.4232
  332MOL0     H44769  11.902   2.483   8.936  3.3172 -2.0090  2.6155
  332MOL0     H44770  11.956   2.534   8.773  1.1886  1.5086  1.1134
  332MOL0     H44771  12.128   2.411   9.112  2.5590 -0.5187  0.3314
  332MOL0     H44772  12.419   2.354   9.145  0.6143 -1.2591 -1.0929
  332MOL0     H44773  12.515   2.462   9.071  0.0693  0.7696 -1.2809
  332MOL0     H44774  12.286   2.594   9.219 -0.1643 -1.4774 -0.4840
  332MOL0     H44775  12.450   2.635   9.219 -2.7505  1.5050 -4.2463
  332MOL0     H44776  12.505   2.437   9.348  0.4554 -0.4473 -0.9053
  332MOL0     H44777  12.351   2.359   9.323  3.1554 -1.6829  1.7579
  332MOL0     H44778  12.426   2.618   9.496 -1.5977  1.6729  0.8387
  332MOL0     H44779  12.361   2.473   9.562  1.0219  1.8584  1.4618
  332MOL0     H44780  12.020   2.695   9.355  0.3177 -0.7128 -2.4154
  332MOL0     H44781  11.728   2.692   9.364  1.8698  1.0179  0.4369
  332MOL0     H44782  11.834   2.669   9.218  1.4940  2.0219  1.8012
  332MOL0     H44783  11.693   2.559   9.252 -2.4253  1.0230  1.5887
  332MOL0     H44784  11.587   2.059   9.229 -0.0913  0.8449  0.6026
  332MOL0     H44785  11.387   1.927   9.249  1.1224 -1.6978  1.7025
  332MOL0     H44786  11.225   1.893   9.596  1.4975  1.9560 -1.0513
  332MOL0     H44787  11.087   2.011   9.584  4.1288  2.0662  0.5989
  332MOL0     H44788  10.999   1.815   9.637  2.3060  0.1739  1.1178
  332MOL0     H44789  10.967   1.828   9.460  2.2129  0.5065 -1.5279
  332MOL0     H44790  11.196   1.643   9.577 -2.8054 -4.1169  1.9394
  332MOL0     H44791  11.177   1.676   9.402 -0.9341 -0.1980 -0.8354
  332MOL0     H44792  10.971   1.575   9.590 -1.1604  1.6954 -1.5584
  332MOL0     H44793  10.972   1.567   9.409  1.8493 -1.9205 -1.8535
  332MOL0     H44794  11.136   1.400   9.606  1.5716 -0.0023  0.3334
  332MOL0     H44795  11.154   1.394   9.433 -0.2161 -0.0528 -0.2838
  332MOL0     H44796  10.887   1.363   9.433  1.3274  0.5596 -0.3586
  332MOL0     H44797  10.977   1.226   9.456 -0.7105  0.7239 -2.9202
  332MOL0     H44798  10.872   1.399   9.683  0.1565 -0.3183 -0.6930
  332MOL0     H44799  10.989   1.273   9.704  1.4710  0.5888 -3.0895
  332MOL0     H44800  10.819   1.105   9.642  1.5127  2.2815 -3.7330
  332MOL0     H44801  10.706   1.229   9.580 -2.2529 -2.9959  0.1128
  332MOL0     H44802  11.287   2.159   9.603 -2.6410 -0.4002 -2.7154
  332MOL0     H44803  11.502   2.262   9.585 -0.1866  0.7838 -0.5823
  332MOL0     H44804  11.949   2.251   9.553  2.6312  0.4617  2.8554
  332MOL0     H44805  12.157   2.364   9.583 -0.0542  0.0659 -0.2421
  332MOL0     H44806  11.805   1.808   9.628  0.8038 -0.2679  1.1725
  332MOL0     H44807  11.619   1.760   9.772 -2.6893 -0.9948  1.5511
  332MOL0     H44808  11.257   1.257   9.799  1.3623 -0.5907  0.9232
  332MOL0     H44809  11.125   1.196  10.003  0.5539  0.2252 -0.0693
  332MOL0     H44810  10.893   1.339  10.288  0.4579 -1.9356  1.2840
  332MOL0     H44811  10.898   1.378  10.122  0.9413 -0.7047 -1.6545
  332MOL0     H44812  11.003   1.100  10.169  1.4625  1.3121 -1.3115
  332MOL0     H44813  10.905   1.177  10.045 -1.9511  1.4606  0.5222
  332MOL0     H44814  10.711   1.197  10.233  0.4377 -0.0205  0.0453
  332MOL0     H44815  10.812   1.079  10.320  0.6556 -1.9494 -1.4713
  332MOL0     H44816  10.710   1.049  10.023 -0.2109 -4.4415 -0.9350
  332MOL0     H44817  10.614   1.012  10.161 -1.0455 -0.2065 -2.3479
  332MOL0     H44818  10.864   0.685  10.081  2.9889  0.7040 -2.2166
  332MOL0     H44819  11.163   1.596  10.138 -1.1566 -0.9183  0.9760
  332MOL0     H44820  11.282   1.657   9.963  0.3200 -0.7758 -1.4079
  333MOL0     O44821   9.928   5.299  10.714 -0.7688 -0.0491 -0.4354
  333MOL0     C44822   9.964   5.236  10.815 -0.6308 -0.8097  0.7594
  333MOL0     O44823   9.875   5.164  10.902 -0.7223  0.1219  0.5634
  333MOL0     C44824   9.732   5.188  10.910 -0.0358 -0.3197 -0.6691
  333MOL0     C44825   9.656   5.068  10.934 -0.1379 -0.1317  0.3017
  333MOL0     C44826   9.520   5.073  10.922  0.7613 -0.7272 -0.0124
  333MOL0     C44827   9.460   5.193  10.904 -0.5610  0.6952 -0.1385
  333MOL0     O44828   9.329   5.196  10.901  0.5912 -0.6812  0.1280
  333MOL0     C44829   9.230   5.088  10.904 -1.0628  0.0732  0.0374
  333MOL0     C44830   9.092   5.156  10.850 -0.1476  0.3318 -1.0208
  333MOL0     C44831   9.071   5.133  10.700  0.0287  0.3930  0.4781
  333MOL0     C44832   9.010   4.990  10.687 -0.3594  1.0671  0.6780
  333MOL0     C44833   8.984   4.959  10.538  0.9608 -0.0138 -0.2669
  333MOL0     C44834   8.959   4.807  10.525  0.3942  0.4245  0.1566
  333MOL0     C44835   8.987   4.770  10.385 -0.4195  0.0511  0.2530
  333MOL0     C44836   8.961   4.620  10.366  0.5716 -0.1828  0.1012
  333MOL0     N44837   9.026   4.576  10.246  0.2826 -0.0019 -0.9613
  333MOL0     C44838   9.151   4.525  10.260 -0.6334  0.3887 -0.0781
  333MOL0     C44839   9.199   4.501  10.138  0.6908 -0.1868 -0.0213
  333MOL0     C44840   9.336   4.466  10.095 -0.1396  0.0154  0.0997
  333MOL0     C44841   9.402   4.553   9.996 -0.9646 -0.2147 -0.7775
  333MOL0     C44842   9.443   4.688  10.070 -0.3274  0.8613 -0.4014
  333MOL0     C44843   9.501   4.804   9.993  0.9360  0.8350  0.0736
  333MOL0     O44844   9.624   4.767   9.930 -0.1845  0.2839  0.5962
  333MOL0     C44845   9.725   4.863   9.921 -0.6559 -0.4241  0.1728
  333MOL0     C44846   9.716   4.998   9.934  0.1607 -0.1631  0.2904
  333MOL0     C44847   9.834   5.076   9.925  0.4703 -0.1070  0.1719
  333MOL0     C44848   9.806   5.228   9.915  0.0158 -0.5949 -0.1293
  333MOL0     C44849   9.967   5.022   9.909  0.1094  0.3528 -0.4710
  333MOL0     C44850  10.091   5.101   9.905 -0.3166  0.9162  0.1129
  333MOL0     O44851  10.088   5.230   9.938 -0.2232  0.1612  0.1628
  333MOL0     C44852  10.210   5.287   9.936 -0.0709 -1.0805  0.2375
  333MOL0     C44853  10.217   5.384   9.831 -0.6951 -0.1466  0.1149
  333MOL0     C44854  10.341   5.457   9.808  0.0842  0.0444 -0.1149
  333MOL0     C44855  10.436   5.447   9.905 -0.4466 -0.2242 -0.3903
  333MOL0     O44856  10.537   5.542   9.903  0.1476 -0.3560 -0.1406
  333MOL0     C44857  10.518   5.667   9.969  0.2748 -0.5871 -0.6606
  333MOL0     C44858  10.561   5.657  10.111 -1.2628 -0.3079 -0.2184
  333MOL0     C44859  10.532   5.793  10.193  0.3133  0.2866  0.0612
  333MOL0     C44860  10.542   5.767  10.349  0.0755 -0.4941 -0.2019
  333MOL0     C44861  10.520   5.895  10.437 -0.3327 -0.7414  0.0626
  333MOL0     C44862  10.593   5.866  10.572  0.4206 -0.3317  0.1086
  333MOL0     C44863  10.554   5.981  10.671  0.9523 -0.0083 -0.6177
  333MOL0     C44864  10.563   5.922  10.815 -0.1855  0.7489  1.1692
  333MOL0    Cl44865  10.403   5.887  10.872  0.1745  0.4366  0.2218
  333MOL0     C44866  10.432   5.355  10.009 -0.2230  0.4084  0.2251
  333MOL0     C44867  10.310   5.273  10.034  0.0967 -0.2720 -0.4216
  333MOL0     O44868  10.191   5.045   9.866  0.4560  0.1972  0.6051
  333MOL0     C44869   9.968   4.881   9.903 -0.2723 -0.4264  0.0900
  333MOL0     C44870   9.856   4.805   9.904 -0.1103 -0.5274  0.2645
  333MOL0     N44871   9.095   4.531  10.049 -0.5020  0.6303  0.2390
  333MOL0     N44872   8.993   4.585  10.116 -0.0485 -0.4584 -0.1667
  333MOL0     C44873   9.529   5.311  10.884  0.4089 -0.2594 -0.7865
  333MOL0     C44874   9.668   5.306  10.880  0.2037  1.0039  0.7378
  333MOL0     C44875  10.104   5.228  10.849 -0.6369 -0.8130 -0.6316
  333MOL0     C44876  10.148   5.133  10.956  0.3305 -0.4311  0.9678
  333MOL0     C44877  10.276   5.144  11.008 -0.3395  0.0958  0.1029
  333MOL0     C44878  10.376   5.226  10.959 -0.2404  0.3568 -0.1162
  333MOL0     O44879  10.496   5.232  11.021 -0.0547 -0.6800 -0.1506
  333MOL0     C44880  10.518   5.196  11.164 -0.4858  0.1850  0.1416
  333MOL0     C44881  10.509   5.319  11.258  0.0531  0.2737 -0.1295
  333MOL0     C44882  10.621   5.424  11.222 -1.1283 -0.7634 -0.0579
  333MOL0     C44883  10.645   5.533  11.334 -0.0662 -0.2824 -1.3786
  333MOL0     C44884  10.521   5.611  11.346 -0.8155  0.2957 -0.9765
  333MOL0     C44885  10.421   5.676  11.340  0.3819 -0.3382  1.0083
  333MOL0     C44886  10.340   5.316  10.853 -0.0852  0.5276 -0.3810
  333MOL0     C44887  10.210   5.310  10.798  0.7797 -0.5276  0.7386
  333MOL0     H44888   9.707   4.972  10.936 -1.9403 -1.1331  1.3579
  333MOL0     H44889   9.458   4.985  10.931 -1.5739  0.9960  2.0251
  333MOL0     H44890   9.269   5.007  10.841  0.5775  1.4729 -0.8090
  333MOL0     H44891   9.224   5.055  11.009 -1.2336 -1.2514 -0.3624
  333MOL0     H44892   9.004   5.118  10.901  0.3422  0.1376 -0.3123
  333MOL0     H44893   9.093   5.263  10.872 -4.2227  1.1291 -3.6861
  333MOL0     H44894   8.992   5.194  10.657 -0.1444  1.7588  2.5828
  333MOL0     H44895   9.157   5.150  10.635 -1.7915  1.9217 -1.7031
  333MOL0     H44896   9.085   4.924  10.732  0.5537  0.3424 -1.7193
  333MOL0     H44897   8.919   4.972  10.746 -0.8057 -2.3424 -0.7937
  333MOL0     H44898   8.900   5.021  10.507  1.5786 -0.0593 -2.2344
  333MOL0     H44899   9.071   4.992  10.480  0.1309  0.7735 -1.0972
  333MOL0     H44900   9.016   4.742  10.591  2.9415  2.4080  0.0759
  333MOL0     H44901   8.854   4.787  10.547  0.2345 -0.1051 -0.9836
  333MOL0     H44902   8.916   4.830  10.328 -1.6176 -0.2590  1.3724
  333MOL0     H44903   9.094   4.792  10.384  0.0884 -2.1913  0.4073
  333MOL0     H44904   8.856   4.597  10.348 -0.2234  2.3852  0.9663
  333MOL0     H44905   8.983   4.549  10.445  1.6898  1.6365  1.5215
  333MOL0     H44906   9.199   4.514  10.357  0.5306 -1.3530 -0.8135
  333MOL0     H44907   9.401   4.441  10.180 -1.4520  0.3370  1.2418
  333MOL0     H44908   9.313   4.371  10.045 -4.1692 -1.4560  4.0497
  333MOL0     H44909   9.335   4.578   9.913 -0.9325  1.7407 -0.2564
  333MOL0     H44910   9.494   4.502   9.966  0.4368  1.0698  1.1742
  333MOL0     H44911   9.511   4.666  10.152 -0.0544 -1.9946 -1.2913
  333MOL0     H44912   9.353   4.716  10.126 -1.3421  1.8561 -2.3952
  333MOL0     H44913   9.510   4.889  10.062 -3.2992  0.1341  1.8002
  333MOL0     H44914   9.428   4.824   9.914  0.1956 -1.6637  0.0349
  333MOL0     H44915   9.616   5.037   9.921  0.3698 -0.5775 -4.0527
  333MOL0     H44916   9.839   5.266   9.818 -0.5617  1.3347  0.3773
  333MOL0     H44917   9.701   5.257   9.922  0.4106  0.9879 -0.3896
  333MOL0     H44918   9.862   5.287   9.988 -0.9566  1.2849 -0.8439
  333MOL0     H44919  10.129   5.384   9.767 -0.9540 -2.3153  0.4140
  333MOL0     H44920  10.347   5.539   9.737 -0.5721  0.1018 -0.1121
  333MOL0     H44921  10.575   5.743   9.914  1.0814 -2.0310 -1.8900
  333MOL0     H44922  10.411   5.690   9.975  0.7371  1.7658 -0.4410
  333MOL0     H44923  10.497   5.577  10.151 -3.2780  1.0997 -0.4248
  333MOL0     H44924  10.668   5.636  10.109 -1.1463  0.0476  1.0024
  333MOL0     H44925  10.433   5.827  10.161 -0.8021 -1.4047  1.4949
  333MOL0     H44926  10.603   5.873  10.170  0.7294 -0.3160 -0.7929
  333MOL0     H44927  10.483   5.680  10.380 -0.4879  0.3640  1.1980
  333MOL0     H44928  10.642   5.726  10.364 -0.7055 -1.1970  4.3388
  333MOL0     H44929  10.421   5.930  10.468  0.7673  1.2538  1.5916
  333MOL0     H44930  10.561   5.987  10.394 -1.4818  0.2336  0.9738
  333MOL0     H44931  10.569   5.765  10.605  0.9200 -1.3861 -2.5208
  333MOL0     H44932  10.699   5.849  10.547 -0.6262 -2.5732 -3.6158
  333MOL0     H44933  10.451   6.018  10.661  0.6896 -0.9098 -1.4173
  333MOL0     H44934  10.619   6.068  10.653  1.0293 -0.4997 -3.1204
  333MOL0     H44935  10.625   5.985  10.880 -0.0150  0.7927  0.9636
  333MOL0     H44936  10.632   5.838  10.811  0.9244  1.6762 -1.7445
  333MOL0     H44937  10.517   5.357  10.076  1.7939 -2.1196 -2.0517
  333MOL0     H44938  10.308   5.199  10.113 -3.5456 -2.3398 -2.1859
  333MOL0     H44939  10.062   4.827   9.915  0.3989  0.6871  0.0133
  333MOL0     H44940   9.862   4.696   9.900  0.5817 -0.5304  1.1105
  333MOL0     H44941   9.465   5.397  10.871 -1.0071 -1.3669 -1.3270
  333MOL0     H44942   9.722   5.399  10.873 -0.0841  1.1679  0.6654
  333MOL0     H44943  10.077   5.074  11.014  0.3130  0.3587  1.7862
  333MOL0     H44944  10.291   5.074  11.089  0.7750  0.9304  0.6463
  333MOL0     H44945  10.438   5.128  11.194 -2.1901  0.6935 -2.8223
  333MOL0     H44946  10.619   5.155  11.180  0.9449  3.2953 -0.2060
  333MOL0     H44947  10.525   5.295  11.363  1.0791 -0.5445 -0.4575
  333MOL0     H44948  10.409   5.364  11.255 -0.8280 -1.5453  0.3841
  333MOL0     H44949  10.597   5.491  11.138  0.4206  1.6496  1.3044
  333MOL0     H44950  10.714   5.374  11.194 -0.9088  1.0795 -3.1086
  333MOL0     H44951  10.728   5.597  11.301  1.3674 -2.0423 -1.3839
  333MOL0     H44952  10.669   5.487  11.430 -0.1888  0.2670 -1.0813
  333MOL0     H44953  10.342   5.749  11.341  1.2924  0.6585  1.3562
  333MOL0     H44954  10.418   5.385  10.820 -0.0341  0.0811 -1.2238
  333MOL0     H44955  10.184   5.381  10.720 -2.5171 -2.8089 -0.4465
  334MOL0     O44956   2.400   8.408   3.825  0.6296 -0.1555 -0.4961
  334MOL0     C44957   2.457   8.487   3.757  0.1972  0.7788  0.5163
  334MOL0     O44958   2.425   8.516   3.630  0.3551  0.7454 -0.4393
  334MOL0     C44959   2.366   8.421   3.548  0.0772 -0.2170  0.1315
  334MOL0     C44960   2.258   8.340   3.580  0.2216  0.0327 -0.0629
  334MOL0     C44961   2.191   8.256   3.485  0.4937 -0.6033 -0.2528
  334MOL0     C44962   2.248   8.249   3.355  0.0458  0.0833  0.7921
  334MOL0     O44963   2.197   8.161   3.257  0.8808 -0.3195  0.2674
  334MOL0     C44964   2.084   8.083   3.269  0.2109  0.3787 -0.6009
  334MOL0     C44965   1.961   8.163   3.239  0.7934  0.1356 -1.0948
  334MOL0     C44966   1.980   8.244   3.117  0.2869  0.4545 -0.0177
  334MOL0     C44967   1.860   8.288   3.043  0.0982  1.1181 -0.3171
  334MOL0     C44968   1.899   8.340   2.901  0.4563 -0.1684 -0.7076
  334MOL0     C44969   1.783   8.396   2.812 -0.5553 -0.8661  0.1160
  334MOL0     C44970   1.700   8.280   2.743 -0.2477 -0.6223  0.5917
  334MOL0     C44971   1.609   8.338   2.644 -0.4667 -0.3829 -0.2949
  334MOL0     N44972   1.498   8.397   2.724 -0.4568  0.2437  0.7602
  334MOL0     C44973   1.407   8.311   2.790  0.0466  0.2026 -0.1881
  334MOL0     C44974   1.326   8.399   2.846 -0.5780  1.1811 -0.7090
  334MOL0     C44975   1.187   8.345   2.883  0.1431 -0.9294 -0.0722
  334MOL0     C44976   1.186   8.285   3.022  0.5001  0.5534 -0.3940
  334MOL0     C44977   1.064   8.192   3.041 -0.2458 -0.1870  0.3771
  334MOL0     C44978   1.069   8.089   3.159  0.3768 -0.3180  0.1900
  334MOL0     O44979   1.126   8.148   3.281 -0.4422 -1.2136  0.0997
  334MOL0     C44980   1.030   8.219   3.347  0.0144 -0.0173 -0.4954
  334MOL0     C44981   0.928   8.166   3.432 -0.1399 -0.2740  0.3732
  334MOL0     C44982   0.839   8.246   3.502  0.2747 -0.1801 -0.2988
  334MOL0     C44983   0.738   8.180   3.583 -0.0484 -0.5016 -0.2005
  334MOL0     C44984   0.851   8.391   3.491 -0.6835  0.5148 -0.7171
  334MOL0     C44985   0.769   8.492   3.568  0.4788 -0.5716  0.3597
  334MOL0     O44986   0.666   8.454   3.652 -0.4743  0.6275  0.9356
  334MOL0     C44987   0.636   8.550   3.738  0.1845 -0.2150 -0.5094
  334MOL0     C44988   0.723   8.588   3.839 -0.0681  0.1615  0.4825
  334MOL0     C44989   0.684   8.674   3.942 -0.0877 -0.1930  0.5867
  334MOL0     C44990   0.547   8.701   3.957 -0.5236  0.3941 -0.4235
  334MOL0     O44991   0.502   8.759   4.070  0.4960 -0.1826  1.0318
  334MOL0     C44992   0.589   8.794   4.173 -0.4035 -0.1416 -0.0324
  334MOL0     C44993   0.489   8.865   4.266 -0.5436  0.0767 -0.2592
  334MOL0     C44994   0.554   8.917   4.402 -0.2093 -0.3112 -0.0168
  334MOL0     C44995   0.462   9.031   4.472 -0.0277  0.6687  0.5010
  334MOL0     C44996   0.526   9.077   4.603 -0.0275  0.3070  0.2200
  334MOL0     C44997   0.431   9.163   4.683  0.0969  1.3493 -1.1637
  334MOL0     C44998   0.473   9.213   4.819  0.4076 -0.7587 -0.4785
  334MOL0     C44999   0.610   9.268   4.816 -0.2048 -0.3649 -0.5504
  334MOL0    Cl45000   0.649   9.388   4.949 -0.1901  0.0160  0.4284
  334MOL0     C45001   0.459   8.666   3.856 -0.3932 -0.1244  0.0016
  334MOL0     C45002   0.503   8.581   3.750 -0.1356 -0.1842  0.5622
  334MOL0     O45003   0.798   8.609   3.533 -0.4458  0.6754  0.7846
  334MOL0     C45004   0.967   8.436   3.426 -0.1611  0.4272  0.8495
  334MOL0     C45005   1.053   8.353   3.357  0.4934 -0.6288  1.1955
  334MOL0     N45006   1.369   8.526   2.834  0.1526 -0.5986  0.4365
  334MOL0     N45007   1.471   8.525   2.759  0.1501 -0.5954 -0.0150
  334MOL0     C45008   2.355   8.337   3.321 -0.1072  0.2350  0.8566
  334MOL0     C45009   2.409   8.422   3.415  0.6774  0.4014  0.9345
  334MOL0     C45010   2.569   8.560   3.800 -1.0782 -0.4256 -0.6128
  334MOL0     C45011   2.644   8.644   3.717 -0.7156 -0.2134  0.0065
  334MOL0     C45012   2.755   8.726   3.758  0.2974 -0.1841  0.8985
  334MOL0     C45013   2.798   8.713   3.886 -0.5332 -0.4415  0.6201
  334MOL0     O45014   2.884   8.809   3.931  0.3668 -0.2459 -0.4749
  334MOL0     C45015   2.941   8.794   4.061 -0.2942 -0.5318  0.2829
  334MOL0     C45016   3.046   8.908   4.067 -0.3822  0.3002 -0.4165
  334MOL0     C45017   3.090   8.924   4.211  0.0264 -0.6352  0.0438
  334MOL0     C45018   3.212   9.016   4.208  0.8080 -0.0583  0.9133
  334MOL0     C45019   3.257   9.016   4.340 -0.2080  0.1591  0.6163
  334MOL0     C45020   3.286   9.019   4.460 -0.3857  0.3614  0.5909
  334MOL0     C45021   2.730   8.618   3.973  0.5581 -0.2173 -0.4249
  334MOL0     C45022   2.613   8.545   3.933  0.2431  0.7758 -0.2856
  334MOL0     H45023   2.214   8.319   3.677 -0.9047 -4.7133 -1.3484
  334MOL0     H45024   2.111   8.191   3.517 -0.4122  1.9888  3.5020
  334MOL0     H45025   2.097   8.004   3.194 -0.3671 -0.3195  0.0210
  334MOL0     H45026   2.080   8.028   3.364  0.0724 -1.6457 -1.7282
  334MOL0     H45027   1.870   8.103   3.242 -0.2679  1.6713  2.5891
  334MOL0     H45028   1.949   8.239   3.316  0.0152 -1.7867  0.7992
  334MOL0     H45029   2.040   8.335   3.131  5.0513 -2.2509 -0.7547
  334MOL0     H45030   2.023   8.182   3.039 -2.1891 -2.9615  1.1201
  334MOL0     H45031   1.784   8.209   3.043 -1.5035  2.2538  4.8398
  334MOL0     H45032   1.800   8.348   3.112  0.4793 -2.5003  3.5692
  334MOL0     H45033   1.975   8.418   2.912 -0.6580  0.9009 -0.2993
  334MOL0     H45034   1.941   8.255   2.846  2.4151  0.8559 -0.8842
  334MOL0     H45035   1.722   8.455   2.881 -0.8400  0.2560 -1.0716
  334MOL0     H45036   1.823   8.463   2.736 -2.1021 -0.5047 -0.4131
  334MOL0     H45037   1.777   8.233   2.680 -1.2784 -3.6438  1.4083
  334MOL0     H45038   1.657   8.199   2.803 -1.1544  0.3471  1.2954
  334MOL0     H45039   1.566   8.258   2.583 -0.4148 -0.4346 -0.2637
  334MOL0     H45040   1.648   8.413   2.575  0.8378 -1.4871 -0.7964
  334MOL0     H45041   1.399   8.206   2.763 -1.3155  0.1955  0.1995
  334MOL0     H45042   1.115   8.427   2.871  1.5034  0.3812  0.4907
  334MOL0     H45043   1.156   8.273   2.808  2.3816  1.1322 -3.2124
  334MOL0     H45044   1.188   8.374   3.087 -0.5124 -0.1178  0.5985
  334MOL0     H45045   1.277   8.228   3.040  1.0608  1.6029  0.2150
  334MOL0     H45046   1.058   8.135   2.948 -2.2824  2.2696 -1.1073
  334MOL0     H45047   0.967   8.242   3.038 -1.3768 -2.2922 -1.6537
  334MOL0     H45048   1.139   8.008   3.134  0.7832  0.2797 -0.6698
  334MOL0     H45049   0.968   8.050   3.174 -0.1290  1.4821  1.8314
  334MOL0     H45050   0.924   8.059   3.450 -3.1330 -0.8703 -2.8925
  334MOL0     H45051   0.706   8.083   3.545  2.4717 -1.1081 -0.9394
  334MOL0     H45052   0.787   8.152   3.676  0.7844 -2.1826 -1.1054
  334MOL0     H45053   0.650   8.244   3.593  1.7409  1.7450  2.2759
  334MOL0     H45054   0.825   8.556   3.819 -0.3452 -0.1931 -0.3897
  334MOL0     H45055   0.760   8.704   4.013  2.6257 -3.9135 -0.4101
  334MOL0     H45056   0.637   8.709   4.223 -1.6818 -0.7192  0.2621
  334MOL0     H45057   0.668   8.862   4.141  0.0337 -0.3849  0.4964
  334MOL0     H45058   0.467   8.959   4.213  2.5923  0.6673 -0.7210
  334MOL0     H45059   0.418   8.784   4.284  3.3457 -3.5764  0.3461
  334MOL0     H45060   0.648   8.968   4.377  1.3282 -1.6257  2.6061
  334MOL0     H45061   0.577   8.836   4.471  0.1535  0.6119  0.9683
  334MOL0     H45062   0.472   9.108   4.395  1.0821 -3.3861 -3.8690
  334MOL0     H45063   0.362   8.988   4.479 -0.6335  2.0293  0.5815
  334MOL0     H45064   0.625   9.119   4.584  0.3938 -1.3248 -1.5606
  334MOL0     H45065   0.549   8.995   4.672 -0.9647 -0.2189 -0.0664
  334MOL0     H45066   0.419   9.253   4.621 -0.0626  0.9226 -1.7665
  334MOL0     H45067   0.337   9.109   4.693  1.9124 -2.0403 -1.0448
  334MOL0     H45068   0.459   9.137   4.897 -2.2361 -2.3495 -2.3049
  334MOL0     H45069   0.409   9.296   4.850  1.2451 -0.9238  1.8998
  334MOL0     H45070   0.640   9.313   4.721 -1.1416  1.3541 -0.0698
  334MOL0     H45071   0.678   9.187   4.846 -0.7452  0.5540  3.8876
  334MOL0     H45072   0.355   8.696   3.865 -1.3254 -2.1722 -2.4425
  334MOL0     H45073   0.436   8.541   3.675 -0.7557  2.9718 -0.7595
  334MOL0     H45074   0.986   8.541   3.405 -1.8015  0.4173 -0.9233
  334MOL0     H45075   1.135   8.398   3.302 -2.3135  1.4341 -1.6932
  334MOL0     H45076   2.392   8.346   3.219  0.0449 -1.8212  0.6781
  334MOL0     H45077   2.480   8.488   3.365  0.1767 -0.7420 -1.4651
  334MOL0     H45078   2.616   8.633   3.612  1.1703 -1.4335 -0.4366
  334MOL0     H45079   2.806   8.786   3.684 -0.2079 -2.5589 -1.5511
  334MOL0     H45080   2.870   8.813   4.142  1.1693 -1.8340  1.9637
  334MOL0     H45081   2.992   8.698   4.077  1.0127 -0.4994 -2.9789
  334MOL0     H45082   3.017   9.009   4.034  0.8185  0.7742 -0.0722
  334MOL0     H45083   3.125   8.874   4.000  0.2841 -0.7428  0.8634
  334MOL0     H45084   3.126   8.830   4.253  0.7286 -0.1029  0.6633
  334MOL0     H45085   3.011   8.963   4.276  0.2600 -0.6966  0.3640
  334MOL0     H45086   3.195   9.112   4.159  2.6585 -0.2498 -0.2174
  334MOL0     H45087   3.295   8.975   4.149  2.7023  0.0641  3.3390
  334MOL0     H45088   3.327   9.023   4.559  2.8835  0.3547 -0.6639
  334MOL0     H45089   2.765   8.608   4.076  0.4190  2.1495 -0.0927
  334MOL0     H45090   2.568   8.478   4.005  2.3530 -0.6784 -0.2283
  335MOL0     O45091   3.664   4.421  10.950 -0.3197 -0.1510  0.2472
  335MOL0     C45092   3.599   4.329  10.992 -0.4459 -0.4429  0.3491
  335MOL0     O45093   3.514   4.259  10.910  0.0371 -0.0883  0.9828
  335MOL0     C45094   3.448   4.326  10.810 -0.0002  0.6098  0.6760
  335MOL0     C45095   3.402   4.463  10.815 -0.9725  0.0997 -0.0799
  335MOL0     C45096   3.327   4.520  10.719 -0.3871 -0.6226 -0.2753
  335MOL0     C45097   3.285   4.447  10.609 -0.0147 -0.1566  0.7497
  335MOL0     O45098   3.204   4.498  10.513 -0.3245  0.1347  0.1897
  335MOL0     C45099   3.087   4.561  10.555  0.7161  0.0108 -0.0120
  335MOL0     C45100   3.007   4.484  10.662  0.2167  0.9548 -0.2428
  335MOL0     C45101   2.960   4.349  10.594  0.3640  0.6119  0.5744
  335MOL0     C45102   2.904   4.250  10.698  0.1010  0.5506  0.2115
  335MOL0     C45103   2.780   4.179  10.650  0.5811 -0.7796 -0.5562
  335MOL0     C45104   2.658   4.261  10.706  0.2671  0.0919  0.0044
  335MOL0     C45105   2.533   4.209  10.650 -0.8791 -0.4340 -0.1985
  335MOL0     C45106   2.412   4.278  10.709  0.1833  1.5504  0.3725
  335MOL0     N45107   2.392   4.413  10.660  0.6505  0.0430 -0.0336
  335MOL0     C45108   2.298   4.440  10.564 -0.6104  0.8304 -0.4561
  335MOL0     C45109   2.285   4.568  10.568 -0.1919 -0.9017 -0.6543
  335MOL0     C45110   2.207   4.647  10.463  0.3160  0.3331  0.7829
  335MOL0     C45111   2.096   4.740  10.525  0.2972  0.3284 -1.1742
  335MOL0     C45112   1.990   4.667  10.603  0.4020 -0.5991  0.0775
  335MOL0     C45113   1.893   4.760  10.671  0.5336 -1.0410  0.0309
  335MOL0     O45114   1.834   4.872  10.595  0.2159  0.5813 -0.1561
  335MOL0     C45115   1.715   4.833  10.528  0.6993 -1.0461 -0.3523
  335MOL0     C45116   1.671   4.696  10.515 -0.2872  0.4500  0.3190
  335MOL0     C45117   1.538   4.671  10.479  0.7737 -0.2415  0.7994
  335MOL0     C45118   1.507   4.528  10.447 -0.0647  0.0441 -0.3098
  335MOL0     C45119   1.454   4.785  10.441  0.6432  0.9275  1.4972
  335MOL0     C45120   1.322   4.761  10.366 -0.9203 -0.2766 -0.6306
  335MOL0     O45121   1.237   4.865  10.364  0.3888 -0.1506 -0.8323
  335MOL0     C45122   1.130   4.850  10.284 -0.1756 -0.3943 -1.0947
  335MOL0     C45123   1.139   4.875  10.148  0.3439 -0.5511 -0.1022
  335MOL0     C45124   1.030   4.864  10.067  0.1590 -0.4959 -0.0691
  335MOL0     C45125   0.905   4.818  10.114 -0.3153  0.7179  0.3168
  335MOL0     O45126   0.797   4.814  10.033 -0.0683  0.9463 -0.5701
  335MOL0     C45127   0.689   4.731  10.065  0.6396 -0.1609 -0.8531
  335MOL0     C45128   0.650   4.672   9.934  0.2250  0.1524  0.6101
  335MOL0     C45129   0.538   4.573   9.909 -0.5901  0.0585  0.6925
  335MOL0     C45130   0.426   4.567  10.017  0.1221  0.0049  0.1550
  335MOL0     C45131   0.334   4.683   9.991  0.4157 -0.0060 -0.2569
  335MOL0     C45132   0.212   4.670  10.075 -0.4778  0.2462  0.0153
  335MOL0     C45133   0.219   4.680  10.225 -0.1559 -0.1094 -0.6757
  335MOL0     C45134   0.270   4.808  10.285  0.4913  0.3399 -0.4568
  335MOL0    Cl45135   0.447   4.803  10.317 -0.1822 -0.3099  0.5957
  335MOL0     C45136   0.897   4.791  10.249  0.3211 -0.2684  0.7979
  335MOL0     C45137   1.008   4.806  10.337 -1.2158  1.4746 -0.0175
  335MOL0     O45138   1.296   4.658  10.302  0.3665 -0.3082 -0.3462
  335MOL0     C45139   1.497   4.913  10.473 -0.2021  0.2065  0.2524
  335MOL0     C45140   1.631   4.946  10.513  1.2358  0.8169  1.0155
  335MOL0     N45141   2.365   4.625  10.664  0.1517 -0.1175 -0.8067
  335MOL0     N45142   2.438   4.528  10.715 -0.3278 -0.1175  0.1841
  335MOL0     C45143   3.318   4.309  10.598  0.9832  0.3209  0.3635
  335MOL0     C45144   3.408   4.250  10.700  0.9316 -0.6060  0.1716
  335MOL0     C45145   3.604   4.299  11.136 -1.0541  0.3613  0.7563
  335MOL0     C45146   3.711   4.345  11.205 -0.7039 -0.0249 -0.5012
  335MOL0     C45147   3.723   4.318  11.340 -0.0804  0.8238  0.3354
  335MOL0     C45148   3.653   4.216  11.398  1.4472 -0.3157  0.8446
  335MOL0     O45149   3.698   4.186  11.529  0.5320 -0.7639 -0.1059
  335MOL0     C45150   3.626   4.085  11.608 -0.0194 -0.8630 -0.1980
  335MOL0     C45151   3.492   4.140  11.667  0.2172  0.0127 -0.2532
  335MOL0     C45152   3.382   4.040  11.715  0.6916 -0.9703 -1.3363
  335MOL0     C45153   3.362   3.911  11.639  0.3990 -0.4734  0.6874
  335MOL0     C45154   3.268   3.946  11.524 -0.4703  0.3995  0.4655
  335MOL0     C45155   3.200   3.989  11.435 -0.6867 -0.6466  0.4569
  335MOL0     C45156   3.539   4.158  11.326 -0.0521  0.7077 -0.3140
  335MOL0     C45157   3.518   4.202  11.190  0.9046 -1.1418 -0.8817
  335MOL0     H45158   3.424   4.501  10.915  0.3178  1.7865 -0.9489
  335MOL0     H45159   3.280   4.614  10.744  2.5738  1.7743 -2.7904
  335MOL0     H45160   3.118   4.650  10.612  2.0180 -1.2582  1.3349
  335MOL0     H45161   3.026   4.591  10.469  0.2994 -1.4244 -0.2486
  335MOL0     H45162   3.070   4.462  10.749  1.2724  0.4069 -1.1304
  335MOL0     H45163   2.922   4.543  10.698 -1.4350 -2.3176  1.6658
  335MOL0     H45164   2.880   4.364  10.521  0.6184 -1.7193 -0.2571
  335MOL0     H45165   3.033   4.296  10.532 -0.8923  0.1554 -0.5630
  335MOL0     H45166   2.970   4.162  10.700  0.3267  0.6631 -1.2615
  335MOL0     H45167   2.887   4.290  10.798  0.1066  1.4916 -0.1561
  335MOL0     H45168   2.771   4.169  10.542 -0.8071  0.5181 -0.6009
  335MOL0     H45169   2.771   4.077  10.688 -1.9101  0.2262  1.9865
  335MOL0     H45170   2.633   4.259  10.813  0.0957 -0.7997 -0.0481
  335MOL0     H45171   2.687   4.366  10.691 -0.1338  0.3471  0.9624
  335MOL0     H45172   2.536   4.232  10.543  0.8358  1.8193  0.2709
  335MOL0     H45173   2.539   4.100  10.662 -1.9123 -0.2603  2.5605
  335MOL0     H45174   2.405   4.275  10.818  0.8501  0.2764  0.4020
  335MOL0     H45175   2.322   4.226  10.677  2.4106 -1.7480 -1.1543
  335MOL0     H45176   2.241   4.380  10.493 -0.3715 -3.6669  2.6855
  335MOL0     H45177   2.274   4.708  10.402  1.1904 -1.5648 -0.2661
  335MOL0     H45178   2.170   4.576  10.388  4.7488 -0.6915 -0.7797
  335MOL0     H45179   2.050   4.810  10.455 -1.4562 -0.4696 -0.8852
  335MOL0     H45180   2.158   4.806  10.587  0.9764  0.2072 -1.7183
  335MOL0     H45181   2.039   4.609  10.681 -1.0103 -1.8286  0.0945
  335MOL0     H45182   1.943   4.590  10.541  1.0296 -0.0517 -1.1215
  335MOL0     H45183   1.952   4.804  10.752 -1.9387 -1.2191  2.0383
  335MOL0     H45184   1.811   4.710  10.724  1.1997  0.4523  2.6366
  335MOL0     H45185   1.728   4.609  10.546  1.8667  0.9613 -1.8287
  335MOL0     H45186   1.406   4.498  10.478  0.3933 -0.6687  0.5367
  335MOL0     H45187   1.522   4.509  10.341  1.9668  2.7789 -0.6231
  335MOL0     H45188   1.577   4.470  10.509 -1.6958 -2.9269 -1.0466
  335MOL0     H45189   1.228   4.928  10.116  0.1187 -0.0178  0.1415
  335MOL0     H45190   1.038   4.899   9.964 -1.0481 -0.9670 -0.3398
  335MOL0     H45191   0.719   4.647  10.129 -0.4300  1.2176  1.5968
  335MOL0     H45192   0.613   4.799  10.105  1.2537  0.8043 -1.2905
  335MOL0     H45193   0.626   4.758   9.870 -1.5851  0.9123  2.2285
  335MOL0     H45194   0.737   4.624   9.889  0.1449  0.5562  0.0088
  335MOL0     H45195   0.589   4.477   9.894 -0.3646  0.2501  0.1966
  335MOL0     H45196   0.494   4.600   9.813  1.6558 -1.0557 -0.7475
  335MOL0     H45197   0.378   4.470  10.005  0.4987 -0.0164 -1.4757
  335MOL0     H45198   0.471   4.558  10.116  0.8437  0.1687 -0.1561
  335MOL0     H45199   0.313   4.682   9.884  1.6276 -0.9485 -0.4992
  335MOL0     H45200   0.379   4.780  10.017 -1.6340  0.8053  0.4853
  335MOL0     H45201   0.156   4.748  10.024 -1.3584  0.2111  0.9025
  335MOL0     H45202   0.178   4.570  10.047  1.2485 -0.0407 -1.1901
  335MOL0     H45203   0.275   4.595  10.267  1.8359  2.0596  1.3898
  335MOL0     H45204   0.119   4.659  10.264 -0.0668 -1.3983 -1.0900
  335MOL0     H45205   0.216   4.827  10.378  0.1232 -1.1090 -0.3483
  335MOL0     H45206   0.245   4.887  10.213 -1.3968  1.1731  1.0347
  335MOL0     H45207   0.802   4.756  10.289  0.3096  1.4835  2.4884
  335MOL0     H45208   0.997   4.781  10.442 -0.1892  1.6964  0.1504
  335MOL0     H45209   1.434   4.996  10.443  1.6660  1.3167 -0.8289
  335MOL0     H45210   1.657   5.048  10.541 -1.1619  2.3361 -1.7875
  335MOL0     H45211   3.278   4.244  10.521 -4.7972  0.1799  3.0479
  335MOL0     H45212   3.422   4.143  10.687  1.5631 -0.2974 -2.1762
  335MOL0     H45213   3.781   4.417  11.165 -2.8883  2.6623  0.2298
  335MOL0     H45214   3.802   4.363  11.399 -0.0070  1.8735 -0.5248
  335MOL0     H45215   3.614   3.999  11.541 -0.5650 -0.1012 -1.0936
  335MOL0     H45216   3.685   4.049  11.693 -0.6042 -1.3958 -0.0083
  335MOL0     H45217   3.449   4.195  11.584 -0.5677 -0.3683 -0.1162
  335MOL0     H45218   3.519   4.213  11.744  1.3935  0.2597 -0.8832
  335MOL0     H45219   3.293   4.103  11.715  1.1159 -0.3197  0.4080
  335MOL0     H45220   3.409   4.015  11.818 -0.3739  2.4905 -0.1079
  335MOL0     H45221   3.299   3.838  11.691 -0.9912  1.2988  1.5717
  335MOL0     H45222   3.457   3.871  11.600 -2.0435 -2.9239 -3.5950
  335MOL0     H45223   3.153   4.032  11.349  0.7317  0.8370  0.3513
  335MOL0     H45224   3.477   4.076  11.359  0.4812 -0.8043 -2.7724
  335MOL0     H45225   3.431   4.153  11.148 -1.9174 -1.6808  4.7679
  336MOL0     O45226   3.356   1.044   1.101  0.4577  0.5119  0.4576
  336MOL0     C45227   3.317   1.143   1.164 -0.6800  0.2466  0.2894
  336MOL0     O45228   3.199   1.149   1.238  0.9942 -0.3569  0.5648
  336MOL0     C45229   3.104   1.050   1.246 -0.2153  0.3722 -0.4505
  336MOL0     C45230   3.098   0.928   1.171  1.2635 -0.2918 -0.9213
  336MOL0     C45231   3.010   0.819   1.203  0.6460  0.8224  0.0797
  336MOL0     C45232   2.931   0.828   1.323  0.5948  0.5120  0.7434
  336MOL0     O45233   2.867   0.710   1.374  0.7838  0.1971  0.3888
  336MOL0     C45234   2.740   0.714   1.453  0.6734  0.3404  0.0190
  336MOL0     C45235   2.637   0.719   1.349 -0.3633  0.2859 -0.4974
  336MOL0     C45236   2.504   0.749   1.412  0.0272 -0.6941 -0.4759
  336MOL0     C45237   2.396   0.783   1.298 -1.0698  1.0326  0.1088
  336MOL0     C45238   2.248   0.779   1.351 -0.0769 -0.3864  0.3168
  336MOL0     C45239   2.144   0.793   1.243  1.4894 -1.2281  0.0100
  336MOL0     C45240   2.098   0.941   1.236  0.6146 -0.2423  0.2168
  336MOL0     C45241   1.963   0.949   1.162  0.7316  0.2486  0.0685
  336MOL0     N45242   1.832   0.885   1.207 -1.2731  0.0458  0.2851
  336MOL0     C45243   1.743   0.945   1.291 -0.3573 -0.1484  0.7451
  336MOL0     C45244   1.646   0.845   1.311 -0.5794  0.7703  0.4541
  336MOL0     C45245   1.518   0.866   1.385 -0.1686 -0.2904  0.2163
  336MOL0     C45246   1.413   0.939   1.294 -0.1780 -0.0311 -1.0792
  336MOL0     C45247   1.310   1.006   1.376  0.1779 -1.3816 -0.6509
  336MOL0     C45248   1.190   1.081   1.304 -1.1051  0.7652  0.0121
  336MOL0     O45249   1.101   1.162   1.384  0.1322 -0.5085 -0.6033
  336MOL0     C45250   1.010   1.095   1.453 -0.4732 -0.0950  0.0059
  336MOL0     C45251   0.960   0.963   1.430 -0.7514 -0.7075 -0.8211
  336MOL0     C45252   0.872   0.904   1.522 -0.0543  0.8354  0.8815
  336MOL0     C45253   0.795   0.789   1.489 -0.3864  0.3160  0.8183
  336MOL0     C45254   0.838   0.978   1.642  0.5639  0.5776  0.3618
  336MOL0     C45255   0.740   0.925   1.746  0.5423 -0.4255  0.0743
  336MOL0     O45256   0.650   1.012   1.789  0.2449 -0.0383  0.1307
  336MOL0     C45257   0.561   0.947   1.870 -0.0704 -2.0227 -0.0533
  336MOL0     C45258   0.422   0.941   1.836  0.1882  0.5372 -0.6499
  336MOL0     C45259   0.323   0.886   1.922  1.1396  0.3565 -0.0388
  336MOL0     C45260   0.348   0.848   2.048 -1.0881 -0.2339  0.2050
  336MOL0     O45261   0.240   0.800   2.119  0.3816  0.5940 -0.7218
  336MOL0     C45262   0.253   0.798   2.264  0.1674  1.0329 -0.6225
  336MOL0     C45263   0.295   0.675   2.331 -0.4858 -0.2104  0.4843
  336MOL0     C45264   0.176   0.573   2.341  0.1424  0.6770 -0.2415
  336MOL0     C45265   0.221   0.442   2.397 -0.1915 -0.3802 -0.0596
  336MOL0     C45266   0.114   0.340   2.368  0.6346  0.2019  0.0691
  336MOL0     C45267   0.145   0.199   2.430 -0.4516  0.9072  1.3277
  336MOL0     C45268   0.262   0.131   2.368 -0.2926 -1.0300  0.7782
  336MOL0     C45269   0.241   0.080   2.221 -0.1768 -0.0471 -0.4162
  336MOL0    Cl45270   0.161  -0.071   2.223 -0.4001  0.0815 -0.1013
  336MOL0     C45271   0.488   0.851   2.082 -0.2235  1.3824 -0.2796
  336MOL0     C45272   0.590   0.896   1.998 -0.3914  0.3887 -0.9135
  336MOL0     O45273   0.750   0.802   1.771  0.0110 -0.0282 -0.6381
  336MOL0     C45274   0.894   1.100   1.670 -0.6648  0.1649 -0.2091
  336MOL0     C45275   0.976   1.157   1.571 -0.2813 -0.4917 -0.6428
  336MOL0     N45276   1.683   0.727   1.244 -0.3094 -0.1854 -0.4465
  336MOL0     N45277   1.792   0.758   1.179  0.5794 -0.3683  0.0702
  336MOL0     C45278   2.919   0.955   1.380  0.4359 -0.2597  0.7190
  336MOL0     C45279   3.008   1.058   1.354  0.3216 -0.4863 -0.1931
  336MOL0     C45280   3.411   1.251   1.186 -0.2213 -0.5793  0.7622
  336MOL0     C45281   3.402   1.341   1.290  0.4362  0.6486 -0.5602
  336MOL0     C45282   3.500   1.440   1.311  0.0669 -0.0206  0.7888
  336MOL0     C45283   3.618   1.444   1.240  0.6444  0.3537 -0.1358
  336MOL0     O45284   3.704   1.542   1.281 -0.3157  0.3294  0.5127
  336MOL0     C45285   3.816   1.578   1.190  0.3497  0.1246 -0.4341
  336MOL0     C45286   3.885   1.708   1.243 -0.0381  0.8131  0.2550
  336MOL0     C45287   3.990   1.745   1.132 -0.2040 -0.9839  0.9557
  336MOL0     C45288   4.129   1.682   1.165  0.7638  0.9537  0.3916
  336MOL0     C45289   4.183   1.729   1.295  0.4774  0.4151  0.0715
  336MOL0     C45290   4.232   1.785   1.385 -0.0004  0.3878 -0.1005
  336MOL0     C45291   3.617   1.365   1.120  0.6831 -0.7837 -1.2337
  336MOL0     C45292   3.518   1.268   1.097 -0.3227 -0.7748  0.6749
  336MOL0     H45293   3.167   0.914   1.088  2.2959  0.5186 -0.2127
  336MOL0     H45294   3.011   0.731   1.140 -0.2536  1.9922 -1.6354
  336MOL0     H45295   2.729   0.630   1.522 -2.7942  1.4211  0.9677
  336MOL0     H45296   2.736   0.811   1.504  0.9741 -0.0850  0.8610
  336MOL0     H45297   2.664   0.799   1.280  0.5302 -0.1374 -0.6574
  336MOL0     H45298   2.636   0.620   1.303  1.6113 -0.7374  1.4568
  336MOL0     H45299   2.474   0.662   1.471 -2.2565 -2.9943 -4.6023
  336MOL0     H45300   2.513   0.835   1.480 -1.2078 -1.3307  0.5377
  336MOL0     H45301   2.418   0.882   1.257 -0.3376  1.0827  0.5908
  336MOL0     H45302   2.410   0.713   1.216  2.5627  0.3368  1.1457
  336MOL0     H45303   2.238   0.685   1.405 -0.7899  0.0468  0.9735
  336MOL0     H45304   2.233   0.850   1.433  1.2480  0.7513 -0.3966
  336MOL0     H45305   2.190   0.773   1.146  2.1809  1.8585 -0.3977
  336MOL0     H45306   2.058   0.726   1.256 -0.5100  1.3177  0.6308
  336MOL0     H45307   2.079   0.984   1.335  0.8023  0.2754  0.0347
  336MOL0     H45308   2.176   1.007   1.195 -1.3522  2.5832  0.7111
  336MOL0     H45309   1.986   0.928   1.057 -3.0001  1.4478 -1.1482
  336MOL0     H45310   1.933   1.054   1.154  0.2065  0.4797  3.4467
  336MOL0     H45311   1.729   1.049   1.319 -0.7409 -0.3047  1.1528
  336MOL0     H45312   1.484   0.775   1.435 -3.2039 -0.0033 -1.1030
  336MOL0     H45313   1.539   0.941   1.462 -0.4753  0.5076 -0.4620
  336MOL0     H45314   1.377   0.865   1.222 -0.0397 -1.2539  0.0873
  336MOL0     H45315   1.466   1.019   1.240 -0.9695  1.9058  0.8801
  336MOL0     H45316   1.361   1.078   1.441 -1.6249 -1.2284  0.7104
  336MOL0     H45317   1.261   0.942   1.450 -1.3414 -0.0032 -0.4121
  336MOL0     H45318   1.141   0.996   1.256  1.6896 -2.5615  2.5066
  336MOL0     H45319   1.213   1.150   1.222 -2.4043  0.6172 -0.4926
  336MOL0     H45320   0.980   0.904   1.341  1.8949 -1.6491  0.2924
  336MOL0     H45321   0.693   0.820   1.464  0.2897 -0.4146 -3.6424
  336MOL0     H45322   0.827   0.743   1.395 -0.2976 -0.8306  1.3927
  336MOL0     H45323   0.803   0.712   1.567 -1.4008 -1.8147 -1.0684
  336MOL0     H45324   0.387   0.986   1.744 -0.4490  1.3556 -0.0274
  336MOL0     H45325   0.218   0.880   1.893  1.5314  0.6348 -1.5803
  336MOL0     H45326   0.329   0.867   2.302  0.4928  0.3906 -0.0918
  336MOL0     H45327   0.152   0.820   2.299 -0.5172 -0.5802 -1.4568
  336MOL0     H45328   0.373   0.626   2.273 -1.5432 -0.9934 -0.3120
  336MOL0     H45329   0.323   0.686   2.436 -2.7702 -0.2883  1.1660
  336MOL0     H45330   0.141   0.548   2.240  2.9107  2.1090 -1.6719
  336MOL0     H45331   0.102   0.622   2.405  0.4809 -0.5083  1.0884
  336MOL0     H45332   0.311   0.413   2.342  0.0470 -1.7410  1.0030
  336MOL0     H45333   0.239   0.460   2.503 -0.8828  0.8688 -0.1364
  336MOL0     H45334   0.085   0.336   2.262  1.0378  0.3714 -0.0498
  336MOL0     H45335   0.018   0.375   2.405  0.4568  1.9917 -1.8692
  336MOL0     H45336   0.152   0.214   2.538 -3.0117  2.8534  1.3151
  336MOL0     H45337   0.060   0.135   2.400  1.6169 -0.3024 -2.8238
  336MOL0     H45338   0.288   0.041   2.424  1.2128 -1.5546 -0.6795
  336MOL0     H45339   0.349   0.196   2.362 -1.8960  1.2370  0.8043
  336MOL0     H45340   0.337   0.069   2.170 -0.2004  1.0159 -0.7260
  336MOL0     H45341   0.189   0.154   2.160  1.7146 -0.2362 -2.3383
  336MOL0     H45342   0.516   0.824   2.184 -1.4610  0.3904 -0.1765
  336MOL0     H45343   0.689   0.899   2.042 -0.5274 -2.2224 -0.2402
  336MOL0     H45344   0.887   1.164   1.758  1.4925  2.0382 -1.2922
  336MOL0     H45345   1.021   1.255   1.582 -1.7804  0.3089 -1.3387
  336MOL0     H45346   2.856   0.962   1.468  0.7993 -2.4690  1.1997
  336MOL0     H45347   2.995   1.155   1.402  0.3674  0.0806 -1.2841
  336MOL0     H45348   3.316   1.342   1.355  0.5526 -0.5936 -0.3497
  336MOL0     H45349   3.487   1.513   1.391 -1.3300  1.9881 -1.1430
  336MOL0     H45350   3.888   1.496   1.183  2.7340  2.1311 -0.6188
  336MOL0     H45351   3.757   1.585   1.098 -0.2320 -2.9522 -0.4100
  336MOL0     H45352   3.929   1.694   1.342 -2.1595 -4.3007  0.7971
  336MOL0     H45353   3.805   1.783   1.251 -0.8161 -0.0805  1.0602
  336MOL0     H45354   4.003   1.852   1.117  1.8019 -1.0465  1.9289
  336MOL0     H45355   3.950   1.707   1.037 -0.2935  0.5340  0.3674
  336MOL0     H45356   4.197   1.707   1.084 -0.4368 -0.7821 -1.2291
  336MOL0     H45357   4.112   1.574   1.164 -0.8935  1.0722  3.5359
  336MOL0     H45358   4.265   1.855   1.459 -2.1340  1.1956  0.1560
  336MOL0     H45359   3.703   1.375   1.054  0.0858  0.7811 -1.8104
  336MOL0     H45360   3.513   1.206   1.009  0.4227 -1.3860  1.0506
  337MOL0     O45361   1.449   2.513   0.962  0.2813 -0.3014 -0.7708
  337MOL0     C45362   1.473   2.396   0.956  0.1288  0.0934  0.2243
  337MOL0     O45363   1.594   2.338   0.926 -1.1562 -0.3378  0.7328
  337MOL0     C45364   1.689   2.433   0.883 -0.2367  0.3425  0.3919
  337MOL0     C45365   1.802   2.449   0.966  0.4923 -0.0470 -0.2653
  337MOL0     C45366   1.903   2.538   0.933  0.0769  0.5010  1.4602
  337MOL0     C45367   1.884   2.627   0.820 -0.2087  0.5661  0.1584
  337MOL0     O45368   1.983   2.719   0.788 -0.3659  0.3688  0.6670
  337MOL0     C45369   1.977   2.771   0.655 -0.4349 -0.3318  0.1242
  337MOL0     C45370   2.021   2.666   0.556 -0.6764 -0.8553 -0.2521
  337MOL0     C45371   2.173   2.662   0.548 -0.4864 -0.4359 -0.2276
  337MOL0     C45372   2.212   2.554   0.448 -0.8814  0.9841  0.1430
  337MOL0     C45373   2.367   2.553   0.451  0.7817 -0.7592  0.1794
  337MOL0     C45374   2.416   2.461   0.336  0.0344 -0.1551  0.0080
  337MOL0     C45375   2.571   2.457   0.336 -0.2015  0.6296  0.2078
  337MOL0     C45376   2.627   2.378   0.215  0.0636  0.0702  0.4093
  337MOL0     N45377   2.637   2.231   0.225 -0.6412 -0.4141  0.6612
  337MOL0     C45378   2.563   2.144   0.151 -0.3221 -0.0776 -0.2056
  337MOL0     C45379   2.610   2.020   0.200 -0.1586  0.0782  0.2799
  337MOL0     C45380   2.570   1.883   0.158 -0.2584  0.3573 -1.0498
  337MOL0     C45381   2.471   1.812   0.258  0.3225  0.1324  0.1452
  337MOL0     C45382   2.352   1.895   0.270 -0.1782  0.1658  0.1265
  337MOL0     C45383   2.248   1.830   0.359  1.2649  0.1533 -0.0572
  337MOL0     O45384   2.158   1.931   0.417  0.8064  0.1351  0.6596
  337MOL0     C45385   2.049   1.900   0.495 -0.5123 -0.5450 -0.7192
  337MOL0     C45386   1.976   2.007   0.553 -0.1818  0.2553 -1.0156
  337MOL0     C45387   1.854   2.005   0.607 -0.1367  0.2199  0.0245
  337MOL0     C45388   1.800   2.138   0.643 -0.3575  0.9152 -1.3147
  337MOL0     C45389   1.803   1.883   0.637 -0.2336  0.2471  0.2154
  337MOL0     C45390   1.685   1.875   0.721  0.7377  0.5654  0.4057
  337MOL0     O45391   1.573   1.811   0.670  0.0148 -0.5013  0.5442
  337MOL0     C45392   1.468   1.766   0.750  0.1032  1.9269  0.4389
  337MOL0     C45393   1.484   1.727   0.888 -0.2973  0.7023  0.2762
  337MOL0     C45394   1.386   1.651   0.952  0.3477 -0.3223 -0.3109
  337MOL0     C45395   1.274   1.606   0.884 -0.8862 -0.0260  0.0571
  337MOL0     O45396   1.183   1.533   0.949 -0.0777  0.4692 -0.2706
  337MOL0     C45397   1.174   1.393   0.937  1.3460 -0.3488 -0.7244
  337MOL0     C45398   1.023   1.353   0.957  0.0451  0.1646  0.0799
  337MOL0     C45399   0.976   1.348   1.105 -0.1821 -0.4191  0.3514
  337MOL0     C45400   0.830   1.293   1.119  0.0752  1.2025 -0.0198
  337MOL0     C45401   0.775   1.308   1.258  0.1606 -0.2097  0.8167
  337MOL0     C45402   0.659   1.205   1.275  0.1374  0.3503  0.2163
  337MOL0     C45403   0.611   1.217   1.421 -0.6481  0.0901 -0.5851
  337MOL0     C45404   0.463   1.174   1.428  0.4268 -0.1007  0.5222
  337MOL0    Cl45405   0.456   1.001   1.399 -0.2613 -0.1086  0.2751
  337MOL0     C45406   1.254   1.639   0.757 -0.0180  0.0152  0.5012
  337MOL0     C45407   1.350   1.721   0.693 -0.2175  0.5863 -0.0869
  337MOL0     O45408   1.697   1.913   0.837  0.0745 -1.3383 -0.7274
  337MOL0     C45409   1.878   1.764   0.597 -0.4221  0.0433  0.7745
  337MOL0     C45410   2.004   1.782   0.523 -0.5894  0.0381  0.1304
  337MOL0     N45411   2.700   2.039   0.296 -0.0253  0.3693 -0.3510
  337MOL0     N45412   2.715   2.167   0.317 -0.8386 -0.3929 -0.3644
  337MOL0     C45413   1.763   2.610   0.747 -0.2948 -0.5272  0.7050
  337MOL0     C45414   1.668   2.511   0.766 -0.3674 -0.0813  0.1193
  337MOL0     C45415   1.345   2.309   0.980 -0.6212 -0.0917  0.3445
  337MOL0     C45416   1.360   2.174   0.971  0.0284  0.4496 -0.2970
  337MOL0     C45417   1.257   2.084   0.998  0.3845  0.1894  0.6508
  337MOL0     C45418   1.130   2.143   1.028 -0.3634  0.2170  0.0116
  337MOL0     O45419   1.012   2.077   1.055 -0.7500 -0.7752 -0.3295
  337MOL0     C45420   1.028   1.965   1.139  0.9752 -0.5122 -0.5511
  337MOL0     C45421   1.016   1.842   1.052 -0.0307  0.8941 -0.4847
  337MOL0     C45422   0.876   1.811   0.992 -0.3660  0.0410 -0.1566
  337MOL0     C45423   0.873   1.705   0.894  0.0823 -0.6363 -0.2594
  337MOL0     C45424   0.918   1.755   0.769  1.0770 -0.1579 -0.0822
  337MOL0     C45425   0.953   1.803   0.663  0.3227  0.0101 -0.1930
  337MOL0     C45426   1.109   2.280   1.011  0.5181  0.1234  0.3316
  337MOL0     C45427   1.218   2.362   0.986  0.4875  0.5074 -0.2920
  337MOL0     H45428   1.815   2.379   1.048  3.2558  0.4992 -0.1419
  337MOL0     H45429   1.996   2.552   0.986  1.0680 -3.4907  1.1308
  337MOL0     H45430   1.877   2.811   0.636  1.0324  3.3448 -0.7012
  337MOL0     H45431   2.043   2.857   0.645  1.3628 -1.4330  1.6666
  337MOL0     H45432   1.979   2.567   0.579 -2.9069 -0.0486 -0.5604
  337MOL0     H45433   1.986   2.687   0.454  1.8057 -0.1379 -1.0150
  337MOL0     H45434   2.217   2.759   0.523 -1.1744  0.5564  2.1366
  337MOL0     H45435   2.209   2.633   0.647  0.4346 -2.4336 -1.0866
  337MOL0     H45436   2.175   2.455   0.478  0.3522  0.6203  0.5434
  337MOL0     H45437   2.174   2.575   0.348  0.0296  0.0847 -0.4086
  337MOL0     H45438   2.402   2.656   0.434  2.2918 -0.8858  2.1087
  337MOL0     H45439   2.390   2.515   0.551 -4.0775 -2.0770  1.0287
  337MOL0     H45440   2.382   2.358   0.350 -0.1981  0.1454  2.0262
  337MOL0     H45441   2.405   2.501   0.235  0.1576  0.1357  0.1093
  337MOL0     H45442   2.608   2.559   0.323 -0.0858  0.4986 -0.5438
  337MOL0     H45443   2.611   2.415   0.429 -0.7416 -2.5687 -0.8741
  337MOL0     H45444   2.730   2.410   0.194 -1.7857  5.7283 -1.7922
  337MOL0     H45445   2.572   2.413   0.127 -0.8923 -1.0580  0.5418
  337MOL0     H45446   2.495   2.180   0.075  1.0398  2.3115 -0.4020
  337MOL0     H45447   2.528   1.893   0.057  1.5154  0.1157 -1.8340
  337MOL0     H45448   2.660   1.827   0.133 -0.9134 -0.7246 -1.0451
  337MOL0     H45449   2.516   1.802   0.357 -1.6513  1.1753  1.2154
  337MOL0     H45450   2.452   1.709   0.227 -0.7233  0.1745  0.5915
  337MOL0     H45451   2.308   1.910   0.171 -3.2661 -3.3243  0.7265
  337MOL0     H45452   2.370   1.986   0.328  0.2490 -0.5982  1.2224
  337MOL0     H45453   2.296   1.797   0.451  1.8525  2.6571  0.6349
  337MOL0     H45454   2.199   1.745   0.312 -0.8090  0.3799  1.5481
  337MOL0     H45455   2.018   2.102   0.523  3.6874 -0.6748  0.8252
  337MOL0     H45456   1.692   2.140   0.628 -0.4911 -1.8139 -1.1435
  337MOL0     H45457   1.824   2.137   0.749 -0.2622 -0.7835 -1.3315
  337MOL0     H45458   1.858   2.219   0.596  1.6832  0.3045  0.0336
  337MOL0     H45459   1.578   1.746   0.938 -0.9788  1.1378  1.4126
  337MOL0     H45460   1.403   1.633   1.057  2.0947  1.9855 -0.1149
  337MOL0     H45461   1.215   1.351   0.845  3.3369 -1.7347  0.7264
  337MOL0     H45462   1.243   1.337   1.000  0.5394 -2.1981 -1.4158
  337MOL0     H45463   0.959   1.427   0.909  0.4239  0.3754 -0.1020
  337MOL0     H45464   1.000   1.266   0.895 -1.0670 -0.4569  1.3097
  337MOL0     H45465   0.974   1.446   1.152 -0.6587 -1.0905  1.8054
  337MOL0     H45466   1.043   1.281   1.160  0.9528  0.7727  0.4589
  337MOL0     H45467   0.774   1.352   1.046  1.7296  2.2718 -0.4773
  337MOL0     H45468   0.829   1.191   1.079 -2.3082  1.3285 -0.4350
  337MOL0     H45469   0.737   1.409   1.276  0.5005  0.1800 -0.5453
  337MOL0     H45470   0.862   1.287   1.321  2.1447 -1.3176 -2.0761
  337MOL0     H45471   0.579   1.237   1.209 -2.4296 -2.2169  1.8490
  337MOL0     H45472   0.698   1.104   1.257  0.6189  0.4028  0.9152
  337MOL0     H45473   0.608   1.323   1.448  1.1784  0.1398 -0.4642
  337MOL0     H45474   0.668   1.158   1.494 -2.0650 -1.4419 -0.6482
  337MOL0     H45475   0.400   1.221   1.352 -1.9033  0.2115  2.5319
  337MOL0     H45476   0.412   1.209   1.518 -3.9959  0.9469 -2.1139
  337MOL0     H45477   1.166   1.611   0.700  1.8128  0.4259 -2.8527
  337MOL0     H45478   1.343   1.742   0.587 -2.1099  0.9874  0.0752
  337MOL0     H45479   1.839   1.663   0.606  0.1726 -0.2455  0.2000
  337MOL0     H45480   2.069   1.708   0.477  1.3334  1.1001  0.9767
  337MOL0     H45481   1.741   2.674   0.663 -5.1329 -1.4260  1.0105
  337MOL0     H45482   1.575   2.507   0.709 -0.9049  0.8240  0.8926
  337MOL0     H45483   1.458   2.141   0.939  2.4037  2.7115  3.7536
  337MOL0     H45484   1.278   1.978   1.008  4.4661  0.7884  0.2383
  337MOL0     H45485   1.122   1.963   1.194 -0.1285 -0.5503  1.4297
  337MOL0     H45486   0.955   1.961   1.221 -1.6892  2.3365 -2.5442
  337MOL0     H45487   1.060   1.772   1.123  1.1247  1.9792 -0.0926
  337MOL0     H45488   1.093   1.849   0.975 -1.1243  0.6809 -1.6372
  337MOL0     H45489   0.832   1.903   0.954  0.8054  1.7566  2.3196
  337MOL0     H45490   0.811   1.788   1.077 -1.1444  1.4378 -0.3454
  337MOL0     H45491   0.776   1.656   0.880 -1.2508  2.0426 -0.9242
  337MOL0     H45492   0.939   1.628   0.936  2.7445  0.9464 -1.2478
  337MOL0     H45493   0.980   1.854   0.572 -1.6005  0.3808 -0.5941
  337MOL0     H45494   1.008   2.305   1.041 -0.2413  0.3826 -2.2090
  337MOL0     H45495   1.205   2.470   0.982 -3.4342  0.1672 -1.9001
  338MOL0     O45496   6.597  11.452   6.482 -0.7287  0.6750  0.1951
  338MOL0     C45497   6.628  11.333   6.450 -1.0399  0.0141 -0.6840
  338MOL0     O45498   6.753  11.289   6.420  0.2878 -0.2627 -0.0008
  338MOL0     C45499   6.861  11.381   6.408 -0.7976  0.4011  0.1376
  338MOL0     C45500   6.991  11.335   6.444 -0.2415 -0.8530  0.2965
  338MOL0     C45501   7.097  11.419   6.455 -0.3141  0.2084 -0.1349
  338MOL0     C45502   7.087  11.555   6.435  0.1657 -0.2502  0.3898
  338MOL0     O45503   7.194  11.636   6.465  0.4572  1.2510  0.3476
  338MOL0     C45504   7.338  11.606   6.425  0.6293  0.8215 -0.5081
  338MOL0     C45505   7.435  11.714   6.466  0.4769  1.1649 -0.2122
  338MOL0     C45506   7.579  11.666   6.422 -0.4379 -0.4655  0.1423
  338MOL0     C45507   7.680  11.775   6.419  0.3486 -0.6025 -0.3310
  338MOL0     C45508   7.819  11.731   6.367  0.2945 -0.9527  0.6970
  338MOL0     C45509   7.825  11.752   6.218  1.0759 -0.1597 -0.0702
  338MOL0     C45510   7.958  11.711   6.152  0.8767 -0.0805 -0.7718
  338MOL0     C45511   8.062  11.818   6.159 -1.1612  0.2694 -1.2610
  338MOL0     N45512   8.159  11.809   6.053 -0.3665  0.5376  0.7335
  338MOL0     C45513   8.283  11.756   6.060  0.3150 -0.3527 -1.3667
  338MOL0     C45514   8.349  11.785   5.945  0.6087 -0.2294  0.1238
  338MOL0     C45515   8.491  11.768   5.910 -0.2266  0.7407  1.3769
  338MOL0     C45516   8.527  11.617   5.904 -0.0932  0.4822  0.0022
  338MOL0     C45517   8.443  11.547   5.802  0.1754  0.2173 -0.1564
  338MOL0     C45518   8.458  11.599   5.658  0.2619  0.3592 -0.4323
  338MOL0     O45519   8.414  11.511   5.560  0.1582 -0.0626 -0.0093
  338MOL0     C45520   8.281  11.494   5.536  0.4740  0.4357 -1.1236
  338MOL0     C45521   8.183  11.587   5.578  0.1288  0.2166  0.0332
  338MOL0     C45522   8.048  11.557   5.567  0.1490  0.3011 -0.0161
  338MOL0     C45523   7.959  11.648   5.649 -0.4928 -0.0325  0.7529
  338MOL0     C45524   8.004  11.449   5.487 -0.9910 -0.1146  0.6215
  338MOL0     C45525   7.856  11.432   5.471 -0.3100  0.1678 -0.0680
  338MOL0     O45526   7.834  11.367   5.352 -0.5156  0.5685  0.4442
  338MOL0     C45527   7.721  11.293   5.345 -0.2456 -0.0885 -1.2577
  338MOL0     C45528   7.645  11.287   5.238  0.4972  0.0392  0.0851
  338MOL0     C45529   7.515  11.232   5.249 -0.4346  0.6982  0.1029
  338MOL0     C45530   7.465  11.188   5.360 -0.6047  0.2157  0.5915
  338MOL0     O45531   7.338  11.138   5.340  0.1556 -0.4275  0.6137
  338MOL0     C45532   7.277  11.083   5.454  0.3183 -0.3968 -0.2254
  338MOL0     C45533   7.129  11.069   5.412  0.3570  0.4707  0.7446
  338MOL0     C45534   7.109  11.028   5.268  0.8737 -0.5484 -0.0868
  338MOL0     C45535   7.160  10.889   5.243 -1.4614 -0.0356  0.4200
  338MOL0     C45536   7.152  10.848   5.092  0.2734 -0.0372 -0.2795
  338MOL0     C45537   7.011  10.825   5.055 -0.5211  0.3559 -0.3719
  338MOL0     C45538   6.997  10.741   4.925 -0.9697  0.1037  0.5364
  338MOL0     C45539   6.865  10.696   4.868 -0.4090  0.6261  0.6652
  338MOL0    Cl45540   6.800  10.549   4.958  0.2677 -0.2292  0.1940
  338MOL0     C45541   7.542  11.174   5.466  0.8249 -0.3435  0.7012
  338MOL0     C45542   7.671  11.221   5.460  0.9209 -0.5732 -0.1014
  338MOL0     O45543   7.770  11.484   5.548 -0.6560 -0.0722  0.5151
  338MOL0     C45544   8.102  11.371   5.423 -0.7162 -0.6672 -0.6056
  338MOL0     C45545   8.239  11.382   5.461 -0.6790 -0.0745  0.3125
  338MOL0     N45546   8.252  11.836   5.868  0.0666  0.3658  0.9948
  338MOL0     N45547   8.143  11.853   5.933  0.3379  0.4706 -0.1610
  338MOL0     C45548   6.962  11.599   6.381 -0.4883 -0.6982  0.2353
  338MOL0     C45549   6.852  11.510   6.368 -0.0153  0.5436  0.4282
  338MOL0     C45550   6.523  11.225   6.443  0.7711 -0.4629 -0.9814
  338MOL0     C45551   6.546  11.085   6.468 -0.0957  0.1494 -0.3401
  338MOL0     C45552   6.434  10.996   6.462 -0.7927  0.3468  0.1262
  338MOL0     C45553   6.303  11.043   6.433 -0.4446  0.6275 -0.8746
  338MOL0     O45554   6.198  10.964   6.457  0.7954 -0.5772 -0.6186
  338MOL0     C45555   6.216  10.830   6.404  0.3278  0.3025  0.4220
  338MOL0     C45556   6.083  10.758   6.375  0.2742  0.9242  1.4373
  338MOL0     C45557   5.996  10.818   6.263 -0.4804  0.0318  0.3918
  338MOL0     C45558   5.945  10.966   6.286  0.2871  0.0173  0.3928
  338MOL0     C45559   5.823  10.986   6.207 -0.0894  0.6490 -0.1276
  338MOL0     C45560   5.714  10.990   6.146 -0.5349 -0.3927 -0.1953
  338MOL0     C45561   6.284  11.175   6.404  0.5310 -0.0989 -0.0690
  338MOL0     C45562   6.397  11.263   6.413 -0.3928 -0.3584 -0.7492
  338MOL0     H45563   7.009  11.236   6.484  0.0338 -0.0246  2.3540
  338MOL0     H45564   7.193  11.380   6.487  0.2290 -1.8969 -3.7212
  338MOL0     H45565   7.377  11.508   6.454 -0.5675  0.0841 -1.3231
  338MOL0     H45566   7.343  11.601   6.316  0.8482 -0.7953 -0.4433
  338MOL0     H45567   7.384  11.809   6.443  2.0562  1.7211 -1.6082
  338MOL0     H45568   7.443  11.711   6.575  0.7015 -0.5388 -0.2561
  338MOL0     H45569   7.615  11.593   6.495  0.7253 -1.2820 -1.1990
  338MOL0     H45570   7.582  11.613   6.326  1.3201  1.6288 -1.0285
  338MOL0     H45571   7.653  11.860   6.356  0.0508 -0.0743  0.5001
  338MOL0     H45572   7.697  11.814   6.519 -0.2556 -2.3134  0.4767
  338MOL0     H45573   7.892  11.796   6.416 -0.8040  1.1406 -0.3034
  338MOL0     H45574   7.827  11.623   6.387  0.2173 -1.9874 -3.8946
  338MOL0     H45575   7.741  11.707   6.164  1.0272 -0.6923  0.4452
  338MOL0     H45576   7.811  11.859   6.199 -0.6801 -0.3711 -0.1249
  338MOL0     H45577   7.993  11.614   6.188  0.4860 -0.3244 -1.0426
  338MOL0     H45578   7.937  11.689   6.047  1.3779  0.6214 -1.0292
  338MOL0     H45579   8.126  11.807   6.247 -0.6700  2.4460 -1.2898
  338MOL0     H45580   8.022  11.920   6.159 -3.0678 -0.4007  0.5945
  338MOL0     H45581   8.335  11.705   6.140  1.9860 -0.2781 -2.3585
  338MOL0     H45582   8.497  11.816   5.812  0.0973 -2.1584 -0.1626
  338MOL0     H45583   8.561  11.813   5.981  5.9886 -0.2162 -3.2364
  338MOL0     H45584   8.507  11.581   6.005  1.3351  0.0972  0.1684
  338MOL0     H45585   8.632  11.596   5.884 -0.1696  2.4471 -3.1995
  338MOL0     H45586   8.337  11.557   5.828 -0.1423 -1.0898 -0.8634
  338MOL0     H45587   8.467  11.440   5.811  0.5062 -0.1296 -3.8367
  338MOL0     H45588   8.565  11.619   5.646  0.4048  0.2634  0.5745
  338MOL0     H45589   8.406  11.695   5.650 -1.5647 -0.2244  2.6169
  338MOL0     H45590   8.218  11.673   5.634  2.8562 -1.7279  1.5570
  338MOL0     H45591   7.893  11.592   5.716 -2.2797 -0.6899 -1.4532
  338MOL0     H45592   8.023  11.717   5.706  0.5231  0.4180 -0.8855
  338MOL0     H45593   7.899  11.715   5.587  0.4729  0.6249  0.5024
  338MOL0     H45594   7.666  11.342   5.147 -1.8955  0.4503 -0.2858
  338MOL0     H45595   7.448  11.233   5.163  0.6673  0.3940 -0.7826
  338MOL0     H45596   7.332  10.996   5.492 -1.3787 -0.5329  2.1056
  338MOL0     H45597   7.279  11.149   5.541 -0.2639  0.1643 -0.6268
  338MOL0     H45598   7.076  10.997   5.475 -1.9412  2.5576  1.3593
  338MOL0     H45599   7.077  11.164   5.418 -1.0509  0.6428 -6.2752
  338MOL0     H45600   7.141  11.097   5.189 -0.3394  3.3752  2.5377
  338MOL0     H45601   7.003  11.017   5.246 -0.0475  3.3000  1.6851
  338MOL0     H45602   7.266  10.885   5.269 -1.0158 -2.4300 -1.4258
  338MOL0     H45603   7.108  10.816   5.306 -0.6818 -1.0047 -0.0246
  338MOL0     H45604   7.213  10.759   5.073  1.4990  0.5153  0.8686
  338MOL0     H45605   7.198  10.924   5.027  3.1156 -2.3965 -1.2756
  338MOL0     H45606   6.959  10.775   5.137 -0.5147  6.2151  3.8322
  338MOL0     H45607   6.960  10.922   5.051 -1.6120 -0.2155 -0.9614
  338MOL0     H45608   7.065  10.657   4.939 -1.3370 -0.0980  1.1199
  338MOL0     H45609   7.038  10.796   4.839  0.2477  1.4899  1.9400
  338MOL0     H45610   6.884  10.668   4.764  0.2518 -0.9534  1.1762
  338MOL0     H45611   6.792  10.777   4.862 -2.5458 -1.2803 -0.7130
  338MOL0     H45612   7.498  11.129   5.555 -1.0459 -0.3367 -0.1680
  338MOL0     H45613   7.725  11.194   5.551 -1.6269 -0.6678  1.4862
  338MOL0     H45614   8.059  11.289   5.365 -1.3296 -2.0290  1.6599
  338MOL0     H45615   8.313  11.307   5.433 -2.2006 -1.5695  0.1348
  338MOL0     H45616   6.945  11.702   6.351 -2.2711 -0.6427  1.2445
  338MOL0     H45617   6.750  11.541   6.347 -0.7632  0.2688  3.2435
  338MOL0     H45618   6.649  11.060   6.488  0.3838  3.4321  2.0967
  338MOL0     H45619   6.454  10.897   6.503 -1.4121  0.1137 -0.1188
  338MOL0     H45620   6.268  10.839   6.309  0.5235  1.2817  0.6142
  338MOL0     H45621   6.278  10.770   6.472 -1.6182 -0.9543  1.2011
  338MOL0     H45622   6.029  10.733   6.466  1.6078 -5.5372  0.9008
  338MOL0     H45623   6.110  10.657   6.345 -0.9655 -0.5623  4.8164
  338MOL0     H45624   5.906  10.756   6.255 -2.9174  3.4132 -0.8133
  338MOL0     H45625   6.049  10.828   6.168  1.6168  4.6004  1.7425
  338MOL0     H45626   6.035  11.023   6.260  0.3085 -1.3167 -2.9679
  338MOL0     H45627   5.922  10.985   6.392  1.0286  3.5319  0.0429
  338MOL0     H45628   5.631  11.005   6.081 -2.1253 -2.5036  1.2129
  338MOL0     H45629   6.182  11.211   6.392  0.9162  1.3675  0.7218
  338MOL0     H45630   6.383  11.368   6.391 -1.8659 -0.1807  0.8142
  339MOL0     O45631   1.561   6.184   3.565  0.3397 -0.1944 -0.3322
  339MOL0     C45632   1.671   6.184   3.516  0.0365  0.7055 -1.1197
  339MOL0     O45633   1.715   6.279   3.437  1.1754 -1.2373 -0.6350
  339MOL0     C45634   1.640   6.400   3.418  0.0034  0.2225 -0.6507
  339MOL0     C45635   1.594   6.468   3.535  0.3846  0.8064  0.2970
  339MOL0     C45636   1.532   6.592   3.521  0.2545 -0.0653  0.0727
  339MOL0     C45637   1.498   6.649   3.391 -1.2487  1.2653 -0.6020
  339MOL0     O45638   1.432   6.769   3.380 -0.6008 -0.5754  0.0925
  339MOL0     C45639   1.294   6.776   3.350 -0.4671 -0.5589  0.3408
  339MOL0     C45640   1.252   6.918   3.378  1.0359 -0.1979 -0.1425
  339MOL0     C45641   1.186   6.931   3.510 -0.6537  0.2713 -0.3137
  339MOL0     C45642   1.145   7.078   3.549  0.3576 -1.2820 -0.1354
  339MOL0     C45643   1.108   7.078   3.695  0.5293 -1.0098 -1.2006
  339MOL0     C45644   1.041   7.209   3.730 -0.3996  0.1447 -0.5814
  339MOL0     C45645   1.022   7.210   3.881  0.3073  0.4890 -0.0829
  339MOL0     C45646   0.901   7.125   3.920  0.2442  0.5315  0.1414
  339MOL0     N45647   0.905   7.103   4.059 -0.4169 -0.4933 -0.4086
  339MOL0     C45648   0.904   7.193   4.160 -0.5249 -0.1520 -0.5565
  339MOL0     C45649   0.917   7.129   4.281  0.4845  0.8030  0.0625
  339MOL0     C45650   0.907   7.198   4.419  0.4649  0.2097  0.8797
  339MOL0     C45651   0.978   7.332   4.431 -0.0200 -0.3098 -0.8185
  339MOL0     C45652   1.125   7.322   4.465 -0.2793 -0.5222  0.3843
  339MOL0     C45653   1.210   7.296   4.342  0.0904 -0.1254  0.2111
  339MOL0     O45654   1.182   7.392   4.241  0.3980 -0.3291  0.1898
  339MOL0     C45655   1.252   7.509   4.234  0.6542  0.3637  0.4278
  339MOL0     C45656   1.212   7.609   4.146 -0.2482  0.0817 -0.8429
  339MOL0     C45657   1.286   7.732   4.122 -0.5746  0.3015  0.0642
  339MOL0     C45658   1.230   7.819   4.019 -0.1785  0.9564  0.3178
  339MOL0     C45659   1.411   7.748   4.190  0.8119  0.1373  0.9336
  339MOL0     C45660   1.495   7.872   4.181  0.3479 -0.6576  0.4260
  339MOL0     O45661   1.613   7.865   4.240  0.2093  0.0896  0.3559
  339MOL0     C45662   1.703   7.961   4.209 -0.5712  0.7169  0.2951
  339MOL0     C45663   1.718   8.084   4.281 -0.8015  0.0022 -0.1132
  339MOL0     C45664   1.823   8.171   4.264 -1.4088 -0.5388 -0.7218
  339MOL0     C45665   1.921   8.143   4.176 -0.0350  0.3277  1.0671
  339MOL0     O45666   2.031   8.222   4.184 -0.9083 -0.6246  0.7995
  339MOL0     C45667   2.137   8.195   4.097  0.0568 -0.4462  0.3470
  339MOL0     C45668   2.263   8.285   4.109 -0.2001  0.8111 -0.6018
  339MOL0     C45669   2.346   8.239   4.236 -0.6575 -0.5894 -0.1278
  339MOL0     C45670   2.499   8.218   4.224 -0.3888 -1.0330 -0.4660
  339MOL0     C45671   2.583   8.341   4.270  0.2283 -0.1093 -0.1246
  339MOL0     C45672   2.734   8.321   4.256  0.0580  0.6613  0.6767
  339MOL0     C45673   2.821   8.439   4.322  0.3461  0.9034 -0.3568
  339MOL0     C45674   2.963   8.450   4.277 -0.4370 -0.0779 -0.6510
  339MOL0    Cl45675   3.038   8.594   4.356 -0.1509 -0.2577 -0.4916
  339MOL0     C45676   1.918   8.026   4.100 -0.0495  0.2027  0.0220
  339MOL0     C45677   1.812   7.927   4.119  0.1758  0.2527 -0.1718
  339MOL0     O45678   1.450   7.973   4.125  0.0672 -0.6417  0.3807
  339MOL0     C45679   1.444   7.642   4.280  0.0466 -0.2861 -0.9712
  339MOL0     C45680   1.373   7.523   4.303  0.5866 -1.0528 -0.5665
  339MOL0     N45681   0.938   6.996   4.246  0.8633  0.4585  0.0122
  339MOL0     N45682   0.934   6.977   4.115  0.2842 -0.2880 -0.4790
  339MOL0     C45683   1.535   6.576   3.276 -0.3168  0.4961  0.2356
  339MOL0     C45684   1.607   6.455   3.289 -0.4041 -0.1618  0.3952
  339MOL0     C45685   1.754   6.063   3.532 -0.8695  0.6585 -0.6778
  339MOL0     C45686   1.710   5.957   3.603 -0.6270 -0.0266  0.0410
  339MOL0     C45687   1.764   5.826   3.598 -0.5909 -0.0296  0.6054
  339MOL0     C45688   1.889   5.809   3.542 -0.1563 -0.4634 -0.1636
  339MOL0     O45689   1.935   5.680   3.538  0.6723 -0.2563  0.0589
  339MOL0     C45690   2.057   5.667   3.607 -0.5214  0.6009 -0.3371
  339MOL0     C45691   2.057   5.553   3.713  0.1070  0.6635  0.1930
  339MOL0     C45692   2.071   5.414   3.647  0.0999  0.6674  0.4539
  339MOL0     C45693   1.947   5.329   3.662  0.3664  0.0558  0.3506
  339MOL0     C45694   1.936   5.258   3.791  0.7636  0.6868  0.1329
  339MOL0     C45695   1.926   5.191   3.888 -0.0670  0.3467 -0.0569
  339MOL0     C45696   1.948   5.924   3.485  0.0610 -0.4671 -0.2898
  339MOL0     C45697   1.881   6.045   3.483 -0.0530 -0.7186  0.3964
  339MOL0     H45698   1.604   6.426   3.635  2.3389 -0.3529 -0.3381
  339MOL0     H45699   1.491   6.644   3.607  0.4162 -0.9946  0.7253
  339MOL0     H45700   1.280   6.755   3.244  1.9377  1.1922 -0.3884
  339MOL0     H45701   1.238   6.706   3.414  1.4910 -2.6618 -0.1346
  339MOL0     H45702   1.339   6.981   3.360  2.7802 -2.2195  0.7670
  339MOL0     H45703   1.174   6.948   3.308  0.2570  2.4010  1.7077
  339MOL0     H45704   1.092   6.876   3.505 -0.7948  0.5934 -2.8545
  339MOL0     H45705   1.256   6.892   3.585  0.2336 -0.3220 -1.4099
  339MOL0     H45706   1.216   7.159   3.528 -0.5960 -0.5982 -0.8772
  339MOL0     H45707   1.051   7.103   3.499 -0.4013  1.7680  2.4757
  339MOL0     H45708   1.032   6.999   3.701  0.6954 -1.0734  0.3669
  339MOL0     H45709   1.193   7.058   3.761 -0.1378  1.2589  0.4709
  339MOL0     H45710   1.110   7.291   3.705 -3.3157  2.2604 -2.2318
  339MOL0     H45711   0.947   7.231   3.680 -1.6525  1.8040  2.2234
  339MOL0     H45712   1.110   7.173   3.934 -0.9572 -1.6424  0.6398
  339MOL0     H45713   1.005   7.312   3.917 -1.5886 -0.2556  1.3006
  339MOL0     H45714   0.908   7.028   3.870 -2.7487  0.0545  0.4390
  339MOL0     H45715   0.808   7.168   3.880 -1.4482 -3.5822 -0.8914
  339MOL0     H45716   0.891   7.299   4.141  2.4763  0.0563 -2.1785
  339MOL0     H45717   0.800   7.192   4.441  0.5612  0.7624  1.5227
  339MOL0     H45718   0.963   7.140   4.492  0.9707 -0.3005  0.0947
  339MOL0     H45719   0.941   7.386   4.519 -0.3832 -2.2856  0.3183
  339MOL0     H45720   0.955   7.397   4.347  0.1047  0.0809 -0.5545
  339MOL0     H45721   1.155   7.244   4.536  1.2748  0.5018  0.9102
  339MOL0     H45722   1.168   7.417   4.498  0.1352 -0.4487 -0.3463
  339MOL0     H45723   1.172   7.209   4.288 -2.2990  0.4101  0.9241
  339MOL0     H45724   1.317   7.288   4.363  0.5671 -0.2270 -1.9835
  339MOL0     H45725   1.123   7.599   4.086  0.2382 -0.2905 -1.5189
  339MOL0     H45726   1.240   7.922   4.053  1.9560  1.2260 -0.9794
  339MOL0     H45727   1.302   7.818   3.936  2.2064 -2.9670  2.1323
  339MOL0     H45728   1.135   7.788   3.973  0.2283 -0.4795  0.3775
  339MOL0     H45729   1.645   8.082   4.362  2.1303  0.5015  2.7599
  339MOL0     H45730   1.846   8.249   4.336 -1.0710  4.1298 -5.3445
  339MOL0     H45731   2.178   8.094   4.103  0.1149 -0.4308  0.2044
  339MOL0     H45732   2.090   8.203   3.999  1.6035  0.4412 -0.3425
  339MOL0     H45733   2.339   8.273   4.030  0.6011  1.7605  0.0001
  339MOL0     H45734   2.233   8.390   4.113  1.6486  1.4049 -1.0928
  339MOL0     H45735   2.305   8.148   4.281  0.3361  0.2697  2.7268
  339MOL0     H45736   2.331   8.321   4.307 -0.8964  1.3818 -2.3628
  339MOL0     H45737   2.522   8.131   4.287  3.5917 -0.0517 -0.3211
  339MOL0     H45738   2.525   8.203   4.119  1.4521 -0.3822 -0.1246
  339MOL0     H45739   2.569   8.379   4.372  1.4247 -0.6304  0.2456
  339MOL0     H45740   2.552   8.424   4.205  2.0782 -0.8787 -2.0656
  339MOL0     H45741   2.768   8.240   4.322 -2.1144 -0.0042  1.0478
  339MOL0     H45742   2.763   8.302   4.152  0.4672 -0.6896  1.0065
  339MOL0     H45743   2.817   8.426   4.431 -2.2849 -0.2415 -0.5051
  339MOL0     H45744   2.772   8.536   4.311  0.2346  0.9559  0.4991
  339MOL0     H45745   2.973   8.467   4.169  1.6293 -0.8113 -0.6321
  339MOL0     H45746   3.017   8.356   4.291 -0.1407  0.1367 -0.3466
  339MOL0     H45747   1.986   8.006   4.018  2.0919 -0.8637  1.9471
  339MOL0     H45748   1.819   7.846   4.048  0.4806  0.9545 -0.9596
  339MOL0     H45749   1.527   7.659   4.348 -2.5115  1.4217  1.9801
  339MOL0     H45750   1.414   7.449   4.370 -0.3767 -1.9133 -0.9166
  339MOL0     H45751   1.509   6.612   3.177 -1.9019 -0.9832  0.0614
  339MOL0     H45752   1.619   6.396   3.198  2.1547 -2.8415  2.2827
  339MOL0     H45753   1.624   5.976   3.666  2.1481  3.8075  3.1688
  339MOL0     H45754   1.713   5.742   3.645 -1.1521  0.3705  0.7088
  339MOL0     H45755   2.143   5.661   3.540  1.8474  0.3641  2.5175
  339MOL0     H45756   2.074   5.760   3.663  2.1716  0.6240 -1.0756
  339MOL0     H45757   1.978   5.555   3.788 -0.7532 -1.3321 -0.5724
  339MOL0     H45758   2.151   5.560   3.768 -0.6862  1.4634  1.4817
  339MOL0     H45759   2.162   5.363   3.681 -0.6464 -0.4093  0.8695
  339MOL0     H45760   2.084   5.434   3.540  0.3394 -0.2657  0.3053
  339MOL0     H45761   1.943   5.255   3.582 -0.3555 -1.3372  1.6174
  339MOL0     H45762   1.856   5.390   3.665 -0.5785 -1.3190  1.5605
  339MOL0     H45763   1.905   5.142   3.981 -1.2574 -0.4381 -0.7120
  339MOL0     H45764   2.052   5.915   3.454  0.5898 -1.0482  1.4910
  339MOL0     H45765   1.923   6.135   3.438 -1.4843  0.6175  1.5969
  340MOL0     O45766   0.626   3.911   3.429  0.2522 -0.4674  0.2778
  340MOL0     C45767   0.701   3.918   3.526  0.1375  0.3255  0.0816
  340MOL0     O45768   0.770   3.817   3.572 -0.3185 -0.0844  0.2533
  340MOL0     C45769   0.768   3.696   3.505  0.3441  0.3334 -0.3956
  340MOL0     C45770   0.712   3.588   3.567 -1.5111  0.4874 -0.1899
  340MOL0     C45771   0.687   3.468   3.502  0.4241 -0.2217  0.1908
  340MOL0     C45772   0.726   3.458   3.366  0.4040 -0.5802  0.1515
  340MOL0     O45773   0.698   3.330   3.312  0.3307 -0.3882 -0.4109
  340MOL0     C45774   0.656   3.329   3.173 -0.6465 -0.7339 -0.2107
  340MOL0     C45775   0.537   3.238   3.142 -1.1447 -0.4353  0.3856
  340MOL0     C45776   0.571   3.092   3.160 -0.6697 -0.0541  0.0214
  340MOL0     C45777   0.449   3.014   3.202  0.0071  0.0438  0.2800
  340MOL0     C45778   0.480   2.878   3.276  0.6401  0.0243 -0.4928
  340MOL0     C45779   0.428   2.874   3.411 -0.3743 -0.5208 -1.2401
  340MOL0     C45780   0.458   2.740   3.468  0.3226  0.1136  0.0942
  340MOL0     C45781   0.378   2.690   3.579 -0.3375  0.2286 -0.7517
  340MOL0     N45782   0.394   2.763   3.701 -0.1657  0.9730  0.0946
  340MOL0     C45783   0.522   2.791   3.765 -0.2785 -0.1397 -0.0156
  340MOL0     C45784   0.487   2.869   3.863  0.7489 -0.3949 -0.2604
  340MOL0     C45785   0.564   2.919   3.978 -0.1939 -0.7213  0.3944
  340MOL0     C45786   0.663   2.820   4.036  0.1382 -0.7349  0.3262
  340MOL0     C45787   0.592   2.694   4.077 -0.2784  0.4034 -0.3416
  340MOL0     C45788   0.639   2.568   4.000 -0.3501  0.1540 -0.3976
  340MOL0     O45789   0.770   2.536   4.048  0.3787  0.5392  0.5906
  340MOL0     C45790   0.867   2.503   3.955 -0.1052  0.1510  0.3960
  340MOL0     C45791   0.849   2.418   3.850  0.2463  0.3285  0.5326
  340MOL0     C45792   0.952   2.359   3.775 -0.5948 -0.7545  0.1843
  340MOL0     C45793   0.915   2.282   3.660  0.1126  0.6242 -0.0878
  340MOL0     C45794   1.082   2.394   3.808 -0.4545 -0.3204  0.0787
  340MOL0     C45795   1.190   2.346   3.723  0.5206  1.3778  0.1135
  340MOL0     O45796   1.249   2.218   3.764  0.1803 -0.5736 -0.0663
  340MOL0     C45797   1.332   2.161   3.663  0.1224 -0.9196 -0.4450
  340MOL0     C45798   1.447   2.103   3.705 -1.1052 -0.0959 -0.8847
  340MOL0     C45799   1.533   2.052   3.617 -0.5751 -0.0197  0.0938
  340MOL0     C45800   1.516   2.053   3.478 -0.9810  0.7608  0.3690
  340MOL0     O45801   1.628   2.026   3.392  0.5688 -0.8516 -0.4726
  340MOL0     C45802   1.614   2.096   3.267 -0.1006 -0.0504 -0.6133
  340MOL0     C45803   1.756   2.107   3.208  0.0504  0.8455  0.3053
  340MOL0     C45804   1.774   2.212   3.102  0.1364  0.7173 -0.0352
  340MOL0     C45805   1.933   2.237   3.077 -0.8661 -0.5070  0.1584
  340MOL0     C45806   1.963   2.295   2.938  0.6922  0.7912 -0.2486
  340MOL0     C45807   2.116   2.316   2.900  0.1404  0.1872 -0.3630
  340MOL0     C45808   2.119   2.316   2.743  0.7018 -0.1150 -0.0571
  340MOL0     C45809   2.255   2.367   2.706 -0.6748  0.6188  0.8305
  340MOL0    Cl45810   2.279   2.542   2.736  0.0977 -0.0382  0.0158
  340MOL0     C45811   1.387   2.100   3.437  0.2516 -0.0960  0.0165
  340MOL0     C45812   1.299   2.163   3.530  0.2911 -0.7022  0.5814
  340MOL0     O45813   1.224   2.417   3.629 -0.7052 -0.4757  0.2257
  340MOL0     C45814   1.114   2.463   3.920  0.2403 -0.4278  0.3653
  340MOL0     C45815   1.002   2.518   3.990  0.0469 -1.6079  0.2295
  340MOL0     N45816   0.349   2.892   3.871  1.0943  1.2829 -0.4675
  340MOL0     N45817   0.306   2.840   3.755  0.0439  0.5249  0.5093
  340MOL0     C45818   0.789   3.567   3.304  0.6351  0.2760 -0.6961
  340MOL0     C45819   0.813   3.689   3.371  1.0942 -0.8105  0.2309
  340MOL0     C45820   0.735   4.052   3.594 -0.1363 -0.5376  0.6533
  340MOL0     C45821   0.857   4.076   3.668  1.4016 -0.3724 -0.6315
  340MOL0     C45822   0.873   4.198   3.737  0.7828  0.3531 -0.2778
  340MOL0     C45823   0.771   4.303   3.733 -0.1253  1.2969 -0.5958
  340MOL0     O45824   0.774   4.418   3.803  1.2540 -0.7971 -0.2198
  340MOL0     C45825   0.825   4.525   3.731  0.4363 -0.6609 -0.7262
  340MOL0     C45826   0.890   4.632   3.825  0.6149 -0.2339  0.3108
  340MOL0     C45827   1.011   4.589   3.903 -0.1420 -0.1593 -0.3927
  340MOL0     C45828   0.980   4.501   4.022 -1.8882  0.5052  0.0820
  340MOL0     C45829   1.118   4.456   4.076 -0.4710  0.2078 -0.8224
  340MOL0     C45830   1.228   4.415   4.121 -0.0802 -0.4169  0.0887
  340MOL0     C45831   0.650   4.281   3.668 -0.2846 -0.0031 -0.0482
  340MOL0     C45832   0.637   4.153   3.606 -0.1927 -0.2871 -0.0891
  340MOL0     H45833   0.685   3.596   3.672 -1.6603  3.1157 -0.3644
  340MOL0     H45834   0.630   3.388   3.546  1.6722  0.1578  2.6500
  340MOL0     H45835   0.606   3.419   3.136 -0.9981 -1.6306 -2.0507
  340MOL0     H45836   0.740   3.300   3.110  2.3739 -1.1297  3.6177
  340MOL0     H45837   0.458   3.273   3.209 -0.8739 -1.2933  1.1822
  340MOL0     H45838   0.490   3.251   3.044 -2.9394  0.2337  1.2936
  340MOL0     H45839   0.626   3.059   3.072  1.0464 -1.4178  1.5097
  340MOL0     H45840   0.655   3.075   3.229  0.9705  0.5039 -1.7444
  340MOL0     H45841   0.384   3.069   3.271 -4.0957 -2.5634 -1.1382
  340MOL0     H45842   0.390   3.000   3.112 -1.6701  2.8722  0.8442
  340MOL0     H45843   0.414   2.807   3.225 -2.0586  0.5961  1.9282
  340MOL0     H45844   0.586   2.851   3.267  1.3462  1.5886  2.0421
  340MOL0     H45845   0.469   2.959   3.467  4.2164 -1.3038 -3.0442
  340MOL0     H45846   0.321   2.880   3.387 -0.3180 -0.3701 -1.4510
  340MOL0     H45847   0.458   2.670   3.385 -0.7868  1.6754 -1.2766
  340MOL0     H45848   0.562   2.747   3.502 -0.3068  3.7770  1.7976
  340MOL0     H45849   0.411   2.587   3.597 -0.3819  0.3847  0.3067
  340MOL0     H45850   0.272   2.688   3.552 -0.4721  1.0354 -0.3197
  340MOL0     H45851   0.625   2.764   3.741  0.5295  1.4587  1.3564
  340MOL0     H45852   0.618   3.003   3.933 -3.2179  0.7480 -0.7460
  340MOL0     H45853   0.511   2.984   4.048 -0.7730  0.7201 -1.3215
  340MOL0     H45854   0.707   2.859   4.128 -2.5548 -1.3396  1.9731
  340MOL0     H45855   0.747   2.799   3.970  0.3094  0.5160  0.1250
  340MOL0     H45856   0.482   2.693   4.071 -0.5813  4.1699  1.5741
  340MOL0     H45857   0.617   2.682   4.182  2.2089 -2.0128 -1.1019
  340MOL0     H45858   0.634   2.586   3.892  2.4574  2.4182 -0.2498
  340MOL0     H45859   0.578   2.483   4.032 -3.3339  1.3179 -2.5334
  340MOL0     H45860   0.749   2.394   3.816  1.4339  0.5628 -3.7674
  340MOL0     H45861   0.952   2.179   3.671 -1.9558 -0.0328  1.3666
  340MOL0     H45862   0.807   2.272   3.650  0.0623  1.1304 -0.0763
  340MOL0     H45863   0.955   2.332   3.571 -0.7923 -2.3232 -2.3388
  340MOL0     H45864   1.459   2.095   3.813 -3.3965  1.9302 -0.3852
  340MOL0     H45865   1.631   2.013   3.645 -0.4370  0.6521  0.5941
  340MOL0     H45866   1.565   2.049   3.182 -1.0307  1.1400 -0.7712
  340MOL0     H45867   1.563   2.191   3.290 -0.0257 -1.1413  6.4101
  340MOL0     H45868   1.824   2.140   3.287 -0.7030  3.5265 -0.0494
  340MOL0     H45869   1.778   2.005   3.175  1.9076  1.3030  0.0031
  340MOL0     H45870   1.736   2.306   3.141  1.1202  1.4930 -0.8907
  340MOL0     H45871   1.718   2.183   3.012  0.7620  0.9940 -0.5263
  340MOL0     H45872   1.968   2.321   3.138  0.1367  1.0638 -2.4176
  340MOL0     H45873   1.981   2.139   3.085  0.3312  0.0687  0.2231
  340MOL0     H45874   1.900   2.384   2.926 -1.8607 -1.2478 -4.2724
  340MOL0     H45875   1.926   2.213   2.876 -1.0970  0.1217  1.5933
  340MOL0     H45876   2.140   2.407   2.957 -4.5466  0.5191  1.5049
  340MOL0     H45877   2.188   2.238   2.924  0.3168  0.9520  1.7960
  340MOL0     H45878   2.042   2.384   2.706 -0.6189 -1.9055 -0.7469
  340MOL0     H45879   2.098   2.218   2.700  3.4235 -0.3836 -0.9562
  340MOL0     H45880   2.272   2.350   2.599  0.5202  2.2671  0.7180
  340MOL0     H45881   2.334   2.309   2.754  1.6911  1.8891 -1.2453
  340MOL0     H45882   1.363   2.111   3.332  0.0714 -0.2426  0.0430
  340MOL0     H45883   1.206   2.215   3.507  0.4798 -0.2463  0.8373
  340MOL0     H45884   1.213   2.492   3.955  0.1052  0.0426  0.3690
  340MOL0     H45885   1.020   2.583   4.075 -1.7419  0.5715 -0.9586
  340MOL0     H45886   0.822   3.566   3.201 -1.5398  0.2801 -1.4569
  340MOL0     H45887   0.850   3.774   3.315 -2.0540 -0.2725 -1.2347
  340MOL0     H45888   0.950   4.021   3.679  3.4787  2.7411 -1.3563
  340MOL0     H45889   0.961   4.211   3.799  1.5350  0.8536 -1.4215
  340MOL0     H45890   0.891   4.490   3.652 -2.3336  0.1014 -3.5551
  340MOL0     H45891   0.734   4.571   3.690 -0.8458 -0.6278  1.9281
  340MOL0     H45892   0.828   4.687   3.897 -1.0871  0.7631 -1.7833
  340MOL0     H45893   0.938   4.693   3.748  3.2152 -2.0416  0.3616
  340MOL0     H45894   1.063   4.676   3.945  0.5487 -0.9864  0.5087
  340MOL0     H45895   1.065   4.535   3.825 -0.5343 -0.9655 -0.1102
  340MOL0     H45896   0.924   4.410   3.997  0.9905 -2.0462  2.0677
  340MOL0     H45897   0.932   4.559   4.101  0.2306  0.0691  1.7994
  340MOL0     H45898   1.329   4.392   4.150 -0.4486  0.0742  1.9140
  340MOL0     H45899   0.565   4.348   3.666 -0.4199 -0.1933 -1.6169
  340MOL0     H45900   0.541   4.118   3.568 -0.7553  2.1920 -1.1237
  341MOL0     O45901   6.212   6.254   1.417  0.0719 -0.2789  0.9712
  341MOL0     C45902   6.297   6.280   1.334 -0.0961  0.5251  0.0158
  341MOL0     O45903   6.351   6.405   1.316  0.4394 -0.3649 -0.4870
  341MOL0     C45904   6.337   6.487   1.424  0.3238 -0.8023  0.0761
  341MOL0     C45905   6.331   6.621   1.391  0.6490  0.8971  0.3648
  341MOL0     C45906   6.320   6.720   1.476 -0.4522 -0.1805  0.7782
  341MOL0     C45907   6.304   6.689   1.610  0.0215  0.8717 -0.4681
  341MOL0     O45908   6.289   6.805   1.688  0.1457 -0.1778 -0.3356
  341MOL0     C45909   6.197   6.780   1.796  0.5827 -0.7306 -0.6548
  341MOL0     C45910   6.139   6.914   1.834 -0.5201 -0.1819 -0.1218
  341MOL0     C45911   6.071   6.983   1.719 -0.6234  0.3649  0.0463
  341MOL0     C45912   5.986   7.116   1.746  0.9169  0.2850  0.6985
  341MOL0     C45913   5.933   7.177   1.622 -0.5158 -0.7030  1.5615
  341MOL0     C45914   5.886   7.322   1.643  0.1345  0.6819 -0.2781
  341MOL0     C45915   5.760   7.347   1.724 -0.8118  1.1430 -0.1017
  341MOL0     C45916   5.644   7.269   1.665  0.5730 -0.1152  0.3168
  341MOL0     N45917   5.528   7.314   1.739 -0.0762 -0.4464 -0.1228
  341MOL0     C45918   5.454   7.427   1.723 -0.3880 -0.1763 -0.0356
  341MOL0     C45919   5.355   7.421   1.824 -0.6223  0.2526 -0.9737
  341MOL0     C45920   5.252   7.523   1.852  0.0139  0.0835  0.0185
  341MOL0     C45921   5.142   7.505   1.749  1.0749  0.6391 -0.1570
  341MOL0     C45922   5.128   7.615   1.640 -0.0469 -0.3344  0.5607
  341MOL0     C45923   5.175   7.575   1.496 -0.6957  0.1416  0.7785
  341MOL0     O45924   5.199   7.687   1.403  0.0909  0.6421  1.2593
  341MOL0     C45925   5.084   7.737   1.347 -0.8706 -0.5144 -1.1843
  341MOL0     C45926   5.026   7.678   1.236  0.4285  0.4706  0.1466
  341MOL0     C45927   4.932   7.746   1.157 -1.3304 -0.0199  0.7148
  341MOL0     C45928   4.913   7.711   1.019 -0.0179  0.1718  0.6322
  341MOL0     C45929   4.870   7.861   1.216 -0.0260  0.1550  1.0904
  341MOL0     C45930   4.736   7.907   1.150 -0.2945 -0.1310  0.0180
  341MOL0     O45931   4.647   7.825   1.095 -0.2693 -0.2171  0.1506
  341MOL0     C45932   4.546   7.893   1.030  0.1259 -0.2243 -0.0562
  341MOL0     C45933   4.567   7.923   0.902 -0.8150 -1.0643 -0.3822
  341MOL0     C45934   4.474   7.976   0.817  0.1485 -0.4225  0.2224
  341MOL0     C45935   4.351   8.018   0.877  0.6950 -0.1788 -0.5245
  341MOL0     O45936   4.250   8.075   0.805 -0.0619 -0.3492 -0.3617
  341MOL0     C45937   4.286   8.185   0.729  0.7329  0.0769 -0.0916
  341MOL0     C45938   4.271   8.167   0.584 -0.3084  0.0134  0.1988
  341MOL0     C45939   4.130   8.190   0.521  0.2031 -0.1887 -1.0741
  341MOL0     C45940   4.111   8.338   0.510  0.5024 -0.1352  0.3679
  341MOL0     C45941   3.981   8.368   0.448 -0.3730  0.0756 -0.3669
  341MOL0     C45942   3.940   8.506   0.484 -0.4982  0.0755 -0.4816
  341MOL0     C45943   3.823   8.553   0.408  0.2822  0.5849  0.7827
  341MOL0     C45944   3.837   8.548   0.258 -0.2178 -0.5159 -0.2838
  341MOL0    Cl45945   3.699   8.631   0.193  0.3796  0.2221  0.0121
  341MOL0     C45946   4.318   7.975   1.006 -0.2212 -1.2422  0.2712
  341MOL0     C45947   4.421   7.908   1.086 -0.7707  0.3377 -0.1256
  341MOL0     O45948   4.727   8.029   1.167  0.2323  0.0404  0.7454
  341MOL0     C45949   4.932   7.915   1.329 -0.4243  0.7006  0.1803
  341MOL0     C45950   5.048   7.860   1.392  0.4108  0.4513  0.1799
  341MOL0     N45951   5.382   7.304   1.896 -0.2141 -0.4039 -0.0102
  341MOL0     N45952   5.472   7.234   1.839  0.7741 -1.1913 -0.0017
  341MOL0     C45953   6.304   6.560   1.651 -0.7399  0.1461  0.0835
  341MOL0     C45954   6.345   6.458   1.561  0.6826  0.0234 -0.0973
  341MOL0     C45955   6.324   6.176   1.230 -0.2165 -0.0230 -0.3938
  341MOL0     C45956   6.287   6.045   1.250 -1.2712 -0.1688 -0.2411
  341MOL0     C45957   6.314   5.957   1.142  0.4590  1.0499 -0.1513
  341MOL0     C45958   6.387   5.984   1.030  0.2974 -0.0385  0.2458
  341MOL0     O45959   6.403   5.885   0.941 -0.0005  0.2438  0.0568
  341MOL0     C45960   6.458   5.916   0.806 -0.5669 -0.3425  0.1676
  341MOL0     C45961   6.485   5.793   0.719  0.5410 -0.1018 -0.4562
  341MOL0     C45962   6.569   5.688   0.795 -0.3735 -0.2413  0.3901
  341MOL0     C45963   6.576   5.558   0.721  0.4824  0.2851  0.0403
  341MOL0     C45964   6.670   5.464   0.796  0.3377 -0.3834 -0.2049
  341MOL0     C45965   6.739   5.395   0.869  0.3931 -0.0788 -0.6041
  341MOL0     C45966   6.412   6.116   1.008 -0.0359  0.2378 -0.2413
  341MOL0     C45967   6.393   6.214   1.111 -0.7553 -0.1731  0.3718
  341MOL0     H45968   6.316   6.647   1.287 -1.6312  0.6353  0.5912
  341MOL0     H45969   6.297   6.817   1.433 -1.2014 -0.0779  1.3983
  341MOL0     H45970   6.119   6.708   1.769  1.1876 -1.6850  0.0394
  341MOL0     H45971   6.246   6.737   1.885 -2.8711 -3.2944  0.2297
  341MOL0     H45972   6.073   6.893   1.918  1.0279 -2.1129  0.6955
  341MOL0     H45973   6.231   6.964   1.867 -0.8770  2.9204 -3.2527
  341MOL0     H45974   6.140   7.017   1.641 -1.0353  2.6012  0.5890
  341MOL0     H45975   5.999   6.914   1.674 -1.2814  0.8764  0.3013
  341MOL0     H45976   5.896   7.097   1.804  1.3081  0.5876  1.4219
  341MOL0     H45977   6.056   7.183   1.799  0.7863  0.1801  1.0051
  341MOL0     H45978   6.015   7.176   1.549  0.1068  0.3204  2.2095
  341MOL0     H45979   5.851   7.116   1.583  1.4027 -1.2186 -2.1468
  341MOL0     H45980   5.975   7.375   1.678  0.3843 -0.0153  0.1694
  341MOL0     H45981   5.867   7.350   1.539  0.2793 -3.9902 -1.8351
  341MOL0     H45982   5.769   7.318   1.829 -1.4205 -3.0096 -1.0141
  341MOL0     H45983   5.742   7.455   1.719  0.9188  1.4397 -0.7431
  341MOL0     H45984   5.641   7.159   1.669 -1.8874 -0.0626  2.9413
  341MOL0     H45985   5.634   7.289   1.558  1.6270 -2.8394 -0.3860
  341MOL0     H45986   5.469   7.506   1.650 -0.8523 -0.0522  0.0032
  341MOL0     H45987   5.212   7.521   1.954 -1.2943  0.7538 -0.4502
  341MOL0     H45988   5.298   7.622   1.848  1.1061 -0.4105  0.1122
  341MOL0     H45989   5.049   7.500   1.806  0.9575 -0.5480 -0.4308
  341MOL0     H45990   5.151   7.410   1.696 -0.4066  1.4578 -1.9961
  341MOL0     H45991   5.184   7.705   1.667 -1.5272  1.6231 -2.4153
  341MOL0     H45992   5.022   7.640   1.637 -1.1742 -4.4351  0.0009
  341MOL0     H45993   5.108   7.502   1.451  2.3334 -2.7519  0.5581
  341MOL0     H45994   5.274   7.529   1.493  1.1454  3.5346  3.0397
  341MOL0     H45995   5.066   7.581   1.208 -2.5788 -1.0153  0.5879
  341MOL0     H45996   4.845   7.625   1.019  1.2732 -0.9016  2.1826
  341MOL0     H45997   4.869   7.793   0.961  3.2326  1.5470 -0.0820
  341MOL0     H45998   5.000   7.672   0.966 -1.7872 -3.1096 -0.1282
  341MOL0     H45999   4.664   7.901   0.859 -0.1215  2.4764 -0.9096
  341MOL0     H46000   4.509   8.006   0.719  3.8559  0.7285  1.7425
  341MOL0     H46001   4.230   8.269   0.771  1.7328 -0.3732  2.2895
  341MOL0     H46002   4.391   8.214   0.735  0.8633 -0.6579  1.5295
  341MOL0     H46003   4.346   8.226   0.531 -0.2336 -2.8783 -3.2700
  341MOL0     H46004   4.289   8.062   0.559  0.9081  0.2648 -0.0565
  341MOL0     H46005   4.047   8.146   0.579  0.2903  0.7436 -0.2051
  341MOL0     H46006   4.110   8.137   0.428 -1.8023 -1.2623 -0.1059
  341MOL0     H46007   4.113   8.388   0.607  0.5167  1.9921 -0.6782
  341MOL0     H46008   4.188   8.384   0.448  0.4759 -2.0098 -1.1590
  341MOL0     H46009   3.918   8.286   0.484 -0.8606  1.2941  1.7231
  341MOL0     H46010   3.982   8.363   0.338 -3.5942  1.0123 -0.5629
  341MOL0     H46011   3.909   8.503   0.588  2.5135 -0.6386  0.5009
  341MOL0     H46012   4.019   8.581   0.473 -1.0684  0.9030  0.8684
  341MOL0     H46013   3.815   8.659   0.435  0.1308  1.2935 -1.8022
  341MOL0     H46014   3.734   8.499   0.441  1.4293 -1.5081  0.6472
  341MOL0     H46015   3.820   8.445   0.225  0.7537 -0.1341 -2.1144
  341MOL0     H46016   3.929   8.584   0.212 -0.0033 -1.3959 -0.5578
  341MOL0     H46017   4.216   7.998   1.036  0.4941 -0.2594  2.1006
  341MOL0     H46018   4.391   7.892   1.190  0.9919 -2.1781  0.0980
  341MOL0     H46019   4.882   8.006   1.362 -3.8261 -0.1361 -2.2157
  341MOL0     H46020   5.108   7.893   1.477  1.5902 -1.4234  0.1216
  341MOL0     H46021   6.270   6.533   1.751  1.3683  2.3097  1.5160
  341MOL0     H46022   6.340   6.361   1.609  0.9840  0.8048  1.6219
  341MOL0     H46023   6.229   6.020   1.339 -3.6760 -0.3268 -1.7823
  341MOL0     H46024   6.272   5.858   1.154  0.5531  1.1956  1.5899
  341MOL0     H46025   6.399   5.987   0.746  1.2627  0.6490 -0.5560
  341MOL0     H46026   6.556   5.965   0.809 -0.1706 -0.3495 -4.7186
  341MOL0     H46027   6.534   5.813   0.623 -2.2833  0.9199 -1.7885
  341MOL0     H46028   6.387   5.753   0.690  0.1071  1.4821 -1.2767
  341MOL0     H46029   6.526   5.673   0.894 -1.1803 -0.0246  0.0779
  341MOL0     H46030   6.674   5.719   0.792  0.7204 -3.5288 -1.4434
  341MOL0     H46031   6.625   5.566   0.623  1.6655 -0.6927  0.5143
  341MOL0     H46032   6.477   5.516   0.703 -0.0012  1.3439  0.1652
  341MOL0     H46033   6.793   5.339   0.943 -0.2550 -2.0609 -1.5731
  341MOL0     H46034   6.452   6.139   0.910 -0.1591  1.1568 -0.0791
  341MOL0     H46035   6.436   6.312   1.093 -3.7835  0.6714 -4.0976
  342MOL0     O46036   9.788   9.967   4.767 -0.0802  0.0441 -0.6490
  342MOL0     C46037   9.798  10.011   4.888  0.2435 -0.4437  0.0091
  342MOL0     O46038   9.711  10.103   4.936 -0.4031 -0.6251 -0.0773
  342MOL0     C46039   9.602  10.154   4.865 -0.3025  0.1763  1.9443
  342MOL0     C46040   9.579  10.297   4.876  0.7149  0.1599 -0.3385
  342MOL0     C46041   9.472  10.354   4.812 -0.4837  0.2881 -0.2217
  342MOL0     C46042   9.386  10.279   4.724  0.1901  0.8043 -0.4913
  342MOL0     O46043   9.280  10.337   4.663 -0.3594 -0.0325  0.0190
  342MOL0     C46044   9.168  10.338   4.753 -0.3589  0.1064  0.3730
  342MOL0     C46045   9.159  10.451   4.859  0.0754  0.0204  0.0381
  342MOL0     C46046   9.020  10.468   4.909  0.4801  0.4815  0.2805
  342MOL0     C46047   9.018  10.571   5.018 -0.6595  0.7612 -0.0309
  342MOL0     C46048   9.092  10.534   5.141 -0.9394 -0.1994 -0.4302
  342MOL0     C46049   9.228  10.619   5.145  0.4951  0.1619  1.0647
  342MOL0     C46050   9.336  10.580   5.235 -0.3811  1.4504 -0.4055
  342MOL0     C46051   9.440  10.682   5.272  0.6022  0.0136 -0.3472
  342MOL0     N46052   9.541  10.618   5.363  0.5877 -0.8463  0.4119
  342MOL0     C46053   9.634  10.525   5.328  0.2698  0.0664  0.1213
  342MOL0     C46054   9.719  10.519   5.431 -0.0764 -0.8215 -0.1313
  342MOL0     C46055   9.828  10.422   5.432 -0.0793 -0.1840 -0.1713
  342MOL0     C46056   9.969  10.474   5.439  0.6314 -0.7893  0.1213
  342MOL0     C46057  10.010  10.496   5.585  0.5546 -0.8261 -0.6581
  342MOL0     C46058  10.154  10.540   5.595  0.3431 -0.4005 -0.1912
  342MOL0     O46059  10.178  10.554   5.734  0.1866  0.0240 -1.1767
  342MOL0     C46060  10.308  10.572   5.775 -0.1523 -0.3209  0.4407
  342MOL0     C46061  10.421  10.611   5.692 -0.1117 -0.0192  0.6283
  342MOL0     C46062  10.556  10.618   5.743  0.1071 -0.3142  0.2225
  342MOL0     C46063  10.662  10.664   5.634  1.1768  0.8332  0.6057
  342MOL0     C46064  10.584  10.602   5.878 -0.4266 -0.3221  0.1218
  342MOL0     C46065  10.711  10.627   5.947  0.5102  0.1689  0.3164
  342MOL0     O46066  10.748  10.545   6.051  0.4827  0.9743 -0.7804
  342MOL0     C46067  10.870  10.542   6.108  1.2392  0.3102  0.9864
  342MOL0     C46068  10.997  10.574   6.055  0.0138  0.1178  0.6511
  342MOL0     C46069  11.107  10.559   6.145 -0.2599 -0.2615 -0.2869
  342MOL0     C46070  11.095  10.499   6.270  0.1093  0.2137  1.1444
  342MOL0     O46071  11.214  10.499   6.335  0.3575 -0.4497 -0.1296
  342MOL0     C46072  11.243  10.375   6.403  0.1415  0.7969  0.2003
  342MOL0     C46073  11.279  10.272   6.296  0.4112  0.2360  0.0304
  342MOL0     C46074  11.402  10.295   6.206  0.8934  0.3847  0.3106
  342MOL0     C46075  11.392  10.222   6.075 -0.5667 -0.2280  0.3176
  342MOL0     C46076  11.413  10.072   6.097 -0.4540 -0.4873 -1.0288
  342MOL0     C46077  11.296   9.986   6.035  0.0556  0.5314  0.6042
  342MOL0     C46078  11.338   9.879   5.927  0.2026 -0.0814  0.4918
  342MOL0     C46079  11.430   9.778   5.989 -0.1200  0.3146  0.8459
  342MOL0    Cl46080  11.350   9.680   6.108 -0.1706  0.0193 -0.0488
  342MOL0     C46081  10.966  10.476   6.324  1.4067 -1.0371 -0.3644
  342MOL0     C46082  10.858  10.488   6.232 -0.0566 -1.1686  0.5940
  342MOL0     O46083  10.776  10.720   5.909 -0.3939 -0.6256 -0.0663
  342MOL0     C46084  10.471  10.556   5.952 -0.7189 -0.7102 -0.5066
  342MOL0     C46085  10.334  10.548   5.904  0.2763  0.0801 -0.7524
  342MOL0     N46086   9.673  10.592   5.530 -0.0442 -0.2507 -0.5490
  342MOL0     N46087   9.563  10.655   5.490  0.2001  0.0290 -0.7883
  342MOL0     C46088   9.418  10.138   4.702  0.0234  0.1378  0.0736
  342MOL0     C46089   9.521  10.077   4.774 -0.4796  0.2881  0.0534
  342MOL0     C46090   9.911   9.981   4.975 -0.2737  0.1577 -0.5795
  342MOL0     C46091  10.021   9.933   4.893  0.0394  1.1269 -0.0101
  342MOL0     C46092  10.138   9.895   4.960  0.4251  0.8302 -0.0704
  342MOL0     C46093  10.148   9.896   5.098  0.6034 -0.5786  0.0299
  342MOL0     O46094  10.265   9.853   5.166 -0.1029  0.1952  0.0772
  342MOL0     C46095  10.256   9.774   5.278  0.1376  0.8093 -0.1851
  342MOL0     C46096  10.321   9.643   5.237  0.7540  0.4101  0.1469
  342MOL0     C46097  10.468   9.632   5.205  0.3090  0.2614  0.6294
  342MOL0     C46098  10.550   9.601   5.335 -0.1869  0.0020 -1.1340
  342MOL0     C46099  10.540   9.714   5.429 -0.2675  0.1802  0.4021
  342MOL0     C46100  10.518   9.791   5.521 -0.2375  0.0257 -0.4842
  342MOL0     C46101  10.049   9.952   5.176  0.5798 -0.2773  0.8841
  342MOL0     C46102   9.927  10.005   5.117  1.0535 -0.1324 -0.5563
  342MOL0     H46103   9.653  10.344   4.939  4.0488 -0.0614 -3.7177
  342MOL0     H46104   9.441  10.458   4.817 -1.5097 -0.0435  1.0613
  342MOL0     H46105   9.090  10.337   4.677  2.9175  0.0250 -3.3279
  342MOL0     H46106   9.159  10.242   4.804  0.3327  0.4007  1.0743
  342MOL0     H46107   9.222  10.417   4.942 -2.5798  1.4687  2.8440
  342MOL0     H46108   9.190  10.549   4.823  0.6526 -0.4479 -0.7577
  342MOL0     H46109   8.950  10.495   4.830 -0.0662  0.2562  0.6784
  342MOL0     H46110   8.991  10.376   4.961  0.9267 -0.0235 -0.3450
  342MOL0     H46111   9.047  10.672   4.988 -0.2084  0.1675 -1.7020
  342MOL0     H46112   8.916  10.570   5.058 -0.0640  0.6411  1.5298
  342MOL0     H46113   9.028  10.560   5.226  0.1676  3.1260 -0.4531
  342MOL0     H46114   9.122  10.429   5.147  2.2198  0.6217  0.1983
  342MOL0     H46115   9.272  10.625   5.045 -1.0292  1.4169  0.4220
  342MOL0     H46116   9.199  10.718   5.183  0.1546 -0.9507  3.9262
  342MOL0     H46117   9.290  10.552   5.330  1.6506 -2.3845 -0.3850
  342MOL0     H46118   9.392  10.494   5.199 -1.1551  0.8779 -0.2621
  342MOL0     H46119   9.387  10.756   5.332 -1.2851 -0.1167 -1.7338
  342MOL0     H46120   9.486  10.725   5.183  2.9315  2.0798  1.7181
  342MOL0     H46121   9.634  10.473   5.233 -1.1910 -1.9925  1.1728
  342MOL0     H46122   9.818  10.362   5.523 -0.5804 -0.2590 -0.2736
  342MOL0     H46123   9.822  10.345   5.355  1.2157 -1.8957  1.3315
  342MOL0     H46124   9.988  10.574   5.400  0.5210 -1.4048 -1.5929
  342MOL0     H46125  10.031  10.391   5.403  0.8060 -0.0070 -1.4444
  342MOL0     H46126   9.990  10.410   5.650 -0.8690  1.3355  1.9814
  342MOL0     H46127   9.940  10.575   5.615 -4.0754 -4.7585  0.0640
  342MOL0     H46128  10.156  10.638   5.546  2.7456  0.5812  1.6549
  342MOL0     H46129  10.237  10.478   5.560  1.2324 -0.0641  1.2153
  342MOL0     H46130  10.403  10.621   5.585  1.3078 -2.1778  0.1290
  342MOL0     H46131  10.608  10.708   5.550  0.0438  0.1860  0.9746
  342MOL0     H46132  10.748  10.725   5.664  0.1712  2.8922 -0.4653
  342MOL0     H46133  10.703  10.567   5.605  2.6131  1.1448  1.4996
  342MOL0     H46134  11.002  10.615   5.955  3.3466 -2.8666 -0.6116
  342MOL0     H46135  11.207  10.595   6.124  0.1800  1.3234  3.7219
  342MOL0     H46136  11.325  10.382   6.475  3.2631 -1.6947 -2.7360
  342MOL0     H46137  11.158  10.338   6.461 -1.0869  2.8362 -0.2105
  342MOL0     H46138  11.279  10.170   6.337  0.3204  0.6966  1.2018
  342MOL0     H46139  11.198  10.281   6.223 -0.8210 -1.2319  1.1380
  342MOL0     H46140  11.488  10.267   6.268 -1.2693 -0.9572  2.9042
  342MOL0     H46141  11.412  10.401   6.182 -1.8805  0.4719 -0.8171
  342MOL0     H46142  11.307  10.251   6.012  2.1787  2.4726 -2.4920
  342MOL0     H46143  11.473  10.251   6.008 -1.9850 -0.7877 -1.7367
  342MOL0     H46144  11.435  10.054   6.202  1.2996 -0.9124 -1.4287
  342MOL0     H46145  11.513  10.054   6.055 -0.4078 -2.8668 -0.0750
  342MOL0     H46146  11.244   9.944   6.122  2.6996 -1.3182  1.4196
  342MOL0     H46147  11.217  10.049   5.994 -0.9306 -0.3465  1.1167
  342MOL0     H46148  11.357   9.926   5.830 -1.9846  2.0585  1.0007
  342MOL0     H46149  11.247   9.829   5.894  1.2472 -0.0812 -2.7591
  342MOL0     H46150  11.516   9.825   6.038  0.7970 -0.9350  0.4623
  342MOL0     H46151  11.480   9.716   5.915 -1.7785  2.0292 -1.9056
  342MOL0     H46152  10.939  10.465   6.429  1.0857 -3.2508 -0.6323
  342MOL0     H46153  10.754  10.467   6.257 -0.3510 -2.8877 -1.6944
  342MOL0     H46154  10.496  10.530   6.054  2.6066  0.7105 -0.8226
  342MOL0     H46155  10.252  10.541   5.974  0.8500  0.6285 -0.0035
  342MOL0     H46156   9.347  10.077   4.647  1.2704 -1.0717 -0.2362
  342MOL0     H46157   9.533   9.971   4.752  3.0459  0.5512  0.0425
  342MOL0     H46158  10.019   9.940   4.785  1.0710  4.3908  0.0804
  342MOL0     H46159  10.233   9.874   4.912  1.5833  3.0885  1.1003
  342MOL0     H46160  10.308   9.815   5.366  3.1948 -1.6446 -0.6630
  342MOL0     H46161  10.157   9.749   5.318 -0.5666  0.7109 -1.9208
  342MOL0     H46162  10.260   9.611   5.152 -1.7518  2.6046  1.0028
  342MOL0     H46163  10.297   9.569   5.314  0.8652 -1.4022 -1.4692
  342MOL0     H46164  10.511   9.715   5.148  0.4387 -0.5279 -0.4577
  342MOL0     H46165  10.483   9.540   5.148 -0.8477  0.6855 -0.3997
  342MOL0     H46166  10.651   9.566   5.312  0.7334  2.8954 -1.8834
  342MOL0     H46167  10.498   9.520   5.388 -1.3182  0.1236 -2.0127
  342MOL0     H46168  10.490   9.855   5.603 -6.1228 -2.6490  0.0914
  342MOL0     H46169  10.052   9.964   5.284 -2.9560  1.0092  0.9907
  342MOL0     H46170   9.849  10.064   5.164  1.6636 -0.1408  0.4958
  343MOL0     O46171   8.676   3.518  10.400  0.3832  1.0484 -0.4736
  343MOL0     C46172   8.792   3.554  10.406  0.2335  0.2643  0.4288
  343MOL0     O46173   8.877   3.508  10.506  0.1523  0.1928  0.0595
  343MOL0     C46174   8.837   3.403  10.595  0.7162 -0.5466  0.5485
  343MOL0     C46175   8.829   3.269  10.559 -0.1666  0.5218  0.3103
  343MOL0     C46176   8.795   3.178  10.655  1.1908  0.5064  0.0258
  343MOL0     C46177   8.762   3.211  10.787  0.1714 -1.0501 -0.1023
  343MOL0     O46178   8.746   3.135  10.900  0.1599  0.2639  0.4565
  343MOL0     C46179   8.697   3.001  10.876 -0.5499 -0.3240 -0.1609
  343MOL0     C46180   8.663   2.929  11.010  0.1830 -0.6583  0.1594
  343MOL0     C46181   8.616   2.783  10.984 -0.3030  0.1738 -0.1600
  343MOL0     C46182   8.463   2.771  10.981  0.6785  0.1073  0.6416
  343MOL0     C46183   8.415   2.627  10.961 -0.3872 -0.0799 -0.8048
  343MOL0     C46184   8.267   2.608  11.004 -0.9417 -0.5598 -0.6154
  343MOL0     C46185   8.222   2.460  10.969 -0.0478 -0.1452  0.1386
  343MOL0     C46186   8.126   2.399  11.078 -0.4855  1.2829 -0.4285
  343MOL0     N46187   8.008   2.482  11.089 -0.1882  0.2110 -0.3861
  343MOL0     C46188   7.899   2.437  11.020  0.1491 -0.9291 -0.0704
  343MOL0     C46189   7.795   2.503  11.073 -0.7837 -0.0546  0.2915
  343MOL0     C46190   7.650   2.474  11.027 -0.0327 -1.1493  0.1930
  343MOL0     C46191   7.603   2.338  11.096  0.2969  0.3367  0.2032
  343MOL0     C46192   7.615   2.348  11.248 -0.9065  0.5009 -1.3645
  343MOL0     C46193   7.484   2.362  11.324  0.3334 -0.3784  0.5324
  343MOL0     O46194   7.446   2.240  11.396 -0.0745  0.6370 -0.5147
  343MOL0     C46195   7.330   2.183  11.349  0.8164 -0.4884  1.0665
  343MOL0     C46196   7.198   2.232  11.374 -0.3227  0.0877  0.2164
  343MOL0     C46197   7.094   2.194  11.289  0.0849  0.4768  0.6519
  343MOL0     C46198   6.961   2.261  11.328  0.1925 -0.5920  0.2576
  343MOL0     C46199   7.113   2.095  11.192 -1.2305  0.0805  0.6094
  343MOL0     C46200   6.999   2.036  11.105 -0.4325  0.0533 -0.0291
  343MOL0     O46201   7.036   1.925  11.034  0.5531  0.1348 -0.0927
  343MOL0     C46202   6.950   1.877  10.937 -0.6636  0.1651 -0.2868
  343MOL0     C46203   6.943   1.937  10.816  0.5175 -0.5832 -0.8363
  343MOL0     C46204   6.845   1.890  10.721 -0.0324 -0.7537  0.5065
  343MOL0     C46205   6.752   1.792  10.754 -0.3616  0.9768 -0.1401
  343MOL0     O46206   6.658   1.741  10.669  0.3006  0.2326 -0.2642
  343MOL0     C46207   6.587   1.836  10.587  0.3334 -0.4119 -0.5043
  343MOL0     C46208   6.467   1.755  10.523 -0.2520  0.9992  1.1323
  343MOL0     C46209   6.372   1.677  10.623  0.3402 -0.8958  0.2681
  343MOL0     C46210   6.287   1.576  10.542  0.1497 -0.4630 -0.5538
  343MOL0     C46211   6.156   1.630  10.488  0.7170 -0.7786 -0.3313
  343MOL0     C46212   6.076   1.526  10.410 -0.6682  0.7103 -0.4539
  343MOL0     C46213   5.940   1.573  10.354  0.6227  1.0015 -0.1785
  343MOL0     C46214   5.868   1.464  10.281 -0.2706  0.7054  0.8367
  343MOL0    Cl46215   5.728   1.541  10.196 -0.4165  0.4036 -0.4178
  343MOL0     C46216   6.764   1.731  10.878  0.3766 -0.2333  0.2632
  343MOL0     C46217   6.859   1.776  10.968  0.0631  0.1682 -0.2380
  343MOL0     O46218   6.895   2.102  11.093  0.1010  0.4887  0.2265
  343MOL0     C46219   7.246   2.039  11.188  0.1639  0.8188 -0.5871
  343MOL0     C46220   7.349   2.078  11.260  0.6059  0.4990  1.3691
  343MOL0     N46221   7.841   2.588  11.178 -0.0351  0.3135  0.1582
  343MOL0     N46222   7.971   2.562  11.190 -1.2057 -0.4052  0.8042
  343MOL0     C46223   8.776   3.343  10.817  0.2325 -0.0157  0.6334
  343MOL0     C46224   8.806   3.442  10.728  0.2934 -0.1920 -0.5352
  343MOL0     C46225   8.850   3.645  10.307 -0.6175 -0.2591  0.3795
  343MOL0     C46226   8.988   3.678  10.301 -0.0624 -0.1424 -0.0081
  343MOL0     C46227   9.026   3.772  10.201 -0.3636 -0.1932  0.0759
  343MOL0     C46228   8.940   3.835  10.107 -1.0671  0.0847 -0.2696
  343MOL0     O46229   8.977   3.919  10.007 -1.3199 -0.8055 -0.1511
  343MOL0     C46230   9.110   3.980  10.017 -0.0656  0.2158  0.2344
  343MOL0     C46231   9.124   4.079   9.904 -0.0788  0.0600  0.4008
  343MOL0     C46232   9.070   4.041   9.767  0.4716  0.4880  0.2757
  343MOL0     C46233   9.113   4.132   9.656 -0.6692 -0.3529 -0.0738
  343MOL0     C46234   9.059   4.277   9.686  0.6581 -0.4341  0.2720
  343MOL0     C46235   9.016   4.392   9.708 -0.0546 -0.6118  0.7032
  343MOL0     C46236   8.805   3.810  10.122  1.0543  0.6849 -0.0260
  343MOL0     C46237   8.757   3.708  10.217  0.2890 -1.0111  0.1413
  343MOL0     H46238   8.859   3.242  10.459 -2.2415  3.1601 -1.1873
  343MOL0     H46239   8.814   3.077  10.619  1.7101  1.3041 -2.1190
  343MOL0     H46240   8.603   2.993  10.820 -1.2743 -3.2973  1.2777
  343MOL0     H46241   8.768   2.938  10.821 -0.2707  1.1574 -1.5530
  343MOL0     H46242   8.744   2.936  11.083  0.2357 -0.9923  0.1324
  343MOL0     H46243   8.580   2.978  11.062 -0.8749 -0.8708 -1.2866
  343MOL0     H46244   8.644   2.736  10.889  0.2431 -1.8042  0.9211
  343MOL0     H46245   8.650   2.739  11.079  0.7569  0.5116 -0.3670
  343MOL0     H46246   8.422   2.817  11.071  0.1371  2.5652 -0.7615
  343MOL0     H46247   8.428   2.822  10.890 -0.0725 -3.2055 -1.0788
  343MOL0     H46248   8.422   2.604  10.855  0.1862 -1.2072 -0.5396
  343MOL0     H46249   8.475   2.557  11.020  1.0910  0.1368 -1.9719
  343MOL0     H46250   8.247   2.638  11.108  0.3994 -2.8061  0.3611
  343MOL0     H46251   8.203   2.679  10.951 -1.3130  2.4733  3.3819
  343MOL0     H46252   8.171   2.446  10.874 -0.9434 -1.8045  0.8111
  343MOL0     H46253   8.315   2.402  10.963  0.4432  0.7752 -1.6475
  343MOL0     H46254   8.177   2.404  11.174 -0.2296  0.9767 -0.5443
  343MOL0     H46255   8.094   2.296  11.061 -2.1960  1.3989  1.6521
  343MOL0     H46256   7.901   2.369  10.935  1.6839  1.4197 -2.0644
  343MOL0     H46257   7.577   2.555  11.041 -1.0042 -1.4982 -2.3850
  343MOL0     H46258   7.657   2.464  10.919 -0.4361 -1.1052  0.1576
  343MOL0     H46259   7.674   2.262  11.060 -0.4453 -1.0842  1.5886
  343MOL0     H46260   7.500   2.320  11.063 -0.6498  1.7923  2.1612
  343MOL0     H46261   7.670   2.438  11.276  3.6283 -1.6841 -2.2176
  343MOL0     H46262   7.679   2.272  11.294 -2.1903  0.0485 -0.2875
  343MOL0     H46263   7.403   2.376  11.251 -1.4431 -1.2929  2.2141
  343MOL0     H46264   7.489   2.446  11.394  0.0777  0.7192 -0.7158
  343MOL0     H46265   7.183   2.308  11.450 -0.8897  0.9427 -0.7254
  343MOL0     H46266   6.931   2.341  11.259 -0.8821 -1.5146 -0.3794
  343MOL0     H46267   6.878   2.190  11.333  1.8382 -2.6051  0.3970
  343MOL0     H46268   6.967   2.307  11.427 -0.9552 -1.0729  0.5641
  343MOL0     H46269   7.020   2.004  10.777  0.5213  0.2867  0.5982
  343MOL0     H46270   6.850   1.948  10.629  1.1618 -1.0478  0.3691
  343MOL0     H46271   6.551   1.923  10.644  1.0511 -0.6181  0.2755
  343MOL0     H46272   6.651   1.876  10.508 -0.2050 -1.2929 -1.4112
  343MOL0     H46273   6.426   1.831  10.456  3.1881  2.2291  0.2160
  343MOL0     H46274   6.505   1.680  10.453 -1.2755 -0.7090  2.3166
  343MOL0     H46275   6.321   1.747  10.689  1.9158  0.4708  0.1048
  343MOL0     H46276   6.439   1.620  10.688  2.0759  2.1263  1.2698
  343MOL0     H46277   6.346   1.530  10.462  0.6362 -2.6825  1.0087
  343MOL0     H46278   6.265   1.491  10.607  0.2798  0.4017  0.6651
  343MOL0     H46279   6.168   1.723  10.431  0.8752 -0.5366  0.0960
  343MOL0     H46280   6.096   1.650  10.577  0.4386  1.2816 -0.9265
  343MOL0     H46281   6.142   1.489  10.331  2.6468  2.3052  1.3396
  343MOL0     H46282   6.062   1.453  10.490  0.9900 -1.4415 -2.0252
  343MOL0     H46283   5.953   1.657  10.286 -1.3834  0.6679 -1.0325
  343MOL0     H46284   5.869   1.607  10.430  0.9305 -1.3287  1.2567
  343MOL0     H46285   5.829   1.391  10.353 -0.7122 -1.5653 -1.5500
  343MOL0     H46286   5.935   1.408  10.215 -1.7127 -0.0520 -0.0418
  343MOL0     H46287   6.698   1.649  10.903 -1.4992  0.4675 -2.0297
  343MOL0     H46288   6.869   1.734  11.067 -1.2338  0.3359 -0.0136
  343MOL0     H46289   7.274   1.951  11.131 -1.4498  0.2014 -0.4749
  343MOL0     H46290   7.448   2.034  11.271  0.8020 -0.1160 -1.7560
  343MOL0     H46291   8.759   3.367  10.922  2.0174 -1.9937  1.4487
  343MOL0     H46292   8.822   3.542  10.768  1.6619 -0.3742 -0.5839
  343MOL0     H46293   9.055   3.641  10.379 -0.9048  0.7743  1.1861
  343MOL0     H46294   9.133   3.790  10.200 -0.4144  0.3041  1.3033
  343MOL0     H46295   9.115   4.041  10.108  1.2677 -1.8497  1.6288
  343MOL0     H46296   9.190   3.906  10.018  0.3901  0.5846 -2.3589
  343MOL0     H46297   9.233   4.087   9.905  0.1047 -1.7272 -0.8377
  343MOL0     H46298   9.078   4.173   9.937  1.4319  1.3039 -0.8277
  343MOL0     H46299   8.962   4.050   9.770  0.5513  1.3454  0.8652
  343MOL0     H46300   9.103   3.939   9.743 -2.2799 -0.6209  0.8117
  343MOL0     H46301   9.087   4.082   9.562  2.2236  0.8499 -1.6109
  343MOL0     H46302   9.220   4.152   9.663 -0.9663  1.1389  0.5025
  343MOL0     H46303   8.975   4.489   9.725 -0.0568 -0.1187 -1.7662
  343MOL0     H46304   8.738   3.857  10.051  0.8341  0.2690 -0.0978
  343MOL0     H46305   8.650   3.693  10.227  0.2002 -1.4701 -1.2064
  344MOL0     O46306   5.664   1.106   6.976  0.0861  0.0956  0.0263
  344MOL0     C46307   5.670   1.200   7.055 -0.1414 -0.0354  1.4129
  344MOL0     O46308   5.680   1.334   7.016 -0.4735  0.7029  0.3908
  344MOL0     C46309   5.688   1.380   6.885  0.8690  0.4818  0.1900
  344MOL0     C46310   5.710   1.516   6.869  0.4144 -0.0162 -0.1261
  344MOL0     C46311   5.746   1.573   6.741 -0.0878 -0.4606  0.1083
  344MOL0     C46312   5.753   1.495   6.632  0.3496 -0.5251 -0.9795
  344MOL0     O46313   5.775   1.547   6.509  0.3324  0.2378  0.3085
  344MOL0     C46314   5.788   1.462   6.395 -0.2499 -0.1857  0.1781
  344MOL0     C46315   5.810   1.555   6.275 -0.0248 -1.0190  0.5953
  344MOL0     C46316   5.843   1.472   6.167  1.0977  0.0414  0.8536
  344MOL0     C46317   5.733   1.446   6.059 -0.0827  0.6235 -0.0297
  344MOL0     C46318   5.600   1.395   6.106 -0.0317  0.1234 -0.3405
  344MOL0     C46319   5.500   1.374   5.996  0.8161  0.0263 -0.7776
  344MOL0     C46320   5.349   1.378   6.064 -0.1415 -0.3443 -0.9249
  344MOL0     C46321   5.247   1.313   5.969 -1.2215 -0.4133  0.0799
  344MOL0     N46322   5.257   1.376   5.837  0.0525  0.5358  0.3443
  344MOL0     C46323   5.350   1.342   5.741 -0.5846 -0.0260  0.5758
  344MOL0     C46324   5.342   1.447   5.649  0.1024 -0.7510 -1.4313
  344MOL0     C46325   5.433   1.484   5.537  0.0720  1.1712 -0.2389
  344MOL0     C46326   5.373   1.425   5.403 -0.5332 -1.1790 -0.7462
  344MOL0     C46327   5.258   1.517   5.355  1.5581 -0.1154  0.1283
  344MOL0     C46328   5.248   1.544   5.210  0.5840 -0.2450  1.7717
  344MOL0     O46329   5.244   1.420   5.141 -0.0651 -0.3048  0.2999
  344MOL0     C46330   5.122   1.369   5.097  0.0868  0.5954 -0.9367
  344MOL0     C46331   5.073   1.252   5.161 -0.1320 -0.0560  0.8915
  344MOL0     C46332   4.950   1.192   5.118  0.5030 -0.3870  1.0957
  344MOL0     C46333   4.909   1.056   5.174 -0.5213  0.2824 -0.1591
  344MOL0     C46334   4.873   1.256   5.021 -0.2599  0.1522 -0.1711
  344MOL0     C46335   4.730   1.217   4.995  1.0294  0.3074 -0.3115
  344MOL0     O46336   4.675   1.259   4.877  0.6833  0.1252  0.9057
  344MOL0     C46337   4.551   1.212   4.826  0.0869  1.0235 -0.0180
  344MOL0     C46338   4.459   1.130   4.895 -0.4964  0.1310 -0.5210
  344MOL0     C46339   4.323   1.130   4.849 -1.0580  0.1718 -0.0942
  344MOL0     C46340   4.281   1.194   4.725  0.7001 -0.4408  0.5861
  344MOL0     O46341   4.146   1.210   4.687 -0.4845  0.4192 -1.0493
  344MOL0     C46342   4.059   1.109   4.739  0.3485 -0.2300 -0.1746
  344MOL0     C46343   3.918   1.132   4.691  0.3684  0.4143  0.9794
  344MOL0     C46344   3.836   1.005   4.688 -0.4660 -0.1119 -0.3735
  344MOL0     C46345   3.819   0.943   4.831 -0.6774 -0.2430  0.4331
  344MOL0     C46346   3.765   0.799   4.841  0.0991 -0.0973  1.2674
  344MOL0     C46347   3.609   0.782   4.867 -0.7580  1.0142 -0.6113
  344MOL0     C46348   3.570   0.632   4.883  0.2756  0.1167  0.1412
  344MOL0     C46349   3.582   0.603   5.034  0.3840 -0.3998 -0.3564
  344MOL0    Cl46350   3.505   0.446   5.053 -0.4698  0.0464 -0.1006
  344MOL0     C46351   4.377   1.264   4.652 -0.3292  0.1783  0.4047
  344MOL0     C46352   4.515   1.260   4.699  0.3434 -0.3574 -0.7634
  344MOL0     O46353   4.674   1.171   5.091  0.3270  0.8349 -0.9034
  344MOL0     C46354   4.928   1.372   4.961  0.3528 -0.9896 -0.7204
  344MOL0     C46355   5.048   1.428   5.000  0.1786  0.1141  0.5861
  344MOL0     N46356   5.242   1.529   5.701 -0.3658 -0.0562 -0.1489
  344MOL0     N46357   5.182   1.477   5.806 -0.5073 -1.2670  0.4200
  344MOL0     C46358   5.731   1.353   6.649  0.3571  0.6030  0.0188
  344MOL0     C46359   5.706   1.294   6.773 -0.9456  1.2723  1.3994
  344MOL0     C46360   5.663   1.174   7.194 -0.3258  0.3071  0.3180
  344MOL0     C46361   5.552   1.097   7.237  0.6925 -0.3486  0.4611
  344MOL0     C46362   5.554   1.055   7.373  0.0559 -0.2791  1.0703
  344MOL0     C46363   5.660   1.095   7.460  1.0943 -1.0077 -0.9282
  344MOL0     O46364   5.631   1.050   7.589 -1.1551  0.3190  0.3178
  344MOL0     C46365   5.707   1.100   7.699 -0.2541 -0.0164  0.1722
  344MOL0     C46366   5.642   1.234   7.744  0.0006  0.3360  0.2020
  344MOL0     C46367   5.525   1.203   7.837  0.8342  0.1441  0.2869
  344MOL0     C46368   5.386   1.172   7.770 -1.3941 -0.5527  0.6215
  344MOL0     C46369   5.294   1.156   7.882  0.3848  0.7461 -0.2039
  344MOL0     C46370   5.216   1.109   7.966 -0.4148  0.5967  0.2238
  344MOL0     C46371   5.768   1.179   7.418  0.4139 -1.0787 -0.3290
  344MOL0     C46372   5.768   1.208   7.280 -0.1789  0.2712 -0.2164
  344MOL0     H46373   5.711   1.579   6.958 -3.9527  0.3451 -0.1097
  344MOL0     H46374   5.772   1.677   6.724 -1.2239 -0.3082 -0.8461
  344MOL0     H46375   5.875   1.396   6.405 -0.1809 -0.6376 -2.4862
  344MOL0     H46376   5.697   1.407   6.370 -1.4118  0.8034  2.0430
  344MOL0     H46377   5.723   1.622   6.265  0.8821  0.0556 -0.3462
  344MOL0     H46378   5.896   1.611   6.312  2.4542 -3.0596 -1.6938
  344MOL0     H46379   5.920   1.522   6.107 -2.4938  0.6031 -3.8276
  344MOL0     H46380   5.895   1.380   6.198  0.2489 -1.8641 -2.8012
  344MOL0     H46381   5.715   1.535   5.998  0.7870  3.2944  3.3433
  344MOL0     H46382   5.782   1.371   5.995  0.3395  3.5814 -3.4925
  344MOL0     H46383   5.609   1.307   6.171  2.2183  0.2049 -0.4552
  344MOL0     H46384   5.564   1.466   6.181  1.9435  0.2586  0.5379
  344MOL0     H46385   5.513   1.451   5.919  0.5297  0.9433  0.0568
  344MOL0     H46386   5.528   1.279   5.951 -0.0652 -0.0989 -1.0835
  344MOL0     H46387   5.348   1.320   6.157  1.4042 -0.3238 -0.8716
  344MOL0     H46388   5.313   1.480   6.078  0.0551 -0.0482 -2.4124
  344MOL0     H46389   5.144   1.330   6.004 -1.6597  1.7612 -1.9451
  344MOL0     H46390   5.271   1.207   5.963 -1.5415 -0.4719 -0.1844
  344MOL0     H46391   5.412   1.254   5.734 -1.0943 -0.5408  2.1576
  344MOL0     H46392   5.451   1.591   5.523 -1.1832  1.4714  0.3203
  344MOL0     H46393   5.535   1.446   5.551  0.0711  1.6553  1.2441
  344MOL0     H46394   5.332   1.327   5.427 -1.5671 -0.7777 -0.8419
  344MOL0     H46395   5.438   1.399   5.319 -0.0675  0.3456 -0.9012
  344MOL0     H46396   5.247   1.607   5.416 -0.4654 -0.3833  0.2318
  344MOL0     H46397   5.167   1.465   5.384  1.1526 -1.4714 -3.1438
  344MOL0     H46398   5.319   1.604   5.153 -0.8808 -0.5422 -0.4855
  344MOL0     H46399   5.149   1.586   5.190  0.2657 -2.4928 -2.5625
  344MOL0     H46400   5.140   1.216   5.238  0.0895  0.8359  1.1281
  344MOL0     H46401   4.843   1.059   5.262  2.0861 -2.7867  2.1660
  344MOL0     H46402   4.855   0.995   5.101 -1.3386 -1.7839  2.0265
  344MOL0     H46403   4.996   0.999   5.207 -2.5195 -1.2094  3.1476
  344MOL0     H46404   4.477   1.084   4.992  0.0369  0.5137 -0.4307
  344MOL0     H46405   4.246   1.085   4.911 -0.2374 -1.4395 -0.2031
  344MOL0     H46406   4.100   1.009   4.723  2.4070  0.2595  1.5815
  344MOL0     H46407   4.041   1.113   4.846  0.3256  0.8308 -0.2052
  344MOL0     H46408   3.872   1.219   4.739 -0.3081 -1.9940  5.1533
  344MOL0     H46409   3.932   1.158   4.586 -0.6692  0.1754  0.7698
  344MOL0     H46410   3.882   0.932   4.621 -0.2312  0.2952 -0.6568
  344MOL0     H46411   3.735   1.022   4.648  0.5799 -3.0992 -5.0046
  344MOL0     H46412   3.913   0.943   4.886 -2.3181  2.4707  3.6215
  344MOL0     H46413   3.741   1.001   4.881 -2.3292 -0.2839 -1.9477
  344MOL0     H46414   3.814   0.748   4.924 -2.5736 -0.5963  2.6309
  344MOL0     H46415   3.801   0.745   4.752 -1.2810 -0.2744  0.7953
  344MOL0     H46416   3.561   0.830   4.952  1.2423 -0.0539  1.2089
  344MOL0     H46417   3.569   0.811   4.769  1.0446 -1.8055 -2.3666
  344MOL0     H46418   3.635   0.564   4.827  0.6247  2.3974 -2.3898
  344MOL0     H46419   3.468   0.621   4.844  0.5717 -3.2470  0.0390
  344MOL0     H46420   3.530   0.674   5.099 -0.7815 -0.0112 -1.6610
  344MOL0     H46421   3.685   0.601   5.070 -0.2646 -0.7500  1.6095
  344MOL0     H46422   4.354   1.330   4.569 -0.5947  0.5656  0.7788
  344MOL0     H46423   4.583   1.321   4.640  0.7461 -0.2106 -0.1554
  344MOL0     H46424   4.879   1.413   4.873  1.4237 -0.8203 -1.2606
  344MOL0     H46425   5.094   1.522   4.969 -0.4766  1.1227  2.5129
  344MOL0     H46426   5.744   1.283   6.567 -1.7130 -2.4473  2.0597
  344MOL0     H46427   5.699   1.185   6.777  4.7726  0.6133  2.6619
  344MOL0     H46428   5.472   1.079   7.166  2.0686 -1.8409 -0.7957
  344MOL0     H46429   5.467   1.007   7.415 -1.4366  1.1299 -0.2771
  344MOL0     H46430   5.714   1.028   7.781  0.6413 -0.9905 -0.7378
  344MOL0     H46431   5.808   1.115   7.660 -0.1279  0.1923  0.5735
  344MOL0     H46432   5.603   1.289   7.659  0.8795 -0.4813 -0.7542
  344MOL0     H46433   5.710   1.305   7.793 -1.4236  1.4439  0.6519
  344MOL0     H46434   5.515   1.289   7.903 -0.2110  0.4440 -0.2412
  344MOL0     H46435   5.557   1.119   7.900  1.5883  1.4680  1.7237
  344MOL0     H46436   5.384   1.082   7.707  2.5067 -1.1876  1.1235
  344MOL0     H46437   5.366   1.264   7.714  1.5721  0.6849  1.3645
  344MOL0     H46438   5.136   1.066   8.022 -0.9002  0.1412 -0.7966
  344MOL0     H46439   5.839   1.212   7.493 -1.0270 -1.0563  1.0789
  344MOL0     H46440   5.846   1.272   7.241 -0.9971  1.3137 -0.1763
  345MOL0     O46441   8.840   6.534   7.490  0.5197  0.2970  0.6804
  345MOL0     C46442   8.941   6.480   7.442  0.0844  0.2798 -0.6425
  345MOL0     O46443   9.071   6.518   7.467  0.1994 -0.4187 -0.2153
  345MOL0     C46444   9.086   6.632   7.546  0.7281  0.0212  0.2133
  345MOL0     C46445   9.024   6.650   7.675  0.8653  0.5196  0.2279
  345MOL0     C46446   9.041   6.773   7.750  0.8317 -0.0467 -0.3971
  345MOL0     C46447   9.130   6.868   7.692  0.4505  0.0094  0.0184
  345MOL0     O46448   9.139   6.996   7.761 -0.4419  0.0705  0.1237
  345MOL0     C46449   9.192   7.104   7.680 -0.5165 -0.6002  0.3362
  345MOL0     C46450   9.190   7.240   7.758 -0.9048 -1.3745 -1.5489
  345MOL0     C46451   9.054   7.289   7.809 -0.4437 -0.8915  0.6705
  345MOL0     C46452   9.064   7.438   7.854  0.3968  0.8833  0.3201
  345MOL0     C46453   9.097   7.463   8.005 -0.2092 -0.9169  0.7656
  345MOL0     C46454   9.136   7.605   8.016 -0.5743 -0.5243 -0.2719
  345MOL0     C46455   9.172   7.636   8.166  0.2831  0.1973 -0.4568
  345MOL0     C46456   9.160   7.782   8.203  0.7264  0.0036  0.1005
  345MOL0     N46457   9.271   7.838   8.279  0.7880 -0.0648  0.4563
  345MOL0     C46458   9.287   7.835   8.418  0.5450 -0.1037 -0.4472
  345MOL0     C46459   9.425   7.849   8.432 -0.0433 -0.8963  0.6705
  345MOL0     C46460   9.505   7.839   8.560  0.0192 -0.2801  0.5015
  345MOL0     C46461   9.453   7.951   8.662  0.0426  0.0363  0.5892
  345MOL0     C46462   9.561   7.952   8.772  0.3223  1.4725  0.9773
  345MOL0     C46463   9.540   8.059   8.885  0.2917 -1.0913 -0.4882
  345MOL0     O46464   9.547   8.186   8.822  0.1722  0.4310  0.2145
  345MOL0     C46465   9.640   8.279   8.868 -0.1509  0.5983  0.1065
  345MOL0     C46466   9.674   8.381   8.784  0.9395  1.0385 -0.1943
  345MOL0     C46467   9.775   8.471   8.811  0.8684 -0.4737 -1.5027
  345MOL0     C46468   9.818   8.554   8.697  1.1774 -0.0325 -0.1577
  345MOL0     C46469   9.826   8.478   8.938 -0.7424  0.0800  0.1064
  345MOL0     C46470   9.930   8.578   8.984  0.4484  0.1360 -0.3780
  345MOL0     O46471   9.923   8.632   9.107 -0.4166  0.5073  0.3574
  345MOL0     C46472   9.992   8.740   9.148 -0.8214  0.6909  0.7963
  345MOL0     C46473  10.043   8.744   9.276 -0.4752 -0.3940  0.0429
  345MOL0     C46474  10.107   8.857   9.318  0.2360  0.5937 -0.2673
  345MOL0     C46475  10.130   8.962   9.231  0.7543  0.0609 -0.3931
  345MOL0     O46476  10.198   9.079   9.265 -0.2582  0.0464 -0.5329
  345MOL0     C46477  10.198   9.128   9.396 -0.1614  0.4037 -0.3779
  345MOL0     C46478  10.258   9.262   9.402  1.3999  0.6941 -0.2929
  345MOL0     C46479  10.257   9.326   9.554 -0.3726 -0.6247  0.3266
  345MOL0     C46480  10.296   9.477   9.558 -0.1029 -0.1450  0.5431
  345MOL0     C46481  10.244   9.533   9.692  0.3246 -0.4192  1.2289
  345MOL0     C46482  10.278   9.689   9.696 -0.5037 -0.6023  0.1855
  345MOL0     C46483  10.196   9.752   9.805 -0.1720  0.4013  0.1143
  345MOL0     C46484  10.185   9.907   9.802 -0.1921 -0.0104 -0.2351
  345MOL0    Cl46485  10.084   9.953   9.939  0.2384 -0.8551  0.0483
  345MOL0     C46486  10.094   8.949   9.099 -0.0703  0.4277 -0.0018
  345MOL0     C46487  10.019   8.842   9.057  0.5640  0.1684 -0.5258
  345MOL0     O46488  10.030   8.581   8.916 -0.3528 -0.6813  0.4986
  345MOL0     C46489   9.784   8.384   9.032  0.1590  0.1057 -0.5148
  345MOL0     C46490   9.689   8.285   9.000 -0.5842 -0.5767  0.1524
  345MOL0     N46491   9.488   7.898   8.313 -0.0540  0.1611 -0.2509
  345MOL0     N46492   9.385   7.897   8.230  0.7348 -0.1307  0.1619
  345MOL0     C46493   9.191   6.841   7.565  0.3678 -0.1103 -0.2844
  345MOL0     C46494   9.176   6.725   7.499 -0.3432 -0.1172 -0.0971
  345MOL0     C46495   8.924   6.368   7.353 -0.2206  0.2026  0.0078
  345MOL0     C46496   9.027   6.328   7.266 -0.6933 -0.3797  0.0258
  345MOL0     C46497   9.014   6.225   7.174 -0.7682  1.6735  1.2254
  345MOL0     C46498   8.895   6.156   7.166 -0.3790 -0.2989 -0.5392
  345MOL0     O46499   8.866   6.047   7.076  0.0631 -0.5063 -0.3980
  345MOL0     C46500   8.965   6.009   6.982 -0.6507 -0.2289 -1.0701
  345MOL0     C46501   8.907   5.935   6.866  0.4210  0.7040  0.0735
  345MOL0     C46502   8.816   6.034   6.788 -0.3434  0.2518  0.7166
  345MOL0     C46503   8.699   5.967   6.714 -0.2393 -0.3022 -0.0039
  345MOL0     C46504   8.652   6.053   6.608 -0.7296  0.0006  1.1619
  345MOL0     C46505   8.639   6.116   6.504  0.1844  0.0982 -0.3228
  345MOL0     C46506   8.790   6.193   7.256 -0.3016 -0.2776  0.7482
  345MOL0     C46507   8.808   6.292   7.349 -0.5903 -0.4520  0.3148
  345MOL0     H46508   8.953   6.571   7.698  0.1467  0.8526 -0.7657
  345MOL0     H46509   8.993   6.780   7.847  1.0175 -3.4399  0.0939
  345MOL0     H46510   9.299   7.087   7.665 -0.4951  0.9141 -1.6782
  345MOL0     H46511   9.147   7.118   7.581  0.9031  2.0329 -0.0409
  345MOL0     H46512   9.251   7.231   7.848  0.2615 -2.7302 -2.4257
  345MOL0     H46513   9.239   7.316   7.697 -1.1760  2.9438  2.9612
  345MOL0     H46514   8.984   7.283   7.725  0.9431  2.1640 -0.8449
  345MOL0     H46515   9.016   7.221   7.887  0.0463 -0.9014  0.9040
  345MOL0     H46516   9.142   7.475   7.787  2.1901 -0.1664  1.7414
  345MOL0     H46517   8.970   7.483   7.819 -2.0571 -0.4106  4.5466
  345MOL0     H46518   9.010   7.440   8.066 -1.0213  0.9751  0.4004
  345MOL0     H46519   9.181   7.399   8.030  2.5469  1.3092 -1.9328
  345MOL0     H46520   9.226   7.632   7.960 -0.4618 -0.9341 -0.2899
  345MOL0     H46521   9.063   7.673   7.971 -0.5757 -0.9470 -0.9222
  345MOL0     H46522   9.105   7.582   8.233 -0.1438  0.8366 -0.3607
  345MOL0     H46523   9.273   7.605   8.193  0.8357  2.9874  1.1181
  345MOL0     H46524   9.071   7.803   8.263 -0.0179  0.5866 -1.1501
  345MOL0     H46525   9.139   7.844   8.115  1.1456 -0.9880 -0.7271
  345MOL0     H46526   9.216   7.802   8.493  0.1553  1.9963  0.1697
  345MOL0     H46527   9.480   7.740   8.600  2.2885 -1.5492 -1.0073
  345MOL0     H46528   9.611   7.848   8.535  0.0557 -1.5945  0.0906
  345MOL0     H46529   9.354   7.924   8.699  0.7752 -4.4637 -0.1900
  345MOL0     H46530   9.442   8.042   8.602  3.1560  1.8536  2.5126
  345MOL0     H46531   9.656   7.954   8.718 -1.7556  0.2539 -3.1192
  345MOL0     H46532   9.563   7.849   8.810  2.1199 -0.4577 -3.6562
  345MOL0     H46533   9.616   8.049   8.964 -0.9056 -2.2558  0.5556
  345MOL0     H46534   9.439   8.045   8.924 -0.5123 -1.4187 -2.5749
  345MOL0     H46535   9.650   8.354   8.682  2.0170 -0.6365 -0.0393
  345MOL0     H46536   9.927   8.564   8.700  1.3058 -1.4334  1.8869
  345MOL0     H46537   9.792   8.505   8.603 -2.5887 -1.5292  1.4844
  345MOL0     H46538   9.777   8.656   8.700  5.7418  2.0324  0.7165
  345MOL0     H46539  10.032   8.655   9.337  0.4166 -1.4272 -1.2583
  345MOL0     H46540  10.148   8.857   9.419 -3.5046 -0.5657  1.4472
  345MOL0     H46541  10.095   9.124   9.433  0.9416 -0.9625  2.8925
  345MOL0     H46542  10.251   9.068   9.470  0.5528 -1.1899 -2.0890
  345MOL0     H46543  10.362   9.261   9.368  1.4856 -1.7180 -0.1189
  345MOL0     H46544  10.194   9.328   9.343  0.7136 -0.2399 -0.6165
  345MOL0     H46545  10.342   9.289   9.612  1.1336  2.0348  0.0180
  345MOL0     H46546  10.165   9.282   9.593 -1.3155 -0.1068 -1.2544
  345MOL0     H46547  10.402   9.502   9.555 -0.1061 -0.1779  0.0650
  345MOL0     H46548  10.245   9.540   9.484 -1.6602  0.2583  1.8891
  345MOL0     H46549  10.293   9.486   9.778  0.1314 -1.6498  0.6886
  345MOL0     H46550  10.135   9.522   9.692  0.1015  0.6522 -2.0255
  345MOL0     H46551  10.383   9.695   9.726 -0.2587 -0.2218 -0.7180
  345MOL0     H46552  10.256   9.742   9.603  1.9466  0.0100 -0.0942
  345MOL0     H46553  10.222   9.724   9.907 -4.0000  3.7632  2.3211
  345MOL0     H46554  10.096   9.710   9.797  0.5551 -1.1524 -1.7947
  345MOL0     H46555  10.137   9.942   9.709  0.4812 -0.8672 -0.9235
  345MOL0     H46556  10.283   9.954   9.806 -0.2112 -0.0235  0.4687
  345MOL0     H46557  10.117   9.025   9.025  1.1673  0.2675  0.2058
  345MOL0     H46558   9.969   8.832   8.961 -0.3251 -0.8016  0.0151
  345MOL0     H46559   9.830   8.401   9.129  2.8692  1.2470 -1.8785
  345MOL0     H46560   9.645   8.228   9.081  1.2094  0.6100  2.0679
  345MOL0     H46561   9.255   6.919   7.524  1.5308  1.4836  3.9733
  345MOL0     H46562   9.214   6.718   7.397 -1.3638 -1.1171 -0.4359
  345MOL0     H46563   9.116   6.388   7.279 -1.9488  1.3009  1.1723
  345MOL0     H46564   9.094   6.169   7.125 -1.2618  2.5634 -0.7155
  345MOL0     H46565   9.029   6.091   6.949 -0.1298  1.2390  3.0790
  345MOL0     H46566   9.026   5.935   7.035 -1.1885 -0.1166 -0.2767
  345MOL0     H46567   8.831   5.860   6.890  1.3996 -0.8735 -1.5483
  345MOL0     H46568   8.978   5.881   6.803  0.8885  1.4216 -0.0289
  345MOL0     H46569   8.879   6.095   6.722 -1.8082  2.3572  1.1597
  345MOL0     H46570   8.776   6.111   6.855  0.7864 -0.1605  1.9037
  345MOL0     H46571   8.616   5.955   6.785 -0.0713  2.2240  0.7438
  345MOL0     H46572   8.739   5.872   6.678 -0.0295 -0.2576  0.1099
  345MOL0     H46573   8.646   6.170   6.411  1.0839 -2.5940 -1.9138
  345MOL0     H46574   8.690   6.150   7.260 -0.8606  1.0445  2.7401
  345MOL0     H46575   8.718   6.302   7.410 -1.6339  0.9148 -1.3600
  346MOL0     O46576   6.762   6.599   9.950 -0.5052 -0.5539  1.0280
  346MOL0     C46577   6.763   6.598  10.074 -0.5032 -0.0180 -0.6080
  346MOL0     O46578   6.655   6.583  10.161  0.0523 -0.2946 -0.2384
  346MOL0     C46579   6.529   6.534  10.126  0.1490 -0.1100  0.5064
  346MOL0     C46580   6.487   6.501  10.000  0.2484  0.5610  0.2891
  346MOL0     C46581   6.361   6.466   9.969 -0.0680  0.0467  0.7665
  346MOL0     C46582   6.260   6.469  10.067  0.5629  1.0776  0.5896
  346MOL0     O46583   6.134   6.437  10.033 -0.1488 -0.1218  0.7413
  346MOL0     C46584   6.092   6.299  10.031 -0.6137  0.5115 -0.2736
  346MOL0     C46585   6.154   6.209   9.921  0.2636 -0.1010 -0.0425
  346MOL0     C46586   6.115   6.250   9.775 -0.4675 -0.9780 -1.1946
  346MOL0     C46587   6.182   6.165   9.676 -0.5092 -0.5627  0.2876
  346MOL0     C46588   6.119   6.184   9.538  0.0692  0.1685 -0.2904
  346MOL0     C46589   6.162   6.073   9.440  0.3139  1.0370 -0.5647
  346MOL0     C46590   6.059   5.963   9.392 -0.2934 -0.7425  0.1789
  346MOL0     C46591   5.963   5.919   9.504  0.1386  0.4273  0.4131
  346MOL0     N46592   6.011   5.781   9.542  0.5786 -0.2044 -0.5376
  346MOL0     C46593   6.107   5.758   9.641 -0.0974  0.0029 -0.2712
  346MOL0     C46594   6.137   5.628   9.629  0.1409 -0.2029  0.5389
  346MOL0     C46595   6.224   5.527   9.693  0.3190 -0.6163 -0.3413
  346MOL0     C46596   6.292   5.580   9.826 -0.0999  0.2153 -0.5595
  346MOL0     C46597   6.191   5.599   9.941  0.5630  0.7533 -1.1102
  346MOL0     C46598   6.111   5.481   9.968  0.6377  1.3780  0.4010
  346MOL0     O46599   6.019   5.507  10.074 -0.6705  0.1427 -0.6151
  346MOL0     C46600   5.960   5.414  10.149 -0.2945  0.9775  0.9080
  346MOL0     C46601   5.971   5.276  10.139 -0.6652  0.2070 -0.8196
  346MOL0     C46602   5.911   5.192  10.233  0.4815 -0.2183 -0.8438
  346MOL0     C46603   5.938   5.045  10.247 -0.4765 -0.3536 -0.5956
  346MOL0     C46604   5.826   5.256  10.338  0.2620  0.6493 -0.6117
  346MOL0     C46605   5.736   5.188  10.440 -0.0180 -0.9891  0.1257
  346MOL0     O46606   5.756   5.240  10.561  0.0504 -0.4776 -0.3713
  346MOL0     C46607   5.715   5.169  10.670  0.8938  0.1559  0.0090
  346MOL0     C46608   5.789   5.057  10.708  0.2213  0.2647  0.7137
  346MOL0     C46609   5.740   4.964  10.798 -0.7464 -0.2386  0.1664
  346MOL0     C46610   5.617   4.989  10.872 -0.2339 -0.3483 -0.1201
  346MOL0     O46611   5.561   4.914  10.974  0.4426  0.7308 -0.0166
  346MOL0     C46612   5.635   4.806  11.038 -0.1416  0.6513 -0.3645
  346MOL0     C46613   5.538   4.718  11.123  0.8487  0.0462  0.0639
  346MOL0     C46614   5.528   4.780  11.263 -0.3861 -0.5881  0.7407
  346MOL0     C46615   5.404   4.871  11.283  0.2949  0.2243 -0.4941
  346MOL0     C46616   5.299   4.802  11.369  0.8132  0.5406 -0.2868
  346MOL0     C46617   5.160   4.847  11.345 -0.5615 -0.6513 -0.5405
  346MOL0     C46618   5.121   4.974  11.431  0.1002  0.3358 -0.7719
  346MOL0     C46619   4.969   5.007  11.410  0.3357  0.0011 -0.4731
  346MOL0    Cl46620   4.892   5.075  11.554 -0.0228  0.3159 -0.2648
  346MOL0     C46621   5.545   5.108  10.836 -1.4238  0.4934  0.1539
  346MOL0     C46622   5.592   5.186  10.729  0.4087  0.6637  0.0490
  346MOL0     O46623   5.674   5.082  10.425 -0.9011  0.0700  0.2339
  346MOL0     C46624   5.825   5.394  10.346  0.2698  0.2581 -0.6774
  346MOL0     C46625   5.888   5.469  10.256 -0.2447 -0.3539  0.2915
  346MOL0     N46626   6.054   5.577   9.526 -0.2316  0.0897  0.9033
  346MOL0     N46627   5.982   5.670   9.472 -0.2602  0.5622 -0.5568
  346MOL0     C46628   6.295   6.512  10.196  0.6515  0.4216 -0.5593
  346MOL0     C46629   6.429   6.542  10.225  0.7626  0.1872  0.7889
  346MOL0     C46630   6.894   6.600  10.140 -0.1120  0.0507  0.3760
  346MOL0     C46631   7.014   6.575  10.067 -0.3715  0.2204  0.3879
  346MOL0     C46632   7.130   6.571  10.129 -0.6901  0.3155 -0.1730
  346MOL0     C46633   7.143   6.587  10.264  1.6341 -0.0363 -0.7866
  346MOL0     O46634   7.274   6.598  10.306 -0.7944 -0.3540  0.2351
  346MOL0     C46635   7.287   6.586  10.452  0.7217 -0.3594  0.8884
  346MOL0     C46636   7.437   6.618  10.479  0.0283  0.4271 -0.9327
  346MOL0     C46637   7.483   6.754  10.503 -0.6640 -0.1049 -0.9001
  346MOL0     C46638   7.430   6.826  10.618  0.5093 -0.5621 -0.8607
  346MOL0     C46639   7.472   6.767  10.755  0.3749 -0.3981 -0.1357
  346MOL0     C46640   7.495   6.712  10.857  0.1130 -0.2317  0.1564
  346MOL0     C46641   7.023   6.622  10.336 -0.2492  0.3301 -0.9283
  346MOL0     C46642   6.899   6.617  10.279 -1.2112  0.4526  0.3772
  346MOL0     H46643   6.559   6.512   9.920  2.0435  0.5714  1.8289
  346MOL0     H46644   6.326   6.441   9.869 -4.5391  3.3152  1.2273
  346MOL0     H46645   6.128   6.255  10.125 -1.1135  0.4455 -0.1106
  346MOL0     H46646   5.983   6.293  10.023 -0.4179 -1.6830 -2.4075
  346MOL0     H46647   6.262   6.219   9.935 -0.0964  0.0549  3.5223
  346MOL0     H46648   6.124   6.108   9.951 -1.6552  0.8600  1.4967
  346MOL0     H46649   6.006   6.249   9.765 -0.6510 -1.1046  0.4899
  346MOL0     H46650   6.147   6.353   9.759 -2.2417 -0.4293 -1.3836
  346MOL0     H46651   6.289   6.186   9.672 -0.6016  0.6813  2.6908
  346MOL0     H46652   6.161   6.060   9.701 -0.2787 -0.5698  0.4534
  346MOL0     H46653   6.012   6.189   9.561  0.6488 -1.3472  3.4847
  346MOL0     H46654   6.134   6.280   9.489 -2.2993  0.1637 -1.1889
  346MOL0     H46655   6.212   6.114   9.352  2.7594  1.6096  0.9780
  346MOL0     H46656   6.237   6.005   9.482 -1.1644 -0.9916 -1.0632
  346MOL0     H46657   5.983   6.011   9.330 -0.2833  2.3168  2.3350
  346MOL0     H46658   6.104   5.888   9.325  1.7697 -0.3630  1.0732
  346MOL0     H46659   5.861   5.905   9.468 -0.3840 -1.5381  2.3998
  346MOL0     H46660   5.963   5.981   9.594  2.4121 -0.0148  0.7751
  346MOL0     H46661   6.162   5.824   9.707  2.1309  2.8857 -4.6021
  346MOL0     H46662   6.175   5.434   9.724  1.5826 -2.4063 -3.2301
  346MOL0     H46663   6.297   5.493   9.618  0.7667 -1.5830  0.5110
  346MOL0     H46664   6.343   5.674   9.804  1.4901 -1.0937 -2.9018
  346MOL0     H46665   6.370   5.516   9.867 -0.8480  0.7762  1.9037
  346MOL0     H46666   6.124   5.674   9.900  0.5617  0.7958 -1.0313
  346MOL0     H46667   6.235   5.627  10.037  0.8351  2.7533 -1.7855
  346MOL0     H46668   6.178   5.403  10.004 -1.6676  0.5445  3.3316
  346MOL0     H46669   6.057   5.447   9.879  1.2720 -0.3348  0.6399
  346MOL0     H46670   6.039   5.229  10.069  0.1576  0.6501 -0.3427
  346MOL0     H46671   5.884   4.988  10.170 -2.9448 -2.0258  2.1316
  346MOL0     H46672   6.045   5.028  10.234 -0.0148 -0.0481  2.1241
  346MOL0     H46673   5.905   4.998  10.340  0.2533  1.6833  0.7490
  346MOL0     H46674   5.885   5.033  10.664 -0.6330 -1.7669 -0.1728
  346MOL0     H46675   5.807   4.883  10.825  0.3009  0.4536 -0.3100
  346MOL0     H46676   5.667   4.751  10.948 -1.8446  0.4823 -0.9022
  346MOL0     H46677   5.722   4.844  11.092 -0.7645 -1.1206  2.0562
  346MOL0     H46678   5.438   4.708  11.080 -0.0957 -1.7540  2.4336
  346MOL0     H46679   5.576   4.616  11.137  2.3201  0.7607  1.7330
  346MOL0     H46680   5.621   4.835  11.273 -0.2845 -0.8348  1.2114
  346MOL0     H46681   5.517   4.697  11.333 -1.7145 -1.3771 -0.3498
  346MOL0     H46682   5.436   4.970  11.314 -0.1431  0.6305 -1.3099
  346MOL0     H46683   5.356   4.897  11.188 -0.5999 -1.0706 -0.4338
  346MOL0     H46684   5.311   4.808  11.478  2.1051  1.9454 -0.4724
  346MOL0     H46685   5.299   4.697  11.341  0.2301  0.7252 -1.0131
  346MOL0     H46686   5.149   4.853  11.236  0.7957  1.3660 -0.6402
  346MOL0     H46687   5.098   4.771  11.393 -0.5830 -0.1448  0.2493
  346MOL0     H46688   5.193   5.052  11.403  0.9620 -0.1726 -0.0108
  346MOL0     H46689   5.128   4.969  11.540  0.0414 -0.0407 -0.7853
  346MOL0     H46690   4.907   4.919  11.393 -0.1394  0.2810 -0.2216
  346MOL0     H46691   4.954   5.070  11.322 -1.3465  1.3380  0.7062
  346MOL0     H46692   5.456   5.149  10.882 -0.8408  0.5057  1.3137
  346MOL0     H46693   5.540   5.276  10.696 -1.9136  0.3071  2.4294
  346MOL0     H46694   5.767   5.438  10.426  1.1139 -0.5469  0.4118
  346MOL0     H46695   5.878   5.577  10.264 -1.3510 -0.4973  1.0886
  346MOL0     H46696   6.214   6.513  10.267 -2.7423  2.0935 -4.0850
  346MOL0     H46697   6.471   6.573  10.320  0.5985 -1.7597  1.5236
  346MOL0     H46698   7.009   6.567   9.959  0.4528  1.1611  0.2755
  346MOL0     H46699   7.223   6.568  10.073 -0.2472 -1.0721  0.5814
  346MOL0     H46700   7.225   6.657  10.507  1.7637 -0.2162  1.9188
  346MOL0     H46701   7.270   6.481  10.480  4.2638 -1.7841 -1.5638
  346MOL0     H46702   7.492   6.594  10.388  1.9634  0.0195  0.2750
  346MOL0     H46703   7.466   6.558  10.566 -0.5703 -3.0442 -2.9587
  346MOL0     H46704   7.439   6.819  10.427 -2.7291  0.4057  0.6521
  346MOL0     H46705   7.593   6.750  10.505 -0.7134 -1.7790 -0.1155
  346MOL0     H46706   7.321   6.834  10.612  0.3933 -1.8193 -0.8183
  346MOL0     H46707   7.457   6.931  10.620  0.3828 -0.5112  1.4253
  346MOL0     H46708   7.506   6.644  10.940  0.8526 -2.1472 -1.4165
  346MOL0     H46709   7.014   6.648  10.440 -0.4257 -2.6764 -0.0802
  346MOL0     H46710   6.811   6.638  10.338 -4.3544  0.0860 -3.7660
  347MOL0     O46711  11.025   8.517   0.777  0.1128  0.3852 -0.4288
  347MOL0     C46712  10.918   8.490   0.834 -1.1368 -0.1144  0.3039
  347MOL0     O46713  10.811   8.568   0.850 -0.2628 -0.1136 -0.7797
  347MOL0     C46714  10.822   8.701   0.858  0.0138 -0.1247  0.3206
  347MOL0     C46715  10.704   8.764   0.900  0.3029 -0.7260  0.5853
  347MOL0     C46716  10.689   8.897   0.906  1.2053 -0.4925  0.0175
  347MOL0     C46717  10.805   8.989   0.881  0.4600  0.3335 -0.5143
  347MOL0     O46718  10.811   9.125   0.888 -0.2503  0.2078  0.0237
  347MOL0     C46719  10.694   9.202   0.909 -0.5410  0.0125  0.8434
  347MOL0     C46720  10.726   9.349   0.903 -0.6396 -0.4829 -0.2336
  347MOL0     C46721  10.599   9.424   0.945  0.8071  0.1730 -0.2078
  347MOL0     C46722  10.637   9.575   0.931  0.8290  0.1577 -0.0691
  347MOL0     C46723  10.567   9.656   1.042  0.0624 -0.7695 -0.0372
  347MOL0     C46724  10.633   9.643   1.181  0.2199 -0.6868  0.0742
  347MOL0     C46725  10.692   9.782   1.219 -0.1572 -0.0787 -0.2997
  347MOL0     C46726  10.828   9.825   1.163 -0.1310 -1.0029  0.1592
  347MOL0     N46727  10.896   9.938   1.232  0.6425  0.2551 -1.0198
  347MOL0     C46728  10.931   9.937   1.363 -0.6929  0.2862  0.0834
  347MOL0     C46729  11.001  10.054   1.394  1.3757 -0.3793 -0.2166
  347MOL0     C46730  11.047  10.098   1.530  0.1298  0.1962 -0.7874
  347MOL0     C46731  10.948  10.195   1.597 -0.4683 -0.3963  0.2351
  347MOL0     C46732  11.016  10.261   1.722 -0.1818  0.1745 -1.6038
  347MOL0     C46733  10.918  10.353   1.793 -0.7682 -0.3324 -0.3689
  347MOL0     O46734  10.874  10.452   1.705 -0.4393 -0.7410 -0.1450
  347MOL0     C46735  10.948  10.567   1.685  0.2883 -0.3706 -0.4417
  347MOL0     C46736  11.001  10.640   1.787  0.4768  0.2835  0.4489
  347MOL0     C46737  11.075  10.756   1.766 -0.3020 -0.6070  0.4452
  347MOL0     C46738  11.123  10.830   1.893  1.4292  0.6851  0.5671
  347MOL0     C46739  11.101  10.809   1.631  0.0241 -0.1877 -0.6166
  347MOL0     C46740  11.174  10.930   1.588  0.2807  0.1309 -0.8609
  347MOL0     O46741  11.147  10.961   1.456 -0.0496  0.3051 -0.6340
  347MOL0     C46742  11.215  11.064   1.398  0.8553  0.3539  0.1298
  347MOL0     C46743  11.130  11.158   1.331 -0.1482  0.4656 -0.6827
  347MOL0     C46744  11.187  11.265   1.265  0.3173  0.0664 -0.2754
  347MOL0     C46745  11.323  11.297   1.268  0.3781  1.3681 -0.6052
  347MOL0     O46746  11.359  11.407   1.200 -0.5987 -0.2340  0.0052
  347MOL0     C46747  11.477  11.482   1.249 -0.6672  0.3809  0.0987
  347MOL0     C46748  11.448  11.561   1.376 -0.9515  1.3531  0.6169
  347MOL0     C46749  11.512  11.704   1.377  0.1690 -0.6599 -0.0750
  347MOL0     C46750  11.429  11.800   1.299  0.6485  0.1739  0.1470
  347MOL0     C46751  11.495  11.931   1.274 -0.4360 -0.7271  0.3425
  347MOL0     C46752  11.430  12.032   1.171  0.5511 -0.0033  0.3282
  347MOL0     C46753  11.459  12.008   1.020  0.9856  0.5463 -0.5940
  347MOL0     C46754  11.604  12.031   0.985 -0.1111  0.8209  0.5452
  347MOL0    Cl46755  11.591  12.068   0.812 -0.6029 -0.0411 -0.6475
  347MOL0     C46756  11.399  11.203   1.343 -0.0135 -0.3773  0.0816
  347MOL0     C46757  11.350  11.089   1.416 -0.3633  0.2564 -0.7871
  347MOL0     O46758  11.234  11.010   1.660 -0.1937  0.0852  0.6016
  347MOL0     C46759  11.028  10.738   1.532 -0.2574 -0.2650  1.5674
  347MOL0     C46760  10.957  10.619   1.556  0.3994  0.0145  0.2372
  347MOL0     N46761  10.997  10.129   1.277 -0.7422  0.2160  0.2351
  347MOL0     N46762  10.926  10.058   1.183  0.0699  0.1637 -0.0049
  347MOL0     C46763  10.930   8.932   0.851  0.0060  0.6538 -0.4214
  347MOL0     C46764  10.934   8.787   0.832  0.4295 -0.6644  0.3708
  347MOL0     C46765  10.893   8.358   0.878 -0.2953 -0.3002 -0.1103
  347MOL0     C46766  10.793   8.329   0.975 -0.3381  0.2971 -0.7464
  347MOL0     C46767  10.749   8.197   1.002  0.5327 -0.9710 -1.0875
  347MOL0     C46768  10.808   8.096   0.932 -0.6036  0.3423  0.5739
  347MOL0     O46769  10.752   7.971   0.947 -0.3365 -0.1247  0.2256
  347MOL0     C46770  10.810   7.909   1.060 -0.4837 -0.4160  0.1360
  347MOL0     C46771  10.764   7.760   1.072  0.0062  0.7243 -0.4315
  347MOL0     C46772  10.615   7.749   1.092 -0.4004  0.2580  0.4494
  347MOL0     C46773  10.541   7.643   1.000 -1.3333 -0.5345  0.3922
  347MOL0     C46774  10.577   7.504   1.019  0.8187 -0.4880 -0.2795
  347MOL0     C46775  10.620   7.392   1.023  0.5915  0.0217  0.3517
  347MOL0     C46776  10.914   8.117   0.835 -1.2243 -0.3303 -0.3535
  347MOL0     C46777  10.948   8.256   0.808 -0.3785  0.1441  0.6627
  347MOL0     H46778  10.621   8.704   0.937 -0.9317 -0.1121 -1.0239
  347MOL0     H46779  10.601   8.949   0.943 -0.2252 -0.5171 -3.0433
  347MOL0     H46780  10.613   9.183   0.838 -2.6320  0.9505  2.8574
  347MOL0     H46781  10.663   9.182   1.012  0.2463  1.3414  1.3645
  347MOL0     H46782  10.799   9.362   0.983 -0.2701 -2.9211 -0.1091
  347MOL0     H46783  10.752   9.375   0.800 -0.5236 -1.4237 -0.4472
  347MOL0     H46784  10.513   9.411   0.879 -2.1391  2.7190  2.7673
  347MOL0     H46785  10.572   9.397   1.048 -0.3903  0.9394 -0.3102
  347MOL0     H46786  10.746   9.587   0.932  1.2169 -2.7058 -0.3381
  347MOL0     H46787  10.596   9.613   0.837  3.0929  3.3320  0.0764
  347MOL0     H46788  10.557   9.759   1.007 -3.2867 -0.2084  2.1947
  347MOL0     H46789  10.463   9.623   1.049  0.2144 -1.5386 -1.0588
  347MOL0     H46790  10.566   9.618   1.264 -0.3555  1.7166  0.4172
  347MOL0     H46791  10.713   9.568   1.183 -1.0965 -2.3222 -2.7846
  347MOL0     H46792  10.614   9.853   1.189  1.6881  1.3905 -1.8168
  347MOL0     H46793  10.691   9.775   1.328 -1.3388 -3.3127 -0.3963
  347MOL0     H46794  10.801   9.858   1.062  1.9538  2.1119  0.4693
  347MOL0     H46795  10.897   9.745   1.137  0.0784 -0.4844 -0.9184
  347MOL0     H46796  10.903   9.852   1.424  1.4444 -0.3914  0.1754
  347MOL0     H46797  11.059  10.005   1.585  1.6033  0.5576 -0.4503
  347MOL0     H46798  11.143  10.150   1.536 -0.0981  0.5544  5.2216
  347MOL0     H46799  10.853  10.145   1.617 -0.7043 -0.8975 -1.9113
  347MOL0     H46800  10.936  10.278   1.527  1.3344 -0.8248 -0.6262
  347MOL0     H46801  11.091  10.330   1.683  0.0877 -0.5260 -2.3438
  347MOL0     H46802  11.057  10.186   1.791  3.9457  1.4750 -2.3911
  347MOL0     H46803  10.970  10.385   1.883 -0.2015 -1.8248 -0.1253
  347MOL0     H46804  10.830  10.296   1.822 -0.8296 -0.8167 -1.4443
  347MOL0     H46805  10.957  10.622   1.885 -0.8643 -1.4358 -0.4033
  347MOL0     H46806  11.095  10.935   1.890  1.4594  0.8151  3.0210
  347MOL0     H46807  11.060  10.793   1.974 -1.5163  1.4066 -1.2773
  347MOL0     H46808  11.231  10.822   1.912  0.9973 -1.2020  2.7264
  347MOL0     H46809  11.023  11.145   1.317  0.1544 -3.8076 -0.4207
  347MOL0     H46810  11.125  11.334   1.209 -0.7227 -0.5286  0.1230
  347MOL0     H46811  11.565  11.420   1.266 -2.3664 -1.9081  1.0784
  347MOL0     H46812  11.501  11.561   1.177 -0.9888 -0.4990 -1.0226
  347MOL0     H46813  11.339  11.573   1.387 -0.8754  1.1843  1.7551
  347MOL0     H46814  11.486  11.500   1.458 -2.2547  0.2195  0.4211
  347MOL0     H46815  11.611  11.696   1.331  0.6890 -2.7056  1.2460
  347MOL0     H46816  11.521  11.744   1.478  1.4467  0.5695 -0.6469
  347MOL0     H46817  11.406  11.748   1.206  1.5066  0.3285 -0.1630
  347MOL0     H46818  11.340  11.808   1.361  0.5938 -4.0533  0.8730
  347MOL0     H46819  11.590  11.896   1.230  0.3069  0.1879  1.1740
  347MOL0     H46820  11.512  11.991   1.364 -1.8829 -0.8268  0.7070
  347MOL0     H46821  11.323  12.012   1.183  0.8056 -0.8163  1.3676
  347MOL0     H46822  11.455  12.136   1.197 -1.9378  0.5395  0.8074
  347MOL0     H46823  11.400  12.074   0.956  0.7592  0.3612 -0.5773
  347MOL0     H46824  11.426  11.912   0.980 -2.0777  0.6509  1.3337
  347MOL0     H46825  11.659  11.936   0.990  3.3551  2.2051 -3.8726
  347MOL0     H46826  11.658  12.103   1.047  2.8620 -0.5263 -0.2543
  347MOL0     H46827  11.506  11.222   1.354 -0.0386 -0.6117  0.7895
  347MOL0     H46828  11.410  11.017   1.470 -3.2632 -1.7418  0.0224
  347MOL0     H46829  11.018  10.766   1.427 -1.5261  0.4965  1.8702
  347MOL0     H46830  10.904  10.570   1.475 -1.8916 -2.8458  3.2572
  347MOL0     H46831  11.016   8.993   0.828  1.2825 -1.4592 -1.5119
  347MOL0     H46832  11.031   8.749   0.800 -0.1545 -1.0740 -0.9674
  347MOL0     H46833  10.726   8.403   1.018 -0.9760 -0.1365 -0.9654
  347MOL0     H46834  10.665   8.182   1.068  0.0480  2.4897 -0.7229
  347MOL0     H46835  10.919   7.905   1.059 -0.3775  0.7616  1.9573
  347MOL0     H46836  10.782   7.974   1.143  2.9480  4.0544 -1.8043
  347MOL0     H46837  10.804   7.704   1.157 -2.0731 -1.7115 -0.9144
  347MOL0     H46838  10.797   7.712   0.979 -0.3270  0.4739 -0.4233
  347MOL0     H46839  10.570   7.842   1.056 -0.4149  0.6925  1.5666
  347MOL0     H46840  10.585   7.733   1.196  0.6806  1.2859  0.9454
  347MOL0     H46841  10.568   7.658   0.895  0.5349 -0.5805  0.8304
  347MOL0     H46842  10.436   7.671   1.015 -0.8802  1.7482 -0.2542
  347MOL0     H46843  10.639   7.287   1.021 -0.1300 -0.1166  0.4538
  347MOL0     H46844  10.963   8.037   0.781  2.6789  3.7028 -3.5735
  347MOL0     H46845  11.032   8.270   0.741  3.0957 -1.3330  4.3066
  348MOL0     O46846   4.605   9.676  11.399 -0.2247  0.1534 -0.0563
  348MOL0     C46847   4.662   9.586  11.460  0.0530  0.4934 -0.3894
  348MOL0     O46848   4.602   9.469  11.494 -0.9677 -0.3340 -0.3978
  348MOL0     C46849   4.483   9.461  11.458  0.1497  0.9119 -0.7796
  348MOL0     C46850   4.440   9.356  11.376  0.8732 -0.3330  0.6400
  348MOL0     C46851   4.307   9.354  11.333  0.2884  0.2764  0.4172
  348MOL0     C46852   4.215   9.456  11.368 -0.7741  0.3376  0.0617
  348MOL0     O46853   4.088   9.474  11.309  0.0176  0.6549 -0.4968
  348MOL0     C46854   4.053   9.456  11.172  1.3178  0.4069 -0.5377
  348MOL0     C46855   4.077   9.593  11.105 -0.8092  0.2114  0.4025
  348MOL0     C46856   4.038   9.593  10.946 -0.4426  0.6076 -0.4204
  348MOL0     C46857   4.097   9.719  10.871 -0.3288  0.6798  0.0641
  348MOL0     C46858   4.057   9.737  10.723  0.0552 -1.0247  0.4134
  348MOL0     C46859   4.106   9.864  10.655 -0.2174  0.0383  0.8106
  348MOL0     C46860   4.121   9.838  10.503 -0.2803  0.1721  0.1293
  348MOL0     C46861   4.171   9.968  10.434 -0.3093  0.4094 -0.2061
  348MOL0     N46862   4.199   9.954  10.288 -0.2328 -0.3618  0.9416
  348MOL0     C46863   4.281   9.853  10.231  0.1767 -0.1111 -0.0595
  348MOL0     C46864   4.296   9.897  10.107 -1.0511 -0.3814  0.1479
  348MOL0     C46865   4.366   9.809  10.003 -0.2152 -0.2798  0.3609
  348MOL0     C46866   4.367   9.872   9.861  0.3944  0.2372  0.8819
  348MOL0     C46867   4.471   9.804   9.774  0.3645 -0.7707  0.8192
  348MOL0     C46868   4.477   9.874   9.629 -1.2140 -0.4989 -1.6776
  348MOL0     O46869   4.358   9.864   9.559  0.4278 -1.0919 -0.2167
  348MOL0     C46870   4.347   9.909   9.429  0.3710 -0.2558 -0.4434
  348MOL0     C46871   4.439  10.004   9.375  0.0965 -1.1859  0.2587
  348MOL0     C46872   4.417  10.061   9.245  0.2140 -0.1456  0.6702
  348MOL0     C46873   4.523  10.150   9.186 -0.4772 -1.2857  0.7901
  348MOL0     C46874   4.288  10.041   9.193  0.4065 -0.3114 -0.5725
  348MOL0     C46875   4.250  10.133   9.079  0.0751 -0.4179 -0.9249
  348MOL0     O46876   4.296  10.262   9.086  0.1972 -0.6777 -0.4732
  348MOL0     C46877   4.298  10.336   8.969  0.8825 -0.3482  0.0823
  348MOL0     C46878   4.391  10.306   8.868 -0.1265  0.0061  0.8412
  348MOL0     C46879   4.402  10.378   8.756 -0.6205 -0.4160  0.1435
  348MOL0     C46880   4.335  10.499   8.738 -0.6762 -0.7142 -0.2152
  348MOL0     O46881   4.340  10.571   8.620  0.1017  0.3503 -0.0226
  348MOL0     C46882   4.435  10.675   8.625 -0.8810  0.3872 -0.5355
  348MOL0     C46883   4.420  10.813   8.560  0.4689 -0.0103 -0.8805
  348MOL0     C46884   4.344  10.805   8.426 -0.2232 -0.1035  0.1905
  348MOL0     C46885   4.299  10.942   8.364 -0.0133 -0.0118 -0.0527
  348MOL0     C46886   4.260  10.907   8.223  0.2534 -0.5933 -0.5982
  348MOL0     C46887   4.191  11.022   8.143  0.6083 -0.1223 -0.2847
  348MOL0     C46888   4.139  10.977   8.004  1.3077 -0.2820 -0.0005
  348MOL0     C46889   3.992  10.926   8.005  0.5599  0.2767 -0.9266
  348MOL0    Cl46890   3.877  11.069   7.981  0.1479  0.3661 -0.6747
  348MOL0     C46891   4.246  10.539   8.844  0.9623 -0.0209 -0.3589
  348MOL0     C46892   4.226  10.452   8.952  0.2888 -0.3912  0.4596
  348MOL0     O46893   4.203  10.077   8.979 -0.3611  0.3113  0.3074
  348MOL0     C46894   4.196   9.948   9.234  0.6882 -0.0884  0.2869
  348MOL0     C46895   4.234   9.880   9.358 -0.0824  0.2258 -0.1752
  348MOL0     N46896   4.220  10.013  10.075 -0.0313  0.0586  0.0255
  348MOL0     N46897   4.164  10.041  10.183  0.0770  0.9935  0.1295
  348MOL0     C46898   4.258   9.546  11.466  0.7821  0.6080  0.0101
  348MOL0     C46899   4.390   9.549  11.515 -0.0100  0.0903  0.0317
  348MOL0     C46900   4.790   9.617  11.546  0.0314  0.7281 -0.3608
  348MOL0     C46901   4.828   9.558  11.659 -0.5956 -0.3061 -0.5648
  348MOL0     C46902   4.949   9.589  11.732 -0.6792  0.7050  0.1733
  348MOL0     C46903   5.030   9.684  11.674 -0.2972  0.0281  0.8003
  348MOL0     O46904   5.140   9.714  11.741 -0.7716 -0.3667  0.0518
  348MOL0     C46905   5.223   9.820  11.706 -0.1468 -0.2167  1.3013
  348MOL0     C46906   5.362   9.789  11.781  0.1010 -0.9118  1.6234
  348MOL0     C46907   5.355   9.821  11.935  1.0331 -0.5907 -0.0257
  348MOL0     C46908   5.373   9.691  12.009  0.4734  0.3079  0.2890
  348MOL0     C46909   5.398   9.707  12.151 -1.1597  0.1537  0.1429
  348MOL0     C46910   5.412   9.716  12.271  0.2189  0.2772  0.3082
  348MOL0     C46911   4.990   9.751  11.552  0.8329 -0.6969  0.0092
  348MOL0     C46912   4.869   9.713  11.495 -0.6891  0.6977  0.9895
  348MOL0     H46913   4.518   9.298  11.328  1.9090  0.1350  1.7048
  348MOL0     H46914   4.260   9.271  11.280  0.8994  2.4283 -3.9378
  348MOL0     H46915   4.112   9.380  11.119  0.9320  1.1703 -2.0938
  348MOL0     H46916   3.945   9.447  11.165  0.8179  3.5048  1.4253
  348MOL0     H46917   4.012   9.666  11.155  0.0213 -0.4984  2.5976
  348MOL0     H46918   4.185   9.605  11.109 -0.5885 -0.1833 -2.1915
  348MOL0     H46919   4.070   9.499  10.900 -1.9875  1.3275 -3.2111
  348MOL0     H46920   3.929   9.602  10.949 -0.6831 -1.3043  3.4387
  348MOL0     H46921   4.074   9.808  10.930  0.8361 -0.0936  1.7697
  348MOL0     H46922   4.206   9.709  10.865 -0.0687  2.7152  0.4965
  348MOL0     H46923   4.084   9.651  10.661  0.2376  0.4609 -1.6741
  348MOL0     H46924   3.948   9.729  10.715 -0.0262  0.8265 -0.8291
  348MOL0     H46925   4.041   9.950  10.669 -1.1818  0.4384 -4.1529
  348MOL0     H46926   4.204   9.894  10.692  1.5047 -2.0730 -1.6243
  348MOL0     H46927   4.190   9.755  10.486 -0.5416  0.2450 -1.5345
  348MOL0     H46928   4.021   9.812  10.466 -0.6649 -0.1954  1.3950
  348MOL0     H46929   4.267   9.995  10.479  1.8670  0.5078 -4.4302
  348MOL0     H46930   4.098  10.048  10.451 -1.6547 -1.1295  1.7884
  348MOL0     H46931   4.321   9.757  10.264  0.3598 -0.7589 -2.0362
  348MOL0     H46932   4.464   9.788  10.049 -1.2967 -4.1407  1.2915
  348MOL0     H46933   4.314   9.713   9.994  0.1812 -0.4964  0.3583
  348MOL0     H46934   4.380   9.980   9.872  3.2783 -0.0950  1.5052
  348MOL0     H46935   4.267   9.859   9.818 -1.3403  0.2538  4.4739
  348MOL0     H46936   4.439   9.700   9.764  2.0639 -1.2465 -0.1744
  348MOL0     H46937   4.576   9.801   9.806  0.5413 -3.1666  0.1983
  348MOL0     H46938   4.555   9.816   9.578 -0.5139 -1.9678  0.8762
  348MOL0     H46939   4.508   9.978   9.644 -0.7187 -0.8044 -0.4044
  348MOL0     H46940   4.532  10.039   9.419 -1.2003  4.1622 -0.4441
  348MOL0     H46941   4.623  10.128   9.225  0.4512  1.3341  0.0732
  348MOL0     H46942   4.526  10.133   9.078  2.1870  0.3059  0.5260
  348MOL0     H46943   4.508  10.257   9.202  2.0052 -0.3038 -2.2437
  348MOL0     H46944   4.447  10.214   8.881 -0.4801 -0.4564 -0.6905
  348MOL0     H46945   4.474  10.354   8.678 -0.2177  1.0917  0.0209
  348MOL0     H46946   4.462  10.697   8.729 -0.5581 -0.5748 -0.4064
  348MOL0     H46947   4.530  10.636   8.587 -0.7607 -3.8526  3.2835
  348MOL0     H46948   4.377  10.892   8.622  0.3412 -0.1462 -0.7955
  348MOL0     H46949   4.520  10.847   8.531  1.1553 -0.4389  0.8976
  348MOL0     H46950   4.257  10.742   8.447  0.1189 -0.0983  1.7495
  348MOL0     H46951   4.413  10.758   8.356 -1.1974 -1.2440 -0.0449
  348MOL0     H46952   4.220  10.981   8.429  1.4031 -1.7016  2.9356
  348MOL0     H46953   4.380  11.016   8.356 -0.0982 -0.0075 -0.9272
  348MOL0     H46954   4.199  10.817   8.233 -0.0550 -0.0673  4.3346
  348MOL0     H46955   4.353  10.881   8.172  1.0200 -0.2132  0.5724
  348MOL0     H46956   4.099  11.051   8.195  0.1060 -1.0648 -0.6105
  348MOL0     H46957   4.258  11.107   8.129  2.3805 -1.3780  0.1958
  348MOL0     H46958   4.212  10.903   7.968 -0.0081 -2.2924  1.2485
  348MOL0     H46959   4.159  11.067   7.946  0.2799 -0.7283 -1.0948
  348MOL0     H46960   3.982  10.873   8.100  2.0035 -1.2261 -1.5794
  348MOL0     H46961   3.988  10.860   7.918  3.0736 -0.2133 -0.7521
  348MOL0     H46962   4.187  10.631   8.838 -0.2581 -0.7287  0.3807
  348MOL0     H46963   4.147  10.480   9.021  1.8394 -1.0842  2.6524
  348MOL0     H46964   4.097   9.935   9.191  0.0584  1.0729  1.3304
  348MOL0     H46965   4.155   9.830   9.411 -0.9507  1.3363 -0.3707
  348MOL0     H46966   4.201   9.634  11.496 -1.1350 -0.7855  0.6676
  348MOL0     H46967   4.427   9.619  11.589  0.5021 -0.1694  0.0329
  348MOL0     H46968   4.763   9.493  11.718 -1.2257  0.3681 -0.4981
  348MOL0     H46969   4.969   9.545  11.829  0.9305  0.8478 -0.0588
  348MOL0     H46970   5.243   9.838  11.599 -4.0326  0.8988  0.6180
  348MOL0     H46971   5.189   9.920  11.735  0.2455  0.6948 -1.0780
  348MOL0     H46972   5.437   9.857  11.739  1.3718 -2.2544  1.6256
  348MOL0     H46973   5.390   9.686  11.757 -1.8032 -1.2289  0.6197
  348MOL0     H46974   5.259   9.858  11.972  1.6197 -0.9404  1.9419
  348MOL0     H46975   5.430   9.897  11.960 -1.0864  0.2469  4.7959
  348MOL0     H46976   5.457   9.637  11.964  0.7932  0.7380  0.3702
  348MOL0     H46977   5.289   9.623  11.995 -0.5027  1.7330 -1.0669
  348MOL0     H46978   5.441   9.720  12.374 -0.9117  0.2406  0.6469
  348MOL0     H46979   5.047   9.839  11.524 -0.0142  0.8515  2.6579
  348MOL0     H46980   4.840   9.759  11.402  0.0352  0.0165  0.4155
  349MOL0     O46981   0.482  10.539   6.773 -0.6082  0.0254  0.0503
  349MOL0     C46982   0.562  10.562   6.687 -0.5355 -0.3835  0.8518
  349MOL0     O46983   0.564  10.506   6.565  0.2005 -0.9128  0.0339
  349MOL0     C46984   0.473  10.417   6.533  0.7768 -0.3492 -0.6368
  349MOL0     C46985   0.337  10.458   6.526  0.5032  0.1447 -0.5164
  349MOL0     C46986   0.239  10.376   6.481 -0.0834 -0.1209  0.9766
  349MOL0     C46987   0.276  10.240   6.456  0.0049  0.0634  0.3042
  349MOL0     O46988   0.179  10.153   6.406 -0.1103  0.5168 -0.5899
  349MOL0     C46989   0.194  10.011   6.442 -0.3573  0.4621  0.3363
  349MOL0     C46990   0.064   9.930   6.424  0.2102 -0.5481  0.8532
  349MOL0     C46991  -0.063   9.988   6.502 -0.1053 -0.1060  0.2915
  349MOL0     C46992  -0.191   9.922   6.451  0.9291 -0.5178  0.0245
  349MOL0     C46993  -0.306   9.965   6.548  0.4302 -1.2706  0.2622
  349MOL0     C46994  -0.437   9.882   6.525 -0.3452  0.2805 -1.1617
  349MOL0     C46995  -0.510   9.936   6.405  0.1405  0.1696  0.2177
  349MOL0     C46996  -0.562  10.085   6.380 -0.1484 -0.0692 -0.0994
  349MOL0     N46997  -0.660  10.135   6.479 -0.3852  0.8521  0.2790
  349MOL0     C46998  -0.636  10.123   6.619  0.3030  0.4895 -0.0013
  349MOL0     C46999  -0.725  10.205   6.670 -1.5476 -0.4717  0.2630
  349MOL0     C47000  -0.733  10.223   6.814 -0.0674  0.6826  0.6975
  349MOL0     C47001  -0.838  10.124   6.868 -0.2970 -0.3199 -0.1701
  349MOL0     C47002  -0.978  10.193   6.888  0.3152  0.2600 -0.3169
  349MOL0     C47003  -1.000  10.262   7.017 -0.9157 -0.6963 -0.1281
  349MOL0     O47004  -1.003  10.162   7.115 -0.1673 -0.8744 -0.1752
  349MOL0     C47005  -1.047  10.219   7.231 -0.3288 -0.8592  0.8614
  349MOL0     C47006  -1.181  10.251   7.247 -0.2413 -0.4192  0.5123
  349MOL0     C47007  -1.228  10.304   7.369 -0.5810  0.4076  0.2634
  349MOL0     C47008  -1.371  10.344   7.373  0.7271 -0.0935 -1.0011
  349MOL0     C47009  -1.142  10.329   7.480 -0.4793  0.2016  0.3559
  349MOL0     C47010  -1.193  10.395   7.611 -0.0262  0.8354  0.3567
  349MOL0     O47011  -1.140  10.357   7.729 -0.5240 -0.3668  0.2220
  349MOL0     C47012  -1.170  10.424   7.848  0.1027  0.0739  0.3314
  349MOL0     C47013  -1.265  10.369   7.926 -0.6567 -0.4471  0.1022
  349MOL0     C47014  -1.303  10.431   8.047  0.0267 -1.6554  0.4659
  349MOL0     C47015  -1.230  10.546   8.088  0.8074  0.1359  0.4822
  349MOL0     O47016  -1.283  10.593   8.209 -0.3863  0.1595  0.6591
  349MOL0     C47017  -1.288  10.738   8.226  0.2040 -1.2437 -0.2829
  349MOL0     C47018  -1.403  10.815   8.152 -0.8666  0.6173  0.6835
  349MOL0     C47019  -1.400  10.971   8.177  0.1556  0.2622 -0.2097
  349MOL0     C47020  -1.520  11.035   8.104 -0.5139 -0.1926  0.1982
  349MOL0     C47021  -1.545  11.182   8.142 -0.0178  0.1547 -0.5375
  349MOL0     C47022  -1.432  11.275   8.106 -0.9921  1.0598 -0.2462
  349MOL0     C47023  -1.465  11.417   8.148 -0.3791  0.0339 -0.2200
  349MOL0     C47024  -1.357  11.520   8.128  0.1180 -0.2517 -0.0095
  349MOL0    Cl47025  -1.356  11.568   7.954  0.3426  0.0554 -0.5356
  349MOL0     C47026  -1.134  10.597   8.006 -0.1460 -0.9045 -1.4159
  349MOL0     C47027  -1.101  10.539   7.894  1.0375  0.3834 -0.3866
  349MOL0     O47028  -1.269  10.488   7.604  0.1991  0.5073  0.0044
  349MOL0     C47029  -1.007  10.279   7.456  0.7744  0.0339 -0.4113
  349MOL0     C47030  -0.961  10.229   7.334  0.3110 -0.3017  0.5300
  349MOL0     N47031  -0.786  10.282   6.576  0.5510  0.5150  0.0786
  349MOL0     N47032  -0.762  10.227   6.459 -0.0752  0.4851 -0.6936
  349MOL0     C47033   0.409  10.193   6.490  0.9822  0.1891 -0.1434
  349MOL0     C47034   0.500  10.281   6.522  0.2608 -0.1728  0.2491
  349MOL0     C47035   0.670  10.661   6.719  0.8036 -0.0064  0.1909
  349MOL0     C47036   0.789  10.658   6.648 -0.1939 -0.3605  0.3392
  349MOL0     C47037   0.904  10.740   6.680 -0.2509 -0.3106 -0.3480
  349MOL0     C47038   0.901  10.823   6.802 -0.6351 -0.3527  0.4474
  349MOL0     O47039   0.999  10.914   6.852  0.7051  0.7628 -0.7146
  349MOL0     C47040   1.099  10.938   6.753  0.0491 -0.1650  0.8266
  349MOL0     C47041   1.170  11.072   6.783 -0.4349 -0.3115 -1.4625
  349MOL0     C47042   1.226  11.073   6.919  0.2517  0.1333  0.0805
  349MOL0     C47043   1.261  11.217   6.946 -0.1766  0.0235 -0.2112
  349MOL0     C47044   1.247  11.249   7.087 -0.4467  0.4440  0.0875
  349MOL0     C47045   1.220  11.267   7.200  0.0991 -0.1797  0.4259
  349MOL0     C47046   0.782  10.806   6.886 -0.8698 -0.2388  0.7427
  349MOL0     C47047   0.668  10.720   6.849  0.4626 -1.1382 -0.0758
  349MOL0     H47048   0.308  10.560   6.549 -1.3154 -0.3542 -0.3792
  349MOL0     H47049   0.143  10.427   6.474  0.2186  0.3029 -0.4521
  349MOL0     H47050   0.270   9.974   6.372 -1.3365 -0.2809 -0.3623
  349MOL0     H47051   0.236   9.993   6.542  0.1166 -5.2565 -0.5821
  349MOL0     H47052   0.019   9.934   6.324  0.8747  4.4491  0.5170
  349MOL0     H47053   0.084   9.826   6.452 -1.9847 -0.9893  0.9317
  349MOL0     H47054  -0.055   9.980   6.611 -1.5574 -0.4369  0.3921
  349MOL0     H47055  -0.076  10.095   6.480  1.7561 -0.2953 -2.1758
  349MOL0     H47056  -0.211   9.945   6.346 -4.1858 -1.2713  0.5938
  349MOL0     H47057  -0.177   9.814   6.457 -1.2299 -0.8319 -0.0886
  349MOL0     H47058  -0.267   9.949   6.649 -0.5091  2.9607  1.4999
  349MOL0     H47059  -0.329  10.072   6.536  0.3447 -1.2186  0.8587
  349MOL0     H47060  -0.415   9.777   6.504 -0.3537 -0.2856  1.3860
  349MOL0     H47061  -0.505   9.884   6.611  1.6142  0.9045  0.4470
  349MOL0     H47062  -0.450   9.917   6.315  2.9989  3.7982  1.1251
  349MOL0     H47063  -0.598   9.874   6.382  1.4959 -0.5542 -3.9236
  349MOL0     H47064  -0.632  10.081   6.296 -1.8892  2.2093  1.1171
  349MOL0     H47065  -0.486  10.158   6.354  0.3951 -0.9704 -1.1202
  349MOL0     H47066  -0.553  10.069   6.663 -1.5717 -1.2331  1.5964
  349MOL0     H47067  -0.645  10.179   6.860 -0.4486 -1.3386 -0.4211
  349MOL0     H47068  -0.742  10.329   6.841 -0.4792  0.8959 -0.2320
  349MOL0     H47069  -0.806  10.079   6.962  2.0213 -0.3521 -0.8969
  349MOL0     H47070  -0.843  10.045   6.792  3.5260 -1.3491  0.4234
  349MOL0     H47071  -1.050  10.111   6.877 -0.2156  0.7747 -0.7202
  349MOL0     H47072  -0.982  10.266   6.807  0.2415 -0.4957 -1.0076
  349MOL0     H47073  -1.096  10.314   7.006 -0.6692 -0.4530 -1.3005
  349MOL0     H47074  -0.925  10.339   7.035 -2.7165  0.9744  0.5060
  349MOL0     H47075  -1.241  10.236   7.158  1.2355 -0.6024 -0.4972
  349MOL0     H47076  -1.374  10.454   7.378  1.1679  0.0996 -3.6789
  349MOL0     H47077  -1.415  10.295   7.286  0.9482 -3.2946  0.5578
  349MOL0     H47078  -1.418  10.301   7.462 -2.0495  3.6445 -0.4085
  349MOL0     H47079  -1.323  10.285   7.891 -1.6820  0.5047 -0.5456
  349MOL0     H47080  -1.390  10.388   8.095 -2.0964 -0.7680 -2.2883
  349MOL0     H47081  -1.304  10.768   8.330  0.4702 -0.4890 -0.4529
  349MOL0     H47082  -1.191  10.781   8.199 -0.3445  0.9938  1.0546
  349MOL0     H47083  -1.377  10.792   8.049  1.4537 -1.4510  1.6287
  349MOL0     H47084  -1.503  10.771   8.168  1.0405 -4.3851  0.7489
  349MOL0     H47085  -1.308  11.020   8.145 -0.6992  1.7448 -0.5229
  349MOL0     H47086  -1.410  10.995   8.283 -0.8874 -0.7464 -0.0635
  349MOL0     H47087  -1.500  11.029   7.997 -3.5286  2.0778 -0.6120
  349MOL0     H47088  -1.610  10.977   8.125 -0.7899 -0.2477 -1.0865
  349MOL0     H47089  -1.582  11.183   8.244  1.6943  1.6816  0.1388
  349MOL0     H47090  -1.620  11.232   8.080 -0.0704  2.8438  1.5143
  349MOL0     H47091  -1.345  11.240   8.162 -2.6885  2.8990  3.9785
  349MOL0     H47092  -1.421  11.288   7.998  0.5119 -3.2126 -0.7838
  349MOL0     H47093  -1.477  11.410   8.257  0.1179 -0.3783 -0.1897
  349MOL0     H47094  -1.551  11.463   8.098 -0.2644 -1.2863 -1.7325
  349MOL0     H47095  -1.257  11.487   8.157 -0.7817  0.0480  4.2022
  349MOL0     H47096  -1.374  11.611   8.186 -1.7759 -1.1048  0.8721
  349MOL0     H47097  -1.087  10.693   8.029 -1.5095 -0.0517 -2.0541
  349MOL0     H47098  -1.031  10.590   7.829  0.0416  1.0602 -0.9344
  349MOL0     H47099  -0.935  10.293   7.537  1.5407  0.4029 -1.1442
  349MOL0     H47100  -0.858  10.193   7.327 -0.2015 -2.3539  2.3707
  349MOL0     H47101   0.440  10.089   6.487 -1.6003 -0.6949  0.7663
  349MOL0     H47102   0.603  10.258   6.548  0.1883 -2.3344 -1.1904
  349MOL0     H47103   0.794  10.587   6.567  4.1996  0.8260 -0.6584
  349MOL0     H47104   0.993  10.744   6.618  0.5937  0.9690  0.8736
  349MOL0     H47105   1.170  10.855   6.765  1.6967  1.0870  0.0520
  349MOL0     H47106   1.067  10.935   6.649  1.7042 -2.8977  0.2988
  349MOL0     H47107   1.100  11.156   6.782 -0.3316 -0.1385  0.6688
  349MOL0     H47108   1.260  11.091   6.724  0.3063  0.7467 -0.0527
  349MOL0     H47109   1.296  10.989   6.926 -4.2613 -4.4234 -3.1209
  349MOL0     H47110   1.147  11.046   6.989 -1.2217  1.0358 -1.1841
  349MOL0     H47111   1.201  11.288   6.888 -1.2071 -0.7294 -0.0971
  349MOL0     H47112   1.367  11.239   6.932 -0.2859  1.4767  1.0627
  349MOL0     H47113   1.198  11.283   7.303 -1.7717 -3.1565  0.6096
  349MOL0     H47114   0.789  10.853   6.983 -0.3898 -0.9572  1.0617
  349MOL0     H47115   0.578  10.728   6.910  0.3381  4.1070 -0.5207
  350MOL0     O47116   0.554   0.456   2.263  0.4753  0.1261  0.2786
  350MOL0     C47117   0.612   0.355   2.213 -0.1395 -0.4984  0.3081
  350MOL0     O47118   0.716   0.285   2.276 -0.4964  0.2442  0.2736
  350MOL0     C47119   0.727   0.301   2.412 -0.0482 -1.4983 -0.5720
  350MOL0     C47120   0.619   0.287   2.501  0.0449  0.5070  0.2208
  350MOL0     C47121   0.635   0.294   2.634  0.2164  0.1541  0.0532
  350MOL0     C47122   0.763   0.312   2.684 -0.5308  0.1363 -0.4653
  350MOL0     O47123   0.782   0.299   2.822 -0.2637 -0.3719 -0.5393
  350MOL0     C47124   0.886   0.211   2.874 -0.5560 -0.1413  0.0542
  350MOL0     C47125   0.871   0.189   3.031  0.6134 -0.1856 -0.8703
  350MOL0     C47126   0.733   0.141   3.063 -0.5780  0.7908 -0.2053
  350MOL0     C47127   0.715   0.103   3.207  1.0357  0.5251 -0.6224
  350MOL0     C47128   0.585   0.025   3.231 -0.6469 -0.5268  0.6170
  350MOL0     C47129   0.459   0.114   3.193 -1.6069  0.5622  0.3289
  350MOL0     C47130   0.325   0.084   3.264  0.1893 -0.4843  0.4255
  350MOL0     C47131   0.240  -0.026   3.198 -0.6926 -0.1927 -0.0009
  350MOL0     N47132   0.291  -0.160   3.178 -0.3496 -0.4566  0.0496
  350MOL0     C47133   0.348  -0.229   3.276  0.5065 -0.1593 -1.2352
  350MOL0     C47134   0.406  -0.331   3.224 -0.3910  0.3868 -0.8443
  350MOL0     C47135   0.494  -0.426   3.309 -0.0809  0.0963 -1.3446
  350MOL0     C47136   0.413  -0.525   3.393  0.7632 -0.9690  0.0532
  350MOL0     C47137   0.368  -0.647   3.317  0.0807  0.2205  0.1419
  350MOL0     C47138   0.464  -0.754   3.291  0.2247 -0.0813  0.2220
  350MOL0     O47139   0.419  -0.870   3.232  0.8940  0.2390 -0.8249
  350MOL0     C47140   0.513  -0.977   3.232 -1.1554 -0.3043  0.6337
  350MOL0     C47141   0.652  -0.965   3.275  0.6113 -0.6651  0.2067
  350MOL0     C47142   0.747  -1.075   3.258  1.0890  0.6669 -0.0593
  350MOL0     C47143   0.893  -1.034   3.274 -0.1329 -0.1027 -0.7545
  350MOL0     C47144   0.705  -1.205   3.212  0.3184 -0.9127 -0.2583
  350MOL0     C47145   0.785  -1.321   3.181  0.1154  0.4859  0.1370
  350MOL0     O47146   0.738  -1.407   3.086  0.1135  0.7820  0.1892
  350MOL0     C47147   0.841  -1.483   3.024 -0.1464 -0.2322 -0.3358
  350MOL0     C47148   0.865  -1.613   3.067  0.3167 -0.2719 -0.0559
  350MOL0     C47149   0.969  -1.686   3.009  0.0129 -0.4258  0.5585
  350MOL0     C47150   1.062  -1.626   2.920  0.5166  0.7232  0.0174
  350MOL0     O47151   1.166  -1.682   2.852  0.4809 -0.2149 -0.5050
  350MOL0     C47152   1.230  -1.805   2.902  0.2855 -0.0572 -0.1782
  350MOL0     C47153   1.224  -1.925   2.813  1.0111 -0.1363 -0.2251
  350MOL0     C47154   1.286  -1.908   2.664  0.1864  0.2133  0.0657
  350MOL0     C47155   1.266  -2.030   2.575  0.4395  0.4490  0.1560
  350MOL0     C47156   1.372  -2.148   2.598 -0.7016 -0.5213 -0.5303
  350MOL0     C47157   1.369  -2.256   2.498 -0.4014 -1.2853 -0.7350
  350MOL0     C47158   1.453  -2.211   2.375  0.2360  0.0078 -0.0470
  350MOL0     C47159   1.477  -2.325   2.279 -0.2515  0.1509 -0.1360
  350MOL0    Cl47160   1.300  -2.383   2.242 -0.2464  0.1498  0.0404
  350MOL0     C47161   1.026  -1.490   2.883  0.7978 -0.1436  0.2770
  350MOL0     C47162   0.915  -1.426   2.928  0.0448  0.1105  1.1740
  350MOL0     O47163   0.895  -1.336   3.238  0.5409 -0.1077 -0.2745
  350MOL0     C47164   0.574  -1.213   3.169  0.5550 -0.2396 -1.5664
  350MOL0     C47165   0.478  -1.109   3.180 -1.3850  0.6783  0.3756
  350MOL0     N47166   0.380  -0.324   3.087  0.8440  0.4430  0.5460
  350MOL0     N47167   0.327  -0.210   3.056  1.0852  0.1850 -0.2397
  350MOL0     C47168   0.876   0.309   2.603  0.1526  0.7334  0.4411
  350MOL0     C47169   0.855   0.323   2.468 -0.1051 -0.4811 -0.4060
  350MOL0     C47170   0.553   0.282   2.099  0.8938 -0.4819  0.9600
  350MOL0     C47171   0.625   0.183   2.036 -0.4688  0.2147  0.4005
  350MOL0     C47172   0.577   0.127   1.914 -1.6440  0.1054 -0.0109
  350MOL0     C47173   0.447   0.159   1.858  0.8853  0.6790 -1.3331
  350MOL0     O47174   0.407   0.103   1.745 -0.1277  0.6053 -0.3209
  350MOL0     C47175   0.271   0.130   1.682 -0.4818 -0.1851 -0.1101
  350MOL0     C47176   0.146   0.069   1.752  0.7069 -0.0832 -0.1805
  350MOL0     C47177   0.170  -0.082   1.785  1.2554 -0.1018  0.0031
  350MOL0     C47178   0.209  -0.152   1.658 -0.3732 -0.6471  0.3499
  350MOL0     C47179   0.190  -0.302   1.655  0.1189 -0.0267 -0.0259
  350MOL0     C47180   0.153  -0.421   1.648 -0.8895  0.7305 -0.5094
  350MOL0     C47181   0.370   0.252   1.934  0.1103  0.5000  0.3478
  350MOL0     C47182   0.421   0.316   2.049 -0.4725 -0.0349 -0.0638
  350MOL0     H47183   0.517   0.269   2.468  0.2390 -0.1663 -0.0135
  350MOL0     H47184   0.548   0.280   2.697 -0.1266  2.0950  0.0762
  350MOL0     H47185   0.879   0.114   2.824  1.6802  1.4422 -3.7784
  350MOL0     H47186   0.980   0.255   2.839 -0.8061 -0.8723 -1.6687
  350MOL0     H47187   0.932   0.102   3.056 -2.3715 -2.1838  0.0534
  350MOL0     H47188   0.899   0.280   3.083  2.1329 -2.2807  2.2784
  350MOL0     H47189   0.657   0.212   3.028 -1.5554 -1.0414 -2.0627
  350MOL0     H47190   0.700   0.060   2.997 -0.1490  1.6009 -1.4401
  350MOL0     H47191   0.798   0.043   3.247 -0.1392 -0.2548  0.7203
  350MOL0     H47192   0.712   0.189   3.274  0.1369  0.0036  0.0184
  350MOL0     H47193   0.577  -0.070   3.177 -1.2483 -1.0017  1.5165
  350MOL0     H47194   0.577   0.011   3.339 -3.7697 -4.5589  0.1242
  350MOL0     H47195   0.492   0.213   3.225 -0.1655  1.3130 -3.0836
  350MOL0     H47196   0.443   0.117   3.085 -1.0953  2.0855  0.2759
  350MOL0     H47197   0.339   0.067   3.371  0.0289  1.8160  0.8657
  350MOL0     H47198   0.265   0.175   3.258  0.0452 -0.6403 -0.8936
  350MOL0     H47199   0.204   0.016   3.104  0.9051  0.0284 -0.5542
  350MOL0     H47200   0.150  -0.051   3.255 -1.0296 -2.5212 -1.4494
  350MOL0     H47201   0.346  -0.196   3.379 -0.0489 -0.8627 -1.0103
  350MOL0     H47202   0.557  -0.477   3.236 -0.3350 -2.5015  0.1085
  350MOL0     H47203   0.559  -0.360   3.368 -2.3373  0.7580  0.5576
  350MOL0     H47204   0.337  -0.462   3.438  3.5189  0.1338  3.6486
  350MOL0     H47205   0.468  -0.551   3.484 -0.1239 -0.2215  0.8043
  350MOL0     H47206   0.336  -0.607   3.220  3.2135 -1.4010 -1.6753
  350MOL0     H47207   0.280  -0.688   3.369 -0.7850 -2.2123 -2.9391
  350MOL0     H47208   0.503  -0.782   3.390  0.6132 -0.5624 -0.0646
  350MOL0     H47209   0.549  -0.720   3.231 -1.3638 -0.7475 -2.5757
  350MOL0     H47210   0.694  -0.874   3.318  1.6453 -0.7404 -0.5989
  350MOL0     H47211   0.907  -0.926   3.289 -3.2659  0.1122  1.6489
  350MOL0     H47212   0.935  -1.076   3.366  0.3495  0.2202 -0.8240
  350MOL0     H47213   0.942  -1.059   3.180 -4.8853  0.2489 -3.6129
  350MOL0     H47214   0.791  -1.663   3.129  1.2246  0.7436  1.9498
  350MOL0     H47215   0.960  -1.794   3.023 -0.2278 -0.0452  4.2686
  350MOL0     H47216   1.335  -1.783   2.922 -0.2070  1.1450  1.2318
  350MOL0     H47217   1.187  -1.831   2.999 -1.8489  3.4329 -0.0192
  350MOL0     H47218   1.271  -2.009   2.865 -4.1708 -1.2877  3.3837
  350MOL0     H47219   1.120  -1.954   2.794  0.4533  1.6798 -0.1230
  350MOL0     H47220   1.393  -1.888   2.665  0.7597 -2.4789  1.3713
  350MOL0     H47221   1.241  -1.829   2.603  1.0615 -2.3753 -4.3637
  350MOL0     H47222   1.165  -2.063   2.601  0.9322 -2.5538 -1.3032
  350MOL0     H47223   1.260  -1.997   2.470 -0.0632 -0.1880 -0.0174
  350MOL0     H47224   1.347  -2.188   2.697  2.4309 -0.9446  0.2024
  350MOL0     H47225   1.469  -2.100   2.614 -1.0647  1.0716 -2.6417
  350MOL0     H47226   1.407  -2.349   2.542 -1.5665 -1.7833 -0.7314
  350MOL0     H47227   1.260  -2.266   2.489 -0.6596 -0.3642  1.0507
  350MOL0     H47228   1.552  -2.187   2.415  1.2197 -3.0652 -0.4091
  350MOL0     H47229   1.410  -2.124   2.325  2.6054  1.1626 -0.2121
  350MOL0     H47230   1.537  -2.404   2.325 -1.4682 -0.7577 -0.0710
  350MOL0     H47231   1.524  -2.295   2.185  0.8066 -0.3527  0.2196
  350MOL0     H47232   1.078  -1.442   2.801  1.1402 -1.3691 -0.2468
  350MOL0     H47233   0.881  -1.334   2.881 -1.9907 -1.6475 -1.0593
  350MOL0     H47234   0.541  -1.303   3.118  4.2269 -0.6198 -3.6316
  350MOL0     H47235   0.378  -1.124   3.141 -0.8516  0.3574 -0.9226
  350MOL0     H47236   0.976   0.301   2.645 -0.9245 -0.5060  2.9926
  350MOL0     H47237   0.928   0.340   2.390  0.9365  1.5115  0.9146
  350MOL0     H47238   0.722   0.151   2.075 -1.2944 -2.4707  0.4034
  350MOL0     H47239   0.644   0.061   1.858 -1.1144  1.1251 -0.6042
  350MOL0     H47240   0.261   0.237   1.660  3.8237  0.4154  0.0369
  350MOL0     H47241   0.278   0.072   1.589  1.6483 -1.5303  0.8036
  350MOL0     H47242   0.048   0.092   1.710 -1.4693  0.4311  4.4903
  350MOL0     H47243   0.128   0.126   1.844 -2.9312  0.3195 -0.9920
  350MOL0     H47244   0.077  -0.128   1.820  2.9075 -2.6359  1.4046
  350MOL0     H47245   0.237  -0.090   1.870 -1.6314 -0.2208  2.4529
  350MOL0     H47246   0.313  -0.133   1.631 -1.2080  2.6672 -1.0248
  350MOL0     H47247   0.147  -0.111   1.578  2.7921  2.0476 -0.9337
  350MOL0     H47248   0.122  -0.521   1.624 -0.5202  0.3357  0.6204
  350MOL0     H47249   0.273   0.287   1.898 -1.2828 -2.5776  0.8127
  350MOL0     H47250   0.351   0.387   2.092 -3.1982 -2.1082 -0.7954
  351MOL0     O47251   5.223  10.754   0.502  0.1188  0.2265 -0.1246
  351MOL0     C47252   5.239  10.857   0.439 -0.3620 -0.2288  0.6391
  351MOL0     O47253   5.350  10.902   0.368 -0.1690  0.0811  0.4060
  351MOL0     C47254   5.437  10.811   0.315 -0.0827 -0.0499 -0.6122
  351MOL0     C47255   5.428  10.675   0.294  0.6480  0.3316  0.4695
  351MOL0     C47256   5.529  10.603   0.221 -0.6194  0.1638 -0.3798
  351MOL0     C47257   5.652  10.661   0.189  0.6110  0.4421 -0.0184
  351MOL0     O47258   5.765  10.587   0.170  0.1890  0.0141 -0.2403
  351MOL0     C47259   5.821  10.609   0.043  0.2720 -0.1261 -0.0109
  351MOL0     C47260   5.910  10.490   0.006 -0.1386  0.5985 -0.5712
  351MOL0     C47261   5.950  10.495  -0.138 -0.3185  0.2876  0.4640
  351MOL0     C47262   6.073  10.413  -0.159  0.1221  0.6654 -0.2162
  351MOL0     C47263   6.045  10.265  -0.196  0.6503  0.4374 -0.0577
  351MOL0     C47264   5.981  10.260  -0.341 -0.5275  0.6009 -0.3791
  351MOL0     C47265   5.946  10.123  -0.380  0.5668 -0.6293 -0.0730
  351MOL0     C47266   6.049  10.045  -0.453  0.4617  0.2011 -0.6339
  351MOL0     N47267   6.007   9.903  -0.454 -0.4529 -0.9861  0.7979
  351MOL0     C47268   5.944   9.845  -0.558  0.5827  0.8413  0.1984
  351MOL0     C47269   5.879   9.740  -0.501  0.3608  0.2586  0.4346
  351MOL0     C47270   5.803   9.633  -0.561  0.9150  1.2599 -0.2458
  351MOL0     C47271   5.833   9.486  -0.522  0.8987 -0.1470  0.2430
  351MOL0     C47272   5.768   9.378  -0.604 -0.3171  0.2643  0.6812
  351MOL0     C47273   5.804   9.246  -0.539  0.8798  0.4657  0.1965
  351MOL0     O47274   5.723   9.222  -0.431  0.9163 -0.5955 -0.2038
  351MOL0     C47275   5.666   9.097  -0.408 -0.2608 -0.6365 -0.1084
  351MOL0     C47276   5.648   9.055  -0.277  0.1909  0.4775  0.5649
  351MOL0     C47277   5.582   8.939  -0.246  0.2832  0.3751 -0.2870
  351MOL0     C47278   5.565   8.910  -0.098  0.6260 -0.2355  0.0438
  351MOL0     C47279   5.543   8.853  -0.353  0.0149 -0.2391 -0.0799
  351MOL0     C47280   5.495   8.707  -0.344 -0.4921 -1.1718 -0.0212
  351MOL0     O47281   5.521   8.628  -0.452 -0.4058  0.5945  0.6228
  351MOL0     C47282   5.499   8.494  -0.429  1.2911  0.2740 -0.3192
  351MOL0     C47283   5.376   8.438  -0.378 -0.3084  0.4900 -1.1584
  351MOL0     C47284   5.353   8.295  -0.369 -0.2228 -0.0660  1.3737
  351MOL0     C47285   5.455   8.205  -0.387  0.0291  0.4117 -0.4423
  351MOL0     O47286   5.455   8.072  -0.373  0.6005  0.2053  0.5370
  351MOL0     C47287   5.395   8.024  -0.245 -0.5070 -0.1441 -0.0230
  351MOL0     C47288   5.458   7.882  -0.223  0.8656  0.0845  0.2136
  351MOL0     C47289   5.396   7.772  -0.306  0.4278  0.1782  0.4407
  351MOL0     C47290   5.420   7.635  -0.251  0.0399  0.5105 -0.5868
  351MOL0     C47291   5.335   7.527  -0.320 -0.0856 -0.4094  0.1256
  351MOL0     C47292   5.179   7.525  -0.292  0.2210  0.1510  0.1525
  351MOL0     C47293   5.115   7.382  -0.306  0.2553  0.5267 -0.4644
  351MOL0     C47294   4.962   7.385  -0.287  0.7322  0.2404 -0.4484
  351MOL0    Cl47295   4.916   7.436  -0.119  0.1641 -0.0335 -0.0305
  351MOL0     C47296   5.577   8.258  -0.432 -0.8350  0.5733 -0.0207
  351MOL0     C47297   5.597   8.394  -0.462  0.0835 -0.3761 -0.2564
  351MOL0     O47298   5.458   8.671  -0.232  0.1691  0.1363  0.2248
  351MOL0     C47299   5.554   8.900  -0.485 -0.3656 -0.8494 -1.1806
  351MOL0     C47300   5.607   9.024  -0.511 -0.2689 -0.3871  0.0613
  351MOL0     N47301   5.915   9.731  -0.368  1.0049 -0.1142 -1.1309
  351MOL0     N47302   5.996   9.823  -0.346 -1.1119 -0.8570  0.1987
  351MOL0     C47303   5.666  10.801   0.205  0.3710 -0.6284  0.7319
  351MOL0     C47304   5.562  10.872   0.274 -0.0542  0.0160  0.1108
  351MOL0     C47305   5.132  10.962   0.461  0.1153  0.4141 -0.1940
  351MOL0     C47306   5.128  11.089   0.403 -1.3062  0.7072  0.3039
  351MOL0     C47307   5.031  11.183   0.430  0.1935 -0.0079  0.7246
  351MOL0     C47308   4.934  11.153   0.528  0.8929  0.7688  0.7310
  351MOL0     O47309   4.834  11.240   0.566 -0.0608 -0.0471 -0.0329
  351MOL0     C47310   4.821  11.366   0.492 -0.0197 -0.0677  0.4846
  351MOL0     C47311   4.755  11.330   0.353 -0.0243 -0.6339 -0.2206
  351MOL0     C47312   4.702  11.455   0.287  0.3515 -0.0293  0.2680
  351MOL0     C47313   4.808  11.544   0.228 -1.7663 -0.3060  0.5139
  351MOL0     C47314   4.749  11.636   0.121  0.2353  1.6103 -0.3423
  351MOL0     C47315   4.678  11.693   0.041  0.2480  0.5762 -0.9381
  351MOL0     C47316   4.936  11.026   0.591  0.4138  0.1611  0.1012
  351MOL0     C47317   5.032  10.936   0.560 -0.5780  0.1834  0.7498
  351MOL0     H47318   5.334  10.630   0.323  0.7654  0.7115  1.4784
  351MOL0     H47319   5.505  10.498   0.206 -1.6824 -0.0215  2.1449
  351MOL0     H47320   5.736  10.610  -0.026 -0.9372  0.3983  1.4471
  351MOL0     H47321   5.875  10.704   0.043 -1.8505  1.1519 -1.0769
  351MOL0     H47322   6.002  10.493   0.065  1.2929  0.3135 -2.6740
  351MOL0     H47323   5.867  10.393   0.033  0.2380  0.9273  1.2932
  351MOL0     H47324   5.872  10.461  -0.207 -1.0471 -2.1207  2.3486
  351MOL0     H47325   5.983  10.594  -0.170  2.1205 -0.3979  0.6592
  351MOL0     H47326   6.133  10.466  -0.234  1.4947  4.2701  3.1020
  351MOL0     H47327   6.132  10.415  -0.067 -0.0389 -1.5117 -0.0178
  351MOL0     H47328   6.139  10.212  -0.206  2.2592  2.4757  2.7446
  351MOL0     H47329   5.977  10.219  -0.123 -1.5144 -0.4768 -2.4775
  351MOL0     H47330   5.894  10.325  -0.356  0.2831  2.7806  3.2619
  351MOL0     H47331   6.058  10.293  -0.411 -0.4284  0.8854 -0.1386
  351MOL0     H47332   5.934  10.069  -0.286  0.3120 -0.2815  0.0972
  351MOL0     H47333   5.845  10.122  -0.422 -0.5213 -1.0408  2.3856
  351MOL0     H47334   6.140  10.050  -0.392 -1.5011 -3.0568  3.0168
  351MOL0     H47335   6.071  10.083  -0.553 -2.6631 -2.3966 -2.5198
  351MOL0     H47336   5.947   9.891  -0.656  2.4543  0.1381 -0.1169
  351MOL0     H47337   5.696   9.644  -0.544  1.0544 -1.3948  3.4349
  351MOL0     H47338   5.829   9.629  -0.668  3.4684 -2.5255  0.3068
  351MOL0     H47339   5.809   9.475  -0.416  1.9726  2.1350  0.7839
  351MOL0     H47340   5.938   9.465  -0.543  0.3321 -2.5883 -0.5282
  351MOL0     H47341   5.800   9.388  -0.709  1.7736  1.6189  1.3835
  351MOL0     H47342   5.661   9.403  -0.601 -0.0819  1.3267  0.5804
  351MOL0     H47343   5.911   9.239  -0.518  1.2636 -1.6388 -1.9352
  351MOL0     H47344   5.801   9.170  -0.618  1.9028  0.7152 -0.0906
  351MOL0     H47345   5.709   9.108  -0.205  0.2508 -1.4720  2.0317
  351MOL0     H47346   5.598   8.806  -0.087 -0.9769 -0.9351 -1.3225
  351MOL0     H47347   5.622   8.977  -0.033 -0.0611  0.5669 -0.1706
  351MOL0     H47348   5.457   8.909  -0.087  0.6853 -1.8502  0.8272
  351MOL0     H47349   5.298   8.504  -0.341  0.7376 -0.1847  2.6049
  351MOL0     H47350   5.256   8.262  -0.333 -0.2349 -0.1687  1.2477
  351MOL0     H47351   5.415   8.093  -0.162  1.5265 -1.7946  0.9821
  351MOL0     H47352   5.288   8.002  -0.250  0.0383 -3.6741  0.9359
  351MOL0     H47353   5.565   7.872  -0.247  1.4859 -1.6255  3.0887
  351MOL0     H47354   5.431   7.860  -0.119 -1.8965 -2.3859 -0.8864
  351MOL0     H47355   5.437   7.764  -0.407  0.1694  2.3032  0.1289
  351MOL0     H47356   5.289   7.790  -0.313  0.2094 -1.3017 -0.5684
  351MOL0     H47357   5.525   7.610  -0.265 -0.0637 -1.8238  1.8968
  351MOL0     H47358   5.382   7.637  -0.148 -2.9156 -4.4244 -1.2447
  351MOL0     H47359   5.370   7.433  -0.276  0.0323 -1.1712 -1.5145
  351MOL0     H47360   5.368   7.533  -0.424  2.1581  1.2545  0.8495
  351MOL0     H47361   5.164   7.568  -0.192  0.2044 -0.2181  0.3108
  351MOL0     H47362   5.130   7.593  -0.361 -0.0616  1.5373  1.6617
  351MOL0     H47363   5.160   7.320  -0.228  0.3602 -1.8774 -2.3330
  351MOL0     H47364   5.140   7.341  -0.404  2.6449 -2.1307  1.1059
  351MOL0     H47365   4.917   7.286  -0.302  0.7512 -0.2531  2.3083
  351MOL0     H47366   4.925   7.464  -0.353  2.3271  0.1148 -1.5715
  351MOL0     H47367   5.656   8.184  -0.446 -1.0179 -0.3624  3.1108
  351MOL0     H47368   5.693   8.423  -0.502  0.3721  2.1887  1.9361
  351MOL0     H47369   5.515   8.840  -0.566 -1.4754  0.9530 -2.0448
  351MOL0     H47370   5.614   9.069  -0.610 -1.2557 -2.1274 -0.8461
  351MOL0     H47371   5.759  10.856   0.192  0.9100 -2.1824 -3.3773
  351MOL0     H47372   5.575  10.980   0.271 -0.3271  0.0529  0.2858
  351MOL0     H47373   5.202  11.105   0.325 -1.8817 -0.5559 -0.5371
  351MOL0     H47374   5.032  11.286   0.396 -0.3077  0.0725  0.9480
  351MOL0     H47375   4.754  11.431   0.549  2.7067  3.2649  0.2292
  351MOL0     H47376   4.912  11.423   0.473 -1.1775  0.9989 -2.4297
  351MOL0     H47377   4.671  11.262   0.370 -1.1093  1.0471  1.5165
  351MOL0     H47378   4.824  11.272   0.292  0.9568  1.4077 -1.1428
  351MOL0     H47379   4.652  11.520   0.360  1.2437  2.4412 -1.2098
  351MOL0     H47380   4.627  11.422   0.215 -0.4768  1.3427  0.4623
  351MOL0     H47381   4.884  11.489   0.171 -1.6726 -0.6943  1.0119
  351MOL0     H47382   4.867  11.603   0.299  0.7163 -0.1587 -1.4939
  351MOL0     H47383   4.625  11.735  -0.042 -2.6434  1.1215  1.0192
  351MOL0     H47384   4.854  11.014   0.662 -0.0756  1.0705 -0.2940
  351MOL0     H47385   5.041  10.844   0.617 -3.0189  0.2856  1.3933
  352MOL0     O47386   0.437   7.515   5.869 -0.4794  0.5087 -0.3170
  352MOL0     C47387   0.546   7.474   5.840  0.1267  0.3654 -0.5128
  352MOL0     O47388   0.594   7.349   5.853 -0.7788  0.0048  0.4348
  352MOL0     C47389   0.507   7.247   5.879  0.4274 -0.3444  1.0464
  352MOL0     C47390   0.414   7.238   5.980  0.2189 -0.4073  0.9168
  352MOL0     C47391   0.343   7.121   5.995  0.8202 -0.0150 -0.9022
  352MOL0     C47392   0.372   7.001   5.929 -0.4636  0.4556  0.0523
  352MOL0     O47393   0.319   6.876   5.952 -0.1051  0.0243  0.2750
  352MOL0     C47394   0.215   6.875   6.050 -0.3267  0.2227 -0.4466
  352MOL0     C47395   0.167   6.733   6.049  0.4368  0.7311  0.4855
  352MOL0     C47396   0.102   6.685   5.921  0.4473  0.3036  0.2331
  352MOL0     C47397   0.008   6.571   5.960  0.1938  0.1487 -0.4536
  352MOL0     C47398  -0.036   6.495   5.836 -0.0861  0.0929 -0.6238
  352MOL0     C47399  -0.123   6.575   5.742  1.2075 -0.4735 -0.3767
  352MOL0     C47400  -0.138   6.524   5.603 -0.0805  0.3066 -0.7830
  352MOL0     C47401  -0.266   6.589   5.539  0.3186  0.2373 -0.1906
  352MOL0     N47402  -0.292   6.549   5.397 -0.7747 -0.0155  0.1365
  352MOL0     C47403  -0.201   6.506   5.307  0.5486  1.0055  1.1487
  352MOL0     C47404  -0.266   6.504   5.197 -0.3275  0.8521  0.1926
  352MOL0     C47405  -0.216   6.453   5.066 -0.2338  0.0313  0.7719
  352MOL0     C47406  -0.167   6.310   5.078  0.6987  0.5340  0.9790
  352MOL0     C47407  -0.274   6.185   5.084  0.0423 -0.3261  0.1185
  352MOL0     C47408  -0.380   6.172   4.971  0.0225  0.8629 -0.3688
  352MOL0     O47409  -0.312   6.120   4.851 -0.1458 -0.4193  0.4860
  352MOL0     C47410  -0.309   5.981   4.826  0.1819  0.6280 -0.8204
  352MOL0     C47411  -0.347   5.883   4.927  0.1667 -0.3496  0.3733
  352MOL0     C47412  -0.358   5.747   4.895  0.0021 -0.2160 -0.7533
  352MOL0     C47413  -0.406   5.651   5.005  0.4023  0.3566 -0.2078
  352MOL0     C47414  -0.326   5.705   4.757 -0.9703  0.2277  0.6142
  352MOL0     C47415  -0.337   5.564   4.707 -0.2558  0.1013 -0.1058
  352MOL0     O47416  -0.278   5.531   4.591  0.2495 -0.2374 -0.0938
  352MOL0     C47417  -0.331   5.429   4.516  0.5216  0.2470 -0.2522
  352MOL0     C47418  -0.250   5.356   4.435 -0.2057 -0.3963  0.1080
  352MOL0     C47419  -0.286   5.276   4.331 -0.3172  0.2019 -0.3536
  352MOL0     C47420  -0.420   5.245   4.307 -0.3691 -0.3000 -0.8029
  352MOL0     O47421  -0.457   5.170   4.205  0.0526  0.3809  1.2371
  352MOL0     C47422  -0.417   5.038   4.211  0.3241 -0.5140  0.7907
  352MOL0     C47423  -0.526   4.960   4.286 -0.6211  0.0619 -0.8013
  352MOL0     C47424  -0.675   4.985   4.246 -0.0980  1.1006 -0.2419
  352MOL0     C47425  -0.763   4.937   4.368 -0.0061  0.2191  0.0732
  352MOL0     C47426  -0.743   4.792   4.411 -0.2503 -0.3779  0.4523
  352MOL0     C47427  -0.872   4.739   4.488 -0.8039 -0.4358 -0.5096
  352MOL0     C47428  -0.888   4.588   4.478  0.4359  0.0130  1.2746
  352MOL0     C47429  -0.839   4.525   4.607  0.6650 -0.4793 -0.4640
  352MOL0    Cl47430  -0.885   4.355   4.616  0.0485  0.1801 -0.0498
  352MOL0     C47431  -0.506   5.315   4.386  0.0101 -0.5451  0.1581
  352MOL0     C47432  -0.467   5.408   4.485 -0.4589  0.3789 -0.6901
  352MOL0     O47433  -0.410   5.488   4.770 -0.5637 -0.3329  0.5199
  352MOL0     C47434  -0.273   5.800   4.671 -0.2475  0.2074  0.3238
  352MOL0     C47435  -0.272   5.931   4.697  0.3508  0.3705 -0.0683
  352MOL0     N47436  -0.405   6.524   5.219  0.3252 -0.5995  0.3520
  352MOL0     N47437  -0.417   6.545   5.348 -0.5383  1.0677  0.4020
  352MOL0     C47438   0.460   7.016   5.820 -0.5645  0.1665  0.7957
  352MOL0     C47439   0.541   7.133   5.806  0.5782  0.0735 -0.2868
  352MOL0     C47440   0.633   7.578   5.776  0.9902 -0.4126 -0.0132
  352MOL0     C47441   0.595   7.715   5.771  0.1824 -0.4603  0.5306
  352MOL0     C47442   0.690   7.815   5.730  0.1674 -0.0445  0.9401
  352MOL0     C47443   0.815   7.775   5.691  0.1483 -0.1048  0.9199
  352MOL0     O47444   0.908   7.857   5.645  0.2444 -0.3319  0.3093
  352MOL0     C47445   0.923   7.978   5.709 -0.5062  0.0087  0.5242
  352MOL0     C47446   1.075   8.023   5.717  0.5661 -0.6256  0.0141
  352MOL0     C47447   1.119   7.991   5.863  0.4992 -0.2515  0.3340
  352MOL0     C47448   1.266   8.010   5.890 -0.4698  1.0181 -0.3439
  352MOL0     C47449   1.314   8.147   5.911  0.0239 -0.1387  0.4927
  352MOL0     C47450   1.343   8.258   5.918 -0.5290 -0.3827 -0.3863
  352MOL0     C47451   0.849   7.641   5.686 -0.1953  0.3490  0.0173
  352MOL0     C47452   0.764   7.546   5.732 -0.1646 -0.2247 -0.2576
  352MOL0     H47453   0.393   7.333   6.028  1.3061  0.5530 -0.4189
  352MOL0     H47454   0.263   7.126   6.068  0.6514  0.8783 -1.1315
  352MOL0     H47455   0.233   6.910   6.152 -4.3801  5.2583 -1.0169
  352MOL0     H47456   0.132   6.940   6.022  0.3845  0.6445 -1.6630
  352MOL0     H47457   0.258   6.679   6.075  2.5201  4.0787  0.7574
  352MOL0     H47458   0.108   6.728   6.141  1.0972 -0.8734  0.8499
  352MOL0     H47459   0.039   6.768   5.889  1.6273  2.2699  2.6662
  352MOL0     H47460   0.185   6.665   5.852  1.7265 -0.9138  2.0441
  352MOL0     H47461   0.059   6.493   6.018 -2.0054  0.7023  2.4296
  352MOL0     H47462  -0.076   6.597   6.025 -0.1543 -3.3479  0.6882
  352MOL0     H47463   0.048   6.456   5.778  1.3058  2.4147 -0.2955
  352MOL0     H47464  -0.086   6.406   5.876  0.7277  0.3200  0.9819
  352MOL0     H47465  -0.225   6.585   5.781  0.8643 -3.8385 -0.1291
  352MOL0     H47466  -0.089   6.679   5.738 -1.8954  0.8340  2.1994
  352MOL0     H47467  -0.053   6.556   5.543  1.5500  0.4929  1.5096
  352MOL0     H47468  -0.160   6.417   5.596 -0.8166  0.4872 -1.5316
  352MOL0     H47469  -0.261   6.698   5.548 -1.6349  0.4173 -0.8087
  352MOL0     H47470  -0.352   6.567   5.603  1.4192  0.2308  1.3360
  352MOL0     H47471  -0.097   6.477   5.316  1.1417  1.9644 -1.6462
  352MOL0     H47472  -0.292   6.476   4.991  0.8313  3.4595  0.5808
  352MOL0     H47473  -0.141   6.520   5.023 -1.1573 -0.9814 -2.8106
  352MOL0     H47474  -0.103   6.296   5.165  1.4036 -1.3326  0.2112
  352MOL0     H47475  -0.091   6.299   5.000 -1.4508  0.2363 -1.1981
  352MOL0     H47476  -0.327   6.195   5.179  0.2523  1.8750  0.0539
  352MOL0     H47477  -0.210   6.096   5.089  0.8614  0.2685  0.4191
  352MOL0     H47478  -0.433   6.266   4.955 -0.8438  0.3120 -0.8179
  352MOL0     H47479  -0.457   6.101   5.002  2.6139 -1.8761  0.3186
  352MOL0     H47480  -0.369   5.896   5.032 -0.6947  0.1150  0.1433
  352MOL0     H47481  -0.342   5.566   5.028  2.1751  2.1602  2.1220
  352MOL0     H47482  -0.411   5.712   5.096  0.0536  0.6297 -0.4049
  352MOL0     H47483  -0.508   5.619   4.983 -0.1687  0.2691  2.2699
  352MOL0     H47484  -0.146   5.369   4.462 -0.9815 -0.9037  3.8567
  352MOL0     H47485  -0.209   5.230   4.270 -1.0287  2.0477 -2.8302
  352MOL0     H47486  -0.423   5.007   4.107 -1.0566  0.1512  0.6450
  352MOL0     H47487  -0.318   5.022   4.254 -0.2768 -0.0213  2.4755
  352MOL0     H47488  -0.497   4.855   4.285 -2.8919 -0.6999  1.3429
  352MOL0     H47489  -0.518   4.988   4.392  0.9193  3.3270 -1.6489
  352MOL0     H47490  -0.701   4.918   4.164 -0.6501  0.1575  0.6805
  352MOL0     H47491  -0.699   5.084   4.205  0.6072  1.9121  1.1977
  352MOL0     H47492  -0.756   4.996   4.460  0.4991 -3.3618  2.5373
  352MOL0     H47493  -0.869   4.939   4.341 -0.4963  0.2589  1.8925
  352MOL0     H47494  -0.654   4.770   4.470  0.0045 -0.1702  0.1479
  352MOL0     H47495  -0.742   4.725   4.325  0.2344 -1.0434  0.9608
  352MOL0     H47496  -0.865   4.772   4.592  0.4147 -2.0872 -0.0293
  352MOL0     H47497  -0.959   4.788   4.443 -1.4735  0.3057  1.4753
  352MOL0     H47498  -0.837   4.555   4.387 -0.3277 -2.6369  1.7229
  352MOL0     H47499  -0.996   4.574   4.472  0.6258 -2.2916  2.1739
  352MOL0     H47500  -0.870   4.579   4.696  1.2798  0.6491 -0.9146
  352MOL0     H47501  -0.730   4.521   4.617  0.7086  2.9995  2.4841
  352MOL0     H47502  -0.609   5.300   4.354  0.3930 -1.0244 -0.8868
  352MOL0     H47503  -0.545   5.450   4.548 -1.1101 -2.8476  0.8325
  352MOL0     H47504  -0.233   5.768   4.576 -1.4069 -0.6590  0.1106
  352MOL0     H47505  -0.244   6.009   4.627 -3.9749  3.2706  0.9859
  352MOL0     H47506   0.477   6.934   5.752 -2.2000 -1.4351  2.2258
  352MOL0     H47507   0.620   7.148   5.734  0.3008 -1.6550 -1.0066
  352MOL0     H47508   0.497   7.758   5.789  0.0300  0.0406 -1.2658
  352MOL0     H47509   0.653   7.917   5.731  0.0172  0.0474 -2.2321
  352MOL0     H47510   0.865   8.051   5.653  1.2666 -0.2306 -1.7977
  352MOL0     H47511   0.887   7.965   5.811 -1.6053 -2.8169 -0.1275
  352MOL0     H47512   1.081   8.130   5.695 -1.1903 -1.0257 -2.9145
  352MOL0     H47513   1.141   7.989   5.637  0.5503  2.3546 -1.4155
  352MOL0     H47514   1.087   7.887   5.879 -5.3230 -0.1883 -6.2594
  352MOL0     H47515   1.073   8.062   5.932  2.2132 -0.3864  1.6777
  352MOL0     H47516   1.317   7.952   5.813 -2.3975  0.7035 -1.4416
  352MOL0     H47517   1.298   7.970   5.987 -0.5918  1.0989 -0.2706
  352MOL0     H47518   1.362   8.363   5.931 -0.7544 -0.5476  1.5838
  352MOL0     H47519   0.948   7.612   5.651 -1.0251  0.3201 -2.5066
  352MOL0     H47520   0.805   7.447   5.745  0.5050 -0.0441 -0.9125
  353MOL0     O47521   2.370   1.155   1.655 -0.4427 -0.0323  0.9232
  353MOL0     C47522   2.286   1.183   1.570 -0.3217  0.9606 -0.3912
  353MOL0     O47523   2.306   1.193   1.427 -0.2686  0.7960 -1.1874
  353MOL0     C47524   2.426   1.176   1.371 -0.6062 -0.6335 -0.2190
  353MOL0     C47525   2.430   1.170   1.236  0.9141  0.3774  1.3037
  353MOL0     C47526   2.544   1.144   1.158  0.8644  0.6519  1.4962
  353MOL0     C47527   2.667   1.136   1.221 -0.5479 -0.0922  0.4271
  353MOL0     O47528   2.794   1.143   1.161 -0.3106  0.1046  0.3683
  353MOL0     C47529   2.792   1.218   1.038 -0.3420 -0.4556  0.8940
  353MOL0     C47530   2.937   1.236   0.976  0.9066 -0.1613  0.3127
  353MOL0     C47531   3.006   1.337   1.059 -0.3737  0.3269  0.0964
  353MOL0     C47532   3.115   1.400   0.971  0.2521 -0.0539  0.6390
  353MOL0     C47533   3.166   1.523   1.040 -0.5172  1.2267 -0.7302
  353MOL0     C47534   3.307   1.579   1.002 -0.0312  0.3028  0.4501
  353MOL0     C47535   3.339   1.697   1.098  0.2225  0.0782 -0.1290
  353MOL0     C47536   3.481   1.754   1.101 -0.3620  0.4390  0.0424
  353MOL0     N47537   3.498   1.887   1.158 -0.4845 -0.1556 -0.0017
  353MOL0     C47538   3.576   1.983   1.109 -1.7901  0.2048  0.4400
  353MOL0     C47539   3.558   2.092   1.186 -0.1909 -0.0205 -0.4483
  353MOL0     C47540   3.611   2.227   1.145  0.0948  0.1151  0.4501
  353MOL0     C47541   3.738   2.257   1.228 -0.2380  0.2119 -0.1987
  353MOL0     C47542   3.723   2.375   1.320 -0.2253  0.1477 -0.6662
  353MOL0     C47543   3.624   2.353   1.428 -0.7382 -0.6706  0.3411
  353MOL0     O47544   3.635   2.466   1.524 -0.3105  0.7945  1.0594
  353MOL0     C47545   3.557   2.475   1.632  0.3822 -0.6454 -0.0179
  353MOL0     C47546   3.583   2.566   1.731  0.0385 -0.0802 -0.5362
  353MOL0     C47547   3.496   2.564   1.851 -0.4820 -0.3801 -0.8984
  353MOL0     C47548   3.539   2.655   1.967 -0.3130 -0.3542 -0.9500
  353MOL0     C47549   3.387   2.483   1.866 -0.5852 -0.6318  0.1822
  353MOL0     C47550   3.292   2.475   1.979 -0.2945  0.9196 -0.7887
  353MOL0     O47551   3.163   2.449   1.941  0.6988  0.8046  0.1109
  353MOL0     C47552   3.075   2.467   2.043 -0.2612  0.0093 -0.7146
  353MOL0     C47553   3.029   2.349   2.113 -0.4706  0.3723  0.3559
  353MOL0     C47554   2.940   2.369   2.214  0.6530 -0.0142 -0.2290
  353MOL0     C47555   2.894   2.499   2.259  0.4234  0.3202 -0.4533
  353MOL0     O47556   2.802   2.499   2.368 -1.1535  0.0059 -0.0738
  353MOL0     C47557   2.746   2.626   2.405  0.9371  0.2107  0.2426
  353MOL0     C47558   2.630   2.667   2.317 -0.3532  0.4786  0.7658
  353MOL0     C47559   2.501   2.597   2.354 -0.0291  0.0233 -0.6602
  353MOL0     C47560   2.387   2.693   2.345  0.7614  0.0978 -0.0620
  353MOL0     C47561   2.243   2.641   2.367 -0.0908  0.4376  0.0926
  353MOL0     C47562   2.142   2.749   2.422 -0.6517  0.3479 -0.1626
  353MOL0     C47563   2.136   2.853   2.303 -1.0743  0.4646 -0.0323
  353MOL0     C47564   2.016   2.951   2.308 -0.7038 -0.9897  0.3022
  353MOL0    Cl47565   2.023   3.028   2.468 -0.1517  0.3813 -0.0031
  353MOL0     C47566   2.952   2.622   2.195 -0.4536  0.7105 -0.1076
  353MOL0     C47567   3.043   2.601   2.087 -0.6225  0.5597  0.6249
  353MOL0     O47568   3.331   2.504   2.093 -0.1025  0.0334 -0.3730
  353MOL0     C47569   3.358   2.406   1.754  0.3732 -0.3744 -0.4720
  353MOL0     C47570   3.447   2.387   1.648  0.2793 -0.6129 -0.3257
  353MOL0     N47571   3.482   2.050   1.294 -1.0078 -0.4491  0.2260
  353MOL0     N47572   3.437   1.924   1.279 -0.5860 -0.8654  0.0068
  353MOL0     C47573   2.661   1.129   1.358 -0.5437 -0.6255 -0.7076
  353MOL0     C47574   2.548   1.152   1.432  0.9239 -0.1072  0.2586
  353MOL0     C47575   2.142   1.174   1.618 -1.3102 -0.0516  0.7073
  353MOL0     C47576   2.042   1.193   1.523  0.5777 -0.3572  0.2565
  353MOL0     C47577   1.909   1.196   1.562  0.4399  0.2579 -0.5564
  353MOL0     C47578   1.873   1.186   1.702 -0.5346 -0.7231  0.7324
  353MOL0     O47579   1.749   1.197   1.737 -0.0813  0.3323  0.0241
  353MOL0     C47580   1.697   1.148   1.868 -0.4728 -0.2086  1.2990
  353MOL0     C47581   1.702   0.992   1.866  0.2283  0.5451 -1.1188
  353MOL0     C47582   1.638   0.923   1.743  1.4991  0.3877  0.7039
  353MOL0     C47583   1.683   0.771   1.745 -0.1144 -0.0272 -0.4201
  353MOL0     C47584   1.616   0.702   1.856  0.3074  0.8894 -0.0530
  353MOL0     C47585   1.552   0.644   1.948  0.4446  0.5651 -0.3850
  353MOL0     C47586   1.978   1.173   1.787  0.5215 -0.0707 -0.8383
  353MOL0     C47587   2.111   1.171   1.751  0.4894 -0.5437  0.0431
  353MOL0     H47588   2.341   1.190   1.178 -0.4330 -4.1253  1.4293
  353MOL0     H47589   2.519   1.130   1.053  0.6891  2.7102  1.2201
  353MOL0     H47590   2.734   1.157   0.968  0.7322 -2.2351  1.4827
  353MOL0     H47591   2.745   1.315   1.055  0.4419 -0.4337  3.3436
  353MOL0     H47592   2.988   1.140   0.989  0.0777 -0.8472 -1.2107
  353MOL0     H47593   2.928   1.258   0.869  2.7732  1.6278  0.4757
  353MOL0     H47594   2.923   1.406   1.079 -0.8537  0.4856 -2.1445
  353MOL0     H47595   3.039   1.297   1.156  3.0753 -2.3072 -1.9400
  353MOL0     H47596   3.197   1.332   0.949 -0.8642 -2.0367  2.1803
  353MOL0     H47597   3.061   1.415   0.877  1.1688 -4.6417 -0.8785
  353MOL0     H47598   3.089   1.596   1.017 -2.5519 -0.1599  1.2422
  353MOL0     H47599   3.165   1.501   1.147 -1.0703  2.1157 -0.5489
  353MOL0     H47600   3.384   1.502   0.999  0.2948  0.5897  1.1623
  353MOL0     H47601   3.291   1.620   0.902 -1.5341  2.4707  1.4899
  353MOL0     H47602   3.282   1.785   1.066  1.1076  0.7413  0.0551
  353MOL0     H47603   3.315   1.675   1.202  1.1291  2.0222  0.5392
  353MOL0     H47604   3.529   1.744   1.003  2.9420  1.6314  1.3587
  353MOL0     H47605   3.540   1.693   1.171  1.1382  2.7457  0.9141
  353MOL0     H47606   3.618   1.981   1.009 -0.0327 -2.1524  1.1375
  353MOL0     H47607   3.638   2.233   1.039  0.8364  1.5594  0.6990
  353MOL0     H47608   3.535   2.305   1.156 -0.4342 -0.5941  2.1193
  353MOL0     H47609   3.812   2.271   1.148 -0.8128 -1.8778 -1.1480
  353MOL0     H47610   3.778   2.166   1.273  2.0400  1.6235  0.8166
  353MOL0     H47611   3.684   2.451   1.251 -1.2355  0.5946  0.3571
  353MOL0     H47612   3.820   2.405   1.360  0.6697  0.7310 -3.0942
  353MOL0     H47613   3.660   2.261   1.476 -0.8921 -0.8037  0.2040
  353MOL0     H47614   3.524   2.342   1.384 -0.7090 -0.0654  0.1205
  353MOL0     H47615   3.672   2.627   1.723  1.5322 -2.0964 -0.2323
  353MOL0     H47616   3.587   2.589   2.040 -0.4304 -0.7035 -1.1882
  353MOL0     H47617   3.612   2.728   1.930  2.1997 -2.3002 -0.1565
  353MOL0     H47618   3.454   2.707   2.014 -0.5736 -1.8941  0.3584
  353MOL0     H47619   3.055   2.250   2.076  2.1781  1.5120 -1.0790
  353MOL0     H47620   2.900   2.277   2.256 -0.7974 -0.4936 -2.5110
  353MOL0     H47621   2.720   2.619   2.511  1.0656  3.1596  0.5382
  353MOL0     H47622   2.818   2.707   2.396  0.6232  0.3767 -0.8668
  353MOL0     H47623   2.623   2.775   2.328  0.4037  0.4506  1.6837
  353MOL0     H47624   2.651   2.636   2.214 -2.0639 -3.8416  1.4865
  353MOL0     H47625   2.507   2.551   2.453 -2.4415  0.7901 -0.0761
  353MOL0     H47626   2.478   2.523   2.277  0.2675  0.6049 -1.3101
  353MOL0     H47627   2.397   2.778   2.413 -0.8406 -1.1069  1.8129
  353MOL0     H47628   2.400   2.737   2.246 -0.3547 -1.2654 -0.8589
  353MOL0     H47629   2.246   2.558   2.438  0.0518 -0.9486 -1.4785
  353MOL0     H47630   2.212   2.598   2.271  0.8118 -0.1031  0.0296
  353MOL0     H47631   2.043   2.713   2.451  0.4194 -0.6094  2.7025
  353MOL0     H47632   2.178   2.796   2.514  0.3419  2.5583 -1.6096
  353MOL0     H47633   2.109   2.798   2.212 -1.0763  4.9162 -2.9889
  353MOL0     H47634   2.228   2.909   2.285 -2.2517  2.0796 -1.2920
  353MOL0     H47635   1.924   2.891   2.308  1.0734 -3.9008  0.3634
  353MOL0     H47636   2.019   3.026   2.228  0.7203  0.0695  1.3012
  353MOL0     H47637   2.930   2.722   2.231  1.6574  0.0699  3.5686
  353MOL0     H47638   3.103   2.678   2.039 -0.0295  0.1655  0.7209
  353MOL0     H47639   3.260   2.358   1.751 -0.8482  1.5148  3.1737
  353MOL0     H47640   3.418   2.324   1.565 -4.0133  1.0465 -0.3223
  353MOL0     H47641   2.756   1.122   1.410  1.3791  0.4745 -3.8062
  353MOL0     H47642   2.558   1.127   1.537 -0.9890 -2.8876 -0.0979
  353MOL0     H47643   2.053   1.209   1.416 -0.7277  3.5562  0.5058
  353MOL0     H47644   1.830   1.208   1.489  2.0471 -0.7876 -2.5407
  353MOL0     H47645   1.759   1.188   1.949  0.0867 -2.6414  2.1527
  353MOL0     H47646   1.595   1.188   1.870  0.2206  1.7794  0.1414
  353MOL0     H47647   1.631   0.976   1.947 -0.4194  4.5380 -0.7239
  353MOL0     H47648   1.803   0.954   1.886 -0.5319 -0.6619  0.6749
  353MOL0     H47649   1.675   0.960   1.647 -0.2269  0.8842  0.2072
  353MOL0     H47650   1.529   0.929   1.741  1.3424 -1.2326  2.0742
  353MOL0     H47651   1.790   0.770   1.764 -0.4739 -0.5678  1.8201
  353MOL0     H47652   1.658   0.720   1.652  1.7804 -2.6122  0.3891
  353MOL0     H47653   1.488   0.605   2.024  3.0347  0.0583  1.6929
  353MOL0     H47654   1.957   1.201   1.890  0.7018 -2.0419 -0.2295
  353MOL0     H47655   2.197   1.159   1.816 -0.9827 -1.3724  1.9455
  354MOL0     O47656   8.350   1.753   4.829 -0.0884 -0.5819  0.1664
  354MOL0     C47657   8.278   1.661   4.872 -0.0514 -0.0070  0.0468
  354MOL0     O47658   8.190   1.662   4.979  0.5174 -0.9327 -0.0398
  354MOL0     C47659   8.211   1.762   5.077  0.1436 -0.5840 -0.0901
  354MOL0     C47660   8.338   1.815   5.111  0.9938  0.0099  0.8094
  354MOL0     C47661   8.351   1.928   5.192  0.2922 -1.0522  0.7185
  354MOL0     C47662   8.235   1.995   5.237  0.1777 -0.6426 -0.4603
  354MOL0     O47663   8.240   2.113   5.315  0.4578  0.0445  0.4325
  354MOL0     C47664   8.337   2.217   5.285 -0.3664 -0.1596 -0.4192
  354MOL0     C47665   8.358   2.293   5.424  0.0735  0.8043  0.4589
  354MOL0     C47666   8.408   2.434   5.407 -0.0974 -0.4649  0.3783
  354MOL0     C47667   8.370   2.511   5.527  1.2925  0.2068  0.6203
  354MOL0     C47668   8.415   2.657   5.523  0.2045 -0.1782  0.1539
  354MOL0     C47669   8.422   2.737   5.657  0.1175  0.0641  0.2274
  354MOL0     C47670   8.278   2.733   5.716  0.1799  1.1873 -0.6991
  354MOL0     C47671   8.267   2.831   5.840 -0.7626  0.9540 -0.3892
  354MOL0     N47672   8.183   2.945   5.817 -0.1102 -0.4818 -0.1054
  354MOL0     C47673   8.238   3.072   5.796 -0.9435  0.0643 -0.0267
  354MOL0     C47674   8.138   3.138   5.727 -0.8090 -0.7513  0.1990
  354MOL0     C47675   8.129   3.286   5.682  0.6654  0.7460  0.0521
  354MOL0     C47676   8.090   3.384   5.791 -0.4426  0.6487  0.3058
  354MOL0     C47677   8.184   3.386   5.914  0.8698  0.0387 -0.5020
  354MOL0     C47678   8.125   3.471   6.035 -0.5327 -0.1525  1.0074
  354MOL0     O47679   8.092   3.602   6.000 -0.1408 -0.6608 -0.4932
  354MOL0     C47680   8.136   3.715   6.072  1.0712 -0.8903  0.6752
  354MOL0     C47681   8.121   3.836   6.013 -0.1641  1.0937 -0.0242
  354MOL0     C47682   8.156   3.953   6.078 -0.0981 -0.2909 -0.9079
  354MOL0     C47683   8.160   4.081   5.994 -0.0090 -0.0051  0.1350
  354MOL0     C47684   8.208   3.944   6.211 -0.6845  0.0824 -0.7326
  354MOL0     C47685   8.241   4.059   6.303  0.2898 -0.8246  0.7618
  354MOL0     O47686   8.188   4.179   6.258  0.5942  0.2949  0.1487
  354MOL0     C47687   8.244   4.288   6.309 -0.2975 -0.1323  0.6703
  354MOL0     C47688   8.189   4.355   6.421  0.5702  0.5070 -0.6872
  354MOL0     C47689   8.242   4.470   6.484  0.3582  0.5354 -0.4164
  354MOL0     C47690   8.353   4.517   6.436 -0.5305  0.6842 -0.0328
  354MOL0     O47691   8.412   4.623   6.504 -0.7304 -0.2447  0.5318
  354MOL0     C47692   8.344   4.738   6.563  0.0261  0.1435  0.2045
  354MOL0     C47693   8.397   4.754   6.704  0.3823  0.4540 -0.9473
  354MOL0     C47694   8.371   4.638   6.801 -0.4952 -0.2599 -0.8125
  354MOL0     C47695   8.425   4.682   6.946 -0.3263  0.4258  1.2626
  354MOL0     C47696   8.341   4.795   7.018 -0.8305  0.2141  0.0641
  354MOL0     C47697   8.404   4.936   7.003 -0.1084 -0.1202 -0.3704
  354MOL0     C47698   8.329   5.035   7.094 -0.0537 -0.5640 -0.6298
  354MOL0     C47699   8.354   5.187   7.046 -0.0014  0.5964  0.1183
  354MOL0    Cl47700   8.235   5.216   6.911  0.0459  0.0234  0.3123
  354MOL0     C47701   8.416   4.462   6.322  0.7784 -0.1333  0.4553
  354MOL0     C47702   8.363   4.346   6.250 -0.5693 -0.1614 -0.4224
  354MOL0     O47703   8.332   4.036   6.381 -0.1241 -0.7907  0.5273
  354MOL0     C47704   8.224   3.816   6.264 -0.1934 -0.5849 -0.8055
  354MOL0     C47705   8.178   3.701   6.203  1.0853  0.6018  0.7453
  354MOL0     N47706   8.037   3.056   5.696  0.8094  0.8306  0.1881
  354MOL0     N47707   8.060   2.949   5.762  0.0093  0.0096 -0.0500
  354MOL0     C47708   8.110   1.927   5.224  0.4994  0.2845 -0.8977
  354MOL0     C47709   8.097   1.817   5.143 -0.1229 -0.1161  0.8306
  354MOL0     C47710   8.281   1.530   4.799  0.6826 -0.4028  0.3208
  354MOL0     C47711   8.365   1.515   4.687  0.0004  0.0704  0.1579
  354MOL0     C47712   8.350   1.409   4.600 -0.2036  0.0208 -0.1900
  354MOL0     C47713   8.257   1.308   4.632 -0.3891 -0.2972  0.7487
  354MOL0     O47714   8.263   1.201   4.544  0.5679  0.4636 -0.5554
  354MOL0     C47715   8.163   1.092   4.547  0.0477  0.8180 -0.6240
  354MOL0     C47716   8.170   0.989   4.422 -0.0970  0.1787  0.2067
  354MOL0     C47717   8.306   0.926   4.406 -0.4727 -0.0319  0.2971
  354MOL0     C47718   8.303   0.819   4.296 -0.0112 -0.1124 -0.6856
  354MOL0     C47719   8.415   0.813   4.207 -0.0070 -0.6832  0.1329
  354MOL0     C47720   8.504   0.803   4.124  0.0149  0.1058 -0.0808
  354MOL0     C47721   8.172   1.318   4.742  0.4246 -0.0660  0.9179
  354MOL0     C47722   8.183   1.432   4.818  0.4003 -0.3544 -0.2310
  354MOL0     H47723   8.421   1.751   5.082  0.0938 -0.8063 -0.0240
  354MOL0     H47724   8.443   1.983   5.210  0.0269 -0.5833  0.6528
  354MOL0     H47725   8.430   2.174   5.248 -0.8498 -3.6529  1.9872
  354MOL0     H47726   8.309   2.295   5.213  0.4112  1.6109  1.1225
  354MOL0     H47727   8.254   2.290   5.459 -0.2216 -2.6225 -0.3191
  354MOL0     H47728   8.426   2.231   5.482 -0.9936  0.4709  1.3939
  354MOL0     H47729   8.516   2.430   5.386 -0.0880  1.3125  0.0023
  354MOL0     H47730   8.354   2.465   5.318 -0.4010 -2.5091 -0.2050
  354MOL0     H47731   8.261   2.517   5.534  1.1769 -0.1750 -0.6165
  354MOL0     H47732   8.403   2.458   5.617 -1.0366 -1.8041  0.3954
  354MOL0     H47733   8.521   2.656   5.497  0.1123  3.8834 -1.1532
  354MOL0     H47734   8.345   2.712   5.459 -0.7583 -2.1640 -0.5809
  354MOL0     H47735   8.479   2.682   5.732 -0.1391  0.0014  0.3753
  354MOL0     H47736   8.463   2.837   5.644  0.0231  0.1296  0.4392
  354MOL0     H47737   8.197   2.758   5.647  0.8875  2.0125 -1.2559
  354MOL0     H47738   8.253   2.632   5.750  1.1088  0.3616 -2.3410
  354MOL0     H47739   8.360   2.866   5.886 -0.9400 -2.1537  2.6953
  354MOL0     H47740   8.219   2.771   5.917  2.8213  1.1341  2.2305
  354MOL0     H47741   8.329   3.124   5.824 -1.8071 -0.1667  3.6203
  354MOL0     H47742   8.224   3.318   5.638 -0.2718 -1.4881 -4.1172
  354MOL0     H47743   8.050   3.291   5.606 -0.0621 -2.5629  0.4170
  354MOL0     H47744   7.986   3.360   5.817 -0.0230  0.6310  2.1059
  354MOL0     H47745   8.075   3.480   5.742  0.7486  0.6769 -0.0185
  354MOL0     H47746   8.281   3.433   5.894  1.3602  0.1858  1.9649
  354MOL0     H47747   8.198   3.287   5.958 -1.1468  0.0126  0.1833
  354MOL0     H47748   8.193   3.472   6.121  1.5510 -0.5866 -0.5363
  354MOL0     H47749   8.028   3.430   6.063 -1.5002  1.6234  0.4264
  354MOL0     H47750   8.090   3.833   5.910  0.6156 -0.0591 -0.2423
  354MOL0     H47751   8.144   4.059   5.888 -1.8363  1.3069  0.0982
  354MOL0     H47752   8.069   4.135   6.021 -1.8022 -2.9757  0.5203
  354MOL0     H47753   8.250   4.142   6.003 -1.1366  1.9361 -0.9962
  354MOL0     H47754   8.101   4.307   6.464  1.1079 -0.7334 -0.9134
  354MOL0     H47755   8.191   4.512   6.570  2.4982 -0.1305  1.2792
  354MOL0     H47756   8.338   4.830   6.505 -0.5462  1.1945  1.8773
  354MOL0     H47757   8.239   4.708   6.568  1.0443 -4.3764 -0.4612
  354MOL0     H47758   8.503   4.777   6.694  0.8877 -1.1177  0.3951
  354MOL0     H47759   8.343   4.840   6.747  1.8728  0.8828  0.1622
  354MOL0     H47760   8.428   4.551   6.768 -0.0887 -0.5422  0.5451
  354MOL0     H47761   8.266   4.609   6.803 -0.5474 -0.3165  2.7432
  354MOL0     H47762   8.436   4.593   7.008 -2.2470  0.0326  1.0869
  354MOL0     H47763   8.525   4.721   6.921  0.9534 -2.9595  0.5915
  354MOL0     H47764   8.351   4.758   7.120 -1.1910  0.8508  0.3312
  354MOL0     H47765   8.237   4.805   6.985 -2.3009  1.8728  4.4704
  354MOL0     H47766   8.510   4.935   7.031 -0.7412 -2.9959  2.6538
  354MOL0     H47767   8.401   4.973   6.901  3.6956  3.5186  0.5966
  354MOL0     H47768   8.373   5.022   7.193 -0.4928  0.1364 -0.3361
  354MOL0     H47769   8.224   5.006   7.100 -0.4057  0.5601 -0.9794
  354MOL0     H47770   8.456   5.206   7.012 -0.0239 -0.0062 -0.3056
  354MOL0     H47771   8.332   5.251   7.132 -2.7772 -0.1094  0.0254
  354MOL0     H47772   8.510   4.497   6.280  0.0488  2.5817  0.9124
  354MOL0     H47773   8.415   4.307   6.163 -0.1770  0.6417 -0.5619
  354MOL0     H47774   8.269   3.783   6.357 -1.0605 -3.0549 -1.1800
  354MOL0     H47775   8.185   3.605   6.253  1.8211 -0.7176 -1.7158
  354MOL0     H47776   8.030   1.980   5.275 -1.4507 -0.1417 -3.2751
  354MOL0     H47777   8.001   1.771   5.121 -0.3920 -1.1426  3.7559
  354MOL0     H47778   8.437   1.592   4.661  1.2794 -1.4048 -0.8936
  354MOL0     H47779   8.414   1.408   4.512  0.5458  1.7839  0.2974
  354MOL0     H47780   8.182   1.026   4.633 -0.5790 -0.0355 -1.1182
  354MOL0     H47781   8.061   1.132   4.549  0.4461  2.4743 -4.7821
  354MOL0     H47782   8.155   1.042   4.328  0.8123 -1.6284 -1.0247
  354MOL0     H47783   8.090   0.918   4.446 -0.2365  0.0909 -0.5120
  354MOL0     H47784   8.347   0.878   4.495  0.4433  0.2362  0.0361
  354MOL0     H47785   8.387   0.996   4.382  0.4066 -0.3818  2.0585
  354MOL0     H47786   8.217   0.854   4.238 -0.7703  3.4553  2.1988
  354MOL0     H47787   8.266   0.723   4.331  0.0247 -0.6124 -1.9494
  354MOL0     H47788   8.583   0.777   4.056 -2.1061 -1.8505 -1.9585
  354MOL0     H47789   8.093   1.246   4.762  3.4423 -4.1610 -0.5223
  354MOL0     H47790   8.102   1.459   4.885  0.3111  2.7054 -1.4245
  355MOL0     O47791   5.812  10.988  11.410  0.1940 -0.2755  0.2623
  355MOL0     C47792   5.771  11.091  11.355  0.2846  0.3603 -0.0925
  355MOL0     O47793   5.839  11.158  11.257 -0.1033 -0.2330 -0.8466
  355MOL0     C47794   5.958  11.111  11.214  0.6616 -0.1049  0.5917
  355MOL0     C47795   5.957  11.001  11.138  0.7546 -0.0909  0.0268
  355MOL0     C47796   6.070  10.963  11.076 -0.0587  0.8085 -0.4452
  355MOL0     C47797   6.188  11.039  11.101  0.2380  0.2256  0.2566
  355MOL0     O47798   6.299  10.993  11.035 -0.1447  0.5219 -0.0064
  355MOL0     C47799   6.414  11.065  11.007 -0.5660  0.1190 -0.7232
  355MOL0     C47800   6.388  11.172  10.897 -0.8085  0.5915  0.5931
  355MOL0     C47801   6.302  11.114  10.782  0.4322 -0.7811  0.0158
  355MOL0     C47802   6.240  11.234  10.694  0.3755  0.3326 -0.1718
  355MOL0     C47803   6.106  11.284  10.759 -0.0349 -0.6364 -0.1218
  355MOL0     C47804   5.985  11.199  10.773  0.2189 -0.0281  0.5611
  355MOL0     C47805   5.890  11.192  10.650  0.0994 -1.1602 -0.4770
  355MOL0     C47806   5.766  11.107  10.687 -0.1392  0.2280  1.1948
  355MOL0     N47807   5.697  11.180  10.796 -0.0304  0.2334 -0.3032
  355MOL0     C47808   5.640  11.306  10.788  0.3779  0.2650 -0.6710
  355MOL0     C47809   5.596  11.340  10.914 -0.1311 -0.6224  1.3240
  355MOL0     C47810   5.536  11.464  10.961  0.1069 -0.1081  0.6846
  355MOL0     C47811   5.429  11.444  11.062 -0.4600  0.2840  0.0240
  355MOL0     C47812   5.334  11.326  11.027 -0.9479  0.6089 -0.2236
  355MOL0     C47813   5.275  11.257  11.149  0.7692  0.2400  0.1756
  355MOL0     O47814   5.248  11.121  11.117 -0.8948 -0.2250  0.1379
  355MOL0     C47815   5.178  11.040  11.203 -0.2493 -0.1451 -0.1265
  355MOL0     C47816   5.147  11.068  11.343 -0.2798 -0.0609 -0.8984
  355MOL0     C47817   5.080  10.978  11.424  1.5838  0.8803  0.1569
  355MOL0     C47818   5.080  10.998  11.573  0.0444  0.3397 -0.0795
  355MOL0     C47819   5.026  10.865  11.359  0.4627  0.7864  0.2770
  355MOL0     C47820   4.952  10.756  11.432 -0.2778  0.3155  0.2427
  355MOL0     O47821   4.921  10.774  11.564 -0.2435 -0.1092  0.0706
  355MOL0     C47822   4.857  10.689  11.659  0.6851  0.7328 -0.0226
  355MOL0     C47823   4.897  10.708  11.792 -0.1735 -0.3587 -0.5679
  355MOL0     C47824   4.828  10.641  11.903  0.3397 -0.5536  0.5274
  355MOL0     C47825   4.715  10.565  11.865 -0.3264 -0.5675  0.5181
  355MOL0     O47826   4.645  10.502  11.960 -0.5164  0.9594  0.1179
  355MOL0     C47827   4.696  10.482  12.097 -0.0122 -0.2676 -0.1635
  355MOL0     C47828   4.610  10.371  12.148  0.6176 -0.6747  0.1117
  355MOL0     C47829   4.653  10.333  12.293 -0.3694  0.0756  0.4190
  355MOL0     C47830   4.538  10.371  12.400 -0.6710 -0.5354 -0.0643
  355MOL0     C47831   4.611  10.385  12.529  1.0730  0.2877 -0.2773
  355MOL0     C47832   4.665  10.273  12.605 -0.3156  0.2344 -0.2530
  355MOL0     C47833   4.560  10.165  12.630  0.1607 -0.7614  0.0247
  355MOL0     C47834   4.614  10.034  12.687  0.5412  0.3438  0.6011
  355MOL0    Cl47835   4.490   9.913  12.684 -0.0029  0.1294  0.2237
  355MOL0     C47836   4.675  10.553  11.729 -0.0281  0.0485 -0.3741
  355MOL0     C47837   4.745  10.605  11.626 -1.1360 -0.0888  0.3545
  355MOL0     O47838   4.929  10.649  11.369  0.4146  0.8098 -0.2934
  355MOL0     C47839   5.050  10.843  11.217  0.4977 -0.4861 -0.4427
  355MOL0     C47840   5.125  10.925  11.146 -0.2173 -0.0438  0.8532
  355MOL0     N47841   5.622  11.231  10.992  0.1717 -0.8725 -0.4242
  355MOL0     N47842   5.673  11.137  10.922  1.4851  0.7848  1.0790
  355MOL0     C47843   6.184  11.147  11.185 -0.7511 -0.3121 -0.1835
  355MOL0     C47844   6.068  11.192  11.232 -1.1146 -0.5799 -1.0022
  355MOL0     C47845   5.651  11.169  11.406 -1.1714 -0.3831  0.2867
  355MOL0     C47846   5.633  11.308  11.382  0.8717  0.0095  0.1356
  355MOL0     C47847   5.521  11.372  11.438  0.0284 -0.6851  0.8123
  355MOL0     C47848   5.422  11.303  11.500 -0.5259  0.1778  1.0162
  355MOL0     O47849   5.296  11.350  11.535 -0.2944  0.1617 -0.2366
  355MOL0     C47850   5.247  11.455  11.451  0.2343  0.4201 -0.1001
  355MOL0     C47851   5.095  11.423  11.474 -0.4556  0.5646  0.0283
  355MOL0     C47852   5.012  11.519  11.399  0.1424 -0.2225  0.1189
  355MOL0     C47853   4.872  11.470  11.362  0.1709  0.0778 -0.3800
  355MOL0     C47854   4.880  11.376  11.253 -0.5781 -0.3952 -0.5246
  355MOL0     C47855   4.896  11.293  11.163 -0.3970 -0.4773 -1.0277
  355MOL0     C47856   5.440  11.173  11.535 -0.8016  0.3898  0.6490
  355MOL0     C47857   5.559  11.113  11.488  0.7270 -0.2570  0.9360
  355MOL0     H47858   5.859  10.960  11.118  0.5917 -0.5515  1.6381
  355MOL0     H47859   6.052  10.875  11.015 -0.6735  1.5362 -1.3308
  355MOL0     H47860   6.459  11.119  11.091 -0.4202 -0.9089 -0.1282
  355MOL0     H47861   6.496  10.996  10.987  2.1190  2.7057  0.5308
  355MOL0     H47862   6.345  11.265  10.935 -0.1134  1.2508 -0.1883
  355MOL0     H47863   6.483  11.203  10.853  0.8958 -2.9697  1.4531
  355MOL0     H47864   6.361  11.049  10.717 -0.3798 -1.6047  0.0774
  355MOL0     H47865   6.221  11.051  10.818  2.3491 -3.5088 -0.1600
  355MOL0     H47866   6.316  11.311  10.673  2.0326 -1.2594 -0.2439
  355MOL0     H47867   6.203  11.199  10.597 -1.7297  0.4304  0.5453
  355MOL0     H47868   6.126  11.305  10.864 -0.5810 -2.4521  0.3820
  355MOL0     H47869   6.083  11.371  10.698 -2.3461 -2.5468 -2.2149
  355MOL0     H47870   6.007  11.096  10.802  0.7163  0.1806  0.9436
  355MOL0     H47871   5.924  11.234  10.858 -3.7203 -2.7364 -0.8679
  355MOL0     H47872   5.870  11.294  10.616  4.7358 -0.3708 -1.5087
  355MOL0     H47873   5.943  11.142  10.569  2.5833 -0.3239  0.5272
  355MOL0     H47874   5.809  11.014  10.725 -0.7767 -1.5835 -2.2006
  355MOL0     H47875   5.707  11.099  10.595  3.0152  2.6766 -1.2830
  355MOL0     H47876   5.640  11.380  10.709  4.1666 -0.2403 -1.3544
  355MOL0     H47877   5.611  11.530  11.006 -0.1845 -0.4039  1.6149
  355MOL0     H47878   5.504  11.523  10.875 -1.7350 -2.9624 -0.7384
  355MOL0     H47879   5.367  11.535  11.065 -0.1954  0.6032 -2.1919
  355MOL0     H47880   5.489  11.430  11.152  2.2558  0.4589 -1.6617
  355MOL0     H47881   5.388  11.247  10.975  0.9826  0.8282  1.3596
  355MOL0     H47882   5.255  11.355  10.956 -3.2617 -3.2685  0.4546
  355MOL0     H47883   5.187  11.306  11.190  1.3745  1.3996  0.1219
  355MOL0     H47884   5.358  11.247  11.220  0.9367 -3.4015 -0.3144
  355MOL0     H47885   5.184  11.163  11.381  2.1597 -1.7751  1.3863
  355MOL0     H47886   5.141  10.919  11.620  0.5529 -0.2721 -1.7138
  355MOL0     H47887   5.126  11.094  11.601 -1.3395  0.8841  0.4211
  355MOL0     H47888   4.980  11.004  11.616 -0.7013 -2.6956 -1.1415
  355MOL0     H47889   4.979  10.770  11.827 -2.8605  1.5869  2.8511
  355MOL0     H47890   4.854  10.645  12.008  3.1919 -2.7140  0.0201
  355MOL0     H47891   4.799  10.446  12.091  0.1190 -0.1353  1.0581
  355MOL0     H47892   4.684  10.568  12.164 -2.5329 -0.7713  0.1271
  355MOL0     H47893   4.503  10.385  12.170 -0.8546 -3.9244 -3.7015
  355MOL0     H47894   4.601  10.282  12.086  0.8535 -1.4650  1.1925
  355MOL0     H47895   4.752  10.369  12.321  0.3124  0.6106 -2.4057
  355MOL0     H47896   4.661  10.225  12.278  3.5815  0.4183 -1.2325
  355MOL0     H47897   4.478  10.459  12.371 -0.2368 -1.1226 -3.0934
  355MOL0     H47898   4.470  10.286  12.396  1.0857 -2.1395  2.0774
  355MOL0     H47899   4.542  10.435  12.598  2.1641  0.6790  0.5804
  355MOL0     H47900   4.691  10.458  12.512  2.5435 -1.6278 -2.1459
  355MOL0     H47901   4.736  10.218  12.543 -2.8930 -3.1736 -0.4810
  355MOL0     H47902   4.724  10.300  12.692 -1.3749  2.1550 -0.0782
  355MOL0     H47903   4.511  10.144  12.534  1.8699 -2.8074 -0.4565
  355MOL0     H47904   4.490  10.206  12.704 -0.5302 -2.0289  0.1004
  355MOL0     H47905   4.656  10.048  12.788 -0.3263  1.1490  0.8577
  355MOL0     H47906   4.689  10.003  12.614 -1.8177 -1.3591 -1.2293
  355MOL0     H47907   4.577  10.506  11.727  0.3326 -0.7625  0.5487
  355MOL0     H47908   4.715  10.577  11.525  0.8442 -2.3161  0.3029
  355MOL0     H47909   4.999  10.763  11.165 -0.2077 -0.2262 -0.1673
  355MOL0     H47910   5.129  10.915  11.038 -1.0601  0.0422  0.8103
  355MOL0     H47911   6.274  11.202  11.213  3.1355 -5.8048 -0.2129
  355MOL0     H47912   6.057  11.283  11.290 -0.2876 -2.1808  1.8484
  355MOL0     H47913   5.713  11.370  11.345  0.0895  0.7473 -0.3502
  355MOL0     H47914   5.520  11.478  11.414  2.2347 -1.0743 -1.4094
  355MOL0     H47915   5.278  11.550  11.496 -1.1865  0.3835  1.0549
  355MOL0     H47916   5.272  11.433  11.347  1.3908  0.0996  0.2387
  355MOL0     H47917   5.061  11.435  11.577 -1.0670 -1.2549  0.0616
  355MOL0     H47918   5.072  11.320  11.446 -0.3371  0.0632  1.6778
  355MOL0     H47919   5.068  11.536  11.307 -0.6614 -4.6067 -1.3688
  355MOL0     H47920   5.000  11.613  11.455 -0.7658 -0.8797  1.0504
  355MOL0     H47921   4.814  11.556  11.328 -1.8587 -0.7873  0.7382
  355MOL0     H47922   4.821  11.422  11.446  1.4261  4.0613  2.9820
  355MOL0     H47923   4.921  11.218  11.092 -0.5483 -1.0264 -0.5091
  355MOL0     H47924   5.382  11.116  11.607  0.4373 -0.7415  0.7907
  355MOL0     H47925   5.575  11.010  11.521  0.2439 -2.2614 -4.1242
  356MOL0     O47926   0.086   7.376   9.887 -0.3006  0.0332  0.3769
  356MOL0     C47927   0.048   7.493   9.867  0.2109 -0.0965  0.7903
  356MOL0     O47928  -0.058   7.527   9.789 -0.3415  0.3206 -0.2473
  356MOL0     C47929  -0.128   7.444   9.713 -0.0708  0.8313  0.3675
  356MOL0     C47930  -0.272   7.429   9.728  0.1251 -0.4153  0.3615
  356MOL0     C47931  -0.355   7.357   9.651 -0.2187 -0.3655  0.0421
  356MOL0     C47932  -0.288   7.279   9.550  0.4087 -0.0587 -0.8660
  356MOL0     O47933  -0.378   7.212   9.474  0.0104  0.0183 -0.3291
  356MOL0     C47934  -0.337   7.106   9.385  0.1012  0.2918  0.4358
  356MOL0     C47935  -0.460   7.069   9.289 -0.7696  0.3274  0.1756
  356MOL0     C47936  -0.398   6.978   9.185  0.5083  0.1365 -0.2912
  356MOL0     C47937  -0.503   6.945   9.084  0.3052  1.0565 -0.0851
  356MOL0     C47938  -0.445   6.889   8.958  0.2916  0.3185  0.3030
  356MOL0     C47939  -0.431   6.976   8.837 -1.4812  0.6843 -0.8547
  356MOL0     C47940  -0.360   6.899   8.726 -0.3913 -0.7045  0.8609
  356MOL0     C47941  -0.323   6.987   8.599  0.1578  0.4529 -0.3433
  356MOL0     N47942  -0.417   7.065   8.524  0.4341 -0.5950 -0.0069
  356MOL0     C47943  -0.457   7.200   8.526  0.7331  0.1293  0.6991
  356MOL0     C47944  -0.530   7.214   8.410 -0.4309  0.7148  0.6276
  356MOL0     C47945  -0.599   7.334   8.353  0.5497  0.7176 -1.2014
  356MOL0     C47946  -0.523   7.400   8.239 -0.0657  0.1858  0.1041
  356MOL0     C47947  -0.434   7.521   8.270  0.7548 -0.9687 -0.2950
  356MOL0     C47948  -0.294   7.482   8.301 -0.2411  0.3179  0.2946
  356MOL0     O47949  -0.205   7.560   8.220  0.0367 -0.2274 -0.4634
  356MOL0     C47950  -0.072   7.565   8.240 -0.4087 -0.2054 -1.0997
  356MOL0     C47951  -0.006   7.630   8.132 -0.4330 -0.5021 -0.2677
  356MOL0     C47952   0.140   7.648   8.141  0.7825  0.3154 -0.1293
  356MOL0     C47953   0.191   7.711   8.013 -0.9586 -0.0080  0.6134
  356MOL0     C47954   0.206   7.605   8.262  0.3101  0.3190  0.9191
  356MOL0     C47955   0.354   7.630   8.271  0.6811 -0.5295  0.0950
  356MOL0     O47956   0.433   7.531   8.334 -0.3001 -0.1225 -0.2593
  356MOL0     C47957   0.564   7.557   8.343 -0.3395 -0.2760  0.8486
  356MOL0     C47958   0.647   7.590   8.234  0.6583  0.4672  0.1679
  356MOL0     C47959   0.782   7.620   8.253  0.5844 -0.5658 -0.5402
  356MOL0     C47960   0.849   7.606   8.378  0.2644 -0.6119  0.2630
  356MOL0     O47961   0.990   7.616   8.380  1.0153  0.0568  0.2634
  356MOL0     C47962   1.028   7.751   8.408 -0.0877  0.2385 -0.3779
  356MOL0     C47963   1.028   7.780   8.556 -1.0541  0.3625 -0.4049
  356MOL0     C47964   1.143   7.712   8.630  0.2735 -0.4217 -0.7054
  356MOL0     C47965   1.128   7.712   8.781  0.2222  0.6304  0.7794
  356MOL0     C47966   1.254   7.664   8.852 -0.0329  0.8934  0.1433
  356MOL0     C47967   1.241   7.652   9.001  0.1979  0.2791 -0.6004
  356MOL0     C47968   1.310   7.539   9.063 -0.0865  0.2678 -0.3668
  356MOL0     C47969   1.464   7.569   9.061 -0.2170 -1.1715  0.0824
  356MOL0    Cl47970   1.510   7.714   9.169  0.1625  0.0818 -0.1827
  356MOL0     C47971   0.768   7.558   8.479 -0.1823  1.4062 -0.4224
  356MOL0     C47972   0.628   7.543   8.464  0.4744  1.1429 -0.1706
  356MOL0     O47973   0.397   7.741   8.247  0.2141 -0.2153  0.8478
  356MOL0     C47974   0.128   7.547   8.368 -0.0283  0.8380  0.3370
  356MOL0     C47975  -0.009   7.518   8.354 -0.2060 -0.4391  0.9845
  356MOL0     N47976  -0.540   7.095   8.350  0.5005 -0.8699 -0.1345
  356MOL0     N47977  -0.469   7.012   8.418 -0.3231  0.3942 -0.1355
  356MOL0     C47978  -0.154   7.281   9.526  0.4254  0.5215  0.0970
  356MOL0     C47979  -0.078   7.363   9.610 -1.1013 -0.1002 -0.1473
  356MOL0     C47980   0.137   7.591   9.936  0.1768  0.1874  0.4352
  356MOL0     C47981   0.261   7.561   9.985 -0.1146 -0.4481 -0.5364
  356MOL0     C47982   0.339   7.665  10.033  0.8482 -0.2037  0.5158
  356MOL0     C47983   0.307   7.803  10.020 -0.4446 -0.0474 -0.6747
  356MOL0     O47984   0.390   7.910  10.065  0.0921  0.0127  0.3147
  356MOL0     C47985   0.348   8.039  10.059 -0.2239 -0.1275 -1.2286
  356MOL0     C47986   0.454   8.140  10.117 -0.5250 -0.6343  0.1000
  356MOL0     C47987   0.602   8.130  10.058  0.3547 -0.9707 -1.0729
  356MOL0     C47988   0.700   8.248  10.091  0.2044 -0.7388 -1.1754
  356MOL0     C47989   0.694   8.286  10.238  0.8009 -0.4000  0.2699
  356MOL0     C47990   0.690   8.314  10.359  0.0231 -0.1175 -0.0439
  356MOL0     C47991   0.179   7.828   9.973 -0.2714  0.7157  0.9360
  356MOL0     C47992   0.098   7.725   9.919 -0.8993 -0.2538  0.1416
  356MOL0     H47993  -0.310   7.505   9.796 -2.4020  0.7108 -2.1144
  356MOL0     H47994  -0.463   7.365   9.651 -0.2265 -0.4268 -0.6176
  356MOL0     H47995  -0.261   7.143   9.315 -1.7967 -1.3596 -2.7235
  356MOL0     H47996  -0.300   7.022   9.445  0.9410  1.4625  1.6327
  356MOL0     H47997  -0.549   7.031   9.340 -1.0822 -0.5204 -0.9719
  356MOL0     H47998  -0.487   7.158   9.233 -0.0700  0.3779 -0.0923
  356MOL0     H47999  -0.314   7.028   9.136  3.0247 -1.4092  2.1376
  356MOL0     H48000  -0.364   6.888   9.238 -1.9822 -0.1031  1.0947
  356MOL0     H48001  -0.573   6.879   9.136 -0.1816  1.5874 -0.0487
  356MOL0     H48002  -0.576   7.026   9.074  0.1841  0.7430 -2.0006
  356MOL0     H48003  -0.350   6.842   8.986  1.2573 -0.4880 -3.7293
  356MOL0     H48004  -0.508   6.808   8.921  1.3808 -0.0953 -0.6975
  356MOL0     H48005  -0.536   6.991   8.809 -1.6671 -1.7986 -1.7056
  356MOL0     H48006  -0.379   7.069   8.859  0.5851 -0.6680  0.2273
  356MOL0     H48007  -0.270   6.854   8.769 -1.7509 -0.4953  4.2577
  356MOL0     H48008  -0.423   6.817   8.690 -2.2139  1.1042 -0.2922
  356MOL0     H48009  -0.276   6.924   8.524  0.9170 -1.0110  1.2817
  356MOL0     H48010  -0.250   7.061   8.634  0.8992 -0.9546  1.2771
  356MOL0     H48011  -0.450   7.268   8.611 -1.9650 -1.4382  2.3267
  356MOL0     H48012  -0.687   7.300   8.298  0.6401 -2.4280  0.4111
  356MOL0     H48013  -0.609   7.400   8.440  1.9485 -0.5577 -0.0121
  356MOL0     H48014  -0.605   7.428   8.172 -1.5263 -2.2235  0.7577
  356MOL0     H48015  -0.468   7.333   8.172 -1.1000  0.1827 -0.7632
  356MOL0     H48016  -0.484   7.586   8.343 -1.1056 -0.5920 -1.8204
  356MOL0     H48017  -0.436   7.583   8.179 -2.1754  1.4230  1.1927
  356MOL0     H48018  -0.266   7.376   8.291 -1.6378 -0.3350  2.4308
  356MOL0     H48019  -0.294   7.493   8.410 -5.9008 -1.7633  0.8740
  356MOL0     H48020  -0.056   7.670   8.044 -2.2762 -3.7952 -0.8902
  356MOL0     H48021   0.204   7.819   8.013  0.9310  0.0554 -4.3210
  356MOL0     H48022   0.289   7.667   7.991  0.3717  1.3964  3.2726
  356MOL0     H48023   0.132   7.697   7.922 -0.5578 -0.1655  0.3760
  356MOL0     H48024   0.588   7.601   8.143 -3.0875 -0.9145  2.1905
  356MOL0     H48025   0.843   7.650   8.169 -1.2250 -0.3446 -1.8434
  356MOL0     H48026   1.131   7.760   8.374  1.2368 -1.6326  2.6415
  356MOL0     H48027   0.958   7.818   8.358 -0.3897 -0.4163 -0.8533
  356MOL0     H48028   1.038   7.886   8.582  1.7150  0.5660 -1.9533
  356MOL0     H48029   0.931   7.743   8.592 -1.7586  1.7448 -0.8182
  356MOL0     H48030   1.232   7.767   8.598  0.6713 -0.3234  0.4997
  356MOL0     H48031   1.153   7.607   8.600  1.9782 -0.0278 -1.6768
  356MOL0     H48032   1.095   7.812   8.810 -2.9987  0.4259 -1.5769
  356MOL0     H48033   1.043   7.644   8.800 -0.2926  1.0926  0.1999
  356MOL0     H48034   1.341   7.722   8.821  0.6371  0.4611  1.1584
  356MOL0     H48035   1.273   7.562   8.818  1.4501  0.9495  0.7352
  356MOL0     H48036   1.277   7.738   9.059  0.2472  0.3294 -0.7057
  356MOL0     H48037   1.139   7.632   9.032  0.8383  0.7273  2.0431
  356MOL0     H48038   1.269   7.451   9.012 -3.6376  1.1118  0.7096
  356MOL0     H48039   1.270   7.534   9.164 -0.6776  0.3411 -0.5909
  356MOL0     H48040   1.499   7.578   8.958  0.0132 -5.0318 -0.3123
  356MOL0     H48041   1.524   7.492   9.110  1.6497  0.0471 -0.1891
  356MOL0     H48042   0.822   7.538   8.571  0.2282  0.7212 -0.8026
  356MOL0     H48043   0.571   7.514   8.552 -1.2498  0.5629 -1.4254
  356MOL0     H48044   0.188   7.514   8.452  0.0045  0.6282  0.2311
  356MOL0     H48045  -0.054   7.460   8.433 -1.8653  0.0678  0.4464
  356MOL0     H48046  -0.096   7.234   9.447  0.1574 -1.1550  0.8528
  356MOL0     H48047   0.028   7.366   9.589 -1.1446 -0.3052 -0.3980
  356MOL0     H48048   0.307   7.463   9.980  2.0616  0.0745  3.9760
  356MOL0     H48049   0.438   7.646  10.071 -0.1868 -0.8863  3.1203
  356MOL0     H48050   0.329   8.069   9.955  0.0969  2.1503 -0.6871
  356MOL0     H48051   0.255   8.044  10.118 -1.0802 -2.7997 -2.1957
  356MOL0     H48052   0.452   8.126  10.225 -1.7130  2.2212  0.5444
  356MOL0     H48053   0.409   8.237  10.095 -3.0399 -1.8752 -0.5460
  356MOL0     H48054   0.608   8.137   9.949 -4.4870 -0.3051 -1.5129
  356MOL0     H48055   0.654   8.041  10.095  3.3583  1.3855  0.8300
  356MOL0     H48056   0.656   8.331  10.036  0.7798  0.4388  0.0844
  356MOL0     H48057   0.803   8.235  10.058  0.3573  0.9887 -1.4680
  356MOL0     H48058   0.683   8.335  10.464  0.2357  3.6922 -0.6242
  356MOL0     H48059   0.134   7.926   9.976 -2.2369 -0.1464  1.4502
  356MOL0     H48060   0.004   7.748   9.869 -2.0787 -2.1931  1.3439
  357MOL0     O48061   0.546   2.005   2.443  0.5985  0.5018  1.2127
  357MOL0     C48062   0.590   2.109   2.488 -0.1519  0.5073  0.4313
  357MOL0     O48063   0.513   2.220   2.503 -0.8434 -0.1033 -0.0717
  357MOL0     C48064   0.392   2.245   2.442  0.0290 -0.7790  0.3465
  357MOL0     C48065   0.333   2.187   2.326 -1.2381 -0.5545 -0.0781
  357MOL0     C48066   0.200   2.199   2.303 -0.1529  0.2937  0.4102
  357MOL0     C48067   0.120   2.279   2.390 -0.7107 -0.2925 -0.0710
  357MOL0     O48068  -0.013   2.306   2.372  0.6594  0.5121 -0.0649
  357MOL0     C48069  -0.081   2.293   2.240 -0.3089  0.5159 -0.9112
  357MOL0     C48070  -0.216   2.356   2.250  0.5749  0.2678 -0.0926
  357MOL0     C48071  -0.305   2.291   2.357 -0.3245  0.4848 -0.8755
  357MOL0     C48072  -0.443   2.357   2.358  0.7011  0.4614  0.3732
  357MOL0     C48073  -0.542   2.271   2.439 -0.7432 -0.3539  0.1018
  357MOL0     C48074  -0.672   2.344   2.474 -0.7351 -0.4753  0.5424
  357MOL0     C48075  -0.768   2.265   2.562 -0.0096 -1.6858 -0.2428
  357MOL0     C48076  -0.697   2.215   2.687 -0.1381  0.8292 -0.6548
  357MOL0     N48077  -0.793   2.193   2.796 -0.1800 -0.0597  1.1666
  357MOL0     C48078  -0.856   2.294   2.870 -0.1321 -0.1078  0.1771
  357MOL0     C48079  -0.947   2.229   2.952 -1.0084 -0.1792  0.1094
  357MOL0     C48080  -1.054   2.270   3.049 -0.8323  0.3875 -0.2362
  357MOL0     C48081  -1.183   2.318   2.992 -0.1664  0.0284  0.2604
  357MOL0     C48082  -1.253   2.199   2.910  0.5021 -0.1254 -0.1287
  357MOL0     C48083  -1.224   2.217   2.756 -0.0816 -0.5331 -0.5266
  357MOL0     O48084  -1.305   2.329   2.701  0.2395 -0.7083  0.4523
  357MOL0     C48085  -1.325   2.330   2.565 -0.0367 -0.3330 -0.5206
  357MOL0     C48086  -1.218   2.308   2.469  0.9933 -1.4705 -0.5136
  357MOL0     C48087  -1.249   2.325   2.336 -0.6412 -0.3171 -0.0570
  357MOL0     C48088  -1.120   2.345   2.242  0.1149 -0.4139 -0.1341
  357MOL0     C48089  -1.386   2.328   2.291  0.5804  0.2896  0.4432
  357MOL0     C48090  -1.428   2.330   2.142 -0.5011 -0.2073 -0.6637
  357MOL0     O48091  -1.559   2.352   2.115  0.2869  0.3820  0.5282
  357MOL0     C48092  -1.581   2.424   1.994 -0.7744 -0.2923  0.9098
  357MOL0     C48093  -1.568   2.564   1.985 -0.6522  0.3290 -0.2634
  357MOL0     C48094  -1.597   2.634   1.857  0.0556 -0.0048 -0.1899
  357MOL0     C48095  -1.645   2.565   1.744 -0.0054  0.1866  0.1075
  357MOL0     O48096  -1.676   2.632   1.629 -0.4233  0.5708  0.1064
  357MOL0     C48097  -1.775   2.745   1.637  0.0651  0.2821 -0.1882
  357MOL0     C48098  -1.697   2.866   1.603  0.0615 -0.5213 -0.1260
  357MOL0     C48099  -1.758   2.998   1.634  0.5724  0.5052  0.4836
  357MOL0     C48100  -1.691   3.124   1.566  0.0069 -0.0891 -0.2169
  357MOL0     C48101  -1.546   3.148   1.623 -0.1500 -0.1887  0.8180
  357MOL0     C48102  -1.477   3.266   1.562  0.6578  0.6730 -0.9460
  357MOL0     C48103  -1.485   3.279   1.408  0.3619  0.3558  0.0295
  357MOL0     C48104  -1.407   3.399   1.350 -0.4203  0.1717 -0.0244
  357MOL0    Cl48105  -1.229   3.368   1.397  0.0287  0.3836  0.2326
  357MOL0     C48106  -1.658   2.423   1.755  0.8587 -0.2750 -0.7203
  357MOL0     C48107  -1.618   2.356   1.880  0.4848 -0.2940 -0.3898
  357MOL0     O48108  -1.338   2.333   2.060  0.0177  0.4509 -0.3868
  357MOL0     C48109  -1.485   2.326   2.384  0.3930 -0.5964 -0.2998
  357MOL0     C48110  -1.460   2.331   2.520  0.3661 -0.3002  0.7415
  357MOL0     N48111  -0.930   2.087   2.919  0.3310 -0.4190 -1.4219
  357MOL0     N48112  -0.842   2.069   2.830 -0.4018 -0.3144  0.1749
  357MOL0     C48113   0.177   2.356   2.488  1.1574  0.8888 -1.2683
  357MOL0     C48114   0.311   2.343   2.511  0.7458  0.7505 -0.6681
  357MOL0     C48115   0.733   2.103   2.540  0.7017  0.1067 -0.2270
  357MOL0     C48116   0.832   2.004   2.514  0.5132  0.1331  0.5700
  357MOL0     C48117   0.954   2.005   2.571 -0.6384  0.5458 -0.1910
  357MOL0     C48118   0.994   2.117   2.649 -0.0054  0.4202  0.1901
  357MOL0     O48119   1.103   2.125   2.729 -0.8013  0.2631 -0.1828
  357MOL0     C48120   1.183   2.010   2.771 -0.5174  0.1241  0.2533
  357MOL0     C48121   1.138   1.955   2.900  0.5407  0.1407 -0.7497
  357MOL0     C48122   1.087   2.057   3.006 -0.7777 -0.4603 -0.5886
  357MOL0     C48123   1.027   1.973   3.118 -1.0267 -0.1354 -1.2042
  357MOL0     C48124   0.966   2.046   3.226  0.6135  0.0764  0.5159
  357MOL0     C48125   0.912   2.115   3.309  0.1973 -0.8596 -0.2286
  357MOL0     C48126   0.903   2.221   2.664 -0.2696  1.3171 -1.0308
  357MOL0     C48127   0.774   2.217   2.623  0.5883 -0.3847  0.3105
  357MOL0     H48128   0.400   2.124   2.268 -2.6829 -1.2088 -1.0970
  357MOL0     H48129   0.158   2.148   2.217  2.5837  2.6273 -2.5226
  357MOL0     H48130  -0.016   2.333   2.161  1.7222 -0.1588  0.3478
  357MOL0     H48131  -0.099   2.185   2.237 -0.5081  0.5591 -1.4253
  357MOL0     H48132  -0.212   2.462   2.277 -0.8596  0.1116  0.8472
  357MOL0     H48133  -0.262   2.339   2.152  1.1390  2.1122 -0.7128
  357MOL0     H48134  -0.302   2.184   2.334  2.2853 -0.0964  1.6192
  357MOL0     H48135  -0.251   2.297   2.452 -0.1577 -0.8433 -0.8669
  357MOL0     H48136  -0.419   2.451   2.409 -0.0743 -0.1036  1.8060
  357MOL0     H48137  -0.493   2.385   2.264  2.0868  0.2253 -0.4732
  357MOL0     H48138  -0.556   2.175   2.389  2.7445 -0.7612 -0.3072
  357MOL0     H48139  -0.479   2.240   2.522 -3.1519  0.0664  2.2284
  357MOL0     H48140  -0.638   2.427   2.536 -0.8891 -1.8473  2.5547
  357MOL0     H48141  -0.726   2.379   2.385 -2.3509  0.4025  1.8185
  357MOL0     H48142  -0.837   2.337   2.607  1.9077 -0.0385  0.2301
  357MOL0     H48143  -0.811   2.182   2.505  0.8301 -1.4131 -1.2975
  357MOL0     H48144  -0.624   2.292   2.716 -3.6480  4.2734 -0.2010
  357MOL0     H48145  -0.647   2.118   2.683 -0.8595  0.4150  0.1056
  357MOL0     H48146  -0.837   2.401   2.868 -0.2062 -0.0301  1.8889
  357MOL0     H48147  -1.078   2.183   3.110  2.6159 -0.2930  0.3688
  357MOL0     H48148  -1.009   2.348   3.111  1.0554  0.1700 -1.2789
  357MOL0     H48149  -1.161   2.402   2.924  2.9243 -1.8927 -1.3325
  357MOL0     H48150  -1.249   2.352   3.072  0.0303 -2.0160  1.3674
  357MOL0     H48151  -1.362   2.204   2.914 -0.1853 -1.2303 -6.6249
  357MOL0     H48152  -1.207   2.102   2.932  0.6532  0.0504  0.3378
  357MOL0     H48153  -1.254   2.125   2.705  0.2636  0.7826 -3.2581
  357MOL0     H48154  -1.118   2.226   2.732  1.0678  0.5866  3.9532
  357MOL0     H48155  -1.117   2.301   2.509  1.0598 -0.7904 -0.5450
  357MOL0     H48156  -1.093   2.248   2.199 -1.1812 -1.7754  1.9196
  357MOL0     H48157  -1.139   2.419   2.164  2.3480  1.5396  1.0437
  357MOL0     H48158  -1.048   2.393   2.309  0.2668 -2.3465  1.2067
  357MOL0     H48159  -1.539   2.627   2.069 -0.2427  3.0888 -2.3501
  357MOL0     H48160  -1.584   2.741   1.854 -0.8936  0.3066  2.9870
  357MOL0     H48161  -1.867   2.745   1.578 -0.5533 -0.7684  0.7480
  357MOL0     H48162  -1.810   2.755   1.740  1.7121  2.2605  0.2564
  357MOL0     H48163  -1.603   2.875   1.657  0.8220  2.6744 -1.7379
  357MOL0     H48164  -1.667   2.857   1.498  0.0819  0.7275 -0.2331
  357MOL0     H48165  -1.756   3.002   1.743 -2.3620  0.6157  0.6176
  357MOL0     H48166  -1.859   2.993   1.592 -0.2372 -2.3208  2.4367
  357MOL0     H48167  -1.689   3.123   1.457 -1.3401  1.5292 -0.3015
  357MOL0     H48168  -1.758   3.208   1.586  2.6738  1.7606  1.6284
  357MOL0     H48169  -1.489   3.060   1.594  1.0464  0.9170 -0.2982
  357MOL0     H48170  -1.549   3.159   1.732 -0.7235 -0.3343  0.8217
  357MOL0     H48171  -1.520   3.355   1.607  5.1421  1.3522  2.7501
  357MOL0     H48172  -1.376   3.278   1.603 -0.2850  1.7016  1.2385
  357MOL0     H48173  -1.587   3.287   1.369  1.1428  0.7950 -2.0345
  357MOL0     H48174  -1.435   3.191   1.368 -0.9729 -0.2996 -0.2553
  357MOL0     H48175  -1.431   3.501   1.382  0.7788  0.1131  1.1712
  357MOL0     H48176  -1.415   3.409   1.241  1.3873  1.8515 -0.0725
  357MOL0     H48177  -1.687   2.366   1.668  3.8329 -0.5783 -1.6158
  357MOL0     H48178  -1.631   2.249   1.870 -1.8167  0.0534 -1.8034
  357MOL0     H48179  -1.590   2.324   2.356  0.4947 -3.1901 -0.7087
  357MOL0     H48180  -1.539   2.340   2.593 -1.9776 -2.4407 -1.3213
  357MOL0     H48181   0.114   2.419   2.550 -2.0804 -1.5854 -1.7601
  357MOL0     H48182   0.356   2.393   2.596  0.8626  0.2130 -0.4055
  357MOL0     H48183   0.805   1.924   2.445  1.1185  0.0049  0.4775
  357MOL0     H48184   1.025   1.924   2.554 -1.1965  0.0967 -0.4026
  357MOL0     H48185   1.193   1.936   2.692 -0.2976  1.1652 -0.7170
  357MOL0     H48186   1.286   2.044   2.783 -0.2628 -0.6245  0.2538
  357MOL0     H48187   1.224   1.911   2.951 -0.5585 -0.7917  0.3540
  357MOL0     H48188   1.060   1.884   2.873 -0.8007  2.1424 -2.4739
  357MOL0     H48189   1.010   2.117   2.957 -1.8953 -0.7402  0.7641
  357MOL0     H48190   1.156   2.133   3.042 -1.6806  1.2663 -2.3360
  357MOL0     H48191   1.112   1.914   3.154 -0.1371  2.1544  0.6967
  357MOL0     H48192   0.960   1.895   3.080 -1.4220 -0.5348  0.2661
  357MOL0     H48193   0.863   2.162   3.392  2.0705  1.2149 -0.2063
  357MOL0     H48194   0.926   2.315   2.713  0.2656 -0.6287  2.8008
  357MOL0     H48195   0.703   2.292   2.655 -1.7904 -3.3028  2.4484
  358MOL0     O48196   5.517  10.614   5.412 -0.3716 -0.0395 -0.4034
  358MOL0     C48197   5.572  10.691   5.494  0.7220 -0.4706  0.2053
  358MOL0     O48198   5.638  10.673   5.603  0.1791  0.2344  0.3148
  358MOL0     C48199   5.666  10.541   5.638 -0.4883  0.6199 -0.1330
  358MOL0     C48200   5.794  10.521   5.689  0.3404 -0.3255  0.7635
  358MOL0     C48201   5.839  10.396   5.724 -0.3380  0.9617 -0.1865
  358MOL0     C48202   5.755  10.284   5.726  0.9282  0.8771 -0.3451
  358MOL0     O48203   5.803  10.170   5.785  0.3042  0.3293 -0.0490
  358MOL0     C48204   5.783  10.053   5.707  0.3842 -0.3642  0.3638
  358MOL0     C48205   5.926   9.994   5.665  0.6696  0.2432 -0.2446
  358MOL0     C48206   6.001  10.067   5.562  0.7681  0.1682 -0.5678
  358MOL0     C48207   6.134  10.020   5.518 -0.1547  0.1501  0.9242
  358MOL0     C48208   6.130   9.936   5.393 -0.1787  0.3395  0.0672
  358MOL0     C48209   6.100  10.003   5.260 -1.0374  0.7231 -0.3117
  358MOL0     C48210   6.166   9.936   5.138 -0.8810  0.2380  0.7278
  358MOL0     C48211   6.105   9.801   5.105  0.8871  0.3866  0.1550
  358MOL0     N48212   5.963   9.826   5.065  0.1618  1.0304 -0.1898
  358MOL0     C48213   5.917   9.906   4.953  0.1151  0.0094 -0.2103
  358MOL0     C48214   5.779   9.905   4.973 -1.1692 -0.4102 -0.5327
  358MOL0     C48215   5.672   9.959   4.878 -0.0490  0.3607  0.2967
  358MOL0     C48216   5.647   9.876   4.742 -0.6688  0.1677  0.7721
  358MOL0     C48217   5.535   9.773   4.760  0.8709 -0.2899 -0.5083
  358MOL0     C48218   5.401   9.833   4.739 -0.0376  0.1199  1.5848
  358MOL0     O48219   5.296   9.739   4.710  0.0272  0.1444  0.3230
  358MOL0     C48220   5.234   9.750   4.590  0.3369  1.1703  0.0192
  358MOL0     C48221   5.100   9.781   4.577 -1.0383  0.9115 -0.4072
  358MOL0     C48222   5.036   9.789   4.450 -0.7249 -0.0703 -0.2983
  358MOL0     C48223   4.894   9.825   4.449 -0.6234 -0.0022 -0.2369
  358MOL0     C48224   5.118   9.762   4.329  2.3773 -0.5389 -0.9303
  358MOL0     C48225   5.057   9.719   4.201 -0.5359  0.9028 -0.4821
  358MOL0     O48226   5.136   9.742   4.097 -0.5291  0.4909 -0.4102
  358MOL0     C48227   5.066   9.791   3.985  0.1052  1.4204 -0.7766
  358MOL0     C48228   4.978   9.711   3.914 -2.1851 -0.8376  0.2470
  358MOL0     C48229   4.931   9.751   3.791 -0.0922 -0.8306  0.6842
  358MOL0     C48230   4.972   9.873   3.731  0.7327  0.3867  0.0350
  358MOL0     O48231   4.928   9.908   3.610  0.2406 -0.3992  0.1345
  358MOL0     C48232   4.789   9.929   3.598 -0.7817 -0.1216  0.7264
  358MOL0     C48233   4.714   9.816   3.526 -0.0649 -0.4557 -0.0873
  358MOL0     C48234   4.566   9.837   3.551  0.0827  0.4587  0.7953
  358MOL0     C48235   4.507   9.972   3.500  0.7483 -0.3854  0.7616
  358MOL0     C48236   4.368   9.980   3.550  0.0289  0.0628 -0.7651
  358MOL0     C48237   4.311  10.112   3.495 -0.2102 -0.1235 -0.2227
  358MOL0     C48238   4.168  10.121   3.557  0.1425 -0.7254 -0.4011
  358MOL0     C48239   4.145  10.267   3.614 -0.6126 -0.6358  1.1599
  358MOL0    Cl48240   4.249  10.298   3.765 -0.2313 -0.4050  0.2499
  358MOL0     C48241   5.063   9.954   3.806  0.1609 -0.7364  0.4927
  358MOL0     C48242   5.099   9.916   3.936  0.3513  0.5443 -0.1010
  358MOL0     O48243   4.948   9.669   4.206  0.1298  0.0728 -0.6282
  358MOL0     C48244   5.257   9.745   4.348  0.2407  0.4995  0.3713
  358MOL0     C48245   5.313   9.729   4.475 -1.1898  0.5135  0.1682
  358MOL0     N48246   5.752   9.818   5.084 -0.3061  0.7933  0.5779
  358MOL0     N48247   5.858   9.768   5.133 -0.5111 -0.3010  0.3946
  358MOL0     C48248   5.629  10.302   5.670  0.2162 -0.3796 -0.0709
  358MOL0     C48249   5.586  10.427   5.623  0.8798  0.3141 -0.4901
  358MOL0     C48250   5.545  10.840   5.462 -0.8222  0.1983  0.2751
  358MOL0     C48251   5.461  10.879   5.358  0.7752  0.4221 -0.6243
  358MOL0     C48252   5.439  11.020   5.328  0.9042  0.1748 -0.4126
  358MOL0     C48253   5.490  11.122   5.405 -0.2835  0.0461  0.0899
  358MOL0     O48254   5.448  11.258   5.387 -0.1174  0.7896 -0.2478
  358MOL0     C48255   5.455  11.310   5.254  0.0355 -0.0840  0.4617
  358MOL0     C48256   5.589  11.298   5.175  0.2954  0.2828  0.1526
  358MOL0     C48257   5.572  11.354   5.026  0.8870  0.5838  0.0575
  358MOL0     C48258   5.687  11.300   4.937 -0.2537 -0.3002 -0.5463
  358MOL0     C48259   5.684  11.157   4.915 -0.3768 -0.6727 -1.1241
  358MOL0     C48260   5.690  11.037   4.897 -0.3289  0.2458  0.3474
  358MOL0     C48261   5.585  11.079   5.500  0.9871  0.2446 -0.7239
  358MOL0     C48262   5.608  10.948   5.536 -0.4043  0.3220  1.0603
  358MOL0     H48263   5.866  10.603   5.691 -0.0087  0.0747  4.4044
  358MOL0     H48264   5.943  10.369   5.738 -0.4006 -1.0308 -2.8631
  358MOL0     H48265   5.734   9.982   5.774  0.4570  1.8029  2.8631
  358MOL0     H48266   5.731  10.069   5.613 -0.2696  0.6154  0.8756
  358MOL0     H48267   5.973   9.988   5.763 -2.7937  3.4235  1.8865
  358MOL0     H48268   5.910   9.891   5.632  1.0579 -0.2396  1.0255
  358MOL0     H48269   5.937  10.061   5.474  2.2613  0.6527 -1.7118
  358MOL0     H48270   6.011  10.173   5.586  1.3811 -0.3033  1.5571
  358MOL0     H48271   6.205  10.100   5.494  1.7932 -1.9561 -0.8466
  358MOL0     H48272   6.173   9.957   5.598  1.2592 -1.4746 -0.9500
  358MOL0     H48273   6.230   9.892   5.381  0.2500  1.1834  0.3892
  358MOL0     H48274   6.069   9.851   5.422  1.7356 -1.2531 -0.3681
  358MOL0     H48275   5.994  10.012   5.234 -1.1281  0.2869 -0.0970
  358MOL0     H48276   6.129  10.108   5.267  0.5952  0.3264 -0.7436
  358MOL0     H48277   6.153  10.007   5.056 -0.2381 -0.5587 -0.0907
  358MOL0     H48278   6.273   9.927   5.157 -0.9519 -0.6259  0.7543
  358MOL0     H48279   6.108   9.740   5.196 -3.4442  0.7023  0.6849
  358MOL0     H48280   6.153   9.749   5.021 -0.3851 -1.8496  0.7207
  358MOL0     H48281   5.974   9.943   4.868 -0.6260 -1.5694 -1.4376
  358MOL0     H48282   5.581   9.962   4.938 -0.1956  0.4381  0.0701
  358MOL0     H48283   5.695  10.063   4.851 -1.1308 -0.2453 -3.5484
  358MOL0     H48284   5.744   9.834   4.713 -1.1530 -1.5081  1.4790
  358MOL0     H48285   5.615   9.933   4.655  1.2324 -0.1394 -0.1834
  358MOL0     H48286   5.552   9.729   4.859  1.0268 -0.3699 -0.5697
  358MOL0     H48287   5.545   9.687   4.693 -2.4970 -0.2987 -1.1556
  358MOL0     H48288   5.402   9.912   4.663  0.4825 -0.0994  1.3586
  358MOL0     H48289   5.360   9.871   4.833 -1.7686  0.8481  0.5861
  358MOL0     H48290   5.049   9.808   4.670 -0.5917 -0.4059  0.2525
  358MOL0     H48291   4.872   9.872   4.545  1.1655 -1.8957  1.2151
  358MOL0     H48292   4.877   9.900   4.371 -2.8270 -1.0761 -0.8671
  358MOL0     H48293   4.830   9.739   4.428 -0.9153 -0.0726  0.9214
  358MOL0     H48294   4.955   9.613   3.952 -1.2552 -0.5616  1.6189
  358MOL0     H48295   4.853   9.692   3.744  0.3555 -1.1509  0.3381
  358MOL0     H48296   4.736   9.942   3.692 -2.1664  1.9446 -0.2833
  358MOL0     H48297   4.778  10.025   3.547 -0.3603  0.4925  1.7630
  358MOL0     H48298   4.745   9.811   3.421 -1.2327  0.1815 -0.4781
  358MOL0     H48299   4.748   9.723   3.572  1.8161 -0.4737 -1.4034
  358MOL0     H48300   4.545   9.816   3.656 -1.3045 -0.7978  0.2933
  358MOL0     H48301   4.514   9.762   3.492  1.2329 -0.0634  0.4166
  358MOL0     H48302   4.555  10.058   3.548  0.7344  0.8656 -1.3611
  358MOL0     H48303   4.502   9.981   3.391 -4.4827 -0.0552  0.7945
  358MOL0     H48304   4.354   9.977   3.659 -1.6057  1.3126 -0.9154
  358MOL0     H48305   4.307   9.898   3.510 -1.6234 -0.0967  1.7966
  358MOL0     H48306   4.363  10.198   3.538 -0.2213 -0.3773  0.3140
  358MOL0     H48307   4.301  10.117   3.387  3.7244  0.2956 -0.7279
  358MOL0     H48308   4.146  10.035   3.621 -0.5713 -0.6696 -0.5595
  358MOL0     H48309   4.087  10.108   3.484 -2.3502  2.4960  1.4645
  358MOL0     H48310   4.042  10.293   3.638 -1.7650 -2.4423 -1.3706
  358MOL0     H48311   4.169  10.343   3.540 -1.5000 -0.5313  0.9759
  358MOL0     H48312   5.086  10.053   3.768 -4.5845  0.3016 -0.3909
  358MOL0     H48313   5.167   9.987   3.983  4.0028 -2.2490 -0.7633
  358MOL0     H48314   5.311   9.728   4.256 -2.9883  0.4430 -1.6951
  358MOL0     H48315   5.417   9.701   4.490 -0.8423  0.3819 -2.0697
  358MOL0     H48316   5.563  10.218   5.650 -1.6247  1.5621 -2.9695
  358MOL0     H48317   5.491  10.421   5.572 -0.2076 -2.4893  1.6238
  358MOL0     H48318   5.426  10.801   5.291 -2.6698  1.2169  0.0294
  358MOL0     H48319   5.369  11.044   5.248  0.1285  0.6509  0.3927
  358MOL0     H48320   5.376  11.260   5.198  1.6722  0.5084 -2.6174
  358MOL0     H48321   5.441  11.418   5.254  3.0331  0.4241 -0.8014
  358MOL0     H48322   5.611  11.192   5.168 -0.2538  0.0838  1.1896
  358MOL0     H48323   5.674  11.336   5.232  0.1217 -0.2063  0.7445
  358MOL0     H48324   5.567  11.463   5.023  0.3580  0.5401 -0.8092
  358MOL0     H48325   5.472  11.326   4.991  0.6556 -1.5192  2.1075
  358MOL0     H48326   5.786  11.326   4.976 -0.6678 -0.7042  0.8179
  358MOL0     H48327   5.690  11.366   4.850 -1.0238  1.3271  0.6084
  358MOL0     H48328   5.700  10.931   4.911  0.2602  0.6718  4.3265
  358MOL0     H48329   5.626  11.153   5.567  0.8926 -2.0200  2.0502
  358MOL0     H48330   5.672  10.913   5.615 -0.2363 -2.4523 -0.1718
  359MOL0     O48331   9.026   2.764  10.457 -0.1008  0.2514  0.5665
  359MOL0     C48332   9.088   2.668  10.504 -0.2881 -0.9224  0.0105
  359MOL0     O48333   9.220   2.632  10.484  0.0348 -1.0890 -0.8501
  359MOL0     C48334   9.298   2.668  10.375  0.2043 -0.3255  0.7036
  359MOL0     C48335   9.279   2.788  10.301  0.4333 -0.2588  0.6887
  359MOL0     C48336   9.340   2.816  10.183 -0.3925 -0.5009 -0.4012
  359MOL0     C48337   9.442   2.731  10.125  0.4601  0.9820 -1.1032
  359MOL0     O48338   9.500   2.753  10.000 -0.2931 -0.5108 -0.8437
  359MOL0     C48339   9.445   2.844   9.909 -0.4009  1.2471 -0.0767
  359MOL0     C48340   9.532   2.953   9.860  0.2075 -0.1689 -0.0783
  359MOL0     C48341   9.529   3.054   9.977 -0.0652 -0.2568 -1.2751
  359MOL0     C48342   9.546   3.192   9.913  0.3732  0.5244 -0.5453
  359MOL0     C48343   9.528   3.305  10.024 -0.2376 -0.3052  0.2707
  359MOL0     C48344   9.511   3.440   9.951 -0.6383  0.0680 -0.2715
  359MOL0     C48345   9.412   3.459   9.833  0.4629  1.2154 -0.4585
  359MOL0     C48346   9.272   3.421   9.867  0.2723 -0.0560  0.9413
  359MOL0     N48347   9.166   3.480   9.767  0.1887 -0.1737 -0.4361
  359MOL0     C48348   9.064   3.566   9.805  0.0594 -0.9665 -0.7777
  359MOL0     C48349   8.965   3.563   9.716 -0.7615 -0.5237  0.0807
  359MOL0     C48350   8.842   3.652   9.717  0.4007  0.0265  0.1028
  359MOL0     C48351   8.717   3.582   9.669 -0.0615  0.5985  0.7549
  359MOL0     C48352   8.624   3.681   9.612  1.2568 -0.1998 -0.7674
  359MOL0     C48353   8.487   3.618   9.574  0.9084  0.2127 -0.3014
  359MOL0     O48354   8.388   3.720   9.555  0.0594  0.8029 -0.1883
  359MOL0     C48355   8.343   3.795   9.667 -0.2119  0.8351  0.0108
  359MOL0     C48356   8.373   3.760   9.803  0.3046 -0.2218  0.5406
  359MOL0     C48357   8.337   3.846   9.909 -0.4775  0.3295  0.6376
  359MOL0     C48358   8.375   3.796  10.049  0.2904  0.0647  0.0999
  359MOL0     C48359   8.273   3.968   9.874  1.3265 -0.3439  0.1136
  359MOL0     C48360   8.267   4.075   9.968  0.1039 -0.3695 -0.2213
  359MOL0     O48361   8.193   4.188   9.922  0.8927  0.4049 -0.1945
  359MOL0     C48362   8.193   4.300   9.987  0.1815 -0.1767  0.3083
  359MOL0     C48363   8.188   4.312  10.125 -0.0600 -0.4232 -0.3613
  359MOL0     C48364   8.193   4.440  10.189  0.6469 -0.3974 -0.5381
  359MOL0     C48365   8.209   4.557  10.112  0.6157  0.1581  0.1789
  359MOL0     O48366   8.228   4.669  10.192 -0.2701 -0.5808 -0.0774
  359MOL0     C48367   8.196   4.803  10.133 -0.3383 -0.3489 -0.0855
  359MOL0     C48368   8.193   4.914  10.234 -1.0536  0.3850  0.0724
  359MOL0     C48369   8.162   5.055  10.181  0.1871  0.9259 -0.3946
  359MOL0     C48370   8.237   5.102  10.058 -0.5972  0.3001 -0.4949
  359MOL0     C48371   8.388   5.143  10.093 -0.5725 -0.2823 -0.4064
  359MOL0     C48372   8.461   5.141   9.957 -0.3623  0.1248  0.5114
  359MOL0     C48373   8.391   5.237   9.851  0.5596 -0.0888  0.2168
  359MOL0     C48374   8.486   5.293   9.755 -0.2239  0.0779  0.2746
  359MOL0    Cl48375   8.594   5.170   9.662 -0.3629  0.2877 -0.0200
  359MOL0     C48376   8.210   4.546   9.972  0.1202 -0.5899 -0.1479
  359MOL0     C48377   8.199   4.420   9.913 -0.3068 -0.0008 -0.1433
  359MOL0     O48378   8.308   4.068  10.078 -0.1648  0.5471 -0.5369
  359MOL0     C48379   8.233   3.995   9.740  0.1595 -0.0834 -0.1056
  359MOL0     C48380   8.278   3.910   9.643 -0.9146 -0.2365  0.2874
  359MOL0     N48381   9.010   3.476   9.614  0.2285 -0.2493  0.1311
  359MOL0     N48382   9.125   3.419   9.647  0.2137 -0.3233 -0.2519
  359MOL0     C48383   9.465   2.608  10.199 -0.0850  0.7582  0.4268
  359MOL0     C48384   9.399   2.574  10.324  0.2583  0.2413  0.2446
  359MOL0     C48385   9.013   2.586  10.599 -0.2927  0.9103 -0.2151
  359MOL0     C48386   9.088   2.506  10.690  0.2098  0.6991  0.8043
  359MOL0     C48387   9.028   2.414  10.780 -0.1526 -0.6190  0.4339
  359MOL0     C48388   8.889   2.396  10.783 -0.7945 -0.0657 -0.0991
  359MOL0     O48389   8.845   2.307  10.879  0.7256  0.6641  0.1672
  359MOL0     C48390   8.702   2.277  10.874 -0.5208 -0.6151 -0.0608
  359MOL0     C48391   8.664   2.191  10.987  0.8872  0.2455 -0.0894
  359MOL0     C48392   8.513   2.186  10.994  0.1250  0.2477 -0.0647
  359MOL0     C48393   8.452   2.077  11.080 -0.1753  0.2362  0.5779
  359MOL0     C48394   8.315   2.052  11.032 -0.2051 -0.2526 -0.7058
  359MOL0     C48395   8.198   2.041  11.017 -0.3100  0.0322  0.8707
  359MOL0     C48396   8.815   2.480  10.693 -0.2557  0.1655 -1.7085
  359MOL0     C48397   8.877   2.563  10.601 -0.6786  1.0906 -0.0883
  359MOL0     H48398   9.197   2.854  10.328 -2.5175 -2.5408 -1.8524
  359MOL0     H48399   9.312   2.910  10.136  0.5922 -0.5098 -1.0455
  359MOL0     H48400   9.422   2.795   9.815 -0.4342  2.4242 -0.7096
  359MOL0     H48401   9.352   2.899   9.931  0.3030  3.3397 -1.9106
  359MOL0     H48402   9.635   2.923   9.838  0.8358 -0.2862  2.6489
  359MOL0     H48403   9.481   2.992   9.771  0.4314  1.5750  0.5134
  359MOL0     H48404   9.435   3.045  10.032  0.0300  0.9724 -0.8861
  359MOL0     H48405   9.610   3.037  10.048 -1.3376  1.2667  0.6328
  359MOL0     H48406   9.643   3.206   9.864  0.9907 -1.3863  0.0561
  359MOL0     H48407   9.466   3.189   9.839  0.5344 -3.6707 -0.7812
  359MOL0     H48408   9.449   3.284  10.097 -0.2922  3.6046  1.6101
  359MOL0     H48409   9.623   3.304  10.079 -0.2547 -0.1268  0.3065
  359MOL0     H48410   9.513   3.515  10.030 -0.3991  0.3171 -0.5110
  359MOL0     H48411   9.606   3.428   9.898 -0.2867 -2.1174  0.7389
  359MOL0     H48412   9.418   3.561   9.794  0.3319  0.2927 -3.0719
  359MOL0     H48413   9.430   3.388   9.752 -0.2687  2.1427 -1.4646
  359MOL0     H48414   9.251   3.461   9.966  0.1444 -1.8988  1.7032
  359MOL0     H48415   9.257   3.312   9.867 -0.9797  0.0461 -1.5019
  359MOL0     H48416   9.070   3.631   9.892 -1.7066  0.2549 -1.5303
  359MOL0     H48417   8.833   3.687   9.820  1.7952  0.3701  0.1330
  359MOL0     H48418   8.853   3.736   9.647 -1.0300 -0.2318 -0.4593
  359MOL0     H48419   8.660   3.531   9.747 -0.7394  3.0072  1.9559
  359MOL0     H48420   8.742   3.525   9.580 -2.0191 -1.4456  1.4140
  359MOL0     H48421   8.672   3.711   9.518 -0.6244  0.1550 -1.6643
  359MOL0     H48422   8.607   3.769   9.675  0.4717  0.6989 -2.1719
  359MOL0     H48423   8.457   3.547   9.650  0.6065  1.9389  1.2713
  359MOL0     H48424   8.509   3.567   9.479  0.6800 -0.4897  0.0205
  359MOL0     H48425   8.424   3.665   9.818  2.2107  0.4596 -1.0367
  359MOL0     H48426   8.390   3.689  10.061 -2.2805 -0.5866 -1.7398
  359MOL0     H48427   8.458   3.854  10.091 -1.1093  1.4510  1.0781
  359MOL0     H48428   8.291   3.817  10.116 -0.1941  0.5611 -0.6471
  359MOL0     H48429   8.173   4.223  10.186 -0.7677 -0.6942 -0.9248
  359MOL0     H48430   8.193   4.456  10.296 -1.7013  2.6342 -0.8508
  359MOL0     H48431   8.265   4.825  10.052  3.4162 -2.5958  2.1895
  359MOL0     H48432   8.094   4.798  10.095 -0.5278  1.2847  0.1266
  359MOL0     H48433   8.127   4.871  10.310  1.8417  0.2567  2.6717
  359MOL0     H48434   8.288   4.917  10.286  0.6259 -1.0294 -2.6681
  359MOL0     H48435   8.172   5.127  10.263 -2.7242 -0.5969  1.4618
  359MOL0     H48436   8.058   5.048  10.147  0.9542  1.0694 -2.9642
  359MOL0     H48437   8.225   5.036   9.972  2.1734 -1.1684  0.1200
  359MOL0     H48438   8.185   5.192  10.025  0.0706  1.1389  0.6737
  359MOL0     H48439   8.430   5.068  10.161 -2.9950 -1.1472  0.2418
  359MOL0     H48440   8.397   5.233  10.153 -0.0521 -0.8264  0.3472
  359MOL0     H48441   8.557   5.187   9.981  1.3022 -3.5564  1.6686
  359MOL0     H48442   8.469   5.036   9.928  0.4013  0.7170 -1.6620
  359MOL0     H48443   8.329   5.314   9.899  0.6811  0.6858 -0.8385
  359MOL0     H48444   8.319   5.174   9.798  1.1431  0.7348 -1.6511
  359MOL0     H48445   8.554   5.367   9.799  3.5283 -2.0026 -1.5684
  359MOL0     H48446   8.418   5.347   9.688 -0.1905  0.2385  0.3688
  359MOL0     H48447   8.217   4.635   9.910 -2.1426 -0.2945 -0.0580
  359MOL0     H48448   8.189   4.432   9.806 -1.2935  0.0279 -0.0542
  359MOL0     H48449   8.168   4.077   9.713  0.5446  0.2021 -0.1865
  359MOL0     H48450   8.256   3.946   9.542  1.9784  1.4590  0.1505
  359MOL0     H48451   9.541   2.545  10.153 -0.6441  2.4697 -3.1930
  359MOL0     H48452   9.413   2.484  10.382 -0.5568 -0.1358 -0.1321
  359MOL0     H48453   9.196   2.517  10.685 -0.0126  2.7859 -1.0395
  359MOL0     H48454   9.098   2.358  10.842  2.3106  3.3495  1.6537
  359MOL0     H48455   8.652   2.373  10.892  0.5213  0.3184 -1.8531
  359MOL0     H48456   8.683   2.230  10.777  2.6350 -0.2265 -0.9782
  359MOL0     H48457   8.707   2.235  11.077  1.4195 -2.0827  0.8769
  359MOL0     H48458   8.700   2.094  10.952 -1.2846  0.1014 -2.2093
  359MOL0     H48459   8.484   2.169  10.890 -1.8622  1.7943  0.1723
  359MOL0     H48460   8.491   2.284  11.037 -1.6304 -0.8360  1.6679
  359MOL0     H48461   8.450   2.106  11.185 -0.1246 -2.1125  1.2821
  359MOL0     H48462   8.503   1.981  11.069 -3.6196 -1.9147  1.6229
  359MOL0     H48463   8.092   2.036  11.002 -0.2132  3.1882 -2.1421
  359MOL0     H48464   8.708   2.469  10.700 -0.4243  1.8892 -1.0869
  359MOL0     H48465   8.812   2.619  10.535 -1.7091  3.3582  2.6249
  360MOL0     O48466   9.716   8.769   0.080 -0.0565 -0.5385  0.1924
  360MOL0     C48467   9.786   8.706   0.163 -0.2338  0.0424  0.6450
  360MOL0     O48468   9.909   8.741   0.205  0.4518  0.2942  0.2966
  360MOL0     C48469   9.966   8.853   0.157  0.9260 -0.0715  1.6015
  360MOL0     C48470  10.077   8.833   0.081  0.2099 -0.1723  0.6731
  360MOL0     C48471  10.154   8.942   0.040 -0.4840  0.3122 -0.3872
  360MOL0     C48472  10.112   9.074   0.076  0.1498 -0.6068  0.6791
  360MOL0     O48473  10.177   9.183   0.021  1.2580 -0.5857  0.1551
  360MOL0     C48474  10.139   9.221  -0.118  0.6612  0.8490  0.7017
  360MOL0     C48475  10.044   9.336  -0.101 -0.3403  0.0813  0.5308
  360MOL0     C48476   9.993   9.405  -0.228  0.0484 -1.1346 -0.4997
  360MOL0     C48477  10.097   9.466  -0.329  0.6152  0.8889 -0.5349
  360MOL0     C48478  10.145   9.371  -0.436  0.9891 -0.0689 -0.5057
  360MOL0     C48479  10.247   9.435  -0.540 -0.1514  0.6860  0.3432
  360MOL0     C48480  10.369   9.488  -0.458  0.2862  0.2644 -0.4129
  360MOL0     C48481  10.436   9.376  -0.381  0.3749  0.0718 -0.3501
  360MOL0     N48482  10.556   9.420  -0.308 -0.6189 -0.6967 -0.8710
  360MOL0     C48483  10.567   9.487  -0.192  0.5527 -0.3874 -0.0951
  360MOL0     C48484  10.693   9.527  -0.182 -0.2958 -0.0119  0.5992
  360MOL0     C48485  10.773   9.594  -0.068 -0.1065  0.6396 -0.1643
  360MOL0     C48486  10.695   9.667   0.049  0.8741 -0.3746 -0.1258
  360MOL0     C48487  10.647   9.809   0.008 -0.6751 -0.4317  0.6297
  360MOL0     C48488  10.552   9.877   0.098  1.0223 -0.8176 -1.3081
  360MOL0     O48489  10.604   9.877   0.236  0.2916  0.8385 -0.2324
  360MOL0     C48490  10.710   9.946   0.275  0.3130 -0.1007 -0.5795
  360MOL0     C48491  10.796   9.886   0.364  0.2929 -0.7771 -1.7136
  360MOL0     C48492  10.905   9.948   0.413  1.2715 -0.3417 -0.0328
  360MOL0     C48493  10.990   9.881   0.523 -1.0326  0.5127  1.0437
  360MOL0     C48494  10.928  10.077   0.372 -0.5815 -0.7536  0.8791
  360MOL0     C48495  11.040  10.154   0.420 -0.3371 -0.7590 -0.4005
  360MOL0     O48496  11.165  10.094   0.428 -0.4781 -0.5040 -0.2085
  360MOL0     C48497  11.275  10.175   0.441 -0.0965 -0.5778  0.8510
  360MOL0     C48498  11.308  10.259   0.558  0.6632  0.0726 -0.5081
  360MOL0     C48499  11.428  10.325   0.565 -0.1146 -0.6042 -0.8620
  360MOL0     C48500  11.527  10.332   0.467  0.2522  0.8524 -0.0067
  360MOL0     O48501  11.635  10.404   0.479 -0.4993  0.3061 -0.9404
  360MOL0     C48502  11.741  10.395   0.382 -0.7931 -0.5263 -0.4117
  360MOL0     C48503  11.866  10.457   0.444  0.1235 -1.0978 -0.1048
  360MOL0     C48504  11.989  10.474   0.336  0.6486  0.5094 -1.4532
  360MOL0     C48505  12.011  10.624   0.321  0.5656  0.1918 -0.5385
  360MOL0     C48506  12.148  10.617   0.250  1.4492  0.6866 -0.5711
  360MOL0     C48507  12.202  10.756   0.205  0.2842 -0.2261 -0.4559
  360MOL0     C48508  12.349  10.747   0.176 -0.3889 -0.7903  0.5597
  360MOL0     C48509  12.414  10.883   0.146  0.8170 -0.9910 -0.0251
  360MOL0    Cl48510  12.531  10.863   0.022  0.0746  0.1223  0.3945
  360MOL0     C48511  11.489  10.259   0.352 -0.0747 -0.1318 -0.7196
  360MOL0     C48512  11.370  10.183   0.333 -0.3439  0.7371 -0.8809
  360MOL0     O48513  11.019  10.271   0.442 -0.6654 -1.0741  0.5539
  360MOL0     C48514  10.845  10.134   0.272 -0.1808 -0.4002  0.0669
  360MOL0     C48515  10.730  10.069   0.230  0.0785 -0.1802 -0.1241
  360MOL0     N48516  10.757   9.500  -0.304 -0.1313  0.4778 -0.6240
  360MOL0     N48517  10.671   9.439  -0.379 -0.5841  0.2068 -0.0418
  360MOL0     C48518  10.007   9.095   0.151  0.8504  0.6652 -0.3683
  360MOL0     C48519   9.933   8.981   0.191  0.0668 -0.1599  0.6322
  360MOL0     C48520   9.729   8.601   0.242  0.2274 -0.8050 -0.0966
  360MOL0     C48521   9.790   8.569   0.357  0.1356  0.0042 -0.3709
  360MOL0     C48522   9.742   8.461   0.439 -0.1091 -0.0067 -0.3800
  360MOL0     C48523   9.641   8.376   0.399 -0.6852 -0.3011  0.2510
  360MOL0     O48524   9.597   8.266   0.471  0.0622 -0.8973 -1.1460
  360MOL0     C48525   9.602   8.284   0.611 -0.7733  0.2837  0.2320
  360MOL0     C48526   9.526   8.166   0.679  0.6877  0.2742  0.1774
  360MOL0     C48527   9.503   8.199   0.828  0.2489  0.6917  0.4709
  360MOL0     C48528   9.400   8.097   0.882  0.5438  1.0096 -0.2843
  360MOL0     C48529   9.383   8.116   1.028 -0.1070 -0.0212  0.0556
  360MOL0     C48530   9.390   8.149   1.145 -0.5026  0.0571 -0.1607
  360MOL0     C48531   9.587   8.412   0.271  0.1628 -0.0227 -1.1550
  360MOL0     C48532   9.622   8.521   0.199 -0.4594  0.2820 -0.2970
  360MOL0     H48533  10.115   8.735   0.054  0.3462 -0.2754  1.2208
  360MOL0     H48534  10.237   8.924  -0.027 -1.6476 -3.5320 -1.0221
  360MOL0     H48535  10.227   9.249  -0.176  0.1134 -3.8107 -2.9988
  360MOL0     H48536  10.107   9.128  -0.167  0.1473  0.1680  2.2402
  360MOL0     H48537   9.961   9.313  -0.035 -1.0852  1.0872 -0.0224
  360MOL0     H48538  10.106   9.405  -0.043  0.6063 -1.7809  1.8327
  360MOL0     H48539   9.926   9.333  -0.277  1.1851 -1.2768 -1.9089
  360MOL0     H48540   9.939   9.488  -0.182  1.3274 -0.2638 -0.5189
  360MOL0     H48541  10.068   9.564  -0.369  1.8464  1.7619  0.6180
  360MOL0     H48542  10.182   9.494  -0.266  0.8912 -2.0876  0.5778
  360MOL0     H48543  10.193   9.282  -0.395 -1.0804 -1.7177 -1.4929
  360MOL0     H48544  10.054   9.332  -0.482 -0.8148  0.5024  2.2648
  360MOL0     H48545  10.280   9.343  -0.589  0.8216  0.6660  1.0195
  360MOL0     H48546  10.210   9.505  -0.616  2.2238  0.7312 -0.8644
  360MOL0     H48547  10.442   9.513  -0.535  0.1488 -2.4523 -1.5195
  360MOL0     H48548  10.345   9.569  -0.388  1.9162 -0.1692  0.7012
  360MOL0     H48549  10.465   9.300  -0.453  1.8934 -0.7090  1.0222
  360MOL0     H48550  10.370   9.332  -0.305 -1.2726  2.4019 -0.3254
  360MOL0     H48551  10.493   9.498  -0.114 -0.1864  0.3942 -0.8836
  360MOL0     H48552  10.850   9.524  -0.035 -0.0589 -0.3374 -2.2078
  360MOL0     H48553  10.840   9.666  -0.116  0.2829 -0.6086 -1.5733
  360MOL0     H48554  10.761   9.676   0.136 -0.3200 -0.6227  0.8327
  360MOL0     H48555  10.617   9.597   0.078 -0.5522  0.4871 -1.7239
  360MOL0     H48556  10.603   9.810  -0.092  0.5883  0.6704  0.0509
  360MOL0     H48557  10.739   9.869   0.003 -0.9451  0.0744  1.6293
  360MOL0     H48558  10.455   9.827   0.097  0.9961 -0.8729  0.7710
  360MOL0     H48559  10.529   9.980   0.066  0.6464 -1.1095 -1.9945
  360MOL0     H48560  10.765   9.787   0.396  2.0914 -1.2036 -1.2065
  360MOL0     H48561  11.010   9.951   0.605  3.6432 -0.9643  1.4630
  360MOL0     H48562  10.928   9.799   0.561 -1.0267 -1.2472 -2.3431
  360MOL0     H48563  11.082   9.844   0.476 -2.4923  0.4426 -2.0285
  360MOL0     H48564  11.245  10.247   0.645  0.7546 -0.8599 -0.5631
  360MOL0     H48565  11.437  10.379   0.658 -3.0263  1.7368 -1.7642
  360MOL0     H48566  11.752  10.293   0.342 -2.2271 -0.7981 -0.1691
  360MOL0     H48567  11.718  10.461   0.299  1.2090 -0.1001 -0.6702
  360MOL0     H48568  11.850  10.552   0.497  1.9935 -0.2017 -1.0283
  360MOL0     H48569  11.909  10.397   0.525  3.6726  5.2250  3.5560
  360MOL0     H48570  11.967  10.425   0.241 -0.6038 -0.6725 -0.5808
  360MOL0     H48571  12.075  10.430   0.388  0.8486  2.6406  0.1380
  360MOL0     H48572  11.940  10.668   0.250  0.6609 -0.1733 -0.8659
  360MOL0     H48573  12.015  10.688   0.409  2.8754 -0.4538 -0.1049
  360MOL0     H48574  12.143  10.549   0.164 -2.7200 -2.9406  2.1296
  360MOL0     H48575  12.221  10.567   0.314  1.0434 -1.7421 -1.8754
  360MOL0     H48576  12.148  10.805   0.124  1.6137 -1.2529 -2.0141
  360MOL0     H48577  12.190  10.821   0.293 -1.5248  0.4749 -1.1723
  360MOL0     H48578  12.360  10.672   0.098  0.4584 -2.0897  1.8654
  360MOL0     H48579  12.408  10.715   0.263 -1.4800  0.9664  2.0010
  360MOL0     H48580  12.459  10.915   0.240 -0.0679 -1.9714  0.7655
  360MOL0     H48581  12.336  10.953   0.115  1.7056 -1.3514 -3.4590
  360MOL0     H48582  11.567  10.254   0.277  3.2952 -2.7931  2.6038
  360MOL0     H48583  11.369  10.133   0.237 -2.2417 -0.2597 -0.4014
  360MOL0     H48584  10.871  10.229   0.226 -1.1973 -0.0682  0.1424
  360MOL0     H48585  10.659  10.114   0.161  2.3632 -1.3326 -3.4880
  360MOL0     H48586   9.960   9.190   0.175 -2.6899 -1.4166  2.0667
  360MOL0     H48587   9.856   8.994   0.267 -1.3872 -3.1145 -0.1868
  360MOL0     H48588   9.885   8.599   0.401 -0.3931  1.7459 -0.3165
  360MOL0     H48589   9.802   8.443   0.527 -1.5594  0.7924  0.8296
  360MOL0     H48590   9.704   8.280   0.649 -1.1872 -0.6025  1.3331
  360MOL0     H48591   9.565   8.384   0.633  2.8587  1.4360  1.8385
  360MOL0     H48592   9.574   8.068   0.671 -0.1363 -0.1938  0.7860
  360MOL0     H48593   9.431   8.165   0.626  0.8587  1.0769 -0.1475
  360MOL0     H48594   9.462   8.300   0.826  0.3134  0.7815 -2.9453
  360MOL0     H48595   9.591   8.199   0.893  1.3702 -0.5916 -0.9564
  360MOL0     H48596   9.433   7.995   0.863 -4.5982 -0.9288 -0.5655
  360MOL0     H48597   9.309   8.113   0.824  0.1130 -1.2292 -0.3311
  360MOL0     H48598   9.392   8.172   1.250  3.0739  3.4625 -0.7361
  360MOL0     H48599   9.512   8.339   0.245 -1.3127  0.3963  1.5352
  360MOL0     H48600   9.574   8.532   0.102  0.7721 -2.2730 -1.3166
  361MOL0     O48601   8.837   5.817   3.765 -0.1697 -0.7117 -0.5435
  361MOL0     C48602   8.897   5.728   3.716  0.5393 -0.2774  0.1710
  361MOL0     O48603   9.028   5.697   3.740  0.2710  0.5239  0.6167
  361MOL0     C48604   9.090   5.774   3.833 -0.0027  0.3500  0.5642
  361MOL0     C48605   9.153   5.889   3.791 -0.9894 -0.3926  0.2725
  361MOL0     C48606   9.218   5.965   3.887 -1.2085  0.4609  0.8106
  361MOL0     C48607   9.219   5.931   4.019  0.5547 -0.9841  0.3783
  361MOL0     O48608   9.276   6.004   4.121 -0.9106  0.2966 -0.1172
  361MOL0     C48609   9.250   6.144   4.136  0.4769 -0.2868 -1.1654
  361MOL0     C48610   9.368   6.218   4.091 -0.3176 -0.5632 -0.4519
  361MOL0     C48611   9.347   6.378   4.099  1.0521 -0.6305  0.3241
  361MOL0     C48612   9.452   6.459   4.039 -0.9016  0.3724 -0.7789
  361MOL0     C48613   9.402   6.608   4.019  0.7391  0.0682  0.6753
  361MOL0     C48614   9.522   6.691   3.968  1.4211  0.2849  0.0523
  361MOL0     C48615   9.471   6.837   3.942  0.3960  0.1620 -0.6170
  361MOL0     C48616   9.590   6.924   3.906 -0.0830 -0.5912  0.4979
  361MOL0     N48617   9.660   6.872   3.779  0.6481  0.1942  0.0638
  361MOL0     C48618   9.590   6.846   3.662 -0.6613  0.4586 -0.1992
  361MOL0     C48619   9.665   6.748   3.607 -0.7336 -0.8632  0.3109
  361MOL0     C48620   9.643   6.680   3.476  0.2911  0.7147  0.8313
  361MOL0     C48621   9.739   6.733   3.367  0.3930  0.5820 -1.3758
  361MOL0     C48622   9.721   6.671   3.229 -0.1554  0.7584 -0.0854
  361MOL0     C48623   9.742   6.522   3.228  0.5684  0.4639 -0.3677
  361MOL0     O48624   9.880   6.493   3.260 -0.3233  0.8689  0.2874
  361MOL0     C48625   9.900   6.362   3.296  0.5673 -0.6794  0.3150
  361MOL0     C48626   9.920   6.258   3.216 -0.4414 -1.1888  0.4831
  361MOL0     C48627   9.937   6.130   3.258  0.3059 -0.1612 -0.0514
  361MOL0     C48628   9.954   6.025   3.146  0.1109 -0.8879 -0.8077
  361MOL0     C48629   9.949   6.107   3.392  1.1293 -0.2134  0.2524
  361MOL0     C48630   9.974   5.977   3.452 -0.3298  1.0894 -0.3875
  361MOL0     O48631   9.994   5.982   3.588 -0.6097 -0.1142 -0.3919
  361MOL0     C48632  10.016   5.858   3.654 -0.0645 -0.2777 -0.9152
  361MOL0     C48633  10.129   5.858   3.721 -1.0883 -0.0458  0.1807
  361MOL0     C48634  10.176   5.751   3.794 -0.1384  0.3577 -0.2237
  361MOL0     C48635  10.109   5.636   3.803  1.5293  1.4122 -0.0127
  361MOL0     O48636  10.167   5.542   3.886  0.3227  0.3453  0.2718
  361MOL0     C48637  10.120   5.412   3.859  0.4346  0.1336 -0.5920
  361MOL0     C48638  10.198   5.307   3.935  0.3943 -0.8158 -0.4072
  361MOL0     C48639  10.345   5.322   3.923 -0.4118 -0.4713  0.0587
  361MOL0     C48640  10.419   5.193   3.977 -0.4769 -0.2600 -0.7653
  361MOL0     C48641  10.569   5.206   3.989 -0.5262 -0.1315 -0.1179
  361MOL0     C48642  10.641   5.155   3.865 -0.3528 -1.0573  0.6901
  361MOL0     C48643  10.797   5.171   3.878  0.0789 -0.9555 -0.8471
  361MOL0     C48644  10.877   5.099   3.767 -0.3569 -0.1374 -0.1465
  361MOL0    Cl48645  10.949   4.950   3.846 -0.4719  0.1876 -0.2807
  361MOL0     C48646   9.985   5.629   3.726 -0.3342 -0.0145 -0.5414
  361MOL0     C48647   9.946   5.737   3.657 -0.0638  0.8018 -0.5975
  361MOL0     O48648   9.977   5.879   3.389  0.2698 -1.3569 -0.4302
  361MOL0     C48649   9.908   6.212   3.479 -0.1403  0.2254  0.6747
  361MOL0     C48650   9.887   6.337   3.433  0.5118 -1.0983 -0.3469
  361MOL0     N48651   9.775   6.731   3.689 -0.9982  1.1315 -0.0270
  361MOL0     N48652   9.765   6.798   3.791 -0.0702  1.0673 -1.0821
  361MOL0     C48653   9.153   5.819   4.055  0.1275 -0.8913  0.0526
  361MOL0     C48654   9.083   5.738   3.964 -0.0770  0.0774 -0.1874
  361MOL0     C48655   8.825   5.657   3.607 -0.0591  0.5279  0.0159
  361MOL0     C48656   8.836   5.521   3.595 -1.2348 -0.3573  0.1202
  361MOL0     C48657   8.777   5.452   3.487  0.1267  0.9779 -0.0361
  361MOL0     C48658   8.691   5.529   3.396 -0.4046  0.2042 -0.3135
  361MOL0     O48659   8.630   5.472   3.286 -0.7002 -0.3568  0.0461
  361MOL0     C48660   8.651   5.331   3.264  0.9921  0.5227  1.0516
  361MOL0     C48661   8.584   5.293   3.133  0.3362 -0.3624 -0.7984
  361MOL0     C48662   8.550   5.148   3.140  0.7179 -0.0525  0.3922
  361MOL0     C48663   8.676   5.056   3.139  0.2133 -0.1525  0.2372
  361MOL0     C48664   8.702   5.036   3.001  0.2651  0.1005 -0.5531
  361MOL0     C48665   8.718   5.012   2.883  0.9041 -0.2481 -0.3192
  361MOL0     C48666   8.684   5.671   3.411 -1.2889  1.0914 -0.6338
  361MOL0     C48667   8.752   5.725   3.521 -0.4099 -0.5880  1.1613
  361MOL0     H48668   9.167   5.916   3.687  0.2162 -1.8259  0.0278
  361MOL0     H48669   9.259   6.060   3.854 -0.5196  0.5701  1.9337
  361MOL0     H48670   9.162   6.175   4.078  0.3140  3.2529  0.7263
  361MOL0     H48671   9.235   6.178   4.238  0.4217  2.0480 -1.8914
  361MOL0     H48672   9.456   6.182   4.145 -1.7914 -2.1822  0.9901
  361MOL0     H48673   9.387   6.181   3.989 -0.4010 -1.9872  0.0247
  361MOL0     H48674   9.251   6.402   4.053  1.9502  0.2924 -1.1518
  361MOL0     H48675   9.346   6.418   4.201  0.8511  5.7248 -1.7700
  361MOL0     H48676   9.538   6.460   4.107 -0.5934 -0.5887 -1.1448
  361MOL0     H48677   9.502   6.421   3.950  0.4032 -0.6602  0.3627
  361MOL0     H48678   9.323   6.608   3.943  0.8021  0.3820  0.6054
  361MOL0     H48679   9.360   6.645   4.112 -1.4176  3.1531 -1.3191
  361MOL0     H48680   9.607   6.683   4.037  0.6901 -2.2498  0.7932
  361MOL0     H48681   9.544   6.644   3.871 -0.1387  2.3564 -1.3896
  361MOL0     H48682   9.401   6.849   3.859 -0.9334  3.0251  0.7572
  361MOL0     H48683   9.424   6.882   4.030  3.1728  2.9663 -0.4305
  361MOL0     H48684   9.662   6.934   3.988  0.6913 -0.5862 -0.1622
  361MOL0     H48685   9.557   7.027   3.888 -0.0635 -0.5273  0.8202
  361MOL0     H48686   9.507   6.901   3.618  0.7068  0.7023 -2.6708
  361MOL0     H48687   9.670   6.574   3.485 -5.4289 -0.9960  2.0862
  361MOL0     H48688   9.539   6.687   3.443  0.2681  0.1140  0.7580
  361MOL0     H48689   9.844   6.728   3.395  0.7205  1.7628 -2.3200
  361MOL0     H48690   9.727   6.840   3.346  2.0306  0.5593 -2.6115
  361MOL0     H48691   9.785   6.724   3.159 -0.9377  1.8327 -0.0056
  361MOL0     H48692   9.623   6.679   3.183 -0.4863 -0.6380  0.3125
  361MOL0     H48693   9.708   6.476   3.135  1.2051 -1.7031  0.4021
  361MOL0     H48694   9.678   6.481   3.307 -0.3737 -1.9994 -2.2620
  361MOL0     H48695   9.932   6.278   3.110  4.7794  0.0861  1.0666
  361MOL0     H48696   9.867   5.964   3.122 -0.5480  0.6043 -2.4018
  361MOL0     H48697   9.978   6.073   3.051  0.1322  2.8448  0.9280
  361MOL0     H48698  10.040   5.964   3.175  0.8535  0.4614 -0.0941
  361MOL0     H48699  10.187   5.949   3.732 -2.4940  0.8304  0.5815
  361MOL0     H48700  10.273   5.759   3.843 -0.8427  1.3219  1.0575
  361MOL0     H48701  10.013   5.410   3.885  1.0267  4.9691  4.1295
  361MOL0     H48702  10.140   5.392   3.754  0.8922  1.6295 -0.8134
  361MOL0     H48703  10.162   5.312   4.038  1.9727  2.0669  0.1245
  361MOL0     H48704  10.161   5.212   3.894 -2.3677 -0.2512  0.5655
  361MOL0     H48705  10.385   5.414   3.966  1.4776 -0.0354 -2.4145
  361MOL0     H48706  10.375   5.339   3.819  0.2911 -0.1810  0.2977
  361MOL0     H48707  10.391   5.171   4.081  3.6048  2.3893  1.1648
  361MOL0     H48708  10.390   5.111   3.910  1.5645 -0.5366 -1.3704
  361MOL0     H48709  10.604   5.155   4.079  1.7800  0.8684 -0.3692
  361MOL0     H48710  10.599   5.309   4.010  2.5364 -0.9451  0.0157
  361MOL0     H48711  10.621   5.047   3.864  0.0199 -1.1358 -0.9694
  361MOL0     H48712  10.595   5.191   3.773 -0.8649 -3.8623 -0.2520
  361MOL0     H48713  10.826   5.137   3.978 -0.5959 -1.7332 -0.8969
  361MOL0     H48714  10.815   5.279   3.875  0.7562 -0.8897  2.1911
  361MOL0     H48715  10.955   5.161   3.721  0.2976 -0.7829  0.0765
  361MOL0     H48716  10.808   5.068   3.688  0.4097 -1.7055 -0.2387
  361MOL0     H48717   9.921   5.541   3.723  0.3434 -0.4841 -1.4833
  361MOL0     H48718   9.852   5.744   3.603 -0.5504  1.3846  0.2887
  361MOL0     H48719   9.909   6.201   3.587 -0.2562 -0.5048  0.6061
  361MOL0     H48720   9.854   6.405   3.512 -2.2170 -1.1358 -1.3258
  361MOL0     H48721   9.174   5.776   4.153  1.7989 -1.0705 -0.3444
  361MOL0     H48722   9.025   5.649   3.987  0.7997 -1.3431 -3.0816
  361MOL0     H48723   8.889   5.461   3.668 -1.8318 -1.7785 -0.5789
  361MOL0     H48724   8.789   5.344   3.488 -0.5013  0.9009 -0.6056
  361MOL0     H48725   8.757   5.308   3.258  0.8320 -0.2709  1.1583
  361MOL0     H48726   8.623   5.277   3.356  0.7114 -1.4821 -0.1511
  361MOL0     H48727   8.657   5.312   3.053 -0.4943 -1.2146 -1.7872
  361MOL0     H48728   8.489   5.346   3.122  1.0717  1.3351  0.6531
  361MOL0     H48729   8.489   5.115   3.055  4.4557 -2.8365 -1.4795
  361MOL0     H48730   8.492   5.131   3.231 -0.3536 -0.7166 -0.3932
  361MOL0     H48731   8.654   4.966   3.197  1.8410  1.0463  2.9107
  361MOL0     H48732   8.752   5.116   3.189 -1.5206  4.9092 -2.4854
  361MOL0     H48733   8.748   4.984   2.784 -0.0752  0.2151 -0.7535
  361MOL0     H48734   8.627   5.726   3.337  0.6948  2.0358 -1.5347
  361MOL0     H48735   8.756   5.833   3.532  1.0814 -0.4215 -0.5508
  362MOL0     O48736   6.149   2.766   1.306  0.5332 -0.3227  0.7316
  362MOL0     C48737   6.078   2.676   1.261 -0.1017 -0.9932 -0.4729
  362MOL0     O48738   5.990   2.594   1.321 -1.0219 -0.6661  0.3246
  362MOL0     C48739   5.916   2.643   1.419 -0.6051  0.8826  0.2876
  362MOL0     C48740   5.855   2.533   1.465  1.5870  0.2425 -0.6115
  362MOL0     C48741   5.746   2.556   1.551 -0.4367  0.6586  0.1086
  362MOL0     C48742   5.706   2.682   1.597  0.6289  0.0404  0.5454
  362MOL0     O48743   5.596   2.691   1.671  0.6083  0.3078  0.1618
  362MOL0     C48744   5.517   2.807   1.645  0.0824 -0.0341  0.4368
  362MOL0     C48745   5.453   2.793   1.498 -0.1986 -0.3713  1.7554
  362MOL0     C48746   5.332   2.691   1.481  0.3630  0.0505 -0.8217
  362MOL0     C48747   5.212   2.688   1.581  0.2359 -0.5031 -1.2206
  362MOL0     C48748   5.092   2.593   1.533  0.3309 -0.5550 -0.1989
  362MOL0     C48749   4.977   2.568   1.633  0.3384  0.6390  0.8704
  362MOL0     C48750   4.872   2.487   1.565 -0.0934  0.3836  0.7057
  362MOL0     C48751   4.760   2.431   1.662  0.5590  0.3879  0.2553
  362MOL0     N48752   4.784   2.291   1.708  0.4806  0.5212  0.4889
  362MOL0     C48753   4.905   2.259   1.767 -0.6263  0.1159  0.1140
  362MOL0     C48754   4.899   2.119   1.782  0.4089  0.6862  0.7331
  362MOL0     C48755   4.998   2.031   1.841 -0.0615  0.3634  0.3965
  362MOL0     C48756   5.093   1.982   1.737 -1.7872 -0.9130 -0.3295
  362MOL0     C48757   5.191   2.093   1.705  0.3243  0.1865 -0.0458
  362MOL0     C48758   5.322   2.055   1.648 -0.5012 -0.0687  0.0376
  362MOL0     O48759   5.387   2.177   1.625 -0.1267 -0.5358 -0.3716
  362MOL0     C48760   5.474   2.176   1.522 -0.5059  0.0155  0.9882
  362MOL0     C48761   5.505   2.302   1.473  0.6957  0.6919 -0.7354
  362MOL0     C48762   5.590   2.319   1.361 -0.9849  0.1291  0.3481
  362MOL0     C48763   5.575   2.462   1.298 -0.3894  0.9508 -0.2150
  362MOL0     C48764   5.651   2.201   1.312 -0.1910  0.6982 -0.5894
  362MOL0     C48765   5.708   2.197   1.186  0.6156  0.7769 -0.4402
  362MOL0     O48766   5.688   2.080   1.107 -0.7933 -0.1286 -0.3243
  362MOL0     C48767   5.728   2.073   0.981 -0.2987 -0.6119 -0.2380
  362MOL0     C48768   5.830   2.151   0.920  0.6504  1.2653 -0.2277
  362MOL0     C48769   5.850   2.151   0.781  0.5362  0.0115 -0.1614
  362MOL0     C48770   5.778   2.065   0.699  0.8346 -0.4525 -0.4651
  362MOL0     O48771   5.798   2.088   0.567 -0.8502  1.1252  0.6861
  362MOL0     C48772   5.807   1.979   0.478 -0.0097 -0.8817 -0.1058
  362MOL0     C48773   5.967   1.962   0.460 -0.1599  0.0454 -0.0597
  362MOL0     C48774   6.024   2.071   0.377 -0.1988 -0.9011  0.1976
  362MOL0     C48775   6.157   2.051   0.310  0.2007 -0.0452 -1.0746
  362MOL0     C48776   6.277   2.015   0.404  0.2220  0.6896  0.0890
  362MOL0     C48777   6.411   2.026   0.333  0.0511  0.3735  0.5307
  362MOL0     C48778   6.472   2.166   0.325 -0.0254 -0.7367  0.5505
  362MOL0     C48779   6.606   2.175   0.232  0.2028  0.4229  0.3458
  362MOL0    Cl48780   6.602   2.095   0.070  0.1715 -0.4325 -0.4268
  362MOL0     C48781   5.682   1.983   0.756 -0.3276  0.0915 -0.1090
  362MOL0     C48782   5.662   1.980   0.898 -0.5395  0.2998 -0.5235
  362MOL0     O48783   5.775   2.294   1.152  0.2393 -0.1016 -0.3168
  362MOL0     C48784   5.633   2.068   1.375 -0.7336 -0.0929 -0.3023
  362MOL0     C48785   5.540   2.058   1.465 -0.0435 -1.2428  0.3862
  362MOL0     N48786   4.776   2.080   1.723 -0.4614 -0.4607  0.1713
  362MOL0     N48787   4.700   2.188   1.707 -0.3532  0.2453  0.4861
  362MOL0     C48788   5.774   2.791   1.551 -0.4839 -0.4485  0.7863
  362MOL0     C48789   5.882   2.772   1.461  0.1776  0.1269  1.7232
  362MOL0     C48790   6.114   2.642   1.120 -0.7193 -0.4210  0.5977
  362MOL0     C48791   6.211   2.713   1.043  0.8401 -0.5084  0.2636
  362MOL0     C48792   6.247   2.681   0.916  0.5384  0.4902  0.3743
  362MOL0     C48793   6.186   2.576   0.855  0.5363 -0.4761  0.1965
  362MOL0     O48794   6.229   2.532   0.733  0.3595 -0.8513  0.8824
  362MOL0     C48795   6.325   2.602   0.662 -0.4304 -0.1732 -0.7177
  362MOL0     C48796   6.328   2.559   0.522  0.7500 -0.5136 -0.2937
  362MOL0     C48797   6.441   2.637   0.443  0.6960 -1.0139  0.3178
  362MOL0     C48798   6.486   2.556   0.326 -0.0977 -0.0421 -0.5380
  362MOL0     C48799   6.373   2.504   0.254  0.1003 -1.2543 -0.4042
  362MOL0     C48800   6.284   2.465   0.185  0.0575 -0.0095 -0.3555
  362MOL0     C48801   6.084   2.510   0.919 -0.7224 -0.7144  0.5943
  362MOL0     C48802   6.046   2.532   1.055 -0.3873 -1.2087 -0.2114
  362MOL0     H48803   5.868   2.433   1.424  1.1159  0.0373 -0.2830
  362MOL0     H48804   5.681   2.471   1.571 -0.5828  0.7485  0.0182
  362MOL0     H48805   5.435   2.807   1.718  0.1965 -0.0437  0.5641
  362MOL0     H48806   5.568   2.903   1.642 -0.5669  0.2983 -2.7528
  362MOL0     H48807   5.418   2.895   1.481 -2.3467 -1.2490  0.5151
  362MOL0     H48808   5.523   2.769   1.418 -2.3599 -1.7258  0.1606
  362MOL0     H48809   5.299   2.719   1.381  1.2306  1.7465 -0.6762
  362MOL0     H48810   5.364   2.587   1.477 -0.9458 -0.3879 -0.5451
  362MOL0     H48811   5.241   2.665   1.684 -1.0965 -0.9468 -0.9169
  362MOL0     H48812   5.172   2.790   1.583 -2.2268 -1.3801 -1.6769
  362MOL0     H48813   5.053   2.640   1.443  0.6697 -2.4089 -1.3736
  362MOL0     H48814   5.144   2.503   1.498  0.7208  0.4374 -2.3129
  362MOL0     H48815   5.013   2.515   1.722  0.1652  0.9621  1.1341
  362MOL0     H48816   4.945   2.666   1.668  1.0464  1.6904 -1.2234
  362MOL0     H48817   4.826   2.547   1.486 -1.2413 -1.1054  0.1928
  362MOL0     H48818   4.918   2.403   1.513 -3.7276 -0.5215 -1.4656
  362MOL0     H48819   4.668   2.417   1.604  0.4933  0.5988  0.3084
  362MOL0     H48820   4.720   2.496   1.740 -0.7280 -1.0642  0.8692
  362MOL0     H48821   4.993   2.321   1.784 -1.0877  0.5768  0.9364
  362MOL0     H48822   5.059   2.082   1.916 -0.1099  0.1455  0.5857
  362MOL0     H48823   4.959   1.942   1.891 -0.1521  0.5166  0.6029
  362MOL0     H48824   5.043   1.951   1.645  2.1984 -0.0958 -3.0083
  362MOL0     H48825   5.145   1.893   1.773  2.0096  1.0474 -0.5005
  362MOL0     H48826   5.214   2.154   1.793  2.4227 -0.6332  0.0178
  362MOL0     H48827   5.146   2.157   1.628 -1.1880  1.5908  1.9090
  362MOL0     H48828   5.297   1.991   1.563  0.1396 -0.2808  0.0060
  362MOL0     H48829   5.381   2.011   1.729  2.4086  2.1928 -0.6606
  362MOL0     H48830   5.455   2.385   1.523 -0.0160 -0.5911  0.7731
  362MOL0     H48831   5.517   2.530   1.361  0.4881  0.2247  1.4660
  362MOL0     H48832   5.670   2.515   1.294  0.8516 -0.8661  2.1089
  362MOL0     H48833   5.526   2.464   1.201 -1.8039 -0.0657  0.4401
  362MOL0     H48834   5.893   2.216   0.979  1.2168 -0.0092  0.6232
  362MOL0     H48835   5.930   2.210   0.737 -0.8081  0.3615 -2.2596
  362MOL0     H48836   5.773   1.885   0.523  0.5135  0.0409  2.4084
  362MOL0     H48837   5.762   1.994   0.380  0.8474 -1.8703 -0.6652
  362MOL0     H48838   6.022   1.957   0.554  0.3736 -1.9431 -0.4325
  362MOL0     H48839   5.978   1.865   0.411 -2.5160  0.3178 -1.2899
  362MOL0     H48840   6.040   2.164   0.433 -0.0992  1.4056 -3.3607
  362MOL0     H48841   5.940   2.097   0.312 -0.5232 -3.1734 -0.3505
  362MOL0     H48842   6.151   1.976   0.230  1.5288  0.0584 -1.2960
  362MOL0     H48843   6.178   2.149   0.267  1.2779  1.8305  3.1783
  362MOL0     H48844   6.275   1.907   0.422 -0.6748  0.7248  0.2224
  362MOL0     H48845   6.271   2.062   0.503  2.3670 -1.3965  1.3138
  362MOL0     H48846   6.470   1.959   0.397 -2.1070  0.7355  3.0873
  362MOL0     H48847   6.408   1.977   0.236  5.4359  1.5569 -0.5632
  362MOL0     H48848   6.505   2.205   0.422  0.6165  0.5202 -0.1429
  362MOL0     H48849   6.398   2.234   0.282  0.7741 -1.6079 -2.4038
  362MOL0     H48850   6.689   2.135   0.291 -0.6926 -1.4748  0.3962
  362MOL0     H48851   6.614   2.283   0.219  1.0232  0.7050  2.7953
  362MOL0     H48852   5.614   1.926   0.692  3.9570 -4.8738 -0.9814
  362MOL0     H48853   5.575   1.921   0.925 -2.4635  1.8840 -2.8690
  362MOL0     H48854   5.700   1.987   1.349 -1.7003 -1.6233  1.6908
  362MOL0     H48855   5.534   1.957   1.506 -3.1509 -2.0085 -1.6083
  362MOL0     H48856   5.760   2.893   1.584  3.9551 -0.0536  2.0888
  362MOL0     H48857   5.936   2.852   1.411  1.8213 -3.3341 -2.6807
  362MOL0     H48858   6.257   2.806   1.075 -2.3603  0.7168  1.8681
  362MOL0     H48859   6.310   2.754   0.865 -1.6279  2.3607  0.2314
  362MOL0     H48860   6.302   2.709   0.666 -0.8630 -0.1926 -2.1036
  362MOL0     H48861   6.422   2.597   0.712 -1.6852 -1.5989  1.7622
  362MOL0     H48862   6.230   2.591   0.485  0.9556  1.0827  0.4663
  362MOL0     H48863   6.345   2.451   0.523  1.2420 -0.4360 -0.2419
  362MOL0     H48864   6.527   2.660   0.508  0.6024 -0.9541  0.4210
  362MOL0     H48865   6.393   2.724   0.398  0.5712 -0.3804  1.6292
  362MOL0     H48866   6.541   2.464   0.350 -2.8096 -2.6326 -3.2743
  362MOL0     H48867   6.549   2.624   0.270 -1.5984  1.1691 -0.8372
  362MOL0     H48868   6.206   2.428   0.121  1.5556 -2.6408 -0.7892
  362MOL0     H48869   6.037   2.432   0.860  0.2712 -0.6342 -0.3353
  362MOL0     H48870   5.975   2.461   1.096  1.0250 -2.7157 -0.2841
  363MOL0     O48871   7.807   5.699   2.933 -0.0531  0.1265  0.2852
  363MOL0     C48872   7.734   5.730   3.026 -0.6841  0.6252 -0.2861
  363MOL0     O48873   7.657   5.643   3.090  0.2133 -0.2696 -0.8774
  363MOL0     C48874   7.660   5.512   3.046  0.0505  0.9810  0.8268
  363MOL0     C48875   7.765   5.423   3.078  0.2209  0.6102 -0.3851
  363MOL0     C48876   7.772   5.296   3.024  0.5416 -0.2439 -0.2688
  363MOL0     C48877   7.664   5.243   2.946 -0.3008 -0.3917 -0.0491
  363MOL0     O48878   7.668   5.114   2.892  0.1681  0.4357 -0.5474
  363MOL0     C48879   7.701   5.001   2.973 -0.2351 -1.3102 -0.6529
  363MOL0     C48880   7.588   4.994   3.076 -0.4003  1.2670 -0.2200
  363MOL0     C48881   7.576   4.859   3.145  0.6877  0.1641 -0.3384
  363MOL0     C48882   7.516   4.746   3.067 -0.3378  1.2014 -0.0416
  363MOL0     C48883   7.469   4.629   3.151 -0.4817 -0.0127  0.7284
  363MOL0     C48884   7.560   4.572   3.265 -0.8640 -0.8017  0.2771
  363MOL0     C48885   7.494   4.449   3.339 -0.1145  0.0801  0.9193
  363MOL0     C48886   7.448   4.317   3.252 -1.4193 -0.8891  0.1242
  363MOL0     N48887   7.456   4.207   3.346  0.1992 -0.3532  0.3009
  363MOL0     C48888   7.357   4.172   3.442  0.2287 -0.0806  0.2437
  363MOL0     C48889   7.377   4.039   3.451 -0.2505 -0.6724  0.1302
  363MOL0     C48890   7.279   3.953   3.522  0.9215  1.2793 -0.3872
  363MOL0     C48891   7.333   3.835   3.610 -0.5720  0.2518 -0.1519
  363MOL0     C48892   7.232   3.731   3.650  0.8333  0.0808  0.5606
  363MOL0     C48893   7.248   3.691   3.792  0.4953  0.2182 -0.5999
  363MOL0     O48894   7.150   3.582   3.807  0.4790 -0.0036 -0.2542
  363MOL0     C48895   7.189   3.485   3.901  0.0978 -0.7529  0.6614
  363MOL0     C48896   7.109   3.371   3.891 -1.1212 -0.1855 -0.4286
  363MOL0     C48897   7.140   3.256   3.969  0.5255  0.2465  0.0983
  363MOL0     C48898   7.055   3.131   3.919  0.0817 -0.6923  0.7380
  363MOL0     C48899   7.233   3.258   4.081  0.3423 -0.6914 -0.1813
  363MOL0     C48900   7.273   3.142   4.173 -0.1072 -0.0365 -0.2047
  363MOL0     O48901   7.342   3.174   4.282 -0.0944  1.0359  0.4475
  363MOL0     C48902   7.360   3.073   4.374 -1.0421  0.0023 -0.3670
  363MOL0     C48903   7.490   3.067   4.426 -0.1833  0.1238  0.4602
  363MOL0     C48904   7.535   2.958   4.495 -0.1183 -0.2986  0.0614
  363MOL0     C48905   7.449   2.862   4.533 -0.2763  0.0253 -0.9553
  363MOL0     O48906   7.496   2.751   4.604  0.0585  0.3287  0.3171
  363MOL0     C48907   7.618   2.746   4.677  0.3513  0.4183  0.2748
  363MOL0     C48908   7.605   2.840   4.798  0.5141 -0.1610  0.1570
  363MOL0     C48909   7.739   2.855   4.868 -0.5125  0.4987 -0.6896
  363MOL0     C48910   7.787   2.731   4.942 -0.6256 -0.0002  0.4319
  363MOL0     C48911   7.932   2.749   4.991  0.0687 -0.2007 -0.5438
  363MOL0     C48912   7.966   2.621   5.085  1.0352 -0.1598  0.3550
  363MOL0     C48913   7.871   2.609   5.207  0.3075  0.6851  1.1662
  363MOL0     C48914   7.946   2.572   5.324  0.1374 -0.1502 -0.2934
  363MOL0    Cl48915   8.015   2.411   5.342 -0.0703  0.3611 -0.0777
  363MOL0     C48916   7.313   2.872   4.506  0.8493  0.3944 -1.0065
  363MOL0     C48917   7.268   2.977   4.425  0.1032  0.3176 -0.1660
  363MOL0     O48918   7.232   3.036   4.140  0.4011  0.5406  0.1872
  363MOL0     C48919   7.298   3.388   4.095  0.2101  0.1492  0.0158
  363MOL0     C48920   7.287   3.488   3.999  0.9134  0.2523 -0.6221
  363MOL0     N48921   7.468   3.993   3.351 -0.0685  0.0632  0.0785
  363MOL0     N48922   7.513   4.094   3.294 -1.5009  0.2185  0.7378
  363MOL0     C48923   7.546   5.319   2.927 -0.8728  0.1205  0.0275
  363MOL0     C48924   7.552   5.461   2.966 -0.7471 -0.7400  0.1588
  363MOL0     C48925   7.746   5.864   3.084  0.9428  0.0528  0.0489
  363MOL0     C48926   7.625   5.924   3.118 -1.0051 -0.4106 -0.3079
  363MOL0     C48927   7.640   6.058   3.161 -0.1395 -0.2076 -0.5755
  363MOL0     C48928   7.764   6.128   3.181  0.0635 -0.1601  0.3598
  363MOL0     O48929   7.770   6.255   3.230  0.3904  0.3495 -0.3991
  363MOL0     C48930   7.886   6.340   3.208 -0.5697  1.3982 -0.6401
  363MOL0     C48931   7.863   6.480   3.254 -0.4406  0.4450 -0.1260
  363MOL0     C48932   7.991   6.565   3.237  0.6004  0.0158 -0.2790
  363MOL0     C48933   7.967   6.701   3.289  0.9116 -0.4508  1.2682
  363MOL0     C48934   8.078   6.787   3.271  0.1169 -0.4246  0.5323
  363MOL0     C48935   8.175   6.855   3.268 -0.3655 -0.0046  0.1611
  363MOL0     C48936   7.877   6.050   3.161 -0.2098 -0.9560 -0.1483
  363MOL0     C48937   7.867   5.927   3.097 -0.7493 -0.0574 -0.2448
  363MOL0     H48938   7.839   5.459   3.149  1.9430 -0.1600 -1.7003
  363MOL0     H48939   7.864   5.243   3.046  1.6176  1.6882  0.0957
  363MOL0     H48940   7.697   4.921   2.898  1.0885 -1.4864 -0.5537
  363MOL0     H48941   7.797   5.011   3.023  0.1662 -1.0598 -1.4548
  363MOL0     H48942   7.613   5.063   3.158  1.5311  0.0848  0.2440
  363MOL0     H48943   7.493   5.024   3.029 -0.7424 -1.9546 -1.8482
  363MOL0     H48944   7.679   4.828   3.164  1.1506  1.1984 -1.0839
  363MOL0     H48945   7.526   4.871   3.241  1.3618 -0.8473  0.1575
  363MOL0     H48946   7.427   4.783   3.016  0.1413  1.3608 -0.7734
  363MOL0     H48947   7.593   4.706   3.001  0.6711 -0.1347  1.8513
  363MOL0     H48948   7.376   4.655   3.203 -0.6498 -0.8224  0.8415
  363MOL0     H48949   7.457   4.541   3.087 -1.1817 -1.5336  2.8390
  363MOL0     H48950   7.649   4.540   3.211 -0.6741 -2.3741  1.4725
  363MOL0     H48951   7.586   4.647   3.341 -2.8409 -3.1314  3.4973
  363MOL0     H48952   7.561   4.405   3.413 -0.4370 -0.8285  0.6777
  363MOL0     H48953   7.403   4.490   3.384  0.1473  0.6244  0.9666
  363MOL0     H48954   7.526   4.304   3.177 -0.9090  1.3637  0.1911
  363MOL0     H48955   7.354   4.337   3.201 -2.4621 -2.9459  1.1532
  363MOL0     H48956   7.288   4.230   3.503  0.5614 -0.8876  1.4326
  363MOL0     H48957   7.219   4.016   3.588  1.4033  1.3845 -0.0382
  363MOL0     H48958   7.213   3.905   3.450 -0.5963  2.1993  0.3536
  363MOL0     H48959   7.384   3.887   3.692 -1.7962  3.2283 -1.1485
  363MOL0     H48960   7.408   3.791   3.543 -1.6857  0.5282 -1.6387
  363MOL0     H48961   7.250   3.644   3.585 -0.7116 -0.8873  1.3707
  363MOL0     H48962   7.131   3.770   3.633  0.9121  0.7668  1.6059
  363MOL0     H48963   7.225   3.774   3.860  0.1116 -1.5534  1.5723
  363MOL0     H48964   7.347   3.652   3.817 -0.2430 -0.9048  0.7082
  363MOL0     H48965   7.045   3.357   3.805  2.6143 -0.1634 -3.4560
  363MOL0     H48966   7.029   3.059   3.997  2.3009 -2.2367  0.1527
  363MOL0     H48967   6.955   3.168   3.896  0.4314  2.6603  3.7163
  363MOL0     H48968   7.101   3.070   3.840  0.5105  0.9128 -0.2945
  363MOL0     H48969   7.559   3.146   4.399  1.4789 -0.7895  1.8271
  363MOL0     H48970   7.639   2.953   4.525  0.4953 -0.4658 -1.9303
  363MOL0     H48971   7.609   2.643   4.710 -2.5746  1.5936  3.8012
  363MOL0     H48972   7.707   2.774   4.619 -0.3973  0.8759 -0.6887
  363MOL0     H48973   7.573   2.942   4.774  5.1540  1.9213  1.6659
  363MOL0     H48974   7.534   2.792   4.866  0.5883  1.6684  1.6004
  363MOL0     H48975   7.724   2.932   4.944  2.6508  0.4303  0.1626
  363MOL0     H48976   7.820   2.891   4.804  2.0060  0.5100  2.2718
  363MOL0     H48977   7.717   2.702   5.021 -1.0397  0.7834  0.3621
  363MOL0     H48978   7.776   2.654   4.864 -1.3552  1.3277 -0.8190
  363MOL0     H48979   7.937   2.838   5.055 -0.2924 -1.1776  0.9167
  363MOL0     H48980   8.000   2.766   4.908 -0.2549 -0.4042 -0.8539
  363MOL0     H48981   7.966   2.531   5.023  2.4447 -2.6046  3.6231
  363MOL0     H48982   8.070   2.636   5.115  1.4184 -2.2282  0.1485
  363MOL0     H48983   7.797   2.532   5.184  0.1910  0.2528  2.8177
  363MOL0     H48984   7.821   2.706   5.216 -0.3805  0.8563 -2.7994
  363MOL0     H48985   7.887   2.591   5.414  2.2928 -0.8950  1.3425
  363MOL0     H48986   8.034   2.636   5.329 -0.6067  0.9254 -0.6331
  363MOL0     H48987   7.249   2.801   4.558  1.7230  3.1241  4.5890
  363MOL0     H48988   7.162   2.987   4.402 -0.1359  1.4105  1.2429
  363MOL0     H48989   7.390   3.402   4.152 -1.3728  2.6972  2.1623
  363MOL0     H48990   7.361   3.567   4.005  0.6297  0.4626  0.2520
  363MOL0     H48991   7.460   5.279   2.875  0.6436 -2.9755 -0.3024
  363MOL0     H48992   7.468   5.526   2.943  1.3989  1.9963 -0.5247
  363MOL0     H48993   7.526   5.881   3.117 -1.2905  0.2398 -0.8132
  363MOL0     H48994   7.547   6.101   3.194  0.4576  0.4160  0.3558
  363MOL0     H48995   7.963   6.284   3.262 -2.6902 -1.6247 -0.5286
  363MOL0     H48996   7.922   6.343   3.104  1.8244 -1.1024 -0.0102
  363MOL0     H48997   7.821   6.480   3.355 -3.9863  0.0574 -1.4519
  363MOL0     H48998   7.781   6.508   3.187 -0.5941 -2.4670 -1.2844
  363MOL0     H48999   8.021   6.550   3.133 -3.1381  2.2223 -1.9000
  363MOL0     H49000   8.076   6.528   3.295  0.8135  2.1047  0.8374
  363MOL0     H49001   7.923   6.710   3.389  0.5797  0.8417  1.0199
  363MOL0     H49002   7.883   6.732   3.226  1.6912 -2.5507 -0.9436
  363MOL0     H49003   8.270   6.903   3.256 -1.8331  3.0235 -0.5037
  363MOL0     H49004   7.976   6.090   3.177 -1.6576  2.5223  1.1043
  363MOL0     H49005   7.952   5.870   3.061 -0.9598 -1.2698  1.0624
  364MOL0     O49006   7.907   4.351   9.148 -0.2441 -0.9578  0.2253
  364MOL0     C49007   7.882   4.232   9.144  0.0765 -1.2166  0.0587
  364MOL0     O49008   7.762   4.174   9.183 -0.1450  0.0645 -0.2944
  364MOL0     C49009   7.655   4.265   9.190  0.4959  0.4373 -0.3858
  364MOL0     C49010   7.591   4.299   9.309 -0.3369 -0.0739 -0.1386
  364MOL0     C49011   7.487   4.392   9.310  1.5033  0.4205 -0.3411
  364MOL0     C49012   7.454   4.451   9.187  0.2475  0.5386  0.0729
  364MOL0     O49013   7.345   4.535   9.178  0.1207 -0.1552  0.7147
  364MOL0     C49014   7.293   4.615   9.289  1.5619 -0.0403  0.2572
  364MOL0     C49015   7.214   4.733   9.238  0.5410  0.5508  0.3418
  364MOL0     C49016   7.115   4.682   9.132  0.0999  0.0574 -0.4295
  364MOL0     C49017   6.992   4.778   9.117  0.2860 -0.2745 -0.2775
  364MOL0     C49018   7.045   4.913   9.082 -0.3420 -0.1792 -0.4517
  364MOL0     C49019   7.074   4.923   8.928 -0.6296 -0.1998 -0.4325
  364MOL0     C49020   7.065   5.062   8.869 -0.2157  0.5019 -0.7409
  364MOL0     C49021   7.090   5.052   8.717 -0.5929  0.5320  0.4758
  364MOL0     N49022   7.116   5.177   8.645  0.0441  0.4931  0.1522
  364MOL0     C49023   7.041   5.287   8.653 -1.3914 -0.6227  0.1935
  364MOL0     C49024   7.113   5.384   8.588 -1.2582  0.2632 -0.4966
  364MOL0     C49025   7.065   5.529   8.571  0.0496  0.2879 -0.1664
  364MOL0     C49026   7.176   5.627   8.555 -0.1280 -0.8425  0.2719
  364MOL0     C49027   7.236   5.646   8.413  0.0934  0.2419  0.3994
  364MOL0     C49028   7.327   5.758   8.410  0.3523 -0.1959 -0.2371
  364MOL0     O49029   7.250   5.890   8.419 -0.1546  0.2262  0.7380
  364MOL0     C49030   7.325   6.013   8.421 -0.2418  0.4235 -0.9404
  364MOL0     C49031   7.252   6.132   8.427  0.9200 -0.3158  0.5811
  364MOL0     C49032   7.308   6.253   8.414 -0.7612  0.4604  0.1170
  364MOL0     C49033   7.214   6.369   8.371 -0.1146  0.3631 -0.1364
  364MOL0     C49034   7.446   6.261   8.407  0.1554  0.3036  0.2493
  364MOL0     C49035   7.505   6.388   8.413  0.6807 -0.3884  0.0381
  364MOL0     O49036   7.626   6.392   8.338  0.2558 -0.2634  0.2067
  364MOL0     C49037   7.718   6.491   8.363 -0.5259 -0.1209 -0.0985
  364MOL0     C49038   7.803   6.538   8.262 -0.1418  0.3221  0.8560
  364MOL0     C49039   7.885   6.641   8.280 -1.8009 -0.2494 -1.2150
  364MOL0     C49040   7.893   6.712   8.398 -0.1363 -0.2470  0.2821
  364MOL0     O49041   7.966   6.827   8.414 -0.3848  0.3116  0.9314
  364MOL0     C49042   7.884   6.943   8.450  0.1330 -0.0234  0.4350
  364MOL0     C49043   7.980   7.049   8.484 -0.0409  0.8159 -0.3500
  364MOL0     C49044   8.077   7.024   8.603 -0.6022 -1.6329 -0.9236
  364MOL0     C49045   8.017   6.986   8.741  0.2320 -0.8467 -0.6766
  364MOL0     C49046   8.105   7.045   8.853  0.4884 -0.3051  0.1066
  364MOL0     C49047   8.188   6.940   8.921 -0.4347  0.3977  0.0527
  364MOL0     C49048   8.303   6.881   8.837  0.0925 -0.3900  0.3941
  364MOL0     C49049   8.384   6.778   8.921 -0.0010 -0.2570  0.3250
  364MOL0    Cl49050   8.483   6.878   9.025 -0.1653 -0.1819  0.2079
  364MOL0     C49051   7.836   6.661   8.512  0.9100  0.4394 -0.1332
  364MOL0     C49052   7.748   6.541   8.490  0.6120 -0.7571 -0.1678
  364MOL0     O49053   7.455   6.480   8.474 -1.0960  0.0228  0.5229
  364MOL0     C49054   7.529   6.152   8.429  0.4964  1.0623  0.4572
  364MOL0     C49055   7.464   6.029   8.429  0.2504  0.1136  0.4835
  364MOL0     N49056   7.233   5.325   8.534 -0.0017 -0.1241  0.4417
  364MOL0     N49057   7.227   5.201   8.563 -0.1427 -0.0916 -0.1799
  364MOL0     C49058   7.530   4.418   9.073  0.2835 -0.0764 -0.1165
  364MOL0     C49059   7.621   4.322   9.073  0.1149  0.7797  0.6996
  364MOL0     C49060   7.979   4.148   9.079 -0.0498  0.6640  0.8358
  364MOL0     C49061   8.107   4.191   9.022  0.1035 -1.0056  1.0049
  364MOL0     C49062   8.202   4.101   8.982  0.2227 -0.3639 -1.0357
  364MOL0     C49063   8.173   3.971   8.962 -0.1408 -0.6427 -0.1015
  364MOL0     O49064   8.268   3.906   8.891 -0.8128  0.6561  0.3592
  364MOL0     C49065   8.345   3.823   8.977 -0.3661 -0.6241 -0.3389
  364MOL0     C49066   8.405   3.714   8.886  0.3702  0.1757  0.4649
  364MOL0     C49067   8.531   3.651   8.959 -0.0932 -0.4160  0.1418
  364MOL0     C49068   8.483   3.547   9.061 -0.5805  0.7876  0.8953
  364MOL0     C49069   8.591   3.505   9.147  0.3212  0.6401 -0.3544
  364MOL0     C49070   8.675   3.468   9.215 -0.3419 -0.7998 -0.5097
  364MOL0     C49071   8.046   3.930   8.998 -0.3876 -0.3680  0.5552
  364MOL0     C49072   7.948   4.013   9.063 -0.3545 -0.1598 -0.5858
  364MOL0     H49073   7.631   4.268   9.404  3.4746 -3.2688 -2.5024
  364MOL0     H49074   7.434   4.390   9.405 -0.2648 -2.6846 -1.2552
  364MOL0     H49075   7.216   4.555   9.339  1.9994  0.7384  1.9392
  364MOL0     H49076   7.370   4.642   9.361  2.2889 -3.4639  0.9547
  364MOL0     H49077   7.157   4.776   9.321 -2.2558  1.9581 -2.1065
  364MOL0     H49078   7.285   4.807   9.200  0.0394  1.3213  0.8740
  364MOL0     H49079   7.171   4.677   9.038  1.5308  0.0966  0.3895
  364MOL0     H49080   7.079   4.580   9.147 -1.6534  0.2213 -2.9077
  364MOL0     H49081   6.911   4.745   9.050 -1.0766  0.7142  0.8309
  364MOL0     H49082   6.956   4.799   9.218  3.1835  1.2943  0.5210
  364MOL0     H49083   6.969   4.980   9.123 -3.1155 -4.9438  3.2387
  364MOL0     H49084   7.144   4.944   9.117 -0.9777  0.7545  0.5941
  364MOL0     H49085   7.170   4.875   8.907 -1.1249 -0.9782 -0.9663
  364MOL0     H49086   6.994   4.868   8.878 -1.0807  1.0421 -1.1123
  364MOL0     H49087   6.961   5.094   8.876 -0.0865  1.0694 -1.3672
  364MOL0     H49088   7.135   5.128   8.920  1.1115 -1.3772 -0.0239
  364MOL0     H49089   7.018   4.989   8.664  2.3793 -1.9365 -1.0170
  364MOL0     H49090   7.188   5.003   8.705 -0.4973  1.0590 -1.2066
  364MOL0     H49091   6.945   5.307   8.699 -1.1495 -0.9540  0.8650
  364MOL0     H49092   6.986   5.527   8.495 -2.0950  0.2805  1.9275
  364MOL0     H49093   7.022   5.554   8.669 -2.2090  0.3371 -1.1020
  364MOL0     H49094   7.259   5.601   8.621  0.4993 -1.1111 -0.5985
  364MOL0     H49095   7.128   5.724   8.571  0.7983 -0.0448 -1.4103
  364MOL0     H49096   7.173   5.654   8.324  2.8932 -0.2623 -1.7872
  364MOL0     H49097   7.296   5.559   8.386 -0.7159  0.5204 -2.6179
  364MOL0     H49098   7.389   5.757   8.320  1.6142  0.1614  0.6010
  364MOL0     H49099   7.399   5.758   8.493 -1.2159 -0.7406  1.1714
  364MOL0     H49100   7.146   6.108   8.428  0.9455 -1.1214 -3.2558
  364MOL0     H49101   7.176   6.433   8.451 -1.8145  0.0039 -0.6185
  364MOL0     H49102   7.255   6.427   8.288  0.1089 -2.0982 -1.8799
  364MOL0     H49103   7.117   6.323   8.349 -1.5214  1.6885  2.6992
  364MOL0     H49104   7.773   6.500   8.165 -0.5411 -0.1166  1.1466
  364MOL0     H49105   7.948   6.681   8.201  2.8267 -3.1397  0.6465
  364MOL0     H49106   7.832   6.973   8.359  0.7568  0.6961  0.3054
  364MOL0     H49107   7.824   6.936   8.541 -1.1065 -0.2461 -0.3750
  364MOL0     H49108   8.033   7.079   8.393  4.3037 -2.8596  0.6147
  364MOL0     H49109   7.921   7.133   8.522 -1.3947 -0.4174  0.3673
  364MOL0     H49110   8.129   7.117   8.625 -3.1238 -0.1727 -0.7331
  364MOL0     H49111   8.149   6.949   8.569  0.3401 -0.9129 -0.5697
  364MOL0     H49112   7.917   7.024   8.764  0.6122 -0.1765 -0.1210
  364MOL0     H49113   8.009   6.876   8.742 -2.1017 -0.7204 -0.1725
  364MOL0     H49114   8.039   7.083   8.931  0.0520  1.9202 -1.2404
  364MOL0     H49115   8.154   7.140   8.832  2.1502 -0.7126  1.8967
  364MOL0     H49116   8.230   6.982   9.013  0.5101 -3.5602  1.6300
  364MOL0     H49117   8.121   6.861   8.956  1.7391 -0.7603  1.7711
  364MOL0     H49118   8.369   6.965   8.810 -0.0824 -0.8251 -1.4950
  364MOL0     H49119   8.264   6.832   8.748  1.9438  2.3476 -2.1121
  364MOL0     H49120   8.441   6.731   8.840  0.0657 -0.8649  0.7206
  364MOL0     H49121   8.319   6.707   8.973 -2.9267  0.7632 -1.6331
  364MOL0     H49122   7.860   6.712   8.605  1.5901  1.2236 -0.7203
  364MOL0     H49123   7.695   6.505   8.577 -0.2268  2.1773  0.6502
  364MOL0     H49124   7.637   6.166   8.437  0.5055  0.5351  1.5694
  364MOL0     H49125   7.535   5.948   8.431  2.5257  1.8504 -2.4156
  364MOL0     H49126   7.514   4.474   8.981 -3.6046 -4.0453 -2.2918
  364MOL0     H49127   7.675   4.290   8.985 -4.7049 -1.6329 -1.7992
  364MOL0     H49128   8.138   4.294   9.036  0.6501 -1.0791  0.3728
  364MOL0     H49129   8.301   4.137   8.956  0.8012 -3.6612 -4.0404
  364MOL0     H49130   8.423   3.877   9.031 -1.3791  1.3848 -0.7990
  364MOL0     H49131   8.286   3.782   9.060  1.3746  0.3646  1.4786
  364MOL0     H49132   8.444   3.766   8.799 -0.1602 -1.4772 -0.8125
  364MOL0     H49133   8.334   3.637   8.853  0.0237  1.5483 -2.2173
  364MOL0     H49134   8.583   3.735   9.006  1.4268 -0.2391 -1.7312
  364MOL0     H49135   8.602   3.596   8.896 -0.2224 -0.8472  0.3654
  364MOL0     H49136   8.443   3.459   9.009  1.2846  0.4059  0.0119
  364MOL0     H49137   8.408   3.599   9.121  0.3258 -1.0031  3.7454
  364MOL0     H49138   8.753   3.434   9.281 -1.9283 -0.1379  1.8563
  364MOL0     H49139   8.025   3.826   8.978  1.0625 -0.3067 -1.5651
  364MOL0     H49140   7.847   3.979   9.083 -0.0218 -1.0605 -0.3810
  365MOL0     O49141   9.468   7.077   9.733 -0.1737  0.5374 -0.0238
  365MOL0     C49142   9.456   7.004   9.828 -0.0960 -0.3341 -0.0951
  365MOL0     O49143   9.343   6.961   9.879  0.8522 -0.3370 -0.8946
  365MOL0     C49144   9.223   7.012   9.835  0.7861  0.7945 -0.5040
  365MOL0     C49145   9.177   7.145   9.829  0.1321  0.2558 -0.9096
  365MOL0     C49146   9.053   7.168   9.766  0.2860  0.5546 -0.5339
  365MOL0     C49147   8.965   7.068   9.727 -0.1251 -0.3126 -0.8676
  365MOL0     O49148   8.847   7.108   9.674 -0.6111 -0.5626 -0.5983
  365MOL0     C49149   8.745   7.012   9.656 -0.1695  1.5960  0.4659
  365MOL0     C49150   8.604   7.059   9.664  0.0569 -0.3452 -0.0279
  365MOL0     C49151   8.505   6.965   9.589 -0.8835  0.1510  0.9131
  365MOL0     C49152   8.364   6.940   9.653 -0.4867  0.9039  0.6249
  365MOL0     C49153   8.390   6.836   9.772  0.4243 -0.2754  0.0036
  365MOL0     C49154   8.417   6.689   9.737 -0.3246  0.7132 -0.3804
  365MOL0     C49155   8.419   6.590   9.859  0.2083  0.0859 -0.3262
  365MOL0     C49156   8.562   6.547   9.896 -0.6345  0.5057 -0.3200
  365MOL0     N49157   8.644   6.649   9.957  0.5176 -0.4811 -0.7302
  365MOL0     C49158   8.608   6.735  10.067  0.3380 -0.7745  0.8482
  365MOL0     C49159   8.730   6.792  10.094  0.4640  0.3895  0.0685
  365MOL0     C49160   8.756   6.915  10.182 -0.0501  0.8301  0.5661
  365MOL0     C49161   8.702   7.036  10.098  0.1005 -0.5913  0.0723
  365MOL0     C49162   8.807   7.148  10.089  0.2982  0.0806  0.1899
  365MOL0     C49163   8.763   7.264  10.009 -0.0898  0.2934  0.1954
  365MOL0     O49164   8.854   7.370  10.016  0.6017 -0.6075  1.0543
  365MOL0     C49165   8.861   7.458  10.124  0.4658 -0.5809  0.1850
  365MOL0     C49166   8.755   7.488  10.202  0.6404 -0.5345  0.2124
  365MOL0     C49167   8.769   7.585  10.302 -1.1475  0.7614 -1.8193
  365MOL0     C49168   8.641   7.625  10.380 -0.1059  0.4997  0.4527
  365MOL0     C49169   8.899   7.636  10.336  0.2004  0.3270  1.2119
  365MOL0     C49170   8.922   7.736  10.443 -0.9003  0.3623 -0.2784
  365MOL0     O49171   8.818   7.797  10.505  0.5484  0.2772 -1.4256
  365MOL0     C49172   8.837   7.932  10.513  0.9255 -0.2706 -0.3523
  365MOL0     C49173   8.811   8.012  10.403 -0.3756  0.6751  0.2041
  365MOL0     C49174   8.818   8.151  10.421  1.2766 -0.5728  0.0763
  365MOL0     C49175   8.838   8.214  10.547  0.0481  0.5381  0.4531
  365MOL0     O49176   8.824   8.343  10.571 -0.9984 -0.4591  0.3687
  365MOL0     C49177   8.840   8.438  10.468 -0.1165 -0.1714  0.6508
  365MOL0     C49178   8.915   8.561  10.502 -0.9820 -0.0587 -1.2174
  365MOL0     C49179   9.062   8.525  10.546  0.0609  0.0128  0.0429
  365MOL0     C49180   9.131   8.658  10.545  1.0047 -0.1271 -0.1345
  365MOL0     C49181   9.280   8.639  10.544  0.5275  0.1041 -0.2625
  365MOL0     C49182   9.342   8.785  10.567  0.4733  1.2194  0.5350
  365MOL0     C49183   9.484   8.769  10.623 -0.0178  0.4290  0.2910
  365MOL0     C49184   9.567   8.887  10.591 -0.3843  0.4923 -1.0792
  365MOL0    Cl49185   9.747   8.841  10.609  0.4232  0.3626 -0.1786
  365MOL0     C49186   8.878   8.129  10.659 -0.0445 -1.0479  0.2727
  365MOL0     C49187   8.873   7.988  10.640 -0.3960  0.6242  0.0130
  365MOL0     O49188   9.036   7.782  10.451  0.3154  0.3793 -0.3583
  365MOL0     C49189   9.010   7.604  10.251  0.5320 -0.4475 -0.9942
  365MOL0     C49190   8.991   7.510  10.153 -0.2741 -0.1565 -0.2568
  365MOL0     N49191   8.824   6.738  10.020 -0.2277 -0.4464  0.6473
  365MOL0     N49192   8.779   6.656   9.933  0.6625 -0.9839 -0.1303
  365MOL0     C49193   9.007   6.942   9.751 -0.3950  0.3298  0.3461
  365MOL0     C49194   9.134   6.905   9.802  0.3484 -0.4477 -0.4164
  365MOL0     C49195   9.583   6.952   9.897  0.1547 -1.1575 -0.3402
  365MOL0     C49196   9.586   6.859  10.000 -0.2056 -0.1979 -0.7136
  365MOL0     C49197   9.710   6.820  10.054  0.8616  1.0998 -0.2799
  365MOL0     C49198   9.833   6.866  10.011 -0.2843  0.5547  0.5822
  365MOL0     O49199   9.965   6.827  10.042  0.1798 -0.0809  0.1670
  365MOL0     C49200   9.986   6.703  10.114  0.3037 -0.7094  0.2188
  365MOL0     C49201  10.131   6.712  10.175 -0.7984 -0.4859 -0.5415
  365MOL0     C49202  10.173   6.574  10.224  0.0015  0.6706 -0.1113
  365MOL0     C49203  10.319   6.560  10.265 -0.2285  0.3550 -0.2500
  365MOL0     C49204  10.341   6.424  10.302 -0.3166  0.1370 -0.6895
  365MOL0     C49205  10.361   6.318  10.355  0.3966  0.4743 -0.1276
  365MOL0     C49206   9.826   6.967   9.921 -0.7941 -0.5243  0.5561
  365MOL0     C49207   9.705   7.012   9.863 -0.6517  0.0080 -1.0520
  365MOL0     H49208   9.243   7.219   9.873  1.2583 -1.4469  0.3801
  365MOL0     H49209   9.020   7.271   9.752 -0.8048  0.4063  0.7281
  365MOL0     H49210   8.767   6.975   9.556 -0.0890 -1.0891  1.3901
  365MOL0     H49211   8.744   6.927   9.725  3.2442  0.0951 -1.1297
  365MOL0     H49212   8.575   7.063   9.769  0.2725  2.4366 -0.0108
  365MOL0     H49213   8.605   7.162   9.627  2.6937  1.2180  3.7341
  365MOL0     H49214   8.482   6.992   9.486 -2.6609 -3.9999  0.0056
  365MOL0     H49215   8.543   6.864   9.573 -4.0884 -0.7417 -2.5316
  365MOL0     H49216   8.336   7.038   9.692  0.5061  0.2302  3.2027
  365MOL0     H49217   8.295   6.893   9.582 -0.2693 -1.2533  1.7832
  365MOL0     H49218   8.464   6.878   9.840  0.3138 -1.3588  0.8254
  365MOL0     H49219   8.301   6.831   9.835  2.4112  0.2735  3.0063
  365MOL0     H49220   8.348   6.646   9.664 -0.9988 -0.8625  1.1312
  365MOL0     H49221   8.513   6.696   9.685 -0.2552 -1.3985 -0.6181
  365MOL0     H49222   8.366   6.633   9.944 -1.3842 -0.0755 -1.1988
  365MOL0     H49223   8.355   6.503   9.841 -2.1272  1.5480  0.6247
  365MOL0     H49224   8.608   6.515   9.803  0.6065  3.4278 -0.8168
  365MOL0     H49225   8.570   6.462   9.965  0.2614  0.4605 -0.4676
  365MOL0     H49226   8.516   6.767  10.115  0.2150  1.8142 -0.8889
  365MOL0     H49227   8.707   6.909  10.280 -1.0023 -3.3664  0.0172
  365MOL0     H49228   8.865   6.918  10.189 -0.0125  1.0266 -0.0349
  365MOL0     H49229   8.611   7.072  10.148  0.1600 -1.0236  0.4938
  365MOL0     H49230   8.673   6.998  10.000 -3.0158 -1.2967  1.1468
  365MOL0     H49231   8.900   7.102  10.056 -0.2190 -1.4776  0.8280
  365MOL0     H49232   8.820   7.198  10.186  3.6957 -1.3217  0.5681
  365MOL0     H49233   8.665   7.304  10.035 -0.1542  1.6455 -1.8646
  365MOL0     H49234   8.757   7.237   9.903 -1.2730  0.6038  0.1726
  365MOL0     H49235   8.652   7.470  10.173  1.1578 -1.7334 -0.9695
  365MOL0     H49236   8.662   7.625  10.488 -1.4369  0.0626  0.7288
  365MOL0     H49237   8.608   7.721  10.340 -0.1817  0.5788  0.6990
  365MOL0     H49238   8.563   7.549  10.368 -0.4496  1.2193 -2.4785
  365MOL0     H49239   8.763   7.971  10.315 -3.1765  3.7388  0.1054
  365MOL0     H49240   8.776   8.205  10.337 -3.7697 -0.9708  1.9950
  365MOL0     H49241   8.885   8.395  10.378  1.8374 -1.2578  2.0502
  365MOL0     H49242   8.740   8.474  10.444 -1.1068  0.1322  4.5685
  365MOL0     H49243   8.915   8.616  10.408 -1.6273 -3.1809 -3.1923
  365MOL0     H49244   8.875   8.614  10.589  1.8864  2.2516 -1.1658
  365MOL0     H49245   9.096   8.450  10.473  1.9459 -1.2859  2.1144
  365MOL0     H49246   9.064   8.487  10.648 -2.6857  2.4551  1.1101
  365MOL0     H49247   9.095   8.723  10.465  2.1508  0.2136 -0.3888
  365MOL0     H49248   9.116   8.705  10.643  1.0560 -0.7184  0.1642
  365MOL0     H49249   9.316   8.599  10.449  2.5299 -1.2608  1.0017
  365MOL0     H49250   9.301   8.576  10.631 -3.9710  1.8925  2.4652
  365MOL0     H49251   9.336   8.857  10.484  0.9033  1.5150  0.7549
  365MOL0     H49252   9.284   8.836  10.644 -0.4337 -0.7020  1.1663
  365MOL0     H49253   9.526   8.686  10.566 -2.5286 -0.0348 -1.0424
  365MOL0     H49254   9.496   8.737  10.727  3.0823 -3.7399 -1.1286
  365MOL0     H49255   9.539   8.978  10.646  1.9878 -0.2189  1.5101
  365MOL0     H49256   9.541   8.922  10.491  2.6621  0.0172 -2.1430
  365MOL0     H49257   8.891   8.187  10.750 -0.9515  0.3991 -0.4693
  365MOL0     H49258   8.906   7.931  10.726 -1.1860  0.5896  0.3004
  365MOL0     H49259   9.113   7.637  10.263 -0.4729  4.0931 -2.6555
  365MOL0     H49260   9.073   7.475  10.092 -1.1131 -0.6308 -1.1427
  365MOL0     H49261   8.935   6.861   9.742 -1.6331  1.3579  0.7382
  365MOL0     H49262   9.173   6.805   9.817 -0.2906 -0.4949  1.1553
  365MOL0     H49263   9.490   6.825  10.036 -1.0400  1.5460 -1.2002
  365MOL0     H49264   9.706   6.752  10.140 -0.2747  1.2632 -0.1853
  365MOL0     H49265   9.914   6.691  10.195  2.3729 -0.4612  2.1998
  365MOL0     H49266   9.971   6.630  10.034  5.5915  0.9913 -2.8760
  365MOL0     H49267  10.147   6.788  10.252 -0.3706 -2.5132  1.5196
  365MOL0     H49268  10.209   6.728  10.099  0.3194  1.8794  0.9766
  365MOL0     H49269  10.150   6.507  10.141 -4.8025 -0.1822  1.6206
  365MOL0     H49270  10.110   6.549  10.309 -1.4984  1.5823 -0.9148
  365MOL0     H49271  10.347   6.618  10.353  4.1906 -1.3089 -0.3245
  365MOL0     H49272  10.391   6.591  10.188 -0.3134  0.1888 -0.3954
  365MOL0     H49273  10.378   6.213  10.373  1.5029  0.5314 -0.7375
  365MOL0     H49274   9.917   7.004   9.873 -0.2778  0.4926  2.2581
  365MOL0     H49275   9.706   7.097   9.794 -2.4459 -0.5370 -1.8138
  366MOL0     O49276   7.246   8.242   4.375  0.5305 -0.3401 -0.6513
  366MOL0     C49277   7.265   8.265   4.258 -0.6053 -0.4713 -0.7427
  366MOL0     O49278   7.234   8.381   4.204 -0.5348  0.2243 -0.0896
  366MOL0     C49279   7.175   8.497   4.257  0.6609  0.4419  0.2771
  366MOL0     C49280   7.126   8.515   4.384  0.7513  1.0818  0.6002
  366MOL0     C49281   7.073   8.639   4.433  0.1373 -0.1380  0.2524
  366MOL0     C49282   7.055   8.744   4.344 -0.4717  0.0046  0.6154
  366MOL0     O49283   7.018   8.867   4.393 -0.3646 -0.1224 -0.6934
  366MOL0     C49284   6.963   8.969   4.308  0.8088 -0.3162 -0.7378
  366MOL0     C49285   6.970   9.104   4.364  0.2891  0.7125  0.1185
  366MOL0     C49286   7.090   9.176   4.308  0.5551  0.3524  0.8630
  366MOL0     C49287   7.093   9.294   4.403 -0.8223 -0.8369  0.3339
  366MOL0     C49288   7.206   9.403   4.376 -0.1358  1.1130 -0.5286
  366MOL0     C49289   7.241   9.435   4.227 -0.2931 -0.6442 -0.1518
  366MOL0     C49290   7.361   9.529   4.205  0.0315 -0.5899 -0.6979
  366MOL0     C49291   7.349   9.682   4.276 -0.3466 -0.0469  0.0438
  366MOL0     N49292   7.230   9.756   4.230 -0.6500  0.9286 -1.2448
  366MOL0     C49293   7.198   9.782   4.099  0.3813  0.3143  0.5650
  366MOL0     C49294   7.077   9.831   4.105  0.0819 -0.9299  0.4358
  366MOL0     C49295   6.993   9.871   3.996  0.3734 -0.5860  1.0288
  366MOL0     C49296   6.919   9.753   3.932 -0.1132 -0.7431  0.4698
  366MOL0     C49297   6.793   9.706   4.024 -0.3594 -1.1207 -0.1271
  366MOL0     C49298   6.795   9.553   4.009 -0.2816  1.3205 -0.7482
  366MOL0     O49299   6.707   9.500   4.117 -0.7578 -0.2595  0.6486
  366MOL0     C49300   6.694   9.370   4.126  0.7032 -0.5463 -0.7320
  366MOL0     C49301   6.626   9.317   4.233  0.2620  0.0662 -0.4523
  366MOL0     C49302   6.612   9.180   4.259  0.1988  0.8258 -0.1027
  366MOL0     C49303   6.536   9.147   4.381 -0.9069 -0.7483 -0.3953
  366MOL0     C49304   6.661   9.083   4.171  0.1501  0.3819  0.2400
  366MOL0     C49305   6.639   8.931   4.184  0.8832 -0.6292  0.6571
  366MOL0     O49306   6.723   8.853   4.110  0.5827  0.3429  0.0437
  366MOL0     C49307   6.723   8.720   4.132 -0.3457 -0.3137  0.7791
  366MOL0     C49308   6.733   8.637   4.018 -0.5305 -0.9931  0.2347
  366MOL0     C49309   6.741   8.501   4.033 -0.2489  0.4090 -0.6436
  366MOL0     C49310   6.762   8.434   4.161 -0.3683 -1.0164  0.3665
  366MOL0     O49311   6.798   8.298   4.168 -0.5173  0.2795  0.1096
  366MOL0     C49312   6.863   8.256   4.285 -0.1465  0.5097  0.4898
  366MOL0     C49313   6.918   8.119   4.255  0.2114 -0.8106 -0.4131
  366MOL0     C49314   6.812   8.000   4.260  0.0581  0.3186  0.2189
  366MOL0     C49315   6.885   7.861   4.243  1.0834 -0.2225  0.7280
  366MOL0     C49316   6.966   7.815   4.365  0.3121  0.5870 -0.6798
  366MOL0     C49317   7.114   7.851   4.369 -0.2589 -0.1126  0.8168
  366MOL0     C49318   7.195   7.741   4.425  0.2950  0.1641 -2.0529
  366MOL0     C49319   7.163   7.716   4.570 -0.1533  0.0206 -1.1700
  366MOL0    Cl49320   7.305   7.619   4.632  0.2133 -0.3572 -0.2270
  366MOL0     C49321   6.754   8.523   4.271 -0.1256  0.7673  0.8236
  366MOL0     C49322   6.731   8.661   4.259  0.7196 -0.4565 -0.6824
  366MOL0     O49323   6.550   8.884   4.263 -0.4796 -0.6303  0.5812
  366MOL0     C49324   6.738   9.138   4.061  0.7932  0.8210 -0.4063
  366MOL0     C49325   6.750   9.276   4.040 -0.8632 -1.0859  0.1167
  366MOL0     N49326   7.024   9.830   4.232 -0.7285  0.1269 -0.0944
  366MOL0     N49327   7.117   9.775   4.310 -1.0656  0.0797 -0.4164
  366MOL0     C49328   7.102   8.720   4.211 -0.7445 -0.2605 -0.2975
  366MOL0     C49329   7.165   8.599   4.168 -0.5227 -0.0297 -0.4907
  366MOL0     C49330   7.312   8.156   4.186  0.0382 -0.3390 -0.9296
  366MOL0     C49331   7.318   8.165   4.048 -0.6284  0.4485  0.3365
  366MOL0     C49332   7.383   8.073   3.962 -0.1582 -0.1963 -0.7145
  366MOL0     C49333   7.429   7.950   4.024  0.6419 -0.8218 -0.1168
  366MOL0     O49334   7.480   7.840   3.957  1.5206 -0.2817 -0.3272
  366MOL0     C49335   7.486   7.835   3.818 -0.1950 -0.7826  0.4804
  366MOL0     C49336   7.367   7.782   3.742  1.2423  0.1157 -0.2677
  366MOL0     C49337   7.373   7.626   3.725 -0.3173 -0.9136  0.0959
  366MOL0     C49338   7.281   7.572   3.619  0.3487  0.6807  0.2661
  366MOL0     C49339   7.324   7.599   3.474  0.0926 -0.0034 -0.0731
  366MOL0     C49340   7.359   7.610   3.358 -0.4040  1.1664 -1.5257
  366MOL0     C49341   7.433   7.943   4.164 -0.5415 -0.2145 -0.0779
  366MOL0     C49342   7.361   8.038   4.240  0.7477  0.6158 -0.3609
  366MOL0     H49343   7.127   8.435   4.457  1.9170  0.4502 -0.0726
  366MOL0     H49344   7.039   8.652   4.535 -1.3220  0.8244 -0.3380
  366MOL0     H49345   7.022   8.969   4.216  3.3346  3.3198  0.6351
  366MOL0     H49346   6.857   8.946   4.297 -0.1034  0.5448  3.8786
  366MOL0     H49347   6.886   9.165   4.331  1.1381  1.5019 -0.6252
  366MOL0     H49348   6.966   9.094   4.473 -0.0307  1.6537  0.1971
  366MOL0     H49349   7.176   9.111   4.323  0.2804 -0.5071 -1.0323
  366MOL0     H49350   7.059   9.193   4.205 -2.3731 -1.6432  1.2636
  366MOL0     H49351   7.009   9.362   4.386 -0.0441 -0.0468 -0.4743
  366MOL0     H49352   7.100   9.258   4.506 -1.2605 -1.5434  0.1269
  366MOL0     H49353   7.175   9.497   4.422 -2.2889  0.3683 -0.3790
  366MOL0     H49354   7.289   9.354   4.428 -0.5533  0.9918  0.0272
  366MOL0     H49355   7.262   9.355   4.155 -1.4125 -0.1571 -1.0373
  366MOL0     H49356   7.152   9.480   4.182 -0.0679 -0.4483 -0.4037
  366MOL0     H49357   7.448   9.467   4.229  1.4066  2.3028  2.6551
  366MOL0     H49358   7.374   9.543   4.097  2.6491  0.5162 -0.3040
  366MOL0     H49359   7.440   9.736   4.248 -0.7229 -0.4418 -2.1636
  366MOL0     H49360   7.354   9.669   4.384  1.8618 -1.4147 -0.1551
  366MOL0     H49361   7.253   9.747   4.012 -2.3943 -3.9443  0.1984
  366MOL0     H49362   6.926   9.953   4.023  3.5056  2.5997  0.0501
  366MOL0     H49363   7.054   9.921   3.920  1.4825  0.2852  2.4442
  366MOL0     H49364   6.979   9.669   3.897  2.8605  1.1556  0.7075
  366MOL0     H49365   6.873   9.801   3.844 -0.3377 -1.0867  0.3988
  366MOL0     H49366   6.697   9.740   3.985 -0.3850 -0.1028  0.7641
  366MOL0     H49367   6.809   9.741   4.127 -3.0667 -0.1145  0.0247
  366MOL0     H49368   6.891   9.501   4.013 -2.3185 -3.7324 -5.0865
  366MOL0     H49369   6.773   9.525   3.905  1.4659  1.3092 -1.1486
  366MOL0     H49370   6.586   9.386   4.306 -0.4517  0.6063 -1.3360
  366MOL0     H49371   6.436   9.110   4.355 -1.6941 -0.3532  1.8575
  366MOL0     H49372   6.597   9.076   4.437 -0.8528 -0.4932 -0.1289
  366MOL0     H49373   6.524   9.243   4.432  1.6233 -0.3700 -0.4141
  366MOL0     H49374   6.723   8.685   3.922 -0.0776  1.2443  1.2375
  366MOL0     H49375   6.726   8.434   3.949  2.3150 -1.6505  0.4276
  366MOL0     H49376   6.945   8.324   4.313  0.0846  0.5203 -0.1761
  366MOL0     H49377   6.792   8.239   4.366 -0.4271 -0.8489 -0.0273
  366MOL0     H49378   6.976   8.111   4.162  0.9438  0.7172 -0.1171
  366MOL0     H49379   6.993   8.105   4.333  0.5463 -3.6884 -1.1194
  366MOL0     H49380   6.736   8.016   4.183  1.7119  3.4739 -0.9291
  366MOL0     H49381   6.759   8.005   4.356 -1.6799  0.0700 -0.6932
  366MOL0     H49382   6.807   7.786   4.225 -1.0782  1.8881  0.8020
  366MOL0     H49383   6.945   7.875   4.153 -0.2087 -0.0632 -0.1312
  366MOL0     H49384   6.954   7.706   4.360  1.9829  0.4211 -1.7849
  366MOL0     H49385   6.920   7.850   4.458 -1.4249  2.5561 -2.1733
  366MOL0     H49386   7.149   7.871   4.267  2.4459 -3.3667  0.9040
  366MOL0     H49387   7.125   7.941   4.428 -0.3323 -0.4819  1.3997
  366MOL0     H49388   7.299   7.773   4.409  1.3417 -1.3814  0.9636
  366MOL0     H49389   7.189   7.645   4.371 -0.1636 -2.6088  2.4455
  366MOL0     H49390   7.065   7.668   4.577  0.0559 -0.4218 -1.2992
  366MOL0     H49391   7.175   7.809   4.627  0.1046  0.8025 -2.4490
  366MOL0     H49392   6.763   8.487   4.373  1.5010  0.3987  0.5717
  366MOL0     H49393   6.715   8.721   4.348 -0.8782  0.0796 -1.2796
  366MOL0     H49394   6.791   9.071   3.995  0.5142  0.8346 -0.6458
  366MOL0     H49395   6.812   9.308   3.956 -1.2391 -2.2541 -0.6449
  366MOL0     H49396   7.100   8.802   4.140 -0.0717 -0.0466 -0.0821
  366MOL0     H49397   7.201   8.588   4.067 -2.9915 -2.3254 -1.2297
  366MOL0     H49398   7.262   8.238   3.991 -0.4817 -2.1918 -3.5335
  366MOL0     H49399   7.393   8.092   3.856  0.4637 -0.5736 -0.7287
  366MOL0     H49400   7.509   7.937   3.786 -0.5573  0.5107  3.9193
  366MOL0     H49401   7.566   7.778   3.771  0.1136  1.2542 -1.6029
  366MOL0     H49402   7.356   7.837   3.649 -0.3127 -0.1544 -0.2695
  366MOL0     H49403   7.282   7.790   3.811  1.4346  2.0737 -0.2231
  366MOL0     H49404   7.345   7.567   3.812  2.3647 -2.0286  0.2929
  366MOL0     H49405   7.468   7.575   3.710 -0.9137 -2.1948  0.6118
  366MOL0     H49406   7.177   7.603   3.633  0.7497  1.8829  0.7684
  366MOL0     H49407   7.276   7.463   3.627  1.0743  0.5584 -0.7212
  366MOL0     H49408   7.386   7.622   3.255  1.8830 -0.4306 -1.1812
  366MOL0     H49409   7.491   7.862   4.207  1.6368  0.5808 -1.3543
  366MOL0     H49410   7.358   8.044   4.348 -2.9969  0.3367 -0.3184
  367MOL0     O49411   4.200   8.045   6.195 -0.3522  0.3519 -0.4696
  367MOL0     C49412   4.153   8.098   6.097 -0.4917  0.1828  1.0199
  367MOL0     O49413   4.053   8.172   6.102  0.9502  0.4264 -0.0177
  367MOL0     C49414   3.995   8.212   6.221  0.3195  0.2160 -0.0153
  367MOL0     C49415   4.061   8.268   6.331 -0.1044 -0.7448 -0.7031
  367MOL0     C49416   3.995   8.303   6.444 -0.2878  1.0241 -0.3108
  367MOL0     C49417   3.862   8.264   6.462  0.7110  0.7010 -0.0229
  367MOL0     O49418   3.814   8.294   6.590  0.5119 -0.8375  0.1367
  367MOL0     C49419   3.692   8.229   6.621 -0.8188  0.1504  0.7191
  367MOL0     C49420   3.627   8.286   6.743  0.6545  0.4040 -0.4897
  367MOL0     C49421   3.545   8.171   6.802 -0.9295  0.0417 -0.0793
  367MOL0     C49422   3.460   8.228   6.913 -0.1292  0.4699  0.8205
  367MOL0     C49423   3.403   8.127   7.011 -0.0448  0.7818 -0.9096
  367MOL0     C49424   3.307   8.039   6.930 -0.4377 -0.0389 -0.5603
  367MOL0     C49425   3.229   7.951   7.039 -0.7502  0.7005 -0.1564
  367MOL0     C49426   3.113   7.892   6.971  0.0012 -0.4679  0.1298
  367MOL0     N49427   3.041   7.783   7.047 -0.3029 -0.7101  0.3259
  367MOL0     C49428   2.914   7.783   7.083 -0.0097 -0.4897 -0.2212
  367MOL0     C49429   2.894   7.680   7.164  0.6068 -0.0393 -0.1487
  367MOL0     C49430   2.776   7.652   7.246  0.2045  0.3042 -0.7612
  367MOL0     C49431   2.801   7.614   7.385 -1.2642 -0.1222 -0.2168
  367MOL0     C49432   2.677   7.585   7.471 -0.3292  1.4180  0.0794
  367MOL0     C49433   2.727   7.508   7.601 -0.8353 -0.2986  0.3167
  367MOL0     O49434   2.823   7.580   7.675  0.4583  0.6064 -0.3865
  367MOL0     C49435   2.797   7.708   7.702  0.3529 -0.0988 -0.8514
  367MOL0     C49436   2.906   7.793   7.734 -1.4272 -0.6316  0.7177
  367MOL0     C49437   2.883   7.916   7.791  0.2458  0.1623  1.0375
  367MOL0     C49438   3.010   7.995   7.829  0.4607  0.2037 -0.1217
  367MOL0     C49439   2.759   7.965   7.811 -0.0831 -0.2929 -0.4332
  367MOL0     C49440   2.736   8.104   7.851  0.2289 -0.4528  0.2870
  367MOL0     O49441   2.689   8.199   7.758 -0.9440  0.0629  0.3298
  367MOL0     C49442   2.700   8.330   7.779  0.7397  0.3261  0.0251
  367MOL0     C49443   2.779   8.396   7.874  0.4395  0.0286  0.5981
  367MOL0     C49444   2.762   8.533   7.882 -0.0880  0.2165 -0.1095
  367MOL0     C49445   2.703   8.607   7.791  0.4765  0.4482  0.8892
  367MOL0     O49446   2.700   8.747   7.805 -0.4296 -0.8507  0.0201
  367MOL0     C49447   2.823   8.812   7.828 -0.9633 -1.2943  0.5583
  367MOL0     C49448   2.814   8.959   7.894  0.8947  0.6970  0.6367
  367MOL0     C49449   2.922   9.055   7.826  0.0132  0.6027 -0.2577
  367MOL0     C49450   2.955   9.181   7.902 -0.3240  0.6535 -0.2209
  367MOL0     C49451   3.072   9.260   7.830 -0.6333  0.6188 -0.3880
  367MOL0     C49452   3.028   9.336   7.708  1.0423 -0.2557 -0.3480
  367MOL0     C49453   2.916   9.436   7.739 -0.5391 -0.4693  0.2122
  367MOL0     C49454   2.771   9.396   7.703  1.5418 -0.1173 -0.1458
  367MOL0    Cl49455   2.643   9.494   7.789 -0.0958  0.1469 -0.1172
  367MOL0     C49456   2.621   8.543   7.695 -0.6892 -0.0178 -0.3714
  367MOL0     C49457   2.622   8.407   7.692  0.7342  0.1485  0.4864
  367MOL0     O49458   2.738   8.118   7.975 -0.0614  0.5851  0.2864
  367MOL0     C49459   2.648   7.896   7.777 -0.3966 -0.1659 -1.1352
  367MOL0     C49460   2.669   7.767   7.738  0.5151  0.8181  0.7098
  367MOL0     N49461   3.013   7.619   7.166 -0.2971 -0.9578 -0.1796
  367MOL0     N49462   3.098   7.677   7.097  0.4122  0.6140 -0.8684
  367MOL0     C49463   3.793   8.196   6.353 -0.6045  0.4283 -1.0261
  367MOL0     C49464   3.859   8.175   6.233 -0.8610 -0.4775  0.8905
  367MOL0     C49465   4.236   8.076   5.972 -0.9502 -0.0211 -0.7930
  367MOL0     C49466   4.179   8.126   5.850 -0.7809  0.3538  0.5791
  367MOL0     C49467   4.248   8.102   5.728  0.2257  0.4738  0.0278
  367MOL0     C49468   4.363   8.020   5.723  0.5409  0.6995  0.0374
  367MOL0     O49469   4.430   8.001   5.602 -0.7143 -0.7542  0.1758
  367MOL0     C49470   4.365   8.000   5.475 -0.2309 -0.5385 -0.4637
  367MOL0     C49471   4.472   7.996   5.360  0.0436  0.0478 -0.5488
  367MOL0     C49472   4.586   7.898   5.393 -0.7755  0.5269  0.3490
  367MOL0     C49473   4.707   7.894   5.290  0.6885  0.1347 -0.4372
  367MOL0     C49474   4.770   8.027   5.280  0.7412  0.7414 -0.2903
  367MOL0     C49475   4.829   8.135   5.269 -0.2798  0.1384 -0.1639
  367MOL0     C49476   4.414   7.972   5.840 -0.6357  0.7402  0.8978
  367MOL0     C49477   4.361   7.998   5.967 -0.6492 -0.2814  0.4432
  367MOL0     H49478   4.169   8.278   6.321 -0.2084  0.3618 -0.7889
  367MOL0     H49479   4.042   8.352   6.529  0.6366  0.9581 -0.7700
  367MOL0     H49480   3.624   8.250   6.537 -1.3644  0.2332  1.1733
  367MOL0     H49481   3.708   8.122   6.635  2.5070  0.8044  3.1449
  367MOL0     H49482   3.714   8.302   6.808  2.4428 -2.2879 -2.0321
  367MOL0     H49483   3.562   8.370   6.718 -0.9333  0.0631  2.0895
  367MOL0     H49484   3.482   8.132   6.721 -0.1537  2.3344 -1.9311
  367MOL0     H49485   3.615   8.092   6.829 -4.4142 -3.2165  0.2741
  367MOL0     H49486   3.523   8.294   6.973  0.7154 -0.6771  1.2552
  367MOL0     H49487   3.374   8.277   6.867  1.4722  1.2684 -1.5445
  367MOL0     H49488   3.478   8.063   7.058  0.5478  0.8668 -1.7113
  367MOL0     H49489   3.347   8.191   7.079 -1.9909 -1.8765  0.1622
  367MOL0     H49490   3.235   8.105   6.882 -0.9786 -0.4808 -0.3609
  367MOL0     H49491   3.366   7.970   6.869  1.3556 -0.9003  1.9431
  367MOL0     H49492   3.298   7.890   7.099 -0.3851  0.5431 -0.7341
  367MOL0     H49493   3.178   8.019   7.109  0.3385  0.1515  1.2352
  367MOL0     H49494   3.152   7.851   6.877  1.2346  0.9614 -0.0246
  367MOL0     H49495   3.035   7.961   6.938 -0.6462 -1.7179 -1.0422
  367MOL0     H49496   2.846   7.865   7.060  0.8551  0.9293  2.0310
  367MOL0     H49497   2.714   7.741   7.254 -0.7209 -0.5284  4.3798
  367MOL0     H49498   2.715   7.577   7.194 -1.0834  1.0034 -0.2967
  367MOL0     H49499   2.843   7.703   7.433 -0.6192 -1.3164  1.5562
  367MOL0     H49500   2.878   7.536   7.385 -0.4212  0.6707  0.9734
  367MOL0     H49501   2.609   7.522   7.414  1.7283 -1.9368  1.0914
  367MOL0     H49502   2.615   7.672   7.497 -4.7865 -1.3034 -0.3682
  367MOL0     H49503   2.771   7.411   7.575 -0.3197  0.1219 -0.4138
  367MOL0     H49504   2.645   7.491   7.671 -1.0542  2.4863  0.8681
  367MOL0     H49505   3.011   7.766   7.729 -2.2180 -4.4943  1.6491
  367MOL0     H49506   3.094   7.924   7.830 -0.3399 -0.7619  1.7374
  367MOL0     H49507   3.034   8.072   7.755  1.2485  0.6528  0.5796
  367MOL0     H49508   2.993   8.029   7.931  1.3434  0.7127 -0.1391
  367MOL0     H49509   2.848   8.356   7.948  2.3323 -0.2151 -1.2184
  367MOL0     H49510   2.818   8.589   7.957 -1.0383  3.3773 -1.5846
  367MOL0     H49511   2.891   8.750   7.888  1.1753  1.3657  1.1172
  367MOL0     H49512   2.863   8.823   7.727 -0.1897 -2.8407  0.6714
  367MOL0     H49513   2.715   9.001   7.873 -0.2848 -0.5641  3.1584
  367MOL0     H49514   2.831   8.953   8.002 -0.1937  0.5999  0.8128
  367MOL0     H49515   2.866   9.097   7.742 -0.5313  1.0053  0.2952
  367MOL0     H49516   3.006   8.990   7.797 -2.4526 -1.9472 -2.2493
  367MOL0     H49517   2.872   9.241   7.943  0.4869  2.5170 -1.1672
  367MOL0     H49518   3.003   9.150   7.995  4.4213  2.5274 -1.7586
  367MOL0     H49519   3.154   9.197   7.795 -2.1778 -1.8341  0.1939
  367MOL0     H49520   3.126   9.323   7.902  0.1810  0.9004 -1.2329
  367MOL0     H49521   3.112   9.398   7.676 -1.5038  4.5877  1.3055
  367MOL0     H49522   2.992   9.258   7.640  3.0652 -1.7473  0.1905
  367MOL0     H49523   2.945   9.533   7.697 -2.2712  0.3973  0.9170
  367MOL0     H49524   2.913   9.459   7.846 -2.9604 -0.1795  0.1506
  367MOL0     H49525   2.758   9.287   7.695  0.6542 -0.0907  0.7709
  367MOL0     H49526   2.758   9.434   7.601 -0.5187  1.8546  0.7613
  367MOL0     H49527   2.563   8.602   7.625 -3.4067 -0.3753  1.3924
  367MOL0     H49528   2.562   8.363   7.613 -3.1315  4.1872  0.7896
  367MOL0     H49529   2.549   7.941   7.775 -0.9730 -0.7785  3.4131
  367MOL0     H49530   2.583   7.702   7.723 -0.3608  2.5278 -2.7640
  367MOL0     H49531   3.695   8.151   6.360 -0.5182 -0.7823 -5.0860
  367MOL0     H49532   3.801   8.131   6.151 -0.9977  2.0824 -0.5029
  367MOL0     H49533   4.088   8.182   5.834 -1.2763 -0.7541 -0.6593
  367MOL0     H49534   4.223   8.160   5.639  1.3742 -0.7812 -1.1549
  367MOL0     H49535   4.309   7.906   5.470 -1.2016  0.0804 -3.2659
  367MOL0     H49536   4.295   8.084   5.481 -0.6558 -0.7072 -2.2691
  367MOL0     H49537   4.523   8.092   5.346  1.1008  0.2076  3.2933
  367MOL0     H49538   4.409   7.980   5.272 -2.6703 -0.2718  1.3156
  367MOL0     H49539   4.542   7.799   5.384  1.5540 -0.3750 -2.8868
  367MOL0     H49540   4.636   7.928   5.485  0.2952 -0.0383 -0.0382
  367MOL0     H49541   4.664   7.861   5.195  1.6730 -4.2884  0.4568
  367MOL0     H49542   4.781   7.822   5.325  2.1690  1.9554  0.4140
  367MOL0     H49543   4.889   8.224   5.258  2.9182 -1.7892  0.2082
  367MOL0     H49544   4.502   7.908   5.842 -0.7895  0.4667 -0.4932
  367MOL0     H49545   4.422   7.965   6.050  1.3033  2.3090  0.1493
  368MOL0     O49546   8.254   6.194   2.211 -0.5521 -0.3515 -0.2846
  368MOL0     C49547   8.151   6.139   2.248  0.5270 -0.1698 -0.3496
  368MOL0     O49548   8.073   6.187   2.340  0.1310 -0.5308  0.3025
  368MOL0     C49549   8.090   6.319   2.397 -0.4410  0.1044  0.3987
  368MOL0     C49550   7.982   6.407   2.392 -0.8528  0.1122  0.1915
  368MOL0     C49551   7.992   6.540   2.436 -0.7941 -0.2769  0.5186
  368MOL0     C49552   8.108   6.594   2.496 -0.0233  0.3284  0.1110
  368MOL0     O49553   8.113   6.728   2.526  0.7350  0.9592  0.1974
  368MOL0     C49554   8.005   6.783   2.597 -0.3672 -0.3430 -0.8115
  368MOL0     C49555   8.041   6.919   2.663 -0.2703  0.9026  0.8860
  368MOL0     C49556   8.181   6.931   2.735 -0.2293  0.6905  0.4172
  368MOL0     C49557   8.211   7.064   2.793  0.7204 -0.1205 -0.7576
  368MOL0     C49558   8.354   7.105   2.785  0.8565 -0.3703  0.5890
  368MOL0     C49559   8.383   7.248   2.843  0.2801 -0.0172 -0.0934
  368MOL0     C49560   8.539   7.282   2.801  0.3892  0.1628 -0.8578
  368MOL0     C49561   8.582   7.411   2.877  0.6734  1.0737 -0.0751
  368MOL0     N49562   8.703   7.464   2.837 -0.7524 -0.5812 -0.3716
  368MOL0     C49563   8.728   7.515   2.713  0.0902 -0.0194  0.1693
  368MOL0     C49564   8.859   7.543   2.708  0.4006 -1.1538 -1.5236
  368MOL0     C49565   8.946   7.581   2.598  0.8439 -0.6863 -0.0338
  368MOL0     C49566   8.858   7.667   2.498 -0.6071  1.1399 -0.4246
  368MOL0     C49567   8.938   7.702   2.377 -0.3800  0.6859  0.1492
  368MOL0     C49568   8.878   7.773   2.260 -0.1650  0.1185  0.7854
  368MOL0     O49569   8.832   7.668   2.184 -0.1565  0.0534 -0.3782
  368MOL0     C49570   8.764   7.686   2.063 -0.6397  0.1760 -0.0117
  368MOL0     C49571   8.738   7.563   1.989  0.2717  0.2818  0.4157
  368MOL0     C49572   8.682   7.562   1.860 -0.3873 -0.1005  0.4706
  368MOL0     C49573   8.664   7.428   1.801  0.0784 -0.2050  0.1422
  368MOL0     C49574   8.641   7.689   1.805 -0.2627 -0.0198  0.6254
  368MOL0     C49575   8.593   7.698   1.663 -0.0546 -0.7385  0.5223
  368MOL0     O49576   8.559   7.584   1.594 -0.4139 -0.3117  0.4518
  368MOL0     C49577   8.531   7.592   1.464 -0.4679 -0.3768  0.1598
  368MOL0     C49578   8.397   7.583   1.411 -0.2106  0.5999  0.3861
  368MOL0     C49579   8.383   7.590   1.271  0.3861  1.4025 -0.5043
  368MOL0     C49580   8.485   7.609   1.179  0.0133  0.3277  0.9368
  368MOL0     O49581   8.475   7.596   1.045  0.4492  0.0954  0.1675
  368MOL0     C49582   8.347   7.636   0.992 -0.1930 -0.4956  0.4056
  368MOL0     C49583   8.353   7.607   0.836  0.0347 -0.8661 -0.3963
  368MOL0     C49584   8.459   7.690   0.769  0.3610  0.5846  0.3650
  368MOL0     C49585   8.496   7.649   0.630  0.1784 -0.8039 -0.1888
  368MOL0     C49586   8.594   7.741   0.566 -0.5062 -0.2273 -0.0960
  368MOL0     C49587   8.548   7.886   0.545 -0.0456  0.4042  0.1195
  368MOL0     C49588   8.637   7.958   0.444  1.1465 -0.8392 -0.8149
  368MOL0     C49589   8.596   8.105   0.428 -0.9586 -0.0415  0.0350
  368MOL0    Cl49590   8.705   8.184   0.302  0.1975  0.1089 -0.2759
  368MOL0     C49591   8.606   7.627   1.232 -0.8149  0.4753  1.0706
  368MOL0     C49592   8.631   7.640   1.367  1.2088  1.0101 -0.4297
  368MOL0     O49593   8.592   7.815   1.620  0.3773  0.2261  0.2760
  368MOL0     C49594   8.659   7.807   1.891 -0.0474  0.0153 -0.5714
  368MOL0     C49595   8.712   7.802   2.016 -1.0865  0.0735  0.4442
  368MOL0     N49596   8.912   7.521   2.841  0.7048  0.6374 -0.4785
  368MOL0     N49597   8.817   7.467   2.908  0.7386 -0.1895  0.3167
  368MOL0     C49598   8.206   6.498   2.514 -0.1277 -0.4732 -0.0610
  368MOL0     C49599   8.206   6.366   2.466  0.2609  0.4063  0.1063
  368MOL0     C49600   8.104   6.023   2.170 -0.3623  0.2016  0.1973
  368MOL0     C49601   7.973   5.964   2.186  0.4270 -0.2417  0.1945
  368MOL0     C49602   7.930   5.860   2.094  0.5006  0.8217  0.3046
  368MOL0     C49603   8.016   5.811   1.994  0.6918  0.4441  0.8011
  368MOL0     O49604   7.967   5.703   1.919 -0.4222 -0.2907 -0.3513
  368MOL0     C49605   8.026   5.694   1.791 -0.7059 -0.2695 -0.3694
  368MOL0     C49606   7.950   5.603   1.693 -0.3960 -0.7770  0.5145
  368MOL0     C49607   7.858   5.505   1.767  0.4219 -0.0341 -0.1901
  368MOL0     C49608   7.831   5.391   1.677 -0.1939  0.3179  0.0045
  368MOL0     C49609   7.737   5.291   1.739 -0.1960  1.1853  0.7151
  368MOL0     C49610   7.668   5.204   1.777  1.2556  0.2930 -0.3319
  368MOL0     C49611   8.139   5.869   1.988  0.2882 -0.0828 -0.5226
  368MOL0     C49612   8.178   5.972   2.071 -0.3992 -0.2300  0.4347
  368MOL0     H49613   7.893   6.374   2.340  1.0030 -2.7878 -1.4266
  368MOL0     H49614   7.911   6.609   2.417  1.4008  1.8922 -1.6934
  368MOL0     H49615   7.917   6.798   2.534 -0.9420  2.2790  0.4828
  368MOL0     H49616   7.980   6.710   2.675  2.5950 -1.3287 -0.6720
  368MOL0     H49617   8.031   6.995   2.585 -1.9546 -2.1430 -2.1387
  368MOL0     H49618   7.965   6.925   2.742 -1.0782  3.2508 -0.0086
  368MOL0     H49619   8.164   6.861   2.817  1.6585 -0.5987 -0.2026
  368MOL0     H49620   8.260   6.886   2.673 -0.3611 -1.9404  2.0008
  368MOL0     H49621   8.141   7.136   2.749 -3.6543 -3.6246 -0.2444
  368MOL0     H49622   8.184   7.060   2.899  3.1546  0.2326 -0.0583
  368MOL0     H49623   8.416   7.037   2.844  5.6877  0.6831 -2.6286
  368MOL0     H49624   8.380   7.099   2.679 -2.0956  2.8316 -0.4951
  368MOL0     H49625   8.320   7.318   2.787 -1.7497 -3.3548 -2.4037
  368MOL0     H49626   8.371   7.248   2.952 -0.3656 -0.1877 -0.1591
  368MOL0     H49627   8.610   7.204   2.829  0.4910  0.9393  1.2324
  368MOL0     H49628   8.542   7.310   2.695  2.7637 -0.2125 -0.9467
  368MOL0     H49629   8.591   7.397   2.985  3.3857  0.8075 -0.2538
  368MOL0     H49630   8.506   7.489   2.865 -0.8663  0.0154  2.0025
  368MOL0     H49631   8.659   7.499   2.631 -0.7436  2.3295  0.3369
  368MOL0     H49632   9.021   7.651   2.636 -0.3227 -0.4333  1.9630
  368MOL0     H49633   8.985   7.489   2.555  1.2476 -0.9590  0.8807
  368MOL0     H49634   8.820   7.757   2.548 -0.9786  0.2932  0.8603
  368MOL0     H49635   8.778   7.605   2.456 -1.0482 -0.3779  2.3797
  368MOL0     H49636   8.998   7.619   2.338  2.1279  1.7062  1.5735
  368MOL0     H49637   9.016   7.765   2.421 -0.8235  0.4840  1.2694
  368MOL0     H49638   8.945   7.832   2.197 -1.9418 -0.1754 -1.5024
  368MOL0     H49639   8.793   7.832   2.297 -1.2281 -1.3960  0.8761
  368MOL0     H49640   8.763   7.466   2.031  1.0654 -1.7240 -4.0646
  368MOL0     H49641   8.562   7.409   1.767 -0.7831 -0.7558  2.7763
  368MOL0     H49642   8.739   7.415   1.722  1.0158  2.6373  0.4582
  368MOL0     H49643   8.669   7.343   1.871 -3.9145 -1.2855 -0.6513
  368MOL0     H49644   8.305   7.564   1.466 -1.0486 -0.1180 -1.1884
  368MOL0     H49645   8.282   7.563   1.240  1.5782 -1.4308 -2.3483
  368MOL0     H49646   8.267   7.575   1.034 -0.4565  0.0234  0.6540
  368MOL0     H49647   8.318   7.739   1.015  0.6643 -0.6529  2.4614
  368MOL0     H49648   8.378   7.504   0.807 -0.5383 -1.0379 -0.2835
  368MOL0     H49649   8.257   7.628   0.789  0.8105 -2.3878 -2.8579
  368MOL0     H49650   8.550   7.675   0.828 -0.1854 -1.8775  0.7072
  368MOL0     H49651   8.425   7.793   0.770 -2.1338 -0.1137 -1.8410
  368MOL0     H49652   8.545   7.552   0.624  4.1812  1.0015  0.1229
  368MOL0     H49653   8.407   7.646   0.567  1.7200  1.1442 -2.6532
  368MOL0     H49654   8.632   7.701   0.472  1.1424 -3.0031  1.6267
  368MOL0     H49655   8.679   7.741   0.634 -0.4009 -3.8291 -0.0785
  368MOL0     H49656   8.443   7.882   0.518  0.6101 -0.6387 -2.6044
  368MOL0     H49657   8.543   7.931   0.645 -4.2207 -2.0896  1.2571
  368MOL0     H49658   8.631   7.917   0.343  1.0086  0.8003 -1.5168
  368MOL0     H49659   8.744   7.958   0.466  1.0765 -0.2380 -0.4458
  368MOL0     H49660   8.592   8.159   0.524  2.0774  2.5808 -1.1328
  368MOL0     H49661   8.496   8.101   0.383 -0.3030 -2.6984 -1.3334
  368MOL0     H49662   8.693   7.620   1.167 -1.2310 -2.1314  0.6705
  368MOL0     H49663   8.732   7.669   1.397  0.9084 -0.1800  1.9752
  368MOL0     H49664   8.602   7.893   1.857 -1.9127 -2.3460 -4.0069
  368MOL0     H49665   8.715   7.889   2.080 -5.2778  0.4181  0.5103
  368MOL0     H49666   8.295   6.525   2.572  0.5342 -1.7626 -0.4418
  368MOL0     H49667   8.291   6.306   2.499 -0.5750  0.7118  3.0956
  368MOL0     H49668   7.908   5.995   2.267  1.7315 -1.2970  1.6960
  368MOL0     H49669   7.831   5.816   2.102  0.3515  0.9906 -0.5414
  368MOL0     H49670   8.037   5.797   1.756 -0.8814  1.1387  3.2536
  368MOL0     H49671   8.126   5.651   1.806 -0.1595  1.5244  1.4645
  368MOL0     H49672   8.028   5.548   1.639  1.7249  0.4364  2.1494
  368MOL0     H49673   7.895   5.661   1.619  1.6794 -0.2848 -0.7361
  368MOL0     H49674   7.763   5.549   1.799 -1.5199 -4.3024  0.5734
  368MOL0     H49675   7.904   5.465   1.858 -2.6641 -0.6363  1.2218
  368MOL0     H49676   7.922   5.345   1.637 -1.3597 -1.7226 -0.4612
  368MOL0     H49677   7.771   5.431   1.595 -4.9638  0.9177  3.3773
  368MOL0     H49678   7.591   5.139   1.813  0.9201 -0.5773 -2.4906
  368MOL0     H49679   8.203   5.848   1.903 -0.1927 -0.4615 -0.7932
  368MOL0     H49680   8.277   6.012   2.052  0.6927 -2.7161  0.4388
  369MOL0     O49681   5.912   7.430   2.765  0.4514  0.4743  0.2053
  369MOL0     C49682   5.918   7.488   2.866 -0.3732 -0.0454  0.6080
  369MOL0     O49683   5.822   7.487   2.965  1.1487  0.2759  1.2423
  369MOL0     C49684   5.708   7.415   2.950  0.4848  0.7316 -0.2640
  369MOL0     C49685   5.581   7.477   2.947 -0.4174  0.1586  0.2536
  369MOL0     C49686   5.458   7.403   2.927 -0.4591 -0.8260  0.1728
  369MOL0     C49687   5.467   7.264   2.922  0.7103  0.1098  0.5349
  369MOL0     O49688   5.357   7.196   2.876 -0.4911 -0.0286  0.4071
  369MOL0     C49689   5.349   7.059   2.876 -0.6596 -0.2451 -0.3579
  369MOL0     C49690   5.205   7.008   2.845 -0.6248  0.0612 -0.1754
  369MOL0     C49691   5.144   7.060   2.711 -0.7825 -0.2784  0.0207
  369MOL0     C49692   5.195   7.007   2.585  0.0061 -0.2041  0.3823
  369MOL0     C49693   5.112   7.084   2.483  0.4855  0.0297  0.3651
  369MOL0     C49694   5.148   7.031   2.338  0.0848  0.6206  0.0199
  369MOL0     C49695   5.058   7.081   2.224  0.7252  0.9807  0.4546
  369MOL0     C49696   5.049   7.230   2.210 -0.3891  0.2524 -0.6808
  369MOL0     N49697   4.932   7.253   2.122  0.4030  0.7324  0.3576
  369MOL0     C49698   4.926   7.342   2.025  0.3067 -0.6909  0.0781
  369MOL0     C49699   4.794   7.326   1.978  1.0590  0.8435  1.1426
  369MOL0     C49700   4.727   7.399   1.863 -0.2029  0.9193 -1.4094
  369MOL0     C49701   4.599   7.469   1.917 -0.3712  0.6600  0.7980
  369MOL0     C49702   4.576   7.579   1.808 -0.3595 -0.2241  0.1441
  369MOL0     C49703   4.473   7.685   1.840 -0.1296  0.6195 -0.1020
  369MOL0     O49704   4.460   7.712   1.981 -0.1285 -0.2452  0.1719
  369MOL0     C49705   4.422   7.840   2.002 -0.2239 -0.0178  0.6048
  369MOL0     C49706   4.498   7.947   1.980 -0.5378 -0.4444  0.5853
  369MOL0     C49707   4.452   8.080   2.014  0.0895  0.0359  0.2764
  369MOL0     C49708   4.540   8.193   1.978 -0.3514  0.1140  0.1340
  369MOL0     C49709   4.324   8.093   2.071 -0.2515  1.0005  0.0369
  369MOL0     C49710   4.261   8.227   2.097  0.3487  0.4531 -1.1741
  369MOL0     O49711   4.167   8.241   2.195 -0.2681  0.8043  0.1404
  369MOL0     C49712   4.154   8.365   2.241  0.0938 -0.1070 -0.2520
  369MOL0     C49713   4.232   8.403   2.350  0.3442 -0.3486 -0.2574
  369MOL0     C49714   4.223   8.537   2.399  0.2894 -0.6766  0.2296
  369MOL0     C49715   4.130   8.627   2.340 -0.1528 -0.0735  0.8892
  369MOL0     O49716   4.112   8.753   2.385  0.1853 -0.3328  0.2512
  369MOL0     C49717   4.033   8.758   2.509 -0.4469  0.3631  0.2257
  369MOL0     C49718   4.027   8.912   2.538  0.3023 -0.3873  1.1100
  369MOL0     C49719   4.142   8.973   2.610 -1.0059 -1.2255  0.3958
  369MOL0     C49720   4.146   9.117   2.566 -0.6441  0.4217 -0.6040
  369MOL0     C49721   4.258   9.208   2.615 -0.9028 -0.0784 -0.1408
  369MOL0     C49722   4.257   9.335   2.539 -0.3264  0.8471 -0.1257
  369MOL0     C49723   4.370   9.432   2.579 -0.0088 -0.2883  0.6215
  369MOL0     C49724   4.386   9.553   2.485 -0.0781 -0.4263  0.9753
  369MOL0    Cl49725   4.245   9.677   2.494  0.1236  0.3245  0.2490
  369MOL0     C49726   4.058   8.588   2.228  0.4124 -0.8650  0.5064
  369MOL0     C49727   4.069   8.465   2.176 -0.5536 -0.2374  0.0161
  369MOL0     O49728   4.301   8.320   2.028  0.1069 -0.4318  0.5544
  369MOL0     C49729   4.252   7.976   2.100  0.4323  0.0527  0.2846
  369MOL0     C49730   4.303   7.853   2.079 -0.8043 -0.4257  0.8185
  369MOL0     N49731   4.728   7.226   2.042 -0.4210 -0.4185  0.3789
  369MOL0     N49732   4.809   7.187   2.128 -1.2471 -0.2210  0.1615
  369MOL0     C49733   5.590   7.207   2.936 -0.0466 -0.7044 -0.5188
  369MOL0     C49734   5.709   7.280   2.958  0.6081  0.7014  0.1620
  369MOL0     C49735   6.048   7.544   2.902  1.0958  0.2841 -0.3576
  369MOL0     C49736   6.073   7.612   3.021 -0.5578 -0.4484  0.1396
  369MOL0     C49737   6.194   7.678   3.037  0.4788  0.7893  0.6303
  369MOL0     C49738   6.278   7.688   2.926 -0.4808  0.2593  0.3908
  369MOL0     O49739   6.391   7.763   2.930  0.3562 -0.4493  0.6043
  369MOL0     C49740   6.433   7.843   3.049  0.2667 -0.1559 -0.1470
  369MOL0     C49741   6.351   7.973   3.072 -1.1504  0.2107  0.7369
  369MOL0     C49742   6.372   8.071   2.965  0.0377  0.5089  0.0099
  369MOL0     C49743   6.291   8.196   2.987  0.1640  0.7374 -0.0362
  369MOL0     C49744   6.320   8.292   2.883  0.2513 -0.1684 -0.3566
  369MOL0     C49745   6.354   8.370   2.792  0.2389  0.7076 -0.6570
  369MOL0     C49746   6.250   7.631   2.807 -0.4129 -0.5743  0.0943
  369MOL0     C49747   6.142   7.552   2.801  0.1562 -0.0919 -0.2704
  369MOL0     H49748   5.587   7.585   2.939 -1.4140  0.1775 -0.3314
  369MOL0     H49749   5.365   7.458   2.922  0.6107  1.2500  1.5226
  369MOL0     H49750   5.424   7.013   2.810 -0.5320  3.3751 -3.0438
  369MOL0     H49751   5.371   7.031   2.979  0.0013  0.9192 -0.1746
  369MOL0     H49752   5.195   6.900   2.841 -1.0484  0.1260 -1.4837
  369MOL0     H49753   5.153   7.047   2.933  4.0915  2.6597  1.8614
  369MOL0     H49754   5.038   7.035   2.717 -0.9718  0.2105 -1.0432
  369MOL0     H49755   5.167   7.166   2.712  2.1366 -0.8241  0.4464
  369MOL0     H49756   5.301   7.026   2.563 -0.0508 -1.0496 -0.7006
  369MOL0     H49757   5.177   6.900   2.588 -0.1861 -0.1515  1.3702
  369MOL0     H49758   5.005   7.066   2.498  0.6765 -1.2080  0.3480
  369MOL0     H49759   5.141   7.189   2.483 -1.7808  0.7599  2.9222
  369MOL0     H49760   5.253   7.056   2.323 -0.1117  4.3713  3.0948
  369MOL0     H49761   5.144   6.922   2.330  1.9069  0.4249  1.0712
  369MOL0     H49762   5.105   7.040   2.134 -0.9386  0.5805 -0.2573
  369MOL0     H49763   4.962   7.034   2.244  1.2373  0.3418  1.4897
  369MOL0     H49764   5.145   7.268   2.176 -1.1263  2.6624 -0.3025
  369MOL0     H49765   5.025   7.277   2.306 -2.0373 -1.0487 -0.4186
  369MOL0     H49766   5.009   7.407   1.997  1.5298 -1.9042  0.7359
  369MOL0     H49767   4.796   7.476   1.829  1.5289  1.4129  2.5831
  369MOL0     H49768   4.691   7.320   1.796 -2.4883  1.3038 -0.7277
  369MOL0     H49769   4.621   7.526   2.008  0.4146  0.9754  0.4255
  369MOL0     H49770   4.506   7.415   1.937 -1.7902  2.4373 -0.6397
  369MOL0     H49771   4.551   7.536   1.710 -0.4462 -1.5825  0.7323
  369MOL0     H49772   4.668   7.633   1.786 -1.3188  1.2190 -0.4408
  369MOL0     H49773   4.376   7.651   1.803 -0.9979  2.0253  0.8345
  369MOL0     H49774   4.505   7.771   1.781  0.1982  1.0226  0.6610
  369MOL0     H49775   4.598   7.930   1.943 -0.8252 -0.6522 -0.1069
  369MOL0     H49776   4.586   8.234   2.069 -0.2055 -2.2294  1.1809
  369MOL0     H49777   4.618   8.153   1.913  0.0438 -0.7706  1.1178
  369MOL0     H49778   4.493   8.256   1.903  2.8761 -1.2513 -3.3681
  369MOL0     H49779   4.310   8.348   2.401  1.9663  2.8879  1.0458
  369MOL0     H49780   4.284   8.584   2.475  0.1800 -0.6000  0.2692
  369MOL0     H49781   3.933   8.716   2.499  0.7149 -2.1632 -1.7762
  369MOL0     H49782   4.086   8.710   2.592  2.3011  1.1474 -0.9399
  369MOL0     H49783   4.019   8.957   2.438 -3.9304 -0.4720  1.2134
  369MOL0     H49784   3.929   8.935   2.581  0.4011  1.1097  0.6162
  369MOL0     H49785   4.234   8.917   2.590 -0.9642 -0.3143 -2.3954
  369MOL0     H49786   4.129   8.965   2.718  1.2327 -0.9366  0.7299
  369MOL0     H49787   4.166   9.135   2.460  2.2400  0.9085 -0.0603
  369MOL0     H49788   4.049   9.159   2.594 -0.4811  0.0541  0.5413
  369MOL0     H49789   4.353   9.157   2.598 -0.4601  1.1938 -1.6812
  369MOL0     H49790   4.247   9.232   2.722  0.1254  1.1728 -0.2841
  369MOL0     H49791   4.280   9.310   2.435  1.7264 -1.6111  0.8256
  369MOL0     H49792   4.160   9.386   2.548 -1.1871 -1.0102  1.9016
  369MOL0     H49793   4.463   9.375   2.585 -0.4778 -1.0748  0.5712
  369MOL0     H49794   4.338   9.482   2.671 -0.8309  1.2438 -0.4406
  369MOL0     H49795   4.389   9.535   2.377  1.4532  0.5007  0.8204
  369MOL0     H49796   4.478   9.608   2.506  0.4008 -1.8000  2.6848
  369MOL0     H49797   3.995   8.658   2.173 -0.6745 -1.2585  1.2085
  369MOL0     H49798   4.020   8.430   2.085  0.0031  0.2779 -0.4935
  369MOL0     H49799   4.157   7.980   2.152 -1.9020 -0.0138 -3.6398
  369MOL0     H49800   4.258   7.764   2.120  1.3343 -0.5130  3.2443
  369MOL0     H49801   5.594   7.103   2.905  1.0448 -1.1828  1.1186
  369MOL0     H49802   5.798   7.218   2.960 -0.2395 -0.5192  1.1327
  369MOL0     H49803   6.008   7.594   3.106 -0.4391  0.3646  0.4121
  369MOL0     H49804   6.214   7.743   3.122 -1.6279  3.6576 -0.8543
  369MOL0     H49805   6.418   7.782   3.138  1.5638  1.5606  1.3251
  369MOL0     H49806   6.540   7.863   3.049  0.3433 -0.2607 -2.5230
  369MOL0     H49807   6.378   8.011   3.171  3.2655 -3.0796  1.1385
  369MOL0     H49808   6.245   7.946   3.069 -1.0129 -0.9997  3.4013
  369MOL0     H49809   6.337   8.015   2.878  1.9289 -1.1478  0.2467
  369MOL0     H49810   6.476   8.106   2.958 -0.9191  4.3081  1.8337
  369MOL0     H49811   6.318   8.231   3.087  2.1016 -0.0875 -0.2176
  369MOL0     H49812   6.184   8.173   2.990  1.0100 -4.0968  1.9142
  369MOL0     H49813   6.395   8.438   2.721  1.7900  2.6748  1.9359
  369MOL0     H49814   6.316   7.635   2.721  1.0107 -0.4086  1.1471
  369MOL0     H49815   6.119   7.520   2.700 -0.9764 -2.0986  0.5775
  370MOL0     O49816   5.384   0.207   8.750 -0.1861  0.1090 -0.0271
  370MOL0     C49817   5.324   0.226   8.641 -0.5674 -0.5739 -0.0623
  370MOL0     O49818   5.280   0.348   8.595 -0.0283  0.4905  0.1690
  370MOL0     C49819   5.274   0.453   8.679 -0.6496 -0.3674  0.2652
  370MOL0     C49820   5.199   0.450   8.793  0.2282 -0.0386 -0.0925
  370MOL0     C49821   5.211   0.561   8.883 -0.0218 -0.3482  0.3919
  370MOL0     C49822   5.283   0.675   8.860  0.9149 -0.5131  0.3106
  370MOL0     O49823   5.286   0.796   8.930  0.6070 -0.1214 -0.0175
  370MOL0     C49824   5.218   0.796   9.056 -0.7284  0.8538  0.9403
  370MOL0     C49825   5.244   0.931   9.126  0.3717 -0.6160  1.0585
  370MOL0     C49826   5.229   1.044   9.032  0.2891  0.7604  0.3361
  370MOL0     C49827   5.239   1.191   9.085  1.2955  0.3123 -0.3622
  370MOL0     C49828   5.092   1.240   9.119  0.0745  0.1317 -0.6499
  370MOL0     C49829   5.094   1.366   9.198 -1.0951 -0.2643 -0.2382
  370MOL0     C49830   5.117   1.496   9.110  0.6009  0.2608 -0.5823
  370MOL0     C49831   5.135   1.624   9.190  0.1416 -0.1148 -0.6981
  370MOL0     N49832   5.119   1.744   9.108 -0.6802  0.8808  0.2483
  370MOL0     C49833   5.203   1.849   9.112  0.2095 -0.2437  0.1517
  370MOL0     C49834   5.139   1.952   9.056  0.0539 -0.1200 -0.4981
  370MOL0     C49835   5.191   2.098   9.046  0.5078 -0.2076 -0.3222
  370MOL0     C49836   5.249   2.135   8.911 -0.6411  0.3507 -0.3620
  370MOL0     C49837   5.153   2.111   8.794 -0.3990  1.1449 -0.0820
  370MOL0     C49838   5.024   2.185   8.805  0.2299 -0.7537  0.3353
  370MOL0     O49839   5.041   2.331   8.823 -0.3345  0.4376  0.8833
  370MOL0     C49840   4.930   2.398   8.860  0.7297  0.0158  0.7754
  370MOL0     C49841   4.923   2.530   8.811  0.0082  1.0181 -0.4539
  370MOL0     C49842   4.811   2.602   8.834  0.1155 -0.2553  0.2673
  370MOL0     C49843   4.826   2.755   8.827  0.4846 -0.1773  0.4643
  370MOL0     C49844   4.685   2.542   8.868 -0.5726  0.1730 -0.6347
  370MOL0     C49845   4.563   2.620   8.876 -0.1596  0.6477  0.1480
  370MOL0     O49846   4.478   2.579   8.980  0.7399 -0.1383  0.0922
  370MOL0     C49847   4.353   2.632   8.984 -0.3684 -0.0761  0.1135
  370MOL0     C49848   4.256   2.553   8.916 -0.6395  0.0725  0.4066
  370MOL0     C49849   4.138   2.611   8.889  0.4595 -0.6759  0.1962
  370MOL0     C49850   4.101   2.737   8.942  0.4060 -0.0574  0.5996
  370MOL0     O49851   3.965   2.765   8.950 -0.3592 -0.3202  0.4423
  370MOL0     C49852   3.878   2.681   9.025  0.0876  1.2902 -0.0772
  370MOL0     C49853   3.778   2.770   9.098 -0.0313 -0.7228 -0.4798
  370MOL0     C49854   3.842   2.874   9.193 -0.6059  0.5277 -0.4358
  370MOL0     C49855   3.907   2.810   9.316  0.1950 -0.0381  0.9024
  370MOL0     C49856   3.985   2.923   9.386  1.1510 -0.3549 -0.6392
  370MOL0     C49857   4.037   2.886   9.523 -0.5050 -0.4431 -0.3852
  370MOL0     C49858   4.101   3.002   9.601 -0.7678 -0.1508 -0.4936
  370MOL0     C49859   4.137   2.965   9.743  0.2930  0.7291  0.1638
  370MOL0    Cl49860   3.985   2.949   9.836 -0.3795  0.4534 -0.0990
  370MOL0     C49861   4.194   2.821   9.007  0.2320 -0.0166 -0.3999
  370MOL0     C49862   4.324   2.765   9.019  0.5555 -0.8692  0.6476
  370MOL0     O49863   4.544   2.703   8.788  0.2793 -0.0134  0.7442
  370MOL0     C49864   4.683   2.402   8.895  0.1584  0.2911  0.3213
  370MOL0     C49865   4.805   2.328   8.900 -0.0405 -0.3597 -0.8714
  370MOL0     N49866   5.023   1.905   9.012 -0.7112 -0.5519 -0.0636
  370MOL0     N49867   5.016   1.780   9.038  0.7550 -0.0888 -0.4620
  370MOL0     C49868   5.350   0.679   8.731  0.0824 -0.4968  0.5471
  370MOL0     C49869   5.347   0.564   8.644 -0.9452 -0.5266  0.8874
  370MOL0     C49870   5.306   0.110   8.558  0.4198 -0.3177 -0.3442
  370MOL0     C49871   5.337   0.119   8.421  0.1987 -0.7538 -0.0295
  370MOL0     C49872   5.335   0.005   8.334  0.5474 -0.2644 -0.6266
  370MOL0     C49873   5.290  -0.125   8.383 -0.5439 -0.2148 -0.6751
  370MOL0     O49874   5.284  -0.244   8.314  0.4885  0.2084 -0.6769
  370MOL0     C49875   5.334  -0.249   8.187 -0.3057 -0.0794 -0.4242
  370MOL0     C49876   5.466  -0.319   8.170  1.1469 -0.2441  0.5603
  370MOL0     C49877   5.465  -0.462   8.227 -1.6343 -1.1281  0.6742
  370MOL0     C49878   5.579  -0.551   8.195 -0.8491  0.5896  0.4828
  370MOL0     C49879   5.713  -0.497   8.233  1.0563 -1.1987  0.1272
  370MOL0     C49880   5.819  -0.452   8.256 -0.4259 -0.1319 -0.7408
  370MOL0     C49881   5.257  -0.132   8.517  0.7444  0.0914  0.1544
  370MOL0     C49882   5.272  -0.020   8.607  0.1354 -0.3673  0.3781
  370MOL0     H49883   5.161   0.355   8.830  0.8782  1.0416  3.7960
  370MOL0     H49884   5.166   0.541   8.980 -1.9294 -2.1542 -0.7762
  370MOL0     H49885   5.109   0.792   9.046 -0.7964  2.3334  0.8738
  370MOL0     H49886   5.260   0.715   9.117  2.7354  3.0911  1.8351
  370MOL0     H49887   5.173   0.954   9.206  0.2916 -0.8973  1.0710
  370MOL0     H49888   5.343   0.941   9.172  0.9653  0.4653 -0.3591
  370MOL0     H49889   5.301   1.031   8.951 -3.4195 -2.3453 -2.8351
  370MOL0     H49890   5.128   1.039   8.990  0.4572  3.7144 -0.6851
  370MOL0     H49891   5.301   1.181   9.175 -0.3167 -1.3028  0.6205
  370MOL0     H49892   5.283   1.255   9.008  0.9890  0.5949 -0.3007
  370MOL0     H49893   5.044   1.250   9.022 -2.5252  0.4438  0.5743
  370MOL0     H49894   5.032   1.165   9.171  0.0269  0.3893 -0.3318
  370MOL0     H49895   4.992   1.389   9.229 -2.1769  0.0696 -3.6628
  370MOL0     H49896   5.166   1.352   9.279 -1.4435 -0.3866  0.0536
  370MOL0     H49897   5.193   1.471   9.035 -2.1866 -0.6818 -3.3078
  370MOL0     H49898   5.019   1.508   9.061 -0.1046  3.9088  1.4204
  370MOL0     H49899   5.237   1.623   9.228  0.8395 -1.1130 -2.4671
  370MOL0     H49900   5.059   1.625   9.268 -2.4976 -1.5101 -3.0526
  370MOL0     H49901   5.293   1.847   9.172 -0.6909 -1.1001  1.5153
  370MOL0     H49902   5.107   2.159   9.081  0.8405 -0.6021  1.2693
  370MOL0     H49903   5.274   2.124   9.112 -1.3078  2.6995  1.0131
  370MOL0     H49904   5.333   2.065   8.905 -1.3120 -0.6002  0.9804
  370MOL0     H49905   5.279   2.240   8.919 -0.5822  0.2159  1.6376
  370MOL0     H49906   5.137   2.006   8.768  0.5596  0.7305  0.9207
  370MOL0     H49907   5.195   2.155   8.702 -0.1390  0.6391 -0.2083
  370MOL0     H49908   4.983   2.140   8.896 -0.8611  1.2578  0.8759
  370MOL0     H49909   4.960   2.143   8.727  1.0250 -3.4165  0.9830
  370MOL0     H49910   5.010   2.564   8.755  1.2152 -2.7205 -1.1598
  370MOL0     H49911   4.918   2.792   8.874  0.6798 -1.5946  1.2761
  370MOL0     H49912   4.819   2.772   8.720  2.1369  0.2128  0.3907
  370MOL0     H49913   4.748   2.806   8.884 -1.9104 -1.1695 -1.7552
  370MOL0     H49914   4.287   2.458   8.874  0.8963  1.2868 -1.3851
  370MOL0     H49915   4.069   2.554   8.827  2.4910 -1.0369 -1.8592
  370MOL0     H49916   3.819   2.620   8.956 -0.3086  2.6661 -0.9929
  370MOL0     H49917   3.936   2.622   9.097  2.0274  1.2284 -1.6063
  370MOL0     H49918   3.724   2.838   9.031  2.6127  0.8997 -1.1259
  370MOL0     H49919   3.718   2.698   9.155  2.8094 -0.6985  2.8395
  370MOL0     H49920   3.770   2.954   9.213  2.4735  3.4474 -0.0197
  370MOL0     H49921   3.923   2.910   9.128 -1.0170 -1.4214 -2.1407
  370MOL0     H49922   3.828   2.769   9.380 -0.2552  1.4831  1.3558
  370MOL0     H49923   3.966   2.721   9.290 -1.0049 -0.9073  1.0610
  370MOL0     H49924   3.922   3.009   9.410  1.6411 -0.1513 -0.0712
  370MOL0     H49925   4.070   2.955   9.325  1.3173  0.2786 -0.0852
  370MOL0     H49926   3.955   2.861   9.592  1.8811  1.0561  3.2962
  370MOL0     H49927   4.111   2.806   9.513  2.1154  1.1774  3.6137
  370MOL0     H49928   4.033   3.088   9.600 -1.2567 -0.5339 -0.5374
  370MOL0     H49929   4.193   3.035   9.553  1.2080 -2.1939  1.6524
  370MOL0     H49930   4.207   3.035   9.791  1.3681  0.5925 -1.1590
  370MOL0     H49931   4.189   2.870   9.738 -3.0606 -1.2631 -0.1939
  370MOL0     H49932   4.169   2.916   9.054  1.8845  1.7578 -2.8636
  370MOL0     H49933   4.396   2.823   9.076 -0.6658  1.5392 -0.1582
  370MOL0     H49934   4.592   2.347   8.918 -0.9208  2.5284  1.7476
  370MOL0     H49935   4.814   2.230   8.946  1.6985  0.4094  0.5138
  370MOL0     H49936   5.398   0.771   8.698  0.0213 -0.3943  0.7397
  370MOL0     H49937   5.377   0.582   8.542  1.4047 -3.0032  1.0241
  370MOL0     H49938   5.377   0.210   8.377  2.9316 -1.9182 -0.1383
  370MOL0     H49939   5.359   0.016   8.229 -0.8091  1.8283 -0.7655
  370MOL0     H49940   5.265  -0.307   8.124  0.9154  0.5683 -2.4761
  370MOL0     H49941   5.355  -0.152   8.141 -0.7539 -0.5076 -1.5935
  370MOL0     H49942   5.552  -0.270   8.217 -1.1406  0.4201  4.5498
  370MOL0     H49943   5.479  -0.324   8.061 -0.6770 -4.0841  0.3681
  370MOL0     H49944   5.379  -0.496   8.169  0.4388  0.7712 -3.9492
  370MOL0     H49945   5.454  -0.459   8.336  0.0552 -2.2148  0.9208
  370MOL0     H49946   5.588  -0.574   8.089 -4.1601  0.3315  0.1671
  370MOL0     H49947   5.571  -0.644   8.253  0.4042  2.0804  3.2783
  370MOL0     H49948   5.911  -0.399   8.271 -1.3130  1.3830 -0.5205
  370MOL0     H49949   5.225  -0.227   8.558 -1.5501 -0.2672 -2.2660
  370MOL0     H49950   5.244  -0.015   8.712 -2.4946 -2.4787 -0.1281
  371MOL0     O49951   2.133   0.688   8.567 -0.1945 -0.7696  0.5729
  371MOL0     C49952   2.044   0.636   8.497  0.0042 -1.2312 -0.5288
  371MOL0     O49953   1.992   0.694   8.384  0.3801 -0.2194 -0.5833
  371MOL0     C49954   2.018   0.818   8.345 -1.1248 -0.3166  0.0108
  371MOL0     C49955   2.142   0.892   8.361 -0.6342 -0.0718 -0.6621
  371MOL0     C49956   2.150   1.021   8.317 -0.6053 -0.2520  0.7347
  371MOL0     C49957   2.047   1.087   8.254  0.8226 -0.0757 -0.0462
  371MOL0     O49958   2.038   1.219   8.218  0.5427 -0.0549  0.2538
  371MOL0     C49959   2.110   1.315   8.300 -0.5113 -0.2530 -0.7721
  371MOL0     C49960   2.137   1.449   8.214 -0.0149  0.4515  0.2222
  371MOL0     C49961   2.235   1.416   8.095  0.3116 -0.0571 -0.5335
  371MOL0     C49962   2.225   1.517   7.985 -0.4129 -0.3370 -0.5346
  371MOL0     C49963   2.297   1.485   7.852  0.7919  0.1914  0.1578
  371MOL0     C49964   2.450   1.474   7.873 -0.4146  0.1308 -0.3157
  371MOL0     C49965   2.530   1.453   7.747 -0.2391 -0.2805 -0.1583
  371MOL0     C49966   2.496   1.337   7.650  0.2675 -0.1394  0.2909
  371MOL0     N49967   2.576   1.335   7.525 -0.3155  0.2262 -0.5282
  371MOL0     C49968   2.529   1.371   7.404  0.3970 -0.0071  0.4703
  371MOL0     C49969   2.640   1.384   7.320 -0.5611  0.8584  0.2901
  371MOL0     C49970   2.624   1.417   7.174 -0.4111 -0.4983  0.1071
  371MOL0     C49971   2.745   1.471   7.105  0.2500  0.3566 -0.0020
  371MOL0     C49972   2.799   1.603   7.169 -0.4933 -0.0935 -0.3669
  371MOL0     C49973   2.701   1.720   7.154  0.0545  0.3156 -0.2899
  371MOL0     O49974   2.782   1.831   7.186 -0.7392 -0.2531 -0.5946
  371MOL0     C49975   2.740   1.954   7.201  1.4784 -1.3044 -0.0095
  371MOL0     C49976   2.822   2.067   7.196 -0.3101  0.4196 -0.4112
  371MOL0     C49977   2.777   2.202   7.187  0.5063 -1.0184 -0.1756
  371MOL0     C49978   2.879   2.304   7.164  0.8153 -0.1764 -0.3183
  371MOL0     C49979   2.636   2.229   7.188 -0.4063  0.2226  0.0009
  371MOL0     C49980   2.576   2.363   7.194 -0.4814  0.0253 -0.0610
  371MOL0     O49981   2.639   2.467   7.269 -0.2437  0.3189 -1.3007
  371MOL0     C49982   2.617   2.596   7.235  0.0404 -0.3255 -0.6302
  371MOL0     C49983   2.715   2.666   7.160  0.8932 -0.9191 -0.1775
  371MOL0     C49984   2.671   2.799   7.119 -0.1589  0.0202 -0.6478
  371MOL0     C49985   2.558   2.864   7.163 -0.9053 -0.9769  0.4229
  371MOL0     O49986   2.530   2.996   7.133 -0.2128  0.1687  0.1594
  371MOL0     C49987   2.535   3.029   6.989 -0.0701  0.8746 -0.1215
  371MOL0     C49988   2.663   3.121   6.954  0.2553  0.6212 -0.7690
  371MOL0     C49989   2.654   3.265   7.002 -0.7047 -0.0223 -0.4438
  371MOL0     C49990   2.782   3.345   6.970  1.3417  0.0383  0.1682
  371MOL0     C49991   2.785   3.488   7.029 -0.0415  0.2364  0.8355
  371MOL0     C49992   2.675   3.581   6.975  0.6633  0.2718 -0.6100
  371MOL0     C49993   2.700   3.634   6.839 -0.2093  0.1622 -0.2961
  371MOL0     C49994   2.585   3.733   6.785  1.0258  0.9534 -0.8836
  371MOL0    Cl49995   2.417   3.651   6.777 -0.2178 -0.1485 -0.3515
  371MOL0     C49996   2.467   2.789   7.230  0.2574  0.0637  0.6639
  371MOL0     C49997   2.497   2.656   7.271 -0.8080 -0.1680  0.7869
  371MOL0     O49998   2.483   2.385   7.124  0.1876 -0.1065 -0.7820
  371MOL0     C49999   2.549   2.113   7.205 -0.1609  0.6007 -0.2274
  371MOL0     C50000   2.602   1.981   7.214 -0.0532 -0.5792 -1.2763
  371MOL0     N50001   2.749   1.335   7.397  0.2452 -0.7133  0.8327
  371MOL0     N50002   2.712   1.311   7.519 -0.3750  0.1020  0.6952
  371MOL0     C50003   1.940   1.007   8.213 -0.7347 -0.2662 -1.1851
  371MOL0     C50004   1.928   0.871   8.254  0.6650 -1.1859  0.0324
  371MOL0     C50005   2.000   0.509   8.546 -0.2821 -0.5870 -0.0209
  371MOL0     C50006   1.956   0.403   8.465  0.3047 -0.5203 -0.7208
  371MOL0     C50007   1.902   0.294   8.527  0.3595  0.2931  0.4349
  371MOL0     C50008   1.898   0.274   8.665  0.3055  0.0387 -0.2846
  371MOL0     O50009   1.862   0.154   8.709  0.4116 -0.1054  0.3929
  371MOL0     C50010   1.723   0.114   8.702  0.4290  1.3305  0.3328
  371MOL0     C50011   1.631   0.166   8.814 -0.0038 -1.7994  0.7427
  371MOL0     C50012   1.543   0.283   8.764  0.2832  0.1764  0.4304
  371MOL0     C50013   1.450   0.321   8.876  1.1603 -0.2244  0.3223
  371MOL0     C50014   1.394   0.452   8.867 -0.2175 -0.6415  1.5832
  371MOL0     C50015   1.365   0.568   8.857 -0.4698  0.1139  0.5511
  371MOL0     C50016   1.943   0.375   8.744  0.2359 -0.2124  0.6429
  371MOL0     C50017   1.984   0.496   8.684  0.3093 -0.1327  0.0370
  371MOL0     H50018   2.236   0.852   8.397 -0.7043  0.2716 -0.0661
  371MOL0     H50019   2.245   1.069   8.335 -1.4378  1.8026 -0.0212
  371MOL0     H50020   2.060   1.332   8.395 -1.0655 -1.3728 -0.8390
  371MOL0     H50021   2.209   1.278   8.328 -0.5472  0.1334 -0.1191
  371MOL0     H50022   2.038   1.478   8.175 -1.7669 -3.1509  1.5761
  371MOL0     H50023   2.181   1.535   8.267  0.4427  0.5340 -0.2869
  371MOL0     H50024   2.337   1.403   8.133  0.6182  1.0743 -0.9270
  371MOL0     H50025   2.217   1.311   8.070  2.0099 -1.1594  2.3781
  371MOL0     H50026   2.118   1.523   7.960 -0.9034  5.2522  1.4463
  371MOL0     H50027   2.246   1.617   8.023 -0.0180  0.0734 -1.7628
  371MOL0     H50028   2.259   1.391   7.809 -0.1523 -0.6248  2.5861
  371MOL0     H50029   2.268   1.568   7.787 -2.2143 -0.4946  0.4720
  371MOL0     H50030   2.482   1.563   7.927 -0.5121 -0.2943  0.4642
  371MOL0     H50031   2.481   1.396   7.943 -2.6057 -0.0753  0.5087
  371MOL0     H50032   2.511   1.530   7.672 -0.8164 -0.7707 -0.5277
  371MOL0     H50033   2.638   1.466   7.761  0.0492 -1.0940 -1.4269
  371MOL0     H50034   2.389   1.330   7.628  0.4218  0.1444 -0.5755
  371MOL0     H50035   2.524   1.243   7.698 -2.5743 -1.0213  0.4553
  371MOL0     H50036   2.422   1.372   7.385  0.3274 -0.2544  0.8360
  371MOL0     H50037   2.593   1.325   7.122  3.0900 -1.6526 -0.1574
  371MOL0     H50038   2.542   1.487   7.155 -0.3011 -0.7179 -1.3419
  371MOL0     H50039   2.718   1.481   6.999 -2.2065 -3.1292  0.1371
  371MOL0     H50040   2.829   1.402   7.116 -0.1054 -0.1502 -0.4098
  371MOL0     H50041   2.884   1.635   7.108 -0.1878  0.4679  0.3414
  371MOL0     H50042   2.832   1.598   7.273 -1.3388 -3.2359 -0.1686
  371MOL0     H50043   2.631   1.712   7.238  0.4599 -2.3620 -0.1086
  371MOL0     H50044   2.657   1.727   7.054  2.1021  1.8548 -1.1271
  371MOL0     H50045   2.928   2.049   7.183 -0.2425  1.8409 -2.0593
  371MOL0     H50046   2.970   2.257   7.126  0.8044  0.5184 -1.2263
  371MOL0     H50047   2.843   2.382   7.097 -0.9317  0.5468  1.3690
  371MOL0     H50048   2.895   2.348   7.263 -0.0803  1.2577 -0.7766
  371MOL0     H50049   2.809   2.621   7.130  0.3189 -2.4327  0.2500
  371MOL0     H50050   2.735   2.858   7.054  0.8009  0.1584  0.4041
  371MOL0     H50051   2.539   2.939   6.927 -1.6708  0.5166  0.2404
  371MOL0     H50052   2.445   3.085   6.962  0.1695  0.9516 -0.7600
  371MOL0     H50053   2.758   3.077   6.986  0.3562  1.3731  0.0002
  371MOL0     H50054   2.668   3.141   6.846 -0.7076  1.2331 -0.7112
  371MOL0     H50055   2.650   3.251   7.110  3.3589 -1.2449 -0.2898
  371MOL0     H50056   2.566   3.320   6.968  0.1801  1.9534  0.3246
  371MOL0     H50057   2.867   3.297   7.019 -1.0271 -1.1682  3.4462
  371MOL0     H50058   2.801   3.353   6.862 -1.3202  1.1175 -0.3006
  371MOL0     H50059   2.885   3.532   7.022  0.2191  0.2328  3.3995
  371MOL0     H50060   2.770   3.474   7.137  0.2250  1.7232  1.0856
  371MOL0     H50061   2.582   3.523   6.970  0.1645  0.9553  0.4150
  371MOL0     H50062   2.647   3.664   7.041 -1.4208  1.5898 -2.9657
  371MOL0     H50063   2.699   3.552   6.767  2.3178 -2.3483  2.2417
  371MOL0     H50064   2.803   3.672   6.833 -0.1547 -0.1790 -4.8600
  371MOL0     H50065   2.617   3.780   6.692 -0.0058 -1.5460 -2.6083
  371MOL0     H50066   2.573   3.800   6.871  1.5704 -2.9409  2.5504
  371MOL0     H50067   2.378   2.832   7.276 -0.8004 -0.4279 -0.8463
  371MOL0     H50068   2.433   2.590   7.330  0.6932 -1.8554  0.6306
  371MOL0     H50069   2.444   2.128   7.227  0.6130  1.6074  3.2937
  371MOL0     H50070   2.527   1.907   7.241 -0.6465  0.5965  0.5125
  371MOL0     H50071   1.849   1.052   8.173 -0.5855  1.1020 -0.0578
  371MOL0     H50072   1.844   0.812   8.220 -0.4175  1.7370 -2.7892
  371MOL0     H50073   1.953   0.407   8.357  2.8726 -0.1861 -0.8273
  371MOL0     H50074   1.869   0.218   8.458  2.7529  0.4494 -0.9848
  371MOL0     H50075   1.674   0.142   8.608 -0.6069  2.1539  1.0896
  371MOL0     H50076   1.732   0.005   8.708  1.5008  1.0379 -3.5918
  371MOL0     H50077   1.693   0.199   8.898 -1.1555  1.5143  0.4585
  371MOL0     H50078   1.567   0.081   8.838 -0.1916 -0.9813  3.3649
  371MOL0     H50079   1.477   0.246   8.685  0.6832 -0.0270  0.1915
  371MOL0     H50080   1.596   0.375   8.738  2.0172 -0.5916  1.1100
  371MOL0     H50081   1.517   0.322   8.963  1.7969  0.2677 -0.1654
  371MOL0     H50082   1.370   0.250   8.899  0.8414  0.2641  0.7398
  371MOL0     H50083   1.328   0.669   8.855 -3.1324 -0.7696 -1.1906
  371MOL0     H50084   1.915   0.384   8.848 -2.0109  0.3009  0.0357
  371MOL0     H50085   2.004   0.586   8.741  1.3508  0.9651 -1.9567
  372MOL0     O50086   0.789   5.260   0.064 -0.3185  1.1689 -0.8198
  372MOL0     C50087   0.816   5.320  -0.040 -0.4884  0.1910 -0.6338
  372MOL0     O50088   0.824   5.260  -0.166 -0.3125 -0.2459  0.8557
  372MOL0     C50089   0.783   5.132  -0.176  0.3801 -0.0893 -0.4808
  372MOL0     C50090   0.653   5.093  -0.137  0.3981  0.1332  0.4102
  372MOL0     C50091   0.601   4.966  -0.154  0.4420  0.6952  0.2419
  372MOL0     C50092   0.692   4.862  -0.183 -0.0146  0.1346  0.4121
  372MOL0     O50093   0.645   4.731  -0.173 -0.5539 -0.1120 -0.0669
  372MOL0     C50094   0.711   4.641  -0.270 -0.5561  0.5450  1.2546
  372MOL0     C50095   0.647   4.497  -0.247  0.2948 -0.1347  0.5441
  372MOL0     C50096   0.694   4.435  -0.112  0.0992  0.3399 -0.0372
  372MOL0     C50097   0.618   4.313  -0.055  0.2066  0.0629  0.1942
  372MOL0     C50098   0.649   4.194  -0.144  0.4541  0.2073 -0.1203
  372MOL0     C50099   0.563   4.067  -0.090  1.0654 -0.4687  0.1827
  372MOL0     C50100   0.601   3.927  -0.156  0.2121  0.6516 -0.5097
  372MOL0     C50101   0.572   3.920  -0.309 -1.0872  0.3150 -0.3992
  372MOL0     N50102   0.650   4.001  -0.407  0.3605  0.3399  0.0835
  372MOL0     C50103   0.777   3.992  -0.451 -0.4281  0.8541  0.5399
  372MOL0     C50104   0.780   4.053  -0.570 -0.1107  0.1501 -0.1719
  372MOL0     C50105   0.909   4.047  -0.655  0.1860 -0.4016  0.4033
  372MOL0     C50106   0.891   3.981  -0.796 -0.0297 -0.0990 -0.1609
  372MOL0     C50107   0.792   4.067  -0.880 -1.1888  0.8008  1.0901
  372MOL0     C50108   0.792   4.011  -1.017 -0.1120  0.2796 -0.2593
  372MOL0     O50109   0.756   3.873  -1.028  0.3144  0.0154 -0.4964
  372MOL0     C50110   0.804   3.796  -1.132  0.0545 -0.6331 -0.7230
  372MOL0     C50111   0.793   3.852  -1.261 -0.3030 -0.0059 -0.2019
  372MOL0     C50112   0.840   3.771  -1.370 -0.3496 -0.8308 -0.2373
  372MOL0     C50113   0.786   3.815  -1.508  0.3106 -0.2964  0.5269
  372MOL0     C50114   0.923   3.660  -1.352 -0.3848  0.0352  1.1279
  372MOL0     C50115   0.993   3.594  -1.473  0.3079  0.9425 -0.5738
  372MOL0     O50116   0.983   3.461  -1.492  0.0791  0.1949 -0.2537
  372MOL0     C50117   0.944   3.420  -1.613 -1.4068 -0.4274  0.2636
  372MOL0     C50118   0.811   3.382  -1.621  0.2607 -1.4946 -0.6655
  372MOL0     C50119   0.749   3.364  -1.749  0.5600 -0.3956 -0.0655
  372MOL0     C50120   0.820   3.370  -1.865 -0.9651 -0.6239  0.3713
  372MOL0     O50121   0.778   3.337  -1.996  0.4722 -0.1998 -0.0463
  372MOL0     C50122   0.641   3.309  -2.022 -0.6369 -0.0093  0.6929
  372MOL0     C50123   0.605   3.160  -1.989 -0.8102  0.0452 -0.2291
  372MOL0     C50124   0.698   3.061  -2.065 -0.5556  0.1791  0.5156
  372MOL0     C50125   0.641   3.044  -2.204 -0.9385  0.6455  0.4866
  372MOL0     C50126   0.738   2.943  -2.274 -0.1628 -0.1155 -0.6287
  372MOL0     C50127   0.688   2.934  -2.414 -0.0903 -0.4015 -1.0256
  372MOL0     C50128   0.786   2.850  -2.492 -0.1751  0.2457  0.0929
  372MOL0     C50129   0.763   2.866  -2.650 -0.6959 -0.3690 -0.6623
  372MOL0    Cl50130   0.755   3.037  -2.701 -0.1402 -0.0905  0.0734
  372MOL0     C50131   0.954   3.406  -1.862  0.0159 -0.2781 -0.0475
  372MOL0     C50132   1.015   3.442  -1.735 -0.4492  0.0062 -0.2158
  372MOL0     O50133   1.041   3.673  -1.551 -0.1475  0.1232  0.3742
  372MOL0     C50134   0.929   3.601  -1.222  0.0145 -0.7989  0.4910
  372MOL0     C50135   0.869   3.671  -1.114 -0.5195 -0.3780  0.3518
  372MOL0     N50136   0.655   4.108  -0.590  0.1938 -0.8359 -0.4600
  372MOL0     N50137   0.584   4.080  -0.492 -0.4686 -0.3260 -0.0735
  372MOL0     C50138   0.826   4.899  -0.218 -0.9861  0.6559  0.2439
  372MOL0     C50139   0.863   5.033  -0.217 -0.3417  0.2995 -0.4120
  372MOL0     C50140   0.854   5.461  -0.036  0.6205 -1.0266  0.5729
  372MOL0     C50141   0.920   5.520  -0.149 -0.5694 -0.5516 -0.1369
  372MOL0     C50142   0.956   5.658  -0.147  0.3166 -0.9723  1.1130
  372MOL0     C50143   0.928   5.743  -0.046  1.6719 -0.4675  0.2887
  372MOL0     O50144   0.965   5.874  -0.040  0.0418  0.2363 -0.1407
  372MOL0     C50145   0.994   5.947  -0.161 -0.1106  0.2485  0.1467
  372MOL0     C50146   1.145   5.971  -0.181  0.4739 -0.6744  1.0394
  372MOL0     C50147   1.201   6.033  -0.046  0.1938  1.0078  0.3650
  372MOL0     C50148   1.330   5.952  -0.017  0.4804 -0.6112 -0.3795
  372MOL0     C50149   1.409   5.996   0.099 -0.1989  0.5335  0.8899
  372MOL0     C50150   1.478   6.024   0.191 -0.9697  0.1664 -0.6367
  372MOL0     C50151   0.863   5.690   0.064 -0.0544  0.7639 -0.0355
  372MOL0     C50152   0.826   5.551   0.070 -0.6351  0.2915  0.2890
  372MOL0     H50153   0.572   5.153  -0.096  0.3829  1.2198 -1.1485
  372MOL0     H50154   0.497   4.952  -0.127  0.3738  2.0391  0.7932
  372MOL0     H50155   0.703   4.684  -0.370 -0.8306  0.1178  1.0943
  372MOL0     H50156   0.817   4.640  -0.244 -0.1032 -2.1252 -0.3404
  372MOL0     H50157   0.539   4.510  -0.242  0.2520  1.0557 -1.9251
  372MOL0     H50158   0.680   4.437  -0.333  0.9175 -1.1063  1.4390
  372MOL0     H50159   0.797   4.402  -0.126  0.7176  2.4332 -0.8152
  372MOL0     H50160   0.698   4.516  -0.038 -1.1056  0.9374 -0.5961
  372MOL0     H50161   0.668   4.291   0.040  0.2602 -0.1564  0.1165
  372MOL0     H50162   0.514   4.339  -0.036 -0.4940  1.1261 -4.0541
  372MOL0     H50163   0.624   4.219  -0.248 -0.4382 -1.1986 -0.2814
  372MOL0     H50164   0.756   4.175  -0.136  0.7685  1.8557 -0.1777
  372MOL0     H50165   0.579   4.050   0.017  1.4458  2.5838  0.6881
  372MOL0     H50166   0.455   4.079  -0.095  0.4933 -4.2808  0.5301
  372MOL0     H50167   0.709   3.909  -0.151  0.1425 -0.4789 -2.3369
  372MOL0     H50168   0.551   3.838  -0.118  1.1029  0.3190 -0.0920
  372MOL0     H50169   0.468   3.947  -0.327 -1.1954 -0.1459 -0.4748
  372MOL0     H50170   0.590   3.814  -0.328  0.6099  0.6974 -1.1561
  372MOL0     H50171   0.855   3.943  -0.394  0.1215  1.3974  0.2566
  372MOL0     H50172   0.953   4.144  -0.681 -1.9432  0.6558  0.5494
  372MOL0     H50173   0.981   3.984  -0.601 -0.3269 -0.6363  0.8142
  372MOL0     H50174   0.847   3.881  -0.788 -1.8781  0.6859  0.2208
  372MOL0     H50175   0.989   3.976  -0.843  0.7569 -1.8535  1.5241
  372MOL0     H50176   0.816   4.173  -0.891  3.7547 -0.3347 -2.6999
  372MOL0     H50177   0.697   4.059  -0.826 -1.4669  0.9541  0.6266
  372MOL0     H50178   0.889   4.037  -1.059 -0.4028  0.6693 -0.7005
  372MOL0     H50179   0.716   4.061  -1.078 -2.6601 -0.3909  2.1452
  372MOL0     H50180   0.744   3.948  -1.276  2.3512  2.0636  2.8898
  372MOL0     H50181   0.693   3.868  -1.487  1.2607  0.3445  3.6188
  372MOL0     H50182   0.862   3.877  -1.557 -0.5191  1.1339  0.9920
  372MOL0     H50183   0.762   3.732  -1.575  1.7097  1.9771 -3.0988
  372MOL0     H50184   0.755   3.363  -1.530  2.3602 -3.0315  0.3794
  372MOL0     H50185   0.646   3.333  -1.759  0.3918 -0.5167  1.7543
  372MOL0     H50186   0.583   3.377  -1.959 -1.6107 -0.4260  0.2722
  372MOL0     H50187   0.638   3.328  -2.130 -1.0776 -4.4670 -0.2914
  372MOL0     H50188   0.618   3.142  -1.882  2.0438  1.4204 -0.2284
  372MOL0     H50189   0.501   3.133  -2.009 -0.4700 -3.0628  1.7229
  372MOL0     H50190   0.700   2.958  -2.029 -0.9439  0.0064  0.0641
  372MOL0     H50191   0.798   3.103  -2.055 -0.0287 -1.4694  2.7686
  372MOL0     H50192   0.536   3.013  -2.201 -0.7986  0.2250  1.7183
  372MOL0     H50193   0.644   3.131  -2.270 -0.7339  0.6674  0.5238
  372MOL0     H50194   0.750   2.850  -2.218  4.2520 -0.9138 -2.4599
  372MOL0     H50195   0.834   2.995  -2.279 -0.6837  0.7542 -2.6884
  372MOL0     H50196   0.589   2.888  -2.417 -0.8134  1.0025 -0.0990
  372MOL0     H50197   0.674   3.032  -2.460  0.1123  1.8442  3.1841
  372MOL0     H50198   0.797   2.749  -2.453  3.6623  0.6782  0.4870
  372MOL0     H50199   0.885   2.891  -2.469 -1.4194  1.2456  4.6505
  372MOL0     H50200   0.668   2.814  -2.670  0.4133 -1.8270 -2.4337
  372MOL0     H50201   0.843   2.806  -2.694 -2.2947 -3.0877 -0.0941
  372MOL0     H50202   1.016   3.405  -1.951 -1.3960  3.1724 -1.2496
  372MOL0     H50203   1.118   3.478  -1.739 -1.2946  2.5373 -2.9596
  372MOL0     H50204   0.975   3.504  -1.208  3.4106 -0.0968 -3.7819
  372MOL0     H50205   0.860   3.628  -1.015 -1.6630  1.5388  1.1487
  372MOL0     H50206   0.906   4.831  -0.245  0.6530  2.8201 -0.6037
  372MOL0     H50207   0.967   5.061  -0.225 -0.7506  1.9130 -0.4994
  372MOL0     H50208   0.932   5.455  -0.235 -3.8814 -2.0874  0.4261
  372MOL0     H50209   0.998   5.704  -0.236 -3.7685 -0.8635 -0.9742
  372MOL0     H50210   0.950   5.892  -0.245  0.8324 -3.3297  1.7897
  372MOL0     H50211   0.947   6.045  -0.156 -0.0616  0.3809 -1.4522
  372MOL0     H50212   1.168   6.025  -0.273 -1.8627  0.2634  0.9406
  372MOL0     H50213   1.205   5.882  -0.203  1.8425  0.4012  0.3165
  372MOL0     H50214   1.119   6.036   0.027 -2.9196 -0.4110 -2.7802
  372MOL0     H50215   1.222   6.140  -0.060  0.0884  1.5099  3.3156
  372MOL0     H50216   1.402   5.964  -0.099 -0.3800  0.0493 -1.0537
  372MOL0     H50217   1.299   5.847  -0.013 -2.1893  0.1179  0.3138
  372MOL0     H50218   1.533   6.045   0.280  1.3655 -0.5076 -1.8392
  372MOL0     H50219   0.836   5.744   0.154 -0.1586  1.5520 -0.5386
  372MOL0     H50220   0.764   5.513   0.150 -1.9289  1.3581 -0.1682
  373MOL0     O50221   6.196   2.865   5.605 -0.2613 -0.1248  0.7661
  373MOL0     C50222   6.246   2.759   5.557 -0.6186 -0.5092  0.1575
  373MOL0     O50223   6.183   2.637   5.544  0.6202  0.1783  0.1280
  373MOL0     C50224   6.056   2.606   5.599 -0.7192  0.8919  0.0241
  373MOL0     C50225   6.032   2.473   5.639  0.7840  0.8639 -1.0088
  373MOL0     C50226   5.918   2.441   5.715 -0.0417 -0.2510 -0.8933
  373MOL0     C50227   5.832   2.546   5.762  0.2802  0.7472 -0.0363
  373MOL0     O50228   5.733   2.513   5.854  0.1568 -0.3986 -0.2391
  373MOL0     C50229   5.762   2.397   5.945 -0.0209  0.2578  0.1935
  373MOL0     C50230   5.657   2.394   6.053  0.3913 -0.5453  0.0455
  373MOL0     C50231   5.683   2.293   6.165  0.8338 -0.2404 -0.2830
  373MOL0     C50232   5.590   2.332   6.290  0.3909 -0.0351  1.0169
  373MOL0     C50233   5.603   2.223   6.404 -1.2802  0.2525 -0.9288
  373MOL0     C50234   5.521   2.235   6.526  1.2241 -0.3702 -0.1077
  373MOL0     C50235   5.536   2.370   6.601  0.1146  1.1354  0.1721
  373MOL0     C50236   5.659   2.380   6.702 -0.2376 -0.4271 -0.6915
  373MOL0     N50237   5.708   2.517   6.706  1.0698 -0.9506  0.0648
  373MOL0     C50238   5.659   2.620   6.781  0.2519 -0.1251 -0.6726
  373MOL0     C50239   5.717   2.733   6.740 -0.6632  0.5257 -0.4709
  373MOL0     C50240   5.700   2.871   6.792 -0.1664  0.2256  0.1434
  373MOL0     C50241   5.764   2.891   6.924 -1.1382 -0.2828  0.5746
  373MOL0     C50242   5.717   3.016   7.002  0.9449  0.4953 -0.1213
  373MOL0     C50243   5.742   3.022   7.158 -0.3069  0.9809 -0.9361
  373MOL0     O50244   5.641   3.100   7.234 -0.0724 -0.2030  0.7999
  373MOL0     C50245   5.628   3.236   7.204 -0.6015  0.6634  0.0381
  373MOL0     C50246   5.525   3.293   7.266  0.5965 -0.3226  0.6915
  373MOL0     C50247   5.490   3.428   7.254  0.0849 -1.3067 -0.1383
  373MOL0     C50248   5.363   3.477   7.323 -1.1998 -0.1922  0.5468
  373MOL0     C50249   5.582   3.512   7.184  0.4635  0.6347  0.4605
  373MOL0     C50250   5.559   3.653   7.159 -0.3687 -0.6333 -0.7721
  373MOL0     O50251   5.643   3.718   7.075 -0.3474  0.0821  0.3050
  373MOL0     C50252   5.608   3.835   7.006 -0.0287  0.2258  0.9549
  373MOL0     C50253   5.715   3.913   6.977 -0.0119 -0.4271  0.0336
  373MOL0     C50254   5.692   4.035   6.911  0.3442  0.8109 -0.2378
  373MOL0     C50255   5.564   4.057   6.872  0.9291 -0.0532 -0.0310
  373MOL0     O50256   5.529   4.177   6.808  0.7960  0.1902  0.3124
  373MOL0     C50257   5.447   4.165   6.697 -0.3105  0.3334 -0.5338
  373MOL0     C50258   5.451   4.287   6.625  0.4411  0.1842 -0.7995
  373MOL0     C50259   5.345   4.307   6.511  0.5660  0.3641 -0.0064
  373MOL0     C50260   5.297   4.443   6.488 -0.0795 -0.2324 -0.5443
  373MOL0     C50261   5.415   4.519   6.420  0.3381  0.8440  0.1419
  373MOL0     C50262   5.422   4.491   6.274 -0.9259  0.6933 -0.8011
  373MOL0     C50263   5.540   4.568   6.216 -0.3998 -0.2599  0.8985
  373MOL0     C50264   5.564   4.541   6.067  0.0316 -0.1318 -1.2435
  373MOL0    Cl50265   5.465   4.649   5.972  0.0012 -0.3986 -0.5339
  373MOL0     C50266   5.460   3.961   6.885 -0.0568  0.8030  1.2550
  373MOL0     C50267   5.481   3.844   6.954 -0.0986 -0.3653 -0.4598
  373MOL0     O50268   5.482   3.712   7.236 -0.4866  0.5446  0.2045
  373MOL0     C50269   5.697   3.455   7.127  0.0447  0.1015 -0.3128
  373MOL0     C50270   5.711   3.315   7.140 -1.7389 -0.6323 -0.2156
  373MOL0     N50271   5.803   2.695   6.640 -0.1004  0.5525  0.1076
  373MOL0     N50272   5.797   2.572   6.618 -0.6795  0.2875  0.3216
  373MOL0     C50273   5.858   2.677   5.718  0.7779  0.5135  0.2218
  373MOL0     C50274   5.964   2.706   5.633 -1.4457 -0.1418 -0.2250
  373MOL0     C50275   6.384   2.780   5.498  0.0237  0.4235  0.3354
  373MOL0     C50276   6.441   2.899   5.456  0.1379  0.3309  0.7675
  373MOL0     C50277   6.572   2.906   5.396 -0.1259  0.5813 -0.2131
  373MOL0     C50278   6.639   2.783   5.361  0.0742  0.3088  0.1774
  373MOL0     O50279   6.750   2.797   5.282  0.1901  0.4545  0.1801
  373MOL0     C50280   6.822   2.680   5.248 -0.1546 -0.6108 -0.3568
  373MOL0     C50281   6.968   2.704   5.211  0.0315 -0.3141 -0.5620
  373MOL0     C50282   7.063   2.766   5.319  0.4067 -1.1258 -0.1903
  373MOL0     C50283   7.086   2.668   5.433 -0.2360  0.2146  0.3234
  373MOL0     C50284   6.990   2.694   5.540  0.6680  0.0886  0.7792
  373MOL0     C50285   6.902   2.719   5.622  0.1900  0.3651 -0.5295
  373MOL0     C50286   6.587   2.666   5.417 -0.2053 -1.1164  1.3040
  373MOL0     C50287   6.461   2.665   5.469  1.2524  0.5468 -0.7782
  373MOL0     H50288   6.098   2.390   5.616  0.6027 -0.2881  2.1532
  373MOL0     H50289   5.891   2.336   5.716 -3.0309  0.3039 -4.2609
  373MOL0     H50290   5.773   2.301   5.893  0.7797  0.4575 -0.0182
  373MOL0     H50291   5.860   2.422   5.987  0.9358  0.4957 -2.0447
  373MOL0     H50292   5.647   2.492   6.100  0.3360 -1.8393  2.9507
  373MOL0     H50293   5.560   2.371   6.009  0.5543  0.4389 -0.8634
  373MOL0     H50294   5.647   2.198   6.124  0.1590 -0.8863  1.6639
  373MOL0     H50295   5.791   2.288   6.182  0.8120 -0.2989 -0.1585
  373MOL0     H50296   5.612   2.432   6.330 -0.7539  0.4357  0.5130
  373MOL0     H50297   5.489   2.329   6.249  1.2631 -3.1361 -1.3007
  373MOL0     H50298   5.579   2.126   6.358  1.3001 -0.1834 -1.5168
  373MOL0     H50299   5.707   2.222   6.436 -1.6058  1.4775  0.2257
  373MOL0     H50300   5.415   2.234   6.497  1.4539  0.5643 -1.0310
  373MOL0     H50301   5.534   2.145   6.586 -0.9574 -0.9501 -0.3911
  373MOL0     H50302   5.548   2.448   6.525 -1.0203 -0.8711 -2.2108
  373MOL0     H50303   5.440   2.399   6.646 -1.1331 -1.5695 -0.5751
  373MOL0     H50304   5.736   2.307   6.676  0.3304  0.0003 -0.2578
  373MOL0     H50305   5.633   2.357   6.806 -0.4367  1.8806 -0.1894
  373MOL0     H50306   5.588   2.602   6.861 -1.8276 -0.4573 -2.4988
  373MOL0     H50307   5.732   2.943   6.716  2.5417 -1.3853 -0.3871
  373MOL0     H50308   5.592   2.868   6.811 -0.1820 -2.6630  0.1164
  373MOL0     H50309   5.873   2.899   6.917 -1.2895  0.8406 -1.2593
  373MOL0     H50310   5.752   2.802   6.986 -2.4127 -0.5524 -0.0282
  373MOL0     H50311   5.609   3.007   6.994  0.9959 -1.2943  0.8808
  373MOL0     H50312   5.735   3.116   6.960 -2.9283  2.4399  2.3087
  373MOL0     H50313   5.844   3.057   7.177  0.6777 -1.3245 -1.6040
  373MOL0     H50314   5.737   2.921   7.197 -2.2258  2.8643  4.5743
  373MOL0     H50315   5.455   3.235   7.325 -1.9230  0.1438 -1.6289
  373MOL0     H50316   5.286   3.507   7.251  1.5834 -0.5902 -2.8517
  373MOL0     H50317   5.307   3.412   7.391 -0.6596 -0.8850  0.3348
  373MOL0     H50318   5.395   3.569   7.374 -0.6483 -0.1101  0.0593
  373MOL0     H50319   5.811   3.899   7.025 -0.1013  4.3904  2.1996
  373MOL0     H50320   5.775   4.105   6.913  0.2598  0.9316  1.9316
  373MOL0     H50321   5.477   4.083   6.631 -2.2711 -1.2337  0.4193
  373MOL0     H50322   5.345   4.158   6.735  1.0849 -1.6986  3.4338
  373MOL0     H50323   5.447   4.372   6.693  0.9450 -0.1227 -0.3800
  373MOL0     H50324   5.550   4.302   6.581 -0.3927 -0.7885 -3.1620
  373MOL0     H50325   5.253   4.266   6.554 -0.6637 -0.0122 -2.8045
  373MOL0     H50326   5.368   4.248   6.421 -1.2849 -1.8228  0.8560
  373MOL0     H50327   5.198   4.447   6.441 -0.4666  2.2506  0.3225
  373MOL0     H50328   5.294   4.483   6.590 -1.8871 -0.4192 -0.4816
  373MOL0     H50329   5.517   4.498   6.453  0.5353 -0.2560 -1.0629
  373MOL0     H50330   5.385   4.622   6.444  0.6013  1.7493 -2.9494
  373MOL0     H50331   5.440   4.384   6.259 -0.1947  0.8979 -1.4275
  373MOL0     H50332   5.331   4.521   6.221 -0.9384 -2.6410 -3.0204
  373MOL0     H50333   5.633   4.551   6.271  2.1753 -1.2041 -3.3219
  373MOL0     H50334   5.513   4.672   6.235  1.7255  0.3988  0.5872
  373MOL0     H50335   5.533   4.437   6.060 -2.9089  0.6120 -0.8282
  373MOL0     H50336   5.661   4.566   6.023 -0.9095  0.8133 -2.9315
  373MOL0     H50337   5.357   3.976   6.855 -0.6331  1.5776  3.4050
  373MOL0     H50338   5.400   3.776   6.977 -0.8719  0.9582  0.8631
  373MOL0     H50339   5.762   3.507   7.057 -0.8644 -0.9187 -2.0084
  373MOL0     H50340   5.797   3.263   7.099 -0.8022  1.5959 -1.2617
  373MOL0     H50341   5.787   2.753   5.749  1.1214 -0.3087  3.3894
  373MOL0     H50342   5.973   2.813   5.615 -0.2246 -0.2978 -0.6015
  373MOL0     H50343   6.390   2.995   5.462  1.0622  0.9980 -1.0884
  373MOL0     H50344   6.607   2.996   5.347  1.3747 -0.2853 -0.7681
  373MOL0     H50345   6.830   2.606   5.328  1.7043 -1.0017 -0.8563
  373MOL0     H50346   6.779   2.635   5.159 -1.0452  0.8450 -0.6928
  373MOL0     H50347   6.960   2.771   5.126  0.6376 -2.0067 -2.0198
  373MOL0     H50348   7.020   2.622   5.161  1.4052  1.2932 -1.8752
  373MOL0     H50349   7.040   2.869   5.348  1.3682 -0.1114 -2.7004
  373MOL0     H50350   7.160   2.775   5.269 -1.9980  0.9541 -5.1904
  373MOL0     H50351   7.186   2.665   5.476  0.0406  2.5234  0.0062
  373MOL0     H50352   7.072   2.568   5.391  0.2054  2.0661 -5.0211
  373MOL0     H50353   6.817   2.744   5.682  0.4197 -3.2598  1.6125
  373MOL0     H50354   6.634   2.570   5.398  2.1784  0.5141 -2.0316
  373MOL0     H50355   6.421   2.566   5.488 -3.2713  1.5803 -3.4021
  374MOL0     O50356   7.090   1.682   7.853 -0.4498  0.0923  0.3148
  374MOL0     C50357   7.209   1.650   7.851 -0.5683 -0.4535 -0.0924
  374MOL0     O50358   7.272   1.550   7.780 -0.1158 -0.0590 -0.0849
  374MOL0     C50359   7.198   1.461   7.696 -1.0950  0.0660 -1.3074
  374MOL0     C50360   7.085   1.397   7.731 -0.7659 -0.9840 -0.0145
  374MOL0     C50361   7.026   1.311   7.640  0.3939  0.3459  1.1611
  374MOL0     C50362   7.086   1.280   7.521 -0.0455  0.1998  0.0917
  374MOL0     O50363   7.026   1.181   7.451 -0.0431 -0.2414  0.9472
  374MOL0     C50364   7.081   1.122   7.325 -0.0970 -0.7045 -0.9738
  374MOL0     C50365   6.965   1.048   7.263  1.1379  0.0459 -0.6827
  374MOL0     C50366   6.986   0.984   7.126 -0.5162 -0.5643  0.9833
  374MOL0     C50367   6.867   0.984   7.034 -0.1392  0.0590  0.5372
  374MOL0     C50368   6.902   0.914   6.902  0.0702  0.0617 -0.2462
  374MOL0     C50369   6.783   0.900   6.811 -0.9504  0.2736 -0.1087
  374MOL0     C50370   6.830   0.897   6.665 -0.3014  0.7671 -0.4424
  374MOL0     C50371   6.713   0.872   6.572  0.8745 -0.4422  0.4026
  374MOL0     N50372   6.660   1.001   6.524  0.0237  0.0513 -0.2373
  374MOL0     C50373   6.575   1.074   6.608  0.1349 -0.0820  0.0140
  374MOL0     C50374   6.560   1.197   6.551  0.6828  1.0643 -1.4045
  374MOL0     C50375   6.470   1.307   6.613 -0.0687  0.0501  0.5280
  374MOL0     C50376   6.543   1.438   6.606  0.5124  0.1113  0.7232
  374MOL0     C50377   6.499   1.533   6.721 -0.4769  0.5221  0.9559
  374MOL0     C50378   6.530   1.481   6.863 -0.3273 -0.1919  0.5431
  374MOL0     O50379   6.488   1.577   6.955 -0.3607  0.8284  0.0470
  374MOL0     C50380   6.352   1.598   6.978 -0.3307  0.1439  0.0326
  374MOL0     C50381   6.259   1.502   6.991  0.9459  0.8766 -0.7452
  374MOL0     C50382   6.116   1.533   7.013 -0.5191 -0.9727 -0.6355
  374MOL0     C50383   6.021   1.418   7.023  0.4078 -0.1044  0.7414
  374MOL0     C50384   6.081   1.667   7.037 -0.1041  0.2797 -0.3918
  374MOL0     C50385   5.946   1.721   7.087 -1.2808 -0.5558  0.1537
  374MOL0     O50386   5.921   1.861   7.090 -0.1916 -0.0709 -0.6311
  374MOL0     C50387   5.799   1.900   7.131  0.2427  0.5572  0.1179
  374MOL0     C50388   5.741   1.869   7.254 -0.2116  0.7313 -0.3946
  374MOL0     C50389   5.614   1.916   7.297  0.1157 -0.4720  0.0142
  374MOL0     C50390   5.543   2.003   7.209 -0.1997  0.1698  0.2634
  374MOL0     O50391   5.419   2.061   7.230 -0.4883 -0.2784 -0.1382
  374MOL0     C50392   5.311   1.970   7.234  0.2425 -0.0644 -0.2568
  374MOL0     C50393   5.190   2.037   7.265  0.4145 -0.7639 -1.1059
  374MOL0     C50394   5.197   2.069   7.424  0.3545  0.8101 -0.4925
  374MOL0     C50395   5.150   1.948   7.503 -0.1853  0.5846 -0.0170
  374MOL0     C50396   5.181   1.974   7.654 -0.0651 -0.2669 -0.4380
  374MOL0     C50397   5.087   2.073   7.725  0.2593  0.3733  0.3756
  374MOL0     C50398   5.117   2.057   7.868  0.0865  0.2816 -0.3924
  374MOL0     C50399   5.074   2.174   7.963  0.2566 -1.1473  0.9004
  374MOL0    Cl50400   4.899   2.191   7.960  0.2198  0.6262  0.1342
  374MOL0     C50401   5.604   2.037   7.084 -0.1565 -0.0504 -0.7673
  374MOL0     C50402   5.723   1.980   7.046 -0.6547  0.0067  0.1373
  374MOL0     O50403   5.873   1.637   7.135  0.6187 -0.2551  0.1490
  374MOL0     C50404   6.181   1.764   7.008  0.1373  0.5306  0.2253
  374MOL0     C50405   6.309   1.727   6.973  0.1968 -0.8615  0.5781
  374MOL0     N50406   6.619   1.191   6.428  0.0199 -0.1591  0.5949
  374MOL0     N50407   6.703   1.080   6.419  0.1681 -0.7157 -1.1037
  374MOL0     C50408   7.199   1.343   7.489 -0.8710 -0.4583  0.3376
  374MOL0     C50409   7.262   1.428   7.579  0.4086  1.2420  0.2760
  374MOL0     C50410   7.300   1.721   7.950  0.4262  0.2332  0.9704
  374MOL0     C50411   7.415   1.652   7.992  0.6547  0.6217 -0.1924
  374MOL0     C50412   7.497   1.723   8.076  0.8632 -0.5527 -0.1196
  374MOL0     C50413   7.470   1.851   8.128 -0.8518 -0.3036 -1.2565
  374MOL0     O50414   7.553   1.922   8.216 -0.1395 -0.3148  0.0053
  374MOL0     C50415   7.691   1.879   8.257  0.1390 -0.1205  1.1071
  374MOL0     C50416   7.793   1.988   8.204 -0.2636  0.2922  0.2662
  374MOL0     C50417   7.802   1.972   8.051  0.3097 -0.0751  0.0544
  374MOL0     C50418   7.930   2.025   7.996 -0.9601 -1.1691 -0.3684
  374MOL0     C50419   7.950   2.035   7.848 -0.0467  0.3181 -0.1741
  374MOL0     C50420   7.966   2.042   7.727  1.0780 -1.1077 -0.2828
  374MOL0     C50421   7.350   1.913   8.087  0.3034 -1.0657  0.3150
  374MOL0     C50422   7.269   1.849   7.998  0.7924  0.4334 -0.3144
  374MOL0     H50423   7.043   1.432   7.825  0.9513 -0.2666  0.5115
  374MOL0     H50424   6.931   1.261   7.658  1.3690 -1.3296  1.8092
  374MOL0     H50425   7.124   1.200   7.262 -1.2351 -0.1090 -1.0488
  374MOL0     H50426   7.160   1.048   7.339  1.6521  0.6303 -3.0901
  374MOL0     H50427   6.931   0.969   7.331  0.0461  1.7068  0.7897
  374MOL0     H50428   6.887   1.123   7.250 -0.0636 -0.9758  0.4763
  374MOL0     H50429   7.054   1.051   7.072 -0.7182 -0.8445  0.3753
  374MOL0     H50430   7.022   0.882   7.137 -1.7804 -0.9062  2.2619
  374MOL0     H50431   6.794   0.924   7.089  1.4743 -1.9200  0.6470
  374MOL0     H50432   6.829   1.087   7.025 -2.1784 -0.1359  4.4727
  374MOL0     H50433   6.982   0.971   6.854 -0.1887  1.0564  0.4634
  374MOL0     H50434   6.941   0.817   6.932  1.2643  0.4578 -0.4523
  374MOL0     H50435   6.734   0.804   6.830 -1.3682  0.5912  0.4160
  374MOL0     H50436   6.711   0.979   6.833 -3.3170 -2.0457  1.0646
  374MOL0     H50437   6.877   0.993   6.643  1.3349 -0.5812 -3.3315
  374MOL0     H50438   6.910   0.823   6.673  0.5170  1.8101  3.2342
  374MOL0     H50439   6.639   0.808   6.620  0.1723 -1.2015 -1.5542
  374MOL0     H50440   6.743   0.823   6.478 -1.5957  0.6651 -1.0766
  374MOL0     H50441   6.548   1.027   6.702  1.0806 -2.2402 -0.7365
  374MOL0     H50442   6.379   1.315   6.553  1.6443  2.2592 -2.0124
  374MOL0     H50443   6.448   1.274   6.715  1.6478 -0.1461  0.8543
  374MOL0     H50444   6.536   1.482   6.506 -0.8624 -1.6200 -0.0031
  374MOL0     H50445   6.650   1.419   6.614  0.4862 -1.2921 -1.4674
  374MOL0     H50446   6.391   1.533   6.709 -0.5205  0.5565  1.3341
  374MOL0     H50447   6.529   1.638   6.712 -2.2660  0.9317 -0.9263
  374MOL0     H50448   6.637   1.459   6.869 -0.7771 -3.4277 -1.1763
  374MOL0     H50449   6.482   1.385   6.889 -1.6077  0.4766  0.7286
  374MOL0     H50450   6.284   1.398   6.978  2.8937  1.2798 -0.5924
  374MOL0     H50451   6.066   1.331   6.974 -0.2348  0.4629 -0.9347
  374MOL0     H50452   6.008   1.386   7.126  1.9872 -1.9462  0.4193
  374MOL0     H50453   5.921   1.427   6.981  0.0656  2.4124  1.9079
  374MOL0     H50454   5.792   1.793   7.312 -0.5232  2.3795  2.1987
  374MOL0     H50455   5.588   1.885   7.398  0.2529  0.0166  0.2057
  374MOL0     H50456   5.297   1.913   7.142  1.5820  0.0474 -0.5341
  374MOL0     H50457   5.342   1.903   7.315 -0.1006  0.7558  0.5809
  374MOL0     H50458   5.193   2.125   7.201  0.5848 -2.7769 -4.0454
  374MOL0     H50459   5.096   1.987   7.239 -0.1792 -0.9015  1.0871
  374MOL0     H50460   5.125   2.147   7.451  1.0394  0.7851  1.5782
  374MOL0     H50461   5.294   2.097   7.466 -0.5896  2.4632  0.7243
  374MOL0     H50462   5.044   1.928   7.485  0.0438  0.3383 -1.1598
  374MOL0     H50463   5.204   1.857   7.478  1.0245  0.5378  2.4424
  374MOL0     H50464   5.284   2.011   7.657 -0.0134 -0.2595 -1.7570
  374MOL0     H50465   5.167   1.872   7.690  0.9553  0.2316  1.4661
  374MOL0     H50466   5.111   2.176   7.697  2.8126 -0.3830 -0.5386
  374MOL0     H50467   4.982   2.048   7.712 -0.0329 -0.3934  3.4624
  374MOL0     H50468   5.227   2.057   7.871  0.2003 -1.2551 -2.2395
  374MOL0     H50469   5.078   1.963   7.907  0.1495 -1.0675 -3.2719
  374MOL0     H50470   5.115   2.274   7.944 -0.8572  0.1090  4.3373
  374MOL0     H50471   5.102   2.137   8.062  0.9823  0.8231  1.4838
  374MOL0     H50472   5.553   2.105   7.016 -0.2497 -0.6483 -1.3099
  374MOL0     H50473   5.773   2.004   6.953  0.8766 -1.3490  0.5543
  374MOL0     H50474   6.177   1.871   7.020 -1.4588  0.3428  1.6894
  374MOL0     H50475   6.390   1.799   6.960  0.7721 -1.8261 -1.4567
  374MOL0     H50476   7.245   1.305   7.398  0.7125  0.6370  0.6366
  374MOL0     H50477   7.350   1.481   7.544  1.2847  0.9798  2.0004
  374MOL0     H50478   7.440   1.556   7.947  0.7023 -0.3149  1.7365
  374MOL0     H50479   7.588   1.675   8.111  2.2348  1.5279 -0.6223
  374MOL0     H50480   7.701   1.874   8.366 -1.7038  1.2088  1.3774
  374MOL0     H50481   7.726   1.780   8.226 -0.3901 -0.2790  1.0063
  374MOL0     H50482   7.886   1.990   8.262 -3.0148  1.0789  5.3076
  374MOL0     H50483   7.745   2.082   8.236  0.3599  1.3962 -1.8612
  374MOL0     H50484   7.722   2.032   8.006 -1.8648 -2.5081  0.4470
  374MOL0     H50485   7.783   1.871   8.014  2.5533  0.1348 -1.9086
  374MOL0     H50486   8.014   1.965   8.031  1.7523  2.6465  0.2897
  374MOL0     H50487   7.941   2.126   8.038 -1.1850 -1.7601  1.2070
  374MOL0     H50488   7.969   2.023   7.622 -1.1576 -0.1019 -0.5698
  374MOL0     H50489   7.336   2.011   8.131  0.5251 -0.4816 -0.8633
  374MOL0     H50490   7.176   1.898   7.973 -2.4325 -4.5492  0.5534
  375MOL0     O50491   1.690   8.654   0.701  0.9814 -0.4958 -0.7854
  375MOL0     C50492   1.708   8.748   0.626  0.3067 -0.1497 -0.4130
  375MOL0     O50493   1.828   8.804   0.595 -0.0140 -0.9218 -0.2625
  375MOL0     C50494   1.950   8.748   0.638 -0.1720  0.1669  1.0826
  375MOL0     C50495   2.018   8.660   0.551  0.6527 -0.5482 -0.4529
  375MOL0     C50496   2.132   8.599   0.591  0.1198  0.5885 -0.1767
  375MOL0     C50497   2.178   8.610   0.719 -0.5248  0.2341  0.0243
  375MOL0     O50498   2.292   8.545   0.766  0.1607  0.4722 -0.1213
  375MOL0     C50499   2.419   8.552   0.698 -0.2997 -0.7581  0.3153
  375MOL0     C50500   2.514   8.492   0.785 -0.1683 -0.1943  0.5617
  375MOL0     C50501   2.653   8.526   0.745  0.1511  0.2020  0.1448
  375MOL0     C50502   2.757   8.494   0.850  1.2142  0.3727  0.2761
  375MOL0     C50503   2.875   8.435   0.774  1.1215  0.1568 -0.2693
  375MOL0     C50504   2.977   8.397   0.875  0.5071 -1.1002  0.5185
  375MOL0     C50505   3.066   8.282   0.839 -0.1435  0.5845 -0.1460
  375MOL0     C50506   3.165   8.254   0.949 -0.6307  0.0773  0.0391
  375MOL0     N50507   3.267   8.159   0.908 -0.0858  0.6570 -0.0776
  375MOL0     C50508   3.241   8.017   0.906 -0.3860  0.6638  0.1810
  375MOL0     C50509   3.360   7.956   0.927 -0.3081  0.9134  0.5689
  375MOL0     C50510   3.378   7.799   0.940 -0.8919 -0.5665  0.6934
  375MOL0     C50511   3.356   7.734   0.807 -0.5600  0.4845 -0.0163
  375MOL0     C50512   3.422   7.589   0.805  0.4930 -0.0618  0.4511
  375MOL0     C50513   3.385   7.494   0.924 -0.4171 -0.0556 -0.3499
  375MOL0     O50514   3.431   7.531   1.054 -1.0737 -0.9898  0.0366
  375MOL0     C50515   3.351   7.526   1.161  0.7404 -0.3866  0.5704
  375MOL0     C50516   3.246   7.428   1.170 -0.0225 -0.5227  0.0135
  375MOL0     C50517   3.156   7.424   1.287  0.5546  0.2206  0.6897
  375MOL0     C50518   3.049   7.310   1.290 -0.3801 -0.6520  0.3928
  375MOL0     C50519   3.174   7.517   1.389 -0.2476 -0.0754 -0.4439
  375MOL0     C50520   3.092   7.521   1.509  0.2681  0.2956 -0.6666
  375MOL0     O50521   3.052   7.403   1.550 -0.3269  0.3506  0.2733
  375MOL0     C50522   2.952   7.378   1.643 -0.0648 -0.1124  0.9190
  375MOL0     C50523   2.995   7.321   1.761 -0.7814  0.1034 -1.4109
  375MOL0     C50524   2.911   7.309   1.872  0.6463 -0.1042 -0.6267
  375MOL0     C50525   2.776   7.349   1.861 -0.2494  0.2177 -0.5648
  375MOL0     O50526   2.677   7.325   1.959 -0.1481 -0.5267  0.2688
  375MOL0     C50527   2.711   7.356   2.085  0.1453  0.7335 -0.6727
  375MOL0     C50528   2.605   7.335   2.189  0.3149  0.0330  0.1144
  375MOL0     C50529   2.547   7.197   2.210 -0.5140 -0.2185 -0.9483
  375MOL0     C50530   2.630   7.118   2.312  0.1869  0.1633  1.0249
  375MOL0     C50531   2.578   6.980   2.358  0.8201  0.4359  0.3632
  375MOL0     C50532   2.668   6.941   2.473 -0.4662 -0.2909  0.5176
  375MOL0     C50533   2.669   6.793   2.506  0.4729 -0.6510 -0.6350
  375MOL0     C50534   2.795   6.746   2.576 -0.0979  0.5860 -1.7740
  375MOL0    Cl50535   2.951   6.762   2.489 -0.0981 -0.4882  0.0020
  375MOL0     C50536   2.734   7.402   1.739  0.4864  0.0840  0.6119
  375MOL0     C50537   2.821   7.425   1.627  0.7183  0.0353 -0.4710
  375MOL0     O50538   3.058   7.629   1.556 -0.3657 -0.5264 -1.0695
  375MOL0     C50539   3.267   7.621   1.366  0.0303 -0.0115 -1.0588
  375MOL0     C50540   3.357   7.623   1.262  0.0476  0.0093  0.3010
  375MOL0     N50541   3.448   8.053   0.940 -0.0644 -0.1747 -0.2392
  375MOL0     N50542   3.396   8.175   0.925 -1.1580 -0.3010  0.1455
  375MOL0     C50543   2.117   8.698   0.811 -0.0453  0.1720  0.2525
  375MOL0     C50544   2.004   8.772   0.768  0.0387 -0.2305  0.2862
  375MOL0     C50545   1.587   8.789   0.539 -0.9940  0.4864 -0.1210
  375MOL0     C50546   1.463   8.743   0.566 -0.2852 -0.5780 -0.3176
  375MOL0     C50547   1.357   8.783   0.480 -0.7598  0.5616  0.0188
  375MOL0     C50548   1.377   8.853   0.368  0.1538  0.0503 -0.7013
  375MOL0     O50549   1.278   8.884   0.279 -0.6122  0.5804 -0.0523
  375MOL0     C50550   1.290   9.021   0.227  0.6997  0.1430 -0.7715
  375MOL0     C50551   1.147   9.083   0.217  0.0757  1.0247 -0.5900
  375MOL0     C50552   1.049   9.054   0.327 -0.9288 -0.3492 -0.0487
  375MOL0     C50553   1.052   9.149   0.442  0.0130 -0.2168  0.2664
  375MOL0     C50554   0.953   9.114   0.541  0.2060  0.5114 -0.6188
  375MOL0     C50555   0.866   9.070   0.614 -0.8855 -0.0014  0.0812
  375MOL0     C50556   1.506   8.893   0.343  1.1402 -0.4160  0.1473
  375MOL0     C50557   1.603   8.864   0.427 -0.9986 -0.0349 -0.9887
  375MOL0     H50558   1.988   8.619   0.455 -1.4325 -0.7486  0.2384
  375MOL0     H50559   2.179   8.521   0.531 -1.8828  0.3946 -1.5914
  375MOL0     H50560   2.426   8.499   0.603  2.1325 -5.4390  2.7498
  375MOL0     H50561   2.451   8.656   0.686  1.4234 -1.3184 -0.3120
  375MOL0     H50562   2.491   8.524   0.887 -1.2633 -1.4209  0.7140
  375MOL0     H50563   2.500   8.384   0.788  0.7520 -0.3082  2.3923
  375MOL0     H50564   2.663   8.473   0.650 -3.4226  1.0798 -0.9030
  375MOL0     H50565   2.679   8.625   0.707 -0.9857 -0.7603 -3.6548
  375MOL0     H50566   2.771   8.588   0.905  0.9550  0.4040  0.2905
  375MOL0     H50567   2.736   8.415   0.922  2.8810 -1.0716 -0.7239
  375MOL0     H50568   2.827   8.347   0.729 -1.0402  0.0193  2.1044
  375MOL0     H50569   2.912   8.505   0.698  0.1164  0.6795 -0.2911
  375MOL0     H50570   3.045   8.481   0.891  1.0974 -1.4100 -0.3025
  375MOL0     H50571   2.933   8.379   0.974  0.0829 -0.5244  0.4355
  375MOL0     H50572   2.985   8.209   0.840  0.5829 -0.2953 -1.6039
  375MOL0     H50573   3.111   8.303   0.741 -0.4969  2.8252  0.1105
  375MOL0     H50574   3.114   8.222   1.041 -2.2428 -0.4274 -0.9871
  375MOL0     H50575   3.213   8.350   0.972  0.5012 -0.8412  1.6696
  375MOL0     H50576   3.145   7.968   0.895  0.9548 -2.3666  0.9453
  375MOL0     H50577   3.477   7.775   0.980  1.1320 -1.0710 -3.9966
  375MOL0     H50578   3.308   7.762   1.015 -1.6258 -1.5432 -0.4279
  375MOL0     H50579   3.413   7.797   0.738 -1.0438  0.3947 -0.5012
  375MOL0     H50580   3.250   7.716   0.787 -0.3058 -2.0748  0.5716
  375MOL0     H50581   3.530   7.601   0.800  0.4201 -0.0488 -2.0384
  375MOL0     H50582   3.391   7.540   0.713  1.2003 -0.3359  0.3553
  375MOL0     H50583   3.404   7.388   0.903  1.8192 -0.3423  2.5097
  375MOL0     H50584   3.276   7.503   0.919 -0.2379  2.1966 -1.4391
  375MOL0     H50585   3.248   7.351   1.095 -2.9042  0.5148 -1.2516
  375MOL0     H50586   3.063   7.230   1.362 -0.2632 -1.5878 -0.6432
  375MOL0     H50587   2.952   7.362   1.296 -0.1838 -0.0474 -1.1654
  375MOL0     H50588   3.056   7.259   1.193  2.1101  0.8875 -0.3254
  375MOL0     H50589   3.097   7.286   1.771 -0.9240  0.3093  2.0975
  375MOL0     H50590   2.950   7.255   1.958  0.7149  2.3011  0.9452
  375MOL0     H50591   2.803   7.303   2.113  1.0869  2.2976 -0.6684
  375MOL0     H50592   2.741   7.461   2.084  1.1680  0.5286  1.7569
  375MOL0     H50593   2.634   7.366   2.290 -0.5729 -2.3832  1.1922
  375MOL0     H50594   2.519   7.395   2.158  0.4114  0.7242  1.1212
  375MOL0     H50595   2.563   7.136   2.121  1.0094 -1.3861  0.0664
  375MOL0     H50596   2.447   7.218   2.249  0.6089  3.3692  0.4825
  375MOL0     H50597   2.722   7.105   2.256  0.1216  0.7119  0.7859
  375MOL0     H50598   2.654   7.170   2.405  0.3947 -0.8418  1.5531
  375MOL0     H50599   2.582   6.901   2.283  2.1307  0.3131  0.5316
  375MOL0     H50600   2.474   6.997   2.388 -0.8851  0.6240 -4.6964
  375MOL0     H50601   2.771   6.967   2.446  0.9194 -3.2366  2.3813
  375MOL0     H50602   2.642   7.007   2.556 -0.7188  0.2230  0.0351
  375MOL0     H50603   2.659   6.724   2.422 -0.3444 -1.3962  0.0607
  375MOL0     H50604   2.587   6.777   2.577  0.1227  2.1817 -0.2735
  375MOL0     H50605   2.772   6.643   2.604 -0.6937  1.4851  1.3562
  375MOL0     H50606   2.797   6.810   2.665 -0.0868  1.6400 -2.5048
  375MOL0     H50607   2.627   7.410   1.722  0.4315 -1.8355 -0.2173
  375MOL0     H50608   2.798   7.468   1.531  2.0741 -2.9681 -2.2936
  375MOL0     H50609   3.289   7.699   1.439  1.1006 -0.5390 -0.7999
  375MOL0     H50610   3.429   7.704   1.260 -1.5336  1.5097 -3.1019
  375MOL0     H50611   2.163   8.701   0.909  1.0403 -4.0514  0.0466
  375MOL0     H50612   1.954   8.844   0.830 -0.4331  1.2753 -1.7372
  375MOL0     H50613   1.444   8.674   0.648  0.6308  0.2157  0.5999
  375MOL0     H50614   1.257   8.742   0.492 -1.5280  1.0065 -3.7284
  375MOL0     H50615   1.340   9.085   0.301  0.1930  1.8903 -1.8613
  375MOL0     H50616   1.351   9.019   0.136  0.8569  0.2376 -0.6680
  375MOL0     H50617   1.108   9.032   0.128  4.1444  0.5243 -2.2795
  375MOL0     H50618   1.148   9.192   0.207 -0.2346  1.1072  0.2113
  375MOL0     H50619   1.074   8.956   0.367  1.5929  0.5269  0.7610
  375MOL0     H50620   0.948   9.060   0.286  0.0660  0.8869 -2.5272
  375MOL0     H50621   1.017   9.247   0.408  0.8048  0.2150  0.6747
  375MOL0     H50622   1.154   9.155   0.481  1.7043 -2.2257 -3.3381
  375MOL0     H50623   0.792   9.033   0.682  0.1636 -4.3306 -0.8326
  375MOL0     H50624   1.528   8.938   0.247  1.6483 -0.5910  0.1799
  375MOL0     H50625   1.695   8.906   0.386  0.3093 -3.0307 -1.3758
  376MOL0     O50626  10.296   9.778   2.771 -0.1390 -0.3944  0.2615
  376MOL0     C50627  10.369   9.833   2.681 -0.9141  0.9925  0.1317
  376MOL0     O50628  10.487   9.787   2.628  0.0304 -0.0922  0.8434
  376MOL0     C50629  10.553   9.676   2.684  0.3902  0.2825  0.5332
  376MOL0     C50630  10.660   9.625   2.612  0.0461 -0.3245 -0.0322
  376MOL0     C50631  10.734   9.516   2.646 -0.5222  0.2164  0.8440
  376MOL0     C50632  10.690   9.450   2.766  0.2691 -0.1534  0.1277
  376MOL0     O50633  10.748   9.329   2.803 -0.3740  0.3958  0.0435
  376MOL0     C50634  10.671   9.216   2.750  0.0357 -0.5706 -0.6714
  376MOL0     C50635  10.717   9.085   2.819 -0.1044 -0.7226 -0.4445
  376MOL0     C50636  10.665   8.970   2.735  0.4364  1.0452  0.4262
  376MOL0     C50637  10.716   8.827   2.763  0.1209  0.5856 -0.4706
  376MOL0     C50638  10.868   8.803   2.741  0.0692  0.2526  0.5401
  376MOL0     C50639  10.916   8.662   2.779 -0.4307 -0.9127 -0.5630
  376MOL0     C50640  11.055   8.657   2.721 -0.1262 -0.0423  0.0168
  376MOL0     C50641  11.125   8.527   2.764 -0.1512 -0.0682 -0.8542
  376MOL0     N50642  11.057   8.403   2.735 -0.1320  0.0822  0.3388
  376MOL0     C50643  10.973   8.336   2.817  0.4776  0.6335  0.8661
  376MOL0     C50644  10.921   8.230   2.740 -0.0002 -0.1633  0.1437
  376MOL0     C50645  10.836   8.115   2.779  0.5152 -0.0881  0.4039
  376MOL0     C50646  10.688   8.131   2.741  0.5522  0.4266 -0.4513
  376MOL0     C50647  10.619   8.257   2.812 -1.1768  0.7491  0.0252
  376MOL0     C50648  10.471   8.242   2.814  0.1379 -0.7568 -0.0932
  376MOL0     O50649  10.416   8.243   2.679  0.4720 -0.4432 -0.1995
  376MOL0     C50650  10.366   8.131   2.620  0.2843 -0.2824  0.2312
  376MOL0     C50651  10.393   8.112   2.487  0.5581  1.8296  0.3302
  376MOL0     C50652  10.363   7.986   2.434 -0.2245  0.2054  0.7623
  376MOL0     C50653  10.398   7.970   2.289 -0.5746  1.0629 -1.0128
  376MOL0     C50654  10.293   7.888   2.513 -0.3910 -1.4919 -0.2396
  376MOL0     C50655  10.262   7.749   2.476 -0.3256  0.3324  0.1617
  376MOL0     O50656  10.208   7.721   2.353 -0.2725 -0.1014 -0.2207
  376MOL0     C50657  10.228   7.584   2.310  0.9154 -0.5071 -0.2271
  376MOL0     C50658  10.351   7.530   2.273 -0.1365  0.6779 -0.2727
  376MOL0     C50659  10.368   7.393   2.262  0.7781 -0.9882 -0.2022
  376MOL0     C50660  10.263   7.301   2.267 -0.5896  0.4830  0.4299
  376MOL0     O50661  10.269   7.167   2.241  0.3084 -0.5271  0.5682
  376MOL0     C50662  10.392   7.083   2.233  0.3376 -0.2524 -0.5106
  376MOL0     C50663  10.357   6.938   2.205  0.0474 -1.0234  0.3853
  376MOL0     C50664  10.248   6.916   2.101 -0.7860  0.5957  0.2608
  376MOL0     C50665  10.255   6.778   2.041  0.1867 -1.1513 -0.3628
  376MOL0     C50666  10.143   6.745   1.939  0.2758  0.6398 -0.3781
  376MOL0     C50667  10.165   6.609   1.877 -0.2025  0.1347 -0.5479
  376MOL0     C50668  10.087   6.585   1.743  1.0564 -0.5971  0.0916
  376MOL0     C50669  10.155   6.488   1.649 -0.4095  0.8705  0.7749
  376MOL0    Cl50670  10.116   6.525   1.479  0.1998  0.1612 -0.0198
  376MOL0     C50671  10.139   7.354   2.296  0.9114  0.2021 -0.1146
  376MOL0     C50672  10.117   7.490   2.309 -0.0863 -0.0724  0.6984
  376MOL0     O50673  10.284   7.662   2.562  0.1034 -0.6518  0.0026
  376MOL0     C50674  10.247   7.927   2.642 -0.0893 -0.7573  1.2049
  376MOL0     C50675  10.287   8.044   2.696 -0.6172  0.7480 -0.0473
  376MOL0     N50676  10.977   8.244   2.610  0.4826 -0.1565 -0.0006
  376MOL0     N50677  11.046   8.347   2.607 -0.6637  0.3125 -1.1170
  376MOL0     C50678  10.587   9.496   2.848  0.2789 -0.1631  0.1660
  376MOL0     C50679  10.516   9.611   2.806 -0.2341 -0.2975 -0.6272
  376MOL0     C50680  10.328   9.963   2.617 -0.2304 -0.1949 -0.1383
  376MOL0     C50681  10.210  10.032   2.649 -0.1025  0.2474  0.7391
  376MOL0     C50682  10.173  10.155   2.595  0.4637 -0.2696  0.6186
  376MOL0     C50683  10.263  10.215   2.502  0.3574 -0.3631  0.2984
  376MOL0     O50684  10.233  10.343   2.464 -0.4436  0.2566 -0.0139
  376MOL0     C50685  10.337  10.435   2.479 -0.3938 -0.6851  0.0357
  376MOL0     C50686  10.329  10.492   2.613  1.4047 -0.0494 -0.2881
  376MOL0     C50687  10.429  10.612   2.630 -0.0988  0.7023 -0.1262
  376MOL0     C50688  10.454  10.656   2.771  0.3561 -0.2021  0.4108
  376MOL0     C50689  10.390  10.787   2.790 -0.2997  0.6951  1.0017
  376MOL0     C50690  10.339  10.895   2.779 -1.3343  0.4375 -0.2282
  376MOL0     C50691  10.380  10.142   2.466  0.8710  0.4191 -0.6529
  376MOL0     C50692  10.414  10.023   2.528  0.3669  0.5191  0.0465
  376MOL0     H50693  10.685   9.672   2.517  0.4475 -1.5208 -0.5344
  376MOL0     H50694  10.804   9.467   2.580 -0.1073 -0.5080  1.7989
  376MOL0     H50695  10.564   9.232   2.765  0.6286  1.6810  1.9856
  376MOL0     H50696  10.686   9.221   2.642 -0.7024  0.1794 -0.7467
  376MOL0     H50697  10.823   9.070   2.841 -0.5966  0.1488  3.1656
  376MOL0     H50698  10.676   9.078   2.920  0.6391 -2.1562 -0.2216
  376MOL0     H50699  10.557   8.959   2.740  0.1994  1.5637 -2.3154
  376MOL0     H50700  10.676   8.996   2.629 -0.3170  2.3610  0.6486
  376MOL0     H50701  10.686   8.806   2.867 -1.0052  2.5061 -0.3702
  376MOL0     H50702  10.663   8.763   2.692  1.4713  1.2622 -2.1698
  376MOL0     H50703  10.895   8.811   2.635 -4.2458 -1.6846 -0.9414
  376MOL0     H50704  10.927   8.875   2.798  3.0864 -0.7458 -1.1156
  376MOL0     H50705  10.920   8.666   2.888  1.0145  1.2589 -0.6514
  376MOL0     H50706  10.844   8.583   2.754 -1.5394 -0.5879  1.3814
  376MOL0     H50707  11.066   8.660   2.613 -0.8926  1.0508 -0.0414
  376MOL0     H50708  11.111   8.742   2.762  0.0899 -0.1379 -0.0767
  376MOL0     H50709  11.157   8.529   2.869  0.5611  0.0759 -1.0716
  376MOL0     H50710  11.211   8.529   2.697  1.4646 -1.0502  1.1054
  376MOL0     H50711  10.967   8.344   2.925 -1.1966 -4.6771  1.4696
  376MOL0     H50712  10.870   8.034   2.714 -0.1529  1.2474 -1.7101
  376MOL0     H50713  10.844   8.084   2.884 -1.0508  0.5737  0.7482
  376MOL0     H50714  10.646   8.037   2.777 -0.3332 -0.5633 -3.6930
  376MOL0     H50715  10.670   8.140   2.633 -1.8701 -0.5493 -0.1958
  376MOL0     H50716  10.655   8.340   2.751 -0.0311 -0.3240 -0.8063
  376MOL0     H50717  10.647   8.266   2.918  1.4064 -3.0987 -0.1046
  376MOL0     H50718  10.436   8.316   2.886  1.7543 -0.7768  0.7583
  376MOL0     H50719  10.452   8.146   2.864 -0.7554 -2.0600 -2.7440
  376MOL0     H50720  10.450   8.179   2.424 -1.4512  2.4332 -0.9360
  376MOL0     H50721  10.381   7.866   2.260 -2.5858 -0.8908  5.5102
  376MOL0     H50722  10.352   8.040   2.218  1.2180  0.7371 -2.5668
  376MOL0     H50723  10.505   7.990   2.283 -0.2280 -0.1194  0.6543
  376MOL0     H50724  10.435   7.599   2.279 -2.9321  4.2358  2.7551
  376MOL0     H50725  10.470   7.356   2.249  0.7063 -2.2883  2.2875
  376MOL0     H50726  10.453   7.121   2.150  1.5062 -1.0987 -0.0596
  376MOL0     H50727  10.446   7.093   2.327  0.3103  1.7740 -0.6623
  376MOL0     H50728  10.451   6.895   2.169 -0.0734  0.4397 -1.9412
  376MOL0     H50729  10.325   6.888   2.297 -0.6468 -0.3451  0.5225
  376MOL0     H50730  10.263   6.986   2.018 -0.1999 -1.4190 -1.4059
  376MOL0     H50731  10.152   6.935   2.150  0.0152 -0.5234  2.3783
  376MOL0     H50732  10.353   6.763   1.994 -0.3717  0.8575 -2.3734
  376MOL0     H50733  10.253   6.710   2.126 -2.4638  1.9117  2.2516
  376MOL0     H50734  10.139   6.816   1.856  0.7341  0.5101 -0.5103
  376MOL0     H50735  10.049   6.731   1.994 -0.9984 -0.1976 -2.6413
  376MOL0     H50736  10.273   6.607   1.858 -0.2767  2.0398 -1.3200
  376MOL0     H50737  10.150   6.531   1.952 -1.8644 -0.9315 -1.9151
  376MOL0     H50738  10.079   6.671   1.677 -0.1709 -0.5954  0.2227
  376MOL0     H50739   9.984   6.561   1.769 -0.3116  4.6313  0.5389
  376MOL0     H50740  10.126   6.385   1.670  0.6847 -0.0606 -1.9395
  376MOL0     H50741  10.264   6.491   1.652 -0.3827 -0.1451  1.3819
  376MOL0     H50742  10.050   7.291   2.300 -0.1101  1.0910 -4.1517
  376MOL0     H50743  10.021   7.527   2.342  0.7713  2.1192  0.9103
  376MOL0     H50744  10.189   7.858   2.703 -0.3031 -3.8403 -2.1179
  376MOL0     H50745  10.265   8.076   2.797 -0.6510  0.7081 -0.0420
  376MOL0     H50746  10.570   9.433   2.935  1.1513 -2.1780 -1.0576
  376MOL0     H50747  10.434   9.649   2.865  2.6516  5.6669  0.3191
  376MOL0     H50748  10.140   9.979   2.713 -2.7264  0.4773 -1.7848
  376MOL0     H50749  10.075  10.200   2.609  0.6390  1.0076 -1.8001
  376MOL0     H50750  10.437  10.394   2.468 -0.0068  0.6719 -2.0643
  376MOL0     H50751  10.312  10.508   2.401  0.5944 -0.0231  0.3269
  376MOL0     H50752  10.332  10.401   2.674 -0.5335 -1.7150 -2.4943
  376MOL0     H50753  10.234  10.547   2.614  3.1989  3.4479 -2.9297
  376MOL0     H50754  10.397  10.696   2.567  2.2001  2.3503  0.7809
  376MOL0     H50755  10.528  10.598   2.586 -1.0508 -2.6897 -1.5382
  376MOL0     H50756  10.562  10.668   2.785  0.4181  3.0081 -1.8527
  376MOL0     H50757  10.407  10.587   2.842 -0.2560 -0.5182 -0.2972
  376MOL0     H50758  10.290  10.990   2.778 -1.3445  0.4319 -1.5497
  376MOL0     H50759  10.450  10.197   2.403  3.3796  0.1516  1.7355
  376MOL0     H50760  10.510   9.990   2.489 -1.0365 -2.1089 -1.4260
  377MOL0     O50761   5.885   9.598   1.665  0.3902 -0.3026 -0.1880
  377MOL0     C50762   5.877   9.720   1.703  0.5249  1.7032 -0.5498
  377MOL0     O50763   5.969   9.789   1.778  0.2078  0.3485 -0.5896
  377MOL0     C50764   6.071   9.722   1.830 -0.0438  0.3363 -0.2897
  377MOL0     C50765   6.127   9.773   1.950  0.1729 -0.8601 -0.2325
  377MOL0     C50766   6.243   9.730   2.001 -0.1703  0.4781  0.7723
  377MOL0     C50767   6.321   9.635   1.931  0.0389 -0.6468  0.2725
  377MOL0     O50768   6.443   9.593   1.979  0.1732  0.6927  0.0920
  377MOL0     C50769   6.539   9.691   2.021  0.4493 -1.2177 -0.2956
  377MOL0     C50770   6.683   9.638   2.043  0.6994  0.1146  0.1666
  377MOL0     C50771   6.749   9.576   1.915  0.5196 -0.5184  0.6427
  377MOL0     C50772   6.895   9.563   1.933 -0.5279 -0.7192 -0.1654
  377MOL0     C50773   6.979   9.547   1.806 -0.7642 -0.2756 -0.1161
  377MOL0     C50774   6.961   9.405   1.741 -0.1987  0.2193  0.0350
  377MOL0     C50775   6.959   9.404   1.584 -1.3469  0.2379 -0.4992
  377MOL0     C50776   7.104   9.438   1.546 -0.1935 -0.0841 -0.7193
  377MOL0     N50777   7.113   9.417   1.401  1.2935 -0.1852  0.7172
  377MOL0     C50778   7.078   9.516   1.311  0.4456 -0.1260 -0.5466
  377MOL0     C50779   7.150   9.492   1.200 -0.2971 -0.2111  0.1531
  377MOL0     C50780   7.125   9.577   1.082 -0.7542 -0.6191  0.4184
  377MOL0     C50781   7.011   9.531   0.995  0.1724 -0.1484 -0.9361
  377MOL0     C50782   7.000   9.379   1.001  0.5181  0.6591 -0.3594
  377MOL0     C50783   6.897   9.333   0.903  0.2329  0.4211  0.1688
  377MOL0     O50784   6.881   9.191   0.915 -0.2198 -0.7228  0.1877
  377MOL0     C50785   6.798   9.133   0.817 -0.0508 -0.1381 -0.7696
  377MOL0     C50786   6.748   9.183   0.697  0.1315  0.4311  0.2732
  377MOL0     C50787   6.645   9.120   0.628  0.0623  1.1576  0.4308
  377MOL0     C50788   6.595   9.203   0.505 -0.2060 -0.4367 -0.1135
  377MOL0     C50789   6.604   8.991   0.662 -0.0096  0.3930 -0.2948
  377MOL0     C50790   6.491   8.911   0.600  0.0773  0.1581  0.4526
  377MOL0     O50791   6.462   8.792   0.656 -0.3051  0.2717 -0.5844
  377MOL0     C50792   6.373   8.713   0.587 -0.1437  0.3443  0.3728
  377MOL0     C50793   6.428   8.593   0.530  0.6867 -0.9085  0.9911
  377MOL0     C50794   6.336   8.502   0.460 -0.9210  0.3693  0.0498
  377MOL0     C50795   6.199   8.534   0.452  0.4356  1.0412 -0.1235
  377MOL0     O50796   6.095   8.450   0.415 -0.4407  0.2354  0.0384
  377MOL0     C50797   6.124   8.318   0.366  0.4288 -0.7531 -0.4131
  377MOL0     C50798   5.996   8.247   0.319  0.2369  0.4725 -0.6919
  377MOL0     C50799   5.909   8.190   0.433 -1.0576  0.0788 -0.2000
  377MOL0     C50800   5.799   8.100   0.378  0.0673  0.3364 -0.9435
  377MOL0     C50801   5.849   7.986   0.278 -1.0513  0.0547  0.7249
  377MOL0     C50802   5.736   7.898   0.255  0.0864  1.2658  0.5811
  377MOL0     C50803   5.800   7.777   0.172 -0.4980 -0.3739  0.3092
  377MOL0     C50804   5.700   7.746   0.058  0.4478  0.9054  0.4495
  377MOL0    Cl50805   5.765   7.609  -0.047  0.1180 -0.1259 -0.1351
  377MOL0     C50806   6.150   8.651   0.508  0.2927 -0.3173 -0.3844
  377MOL0     C50807   6.235   8.739   0.576  0.2784  0.4541 -0.3226
  377MOL0     O50808   6.459   8.941   0.482  0.4836 -0.6772 -0.7508
  377MOL0     C50809   6.668   8.929   0.770  0.7912  0.9972 -0.7355
  377MOL0     C50810   6.752   9.004   0.852 -0.5208  0.5626 -0.4844
  377MOL0     N50811   7.214   9.373   1.218  0.2826  0.4704  0.1183
  377MOL0     N50812   7.183   9.324   1.337  0.2282  0.6972 -0.3689
  377MOL0     C50813   6.278   9.586   1.806  0.5890  0.0543 -0.0641
  377MOL0     C50814   6.152   9.638   1.752 -1.0188 -0.4636  0.0249
  377MOL0     C50815   5.746   9.774   1.677  0.9710 -1.0570  0.1481
  377MOL0     C50816   5.659   9.713   1.589 -0.0619 -0.6937  0.4159
  377MOL0     C50817   5.553   9.781   1.549  1.0404 -0.4482 -0.3294
  377MOL0     C50818   5.521   9.908   1.595  0.2806 -0.0663  0.0592
  377MOL0     O50819   5.410   9.968   1.540 -1.1297 -0.7794 -0.0521
  377MOL0     C50820   5.422  10.063   1.436 -0.5969 -0.5399 -0.2673
  377MOL0     C50821   5.359  10.011   1.311 -0.3903  0.1271  0.5648
  377MOL0     C50822   5.440   9.906   1.233  0.1126 -0.3058 -0.2528
  377MOL0     C50823   5.358   9.779   1.211  0.9794 -0.6769 -0.5798
  377MOL0     C50824   5.450   9.667   1.172  1.4475 -1.1236  0.5357
  377MOL0     C50825   5.514   9.583   1.116 -0.0465  0.1399  0.5747
  377MOL0     C50826   5.591   9.968   1.698  0.9700  0.5094  0.4441
  377MOL0     C50827   5.706   9.896   1.738  0.9670 -0.4326  0.1652
  377MOL0     H50828   6.058   9.831   2.011 -2.6209 -2.3073 -1.7910
  377MOL0     H50829   6.264   9.768   2.100 -2.4050 -2.1686  2.4028
  377MOL0     H50830   6.545   9.769   1.944  0.6623  0.2011  1.1242
  377MOL0     H50831   6.508   9.747   2.109 -0.2321 -0.1664 -1.1724
  377MOL0     H50832   6.755   9.706   2.090  1.4170  0.1608 -0.9611
  377MOL0     H50833   6.661   9.555   2.111 -1.8962 -1.6897 -2.6162
  377MOL0     H50834   6.709   9.475   1.906 -0.8072 -0.0337  0.8792
  377MOL0     H50835   6.721   9.625   1.822  1.1734 -1.3080  0.0084
  377MOL0     H50836   6.925   9.653   1.988 -0.7984 -1.9176  2.0556
  377MOL0     H50837   6.916   9.488   2.010 -1.1176  0.9504  1.7071
  377MOL0     H50838   6.948   9.622   1.734 -3.0569 -1.3404 -0.3209
  377MOL0     H50839   7.083   9.573   1.830 -0.2265 -0.0359 -2.4552
  377MOL0     H50840   7.041   9.344   1.784  1.5343  2.8765  0.7776
  377MOL0     H50841   6.865   9.369   1.781 -0.8107  1.9626  0.2198
  377MOL0     H50842   6.938   9.303   1.547  2.1441 -1.2783  1.1705
  377MOL0     H50843   6.902   9.488   1.544  0.4411  1.2955 -0.9130
  377MOL0     H50844   7.179   9.388   1.607 -1.1263 -1.7697 -0.8856
  377MOL0     H50845   7.118   9.546   1.557 -0.4381 -0.1672  0.4433
  377MOL0     H50846   7.014   9.600   1.338 -2.0847 -2.6042  1.8893
  377MOL0     H50847   7.107   9.683   1.103  0.4553 -0.6948  1.9716
  377MOL0     H50848   7.212   9.572   1.016 -0.1409 -2.9239  1.3010
  377MOL0     H50849   7.020   9.560   0.889 -2.9103 -3.1533 -2.2038
  377MOL0     H50850   6.922   9.576   1.039  0.0397 -1.3224  0.0539
  377MOL0     H50851   6.972   9.343   1.100 -0.4051  2.9714  0.2936
  377MOL0     H50852   7.094   9.333   0.968 -0.1146  0.4323 -1.9145
  377MOL0     H50853   6.937   9.365   0.806 -1.5420  2.1463 -0.0472
  377MOL0     H50854   6.798   9.373   0.927  0.1879 -1.2880  3.4240
  377MOL0     H50855   6.777   9.282   0.663 -0.1275  0.8428  1.2139
  377MOL0     H50856   6.592   9.141   0.415 -0.4685  1.9541 -1.8494
  377MOL0     H50857   6.495   9.244   0.518  0.4669  1.0855  0.4581
  377MOL0     H50858   6.668   9.277   0.470  0.2009 -0.6558  0.2632
  377MOL0     H50859   6.535   8.574   0.529  1.6792  3.3308 -1.7841
  377MOL0     H50860   6.374   8.408   0.421 -2.6065 -0.1390 -0.4732
  377MOL0     H50861   6.192   8.336   0.282 -1.0388 -1.9018 -1.9052
  377MOL0     H50862   6.168   8.255   0.444 -0.1779  1.1356  1.5837
  377MOL0     H50863   5.935   8.320   0.265 -0.6399 -0.4099 -0.9354
  377MOL0     H50864   6.023   8.163   0.254 -0.1170 -0.7262  0.6413
  377MOL0     H50865   5.859   8.269   0.488  1.3752  0.4282  1.7149
  377MOL0     H50866   5.968   8.144   0.513 -4.4945 -0.8205  1.9916
  377MOL0     H50867   5.753   8.057   0.467 -4.3730  4.0035 -1.0918
  377MOL0     H50868   5.717   8.154   0.330 -2.8383 -0.2752  2.8782
  377MOL0     H50869   5.925   7.921   0.324 -1.5829 -2.0488 -1.1808
  377MOL0     H50870   5.881   8.023   0.180 -1.8596 -1.3098 -0.0885
  377MOL0     H50871   5.692   7.851   0.343  1.1630 -2.0580 -0.4878
  377MOL0     H50872   5.656   7.952   0.204 -1.2933 -0.8912  0.3524
  377MOL0     H50873   5.828   7.689   0.231  1.4533  0.7983  1.2223
  377MOL0     H50874   5.888   7.812   0.117 -0.5824 -1.5745 -0.6237
  377MOL0     H50875   5.691   7.829  -0.013 -0.4266 -1.5529 -2.5548
  377MOL0     H50876   5.602   7.718   0.095 -0.1018 -0.3827 -1.8314
  377MOL0     H50877   6.044   8.673   0.498  0.2736 -1.2192 -2.5806
  377MOL0     H50878   6.202   8.833   0.619 -1.2912  0.7329 -1.9860
  377MOL0     H50879   6.644   8.826   0.793 -2.7287  1.9184  0.2688
  377MOL0     H50880   6.794   8.968   0.946  0.0800  1.7238 -0.2822
  377MOL0     H50881   6.337   9.514   1.750 -0.3243 -0.6305 -0.1753
  377MOL0     H50882   6.138   9.609   1.648 -3.8123  2.9754 -0.7495
  377MOL0     H50883   5.676   9.612   1.554 -1.6971 -0.9631  0.3200
  377MOL0     H50884   5.493   9.750   1.464  1.5087 -0.2702 -0.7311
  377MOL0     H50885   5.378  10.158   1.469  0.1196  0.2409 -1.4591
  377MOL0     H50886   5.528  10.078   1.415 -0.4788  0.8482  1.1511
  377MOL0     H50887   5.346  10.087   1.233  2.5244 -1.3016 -1.5066
  377MOL0     H50888   5.264   9.972   1.349 -2.2787  1.6531 -2.1961
  377MOL0     H50889   5.525   9.882   1.297 -0.5115  0.6189  0.9679
  377MOL0     H50890   5.490   9.948   1.145  5.6402 -1.4413  1.9361
  377MOL0     H50891   5.283   9.803   1.135  0.6382  0.3275  0.0574
  377MOL0     H50892   5.292   9.755   1.295  3.0130  0.7774  1.5638
  377MOL0     H50893   5.568   9.513   1.056  0.2366  1.4909 -0.7938
  377MOL0     H50894   5.562  10.064   1.740  1.7754  1.6151 -1.4033
  377MOL0     H50895   5.776   9.949   1.803  0.9003  1.9507 -1.5568
  378MOL0     O50896  10.744   0.635   9.733  0.2378  0.9560  0.4703
  378MOL0     C50897  10.672   0.730   9.689 -0.1957 -0.1710 -0.7255
  378MOL0     O50898  10.683   0.789   9.567 -0.1889  0.0395  0.0975
  378MOL0     C50899  10.770   0.762   9.473  0.0001  0.1637  0.2926
  378MOL0     C50900  10.847   0.642   9.453  0.4682  0.1352 -0.2908
  378MOL0     C50901  10.934   0.634   9.346 -0.7241  1.4356 -1.1693
  378MOL0     C50902  10.959   0.739   9.265 -0.1278  0.4663  0.2269
  378MOL0     O50903  11.064   0.715   9.172  0.3441 -0.0420 -0.4811
  378MOL0     C50904  11.106   0.818   9.082  0.0716  0.1005 -0.9853
  378MOL0     C50905  11.213   0.758   9.001  0.1443  0.3298  0.8285
  378MOL0     C50906  11.326   0.717   9.099 -0.1436  0.5488 -0.9745
  378MOL0     C50907  11.439   0.637   9.029 -1.0120 -0.1574  0.4772
  378MOL0     C50908  11.552   0.598   9.122 -1.2959  0.2918  0.2018
  378MOL0     C50909  11.665   0.507   9.059  0.9423 -0.4261 -0.0118
  378MOL0     C50910  11.748   0.459   9.182  0.1612 -0.0891  0.1289
  378MOL0     C50911  11.674   0.355   9.280  0.3296 -0.5941  0.9873
  378MOL0     N50912  11.764   0.241   9.306 -0.3151  0.2739  0.0138
  378MOL0     C50913  11.894   0.261   9.351 -0.4433  1.0437  0.0457
  378MOL0     C50914  11.951   0.136   9.339  0.3502 -0.1808  0.8714
  378MOL0     C50915  12.078   0.103   9.395  0.1129  0.2086  0.3530
  378MOL0     C50916  12.191   0.125   9.290 -0.3701 -1.1125 -0.4230
  378MOL0     C50917  12.168   0.040   9.157 -0.3386 -0.7943 -0.5904
  378MOL0     C50918  12.092   0.110   9.040  0.3218 -0.0254  0.7340
  378MOL0     O50919  12.139   0.077   8.910 -0.0221  0.1600  0.7489
  378MOL0     C50920  12.199   0.176   8.847 -0.7871 -0.9641  0.1438
  378MOL0     C50921  12.317   0.240   8.887  0.5475  0.4300  0.4114
  378MOL0     C50922  12.366   0.353   8.827  0.1025 -0.6559  0.4577
  378MOL0     C50923  12.488   0.408   8.890 -0.7794  0.5308  1.4474
  378MOL0     C50924  12.297   0.410   8.710  0.3368 -0.0986 -0.3576
  378MOL0     C50925  12.343   0.538   8.644 -0.2108 -0.5343 -0.1744
  378MOL0     O50926  12.266   0.579   8.540 -0.3239 -0.4566 -0.0643
  378MOL0     C50927  12.274   0.699   8.478 -0.7026 -0.7481 -0.5406
  378MOL0     C50928  12.401   0.761   8.446 -0.3351  0.6861  0.2127
  378MOL0     C50929  12.409   0.882   8.388 -0.9698 -0.8269  0.4697
  378MOL0     C50930  12.303   0.955   8.365  0.0234 -0.1702  0.2173
  378MOL0     O50931  12.318   1.068   8.285  0.1670 -0.2893 -0.2813
  378MOL0     C50932  12.215   1.167   8.281  0.3508 -0.3731 -0.0429
  378MOL0     C50933  12.279   1.302   8.220  0.5594  0.0626 -0.1499
  378MOL0     C50934  12.179   1.401   8.153 -0.4483  0.0786 -0.5097
  378MOL0     C50935  12.251   1.527   8.128  0.1099 -0.5816 -0.2537
  378MOL0     C50936  12.149   1.632   8.080  0.4837 -0.6395 -1.4375
  378MOL0     C50937  12.060   1.696   8.195 -0.2938 -0.2531 -0.5917
  378MOL0     C50938  11.976   1.815   8.137  0.5822  0.1928 -0.6537
  378MOL0     C50939  11.897   1.895   8.245  0.0706 -0.2265 -0.0486
  378MOL0    Cl50940  11.733   1.835   8.293 -0.1448 -0.4748 -0.6092
  378MOL0     C50941  12.175   0.895   8.398 -0.2394  0.5041  0.4983
  378MOL0     C50942  12.158   0.773   8.463 -0.5986  0.7178  0.0435
  378MOL0     O50943  12.437   0.605   8.691  0.6643  0.1673 -0.3907
  378MOL0     C50944  12.190   0.325   8.648 -0.0656 -0.3046 -0.2740
  378MOL0     C50945  12.140   0.218   8.720  0.4927  0.5871 -0.1164
  378MOL0     N50946  11.859   0.044   9.295  0.3580 -0.8933  0.4229
  378MOL0     N50947  11.750   0.107   9.274 -0.4116 -0.9026  0.2450
  378MOL0     C50948  10.898   0.855   9.284  0.1470  0.4986  0.6732
  378MOL0     C50949  10.804   0.861   9.391  0.7850  0.5540 -0.0636
  378MOL0     C50950  10.580   0.785   9.791  0.9442  0.5747  0.3889
  378MOL0     C50951  10.542   0.709   9.896 -0.2366  0.4574  0.0828
  378MOL0     C50952  10.456   0.760  10.000 -0.2329 -0.0528 -0.0996
  378MOL0     C50953  10.413   0.895   9.991  0.3541  0.8539  1.0793
  378MOL0     O50954  10.312   0.957  10.069  0.1143 -0.2195  0.3029
  378MOL0     C50955  10.284   0.904  10.195  0.4967  0.1306 -0.0135
  378MOL0     C50956  10.239   1.027  10.278  0.2984  0.1689  0.2153
  378MOL0     C50957  10.096   1.062  10.245  1.4813 -0.2030  0.2295
  378MOL0     C50958  10.068   1.207  10.261 -0.1764  0.3968  0.7280
  378MOL0     C50959  10.034   1.250  10.395 -0.5586 -0.2764 -0.7525
  378MOL0     C50960  10.018   1.288  10.511  0.4802 -1.2844  0.0726
  378MOL0     C50961  10.465   0.972   9.890  0.2186  0.2010  0.5566
  378MOL0     C50962  10.540   0.920   9.784 -0.6179  0.0642 -0.3172
  378MOL0     H50963  10.855   0.566   9.530  2.5476  0.8800  0.2902
  378MOL0     H50964  11.003   0.550   9.343  0.5981  2.3649  0.7591
  378MOL0     H50965  11.018   0.840   9.021 -2.9006  0.3536  2.9963
  378MOL0     H50966  11.141   0.905   9.139  0.5875 -1.9748  2.0733
  378MOL0     H50967  11.179   0.663   8.957 -0.9363  0.0278  2.2343
  378MOL0     H50968  11.248   0.815   8.915  0.5940 -2.4692 -0.9907
  378MOL0     H50969  11.361   0.813   9.139  0.6206  0.0291 -0.3760
  378MOL0     H50970  11.289   0.641   9.168 -0.4501 -1.3343 -3.1070
  378MOL0     H50971  11.389   0.543   9.001  2.0414 -1.5648 -0.7176
  378MOL0     H50972  11.469   0.689   8.938 -1.2324 -2.4751 -1.0132
  378MOL0     H50973  11.595   0.693   9.156 -2.6258  0.7513  0.6636
  378MOL0     H50974  11.501   0.541   9.199 -0.8976  1.2126  1.1753
  378MOL0     H50975  11.618   0.420   9.013  0.0497 -0.2580  0.5561
  378MOL0     H50976  11.728   0.565   8.991  1.6211  1.1704  1.8846
  378MOL0     H50977  11.832   0.409   9.132  0.2145 -0.2072  0.3329
  378MOL0     H50978  11.796   0.532   9.247  0.2934 -0.0932  0.0365
  378MOL0     H50979  11.572   0.336   9.247  0.7032  3.0665 -3.1834
  378MOL0     H50980  11.668   0.405   9.377  2.0983 -1.8911  1.8321
  378MOL0     H50981  11.930   0.353   9.396  0.8105  0.5599  0.0547
  378MOL0     H50982  12.101   0.167   9.481 -0.7984  0.8688  0.1254
  378MOL0     H50983  12.077  -0.003   9.422  1.6104  0.0413 -0.1794
  378MOL0     H50984  12.296   0.112   9.319  0.9804  3.0848 -2.6280
  378MOL0     H50985  12.196   0.234   9.280  2.4869 -1.1852 -0.6347
  378MOL0     H50986  12.130  -0.056   9.193  3.7391 -1.9973  1.0580
  378MOL0     H50987  12.267   0.014   9.120 -1.2000 -4.8647 -0.5052
  378MOL0     H50988  12.111   0.216   9.056 -2.7354  0.4516  1.7992
  378MOL0     H50989  11.985   0.095   9.054  0.0968  0.6843 -0.1303
  378MOL0     H50990  12.376   0.199   8.968  3.4188 -1.2573 -2.3055
  378MOL0     H50991  12.516   0.342   8.973  1.8203  0.4700  0.6177
  378MOL0     H50992  12.578   0.413   8.828 -2.2058  1.5732 -0.6376
  378MOL0     H50993  12.477   0.509   8.931  0.9034  0.1745  2.9648
  378MOL0     H50994  12.496   0.711   8.463 -1.3385 -2.5439 -2.6964
  378MOL0     H50995  12.506   0.928   8.367 -0.7457 -1.0620  0.9549
  378MOL0     H50996  12.147   1.132   8.203  0.0610  3.3756 -1.6712
  378MOL0     H50997  12.166   1.182   8.378 -2.1412  2.1428 -1.5173
  378MOL0     H50998  12.328   1.358   8.300 -0.8299  0.4044  0.4850
  378MOL0     H50999  12.361   1.282   8.151  0.4656  2.3587 -1.0136
  378MOL0     H51000  12.100   1.425   8.225  1.0404 -0.7465  1.4919
  378MOL0     H51001  12.128   1.363   8.064 -1.0320  2.9168 -1.5015
  378MOL0     H51002  12.311   1.561   8.213 -1.1291 -2.9905  1.7092
  378MOL0     H51003  12.319   1.535   8.043 -1.3066 -1.1382 -1.4776
  378MOL0     H51004  12.100   1.577   8.000 -1.7533 -0.9773  0.0848
  378MOL0     H51005  12.208   1.712   8.034  0.4410  1.6147  2.0216
  378MOL0     H51006  12.004   1.612   8.237  2.1915 -2.4175 -1.2822
  378MOL0     H51007  12.133   1.735   8.267 -0.1793 -1.1374 -0.2205
  378MOL0     H51008  11.909   1.761   8.070  0.5517 -2.2492  1.1743
  378MOL0     H51009  12.036   1.882   8.076  0.6722  0.4335 -0.3039
  378MOL0     H51010  11.880   1.994   8.200 -1.3277  0.8324  2.6037
  378MOL0     H51011  11.960   1.912   8.333 -0.3501 -0.5227  0.3116
  378MOL0     H51012  12.084   0.944   8.364  0.1888  1.3672  0.5911
  378MOL0     H51013  12.059   0.740   8.492  0.3574  0.0796  2.9887
  378MOL0     H51014  12.160   0.360   8.550  0.8892  1.5826  0.0608
  378MOL0     H51015  12.053   0.163   8.685  1.6458 -1.4169  0.0583
  378MOL0     H51016  10.924   0.948   9.234 -2.2581  0.4059 -0.8872
  378MOL0     H51017  10.746   0.951   9.407 -0.3698 -0.7898  4.9489
  378MOL0     H51018  10.576   0.606   9.908 -0.2576  0.4394 -0.0147
  378MOL0     H51019  10.442   0.695  10.087 -2.4466  0.2985 -0.1520
  378MOL0     H51020  10.205   0.828  10.202 -1.5390  2.1055 -0.1420
  378MOL0     H51021  10.374   0.881  10.252 -0.0092 -0.1868  0.6651
  378MOL0     H51022  10.306   1.109  10.253  0.5405  0.2878  1.2294
  378MOL0     H51023  10.249   1.003  10.384 -0.6560 -0.4120  0.1838
  378MOL0     H51024  10.030   0.998  10.304 -3.0491  3.7041 -0.0325
  378MOL0     H51025  10.074   1.038  10.141 -0.5699  1.8590  0.1080
  378MOL0     H51026   9.977   1.229  10.206 -2.7967 -4.0590  2.6965
  378MOL0     H51027  10.155   1.262  10.224 -0.8928  1.2697  0.3059
  378MOL0     H51028  10.011   1.307  10.616 -1.7234 -2.7327  0.2364
  378MOL0     H51029  10.437   1.076   9.901  0.3076  0.1347  1.4131
  378MOL0     H51030  10.582   0.986   9.709  0.1933 -0.8895 -0.7147
  379MOL0     O51031  10.615   2.098   5.906  0.1281  0.2505  0.3230
  379MOL0     C51032  10.630   2.032   6.008 -1.1518 -0.5386  0.1269
  379MOL0     O51033  10.619   2.082   6.130 -0.7939  0.7006  0.2015
  379MOL0     C51034  10.593   2.214   6.135  0.7888 -0.2250  0.5388
  379MOL0     C51035  10.461   2.244   6.164 -0.7178  1.6093  0.2533
  379MOL0     C51036  10.418   2.377   6.169 -0.6501 -0.4931  0.4419
  379MOL0     C51037  10.503   2.482   6.168 -0.7763  1.2630 -0.3183
  379MOL0     O51038  10.451   2.605   6.197 -0.2458  0.1856  0.4747
  379MOL0     C51039  10.472   2.688   6.078 -0.9131 -0.3253  0.9588
  379MOL0     C51040  10.552   2.818   6.118 -0.0373 -0.5926 -0.7517
  379MOL0     C51041  10.581   2.904   5.998 -1.0466 -0.4372  0.2269
  379MOL0     C51042  10.686   3.018   6.033 -0.5562 -0.1492 -0.6624
  379MOL0     C51043  10.642   3.135   6.132  0.6035  0.3459 -0.4444
  379MOL0     C51044  10.491   3.170   6.109  0.4329  0.4523 -0.1472
  379MOL0     C51045  10.453   3.310   6.149  0.4635  0.3764  0.3533
  379MOL0     C51046  10.457   3.342   6.294  0.3300 -0.5168 -0.7378
  379MOL0     N51047  10.386   3.460   6.345 -1.2968  0.7107  1.0601
  379MOL0     C51048  10.274   3.512   6.286 -0.0722 -0.1692 -0.2457
  379MOL0     C51049  10.240   3.611   6.375  0.3574  0.8530  0.5138
  379MOL0     C51050  10.118   3.693   6.350 -0.1564 -0.3624 -0.2491
  379MOL0     C51051   9.998   3.666   6.447  0.6654  0.8873 -0.0020
  379MOL0     C51052  10.024   3.738   6.589  0.4574 -0.7140  1.1725
  379MOL0     C51053   9.937   3.684   6.707 -0.6392 -0.9533 -0.2308
  379MOL0     O51054   9.874   3.553   6.700  0.4401 -0.5297 -0.1281
  379MOL0     C51055   9.952   3.442   6.731  0.1430  0.0076  0.5630
  379MOL0     C51056  10.090   3.436   6.707  0.1255 -0.0919  0.1035
  379MOL0     C51057  10.170   3.324   6.738  1.1830 -1.3385  0.1221
  379MOL0     C51058  10.313   3.330   6.729  0.5215  0.5824  0.7116
  379MOL0     C51059  10.105   3.201   6.776  0.8284  0.1242 -0.1822
  379MOL0     C51060  10.164   3.074   6.808  0.0328 -0.1510  0.1849
  379MOL0     O51061  10.086   2.990   6.883  0.2206  0.3527 -0.5258
  379MOL0     C51062  10.135   2.868   6.931  0.2364 -0.7643  0.5212
  379MOL0     C51063  10.096   2.839   7.054  2.0692 -0.2378 -0.1821
  379MOL0     C51064  10.143   2.724   7.118 -0.3530  0.0695  0.3265
  379MOL0     C51065  10.222   2.637   7.041 -0.3835  0.3674 -0.2457
  379MOL0     O51066  10.261   2.514   7.089  0.1793 -0.0148 -0.0868
  379MOL0     C51067  10.160   2.421   7.152 -0.1847  1.4934  0.9555
  379MOL0     C51068  10.158   2.274   7.086 -1.1981  0.3452 -0.1022
  379MOL0     C51069  10.033   2.241   7.018 -1.0308  0.5182  0.4235
  379MOL0     C51070  10.061   2.185   6.873  0.2068 -0.0160  0.1851
  379MOL0     C51071   9.939   2.134   6.798  0.2948  0.4204 -0.9067
  379MOL0     C51072   9.854   2.041   6.890 -0.5017 -0.2297  0.5216
  379MOL0     C51073   9.933   1.925   6.945 -0.8354  0.1893 -0.2524
  379MOL0     C51074   9.853   1.795   6.936  0.1009  0.3984 -0.5398
  379MOL0    Cl51075   9.678   1.795   6.994  0.2072 -0.1398 -0.4345
  379MOL0     C51076  10.254   2.659   6.905 -0.8641 -0.6030 -0.1854
  379MOL0     C51077  10.210   2.776   6.845 -0.0544  0.1508 -0.2236
  379MOL0     O51078  10.273   3.044   6.754 -0.7039  0.2464 -0.9551
  379MOL0     C51079   9.962   3.214   6.796  1.3182  0.4354  1.2628
  379MOL0     C51080   9.886   3.324   6.774  0.3962 -0.1241 -0.2750
  379MOL0     N51081  10.336   3.622   6.472 -0.1724 -0.8137 -0.7698
  379MOL0     N51082  10.420   3.534   6.456 -0.3523  0.8773 -0.7910
  379MOL0     C51083  10.640   2.453   6.157 -0.2248 -0.7433 -0.1774
  379MOL0     C51084  10.686   2.321   6.131 -0.1419  0.1844  0.0240
  379MOL0     C51085  10.649   1.884   6.012 -1.0189 -1.3766  0.4174
  379MOL0     C51086  10.708   1.821   5.904  0.1452  0.6322  0.2062
  379MOL0     C51087  10.708   1.679   5.896 -0.5300 -0.3923 -0.9998
  379MOL0     C51088  10.653   1.607   6.006 -0.4112 -1.6479 -0.5640
  379MOL0     O51089  10.654   1.476   6.030  0.3892 -0.5218  0.4090
  379MOL0     C51090  10.785   1.412   6.011 -0.1833 -0.6310  0.2715
  379MOL0     C51091  10.770   1.301   5.911 -0.2472 -0.4459  0.9326
  379MOL0     C51092  10.903   1.241   5.867 -0.6937 -0.5694 -0.3515
  379MOL0     C51093  10.890   1.111   5.784  0.2552  0.1357 -0.0437
  379MOL0     C51094  11.012   1.030   5.785 -0.5792  0.0881  0.2308
  379MOL0     C51095  11.124   0.975   5.788 -0.4505 -0.3882  0.1300
  379MOL0     C51096  10.596   1.671   6.110  0.3329 -0.5516 -0.5920
  379MOL0     C51097  10.597   1.812   6.115  0.2489 -0.5310 -0.8240
  379MOL0     H51098  10.397   2.156   6.162  2.2205 -0.7009  0.3690
  379MOL0     H51099  10.319   2.410   6.198 -0.4102  0.2403  0.4490
  379MOL0     H51100  10.541   2.642   6.006 -1.4166  1.1831 -0.5540
  379MOL0     H51101  10.382   2.702   6.017  1.4179  0.3033 -2.6822
  379MOL0     H51102  10.481   2.872   6.182  0.9462 -2.1514  1.8324
  379MOL0     H51103  10.646   2.792   6.168  0.8957  1.4928 -1.2928
  379MOL0     H51104  10.629   2.847   5.918  1.5733  0.8931  0.7201
  379MOL0     H51105  10.491   2.959   5.968 -0.7164  1.5107  2.5042
  379MOL0     H51106  10.776   2.967   6.068 -0.2194  0.1830 -1.0395
  379MOL0     H51107  10.720   3.073   5.945  1.9393  0.4407  0.5908
  379MOL0     H51108  10.643   3.116   6.240 -0.7113  1.3378 -0.2408
  379MOL0     H51109  10.703   3.226   6.123 -1.4493  2.7165  5.1975
  379MOL0     H51110  10.469   3.153   6.003 -0.8572 -2.1341  0.4650
  379MOL0     H51111  10.423   3.107   6.166 -1.4640  2.1736 -0.4268
  379MOL0     H51112  10.502   3.385   6.086 -3.9128  2.2787 -1.1605
  379MOL0     H51113  10.346   3.317   6.127  0.3430 -1.3138  0.2517
  379MOL0     H51114  10.560   3.353   6.331  0.4325  2.4664 -1.6694
  379MOL0     H51115  10.415   3.261   6.354  0.4778 -0.7071 -0.8898
  379MOL0     H51116  10.220   3.460   6.207 -0.1991 -2.1647  1.0865
  379MOL0     H51117  10.142   3.799   6.360  0.0133 -0.6220  3.3376
  379MOL0     H51118  10.090   3.672   6.246 -0.4988  2.1439 -0.7091
  379MOL0     H51119   9.990   3.558   6.466  1.4361  1.0021  1.0999
  379MOL0     H51120   9.910   3.701   6.393 -0.4251 -0.0058  1.1346
  379MOL0     H51121  10.002   3.844   6.573 -1.8506 -0.6272  4.1011
  379MOL0     H51122  10.131   3.724   6.606  1.1067 -1.2695 -2.5776
  379MOL0     H51123   9.871   3.766   6.736  0.0607 -0.3421 -0.3375
  379MOL0     H51124  10.015   3.681   6.783  0.3742 -0.7082 -1.2292
  379MOL0     H51125  10.147   3.523   6.676  3.1710 -1.2300  1.9918
  379MOL0     H51126  10.348   3.432   6.712  1.5209 -0.2031 -2.8113
  379MOL0     H51127  10.352   3.308   6.829  1.1674 -1.1629  0.1172
  379MOL0     H51128  10.364   3.258   6.664 -0.2986  1.5681 -1.0879
  379MOL0     H51129  10.017   2.902   7.091  0.2127  0.2153 -4.3882
  379MOL0     H51130  10.106   2.697   7.217  1.3181 -0.2733  0.9050
  379MOL0     H51131  10.170   2.422   7.261 -2.6065 -0.6540  1.3044
  379MOL0     H51132  10.061   2.466   7.138 -0.7173 -0.0012 -0.5208
  379MOL0     H51133  10.244   2.275   7.018 -1.1356  0.6889 -0.0188
  379MOL0     H51134  10.175   2.198   7.164 -2.8295  1.6848  1.6587
  379MOL0     H51135   9.976   2.333   7.004 -2.1983 -0.3899 -1.0809
  379MOL0     H51136   9.984   2.166   7.081 -0.5079 -1.5017 -1.4402
  379MOL0     H51137  10.121   2.247   6.807  1.9209  1.3238  2.8294
  379MOL0     H51138  10.118   2.093   6.890  0.1634  0.0176  0.5327
  379MOL0     H51139   9.982   2.080   6.712 -0.3705  0.2721 -1.1513
  379MOL0     H51140   9.878   2.216   6.760 -3.0520 -1.8752 -0.8620
  379MOL0     H51141   9.790   2.097   6.958 -1.3038  0.4367 -0.7340
  379MOL0     H51142   9.785   1.995   6.819  3.1109 -5.4870 -0.1143
  379MOL0     H51143   9.962   1.937   7.050 -1.1981  0.3692 -0.1713
  379MOL0     H51144  10.024   1.922   6.884 -1.5533  1.8581 -1.5112
  379MOL0     H51145   9.897   1.703   6.975  1.8223 -1.2984 -5.5911
  379MOL0     H51146   9.854   1.778   6.828  1.8682 -1.5471 -0.2736
  379MOL0     H51147  10.310   2.578   6.860 -0.4785 -1.5218  1.8173
  379MOL0     H51148  10.234   2.797   6.742  0.9595 -1.2664 -0.3097
  379MOL0     H51149   9.890   3.142   6.834  0.7815  1.6654  2.6821
  379MOL0     H51150   9.779   3.322   6.785  0.4016 -0.6985 -0.2900
  379MOL0     H51151  10.710   2.536   6.167 -2.2243  1.2195 -1.4564
  379MOL0     H51152  10.790   2.301   6.107  0.8699  3.2425  1.4099
  379MOL0     H51153  10.735   1.870   5.812  4.4419 -1.0835  0.2861
  379MOL0     H51154  10.743   1.638   5.802 -0.9256  0.1418 -1.3894
  379MOL0     H51155  10.868   1.476   5.978 -0.4733 -0.1728  0.4252
  379MOL0     H51156  10.817   1.365   6.104  0.2729  1.7958  1.4034
  379MOL0     H51157  10.725   1.333   5.817  0.0911 -1.2603  0.4858
  379MOL0     H51158  10.703   1.228   5.959 -1.9344  1.2714  1.3340
  379MOL0     H51159  10.952   1.214   5.961 -4.7839  3.3772  3.3606
  379MOL0     H51160  10.960   1.314   5.808  0.5324  0.8905  2.4531
  379MOL0     H51161  10.848   1.129   5.685  1.4608  0.2039 -0.5676
  379MOL0     H51162  10.812   1.050   5.829 -1.0294  0.9700 -1.0575
  379MOL0     H51163  11.223   0.934   5.798 -0.1247  0.6428  1.3794
  379MOL0     H51164  10.564   1.620   6.200  0.3014  1.3425  0.5109
  379MOL0     H51165  10.545   1.864   6.195 -1.5818  0.0561 -2.3266
  380MOL0     O51166   2.928   8.648   2.852  0.4615  0.6414  0.0361
  380MOL0     C51167   2.943   8.764   2.823  0.8000  0.2235  0.1679
  380MOL0     O51168   2.877   8.825   2.721 -0.5768 -0.3195 -0.5429
  380MOL0     C51169   2.766   8.763   2.676  0.6410  0.2826  0.3897
  380MOL0     C51170   2.767   8.683   2.557 -0.3912 -0.2164 -0.6358
  380MOL0     C51171   2.650   8.628   2.513 -0.0120  0.5447 -0.6727
  380MOL0     C51172   2.533   8.643   2.583 -0.2385  0.9593  0.2005
  380MOL0     O51173   2.420   8.597   2.523  0.1401 -0.7592  0.7462
  380MOL0     C51174   2.320   8.531   2.604 -0.7580 -0.5646  0.2130
  380MOL0     C51175   2.389   8.421   2.689  0.6648  0.0406 -0.5587
  380MOL0     C51176   2.279   8.347   2.773  0.3364 -0.9450  0.4164
  380MOL0     C51177   2.331   8.254   2.872  0.0896  0.0118  0.0361
  380MOL0     C51178   2.325   8.107   2.817  0.4946 -0.4929  0.2703
  380MOL0     C51179   2.397   8.012   2.909  0.4330  0.3259  0.0491
  380MOL0     C51180   2.379   7.872   2.853  0.4399 -0.3991 -0.7852
  380MOL0     C51181   2.504   7.796   2.872  0.2043 -0.6027 -0.0916
  380MOL0     N51182   2.490   7.674   2.790 -0.4676 -0.2418  0.1661
  380MOL0     C51183   2.461   7.546   2.841  0.4898 -0.4234  0.3247
  380MOL0     C51184   2.446   7.469   2.728 -0.2772  0.1933  0.3021
  380MOL0     C51185   2.429   7.326   2.728 -0.3349  0.8242  0.2164
  380MOL0     C51186   2.276   7.287   2.719 -0.0640  0.6008 -0.2277
  380MOL0     C51187   2.259   7.140   2.726 -0.5173  0.1767  0.1982
  380MOL0     C51188   2.267   7.074   2.862  0.4266  0.3094  0.1902
  380MOL0     O51189   2.264   6.927   2.848 -0.1427 -0.6325  0.4322
  380MOL0     C51190   2.387   6.862   2.861  0.3662 -0.2316 -0.2391
  380MOL0     C51191   2.386   6.729   2.857  0.6089  0.1945  0.1141
  380MOL0     C51192   2.497   6.644   2.877 -0.2247 -0.0108 -0.1841
  380MOL0     C51193   2.476   6.492   2.878  0.1250  0.9396  0.0865
  380MOL0     C51194   2.617   6.699   2.908 -0.2747 -1.0220 -0.6625
  380MOL0     C51195   2.739   6.618   2.940  0.2993 -0.0834 -1.2559
  380MOL0     O51196   2.836   6.678   3.009 -0.3625 -0.2813  0.7830
  380MOL0     C51197   2.949   6.604   3.042 -0.1124 -1.1484  0.1375
  380MOL0     C51198   2.964   6.562   3.172  0.2034 -0.8285 -0.0354
  380MOL0     C51199   3.072   6.475   3.196  0.1346 -0.7473 -0.7882
  380MOL0     C51200   3.144   6.405   3.092  0.0175  0.2441 -0.3648
  380MOL0     O51201   3.243   6.311   3.111 -0.0050 -0.1935 -0.4127
  380MOL0     C51202   3.256   6.267   3.247  0.7945  0.0291  0.3694
  380MOL0     C51203   3.345   6.140   3.228  0.2873  0.0613  0.4445
  380MOL0     C51204   3.496   6.170   3.203  0.6765  0.3091  0.4541
  380MOL0     C51205   3.570   6.159   3.328 -0.2016  0.2408  0.5474
  380MOL0     C51206   3.723   6.151   3.330 -0.1901 -0.8605 -0.4693
  380MOL0     C51207   3.786   6.201   3.464 -0.6465 -0.3600 -1.0595
  380MOL0     C51208   3.770   6.095   3.577  0.1217  0.8723 -0.1686
  380MOL0     C51209   3.874   5.980   3.561 -0.3763  0.1716  0.5857
  380MOL0    Cl51210   3.876   5.854   3.691  0.4503 -0.2443 -0.8005
  380MOL0     C51211   3.118   6.434   2.956  0.7241  0.6171 -0.5513
  380MOL0     C51212   3.040   6.547   2.937  0.0582  0.3723  0.0937
  380MOL0     O51213   2.754   6.511   2.883  0.7287 -0.1855 -0.0568
  380MOL0     C51214   2.627   6.834   2.916 -0.3219  0.4340  0.4686
  380MOL0     C51215   2.516   6.913   2.892 -0.4328 -0.0451 -0.7577
  380MOL0     N51216   2.483   7.543   2.618  0.0403 -0.1207 -0.7436
  380MOL0     N51217   2.504   7.667   2.654  0.7502  0.2612 -0.8803
  380MOL0     C51218   2.529   8.725   2.704  0.7536 -0.0003  0.4567
  380MOL0     C51219   2.641   8.786   2.746 -0.1880 -0.3444 -0.2123
  380MOL0     C51220   3.030   8.853   2.904  1.0620  0.1474 -0.5939
  380MOL0     C51221   3.102   8.794   3.014  1.1652  0.6896  0.8682
  380MOL0     C51222   3.184   8.870   3.095 -0.3674 -0.3152  0.2875
  380MOL0     C51223   3.193   9.012   3.069  0.8760  1.8069  0.7004
  380MOL0     O51224   3.280   9.104   3.131 -0.2991 -0.3306 -0.3410
  380MOL0     C51225   3.353   9.069   3.249 -0.5524 -0.0587  0.9117
  380MOL0     C51226   3.494   9.018   3.200  0.5745  1.2790  0.0586
  380MOL0     C51227   3.578   9.127   3.130  0.4887  0.2479 -0.2214
  380MOL0     C51228   3.568   9.270   3.186 -0.2581  0.5241  0.7349
  380MOL0     C51229   3.692   9.334   3.140  0.5629 -0.6204 -1.4919
  380MOL0     C51230   3.781   9.399   3.080  0.1516  0.3961  0.6462
  380MOL0     C51231   3.115   9.064   2.975  0.5696 -0.5680 -0.0818
  380MOL0     C51232   3.034   8.994   2.887  0.0088  0.3241 -1.3746
  380MOL0     H51233   2.855   8.668   2.496  1.0853 -1.2616  1.6329
  380MOL0     H51234   2.659   8.565   2.425 -0.2738 -0.7083  0.1826
  380MOL0     H51235   2.270   8.600   2.672  3.9674  3.5652  0.0031
  380MOL0     H51236   2.243   8.480   2.545 -0.4541  1.7727 -2.3624
  380MOL0     H51237   2.445   8.340   2.641 -1.1930 -1.4126 -0.3861
  380MOL0     H51238   2.460   8.463   2.761 -1.0032  2.6313 -0.2739
  380MOL0     H51239   2.217   8.420   2.826  1.4826  0.7704 -0.5080
  380MOL0     H51240   2.216   8.294   2.700 -2.0186 -1.1761  2.4657
  380MOL0     H51241   2.427   8.284   2.915 -1.0819 -1.4419  4.1993
  380MOL0     H51242   2.261   8.244   2.956 -1.5973 -0.1464 -1.3248
  380MOL0     H51243   2.224   8.075   2.793  0.6967 -0.2680 -0.9301
  380MOL0     H51244   2.361   8.108   2.714 -1.3057 -1.2913 -0.4032
  380MOL0     H51245   2.499   8.050   2.914  0.0296  1.2948  1.9421
  380MOL0     H51246   2.368   8.011   3.015  3.3105 -2.3894  0.9524
  380MOL0     H51247   2.294   7.823   2.902  0.6583 -0.0237 -0.0227
  380MOL0     H51248   2.365   7.886   2.745  2.0005 -1.2948 -1.1336
  380MOL0     H51249   2.512   7.777   2.980  2.6392 -0.9718 -0.2895
  380MOL0     H51250   2.588   7.849   2.827  1.2100 -3.7461 -2.2570
  380MOL0     H51251   2.453   7.514   2.944  2.7320 -1.8456  0.1288
  380MOL0     H51252   2.490   7.274   2.654  0.9250 -1.0467  2.4197
  380MOL0     H51253   2.469   7.299   2.826 -2.2467 -1.1058  0.5499
  380MOL0     H51254   2.236   7.315   2.621  0.5534 -1.3386 -1.0886
  380MOL0     H51255   2.222   7.339   2.798 -0.7376  2.8645 -2.0540
  380MOL0     H51256   2.334   7.111   2.652  1.5218  2.6064  1.1888
  380MOL0     H51257   2.161   7.117   2.683 -0.1952 -1.2422  0.1771
  380MOL0     H51258   2.182   7.107   2.923 -0.0768  0.4196 -0.5643
  380MOL0     H51259   2.347   7.121   2.921 -0.1791  1.0524  0.4374
  380MOL0     H51260   2.299   6.672   2.827  0.5921  1.7131 -3.0584
  380MOL0     H51261   2.525   6.448   2.792 -0.3112  0.0574  0.2798
  380MOL0     H51262   2.511   6.450   2.973  0.1758 -3.0378 -1.5275
  380MOL0     H51263   2.368   6.478   2.869 -0.1476  1.5635  1.8099
  380MOL0     H51264   2.893   6.614   3.235  0.8102 -1.0857  0.8828
  380MOL0     H51265   3.087   6.447   3.299  1.3934 -0.4655 -0.8794
  380MOL0     H51266   3.308   6.340   3.309  2.5015  2.7388 -3.7939
  380MOL0     H51267   3.161   6.238   3.292 -0.7580  1.7996 -1.5412
  380MOL0     H51268   3.340   6.063   3.305  1.6735  0.7263  1.2358
  380MOL0     H51269   3.309   6.087   3.139  1.7046 -0.8211  0.3622
  380MOL0     H51270   3.509   6.276   3.177  0.9779  0.8247  2.5667
  380MOL0     H51271   3.538   6.105   3.125 -3.4470  1.1190 -2.8110
  380MOL0     H51272   3.548   6.252   3.381 -0.8849  0.2777  0.2000
  380MOL0     H51273   3.519   6.082   3.386 -1.6699 -0.1082 -1.1560
  380MOL0     H51274   3.763   6.212   3.248  0.6317 -1.0759 -0.2367
  380MOL0     H51275   3.760   6.049   3.315  2.3358 -0.1202  0.3305
  380MOL0     H51276   3.890   6.230   3.447 -0.2256 -2.9962 -3.6535
  380MOL0     H51277   3.733   6.296   3.481  0.3918  0.6092 -2.8709
  380MOL0     H51278   3.674   6.042   3.570  1.6421 -1.9439 -1.7226
  380MOL0     H51279   3.767   6.137   3.678  3.9586 -2.4113  1.5902
  380MOL0     H51280   3.963   6.043   3.555 -2.1083  2.7166  0.2915
  380MOL0     H51281   3.848   5.919   3.474  3.0704  0.7900 -1.0751
  380MOL0     H51282   3.173   6.380   2.879 -0.8591  0.8511 -1.9301
  380MOL0     H51283   3.026   6.578   2.835 -0.6701 -0.0652  0.0486
  380MOL0     H51284   2.720   6.885   2.939 -0.2395 -0.1323  1.4207
  380MOL0     H51285   2.524   7.020   2.904 -6.5287  1.0248 -2.8000
  380MOL0     H51286   2.433   8.747   2.748 -2.6736 -2.4526 -4.8246
  380MOL0     H51287   2.644   8.853   2.831  1.1385 -1.2657  0.5017
  380MOL0     H51288   3.096   8.688   3.032 -3.0437  0.7650  1.0810
  380MOL0     H51289   3.252   8.817   3.161  0.9158 -0.1787 -0.8642
  380MOL0     H51290   3.363   9.155   3.315  1.7124 -0.2514  0.9110
  380MOL0     H51291   3.295   8.988   3.295 -1.8473  0.2413 -0.1343
  380MOL0     H51292   3.480   8.949   3.116  1.3485  1.2141 -0.0173
  380MOL0     H51293   3.549   8.958   3.273  0.8587  0.7261 -0.6007
  380MOL0     H51294   3.529   9.135   3.032  0.6782 -0.6725 -0.3991
  380MOL0     H51295   3.682   9.095   3.122  2.3277  5.4421 -1.4699
  380MOL0     H51296   3.569   9.278   3.295 -0.7934  1.0644  0.7038
  380MOL0     H51297   3.481   9.324   3.148 -0.4071 -1.7023 -2.4539
  380MOL0     H51298   3.845   9.451   3.012  1.0654 -2.3607 -0.7465
  380MOL0     H51299   3.132   9.170   2.958 -1.2220 -0.3308 -0.5289
  380MOL0     H51300   2.967   9.052   2.825 -1.6807  0.6273  0.6064
  381MOL0     O51301   7.712  11.322   3.574 -0.3540 -0.1733 -0.0935
  381MOL0     C51302   7.831  11.327   3.542 -0.0892  0.3693  0.5326
  381MOL0     O51303   7.904  11.211   3.510 -0.3030 -0.5670 -0.6020
  381MOL0     C51304   7.845  11.090   3.491  0.5429  0.0067 -1.0221
  381MOL0     C51305   7.707  11.058   3.462  0.8076  0.4296 -0.1691
  381MOL0     C51306   7.672  10.922   3.454  0.0046  0.1864  0.4072
  381MOL0     C51307   7.759  10.824   3.492  0.1386 -0.0459 -0.2940
  381MOL0     O51308   7.726  10.696   3.449  0.3350  0.2147 -0.7330
  381MOL0     C51309   7.635  10.630   3.539  0.8713  0.5987 -0.4648
  381MOL0     C51310   7.577  10.500   3.481  0.2135 -0.0177 -0.4462
  381MOL0     C51311   7.495  10.508   3.354 -0.1541  0.4351  0.2162
  381MOL0     C51312   7.437  10.365   3.332 -0.5389 -0.4853  0.7529
  381MOL0     C51313   7.354  10.359   3.206 -0.7587  0.0844  0.4077
  381MOL0     C51314   7.294  10.217   3.178  0.7894  0.2422 -0.2252
  381MOL0     C51315   7.401  10.100   3.194  0.2174  0.2521  0.5974
  381MOL0     C51316   7.496  10.084   3.080 -0.3280  0.4708  0.5091
  381MOL0     N51317   7.414  10.044   2.962 -0.2869 -0.9317 -0.2333
  381MOL0     C51318   7.384  10.113   2.849 -0.5178  0.8580 -0.0890
  381MOL0     C51319   7.295  10.034   2.783  0.8652 -0.0173  0.7503
  381MOL0     C51320   7.230  10.077   2.649  0.1188 -0.0463  0.1744
  381MOL0     C51321   7.296  10.011   2.519  0.0377 -1.5016 -1.1542
  381MOL0     C51322   7.438  10.052   2.469 -0.6117 -0.2133 -0.0638
  381MOL0     C51323   7.486   9.981   2.332 -0.3756  0.9430 -0.1040
  381MOL0     O51324   7.528   9.847   2.344  0.4045 -0.2535 -0.2934
  381MOL0     C51325   7.653   9.825   2.390 -1.1366  0.0763 -0.4484
  381MOL0     C51326   7.688   9.694   2.396  0.1649  0.5993  0.3529
  381MOL0     C51327   7.814   9.653   2.414 -0.5018  0.7446  1.5531
  381MOL0     C51328   7.851   9.507   2.381  0.0820  0.1185 -0.1859
  381MOL0     C51329   7.913   9.751   2.435 -0.1919 -0.6415 -0.3559
  381MOL0     C51330   8.059   9.734   2.449  0.1965  0.7310  0.5380
  381MOL0     O51331   8.121   9.775   2.554 -0.0612  0.1281 -0.5026
  381MOL0     C51332   8.251   9.746   2.577  0.2617 -0.3257  0.0494
  381MOL0     C51333   8.285   9.619   2.631  0.8069 -0.2245 -0.3542
  381MOL0     C51334   8.422   9.599   2.665  0.0332 -0.0697  1.2453
  381MOL0     C51335   8.527   9.677   2.607 -0.0439 -0.8995  0.9445
  381MOL0     O51336   8.661   9.649   2.643 -0.0668 -0.2298  0.2131
  381MOL0     C51337   8.762   9.732   2.590 -0.0902 -1.2829 -1.0363
  381MOL0     C51338   8.890   9.658   2.624  0.0512 -0.0630  0.6276
  381MOL0     C51339   8.913   9.535   2.524  0.6316  0.7841 -0.1111
  381MOL0     C51340   8.870   9.559   2.373 -0.5359 -0.1809 -0.2439
  381MOL0     C51341   8.957   9.477   2.278  0.5287 -0.4054 -0.1121
  381MOL0     C51342   9.086   9.543   2.246  0.0010 -1.3890 -0.1972
  381MOL0     C51343   9.070   9.651   2.125 -0.8111 -0.5261  0.3417
  381MOL0     C51344   9.192   9.747   2.120 -0.5279  0.0539  0.5259
  381MOL0    Cl51345   9.345   9.659   2.132 -0.1746 -1.1100 -0.4054
  381MOL0     C51346   8.483   9.802   2.546 -0.1478  0.2952 -0.3166
  381MOL0     C51347   8.347   9.839   2.547  0.1864  0.5639  0.1099
  381MOL0     O51348   8.106   9.663   2.362 -0.7510 -0.1156 -0.3178
  381MOL0     C51349   7.872   9.884   2.472  0.4913 -0.0821 -0.6947
  381MOL0     C51350   7.745   9.923   2.443  0.6780 -0.0541  0.6817
  381MOL0     N51351   7.279   9.922   2.840  0.0357 -0.3367  0.4704
  381MOL0     N51352   7.353   9.918   2.942  0.0898  0.2461  0.1597
  381MOL0     C51353   7.887  10.855   3.546  0.6859  0.3276  0.4668
  381MOL0     C51354   7.928  10.984   3.539 -0.6325 -0.1212  0.0666
  381MOL0     C51355   7.899  11.455   3.539  0.0576 -0.2164  0.2311
  381MOL0     C51356   8.033  11.465   3.577  0.3963 -0.5952 -0.0750
  381MOL0     C51357   8.098  11.589   3.599 -0.4115 -0.7452 -0.0013
  381MOL0     C51358   8.030  11.702   3.558  0.4597  1.0271  0.5613
  381MOL0     O51359   8.095  11.815   3.585  0.1204 -0.2748  0.1573
  381MOL0     C51360   8.042  11.950   3.571  0.5935 -0.5450  0.6244
  381MOL0     C51361   7.988  12.004   3.697  0.2544 -0.3550 -0.2953
  381MOL0     C51362   8.015  12.150   3.709  1.0909 -0.2551 -0.3278
  381MOL0     C51363   7.929  12.205   3.831 -1.3190  0.1946 -0.7161
  381MOL0     C51364   7.962  12.151   3.964  0.2662 -0.6647  0.2809
  381MOL0     C51365   8.002  12.133   4.077  0.3049 -0.4772 -0.5673
  381MOL0     C51366   7.892  11.700   3.523 -0.5230  0.7583 -0.0953
  381MOL0     C51367   7.827  11.571   3.517 -1.1394  0.8867  0.1870
  381MOL0     H51368   7.638  11.138   3.438 -0.1929  0.1364  1.5891
  381MOL0     H51369   7.570  10.897   3.428 -1.4097  1.5475  3.8977
  381MOL0     H51370   7.686  10.621   3.635  2.1284  0.4496 -1.1336
  381MOL0     H51371   7.548  10.695   3.553  0.9309  0.6950 -0.5418
  381MOL0     H51372   7.647  10.416   3.481 -1.2767 -1.3749  1.8783
  381MOL0     H51373   7.507  10.480   3.563  2.3352 -1.0616  1.2180
  381MOL0     H51374   7.425  10.591   3.371 -0.9668 -0.2293  0.1748
  381MOL0     H51375   7.558  10.534   3.268 -1.8979  2.0873 -0.6544
  381MOL0     H51376   7.523  10.297   3.335  0.1913  0.4223  2.9542
  381MOL0     H51377   7.378  10.347   3.422  0.8873  1.2415  2.1177
  381MOL0     H51378   7.283  10.442   3.194 -0.2986  0.2431 -1.6710
  381MOL0     H51379   7.421  10.379   3.122 -4.6512 -0.4560 -3.1852
  381MOL0     H51380   7.209  10.202   3.244  1.5971 -0.8311  0.6047
  381MOL0     H51381   7.262  10.213   3.073 -0.8192 -2.2271  0.3021
  381MOL0     H51382   7.452  10.105   3.291 -2.6329  0.9642  2.1622
  381MOL0     H51383   7.346  10.006   3.188  0.1992  0.3588 -1.8608
  381MOL0     H51384   7.551   9.994   3.109 -3.9233 -2.2406 -0.4642
  381MOL0     H51385   7.572  10.162   3.064 -0.5751  0.3647 -1.4324
  381MOL0     H51386   7.427  10.208   2.820 -0.7682  0.5367 -1.5915
  381MOL0     H51387   7.121  10.082   2.649  0.1725  2.4023 -0.6063
  381MOL0     H51388   7.261  10.180   2.632  0.2010 -0.2459 -0.9275
  381MOL0     H51389   7.229  10.039   2.438 -0.3434  0.3055 -0.2748
  381MOL0     H51390   7.292   9.909   2.559 -1.5631 -0.6059  1.2213
  381MOL0     H51391   7.513  10.042   2.548 -2.1614 -0.7345  1.3669
  381MOL0     H51392   7.439  10.159   2.444  1.2783  0.0230  0.8114
  381MOL0     H51393   7.573  10.030   2.287 -0.4936  0.7748 -0.5206
  381MOL0     H51394   7.396   9.991   2.270 -0.9882 -0.8000  0.4319
  381MOL0     H51395   7.613   9.626   2.359 -0.1726  1.3414 -0.3448
  381MOL0     H51396   7.918   9.489   2.296 -3.8909 -1.6740 -3.3025
  381MOL0     H51397   7.894   9.463   2.472 -0.1795 -3.6050 -1.6549
  381MOL0     H51398   7.759   9.453   2.356 -0.3966  1.4275 -1.4081
  381MOL0     H51399   8.205   9.556   2.670 -0.1821  0.3035 -1.4659
  381MOL0     H51400   8.458   9.522   2.733 -1.6935 -1.6069  0.5126
  381MOL0     H51401   8.744   9.760   2.486  0.7606  4.4001  0.0034
  381MOL0     H51402   8.754   9.835   2.628 -0.6480 -0.2216 -3.8050
  381MOL0     H51403   8.970   9.733   2.627 -1.1479  1.2169  1.8367
  381MOL0     H51404   8.888   9.623   2.728  3.1893  0.8377  1.1029
  381MOL0     H51405   8.863   9.443   2.557  0.5787  0.4117 -1.1801
  381MOL0     H51406   9.017   9.503   2.527  0.4538 -0.2933 -2.6579
  381MOL0     H51407   8.765   9.536   2.357 -0.7288  1.0082 -0.8062
  381MOL0     H51408   8.890   9.662   2.341 -0.5703  0.2307  0.9937
  381MOL0     H51409   8.909   9.479   2.179 -0.6619  2.5318  0.3990
  381MOL0     H51410   8.973   9.375   2.314  3.8787  0.1755  0.3268
  381MOL0     H51411   9.140   9.580   2.333 -0.9529 -1.5391  0.4614
  381MOL0     H51412   9.161   9.476   2.203  0.2112 -2.1717  1.3304
  381MOL0     H51413   8.981   9.715   2.127 -0.8660 -0.6099  0.6505
  381MOL0     H51414   9.077   9.594   2.033  0.7569  3.2787 -2.1663
  381MOL0     H51415   9.183   9.809   2.210 -1.6267  0.6006  0.0585
  381MOL0     H51416   9.198   9.813   2.033  1.4186  0.2185  0.7337
  381MOL0     H51417   8.544   9.873   2.490  0.7473  1.2605  1.7815
  381MOL0     H51418   8.328   9.931   2.492  2.2631  2.3896  2.2749
  381MOL0     H51419   7.936   9.961   2.515 -1.2337  1.2696 -0.4335
  381MOL0     H51420   7.712  10.026   2.449 -5.7370 -1.7247  1.6655
  381MOL0     H51421   7.972  10.790   3.564  0.5707  0.4411  1.4879
  381MOL0     H51422   8.030  10.991   3.575  1.2270  1.0751 -4.6724
  381MOL0     H51423   8.081  11.369   3.594  1.7946 -0.0548 -0.7260
  381MOL0     H51424   8.202  11.589   3.629  0.0384  0.1603 -1.4743
  381MOL0     H51425   8.112  12.026   3.533  0.7976 -0.8549  0.3678
  381MOL0     H51426   7.955  11.952   3.505  0.4567 -1.0251  0.7916
  381MOL0     H51427   8.027  11.946   3.782  0.7602 -1.6595 -1.3898
  381MOL0     H51428   7.880  12.002   3.680  0.2704 -0.3280 -0.3928
  381MOL0     H51429   7.988  12.204   3.618  2.6991 -0.4558 -0.9708
  381MOL0     H51430   8.122  12.169   3.725  0.6354  1.0868  1.5659
  381MOL0     H51431   7.822  12.187   3.817 -1.3294 -1.1039  0.8350
  381MOL0     H51432   7.950  12.313   3.834  2.9588 -0.4205 -1.8036
  381MOL0     H51433   8.031  12.109   4.178  1.1245 -1.2736 -0.9723
  381MOL0     H51434   7.830  11.789   3.512  0.3462  1.1113 -2.9394
  381MOL0     H51435   7.723  11.563   3.487 -0.5492 -4.8370 -1.4226
  382MOL0     O51436   9.574   6.562   8.765  0.1253 -0.3478  0.0917
  382MOL0     C51437   9.532   6.671   8.803  0.8649  0.0630  0.4564
  382MOL0     O51438   9.578   6.738   8.915 -0.2793  0.2220 -0.0228
  382MOL0     C51439   9.673   6.673   8.995 -0.3129 -0.1976 -0.5707
  382MOL0     C51440   9.811   6.693   8.974  0.3811  0.6273  0.7961
  382MOL0     C51441   9.905   6.629   9.062  0.8771 -0.3464  0.4163
  382MOL0     C51442   9.857   6.545   9.164  0.4760  0.4111  0.5979
  382MOL0     O51443   9.946   6.479   9.245 -0.3715 -0.0118 -0.0543
  382MOL0     C51444  10.029   6.371   9.199  0.0812  1.0772  0.2114
  382MOL0     C51445   9.944   6.243   9.185 -0.3119 -0.7052 -0.5939
  382MOL0     C51446  10.020   6.112   9.205 -0.1194  0.4523  0.2146
  382MOL0     C51447  10.039   6.073   9.347  0.7320  0.2748 -0.2843
  382MOL0     C51448  10.127   5.952   9.353 -0.5284 -0.7205  0.1716
  382MOL0     C51449  10.158   5.916   9.498 -0.5499  0.8170 -0.1987
  382MOL0     C51450  10.245   5.792   9.514  0.4252 -0.2125  0.1263
  382MOL0     C51451  10.349   5.761   9.412 -0.0543  0.0367  0.0675
  382MOL0     N51452  10.461   5.698   9.479 -0.1033  0.4379  0.0408
  382MOL0     C51453  10.493   5.569   9.461  0.0705  0.6088 -0.5767
  382MOL0     C51454  10.607   5.554   9.526 -0.6701 -0.4589 -0.0598
  382MOL0     C51455  10.688   5.435   9.528 -0.4496  0.5667 -0.2651
  382MOL0     C51456  10.839   5.452   9.473 -0.0156 -0.4444  0.2940
  382MOL0     C51457  10.922   5.335   9.497 -0.4721 -0.4148 -0.5165
  382MOL0     C51458  10.900   5.233   9.393  0.0677  0.5016  0.1465
  382MOL0     O51459  10.965   5.246   9.265 -0.5836 -0.1789  0.3088
  382MOL0     C51460  11.079   5.176   9.236  0.3419 -0.2476 -0.0811
  382MOL0     C51461  11.153   5.094   9.319 -0.1099  0.0020 -0.3557
  382MOL0     C51462  11.277   5.032   9.290 -0.0691 -0.5941 -0.3239
  382MOL0     C51463  11.342   4.930   9.388  0.4065 -0.0362 -1.5467
  382MOL0     C51464  11.331   5.070   9.161 -0.0710  0.3567  1.0477
  382MOL0     C51465  11.458   5.030   9.105 -0.1225 -0.4385  0.0929
  382MOL0     O51466  11.494   5.099   8.993  0.2820 -0.0266  0.3704
  382MOL0     C51467  11.628   5.103   8.954 -0.0345  0.5637  1.0143
  382MOL0     C51468  11.726   5.019   8.984 -0.1127 -0.6360 -1.4000
  382MOL0     C51469  11.862   5.046   8.958  0.3514 -0.7574  1.2287
  382MOL0     C51470  11.895   5.146   8.865  0.3320 -0.0387  1.5637
  382MOL0     O51471  12.025   5.172   8.853 -0.6709 -0.5847 -1.0041
  382MOL0     C51472  12.075   5.210   8.721  0.4302  0.4613 -0.4474
  382MOL0     C51473  12.106   5.096   8.623 -1.0355  0.0963 -0.0854
  382MOL0     C51474  12.175   5.146   8.497  0.3544  0.7721 -0.8854
  382MOL0     C51475  12.170   5.034   8.393  0.5810  0.6175 -0.0801
  382MOL0     C51476  12.232   5.092   8.267  0.0890 -0.6209  1.0232
  382MOL0     C51477  12.386   5.118   8.279  0.4891 -0.6794 -0.6641
  382MOL0     C51478  12.434   5.128   8.135  0.3895  1.2894  1.0379
  382MOL0     C51479  12.583   5.168   8.127 -0.4003 -0.2629 -0.1894
  382MOL0    Cl51480  12.665   5.019   8.176 -0.2583 -0.1272 -0.2207
  382MOL0     C51481  11.788   5.224   8.813 -1.4130 -0.2287 -0.4977
  382MOL0     C51482  11.661   5.202   8.860  0.2308  1.3133 -0.0581
  382MOL0     O51483  11.523   4.942   9.157  0.0403 -0.3250  0.2406
  382MOL0     C51484  11.248   5.150   9.072  0.1325 -0.8360  0.0314
  382MOL0     C51485  11.132   5.205   9.113 -0.3993 -0.6702  0.4169
  382MOL0     N51486  10.647   5.673   9.584  0.1721 -0.2326 -0.0511
  382MOL0     N51487  10.555   5.758   9.552  0.0343  0.9807  0.1128
  382MOL0     C51488   9.724   6.532   9.185 -0.4978 -0.4878  0.1160
  382MOL0     C51489   9.630   6.591   9.103 -0.4610 -0.4312  0.3929
  382MOL0     C51490   9.422   6.737   8.726 -0.2136  0.5140  0.7273
  382MOL0     C51491   9.370   6.684   8.601  0.6694 -0.3768  0.0200
  382MOL0     C51492   9.254   6.747   8.543  0.1734  0.5020 -0.5537
  382MOL0     C51493   9.222   6.875   8.577 -0.0876 -0.0928  0.6330
  382MOL0     O51494   9.131   6.943   8.506 -0.5032 -0.5680  0.3083
  382MOL0     C51495   9.005   6.915   8.550 -0.2407 -0.2077  0.5278
  382MOL0     C51496   8.938   7.043   8.600 -0.4516 -0.0577  0.1114
  382MOL0     C51497   8.802   7.028   8.655 -1.0636  0.9425  0.2977
  382MOL0     C51498   8.716   7.147   8.704  0.9160  0.2194  1.2061
  382MOL0     C51499   8.781   7.200   8.818 -1.6332  0.6341  0.7619
  382MOL0     C51500   8.837   7.242   8.911 -0.5891 -0.2361 -0.5073
  382MOL0     C51501   9.270   6.930   8.687 -0.2564 -0.0178 -0.8707
  382MOL0     C51502   9.363   6.861   8.767 -0.3899  0.0957 -0.0009
  382MOL0     H51503   9.834   6.762   8.893 -0.6670 -0.6239 -0.6187
  382MOL0     H51504  10.011   6.646   9.052  1.1013 -1.8435  0.0265
  382MOL0     H51505  10.062   6.402   9.099 -1.6689  3.1563  0.1834
  382MOL0     H51506  10.126   6.368   9.250  1.1308 -0.0908 -1.7388
  382MOL0     H51507   9.870   6.251   9.265  1.3851  2.0518  0.8566
  382MOL0     H51508   9.901   6.236   9.084 -2.4087  0.6243  0.1433
  382MOL0     H51509   9.970   6.030   9.152  0.3694 -0.6609  1.4140
  382MOL0     H51510  10.123   6.116   9.169  0.8581  1.4931  2.8827
  382MOL0     H51511  10.078   6.157   9.405  1.3421 -1.1468  1.4777
  382MOL0     H51512   9.939   6.054   9.387  0.3499 -2.5053 -2.2364
  382MOL0     H51513  10.089   5.867   9.296 -3.0317  1.1969 -1.2491
  382MOL0     H51514  10.214   5.981   9.293 -3.3029  3.4966 -2.4500
  382MOL0     H51515  10.206   5.997   9.555 -2.3077  1.1485  0.8805
  382MOL0     H51516  10.062   5.893   9.545 -0.9712 -1.4911 -2.0363
  382MOL0     H51517  10.303   5.788   9.607 -2.1559 -3.7653  1.8362
  382MOL0     H51518  10.176   5.707   9.527  0.4275 -0.4147 -1.0606
  382MOL0     H51519  10.393   5.854   9.375  2.0852 -0.5989  0.8617
  382MOL0     H51520  10.313   5.697   9.330 -3.2507  0.4631  0.9978
  382MOL0     H51521  10.445   5.486   9.410  1.5211  0.6660 -2.1266
  382MOL0     H51522  10.687   5.392   9.629  0.2134 -1.8581 -1.2221
  382MOL0     H51523  10.641   5.360   9.465 -0.8937 -0.0727  0.8036
  382MOL0     H51524  10.884   5.537   9.526  1.4260  1.1579 -3.1664
  382MOL0     H51525  10.856   5.475   9.367  1.8304 -0.7998  0.4812
  382MOL0     H51526  10.886   5.297   9.593  2.8870  0.2267  1.1526
  382MOL0     H51527  11.030   5.354   9.497 -0.2794 -1.4591 -1.0294
  382MOL0     H51528  10.795   5.221   9.365  0.2687 -2.2921  0.2780
  382MOL0     H51529  10.927   5.136   9.435 -0.6812 -0.4785 -1.5168
  382MOL0     H51530  11.115   5.084   9.420 -1.2516 -0.1971 -0.7802
  382MOL0     H51531  11.317   4.832   9.347 -1.1743  0.4108 -1.7255
  382MOL0     H51532  11.451   4.940   9.385  0.4976  0.5217  1.1166
  382MOL0     H51533  11.312   4.951   9.491 -3.8048  0.6442 -2.7414
  382MOL0     H51534  11.716   4.924   9.035 -0.4517 -0.6403 -1.4738
  382MOL0     H51535  11.941   4.979   8.991 -2.3247 -3.1831  3.3007
  382MOL0     H51536  12.011   5.277   8.663  2.8500  2.4562 -1.0009
  382MOL0     H51537  12.172   5.255   8.746  2.2762 -3.1311 -0.4448
  382MOL0     H51538  12.167   5.012   8.659 -3.0326 -1.1568  0.5237
  382MOL0     H51539  12.013   5.045   8.598 -0.9557  0.2490 -0.7040
  382MOL0     H51540  12.278   5.168   8.526  0.6640 -0.6677 -0.8569
  382MOL0     H51541  12.127   5.239   8.463  1.0338  0.4625 -2.8035
  382MOL0     H51542  12.222   4.940   8.415 -2.4475 -2.0081 -3.0924
  382MOL0     H51543  12.066   5.012   8.367  0.6057  1.5940 -1.0506
  382MOL0     H51544  12.167   5.176   8.239 -0.5234 -1.3174  0.3016
  382MOL0     H51545  12.215   5.033   8.176 -0.5394  0.1778  0.6039
  382MOL0     H51546  12.417   5.204   8.340  3.2064 -0.6731 -1.9130
  382MOL0     H51547  12.423   5.032   8.335  0.0145  0.6648  1.8642
  382MOL0     H51548  12.372   5.192   8.071  1.0359 -1.5755 -2.8924
  382MOL0     H51549  12.421   5.027   8.095 -3.8980  2.2752 -0.6741
  382MOL0     H51550  12.608   5.246   8.199 -0.8146  1.4246 -1.7920
  382MOL0     H51551  12.621   5.201   8.030  2.5783  0.8398  1.2458
  382MOL0     H51552  11.806   5.315   8.756 -0.3187 -0.0953  0.0508
  382MOL0     H51553  11.577   5.266   8.835 -2.8018 -2.0446  0.7329
  382MOL0     H51554  11.278   5.166   8.969  3.6996 -2.7816  0.6054
  382MOL0     H51555  11.077   5.272   9.047  2.7962  1.4203 -0.3588
  382MOL0     H51556   9.694   6.477   9.274  1.0604  1.7490  2.1600
  382MOL0     H51557   9.524   6.572   9.120 -0.4977  0.4399  1.2300
  382MOL0     H51558   9.408   6.587   8.572 -0.3277 -0.5067 -0.9113
  382MOL0     H51559   9.224   6.701   8.450 -0.5402  2.7170 -1.4698
  382MOL0     H51560   8.944   6.875   8.469  1.7913 -1.8651 -0.2923
  382MOL0     H51561   9.004   6.843   8.632 -1.0072 -1.2055 -0.3241
  382MOL0     H51562   8.929   7.117   8.520  0.4430 -1.6835 -1.5821
  382MOL0     H51563   9.005   7.089   8.673 -0.3182 -2.0367  1.3146
  382MOL0     H51564   8.816   6.961   8.740  2.4375  0.9118 -0.1642
  382MOL0     H51565   8.746   6.981   8.574 -0.7534  1.0360  0.0278
  382MOL0     H51566   8.612   7.120   8.724  0.8650 -0.3513  0.2321
  382MOL0     H51567   8.721   7.212   8.616 -1.9267 -2.2306 -0.9800
  382MOL0     H51568   8.892   7.288   8.991 -0.5574  1.2513 -1.3378
  382MOL0     H51569   9.253   7.035   8.706  0.4870 -0.3499  2.1516
  382MOL0     H51570   9.391   6.918   8.856 -2.3022  0.6420  0.2921
  383MOL0     O51571   6.779   0.782   0.456  0.1551 -0.5127 -0.3419
  383MOL0     C51572   6.777   0.677   0.383  0.3270 -0.2275 -0.7278
  383MOL0     O51573   6.874   0.589   0.370  0.2436  0.0284  0.1024
  383MOL0     C51574   6.999   0.614   0.425  0.8936  1.2295  0.9637
  383MOL0     C51575   7.054   0.733   0.481 -0.0191 -1.4772 -0.5089
  383MOL0     C51576   7.191   0.738   0.516  0.0633 -0.2761  0.5113
  383MOL0     C51577   7.268   0.628   0.511  0.0604 -0.7008 -0.3037
  383MOL0     O51578   7.400   0.618   0.551  0.2564 -0.5062  0.2930
  383MOL0     C51579   7.461   0.734   0.601 -0.5905 -1.0735  0.6214
  383MOL0     C51580   7.607   0.691   0.620  0.0854  1.0447 -0.4742
  383MOL0     C51581   7.663   0.663   0.475 -0.2934  0.8921  0.2504
  383MOL0     C51582   7.801   0.607   0.494 -0.1920 -0.0746  0.5748
  383MOL0     C51583   7.857   0.588   0.343  0.4822 -0.1559 -1.2802
  383MOL0     C51584   7.991   0.527   0.333  1.3495  0.0710  0.6529
  383MOL0     C51585   8.057   0.550   0.199  0.4339 -0.6622  0.1159
  383MOL0     C51586   8.182   0.469   0.187  0.1025  0.6984 -0.1104
  383MOL0     N51587   8.226   0.506   0.059 -0.4740 -0.9403  0.0206
  383MOL0     C51588   8.199   0.428  -0.046 -0.5864  0.4139  0.0962
  383MOL0     C51589   8.241   0.494  -0.149  0.1099  0.2974  1.1429
  383MOL0     C51590   8.236   0.458  -0.287 -0.2229 -0.3401  0.3871
  383MOL0     C51591   8.358   0.489  -0.373  0.4155  0.6077 -0.3305
  383MOL0     C51592   8.476   0.400  -0.350 -0.6196 -0.1497  0.6102
  383MOL0     C51593   8.611   0.450  -0.402 -0.3093  0.7088  0.4703
  383MOL0     O51594   8.605   0.429  -0.544 -0.0689 -0.0938  0.1558
  383MOL0     C51595   8.656   0.524  -0.620 -0.7850 -0.5920  0.3313
  383MOL0     C51596   8.604   0.542  -0.749  0.7798 -0.3048  0.9369
  383MOL0     C51597   8.659   0.649  -0.837 -0.2370  1.0370 -0.7546
  383MOL0     C51598   8.607   0.652  -0.981 -0.2383  0.5426  0.1109
  383MOL0     C51599   8.757   0.739  -0.787  0.2700 -0.4516 -0.4193
  383MOL0     C51600   8.795   0.861  -0.856 -0.7128  0.4802 -0.2238
  383MOL0     O51601   8.898   0.940  -0.796  0.2844  0.2877 -1.0814
  383MOL0     C51602   8.934   1.064  -0.849  0.7578  0.2761 -0.1575
  383MOL0     C51603   8.945   1.172  -0.762  0.0191 -0.3723  0.9347
  383MOL0     C51604   8.978   1.298  -0.819 -0.6611 -0.2425 -0.1142
  383MOL0     C51605   9.003   1.312  -0.952 -0.5639 -0.4239  0.1682
  383MOL0     O51606   9.030   1.439  -1.002 -0.0750  1.5225  0.4478
  383MOL0     C51607   9.006   1.456  -1.142  0.7159 -0.3079  0.8314
  383MOL0     C51608   8.971   1.603  -1.165 -0.3465 -0.1486 -0.4897
  383MOL0     C51609   8.925   1.632  -1.309  0.6050 -0.0555  1.1136
  383MOL0     C51610   8.835   1.761  -1.329  0.3473  0.0510 -0.2043
  383MOL0     C51611   8.918   1.886  -1.360  0.1633  0.5544 -0.8940
  383MOL0     C51612   8.978   1.879  -1.493 -0.0716  0.4683  0.4712
  383MOL0     C51613   9.072   1.992  -1.534 -0.7067  0.3021 -0.2790
  383MOL0     C51614   9.139   1.957  -1.665  0.7197  0.4073 -0.0610
  383MOL0    Cl51615   9.209   2.095  -1.759 -0.3183 -0.2890 -0.2420
  383MOL0     C51616   9.002   1.196  -1.037 -0.3176 -0.2392 -0.5399
  383MOL0     C51617   8.964   1.070  -0.986 -0.4300  0.4038 -0.6192
  383MOL0     O51618   8.741   0.896  -0.955 -0.4129  0.0580  0.0672
  383MOL0     C51619   8.806   0.715  -0.657  1.1153 -1.0842 -0.3824
  383MOL0     C51620   8.757   0.615  -0.570  0.2764  0.3408  0.0551
  383MOL0     N51621   8.308   0.606  -0.105  0.1867  0.2013  0.3206
  383MOL0     N51622   8.304   0.614   0.027 -0.4466  0.2097  0.1779
  383MOL0     C51623   7.214   0.510   0.460  0.4454  0.2393  0.5951
  383MOL0     C51624   7.085   0.505   0.407  0.6719 -0.7538  0.0270
  383MOL0     C51625   6.650   0.638   0.313 -0.0427 -0.1917  0.3544
  383MOL0     C51626   6.633   0.510   0.250 -0.7544  0.2786 -0.8997
  383MOL0     C51627   6.520   0.478   0.167  0.5002  0.1898 -0.2919
  383MOL0     C51628   6.419   0.576   0.143 -0.8302 -0.9974 -0.2060
  383MOL0     O51629   6.310   0.569   0.053 -0.0956  1.1346  0.0262
  383MOL0     C51630   6.244   0.447   0.021  0.7409  0.4583  0.7543
  383MOL0     C51631   6.309   0.394  -0.107  1.3706 -0.4100 -0.1410
  383MOL0     C51632   6.259   0.478  -0.225 -0.3536 -0.3526  0.4929
  383MOL0     C51633   6.347   0.476  -0.351  0.0988 -0.9082  0.4173
  383MOL0     C51634   6.320   0.359  -0.443 -0.3260  0.6237 -0.5617
  383MOL0     C51635   6.288   0.262  -0.503 -0.1528 -0.1106  0.6378
  383MOL0     C51636   6.435   0.705   0.201 -0.2827 -1.3416 -0.3111
  383MOL0     C51637   6.551   0.734   0.280 -0.7132 -0.9705 -0.9242
  383MOL0     H51638   7.003   0.827   0.503  3.4965  0.5416 -0.1236
  383MOL0     H51639   7.227   0.835   0.550  0.5088 -0.7239  1.3211
  383MOL0     H51640   7.455   0.823   0.538 -0.7373 -1.5089  0.0145
  383MOL0     H51641   7.416   0.752   0.699 -2.5978  2.4520 -0.7608
  383MOL0     H51642   7.664   0.773   0.666  0.4296  0.2107  0.6333
  383MOL0     H51643   7.624   0.602   0.682 -0.5533  0.4645 -1.1180
  383MOL0     H51644   7.595   0.601   0.415  1.0534  1.8575 -2.4358
  383MOL0     H51645   7.689   0.754   0.421  2.6361 -0.6506 -1.1648
  383MOL0     H51646   7.863   0.674   0.554  0.4732 -0.8549  0.7835
  383MOL0     H51647   7.813   0.512   0.546  1.1333 -0.6139 -0.6557
  383MOL0     H51648   7.780   0.535   0.287  1.0079  0.2632 -2.4460
  383MOL0     H51649   7.868   0.691   0.308  1.7394  0.4302  0.7013
  383MOL0     H51650   8.063   0.565   0.406  1.5472 -0.6995  0.8762
  383MOL0     H51651   7.983   0.419   0.349 -0.7551  0.3004  1.4877
  383MOL0     H51652   7.994   0.517   0.116  2.8914  1.2073 -2.6869
  383MOL0     H51653   8.078   0.656   0.184 -2.6513 -0.0721 -0.6513
  383MOL0     H51654   8.160   0.362   0.183 -0.4489  0.8304 -1.1136
  383MOL0     H51655   8.251   0.484   0.270 -2.7392  0.0478  2.5374
  383MOL0     H51656   8.165   0.325  -0.047  0.1276  0.1196 -2.7898
  383MOL0     H51657   8.222   0.350  -0.288 -0.5851 -0.2952 -0.5447
  383MOL0     H51658   8.145   0.504  -0.327 -0.4142 -0.0063  1.1706
  383MOL0     H51659   8.381   0.595  -0.356 -5.9106  2.1657  1.6064
  383MOL0     H51660   8.327   0.495  -0.478  0.6338 -1.2838 -0.5213
  383MOL0     H51661   8.449   0.304  -0.397  0.4567 -1.1570  1.9728
  383MOL0     H51662   8.486   0.388  -0.242  0.2344 -1.0952  0.4440
  383MOL0     H51663   8.695   0.392  -0.362 -0.5653 -0.0228 -0.0244
  383MOL0     H51664   8.628   0.552  -0.367 -1.2614  0.4618  1.7237
  383MOL0     H51665   8.524   0.476  -0.780 -0.4383  2.0782 -1.4085
  383MOL0     H51666   8.530   0.729  -0.993  1.0464  1.6417 -1.7286
  383MOL0     H51667   8.684   0.683  -1.053  0.6200 -2.1706 -0.2477
  383MOL0     H51668   8.571   0.557  -1.021 -2.2327  0.7192  1.3709
  383MOL0     H51669   8.943   1.157  -0.655 -0.6597  0.5935  1.0748
  383MOL0     H51670   8.968   1.381  -0.750 -1.9567 -1.9875  1.9502
  383MOL0     H51671   9.100   1.438  -1.195 -0.0124 -0.7325 -0.3493
  383MOL0     H51672   8.925   1.397  -1.186  1.4421 -1.4531  0.9804
  383MOL0     H51673   8.889   1.630  -1.098  1.9870  2.1759  1.6304
  383MOL0     H51674   9.060   1.661  -1.139  0.6782 -0.8819 -2.1597
  383MOL0     H51675   8.851   1.555  -1.336  2.0373 -0.6609 -1.4084
  383MOL0     H51676   9.009   1.629  -1.378  0.0685  1.6465  0.3268
  383MOL0     H51677   8.750   1.745  -1.395 -0.8949  0.1757  1.3030
  383MOL0     H51678   8.784   1.775  -1.233 -3.5227 -1.3907 -1.8892
  383MOL0     H51679   8.997   1.882  -1.285 -0.6228  0.5867 -0.0321
  383MOL0     H51680   8.865   1.981  -1.345 -1.2725 -0.2836 -0.4724
  383MOL0     H51681   9.033   1.784  -1.495 -0.1396  0.3173  2.8136
  383MOL0     H51682   8.899   1.874  -1.568  1.3146 -0.7761 -0.9970
  383MOL0     H51683   9.153   2.005  -1.461 -0.1894 -0.4449 -0.7204
  383MOL0     H51684   9.024   2.089  -1.552 -3.4583 -1.2885 -2.2640
  383MOL0     H51685   9.074   1.907  -1.736 -0.9798  3.8488 -1.1462
  383MOL0     H51686   9.218   1.888  -1.634 -0.2398 -1.4689 -1.5748
  383MOL0     H51687   9.033   1.211  -1.140 -3.9672  1.8773 -1.5044
  383MOL0     H51688   8.963   0.986  -1.054 -0.5412  1.2218 -1.6446
  383MOL0     H51689   8.887   0.767  -0.607 -0.9144  1.2711  0.6699
  383MOL0     H51690   8.803   0.598  -0.474 -2.9694 -0.5169  1.5912
  383MOL0     H51691   7.278   0.423   0.450 -0.4977 -0.3918 -0.0827
  383MOL0     H51692   7.040   0.414   0.368  0.3386 -0.1584 -1.0297
  383MOL0     H51693   6.699   0.427   0.276 -1.1896 -0.4455 -2.0285
  383MOL0     H51694   6.504   0.389   0.108 -3.6390  0.3288  0.3089
  383MOL0     H51695   6.263   0.380   0.105  2.0474  0.8872  0.8296
  383MOL0     H51696   6.137   0.460   0.004  1.3775  2.3036 -2.8098
  383MOL0     H51697   6.301   0.286  -0.118  4.6131 -0.7540  0.0030
  383MOL0     H51698   6.415   0.417  -0.096  1.2398  0.7814 -1.1773
  383MOL0     H51699   6.259   0.578  -0.180  2.8568 -1.8889  4.5613
  383MOL0     H51700   6.157   0.442  -0.244 -0.5932 -0.8973  2.5547
  383MOL0     H51701   6.452   0.489  -0.322 -0.1594 -1.2717  1.5286
  383MOL0     H51702   6.315   0.556  -0.419  2.1538 -0.4699 -0.1116
  383MOL0     H51703   6.271   0.185  -0.575  1.2294 -1.4334  1.6783
  383MOL0     H51704   6.369   0.788   0.178  1.2598 -0.4637 -1.8324
  383MOL0     H51705   6.562   0.837   0.314  0.6382 -0.8214 -1.7536
  384MOL0     O51706   5.166  11.333   1.085 -0.1779 -0.5313 -0.1959
  384MOL0     C51707   5.155  11.413   1.182  0.2681  0.3744 -0.0374
  384MOL0     O51708   5.260  11.453   1.258  0.1520  0.1905  0.1893
  384MOL0     C51709   5.382  11.440   1.205  0.0768  0.8854  0.1033
  384MOL0     C51710   5.456  11.317   1.196  0.4565  0.2584  0.5526
  384MOL0     C51711   5.579  11.315   1.140  0.3048  0.5440  1.1273
  384MOL0     C51712   5.636  11.424   1.078  0.6507  0.1246 -0.3787
  384MOL0     O51713   5.761  11.425   1.018  0.0261  0.0161  0.6219
  384MOL0     C51714   5.834  11.305   0.997  1.1836  0.3482  0.9228
  384MOL0     C51715   5.961  11.349   0.937  0.6580  0.0020  0.3500
  384MOL0     C51716   6.041  11.238   0.869  0.1686  0.2279  0.3412
  384MOL0     C51717   6.192  11.277   0.860  0.6758  0.2637 -1.1251
  384MOL0     C51718   6.265  11.206   0.743 -1.1829  0.3068 -0.3028
  384MOL0     C51719   6.420  11.199   0.761  0.3756 -0.0932  0.0425
  384MOL0     C51720   6.504  11.320   0.697 -0.1805 -0.4594  0.1036
  384MOL0     C51721   6.647  11.289   0.692  0.3048  0.1349 -0.2851
  384MOL0     N51722   6.679  11.185   0.592  0.3338 -1.0192  0.3028
  384MOL0     C51723   6.681  11.049   0.617 -0.4630 -0.4383 -0.8508
  384MOL0     C51724   6.697  11.001   0.490 -0.5482  0.0807  0.1414
  384MOL0     C51725   6.708  10.861   0.444  0.2994 -0.5698  0.3830
  384MOL0     C51726   6.575  10.794   0.452 -0.2504 -0.0962 -0.0437
  384MOL0     C51727   6.521  10.767   0.588 -0.5421  1.4104 -0.1254
  384MOL0     C51728   6.413  10.658   0.590 -0.2773 -0.5440  0.6390
  384MOL0     O51729   6.378  10.643   0.729  0.9475  0.2322  0.6921
  384MOL0     C51730   6.263  10.701   0.778 -0.8342  0.1864  1.5522
  384MOL0     C51731   6.180  10.793   0.704 -0.6557  0.3093  0.0588
  384MOL0     C51732   6.055  10.843   0.750 -0.2660 -0.2557 -0.9073
  384MOL0     C51733   5.991  10.930   0.639 -0.0238 -1.0900 -0.5235
  384MOL0     C51734   6.006  10.797   0.877  0.0133  0.0337 -1.4808
  384MOL0     C51735   5.889  10.847   0.949  0.8857  0.0098  0.0013
  384MOL0     O51736   5.838  10.773   1.055  0.4342  0.2524  0.5595
  384MOL0     C51737   5.745  10.833   1.139 -0.4508  0.3345  0.7634
  384MOL0     C51738   5.614  10.779   1.152 -0.3459 -0.9446  0.7279
  384MOL0     C51739   5.533  10.816   1.251 -0.2314 -0.1620 -0.1010
  384MOL0     C51740   5.567  10.919   1.344  0.1486  1.2967 -0.0668
  384MOL0     O51741   5.469  10.943   1.432 -0.3219 -0.0003 -0.2554
  384MOL0     C51742   5.466  11.045   1.531  0.7045  0.1010 -0.9142
  384MOL0     C51743   5.341  11.045   1.615  0.0261  0.1754 -0.0481
  384MOL0     C51744   5.312  11.182   1.665 -1.0090  0.3249 -0.4251
  384MOL0     C51745   5.216  11.165   1.780  0.0405 -0.0712 -0.3781
  384MOL0     C51746   5.176  11.308   1.797 -0.2056  0.4703 -0.1552
  384MOL0     C51747   5.069  11.323   1.904 -0.8938  0.4032 -0.1500
  384MOL0     C51748   5.009  11.453   1.927 -0.6173 -0.6946 -0.2179
  384MOL0     C51749   4.859  11.448   1.928 -0.5286  0.0746  0.0471
  384MOL0    Cl51750   4.789  11.465   1.761  0.4966  0.1180  0.1539
  384MOL0     C51751   5.699  10.969   1.330 -0.0426 -0.0422 -0.0280
  384MOL0     C51752   5.790  10.928   1.236  0.6986 -0.3630 -0.5755
  384MOL0     O51753   5.841  10.955   0.913  0.2916 -0.5129  0.8190
  384MOL0     C51754   6.091  10.706   0.949  0.6399  0.4327  0.3955
  384MOL0     C51755   6.216  10.660   0.901 -0.0367  0.0192  0.0813
  384MOL0     N51756   6.732  11.102   0.402 -0.1927  0.3587 -0.1910
  384MOL0     N51757   6.714  11.207   0.459  0.1423 -0.5242  0.8506
  384MOL0     C51758   5.565  11.553   1.079 -0.5016 -0.7592 -0.5200
  384MOL0     C51759   5.440  11.558   1.142 -0.4097 -0.1034 -0.1166
  384MOL0     C51760   5.018  11.454   1.215 -0.2036 -0.0266 -0.0487
  384MOL0     C51761   4.983  11.478   1.357 -0.2729 -0.8753  0.5252
  384MOL0     C51762   4.846  11.498   1.385 -0.3957 -0.1605 -1.1407
  384MOL0     C51763   4.751  11.509   1.281  0.8925  0.2853  0.0276
  384MOL0     O51764   4.613  11.516   1.293 -0.6250  0.1118 -0.3830
  384MOL0     C51765   4.546  11.535   1.422 -0.8907 -0.4145 -0.0711
  384MOL0     C51766   4.513  11.682   1.447 -1.0540 -0.1734  0.3726
  384MOL0     C51767   4.634  11.776   1.424 -0.3197  0.3217  0.1639
  384MOL0     C51768   4.623  11.912   1.491  1.4119 -0.3681 -0.5850
  384MOL0     C51769   4.745  11.998   1.495  0.2174 -0.4014  0.6270
  384MOL0     C51770   4.857  12.049   1.506 -0.1911  0.9645  0.1751
  384MOL0     C51771   4.788  11.491   1.150  0.4498  0.0546 -0.1289
  384MOL0     C51772   4.920  11.470   1.114  0.8799 -0.3329 -0.3764
  384MOL0     H51773   5.418  11.220   1.229  0.9098 -0.0012  0.3279
  384MOL0     H51774   5.645  11.230   1.159  2.8130  2.2801  0.7700
  384MOL0     H51775   5.854  11.238   1.080 -1.3663 -0.5955  0.8629
  384MOL0     H51776   5.776  11.243   0.928 -0.5155 -1.4648  3.7711
  384MOL0     H51777   5.923  11.402   0.849  3.1264 -1.0050 -1.4505
  384MOL0     H51778   6.025  11.411   1.000 -0.2976  1.1398  0.2264
  384MOL0     H51779   6.040  11.149   0.934 -3.0807 -0.0738  0.0501
  384MOL0     H51780   5.998  11.219   0.771 -0.0465  3.1664 -0.2012
  384MOL0     H51781   6.221  11.382   0.866  2.8106 -0.3542  3.6731
  384MOL0     H51782   6.252  11.257   0.949 -0.5973 -0.3624 -0.3853
  384MOL0     H51783   6.220  11.108   0.725 -0.9003  0.1523 -0.1670
  384MOL0     H51784   6.241  11.264   0.653  0.2205  0.0512 -0.8711
  384MOL0     H51785   6.448  11.186   0.866 -0.5758 -2.7395  0.0551
  384MOL0     H51786   6.461  11.117   0.701  1.6512  0.5166  0.0535
  384MOL0     H51787   6.466  11.326   0.595 -0.5020  0.2616  0.2652
  384MOL0     H51788   6.491  11.417   0.746 -0.9107 -0.8953  0.7863
  384MOL0     H51789   6.679  11.266   0.794  2.8064  2.4043 -0.4508
  384MOL0     H51790   6.697  11.380   0.657 -1.1960  0.8459 -0.6862
  384MOL0     H51791   6.662  11.012   0.717  0.4769  3.4668  0.9845
  384MOL0     H51792   6.743  10.861   0.340 -0.0318 -2.4469  0.2340
  384MOL0     H51793   6.776  10.813   0.515 -1.2003 -0.5114  1.9214
  384MOL0     H51794   6.592  10.696   0.406 -2.8708 -0.0151 -1.3619
  384MOL0     H51795   6.501  10.852   0.397 -0.9245  2.6156  3.3253
  384MOL0     H51796   6.477  10.857   0.632 -1.9353  0.5036  0.3940
  384MOL0     H51797   6.602  10.729   0.652 -2.8607 -1.3317  1.4014
  384MOL0     H51798   6.452  10.563   0.554  1.4760  0.7524 -1.1023
  384MOL0     H51799   6.344  10.677   0.507  0.5852  0.2093  0.0774
  384MOL0     H51800   6.224  10.817   0.608 -0.8428 -2.2830 -0.7662
  384MOL0     H51801   6.024  10.890   0.543  4.0020 -1.6636  0.9083
  384MOL0     H51802   5.881  10.926   0.637 -0.1075  0.2580 -0.0221
  384MOL0     H51803   6.027  11.032   0.652 -2.9131 -0.1890  1.6310
  384MOL0     H51804   5.599  10.701   1.078  1.5903  1.1008 -2.0373
  384MOL0     H51805   5.438  10.765   1.263 -1.5526  1.7953 -1.6266
  384MOL0     H51806   5.556  11.039   1.592  0.1737  1.4503  0.0623
  384MOL0     H51807   5.461  11.133   1.467 -2.6046  2.1123  1.7738
  384MOL0     H51808   5.253  11.005   1.563 -0.8964 -0.0400  1.6201
  384MOL0     H51809   5.374  10.990   1.704  0.5115  0.2045 -0.2033
  384MOL0     H51810   5.272  11.244   1.584  0.5354  0.2669 -1.2617
  384MOL0     H51811   5.401  11.233   1.703 -1.2803 -0.1418  0.8872
  384MOL0     H51812   5.122  11.118   1.751 -3.3708  4.4334  2.0220
  384MOL0     H51813   5.268  11.117   1.863 -0.6583 -0.3262 -0.0785
  384MOL0     H51814   5.128  11.348   1.708  3.6531  1.3481 -2.0391
  384MOL0     H51815   5.256  11.373   1.833  0.3325 -0.9448  1.3487
  384MOL0     H51816   4.991  11.257   1.866  0.3253 -1.7844  0.9809
  384MOL0     H51817   5.116  11.290   1.997  1.7997 -4.4133 -2.8361
  384MOL0     H51818   5.045  11.527   1.855  1.3209  1.9434  3.1269
  384MOL0     H51819   5.053  11.504   2.014  0.8891  2.2548 -2.5348
  384MOL0     H51820   4.835  11.540   1.982  1.6395 -0.5499  2.2166
  384MOL0     H51821   4.817  11.362   1.980 -2.3697  0.9917  0.1678
  384MOL0     H51822   5.735  11.057   1.383  0.6218  0.9545 -2.0565
  384MOL0     H51823   5.894  10.958   1.246  0.1386  1.2951  0.7455
  384MOL0     H51824   6.062  10.666   1.046  0.2864  2.8638  1.3779
  384MOL0     H51825   6.271  10.589   0.963  2.5050  1.6479 -0.1676
  384MOL0     H51826   5.606  11.629   1.013  0.1725 -0.0276  0.7032
  384MOL0     H51827   5.397  11.656   1.161 -3.4275 -0.6547 -3.0883
  384MOL0     H51828   5.055  11.454   1.435  0.5410  0.7797  0.3194
  384MOL0     H51829   4.805  11.512   1.485  2.1090 -1.8332  0.2175
  384MOL0     H51830   4.450  11.483   1.428 -1.8380  1.3165  4.7858
  384MOL0     H51831   4.613  11.494   1.498  2.3535  2.9840 -0.7999
  384MOL0     H51832   4.479  11.694   1.550 -0.2232  0.6387  0.5585
  384MOL0     H51833   4.433  11.725   1.387 -0.1517  0.5662 -0.3251
  384MOL0     H51834   4.671  11.786   1.322 -0.2379 -0.8818  0.0566
  384MOL0     H51835   4.720  11.728   1.470  1.7112  3.2028 -0.3737
  384MOL0     H51836   4.586  11.902   1.594  2.9984 -1.8491 -0.1151
  384MOL0     H51837   4.542  11.963   1.438 -1.3063 -0.5039  3.0521
  384MOL0     H51838   4.956  12.081   1.530  0.9500 -2.1372  0.1271
  384MOL0     H51839   4.712  11.482   1.073 -0.0347 -4.9046  0.6167
  384MOL0     H51840   4.949  11.452   1.011  1.4360 -0.7329 -0.1625
  385MOL0     O51841   1.301   0.261   9.297  0.5636 -0.3168 -0.2220
  385MOL0     C51842   1.296   0.152   9.357  0.4721 -0.4300 -0.0896
  385MOL0     O51843   1.247   0.046   9.312 -0.7838  1.4760 -0.6690
  385MOL0     C51844   1.220   0.033   9.179 -0.1715 -0.3396  0.4952
  385MOL0     C51845   1.088   0.000   9.143  0.2294 -0.5215  0.6675
  385MOL0     C51846   1.056  -0.022   9.005 -0.1554  0.8496 -0.1025
  385MOL0     C51847   1.153  -0.026   8.906  0.0651  0.3773 -0.4819
  385MOL0     O51848   1.127  -0.066   8.775  0.2021  0.9509  0.1055
  385MOL0     C51849   1.000  -0.123   8.735 -0.0336 -1.1752  0.2678
  385MOL0     C51850   0.992  -0.185   8.593 -0.1199 -0.3318  0.0271
  385MOL0     C51851   0.855  -0.169   8.529  0.1381  0.2632 -0.7078
  385MOL0     C51852   0.760  -0.270   8.577  0.0571  0.1502 -0.1668
  385MOL0     C51853   0.616  -0.225   8.539 -1.1499  0.5991 -0.0358
  385MOL0     C51854   0.592  -0.275   8.394  0.6879 -0.8670 -0.6171
  385MOL0     C51855   0.462  -0.212   8.339 -0.5156  0.2196  0.3347
  385MOL0     C51856   0.479  -0.063   8.295 -0.5380  0.4387 -0.4680
  385MOL0     N51857   0.354  -0.027   8.240 -0.3121  0.2380  0.7995
  385MOL0     C51858   0.313   0.100   8.204  0.4063  0.6681 -0.3829
  385MOL0     C51859   0.179   0.093   8.185  0.1449 -0.8545  1.0961
  385MOL0     C51860   0.096   0.205   8.137  0.0867  0.2273  0.3261
  385MOL0     C51861   0.156   0.267   8.018  0.1936  0.6903 -0.2460
  385MOL0     C51862   0.069   0.376   7.957  0.0349  0.7142  0.1835
  385MOL0     C51863   0.059   0.355   7.805 -0.2645 -0.3437 -0.3843
  385MOL0     O51864  -0.012   0.235   7.767  0.8327 -0.3968  0.4542
  385MOL0     C51865  -0.147   0.241   7.746  0.3600  0.5188 -0.2571
  385MOL0     C51866  -0.211   0.129   7.678  0.6465 -0.0226 -0.1414
  385MOL0     C51867  -0.348   0.126   7.655  0.5511  0.7523 -0.0317
  385MOL0     C51868  -0.399  -0.006   7.609  0.4497  0.5520  0.0594
  385MOL0     C51869  -0.423   0.248   7.669  0.5377 -0.1925 -0.0105
  385MOL0     C51870  -0.564   0.259   7.645  1.5501 -0.3573 -0.2864
  385MOL0     O51871  -0.624   0.380   7.652 -0.0023 -0.7929 -0.7261
  385MOL0     C51872  -0.763   0.380   7.667  0.1050  0.2482  0.1660
  385MOL0     C51873  -0.848   0.315   7.579 -0.2870  1.2999  0.3099
  385MOL0     C51874  -0.989   0.320   7.577 -0.9378 -0.6495  0.4293
  385MOL0     C51875  -1.052   0.397   7.677  0.0271  1.3108  0.2401
  385MOL0     O51876  -1.187   0.404   7.666  0.6591  0.5458  0.1465
  385MOL0     C51877  -1.272   0.435   7.778  0.8772  0.0693  0.7439
  385MOL0     C51878  -1.421   0.452   7.729 -0.2360 -0.1990  0.3080
  385MOL0     C51879  -1.475   0.599   7.751  0.5288 -0.5578 -0.7696
  385MOL0     C51880  -1.572   0.634   7.643 -0.5318 -0.2973 -0.6499
  385MOL0     C51881  -1.697   0.660   7.709  0.7468  0.6890 -0.6093
  385MOL0     C51882  -1.810   0.710   7.615  0.3126 -0.1165  0.0983
  385MOL0     C51883  -1.908   0.772   7.708  0.1932  0.1490 -0.5671
  385MOL0     C51884  -2.023   0.830   7.636  0.0247  0.1428  0.2668
  385MOL0    Cl51885  -2.099   0.930   7.754  0.2401 -0.1333  0.2323
  385MOL0     C51886  -0.970   0.468   7.768  0.0871 -0.1730 -0.8763
  385MOL0     C51887  -0.826   0.466   7.759  0.4329  0.3052 -0.2821
  385MOL0     O51888  -0.629   0.160   7.632 -0.6227 -0.4292  0.3217
  385MOL0     C51889  -0.356   0.361   7.720 -0.1729  0.2305  0.4507
  385MOL0     C51890  -0.221   0.360   7.763  0.5572  0.5538  0.4810
  385MOL0     N51891   0.133  -0.029   8.206 -0.5377  0.3479 -1.2563
  385MOL0     N51892   0.235  -0.101   8.240 -0.0473  0.5129  0.4104
  385MOL0     C51893   1.288   0.004   8.940  0.5857 -0.0040 -0.8243
  385MOL0     C51894   1.322   0.027   9.077  1.3552 -0.5207 -0.4475
  385MOL0     C51895   1.381   0.141   9.483  0.1248  0.3271  0.2562
  385MOL0     C51896   1.412   0.017   9.535  0.6964 -0.9685 -1.4616
  385MOL0     C51897   1.518   0.008   9.632 -1.1626 -0.6755 -0.7439
  385MOL0     C51898   1.581   0.132   9.677  0.2001  0.4633  0.7718
  385MOL0     O51899   1.694   0.135   9.757 -0.4170  0.4311 -0.4941
  385MOL0     C51900   1.747   0.013   9.807  0.1920  0.0829 -0.6260
  385MOL0     C51901   1.810   0.026   9.946 -0.5299  0.2248  0.5041
  385MOL0     C51902   1.814  -0.102  10.031  0.5025  0.3045 -0.6015
  385MOL0     C51903   1.683  -0.135  10.108 -0.2752  0.4055 -0.4319
  385MOL0     C51904   1.692  -0.278  10.148 -0.1535  0.5433 -1.0231
  385MOL0     C51905   1.683  -0.395  10.176  0.6445 -0.7511 -0.4553
  385MOL0     C51906   1.531   0.252   9.631  0.1335  0.3796  0.1056
  385MOL0     C51907   1.447   0.247   9.519 -0.1050 -0.3730 -0.5115
  385MOL0     H51908   0.993  -0.005   9.195  0.0424 -2.3209  0.2102
  385MOL0     H51909   0.954  -0.043   8.971  1.4712 -2.0213 -3.9855
  385MOL0     H51910   0.977  -0.197   8.813 -0.3412 -0.6018  0.7286
  385MOL0     H51911   0.923  -0.046   8.741  0.9277 -0.2803  1.8059
  385MOL0     H51912   1.055  -0.125   8.526 -2.4077  1.4995 -0.6131
  385MOL0     H51913   1.028  -0.288   8.580  2.6563  0.7638 -1.9697
  385MOL0     H51914   0.818  -0.069   8.554 -1.1986 -0.6025  0.9612
  385MOL0     H51915   0.869  -0.190   8.422 -1.5774  0.2548 -0.9484
  385MOL0     H51916   0.784  -0.368   8.537 -2.4733 -1.5568  2.1238
  385MOL0     H51917   0.770  -0.272   8.686 -1.0671 -1.9762 -0.0475
  385MOL0     H51918   0.548  -0.276   8.607  1.2168 -2.3143  0.3538
  385MOL0     H51919   0.604  -0.116   8.545 -2.0431  0.4477  1.3135
  385MOL0     H51920   0.673  -0.251   8.325  0.6988  2.4438  0.3636
  385MOL0     H51921   0.584  -0.383   8.406 -1.0380 -0.6810  0.3251
  385MOL0     H51922   0.431  -0.284   8.262  1.5935  3.3342 -3.8074
  385MOL0     H51923   0.394  -0.208   8.425  0.3397 -0.1275  1.0473
  385MOL0     H51924   0.551  -0.048   8.215  3.6477  1.1649  3.0530
  385MOL0     H51925   0.502   0.004   8.378  0.7204  0.1397 -0.5635
  385MOL0     H51926   0.380   0.185   8.207  1.2908 -0.0091 -0.4604
  385MOL0     H51927  -0.001   0.160   8.113  0.4534 -1.5621  1.9095
  385MOL0     H51928   0.079   0.283   8.212 -0.1436  1.6272 -1.1311
  385MOL0     H51929   0.177   0.186   7.948 -0.3057  0.8849 -0.6270
  385MOL0     H51930   0.248   0.325   8.026  0.2864  0.7140 -1.3120
  385MOL0     H51931   0.115   0.470   7.992  1.7346 -0.8045  2.2926
  385MOL0     H51932  -0.034   0.367   7.993  0.0689 -0.4145  0.0119
  385MOL0     H51933   0.164   0.359   7.774  0.5366  0.4577  2.1283
  385MOL0     H51934   0.012   0.446   7.766  0.8051  2.0116  3.2537
  385MOL0     H51935  -0.146   0.047   7.652 -0.7931 -0.9305 -1.0762
  385MOL0     H51936  -0.483   0.011   7.541  0.3769  2.0925  0.4881
  385MOL0     H51937  -0.318  -0.064   7.563 -0.9097 -0.4050 -1.2221
  385MOL0     H51938  -0.437  -0.070   7.688 -0.7418 -1.5429 -2.0878
  385MOL0     H51939  -0.800   0.273   7.491 -0.0250 -0.8520  1.4155
  385MOL0     H51940  -1.052   0.279   7.499 -0.4899 -0.7497  0.1121
  385MOL0     H51941  -1.256   0.364   7.859 -3.2486 -2.9836 -0.7901
  385MOL0     H51942  -1.237   0.532   7.815  0.9066  0.8366 -1.1757
  385MOL0     H51943  -1.418   0.425   7.623  2.3228 -0.2073  0.3086
  385MOL0     H51944  -1.497   0.392   7.779  0.2312 -2.6643 -1.7397
  385MOL0     H51945  -1.397   0.675   7.751 -1.5148  1.6519 -0.8309
  385MOL0     H51946  -1.523   0.605   7.849 -2.1220  1.8357 -2.0829
  385MOL0     H51947  -1.545   0.724   7.587  1.0098 -0.7643 -0.6922
  385MOL0     H51948  -1.593   0.558   7.566 -1.3663 -0.7544  0.0137
  385MOL0     H51949  -1.691   0.726   7.796  2.6145  2.1279 -1.7717
  385MOL0     H51950  -1.739   0.571   7.758 -1.7497  2.2117  0.2123
  385MOL0     H51951  -1.772   0.789   7.549  0.3918 -1.3112 -1.3425
  385MOL0     H51952  -1.859   0.637   7.550 -2.5796  1.8264 -0.0566
  385MOL0     H51953  -1.871   0.853   7.771 -1.6660 -1.5954  3.0572
  385MOL0     H51954  -1.954   0.696   7.771  1.4058  0.3577  0.5942
  385MOL0     H51955  -2.075   0.745   7.590  1.2561 -0.3280 -0.2913
  385MOL0     H51956  -1.990   0.890   7.550 -0.9990 -0.1596 -0.3608
  385MOL0     H51957  -1.006   0.524   7.854  2.4375 -1.2994  0.9635
  385MOL0     H51958  -0.775   0.534   7.827  1.6666 -0.8426 -0.0065
  385MOL0     H51959  -0.414   0.448   7.748 -0.4541 -0.2234  1.3039
  385MOL0     H51960  -0.183   0.450   7.809 -0.7287  0.2751  2.1748
  385MOL0     H51961   1.362  -0.012   8.862  0.0452 -2.8496 -0.8595
  385MOL0     H51962   1.422   0.060   9.101  0.4232  1.4626  1.0571
  385MOL0     H51963   1.361  -0.077   9.515 -0.0141 -0.9126  0.0067
  385MOL0     H51964   1.544  -0.093   9.660 -0.8101 -0.0406  1.4012
  385MOL0     H51965   1.672  -0.065   9.821  4.1435 -3.7335  1.7050
  385MOL0     H51966   1.824  -0.024   9.740  2.7918 -2.2993  3.2684
  385MOL0     H51967   1.768   0.109  10.005  0.5776  2.3008 -1.4652
  385MOL0     H51968   1.916   0.054   9.939  0.4769 -2.3382  3.2505
  385MOL0     H51969   1.896  -0.091  10.101  2.4020  2.3689 -2.9550
  385MOL0     H51970   1.846  -0.181   9.962 -0.9429  0.8502 -1.9498
  385MOL0     H51971   1.605  -0.134  10.031  0.0026  2.6167 -0.7406
  385MOL0     H51972   1.660  -0.069  10.191 -0.3485  0.5039 -0.5307
  385MOL0     H51973   1.690  -0.498  10.208  0.2086 -0.0194  2.2665
  385MOL0     H51974   1.587   0.338   9.666  0.8805  0.7195 -1.7954
  385MOL0     H51975   1.430   0.343   9.471  0.9738 -0.1586 -0.4765
  386MOL0     O51976   3.714   6.813   3.106  0.5096  0.1808  0.9618
  386MOL0     C51977   3.726   6.884   3.012 -0.4755 -0.6394  0.1032
  386MOL0     O51978   3.833   6.881   2.932 -0.5068 -0.1243  0.8011
  386MOL0     C51979   3.939   6.786   2.927  0.3789 -0.4148  0.1972
  386MOL0     C51980   4.057   6.832   2.867 -0.7908  0.2552 -0.3582
  386MOL0     C51981   4.169   6.746   2.852 -0.4486  0.2926  0.4867
  386MOL0     C51982   4.153   6.615   2.887  0.3485 -0.4488 -0.0361
  386MOL0     O51983   4.241   6.507   2.851  0.5612 -0.7772 -0.3232
  386MOL0     C51984   4.369   6.537   2.782  0.3761 -0.2677 -0.2530
  386MOL0     C51985   4.450   6.410   2.782 -1.0072 -0.8574 -0.1988
  386MOL0     C51986   4.501   6.357   2.924  0.3379  0.3364  0.2491
  386MOL0     C51987   4.596   6.231   2.900 -0.5637  0.1155  0.1585
  386MOL0     C51988   4.522   6.113   2.844 -0.2809  0.1339 -0.2082
  386MOL0     C51989   4.601   5.979   2.844  0.0637 -0.6128  0.7406
  386MOL0     C51990   4.730   5.984   2.752  0.8493  0.4592  0.7244
  386MOL0     C51991   4.768   5.837   2.727 -0.0691  0.3622  0.4526
  386MOL0     N51992   4.845   5.831   2.597  0.7090 -0.1913  0.0921
  386MOL0     C51993   4.977   5.863   2.581 -0.8255 -0.6679 -0.7639
  386MOL0     C51994   5.005   5.811   2.463  0.3980  0.5700  0.0667
  386MOL0     C51995   5.128   5.814   2.390 -0.7710 -0.0438  0.1879
  386MOL0     C51996   5.231   5.700   2.428  0.5673  1.0564  0.9128
  386MOL0     C51997   5.317   5.663   2.304  0.6299 -0.0492 -0.4235
  386MOL0     C51998   5.253   5.571   2.201  0.8037  0.1346 -0.8989
  386MOL0     O51999   5.254   5.430   2.253 -0.2716 -0.5730  0.3168
  386MOL0     C52000   5.136   5.364   2.240  0.0574 -0.5395  0.2342
  386MOL0     C52001   5.147   5.235   2.196 -0.6228 -0.4455  0.1770
  386MOL0     C52002   5.039   5.144   2.209  0.7119  0.8682  0.4484
  386MOL0     C52003   5.063   5.000   2.162  0.4016 -0.0987 -0.4076
  386MOL0     C52004   4.912   5.178   2.248  0.1502 -1.1009 -0.1179
  386MOL0     C52005   4.791   5.091   2.252 -0.0177  0.1871 -1.3632
  386MOL0     O52006   4.696   5.119   2.339 -0.3685 -0.5272 -0.4205
  386MOL0     C52007   4.572   5.050   2.343  0.0278 -0.7695 -0.2818
  386MOL0     C52008   4.460   5.132   2.378 -0.0231 -0.7217 -0.5690
  386MOL0     C52009   4.328   5.075   2.397 -0.7309 -0.1880 -0.2894
  386MOL0     C52010   4.305   4.949   2.341  0.0220  0.0055 -0.5059
  386MOL0     O52011   4.178   4.891   2.324 -0.5371  1.1859  0.5292
  386MOL0     C52012   4.080   4.920   2.426 -0.2239  0.0288  1.7309
  386MOL0     C52013   4.128   4.891   2.562  0.5033  0.1110 -0.4975
  386MOL0     C52014   4.102   4.740   2.600 -0.1950 -0.4259 -0.2126
  386MOL0     C52015   4.153   4.709   2.739  0.1726  0.0781 -0.1010
  386MOL0     C52016   4.090   4.578   2.784 -0.5903  0.6651  0.4384
  386MOL0     C52017   4.100   4.540   2.934  1.1444  0.7195 -0.8219
  386MOL0     C52018   4.238   4.534   2.984  0.4907  0.2161 -0.2800
  386MOL0     C52019   4.240   4.497   3.134  0.9843  0.4829 -0.2298
  386MOL0    Cl52020   4.406   4.474   3.207 -0.0925  0.2072 -0.4541
  386MOL0     C52021   4.412   4.871   2.290 -0.3475  0.6331 -0.1453
  386MOL0     C52022   4.540   4.919   2.306  0.0319  0.0847 -0.5588
  386MOL0     O52023   4.778   5.010   2.161  0.3994 -0.2845 -0.4713
  386MOL0     C52024   4.905   5.313   2.281 -0.0720 -0.2427 -0.3856
  386MOL0     C52025   5.009   5.403   2.275  0.2353 -0.7114 -0.3770
  386MOL0     N52026   4.890   5.760   2.407 -0.7531  0.5607 -0.1150
  386MOL0     N52027   4.796   5.760   2.496  1.0449 -0.2254  0.6638
  386MOL0     C52028   4.034   6.574   2.945 -0.1426  0.5780  0.0291
  386MOL0     C52029   3.931   6.656   2.960  0.9282 -0.7244  0.6914
  386MOL0     C52030   3.630   6.994   2.992 -0.8010 -0.3293 -0.2749
  386MOL0     C52031   3.512   6.994   3.058 -0.6286  0.7353  0.1954
  386MOL0     C52032   3.418   7.099   3.044  0.1594 -0.4483 -1.2092
  386MOL0     C52033   3.445   7.217   2.981  0.4724 -1.4570  0.0585
  386MOL0     O52034   3.344   7.308   2.992 -0.6104 -0.3555  0.3555
  386MOL0     C52035   3.380   7.450   2.957  0.8109 -0.2194  0.3150
  386MOL0     C52036   3.297   7.538   3.051 -0.1739  0.4413 -0.0207
  386MOL0     C52037   3.149   7.518   3.049  0.0090 -0.5887  0.3119
  386MOL0     C52038   3.084   7.608   3.159 -0.9069  0.2504 -0.1189
  386MOL0     C52039   2.941   7.576   3.172  0.0514 -0.1774 -0.0785
  386MOL0     C52040   2.826   7.549   3.177 -0.0844  0.8368  0.3216
  386MOL0     C52041   3.565   7.226   2.915  0.7852 -0.4849  0.2904
  386MOL0     C52042   3.650   7.109   2.905  0.7656  0.0437 -1.0214
  386MOL0     H52043   4.061   6.934   2.830 -1.5062  0.2994 -0.3287
  386MOL0     H52044   4.249   6.784   2.790  1.5624 -4.5295 -0.3506
  386MOL0     H52045   4.341   6.573   2.682 -2.0845 -0.4467  0.3107
  386MOL0     H52046   4.421   6.619   2.832  0.7953 -0.8747  0.3151
  386MOL0     H52047   4.376   6.343   2.736 -0.7256 -1.3930  0.1125
  386MOL0     H52048   4.543   6.423   2.726 -0.8671  2.6357  0.6686
  386MOL0     H52049   4.563   6.430   2.975 -2.5169  2.5020  0.9097
  386MOL0     H52050   4.418   6.322   2.986 -1.4991  0.2329 -2.0919
  386MOL0     H52051   4.677   6.264   2.833  1.6303 -0.7592  2.2395
  386MOL0     H52052   4.647   6.194   2.989 -0.4400 -2.8871 -1.0436
  386MOL0     H52053   4.423   6.102   2.888 -1.2102 -5.6154 -2.8115
  386MOL0     H52054   4.513   6.133   2.737 -0.7424 -3.6169 -1.0072
  386MOL0     H52055   4.636   5.954   2.944  2.8210  3.1201  0.9251
  386MOL0     H52056   4.527   5.912   2.799  0.7299  0.0875 -1.5459
  386MOL0     H52057   4.704   6.029   2.656 -1.3740 -0.9794  0.5828
  386MOL0     H52058   4.808   6.039   2.806  0.1287  2.1970  0.0636
  386MOL0     H52059   4.683   5.769   2.718 -0.1018  0.4754 -0.1392
  386MOL0     H52060   4.832   5.816   2.813 -2.1489  1.9044  2.5031
  386MOL0     H52061   5.051   5.907   2.648 -2.9042  0.4437  0.9337
  386MOL0     H52062   5.102   5.811   2.284 -1.2128 -2.0040  0.3233
  386MOL0     H52063   5.178   5.909   2.411  1.1357 -1.5363  3.0662
  386MOL0     H52064   5.180   5.614   2.472 -0.6330  3.0007  3.6784
  386MOL0     H52065   5.299   5.727   2.509  2.8384 -1.2838 -0.0907
  386MOL0     H52066   5.409   5.615   2.340  0.1898 -1.3135 -0.8996
  386MOL0     H52067   5.347   5.759   2.262 -1.3451  2.6833  3.7500
  386MOL0     H52068   5.306   5.589   2.107  0.6093  1.2945 -0.8054
  386MOL0     H52069   5.152   5.605   2.175  1.2344  1.6999 -0.6132
  386MOL0     H52070   5.247   5.196   2.181 -0.5485 -0.1310 -0.1808
  386MOL0     H52071   5.029   4.942   2.248 -2.5935 -0.1771 -1.5281
  386MOL0     H52072   5.020   4.989   2.062  1.9829 -2.7389 -0.8791
  386MOL0     H52073   5.171   4.987   2.149  0.2674 -0.5014 -1.1391
  386MOL0     H52074   4.475   5.237   2.400 -0.7542 -0.9317  1.0881
  386MOL0     H52075   4.261   5.145   2.447  1.4589  0.0925  2.5094
  386MOL0     H52076   4.041   5.022   2.413 -0.8268 -0.0030  3.1688
  386MOL0     H52077   3.996   4.854   2.402  2.1518 -1.6862 -3.0979
  386MOL0     H52078   4.229   4.930   2.573  0.5626  0.9265 -3.2028
  386MOL0     H52079   4.074   4.960   2.627  3.1633  1.0766  0.8315
  386MOL0     H52080   4.154   4.683   2.523 -2.1878  0.7839 -2.5970
  386MOL0     H52081   3.996   4.713   2.595 -0.4516  0.5161 -0.0298
  386MOL0     H52082   4.262   4.703   2.747 -0.0672 -3.4620  3.1303
  386MOL0     H52083   4.132   4.783   2.817  3.9808 -0.3747  1.6006
  386MOL0     H52084   4.147   4.503   2.727  3.2598  2.2561  1.8321
  386MOL0     H52085   3.984   4.573   2.757 -0.5264  0.6581  0.1821
  386MOL0     H52086   4.036   4.610   2.988  1.5867  1.0583 -0.7356
  386MOL0     H52087   4.051   4.442   2.934 -1.8639  2.0234 -3.9756
  386MOL0     H52088   4.282   4.630   2.957  0.4579  0.3205  0.0380
  386MOL0     H52089   4.288   4.453   2.930 -2.8931 -0.6922 -2.4155
  386MOL0     H52090   4.195   4.399   3.154  2.3299 -0.2210 -0.4921
  386MOL0     H52091   4.190   4.577   3.188  1.3571  1.2680 -1.0257
  386MOL0     H52092   4.399   4.771   2.249 -1.5103  0.0136  1.6359
  386MOL0     H52093   4.628   4.860   2.285 -1.1140 -1.4886 -1.0958
  386MOL0     H52094   4.809   5.345   2.318 -0.1384 -0.8627 -0.0127
  386MOL0     H52095   4.992   5.499   2.323  1.8046  0.1196 -1.3919
  386MOL0     H52096   4.018   6.469   2.968  0.0587  0.4463 -0.4180
  386MOL0     H52097   3.841   6.615   3.005  1.6658 -1.7186  1.3140
  386MOL0     H52098   3.485   6.921   3.134  1.6323 -0.9563 -0.4953
  386MOL0     H52099   3.328   7.083   3.103  1.0664  0.5041  0.5055
  386MOL0     H52100   3.484   7.481   2.972  0.5418  0.8579  0.0656
  386MOL0     H52101   3.352   7.469   2.853 -1.9783 -1.1031  0.8357
  386MOL0     H52102   3.314   7.641   3.021 -3.1501  1.4744  1.4870
  386MOL0     H52103   3.330   7.521   3.154 -0.6262 -3.1446 -0.3238
  386MOL0     H52104   3.108   7.417   3.062 -0.6514 -0.4769 -0.7986
  386MOL0     H52105   3.124   7.556   2.950  1.9393  1.5944  0.5648
  386MOL0     H52106   3.091   7.713   3.127  0.5160 -0.1824 -1.3647
  386MOL0     H52107   3.131   7.585   3.255  2.3757  3.5246 -0.7249
  386MOL0     H52108   2.722   7.526   3.193  0.4956 -2.5664 -0.0551
  386MOL0     H52109   3.585   7.312   2.851 -0.7245 -0.7852 -0.6320
  386MOL0     H52110   3.739   7.115   2.843  0.4615  1.5290 -1.3539
  387MOL0     O52111   7.683   5.604   7.836 -0.8944 -0.4456 -0.1706
  387MOL0     C52112   7.726   5.589   7.724 -0.3044  0.0817  0.1385
  387MOL0     O52113   7.711   5.471   7.654 -0.2099 -0.0119 -0.3251
  387MOL0     C52114   7.632   5.363   7.688 -0.1055  0.2806  0.1476
  387MOL0     C52115   7.656   5.248   7.621  0.6881  0.2946 -0.4358
  387MOL0     C52116   7.573   5.134   7.646  0.0862 -0.5506  0.1689
  387MOL0     C52117   7.465   5.138   7.738 -0.1109 -0.7908 -0.8504
  387MOL0     O52118   7.390   5.027   7.759 -0.4835  0.1484  0.1067
  387MOL0     C52119   7.425   4.893   7.712 -0.3322 -0.1744 -0.1184
  387MOL0     C52120   7.382   4.871   7.566  0.1591 -1.2420  0.3425
  387MOL0     C52121   7.441   4.739   7.512  0.3055 -0.4181  0.2830
  387MOL0     C52122   7.416   4.711   7.360 -1.2505 -0.3200 -0.3596
  387MOL0     C52123   7.475   4.579   7.297  0.8654  0.7175 -0.6369
  387MOL0     C52124   7.630   4.555   7.308 -0.2651 -0.9616  0.1974
  387MOL0     C52125   7.701   4.637   7.182  0.3761  0.5184 -1.2470
  387MOL0     C52126   7.684   4.570   7.045  0.5318  0.8019 -0.3069
  387MOL0     N52127   7.704   4.428   7.038 -0.8951  0.5430 -0.2739
  387MOL0     C52128   7.604   4.324   7.054 -0.7017 -0.1130 -0.6142
  387MOL0     C52129   7.678   4.211   7.042  0.5918 -0.1985  0.6063
  387MOL0     C52130   7.621   4.079   7.067 -0.2909  0.5932  0.2989
  387MOL0     C52131   7.651   3.976   6.956  0.2356  0.2961 -0.3989
  387MOL0     C52132   7.640   4.025   6.811 -0.6191  1.1839 -0.6623
  387MOL0     C52133   7.493   4.056   6.766 -0.1103 -0.1604 -0.6163
  387MOL0     O52134   7.407   3.947   6.777 -0.0041  0.5704 -0.0843
  387MOL0     C52135   7.351   3.878   6.674 -0.7411  0.3501  0.3258
  387MOL0     C52136   7.274   3.942   6.576 -0.2765  0.2562 -1.0543
  387MOL0     C52137   7.213   3.874   6.475  0.1357 -0.1748 -0.5089
  387MOL0     C52138   7.116   3.944   6.393  0.0165 -0.7494  0.2281
  387MOL0     C52139   7.251   3.737   6.452 -0.0740 -0.3267 -0.9674
  387MOL0     C52140   7.200   3.649   6.345  0.7800 -0.3555  0.7013
  387MOL0     O52141   7.269   3.526   6.334 -0.3610  0.6711 -0.0038
  387MOL0     C52142   7.268   3.448   6.226 -1.0395 -0.4546 -0.9018
  387MOL0     C52143   7.272   3.499   6.091 -0.3607 -0.7780 -0.1176
  387MOL0     C52144   7.290   3.412   5.990 -0.4779 -1.0116  0.2664
  387MOL0     C52145   7.295   3.274   6.006 -0.2873 -0.4351 -0.0413
  387MOL0     O52146   7.320   3.197   5.897  0.3094 -0.1997  0.4711
  387MOL0     C52147   7.323   3.049   5.899 -0.0433  0.1654  0.1147
  387MOL0     C52148   7.314   2.997   5.750  0.3846 -0.8214 -0.5495
  387MOL0     C52149   7.285   2.850   5.741 -0.0695 -0.4562 -0.1640
  387MOL0     C52150   7.411   2.758   5.785 -1.2246  0.7649  0.5890
  387MOL0     C52151   7.536   2.774   5.697 -0.1217  1.0067 -0.6017
  387MOL0     C52152   7.510   2.766   5.546  0.5165  0.9018 -0.2462
  387MOL0     C52153   7.649   2.798   5.467 -0.3386 -0.0694  0.0013
  387MOL0     C52154   7.632   2.854   5.326  0.8862  0.3896 -1.1176
  387MOL0    Cl52155   7.548   2.745   5.213 -0.5716  0.8901  0.1722
  387MOL0     C52156   7.280   3.223   6.146  0.1060 -0.2840  0.3764
  387MOL0     C52157   7.269   3.312   6.250  1.2095  0.7494  0.3665
  387MOL0     O52158   7.112   3.687   6.267 -0.5271  0.0698 -0.8561
  387MOL0     C52159   7.323   3.672   6.553  0.6397 -0.4724 -0.0386
  387MOL0     C52160   7.367   3.739   6.668  0.3427  0.5275  0.9787
  387MOL0     N52161   7.811   4.248   7.026 -0.4051 -0.8279 -0.5785
  387MOL0     N52162   7.826   4.371   7.013  0.6925 -1.4745  0.0726
  387MOL0     C52163   7.439   5.248   7.811  0.1622 -0.3957  0.0575
  387MOL0     C52164   7.521   5.366   7.777  0.2125  0.1212 -0.4908
  387MOL0     C52165   7.807   5.699   7.665 -0.6047  0.4059  0.8616
  387MOL0     C52166   7.908   5.674   7.572 -0.2356  0.1129 -1.4029
  387MOL0     C52167   7.997   5.775   7.535 -0.1464 -0.1108 -0.6609
  387MOL0     C52168   7.987   5.905   7.577  0.2798 -0.8291  0.3085
  387MOL0     O52169   8.070   6.001   7.524  0.5062 -0.6555 -0.4863
  387MOL0     C52170   8.017   6.131   7.511 -0.9068 -0.3332  0.6481
  387MOL0     C52171   8.081   6.234   7.607  0.1553  0.5336 -0.5434
  387MOL0     C52172   8.228   6.249   7.603 -1.1917 -0.2027 -0.2704
  387MOL0     C52173   8.271   6.359   7.693  0.0915  0.1081 -0.6818
  387MOL0     C52174   8.417   6.377   7.692 -0.5890 -0.1046  0.9866
  387MOL0     C52175   8.541   6.389   7.681 -0.0149  1.4010 -0.3712
  387MOL0     C52176   7.879   5.937   7.668 -0.0231 -0.4838  0.0776
  387MOL0     C52177   7.795   5.834   7.716  0.6487  0.2595 -0.2430
  387MOL0     H52178   7.734   5.244   7.545  0.2611 -1.2294 -0.8468
  387MOL0     H52179   7.598   5.048   7.585 -0.2087 -0.6233  0.1499
  387MOL0     H52180   7.533   4.874   7.712 -0.1506  0.8462 -0.0907
  387MOL0     H52181   7.389   4.810   7.773  3.5033 -2.9554 -1.2464
  387MOL0     H52182   7.273   4.871   7.567  0.0880  1.0103 -1.2275
  387MOL0     H52183   7.416   4.957   7.508 -0.7861  1.9441  4.0439
  387MOL0     H52184   7.549   4.734   7.525  0.7347 -1.3975 -2.7847
  387MOL0     H52185   7.390   4.657   7.564 -0.5182 -0.9652 -1.3189
  387MOL0     H52186   7.310   4.704   7.334 -1.3884  0.2391  0.0380
  387MOL0     H52187   7.451   4.804   7.314  1.5030  0.2815  2.6296
  387MOL0     H52188   7.416   4.501   7.346  1.6414  1.3978  1.4482
  387MOL0     H52189   7.432   4.572   7.196 -2.8244 -1.8466  0.8979
  387MOL0     H52190   7.660   4.606   7.400  1.3760 -3.4200  1.1299
  387MOL0     H52191   7.665   4.454   7.329  0.2823 -0.2933  2.9994
  387MOL0     H52192   7.668   4.741   7.188 -1.6611 -0.1714  1.8483
  387MOL0     H52193   7.808   4.648   7.204  0.0629  2.5784 -0.5877
  387MOL0     H52194   7.750   4.619   6.974  0.1934  2.2977  0.3581
  387MOL0     H52195   7.582   4.595   7.012 -1.5849 -1.6476  3.5702
  387MOL0     H52196   7.496   4.318   7.069 -0.6043 -2.0481 -0.3988
  387MOL0     H52197   7.675   4.041   7.154 -1.6611 -0.7699  0.5918
  387MOL0     H52198   7.516   4.066   7.096  1.2409 -5.0097  5.0501
  387MOL0     H52199   7.582   3.891   6.957 -0.8175  0.9533 -3.6078
  387MOL0     H52200   7.750   3.931   6.964 -0.5528 -1.1306  2.3637
  387MOL0     H52201   7.662   3.950   6.735 -0.2319 -0.2692  0.8318
  387MOL0     H52202   7.711   4.108   6.803  1.2169 -0.3941 -1.4681
  387MOL0     H52203   7.516   4.092   6.665  0.6516  1.1072 -0.0094
  387MOL0     H52204   7.455   4.143   6.819 -1.9580 -0.7856 -0.8399
  387MOL0     H52205   7.266   4.048   6.601 -1.8481  0.1475 -0.9941
  387MOL0     H52206   7.138   3.934   6.287 -0.0141  2.4719 -0.2061
  387MOL0     H52207   7.012   3.911   6.406 -0.6509  0.6019 -1.2118
  387MOL0     H52208   7.117   4.052   6.414  3.3284 -0.5490 -0.5284
  387MOL0     H52209   7.258   3.605   6.072 -0.4165 -0.8758 -0.6467
  387MOL0     H52210   7.281   3.459   5.893 -0.6004  3.0390  2.0599
  387MOL0     H52211   7.404   3.004   5.957  0.6232  0.6220 -0.4354
  387MOL0     H52212   7.232   3.013   5.948 -1.6620  0.3531 -2.5941
  387MOL0     H52213   7.223   3.039   5.706 -1.7896 -1.9876  2.4999
  387MOL0     H52214   7.402   3.016   5.687  1.2516 -1.1389  0.5331
  387MOL0     H52215   7.246   2.820   5.643 -2.5852  1.3627  0.1813
  387MOL0     H52216   7.208   2.812   5.809  1.6323 -1.4335  1.3408
  387MOL0     H52217   7.449   2.788   5.883  1.6793 -4.1601  1.3414
  387MOL0     H52218   7.402   2.649   5.795  2.3822  0.5233  3.2583
  387MOL0     H52219   7.603   2.688   5.709 -2.3088 -0.8118 -0.7190
  387MOL0     H52220   7.580   2.867   5.733  1.6466 -1.1467  3.4566
  387MOL0     H52221   7.472   2.670   5.511  2.5664 -1.1535  2.6803
  387MOL0     H52222   7.433   2.840   5.523  0.9091  1.3158 -0.2550
  387MOL0     H52223   7.709   2.706   5.470 -2.2275 -1.3401  0.2822
  387MOL0     H52224   7.702   2.877   5.520  0.7437  0.6704 -2.0638
  387MOL0     H52225   7.722   2.890   5.276  0.2801  1.3616 -1.5341
  387MOL0     H52226   7.556   2.931   5.341 -0.8258 -1.7057  1.9756
  387MOL0     H52227   7.285   3.117   6.169 -1.3260 -0.5333 -0.3380
  387MOL0     H52228   7.241   3.287   6.352 -0.2813  2.3032  0.3686
  387MOL0     H52229   7.347   3.566   6.555  2.9116 -0.1405 -2.8301
  387MOL0     H52230   7.422   3.690   6.747 -2.2201  0.3382  2.7632
  387MOL0     H52231   7.363   5.246   7.888 -0.3754 -3.6049 -0.4212
  387MOL0     H52232   7.489   5.458   7.826 -0.3256 -0.8043  0.9596
  387MOL0     H52233   7.913   5.575   7.527 -3.2107  0.2806 -2.3005
  387MOL0     H52234   8.083   5.750   7.474  1.8593  1.6138  1.3272
  387MOL0     H52235   8.031   6.170   7.410 -2.6902 -0.0421  0.4789
  387MOL0     H52236   7.908   6.122   7.519 -1.1954  1.6725 -0.3820
  387MOL0     H52237   8.047   6.212   7.709 -1.8967  0.3830 -1.2132
  387MOL0     H52238   8.041   6.333   7.584 -3.1385 -0.6400 -0.3842
  387MOL0     H52239   8.251   6.274   7.499 -0.1632  0.0831  0.0172
  387MOL0     H52240   8.279   6.157   7.634 -1.9260 -1.0442 -1.4715
  387MOL0     H52241   8.224   6.341   7.790 -1.0666 -2.9829 -1.7019
  387MOL0     H52242   8.228   6.449   7.646 -2.8541 -2.5114 -3.5843
  387MOL0     H52243   8.646   6.411   7.678 -0.1374  2.0214 -0.1873
  387MOL0     H52244   7.877   6.026   7.729 -5.0868  1.5457 -2.4813
  387MOL0     H52245   7.723   5.873   7.788 -1.4051  0.2351 -2.1845
  388MOL0     O52246  10.645   3.497   1.937  0.7631 -0.2391 -0.0841
  388MOL0     C52247  10.609   3.535   2.052 -0.8433 -0.4424  0.7335
  388MOL0     O52248  10.480   3.556   2.096  0.9041  0.0523  0.6386
  388MOL0     C52249  10.389   3.585   1.995 -0.7077 -0.2096  0.3804
  388MOL0     C52250  10.342   3.715   1.981 -0.1649 -0.6244  0.0880
  388MOL0     C52251  10.251   3.743   1.881  0.8642 -0.4115  0.3749
  388MOL0     C52252  10.208   3.656   1.782 -0.8089 -1.1535  0.0615
  388MOL0     O52253  10.131   3.687   1.673  0.4453 -0.9729  0.5829
  388MOL0     C52254  10.076   3.818   1.659  0.1916  0.2611 -0.0500
  388MOL0     C52255  10.035   3.841   1.513  0.3002 -0.3132 -0.0509
  388MOL0     C52256   9.918   3.944   1.516 -0.0826 -0.4708 -0.2830
  388MOL0     C52257   9.882   4.003   1.378 -0.3012  0.6239 -0.6737
  388MOL0     C52258   9.783   4.126   1.370 -0.8415 -1.0662  0.0338
  388MOL0     C52259   9.780   4.169   1.224 -0.0313  0.8396 -0.4540
  388MOL0     C52260   9.898   4.247   1.176 -0.5103 -0.0179  0.1815
  388MOL0     C52261   9.876   4.307   1.038  0.4035 -0.4281 -0.0450
  388MOL0     N52262   9.981   4.409   1.010 -0.1064  0.1422 -0.5958
  388MOL0     C52263  10.125   4.395   1.012 -0.0013 -0.5062  0.4203
  388MOL0     C52264  10.167   4.523   0.996  0.0932 -0.2472  0.0412
  388MOL0     C52265  10.308   4.566   1.008 -0.1346 -0.1470  0.8871
  388MOL0     C52266  10.342   4.624   0.872 -0.2485  0.2743  0.6870
  388MOL0     C52267  10.357   4.522   0.757 -0.5532 -0.6326  0.6655
  388MOL0     C52268  10.335   4.611   0.631 -0.1332  1.2053  0.3622
  388MOL0     O52269  10.438   4.708   0.602  0.4623 -0.0734  0.1102
  388MOL0     C52270  10.414   4.810   0.511  0.6308 -0.7559 -0.1239
  388MOL0     C52271  10.521   4.896   0.491 -0.3563 -0.5982 -0.4708
  388MOL0     C52272  10.508   4.991   0.381  0.1137  0.8074  0.4123
  388MOL0     C52273  10.641   5.070   0.357  0.1240 -0.2924  0.1712
  388MOL0     C52274  10.389   5.015   0.303 -0.0572  0.4826  0.2224
  388MOL0     C52275  10.374   5.112   0.191  0.0984  0.1779 -0.5043
  388MOL0     O52276  10.247   5.132   0.152  0.1365  0.1113  0.2552
  388MOL0     C52277  10.215   5.218   0.042  0.1995 -0.1883  0.5138
  388MOL0     C52278  10.185   5.350   0.067 -0.3424  0.3740 -0.3581
  388MOL0     C52279  10.126   5.430  -0.034  0.2710  0.1292 -0.0400
  388MOL0     C52280  10.111   5.388  -0.168 -0.7994  0.0880 -0.8958
  388MOL0     O52281  10.067   5.478  -0.260  0.3390 -0.4132 -0.3790
  388MOL0     C52282  10.071   5.443  -0.405 -0.5063  0.1464 -0.6900
  388MOL0     C52283  10.077   5.581  -0.472  0.1888 -0.2418  0.5917
  388MOL0     C52284   9.953   5.668  -0.467 -0.3302 -0.8182  0.2448
  388MOL0     C52285   9.850   5.620  -0.567  0.3775 -0.5336 -0.3313
  388MOL0     C52286   9.742   5.734  -0.593 -0.1962 -0.5656  0.3797
  388MOL0     C52287   9.689   5.816  -0.470 -0.2559 -0.9118 -0.0475
  388MOL0     C52288   9.577   5.912  -0.507  0.2800  0.1976 -1.2291
  388MOL0     C52289   9.530   5.987  -0.382  0.4125 -0.8000 -0.8602
  388MOL0    Cl52290   9.361   6.021  -0.406  0.0800  0.0862 -0.4527
  388MOL0     C52291  10.151   5.253  -0.192 -0.4301  0.3261  0.1858
  388MOL0     C52292  10.203   5.177  -0.096  0.3194  0.3239 -0.8543
  388MOL0     O52293  10.477   5.153   0.136 -1.0336  0.3944  0.3373
  388MOL0     C52294  10.282   4.926   0.338  0.0634 -0.4420  0.8186
  388MOL0     C52295  10.294   4.823   0.435 -0.7944 -0.6633  0.0576
  388MOL0     N52296  10.067   4.608   0.996  0.9283 -0.7745  0.1794
  388MOL0     N52297   9.955   4.543   0.995 -0.8421  0.2855  0.2403
  388MOL0     C52298  10.265   3.527   1.794 -0.1241  0.5327  0.3327
  388MOL0     C52299  10.360   3.495   1.898 -0.4137 -0.1672  0.1450
  388MOL0     C52300  10.708   3.555   2.154 -1.1366  0.3827  0.7530
  388MOL0     C52301  10.851   3.551   2.132  0.9968 -0.1150  0.2781
  388MOL0     C52302  10.945   3.547   2.234 -0.3137 -0.6748  0.0962
  388MOL0     C52303  10.904   3.580   2.356  0.5417  0.4985  0.0119
  388MOL0     O52304  10.988   3.586   2.466  0.5576 -0.3291 -0.3820
  388MOL0     C52305  11.124   3.615   2.437  1.4900 -0.2005 -0.5103
  388MOL0     C52306  11.203   3.683   2.549  1.0418  0.3610  0.1278
  388MOL0     C52307  11.347   3.660   2.517  0.8421 -0.4788  0.6653
  388MOL0     C52308  11.438   3.747   2.599  1.7202  0.4902 -0.6561
  388MOL0     C52309  11.577   3.706   2.567  0.9401 -0.0434 -0.3152
  388MOL0     C52310  11.690   3.674   2.547 -0.1439 -0.2817  0.0584
  388MOL0     C52311  10.765   3.592   2.384 -0.1631  0.3049 -0.1648
  388MOL0     C52312  10.667   3.589   2.283  0.1134  0.7655  0.0465
  388MOL0     H52313  10.373   3.791   2.052  0.8030 -2.0032  1.1869
  388MOL0     H52314  10.210   3.842   1.869  0.7946 -0.0101  3.2830
  388MOL0     H52315  10.003   3.829   1.740  1.0158 -0.2089  0.7810
  388MOL0     H52316  10.152   3.897   1.664 -1.2861  1.7273  0.1272
  388MOL0     H52317  10.122   3.878   1.458 -0.6939 -0.6006 -1.8865
  388MOL0     H52318   9.997   3.748   1.471  3.6066 -2.1746  0.7167
  388MOL0     H52319   9.823   3.899   1.545  1.3023 -3.8675 -0.5465
  388MOL0     H52320   9.938   4.030   1.580  1.9189 -0.6504 -0.6071
  388MOL0     H52321   9.978   4.042   1.345  0.3643  3.1095  3.5208
  388MOL0     H52322   9.852   3.918   1.315  1.1212  1.1868 -2.1771
  388MOL0     H52323   9.680   4.119   1.404 -1.7012 -0.1260 -2.2478
  388MOL0     H52324   9.828   4.203   1.433  0.3531 -1.4896 -0.2613
  388MOL0     H52325   9.770   4.083   1.157  1.5142  0.9786 -0.8900
  388MOL0     H52326   9.691   4.232   1.223 -1.6442 -1.3192 -1.0460
  388MOL0     H52327   9.913   4.333   1.242  2.8210  1.1631 -1.8652
  388MOL0     H52328   9.987   4.183   1.171  0.6623  1.5191  0.7153
  388MOL0     H52329   9.784   4.366   1.031  1.9813  2.2805  0.5648
  388MOL0     H52330   9.867   4.229   0.961 -0.3761 -0.5091  0.1178
  388MOL0     H52331  10.189   4.312   1.040  0.7675 -0.1664 -0.2829
  388MOL0     H52332  10.330   4.641   1.085  0.4125  0.7794 -0.1519
  388MOL0     H52333  10.356   4.469   1.027  0.7582  0.6983  3.4145
  388MOL0     H52334  10.443   4.665   0.886 -0.1780 -0.4502  2.6555
  388MOL0     H52335  10.276   4.708   0.849 -0.0134  1.9037  4.9755
  388MOL0     H52336  10.276   4.448   0.746  0.1155 -1.0365 -3.3095
  388MOL0     H52337  10.449   4.465   0.744  0.1425  0.8801 -1.5488
  388MOL0     H52338  10.237   4.658   0.644 -0.6194 -0.2450  2.6299
  388MOL0     H52339  10.338   4.537   0.551  0.9440  2.3660 -0.7005
  388MOL0     H52340  10.610   4.868   0.547  0.7520  2.0369 -0.7730
  388MOL0     H52341  10.667   5.068   0.250 -0.4078 -2.0995  0.0293
  388MOL0     H52342  10.636   5.167   0.407  1.4346 -0.2067  0.1642
  388MOL0     H52343  10.715   5.011   0.411 -2.0863  0.7387  4.7628
  388MOL0     H52344  10.202   5.381   0.170  0.5498  2.9068 -1.2077
  388MOL0     H52345  10.093   5.531  -0.013 -2.2411 -0.4770 -0.6361
  388MOL0     H52346  10.159   5.382  -0.428 -2.0449 -1.9992 -1.2890
  388MOL0     H52347   9.984   5.385  -0.439 -0.8098  0.7017 -0.8730
  388MOL0     H52348  10.160   5.637  -0.429  1.6654 -0.7137 -1.4913
  388MOL0     H52349  10.111   5.571  -0.576  1.8675 -2.1966  1.2731
  388MOL0     H52350   9.988   5.770  -0.486 -0.9278 -0.2560  2.0022
  388MOL0     H52351   9.916   5.667  -0.365  2.1724 -1.4944  1.2292
  388MOL0     H52352   9.892   5.580  -0.659 -0.1958  3.0431 -2.3411
  388MOL0     H52353   9.802   5.535  -0.517 -0.0422  0.1124  0.4043
  388MOL0     H52354   9.656   5.683  -0.637 -0.2866  0.7756 -1.0519
  388MOL0     H52355   9.792   5.806  -0.659 -2.3097  0.0037 -0.6711
  388MOL0     H52356   9.670   5.750  -0.386 -1.0217  0.2377  0.7100
  388MOL0     H52357   9.776   5.874  -0.437 -1.3817 -0.3164  2.0603
  388MOL0     H52358   9.494   5.852  -0.545 -0.4690 -0.2664  1.0136
  388MOL0     H52359   9.620   5.988  -0.573  0.1961 -0.5773 -2.1990
  388MOL0     H52360   9.588   6.079  -0.371 -0.3931 -0.2994 -0.6544
  388MOL0     H52361   9.544   5.933  -0.288 -2.1909  0.3223  0.2676
  388MOL0     H52362  10.135   5.218  -0.293 -0.5406  0.1679  0.2581
  388MOL0     H52363  10.222   5.071  -0.106  0.8577 -0.1520  3.3915
  388MOL0     H52364  10.191   4.921   0.278 -1.2952 -2.9172  2.8662
  388MOL0     H52365  10.212   4.753   0.445  0.1055 -1.6514  0.8552
  388MOL0     H52366  10.238   3.453   1.720 -0.7170 -0.7165  1.7562
  388MOL0     H52367  10.400   3.395   1.909  1.4689  0.7649  2.8630
  388MOL0     H52368  10.883   3.548   2.029 -3.1848  2.9955 -1.3678
  388MOL0     H52369  11.049   3.522   2.217 -0.0661 -0.7441  1.5222
  388MOL0     H52370  11.163   3.516   2.412  0.7502 -1.3015  2.3342
  388MOL0     H52371  11.141   3.684   2.353 -0.2727  0.2004 -0.5690
  388MOL0     H52372  11.175   3.632   2.642 -2.1023  1.6594  0.0144
  388MOL0     H52373  11.183   3.790   2.558  1.2352  0.2725  1.9994
  388MOL0     H52374  11.362   3.688   2.413  0.4790 -0.3447  0.6484
  388MOL0     H52375  11.362   3.552   2.524 -0.4400 -0.5924  2.9603
  388MOL0     H52376  11.418   3.729   2.705  2.8546  0.5813 -0.4171
  388MOL0     H52377  11.424   3.855   2.584  4.3294  0.8884 -0.6541
  388MOL0     H52378  11.793   3.663   2.519 -0.9872 -2.6100 -2.5465
  388MOL0     H52379  10.738   3.603   2.488  1.3282 -0.8189  0.3682
  388MOL0     H52380  10.561   3.578   2.304 -0.0328  2.0506  0.0413
  389MOL0     O52381   3.331   5.115   5.633  0.7410 -0.5857 -1.1317
  389MOL0     C52382   3.328   5.154   5.520 -0.4458  1.2138  0.3035
  389MOL0     O52383   3.231   5.122   5.430  0.0893 -0.9495 -0.4069
  389MOL0     C52384   3.129   5.038   5.450  0.7942 -0.4677  0.5781
  389MOL0     C52385   3.100   4.937   5.354 -0.0206  0.1743 -0.4293
  389MOL0     C52386   2.973   4.870   5.360 -0.0528  0.1591 -0.8086
  389MOL0     C52387   2.881   4.899   5.464  0.7641  0.0335  0.2403
  389MOL0     O52388   2.769   4.805   5.456  0.5567 -0.4193 -0.0539
  389MOL0     C52389   2.664   4.837   5.554  0.0029  0.6536  0.1280
  389MOL0     C52390   2.551   4.735   5.542  0.6146  0.6841  0.3961
  389MOL0     C52391   2.482   4.742   5.402 -0.0094  0.4333 -0.3095
  389MOL0     C52392   2.358   4.650   5.388 -0.6424 -0.4169 -0.7118
  389MOL0     C52393   2.328   4.625   5.245 -0.3920  1.0190 -0.2232
  389MOL0     C52394   2.204   4.536   5.209 -0.1333  0.1402 -0.1144
  389MOL0     C52395   2.177   4.492   5.062 -1.1077  0.7242  0.3270
  389MOL0     C52396   2.069   4.377   5.044  1.2828  0.3458 -0.1298
  389MOL0     N52397   2.104   4.241   5.093 -0.2682  1.1591 -0.5500
  389MOL0     C52398   2.049   4.191   5.210 -0.5692  0.2345 -0.3514
  389MOL0     C52399   2.051   4.058   5.209  0.3286  0.1692 -0.6441
  389MOL0     C52400   1.997   3.978   5.322  1.3690 -0.4423  0.0600
  389MOL0     C52401   1.841   3.966   5.317 -0.0211  0.6528  0.1986
  389MOL0     C52402   1.782   3.909   5.185  0.1698  0.8666 -0.0620
  389MOL0     C52403   1.642   3.861   5.197  0.3642 -0.0731 -0.0779
  389MOL0     O52404   1.594   3.785   5.088  0.4330 -0.0249 -0.1168
  389MOL0     C52405   1.469   3.742   5.094  0.8928  0.0059 -0.2319
  389MOL0     C52406   1.445   3.643   4.994  0.0384  0.0759 -0.0891
  389MOL0     C52407   1.326   3.560   5.005 -0.3314 -0.1777 -0.4632
  389MOL0     C52408   1.311   3.438   4.926 -0.1597  0.9593  0.5998
  389MOL0     C52409   1.228   3.593   5.099 -0.1258  0.4466  0.8337
  389MOL0     C52410   1.098   3.517   5.114  0.0266 -0.1255  0.4282
  389MOL0     O52411   1.040   3.528   5.230  0.7918  1.3708  0.5386
  389MOL0     C52412   0.907   3.496   5.228 -0.1167 -1.2735  0.2696
  389MOL0     C52413   0.863   3.362   5.248 -0.4653  0.1380 -0.9759
  389MOL0     C52414   0.722   3.338   5.246  0.1416 -0.7765  0.0316
  389MOL0     C52415   0.634   3.445   5.206 -0.3223  0.6160  0.3854
  389MOL0     O52416   0.497   3.425   5.184 -0.2638  0.5477  0.0234
  389MOL0     C52417   0.411   3.338   5.250  0.9855  0.4680 -0.5696
  389MOL0     C52418   0.385   3.365   5.398 -0.0172  0.0612 -0.7140
  389MOL0     C52419   0.255   3.307   5.450 -0.4049 -0.6128 -0.9701
  389MOL0     C52420   0.257   3.320   5.605 -0.2642 -0.6005  0.8074
  389MOL0     C52421   0.123   3.374   5.657 -0.3003  0.0620  0.2657
  389MOL0     C52422   0.015   3.269   5.631  0.8333 -0.9270 -0.5121
  389MOL0     C52423   0.029   3.160   5.735  0.1163  0.0018  0.4066
  389MOL0     C52424  -0.081   3.057   5.714 -0.1710  0.2811  0.7189
  389MOL0    Cl52425  -0.059   2.939   5.853  0.4227  0.2831  0.0564
  389MOL0     C52426   0.684   3.573   5.180 -0.6231 -0.5251 -0.0806
  389MOL0     C52427   0.820   3.597   5.191  0.5597 -0.0447 -0.1402
  389MOL0     O52428   1.053   3.453   5.017 -0.3703  0.2881  0.3786
  389MOL0     C52429   1.256   3.704   5.190 -0.8142 -0.0672  0.0359
  389MOL0     C52430   1.375   3.771   5.187 -1.2080 -0.7105  0.1810
  389MOL0     N52431   2.095   4.024   5.083 -0.6192  0.0409  0.2119
  389MOL0     N52432   2.133   4.132   5.015  0.5376 -0.0379  0.4731
  389MOL0     C52433   2.913   5.002   5.559 -0.2396  0.4791  0.5300
  389MOL0     C52434   3.039   5.068   5.554 -0.0027 -0.4754  0.1214
  389MOL0     C52435   3.434   5.246   5.465 -0.0053 -0.1387  0.8531
  389MOL0     C52436   3.565   5.252   5.514  0.0388  0.7491 -0.1678
  389MOL0     C52437   3.665   5.321   5.442  0.1536 -0.2086 -0.0218
  389MOL0     C52438   3.644   5.395   5.333  0.0493  0.1000 -0.3700
  389MOL0     O52439   3.739   5.470   5.270 -0.2851 -0.5311 -0.5320
  389MOL0     C52440   3.783   5.591   5.341 -0.9358  0.1803 -0.1085
  389MOL0     C52441   3.802   5.724   5.264  0.2285 -0.3080  1.0688
  389MOL0     C52442   3.879   5.699   5.135 -0.6540  0.2018 -0.6046
  389MOL0     C52443   3.891   5.832   5.061 -0.2667  0.4752  0.9349
  389MOL0     C52444   3.924   5.807   4.927 -1.1225  0.0569  0.2097
  389MOL0     C52445   3.977   5.787   4.817 -0.5629  0.6666  0.9349
  389MOL0     C52446   3.510   5.409   5.287  0.7711  0.7118 -0.6003
  389MOL0     C52447   3.411   5.322   5.346 -0.3240  0.9427  0.4979
  389MOL0     H52448   3.168   4.899   5.279  0.1080  0.5437 -0.5043
  389MOL0     H52449   2.951   4.796   5.283 -0.9055  0.2596 -0.6708
  389MOL0     H52450   2.704   4.831   5.656 -1.1742 -1.1882  0.5294
  389MOL0     H52451   2.628   4.938   5.535 -1.1559  0.5664  1.6852
  389MOL0     H52452   2.584   4.635   5.569 -0.6902 -0.2117 -1.1538
  389MOL0     H52453   2.476   4.748   5.621 -0.9522  0.1157 -0.9415
  389MOL0     H52454   2.453   4.843   5.374  3.4675  1.4956 -0.4293
  389MOL0     H52455   2.565   4.714   5.336  1.4607  2.2948  0.6706
  389MOL0     H52456   2.382   4.553   5.432  1.0952  0.2328 -0.1837
  389MOL0     H52457   2.266   4.695   5.427  1.0046  1.7309  0.8897
  389MOL0     H52458   2.308   4.725   5.206  0.9272  0.3562 -2.7987
  389MOL0     H52459   2.419   4.592   5.195 -0.0994  3.8533 -1.7654
  389MOL0     H52460   2.221   4.448   5.271 -1.7882 -0.9507 -1.1310
  389MOL0     H52461   2.117   4.592   5.245  0.1592  1.1437 -0.9365
  389MOL0     H52462   2.156   4.576   4.994  0.1898  1.6420  1.0169
  389MOL0     H52463   2.264   4.459   5.004 -1.1409  1.3371 -0.0860
  389MOL0     H52464   2.061   4.382   4.935 -1.0184  3.6979  0.0453
  389MOL0     H52465   1.979   4.413   5.095  0.2150 -1.2878 -0.7742
  389MOL0     H52466   2.021   4.253   5.294 -1.1582  1.6453 -1.5459
  389MOL0     H52467   2.026   3.873   5.311 -2.0707 -2.0677  3.9184
  389MOL0     H52468   2.032   4.028   5.412 -1.3810 -0.2002  1.0984
  389MOL0     H52469   1.790   4.059   5.342 -3.8708 -1.2199  0.1537
  389MOL0     H52470   1.831   3.898   5.402  1.6797  0.5676  0.3469
  389MOL0     H52471   1.847   3.821   5.177 -0.9380 -0.4404  3.5057
  389MOL0     H52472   1.790   3.986   5.108 -1.2803  0.1312 -0.9859
  389MOL0     H52473   1.576   3.946   5.218  0.4538  0.3145 -1.3084
  389MOL0     H52474   1.641   3.799   5.287 -1.4416 -2.5518 -1.6762
  389MOL0     H52475   1.517   3.615   4.919 -2.5467 -4.3987 -1.2829
  389MOL0     H52476   1.254   3.357   4.971  0.5456  0.1965  0.1509
  389MOL0     H52477   1.264   3.462   4.830  0.5369 -1.3393 -0.3843
  389MOL0     H52478   1.412   3.398   4.911  0.3682  2.2204  0.6176
  389MOL0     H52479   0.932   3.289   5.287 -2.5029 -0.8986  0.9397
  389MOL0     H52480   0.678   3.244   5.277 -1.7042  0.8625  2.7956
  389MOL0     H52481   0.313   3.337   5.201  0.8385  1.4593 -0.3121
  389MOL0     H52482   0.457   3.241   5.231  0.8360  0.5447 -1.3479
  389MOL0     H52483   0.473   3.328   5.451 -0.2080  0.9292  0.2562
  389MOL0     H52484   0.385   3.474   5.407 -2.6252  0.0671  0.3216
  389MOL0     H52485   0.239   3.202   5.423  2.4233 -1.1626 -0.7592
  389MOL0     H52486   0.180   3.370   5.401 -1.9072 -1.1054  0.5544
  389MOL0     H52487   0.280   3.218   5.637 -1.1087 -2.2566 -3.1975
  389MOL0     H52488   0.337   3.385   5.642 -0.9642  0.3379  0.7123
  389MOL0     H52489   0.096   3.464   5.601 -0.8533 -0.8655 -0.9961
  389MOL0     H52490   0.138   3.399   5.762  2.5424  1.8266 -0.4482
  389MOL0     H52491  -0.078   3.322   5.651  2.2480  1.8484 -0.7457
  389MOL0     H52492   0.019   3.242   5.526 -2.4021 -3.2936 -0.1690
  389MOL0     H52493   0.018   3.203   5.835 -1.1726  2.7673 -0.8008
  389MOL0     H52494   0.126   3.109   5.728 -0.3547 -0.7324 -4.8045
  389MOL0     H52495  -0.066   2.999   5.623 -0.6340 -0.0550  0.8555
  389MOL0     H52496  -0.179   3.105   5.719  0.5611  1.7236  2.3953
  389MOL0     H52497   0.607   3.646   5.158 -1.7721 -2.7091 -4.3933
  389MOL0     H52498   0.875   3.688   5.169  0.7061 -0.1968 -0.4068
  389MOL0     H52499   1.197   3.727   5.278  3.1584 -2.0603  3.5635
  389MOL0     H52500   1.396   3.841   5.267  4.2059  0.2914 -1.6771
  389MOL0     H52501   2.838   5.019   5.635 -0.5354  0.3320  0.2733
  389MOL0     H52502   3.076   5.146   5.619  3.1035  0.9586 -3.0191
  389MOL0     H52503   3.583   5.191   5.602  1.7717  2.3062  0.6153
  389MOL0     H52504   3.769   5.309   5.468 -0.1636 -1.9897  0.5685
  389MOL0     H52505   3.703   5.610   5.413  0.0191 -0.5385  1.1825
  389MOL0     H52506   3.883   5.578   5.385 -0.9113  1.9740  0.4366
  389MOL0     H52507   3.857   5.786   5.335  2.7114 -2.5131  1.2483
  389MOL0     H52508   3.705   5.769   5.241  0.8719  1.4970  1.7066
  389MOL0     H52509   3.821   5.629   5.074 -0.6790 -1.4205  1.1480
  389MOL0     H52510   3.979   5.662   5.161 -0.2985  0.9673 -0.8743
  389MOL0     H52511   3.966   5.900   5.100  1.1319 -0.8741  0.7045
  389MOL0     H52512   3.792   5.879   5.057 -1.3498 -1.7196 -1.7752
  389MOL0     H52513   4.029   5.778   4.724 -1.0969 -1.6250  0.7899
  389MOL0     H52514   3.490   5.473   5.201  0.4019 -0.0728 -1.1096
  389MOL0     H52515   3.307   5.312   5.318 -0.0041 -6.7801 -0.0577
  390MOL0     O52516   9.988   3.265  11.213  0.4637  0.1209  0.1768
  390MOL0     C52517  10.096   3.317  11.214  0.4195 -0.7473  0.0764
  390MOL0     O52518  10.145   3.406  11.125  0.2852 -0.5614  1.4887
  390MOL0     C52519  10.059   3.455  11.027 -0.5822 -0.2697  0.7318
  390MOL0     C52520  10.106   3.459  10.900  0.6420  0.5165 -0.0162
  390MOL0     C52521  10.031   3.510  10.796  0.1537  1.2815 -0.6800
  390MOL0     C52522   9.902   3.551  10.824 -0.3265 -0.3044  0.0590
  390MOL0     O52523   9.826   3.603  10.721  0.5504 -0.5660 -0.4909
  390MOL0     C52524   9.873   3.734  10.683  0.3181 -0.6668 -0.3646
  390MOL0     C52525   9.833   3.850  10.777  0.5251  0.0745  0.0842
  390MOL0     C52526   9.676   3.874  10.775 -1.2322  0.0030 -0.2127
  390MOL0     C52527   9.655   4.021  10.806 -0.2475  0.3704 -0.1039
  390MOL0     C52528   9.509   4.061  10.848 -0.6593 -0.6436  0.1349
  390MOL0     C52529   9.472   4.027  10.995 -0.2609  0.4460  0.5869
  390MOL0     C52530   9.347   4.115  11.038 -0.3449 -0.1473 -0.7049
  390MOL0     C52531   9.293   4.089  11.180  0.7554 -0.7009  0.3670
  390MOL0     N52532   9.178   4.180  11.207 -1.4829 -0.1874  0.6092
  390MOL0     C52533   9.052   4.152  11.204  0.0151 -0.6510  0.2949
  390MOL0     C52534   8.990   4.260  11.257 -0.1006  0.0793 -0.0355
  390MOL0     C52535   8.844   4.251  11.280 -0.6958  1.1878  0.4137
  390MOL0     C52536   8.761   4.277  11.155  0.1530  0.6411  0.2085
  390MOL0     C52537   8.795   4.201  11.023  0.7356  0.4921  0.5015
  390MOL0     C52538   8.694   4.234  10.915  1.1313 -0.0260 -0.3853
  390MOL0     O52539   8.557   4.202  10.943  0.3730  0.4424  0.2991
  390MOL0     C52540   8.451   4.266  10.888  0.4534 -0.3540 -0.2387
  390MOL0     C52541   8.328   4.265  10.955 -1.1153 -0.8541 -0.1346
  390MOL0     C52542   8.214   4.326  10.899  0.0909  0.9557 -0.6439
  390MOL0     C52543   8.081   4.321  10.979  1.0290 -0.4641  0.0384
  390MOL0     C52544   8.228   4.372  10.762 -0.2613  0.2287  0.2048
  390MOL0     C52545   8.121   4.439  10.699 -0.3123  0.0605  0.3662
  390MOL0     O52546   8.159   4.566  10.650 -0.2038 -0.0584 -0.7933
  390MOL0     C52547   8.063   4.664  10.630  0.1440  0.8323 -1.0725
  390MOL0     C52548   7.998   4.664  10.508  0.6046 -0.4209  0.8821
  390MOL0     C52549   7.897   4.762  10.481 -0.0670  0.2665 -0.4917
  390MOL0     C52550   7.878   4.865  10.577 -0.1325  0.4278  0.9416
  390MOL0     O52551   7.791   4.966  10.554  0.1425 -0.0270  0.2530
  390MOL0     C52552   7.793   5.020  10.415 -1.2907  0.2258  0.0872
  390MOL0     C52553   7.720   5.153  10.410 -0.0486  0.1691  0.0678
  390MOL0     C52554   7.793   5.280  10.443 -0.3263  0.1795 -0.0795
  390MOL0     C52555   7.709   5.399  10.406  0.3585 -0.1992  0.8312
  390MOL0     C52556   7.772   5.543  10.440  1.4815 -0.2016  0.5364
  390MOL0     C52557   7.874   5.571  10.335  0.8075  0.8211  0.3020
  390MOL0     C52558   7.936   5.709  10.369  0.4664 -0.4288 -0.4047
  390MOL0     C52559   8.060   5.695  10.447 -0.3531 -0.0277  0.1446
  390MOL0    Cl52560   8.111   5.859  10.509 -0.3753  0.6093  0.4073
  390MOL0     C52561   7.957   4.863  10.689  0.2711 -0.1641 -0.1484
  390MOL0     C52562   8.038   4.755  10.729  0.6157  0.5398 -0.6815
  390MOL0     O52563   8.006   4.387  10.709 -0.7987 -0.3359  0.7128
  390MOL0     C52564   8.351   4.364  10.696  0.5086 -1.4986  0.1192
  390MOL0     C52565   8.462   4.304  10.753  0.5372  1.0403 -0.8517
  390MOL0     N52566   9.089   4.357  11.276  0.7768 -0.4545 -0.6522
  390MOL0     N52567   9.199   4.311  11.235 -0.2576 -0.0352 -0.4810
  390MOL0     C52568   9.856   3.553  10.959 -0.7213 -0.4254 -0.3164
  390MOL0     C52569   9.934   3.516  11.056 -0.0249 -0.0003 -1.0941
  390MOL0     C52570  10.181   3.292  11.329 -0.0546 -0.5027 -0.2324
  390MOL0     C52571  10.313   3.342  11.323  0.5099 -0.0626  1.0123
  390MOL0     C52572  10.400   3.339  11.427 -0.0500 -0.8451  0.3892
  390MOL0     C52573  10.364   3.281  11.546 -0.0059 -0.3331 -0.0375
  390MOL0     O52574  10.448   3.256  11.658 -0.4796 -0.4685  0.2022
  390MOL0     C52575  10.570   3.328  11.667  0.9652 -0.5723  0.7978
  390MOL0     C52576  10.621   3.352  11.807 -0.3304  0.1942  0.6217
  390MOL0     C52577  10.523   3.393  11.912  0.6238  0.9469  0.6761
  390MOL0     C52578  10.588   3.386  12.048 -1.9649 -0.2992  0.2559
  390MOL0     C52579  10.701   3.479  12.051 -0.6147 -0.0910 -0.0007
  390MOL0     C52580  10.798   3.555  12.059  0.6437  0.2468 -0.4395
  390MOL0     C52581  10.234   3.222  11.555 -0.4054 -0.0258  0.3403
  390MOL0     C52582  10.146   3.219  11.447 -0.4229  0.0056 -0.9259
  390MOL0     H52583  10.209   3.441  10.869  0.3621 -2.0442  0.3381
  390MOL0     H52584  10.068   3.521  10.695  4.3596 -4.6426 -0.3303
  390MOL0     H52585   9.979   3.742  10.656  0.3533 -1.4421 -0.4886
  390MOL0     H52586   9.827   3.751  10.585 -1.1372  0.0743  0.4171
  390MOL0     H52587   9.860   3.825  10.880 -0.0884  1.0537  0.4918
  390MOL0     H52588   9.886   3.941  10.747 -0.0055  0.1923 -0.5127
  390MOL0     H52589   9.632   3.846  10.678 -2.1096  0.1966  0.1173
  390MOL0     H52590   9.641   3.814  10.860  2.8823 -3.9777 -0.9094
  390MOL0     H52591   9.729   4.048  10.882  1.6708  1.1095 -2.1262
  390MOL0     H52592   9.674   4.088  10.722 -2.6837 -0.7521 -1.6662
  390MOL0     H52593   9.509   4.168  10.826 -0.4490 -0.3926  1.3291
  390MOL0     H52594   9.439   4.003  10.787  0.1030 -3.3278  1.6433
  390MOL0     H52595   9.442   3.922  10.992  0.3258  0.2902 -1.6596
  390MOL0     H52596   9.552   4.030  11.070  0.0247 -4.5632  0.8000
  390MOL0     H52597   9.372   4.222  11.036 -2.4005  0.3901 -0.4225
  390MOL0     H52598   9.259   4.092  10.977 -2.1740 -3.9126  2.8695
  390MOL0     H52599   9.368   4.109  11.256 -0.1897  0.0841  1.1183
  390MOL0     H52600   9.246   3.991  11.194 -0.8680 -0.1073 -0.5645
  390MOL0     H52601   8.994   4.061  11.190 -0.6915 -0.3789  1.2892
  390MOL0     H52602   8.824   4.151  11.320  0.4589  0.4112 -0.8586
  390MOL0     H52603   8.807   4.318  11.359 -2.8505 -2.1513  2.4735
  390MOL0     H52604   8.772   4.385  11.144  1.1119  1.2406  4.7873
  390MOL0     H52605   8.656   4.259  11.180 -0.0297 -1.8748 -2.0051
  390MOL0     H52606   8.787   4.093  11.040 -2.4387  0.8097  1.7893
  390MOL0     H52607   8.895   4.230  10.991  1.5310 -2.6215 -0.1831
  390MOL0     H52608   8.726   4.186  10.823 -0.8596  0.4235 -1.3599
  390MOL0     H52609   8.700   4.342  10.899 -1.7651  0.1852 -0.6404
  390MOL0     H52610   8.326   4.225  11.056  0.6180 -0.0021  0.2803
  390MOL0     H52611   8.093   4.301  11.086  0.2716 -0.8633  0.0553
  390MOL0     H52612   8.018   4.409  10.961  0.2579 -1.4275 -2.2776
  390MOL0     H52613   8.018   4.239  10.944  0.5450  0.3824 -1.1163
  390MOL0     H52614   8.015   4.598  10.424  2.8137  1.2191 -0.0500
  390MOL0     H52615   7.833   4.761  10.394  3.1320  1.1040 -3.0329
  390MOL0     H52616   7.893   5.025  10.370 -1.8346  2.3350 -1.0342
  390MOL0     H52617   7.732   4.958  10.348 -0.8921 -1.4374  1.2030
  390MOL0     H52618   7.693   5.163  10.304 -0.9918 -0.6340  0.2089
  390MOL0     H52619   7.623   5.147  10.460 -0.5103 -1.1211 -0.9038
  390MOL0     H52620   7.891   5.259  10.399  0.2745  0.1724  1.2156
  390MOL0     H52621   7.803   5.287  10.552  2.0690 -2.7497  0.0069
  390MOL0     H52622   7.670   5.394  10.304  1.1521  4.2198  0.1008
  390MOL0     H52623   7.615   5.383  10.459 -0.5572  1.0406 -0.3413
  390MOL0     H52624   7.822   5.552  10.537  1.7844 -1.1670  0.4820
  390MOL0     H52625   7.695   5.621  10.441 -0.0671 -1.6654  1.3777
  390MOL0     H52626   7.946   5.489  10.329  1.0392  0.9053  1.5233
  390MOL0     H52627   7.821   5.572  10.239 -0.3358  1.7877  0.9033
  390MOL0     H52628   7.862   5.764  10.428  1.8654  2.5968 -1.2720
  390MOL0     H52629   7.951   5.777  10.286 -1.1188  1.1599  0.5592
  390MOL0     H52630   8.137   5.662  10.377 -0.7656  2.1192 -1.4262
  390MOL0     H52631   8.048   5.624  10.529 -2.4958 -1.6340 -1.4449
  390MOL0     H52632   7.953   4.948  10.756  1.3169  0.6270 -1.0433
  390MOL0     H52633   8.095   4.764  10.821  0.9826  0.4537 -0.8980
  390MOL0     H52634   8.355   4.406  10.596 -2.2784 -0.9200  0.1653
  390MOL0     H52635   8.541   4.283  10.683  0.2863  1.3067 -1.2237
  390MOL0     H52636   9.753   3.588  10.967 -1.3968 -1.9133 -1.8531
  390MOL0     H52637   9.902   3.528  11.159 -2.7068 -3.0687 -1.4230
  390MOL0     H52638  10.345   3.387  11.229 -3.0080 -4.2413 -2.7174
  390MOL0     H52639  10.499   3.381  11.408 -1.0345  0.9072 -1.1697
  390MOL0     H52640  10.652   3.276  11.617 -0.4387 -0.5633 -1.7004
  390MOL0     H52641  10.555   3.418  11.606 -2.1512 -1.2702  0.3182
  390MOL0     H52642  10.709   3.417  11.799 -0.8554  0.7969 -0.6685
  390MOL0     H52643  10.655   3.250  11.826  0.0073 -0.1918 -1.7056
  390MOL0     H52644  10.445   3.317  11.906  0.7265  0.9068 -0.3278
  390MOL0     H52645  10.482   3.492  11.891  2.6587  1.2201 -2.8372
  390MOL0     H52646  10.630   3.287  12.069 -1.4203 -0.5278 -1.6702
  390MOL0     H52647  10.518   3.415  12.127  0.4208  0.9028  2.0612
  390MOL0     H52648  10.883   3.619  12.070  0.7017 -0.1653  2.3033
  390MOL0     H52649  10.205   3.160  11.640  0.5506 -1.8059 -0.5768
  390MOL0     H52650  10.050   3.175  11.469 -1.0339  1.8454  0.4261
  391MOL0     O52651   1.817   5.114   7.825 -0.4506 -0.5829 -0.7633
  391MOL0     C52652   1.705   5.070   7.798 -0.0333 -1.1268 -0.2925
  391MOL0     O52653   1.621   5.114   7.699 -0.0783  0.6102 -0.4866
  391MOL0     C52654   1.638   5.225   7.629 -0.1671  0.8757  0.0440
  391MOL0     C52655   1.755   5.277   7.584 -1.0888  0.0278 -0.3396
  391MOL0     C52656   1.764   5.408   7.524  0.0095 -0.1152 -0.0720
  391MOL0     C52657   1.648   5.486   7.509  0.5008 -0.1056  0.1469
  391MOL0     O52658   1.640   5.604   7.437  0.0577 -1.2764  0.2345
  391MOL0     C52659   1.735   5.704   7.489  0.6173 -0.5645 -0.6083
  391MOL0     C52660   1.661   5.833   7.483 -0.4086  0.2030 -0.3432
  391MOL0     C52661   1.739   5.944   7.541  0.2887 -0.8375 -0.4523
  391MOL0     C52662   1.846   6.003   7.449 -0.4312  0.0488  0.1896
  391MOL0     C52663   1.905   6.135   7.490 -1.3898 -0.7706 -0.3175
  391MOL0     C52664   2.026   6.188   7.405 -0.1299 -0.0377  0.0256
  391MOL0     C52665   2.099   6.315   7.443  0.4002  0.0301  0.7764
  391MOL0     C52666   2.195   6.360   7.325  0.3317 -0.0779 -0.5697
  391MOL0     N52667   2.289   6.471   7.364 -0.6286  0.4759 -0.3560
  391MOL0     C52668   2.416   6.442   7.421 -0.2687 -0.1593  0.2586
  391MOL0     C52669   2.496   6.542   7.383  0.3876  0.5051  0.5216
  391MOL0     C52670   2.651   6.547   7.390 -0.3288  0.2638  0.2244
  391MOL0     C52671   2.704   6.663   7.311  1.4055  0.4852 -0.4835
  391MOL0     C52672   2.855   6.655   7.296 -0.9339 -0.6645 -0.7063
  391MOL0     C52673   2.936   6.729   7.403  0.0759 -0.3795  0.1596
  391MOL0     O52674   3.070   6.706   7.383 -0.5127 -0.0191 -1.2846
  391MOL0     C52675   3.159   6.752   7.479  0.4248 -0.3746  0.1723
  391MOL0     C52676   3.128   6.827   7.596 -0.4398  0.5803 -0.1033
  391MOL0     C52677   3.220   6.850   7.692 -0.9131  0.1319 -0.2305
  391MOL0     C52678   3.170   6.909   7.819  0.8677  0.7956 -0.8323
  391MOL0     C52679   3.350   6.797   7.676  0.2897 -0.6238 -0.3714
  391MOL0     C52680   3.458   6.805   7.786 -0.6288 -0.3042 -0.0531
  391MOL0     O52681   3.566   6.718   7.774  0.1836  0.0855  0.2513
  391MOL0     C52682   3.664   6.706   7.868  0.4731 -0.3767  0.3030
  391MOL0     C52683   3.648   6.618   7.970  0.6653  0.6502 -0.8104
  391MOL0     C52684   3.749   6.602   8.065  0.6454  0.2621 -0.0456
  391MOL0     C52685   3.867   6.673   8.064  0.1844  0.1548  0.6214
  391MOL0     O52686   3.966   6.641   8.155 -0.4624  0.1387 -0.3567
  391MOL0     C52687   4.103   6.678   8.112 -0.8098  0.1329  0.3953
  391MOL0     C52688   4.174   6.549   8.139 -0.2321  0.5636  0.6265
  391MOL0     C52689   4.324   6.570   8.171 -0.4540 -0.4682  2.1009
  391MOL0     C52690   4.408   6.439   8.142  0.5181 -0.0595  0.3679
  391MOL0     C52691   4.543   6.441   8.210 -0.3009 -0.1501  0.3024
  391MOL0     C52692   4.607   6.293   8.196 -0.2874 -0.7793 -0.6724
  391MOL0     C52693   4.738   6.278   8.283 -0.3852 -0.3984 -0.7155
  391MOL0     C52694   4.829   6.164   8.237 -0.2684  0.7199 -0.1623
  391MOL0    Cl52695   4.775   5.984   8.259  0.6206 -0.5339  0.3306
  391MOL0     C52696   3.877   6.773   7.971 -0.2873  1.0325  0.2933
  391MOL0     C52697   3.783   6.785   7.876 -0.3733 -0.0986  0.2575
  391MOL0     O52698   3.449   6.879   7.884  0.2122 -0.1738 -0.0472
  391MOL0     C52699   3.383   6.717   7.567  0.2066  0.2285  0.4151
  391MOL0     C52700   3.285   6.702   7.467 -0.6744 -0.1483 -0.2325
  391MOL0     N52701   2.408   6.635   7.329  0.3172 -0.4612 -0.3008
  391MOL0     N52702   2.290   6.593   7.323 -0.5201 -0.2348 -0.1346
  391MOL0     C52703   1.529   5.442   7.563  0.7398  0.0645 -0.6637
  391MOL0     C52704   1.527   5.306   7.615 -0.8945  0.3097 -0.6725
  391MOL0     C52705   1.651   4.963   7.876 -0.5347  0.1892  0.4921
  391MOL0     C52706   1.734   4.898   7.972  0.4589 -0.2517 -0.5110
  391MOL0     C52707   1.683   4.804   8.069  0.1709  0.0002  0.3643
  391MOL0     C52708   1.549   4.768   8.064 -0.1736  0.1176  0.6624
  391MOL0     O52709   1.489   4.676   8.146 -0.0773 -0.8284  0.4642
  391MOL0     C52710   1.558   4.649   8.266 -1.0989 -0.6541  0.3592
  391MOL0     C52711   1.478   4.550   8.359  0.3454 -0.4008  0.9468
  391MOL0     C52712   1.574   4.495   8.468  0.2297 -0.2393 -1.2541
  391MOL0     C52713   1.501   4.455   8.595 -0.3407 -0.6967  0.2283
  391MOL0     C52714   1.381   4.374   8.573  0.6066  0.0590 -0.6647
  391MOL0     C52715   1.295   4.286   8.564 -0.3162 -0.2835 -0.6089
  391MOL0     C52716   1.472   4.829   7.965  0.3619  0.0297  0.7830
  391MOL0     C52717   1.520   4.926   7.875  0.4229  0.0885  0.9759
  391MOL0     H52718   1.843   5.216   7.602 -1.5927 -0.5186  0.3662
  391MOL0     H52719   1.851   5.454   7.478  1.6933  0.3880  3.2957
  391MOL0     H52720   1.772   5.688   7.590 -0.1478 -1.5481 -0.4693
  391MOL0     H52721   1.811   5.697   7.411  0.7534 -0.1636 -0.5135
  391MOL0     H52722   1.630   5.855   7.381 -0.5426  1.6822  0.0006
  391MOL0     H52723   1.563   5.819   7.529 -1.1253  2.7650 -0.9534
  391MOL0     H52724   1.667   6.025   7.557 -1.7661 -2.2929 -1.7417
  391MOL0     H52725   1.796   5.909   7.627  2.1685  3.6305  0.4254
  391MOL0     H52726   1.930   5.932   7.447  0.7445  1.3517  1.3376
  391MOL0     H52727   1.810   6.019   7.347  0.1112  1.0610  0.1406
  391MOL0     H52728   1.818   6.202   7.491 -1.9849 -1.5250 -0.6991
  391MOL0     H52729   1.956   6.131   7.587 -1.4565 -1.4835 -0.3050
  391MOL0     H52730   2.104   6.112   7.410 -0.8468 -1.3379 -4.2348
  391MOL0     H52731   1.997   6.199   7.300  3.4630  1.5205 -0.9363
  391MOL0     H52732   2.021   6.391   7.450  1.6660  1.7129 -1.9172
  391MOL0     H52733   2.155   6.312   7.537  1.3136  0.5054  0.2650
  391MOL0     H52734   2.137   6.387   7.237 -1.3143  1.5715  0.9366
  391MOL0     H52735   2.264   6.277   7.303  4.1192  2.8477 -0.8450
  391MOL0     H52736   2.438   6.352   7.477  0.2813  1.3149  2.5709
  391MOL0     H52737   2.681   6.556   7.495  1.8543 -4.2937  0.2613
  391MOL0     H52738   2.694   6.452   7.357 -0.6359  0.0841  0.3431
  391MOL0     H52739   2.662   6.752   7.359 -4.6866 -2.4236  0.5864
  391MOL0     H52740   2.654   6.652   7.214  0.2816 -1.1050  0.2305
  391MOL0     H52741   2.880   6.717   7.209 -1.5229  2.4437  1.1564
  391MOL0     H52742   2.900   6.557   7.284  2.0433  0.4089  0.6551
  391MOL0     H52743   2.910   6.703   7.507 -1.9910  0.4854 -0.0854
  391MOL0     H52744   2.911   6.835   7.396  0.1487 -0.4965 -2.7386
  391MOL0     H52745   3.026   6.863   7.607 -0.5542 -0.2153  1.7140
  391MOL0     H52746   3.238   6.981   7.865  0.3308  1.8660 -1.6948
  391MOL0     H52747   3.073   6.956   7.803  0.8837  1.6129  1.1944
  391MOL0     H52748   3.152   6.823   7.885 -0.9637  2.7088  1.3219
  391MOL0     H52749   3.553   6.565   7.970  1.6482 -1.2236 -0.7562
  391MOL0     H52750   3.742   6.529   8.144  3.1776 -0.1845 -0.1302
  391MOL0     H52751   4.120   6.693   8.005 -0.0521  0.8328  0.6076
  391MOL0     H52752   4.141   6.759   8.175  0.6090  0.3721 -0.7362
  391MOL0     H52753   4.135   6.515   8.235  0.2622  1.0695  1.0156
  391MOL0     H52754   4.161   6.474   8.061  4.5286  0.9342 -0.8729
  391MOL0     H52755   4.339   6.618   8.269  5.0495  2.5035  0.2463
  391MOL0     H52756   4.356   6.653   8.106 -1.4926  0.9943  3.3734
  391MOL0     H52757   4.341   6.362   8.179  0.6601  1.4786  4.3337
  391MOL0     H52758   4.412   6.432   8.033 -2.7289 -2.3443  0.2657
  391MOL0     H52759   4.538   6.465   8.316 -0.2136  1.1542  0.0336
  391MOL0     H52760   4.605   6.522   8.169 -1.9932  1.2738  0.4393
  391MOL0     H52761   4.543   6.213   8.234  0.0050 -0.4582  0.5385
  391MOL0     H52762   4.622   6.276   8.089  1.2223  0.8576 -0.7642
  391MOL0     H52763   4.716   6.255   8.388  3.1314 -2.7555 -0.3401
  391MOL0     H52764   4.789   6.374   8.271 -2.5867  0.6577 -2.2802
  391MOL0     H52765   4.928   6.173   8.284  1.1926 -1.9584 -2.4294
  391MOL0     H52766   4.845   6.169   8.129  3.9037  2.5894  0.3489
  391MOL0     H52767   3.960   6.843   7.967 -1.1367  2.0387 -0.2486
  391MOL0     H52768   3.789   6.867   7.805  3.1648 -0.8651 -0.5389
  391MOL0     H52769   3.466   6.646   7.571 -1.3147 -1.8444 -2.1120
  391MOL0     H52770   3.318   6.634   7.388  3.7647  1.2341  0.1674
  391MOL0     H52771   1.437   5.500   7.570  1.0092  0.3118  1.2127
  391MOL0     H52772   1.435   5.269   7.660 -0.2516  1.3660  1.6372
  391MOL0     H52773   1.839   4.923   7.980  0.2738  0.6052 -0.7164
  391MOL0     H52774   1.756   4.773   8.143  1.2957  0.2603 -0.5957
  391MOL0     H52775   1.652   4.602   8.235  0.0327 -0.4421  3.1610
  391MOL0     H52776   1.580   4.739   8.325  4.0924 -0.0735 -1.9140
  391MOL0     H52777   1.440   4.470   8.296  2.1065  1.4257 -2.7685
  391MOL0     H52778   1.394   4.603   8.405  0.9159  0.4215  1.0825
  391MOL0     H52779   1.664   4.553   8.491  0.9059 -1.3910 -0.9159
  391MOL0     H52780   1.622   4.400   8.447 -1.5388 -2.2859  2.7737
  391MOL0     H52781   1.482   4.553   8.639  2.1712  0.4003 -0.8762
  391MOL0     H52782   1.564   4.399   8.664  3.4598  2.5841 -0.1671
  391MOL0     H52783   1.229   4.202   8.556  1.1955 -1.8545  1.7628
  391MOL0     H52784   1.369   4.793   7.971  0.6598 -0.8060  1.0327
  391MOL0     H52785   1.448   4.974   7.808  2.3899 -0.3870 -1.6321
  392MOL0     O52786   4.467   4.862   1.530 -0.0474 -0.3499 -0.6096
  392MOL0     C52787   4.456   4.748   1.490  0.2553  0.2705 -0.4198
  392MOL0     O52788   4.439   4.640   1.567 -0.2720  0.1474  0.4298
  392MOL0     C52789   4.484   4.630   1.700 -0.8172  0.5300 -0.2431
  392MOL0     C52790   4.418   4.544   1.791  0.5025  0.1580  0.3578
  392MOL0     C52791   4.457   4.530   1.928  0.6252  0.1821  0.4820
  392MOL0     C52792   4.558   4.610   1.973  0.3697 -0.7732  1.1966
  392MOL0     O52793   4.603   4.600   2.101  0.1504 -0.1766 -0.1439
  392MOL0     C52794   4.697   4.495   2.124  0.1415  0.2134  0.5486
  392MOL0     C52795   4.711   4.462   2.270 -0.2406  0.0235  0.2721
  392MOL0     C52796   4.760   4.567   2.366  0.6063  0.3388  0.5081
  392MOL0     C52797   4.716   4.539   2.514  0.5749  0.2019 -1.2995
  392MOL0     C52798   4.790   4.632   2.612  0.1360  0.4614  1.0639
  392MOL0     C52799   4.736   4.612   2.755  0.8916 -0.7589  0.3919
  392MOL0     C52800   4.723   4.473   2.816  1.0526 -0.7358  0.1460
  392MOL0     C52801   4.696   4.490   2.963 -1.3416  0.2100 -0.5823
  392MOL0     N52802   4.805   4.555   3.039 -0.8940  1.3593  0.4639
  392MOL0     C52803   4.791   4.632   3.152 -0.6114  0.5063 -1.0432
  392MOL0     C52804   4.910   4.694   3.161  0.2613  0.0780  0.6888
  392MOL0     C52805   4.925   4.817   3.242 -0.4748 -0.1013  0.0613
  392MOL0     C52806   4.937   4.775   3.388  0.2948  0.6906  0.0914
  392MOL0     C52807   4.862   4.875   3.485 -0.3263  0.0828  0.0568
  392MOL0     C52808   4.708   4.881   3.468 -0.2756 -1.2731  0.0099
  392MOL0     O52809   4.649   4.766   3.417 -0.0326  0.0171 -0.3954
  392MOL0     C52810   4.634   4.652   3.498  0.5770 -0.5614  0.2834
  392MOL0     C52811   4.619   4.525   3.443 -0.0517  0.1107 -0.0359
  392MOL0     C52812   4.610   4.406   3.516 -0.0477 -0.1203  0.6433
  392MOL0     C52813   4.617   4.279   3.439 -0.8112  0.0890 -1.0203
  392MOL0     C52814   4.607   4.414   3.658  0.3044 -0.2714  0.1342
  392MOL0     C52815   4.608   4.294   3.750  0.4966  0.3343  0.0395
  392MOL0     O52816   4.579   4.323   3.879 -0.1216  0.2792  0.9103
  392MOL0     C52817   4.581   4.209   3.969  0.5988 -0.0156  0.2593
  392MOL0     C52818   4.662   4.212   4.080  0.6557  0.1220  0.5808
  392MOL0     C52819   4.647   4.110   4.173 -0.4150  0.0826  0.1143
  392MOL0     C52820   4.565   3.997   4.146  0.6665 -0.0785 -0.2124
  392MOL0     O52821   4.574   3.884   4.231 -0.0435  1.2357 -0.4795
  392MOL0     C52822   4.459   3.851   4.299  0.5534  0.5417 -0.5301
  392MOL0     C52823   4.468   3.761   4.419  0.3801 -0.0745  0.5528
  392MOL0     C52824   4.338   3.715   4.482  0.0772  0.0354  0.2051
  392MOL0     C52825   4.353   3.587   4.566  0.5718  0.4575  0.1678
  392MOL0     C52826   4.225   3.516   4.581 -0.0658  0.3310  0.1742
  392MOL0     C52827   4.206   3.444   4.708  0.9690 -0.4770 -0.4354
  392MOL0     C52828   4.068   3.378   4.707  0.3264 -0.0361  0.7473
  392MOL0     C52829   4.086   3.233   4.751  0.1358 -0.3253  0.3733
  392MOL0    Cl52830   4.094   3.225   4.924 -0.0059 -0.3787 -0.2732
  392MOL0     C52831   4.486   3.986   4.031  0.4651 -0.3973  0.6297
  392MOL0     C52832   4.490   4.102   3.944 -0.2773 -0.7908  0.1197
  392MOL0     O52833   4.629   4.176   3.708  0.4832 -0.7382  0.1864
  392MOL0     C52834   4.601   4.543   3.713  0.0105  0.0743 -1.1396
  392MOL0     C52835   4.621   4.656   3.640 -0.3694  0.0393  0.9853
  392MOL0     N52836   5.000   4.639   3.072 -0.0224  0.3387  0.6779
  392MOL0     N52837   4.932   4.557   2.995  1.2423 -0.9562 -0.4425
  392MOL0     C52838   4.633   4.697   1.885 -0.5387  0.1736  0.1836
  392MOL0     C52839   4.599   4.699   1.745 -0.8588 -0.3338 -0.3617
  392MOL0     C52840   4.433   4.731   1.343 -0.1518  0.6618  0.1179
  392MOL0     C52841   4.456   4.831   1.250 -0.7240  0.2281  0.5560
  392MOL0     C52842   4.440   4.814   1.115 -0.3737 -0.0714 -0.6038
  392MOL0     C52843   4.411   4.694   1.062  1.3319 -0.5487 -0.0711
  392MOL0     O52844   4.413   4.666   0.929  0.0748 -0.3589  0.1809
  392MOL0     C52845   4.408   4.786   0.845 -1.3067 -0.2776  0.5471
  392MOL0     C52846   4.390   4.764   0.698 -0.9319  0.0360  0.4132
  392MOL0     C52847   4.419   4.892   0.609  0.5690  0.4208 -0.4298
  392MOL0     C52848   4.493   4.865   0.471  0.4080  0.2213  0.6069
  392MOL0     C52849   4.389   4.868   0.364 -1.2514 -0.0696 -0.8802
  392MOL0     C52850   4.325   4.841   0.265 -0.2688 -0.4156 -0.6104
  392MOL0     C52851   4.388   4.584   1.156  0.4581  0.0387 -0.3309
  392MOL0     C52852   4.387   4.614   1.289 -0.6079 -1.0566  0.2155
  392MOL0     H52853   4.346   4.471   1.756 -1.1757  1.5697  0.7382
  392MOL0     H52854   4.402   4.464   1.995  0.3597 -2.3451 -2.0475
  392MOL0     H52855   4.683   4.408   2.059 -0.1401  0.1746  0.6586
  392MOL0     H52856   4.787   4.532   2.075  0.0237  0.4924  0.5370
  392MOL0     H52857   4.612   4.435   2.307 -0.2357  1.0489  1.0991
  392MOL0     H52858   4.777   4.374   2.272 -2.9678 -2.2103 -1.6778
  392MOL0     H52859   4.868   4.563   2.350  0.5748 -1.4311  0.5650
  392MOL0     H52860   4.711   4.657   2.327 -3.3578 -1.7152  0.2410
  392MOL0     H52861   4.608   4.538   2.526  0.5707 -0.3086 -1.3493
  392MOL0     H52862   4.737   4.432   2.526 -4.0470 -0.6070  2.0059
  392MOL0     H52863   4.897   4.610   2.608  0.7134  3.1258 -1.2684
  392MOL0     H52864   4.777   4.734   2.576 -0.9743 -0.1886 -0.4553
  392MOL0     H52865   4.798   4.674   2.821 -0.3116  1.0552 -0.1053
  392MOL0     H52866   4.635   4.654   2.756  2.1053  2.4114  1.5902
  392MOL0     H52867   4.646   4.412   2.768  0.4460  0.3499 -0.3005
  392MOL0     H52868   4.817   4.424   2.793  0.6563 -0.2211 -2.9357
  392MOL0     H52869   4.695   4.394   3.016 -1.6750  0.6645  0.2450
  392MOL0     H52870   4.598   4.538   2.969  0.3186  3.6940  1.6226
  392MOL0     H52871   4.698   4.657   3.204 -1.3640 -1.5779 -1.2987
  392MOL0     H52872   5.016   4.873   3.219  0.1055 -1.3583 -0.7461
  392MOL0     H52873   4.831   4.868   3.219 -2.0582 -2.3174  1.2586
  392MOL0     H52874   5.042   4.771   3.420  0.7940  3.0973 -1.0475
  392MOL0     H52875   4.894   4.678   3.415  2.2402 -0.5441 -0.9625
  392MOL0     H52876   4.912   4.972   3.477  0.0986 -0.2606 -1.8062
  392MOL0     H52877   4.880   4.844   3.588  2.2485 -0.7327 -0.5802
  392MOL0     H52878   4.686   4.972   3.413  3.1073 -0.0933  0.3532
  392MOL0     H52879   4.667   4.896   3.568 -0.5971  0.8203 -0.3959
  392MOL0     H52880   4.627   4.516   3.335  0.0840 -2.0821  0.1113
  392MOL0     H52881   4.712   4.227   3.455 -0.3338  0.3172 -2.8951
  392MOL0     H52882   4.534   4.216   3.473  1.4080 -2.1298  0.7935
  392MOL0     H52883   4.610   4.281   3.330 -2.0490  2.5471 -0.9541
  392MOL0     H52884   4.730   4.294   4.093  2.0690 -1.2563  2.4720
  392MOL0     H52885   4.696   4.093   4.268  3.1312 -4.1197 -2.0823
  392MOL0     H52886   4.401   3.937   4.334 -2.6137 -2.3630  2.1093
  392MOL0     H52887   4.407   3.792   4.223  5.0367 -2.4236 -1.6815
  392MOL0     H52888   4.527   3.676   4.384 -0.2957  0.0264 -0.8933
  392MOL0     H52889   4.535   3.807   4.493 -1.5270  1.6689  1.2941
  392MOL0     H52890   4.269   3.703   4.397  0.6762  1.8539 -0.5868
  392MOL0     H52891   4.286   3.795   4.536  3.8162  0.2218  3.9725
  392MOL0     H52892   4.431   3.532   4.511  0.9955  1.1634  0.0492
  392MOL0     H52893   4.391   3.606   4.666  1.3212 -3.1015  0.6813
  392MOL0     H52894   4.211   3.432   4.512  2.9489 -0.5055  0.4582
  392MOL0     H52895   4.147   3.586   4.549  1.0263  1.4370 -0.1331
  392MOL0     H52896   4.285   3.375   4.739  0.9408  1.2491  4.2927
  392MOL0     H52897   4.208   3.519   4.788  2.1984 -1.9243  0.9513
  392MOL0     H52898   4.014   3.379   4.612 -0.9176 -0.0953  1.4400
  392MOL0     H52899   3.993   3.425   4.770 -0.6918  0.2107 -0.6085
  392MOL0     H52900   4.171   3.191   4.697 -0.2025 -2.2635  1.2557
  392MOL0     H52901   4.001   3.166   4.733 -1.7804  2.1950 -0.5568
  392MOL0     H52902   4.435   3.894   4.005  0.1882  0.7203 -3.3260
  392MOL0     H52903   4.430   4.108   3.854  1.0608  0.4403 -0.7193
  392MOL0     H52904   4.596   4.557   3.820 -1.7312 -2.7479 -0.7453
  392MOL0     H52905   4.619   4.751   3.692  1.7470  1.6431 -1.6308
  392MOL0     H52906   4.725   4.746   1.917  0.7350 -0.8212 -1.7443
  392MOL0     H52907   4.656   4.749   1.667 -0.5667 -0.0258  0.0504
  392MOL0     H52908   4.491   4.929   1.280  0.9566 -0.2148  0.1627
  392MOL0     H52909   4.455   4.906   1.060  2.8511  0.0905  0.3774
  392MOL0     H52910   4.336   4.861   0.879 -0.3720  0.9280 -0.0603
  392MOL0     H52911   4.501   4.843   0.848 -0.7161 -1.2520  1.0369
  392MOL0     H52912   4.291   4.728   0.670 -1.2482  1.7911 -0.9382
  392MOL0     H52913   4.461   4.682   0.682  1.7039  1.9031  1.7952
  392MOL0     H52914   4.474   4.967   0.666  0.2645 -1.6528  2.8357
  392MOL0     H52915   4.328   4.951   0.596  0.9122  0.5801 -2.5153
  392MOL0     H52916   4.537   4.765   0.474  0.9757  0.4849  1.2850
  392MOL0     H52917   4.571   4.938   0.448 -0.4390  0.0665 -3.5764
  392MOL0     H52918   4.261   4.811   0.185 -4.1680 -0.7603  2.3410
  392MOL0     H52919   4.346   4.494   1.110  4.6089 -0.9052 -2.8010
  392MOL0     H52920   4.346   4.539   1.356 -1.0234 -1.3857 -0.4021
  393MOL0     O52921   0.755   2.695  10.983  0.0113  0.6664 -0.5329
  393MOL0     C52922   0.751   2.594  11.053  0.8420 -0.1612 -0.3272
  393MOL0     O52923   0.855   2.512  11.080  0.3790  0.9072  0.3177
  393MOL0     C52924   0.990   2.549  11.056  0.3244  0.9434 -1.0410
  393MOL0     C52925   1.040   2.674  11.105 -0.4188 -0.0032  0.6054
  393MOL0     C52926   1.175   2.708  11.089 -0.1401  0.0570  0.0320
  393MOL0     C52927   1.263   2.618  11.025 -0.4922 -0.2950  0.2507
  393MOL0     O52928   1.397   2.664  11.028  0.3962  0.5877  0.1752
  393MOL0     C52929   1.499   2.580  10.961  0.3934 -1.1336  0.5175
  393MOL0     C52930   1.604   2.670  10.908 -0.4499 -0.1807  0.5161
  393MOL0     C52931   1.716   2.583  10.841  0.1594  0.9316  0.2110
  393MOL0     C52932   1.829   2.566  10.941 -1.1046 -0.6089  0.3349
  393MOL0     C52933   1.957   2.513  10.871  0.5726  0.2965  0.9218
  393MOL0     C52934   2.032   2.616  10.786 -0.2925 -0.3836 -0.5245
  393MOL0     C52935   2.161   2.565  10.718  0.6068 -0.5434 -0.0403
  393MOL0     C52936   2.143   2.519  10.583  0.2714  0.9116 -0.1342
  393MOL0     N52937   2.260   2.448  10.545  0.3730 -0.4672 -0.7981
  393MOL0     C52938   2.276   2.315  10.560  0.3614 -0.3770  0.3869
  393MOL0     C52939   2.403   2.295  10.520 -0.0626 -0.6295 -0.0204
  393MOL0     C52940   2.479   2.166  10.539  0.1970 -0.0737 -0.4396
  393MOL0     C52941   2.426   2.053  10.454  0.1310  0.2956 -0.0182
  393MOL0     C52942   2.323   1.977  10.551 -0.5086 -1.3718 -0.2717
  393MOL0     C52943   2.250   1.853  10.488 -0.4923 -0.1994  0.2769
  393MOL0     O52944   2.351   1.763  10.422 -0.7143 -0.6776 -0.7422
  393MOL0     C52945   2.381   1.773  10.287  0.0973  0.1458  0.3630
  393MOL0     C52946   2.479   1.682  10.242  0.0653 -0.8145 -0.8972
  393MOL0     C52947   2.525   1.684  10.113  0.2072 -0.2494  0.4969
  393MOL0     C52948   2.642   1.592  10.077  0.9605  0.4791  0.0322
  393MOL0     C52949   2.468   1.773  10.018  0.5445 -0.4095 -0.5679
  393MOL0     C52950   2.491   1.773   9.876 -1.2767  0.3754  0.1060
  393MOL0     O52951   2.441   1.877   9.800  0.3197  0.2194 -0.3164
  393MOL0     C52952   2.416   1.867   9.668  0.8249  1.8744 -0.2408
  393MOL0     C52953   2.293   1.864   9.616  0.1340  0.1922 -0.3015
  393MOL0     C52954   2.267   1.851   9.476  0.6105 -1.2867  0.2499
  393MOL0     C52955   2.384   1.855   9.391  0.2502  0.4770 -0.0422
  393MOL0     O52956   2.383   1.870   9.263  0.0365  0.8199  0.3332
  393MOL0     C52957   2.270   1.938   9.208 -0.2317 -0.2155  1.0093
  393MOL0     C52958   2.280   1.965   9.063  0.7131  0.3108  0.5984
  393MOL0     C52959   2.343   1.845   8.975 -0.4105 -0.3816  0.4129
  393MOL0     C52960   2.319   1.859   8.820 -0.0240  0.0231  0.1746
  393MOL0     C52961   2.397   1.759   8.731 -0.7501 -0.5060 -0.4184
  393MOL0     C52962   2.391   1.809   8.585 -0.0249  0.0677 -0.0345
  393MOL0     C52963   2.273   1.886   8.525  0.1179  0.1484 -0.2464
  393MOL0     C52964   2.140   1.802   8.522 -0.9812  0.1008  0.7664
  393MOL0    Cl52965   2.004   1.885   8.448  0.5403  0.5691 -0.3353
  393MOL0     C52966   2.510   1.850   9.447 -0.0002 -0.4924  0.5340
  393MOL0     C52967   2.523   1.864   9.585  0.3452  0.1579 -0.2952
  393MOL0     O52968   2.542   1.675   9.827 -0.4683 -0.6032  0.2329
  393MOL0     C52969   2.366   1.869  10.065  0.4536  0.6863 -0.5605
  393MOL0     C52970   2.331   1.870  10.200  0.0647 -0.2066  0.1230
  393MOL0     N52971   2.461   2.410  10.459 -1.0397 -0.5279  0.4212
  393MOL0     N52972   2.374   2.504  10.493 -0.5183 -0.1999  0.1056
  393MOL0     C52973   1.212   2.501  10.963  0.0585 -0.9051  0.5590
  393MOL0     C52974   1.074   2.466  10.982 -0.3935 -0.2003 -0.5869
  393MOL0     C52975   0.615   2.541  11.080 -0.9777 -0.5048 -1.1359
  393MOL0     C52976   0.519   2.626  11.129  0.1979  0.7686  0.3500
  393MOL0     C52977   0.391   2.583  11.154 -0.9319 -1.0109 -0.0237
  393MOL0     C52978   0.355   2.443  11.140  0.4081  0.3924 -0.7711
  393MOL0     O52979   0.229   2.396  11.169  0.1794  0.6673  0.7477
  393MOL0     C52980   0.126   2.489  11.221  0.7014  0.1435 -0.1719
  393MOL0     C52981  -0.002   2.413  11.273  0.0684 -0.2690 -0.4135
  393MOL0     C52982   0.039   2.333  11.397 -0.5598  0.0683  0.4593
  393MOL0     C52983  -0.067   2.264  11.476  0.3120  0.0566 -0.2115
  393MOL0     C52984  -0.175   2.212  11.398  1.0817  1.4647 -0.3793
  393MOL0     C52985  -0.253   2.130  11.348  1.3302  0.0102 -0.1642
  393MOL0     C52986   0.459   2.354  11.107  0.5351  0.3089 -0.0153
  393MOL0     C52987   0.582   2.399  11.072  0.0717 -0.5609  0.0414
  393MOL0     H52988   0.960   2.727  11.155 -1.3827 -1.2191  0.3712
  393MOL0     H52989   1.227   2.791  11.137  0.1539 -0.1251  0.0331
  393MOL0     H52990   1.546   2.514  11.035  0.9785  2.3106  3.5201
  393MOL0     H52991   1.450   2.526  10.880 -1.8138  0.1433  0.9143
  393MOL0     H52992   1.559   2.746  10.844 -1.4508  0.6661  2.1574
  393MOL0     H52993   1.647   2.718  10.996  0.5762  0.2235 -0.1801
  393MOL0     H52994   1.684   2.478  10.831 -2.2300  1.4789  1.3759
  393MOL0     H52995   1.749   2.621  10.743 -2.5939 -0.5393 -1.4260
  393MOL0     H52996   1.855   2.664  10.981  0.5719 -0.6762 -0.4862
  393MOL0     H52997   1.796   2.498  11.020 -0.6912 -0.0230  1.0266
  393MOL0     H52998   2.027   2.484  10.950  2.9939  3.1829 -0.0009
  393MOL0     H52999   1.941   2.419  10.817 -0.2606 -0.1110  1.8266
  393MOL0     H53000   1.972   2.663  10.707 -2.0169 -0.5375  0.6373
  393MOL0     H53001   2.060   2.692  10.859  0.1899 -0.5380 -0.5424
  393MOL0     H53002   2.225   2.653  10.719  2.6093 -1.9170  1.8294
  393MOL0     H53003   2.200   2.486  10.783  2.1110  0.8626  0.8102
  393MOL0     H53004   2.130   2.603  10.514 -1.8278 -0.6895 -1.8308
  393MOL0     H53005   2.050   2.462  10.576  1.6001 -1.5265  0.8047
  393MOL0     H53006   2.215   2.244  10.615  0.4320  0.0202  0.9854
  393MOL0     H53007   2.584   2.190  10.518 -0.1909  0.4448 -1.9649
  393MOL0     H53008   2.467   2.143  10.645 -1.3158  0.6510 -0.4332
  393MOL0     H53009   2.506   1.982  10.430 -1.4473 -1.7019  0.3067
  393MOL0     H53010   2.389   2.092  10.359 -0.7603  3.1927  1.4237
  393MOL0     H53011   2.245   2.044  10.590  1.4924  0.3535  1.0175
  393MOL0     H53012   2.380   1.937  10.635 -0.1606  0.5558  0.4759
  393MOL0     H53013   2.182   1.892  10.412 -2.1998 -0.3726  1.6696
  393MOL0     H53014   2.188   1.799  10.559 -1.4810  1.7652  0.9778
  393MOL0     H53015   2.514   1.615  10.320 -1.6605 -0.3593  0.3212
  393MOL0     H53016   2.693   1.535  10.155  1.0178 -0.4170 -0.6443
  393MOL0     H53017   2.612   1.525   9.995 -0.3175 -0.1074  0.9398
  393MOL0     H53018   2.717   1.661  10.037 -2.8780  3.5441 -2.7681
  393MOL0     H53019   2.212   1.872   9.687 -0.2563  3.8358 -0.9893
  393MOL0     H53020   2.168   1.837   9.432  1.1188 -0.2048 -1.3369
  393MOL0     H53021   2.183   1.873   9.220 -0.6122  0.5497  2.7570
  393MOL0     H53022   2.241   2.030   9.260  1.3021 -1.1565  3.7456
  393MOL0     H53023   2.181   1.993   9.027 -0.3843 -2.4995  1.1765
  393MOL0     H53024   2.349   2.048   9.046  2.3102 -0.9813  0.5189
  393MOL0     H53025   2.306   1.746   9.004 -1.0026  0.2856  2.0507
  393MOL0     H53026   2.452   1.845   8.991 -0.4242 -0.8930  0.5283
  393MOL0     H53027   2.212   1.849   8.800 -0.1653 -0.7055  1.2423
  393MOL0     H53028   2.345   1.960   8.786  0.5628  0.0727  0.7483
  393MOL0     H53029   2.345   1.663   8.736 -1.4422 -0.1032  0.1117
  393MOL0     H53030   2.503   1.761   8.758  0.1878 -0.8972 -3.6485
  393MOL0     H53031   2.469   1.886   8.585 -0.3276  0.5244  3.1220
  393MOL0     H53032   2.409   1.723   8.520 -0.7192 -1.3292  1.5662
  393MOL0     H53033   2.289   1.924   8.424 -1.4002 -1.4301 -1.1239
  393MOL0     H53034   2.246   1.977   8.580 -2.3632 -0.0455 -1.0358
  393MOL0     H53035   2.097   1.764   8.615  0.2263 -0.0432  1.2725
  393MOL0     H53036   2.163   1.717   8.457  1.1836  0.5111  0.9391
  393MOL0     H53037   2.590   1.855   9.374  0.2258  0.9790  0.8392
  393MOL0     H53038   2.621   1.860   9.633  0.1586  4.0181  0.7417
  393MOL0     H53039   2.318   1.936   9.994  1.5179 -0.2374 -2.2405
  393MOL0     H53040   2.261   1.945  10.237  0.9248  0.0009  1.3996
  393MOL0     H53041   1.276   2.439  10.901 -0.5320 -0.2716 -0.7450
  393MOL0     H53042   1.031   2.377  10.935  2.2945 -0.4782 -2.7637
  393MOL0     H53043   0.548   2.729  11.145  1.2195  0.7565 -1.2175
  393MOL0     H53044   0.315   2.650  11.194 -0.1603 -0.3473  0.3819
  393MOL0     H53045   0.175   2.546  11.301  6.1852 -3.4883 -0.4203
  393MOL0     H53046   0.102   2.559  11.141 -0.2930  1.1905  0.9978
  393MOL0     H53047  -0.049   2.359  11.190 -0.1745  1.8938 -1.7755
  393MOL0     H53048  -0.081   2.483  11.301 -0.4243 -0.6774 -0.7572
  393MOL0     H53049   0.101   2.397  11.460  2.7634 -2.1455 -0.2963
  393MOL0     H53050   0.103   2.249  11.366  1.9159  0.9755  2.7610
  393MOL0     H53051  -0.116   2.331  11.547 -0.2118 -2.6592  2.1654
  393MOL0     H53052  -0.018   2.188  11.537 -1.5700 -1.1596 -0.1534
  393MOL0     H53053  -0.314   2.073  11.282  2.2498 -0.5773 -0.5333
  393MOL0     H53054   0.441   2.247  11.113  0.5890  0.3727  1.7944
  393MOL0     H53055   0.664   2.333  11.045 -1.6340 -1.4362 -3.7525
  394MOL0     O53056   6.851   0.960   5.745  0.4420  0.0282 -0.0649
  394MOL0     C53057   6.741   0.941   5.795 -0.9113 -0.5701 -1.2368
  394MOL0     O53058   6.718   0.925   5.934  0.0331  0.2717  0.6267
  394MOL0     C53059   6.822   0.949   6.009 -0.4934 -0.2573 -0.5450
  394MOL0     C53060   6.856   1.067   6.062 -0.5448 -0.7192  0.0679
  394MOL0     C53061   6.959   1.088   6.150 -0.1820  0.5562 -0.4837
  394MOL0     C53062   7.033   0.977   6.191  0.4981  0.9801  0.0889
  394MOL0     O53063   7.134   0.988   6.278  0.4516  0.6092  0.8145
  394MOL0     C53064   7.138   1.086   6.378 -1.2360  0.1758 -0.3920
  394MOL0     C53065   7.263   1.078   6.469 -0.6015  0.0234  0.1753
  394MOL0     C53066   7.252   1.169   6.584  0.0733  0.5514 -0.3132
  394MOL0     C53067   7.373   1.167   6.668  0.0386  0.1765  0.2619
  394MOL0     C53068   7.344   1.262   6.788  0.1493  0.1368 -0.1471
  394MOL0     C53069   7.468   1.299   6.868  0.0098 -0.7096  0.2424
  394MOL0     C53070   7.512   1.190   6.964  0.1204  0.1676 -0.2415
  394MOL0     C53071   7.421   1.172   7.090  0.4441  1.0110  0.6328
  394MOL0     N53072   7.396   1.305   7.152  0.6359 -0.1086  0.8397
  394MOL0     C53073   7.486   1.376   7.220  0.5348  0.9908 -0.0522
  394MOL0     C53074   7.422   1.479   7.270 -0.4545  0.4303 -0.1012
  394MOL0     C53075   7.500   1.593   7.331  0.2106 -0.8778  0.3416
  394MOL0     C53076   7.558   1.689   7.212  0.3113 -0.0312 -0.7687
  394MOL0     C53077   7.643   1.802   7.270  0.2846 -0.3354  0.3730
  394MOL0     C53078   7.703   1.888   7.163  0.3294  0.2625 -0.2970
  394MOL0     O53079   7.604   1.968   7.114  0.5093  0.3771  0.8870
  394MOL0     C53080   7.579   2.088   7.179 -0.4171  0.0482  0.3092
  394MOL0     C53081   7.630   2.127   7.305  0.7369  1.6220  0.3798
  394MOL0     C53082   7.605   2.246   7.374 -0.6681 -0.5177 -0.6520
  394MOL0     C53083   7.686   2.270   7.504 -0.1136  0.5375 -0.3536
  394MOL0     C53084   7.512   2.335   7.310 -0.1224 -0.1366 -0.1430
  394MOL0     C53085   7.497   2.476   7.362  0.1722 -0.2350 -0.1546
  394MOL0     O53086   7.389   2.544   7.302  0.7775 -0.4863 -0.5113
  394MOL0     C53087   7.334   2.656   7.357  0.1766  0.0120 -0.6627
  394MOL0     C53088   7.362   2.705   7.493 -0.2886  0.4855  0.7145
  394MOL0     C53089   7.311   2.822   7.540  0.2517 -0.1634  0.0786
  394MOL0     C53090   7.226   2.894   7.452  0.2029  0.0988 -0.5513
  394MOL0     O53091   7.177   3.021   7.491 -0.4993 -0.3685  0.7181
  394MOL0     C53092   7.269   3.114   7.550 -1.0173 -0.4230  0.2215
  394MOL0     C53093   7.377   3.171   7.461  1.1652  0.6818  0.4341
  394MOL0     C53094   7.301   3.250   7.349  0.0396 -0.4935  0.5400
  394MOL0     C53095   7.398   3.313   7.252  1.4542 -0.4838  0.5593
  394MOL0     C53096   7.504   3.404   7.324 -0.4833 -0.5903  0.8275
  394MOL0     C53097   7.603   3.481   7.225 -0.6871 -0.8204 -0.2207
  394MOL0     C53098   7.706   3.544   7.325 -0.5589  0.1055 -0.7068
  394MOL0     C53099   7.821   3.611   7.254  0.1301  0.4478  0.0633
  394MOL0    Cl53100   7.777   3.776   7.208 -0.3640  0.0369 -0.1156
  394MOL0     C53101   7.206   2.863   7.321  0.6749 -0.0814 -0.3211
  394MOL0     C53102   7.254   2.738   7.278  0.3720  0.5274 -0.6355
  394MOL0     O53103   7.572   2.527   7.441 -0.4342  0.6337  0.1310
  394MOL0     C53104   7.470   2.300   7.181 -0.4568  0.3235 -0.3798
  394MOL0     C53105   7.506   2.180   7.114  0.3627 -0.0977  1.4402
  394MOL0     N53106   7.286   1.482   7.231 -0.3985  0.5182  0.1463
  394MOL0     N53107   7.271   1.369   7.161  0.0387  0.0478  0.0013
  394MOL0     C53108   7.008   0.853   6.135 -0.7137  0.3705 -0.6510
  394MOL0     C53109   6.903   0.839   6.044  0.0956  0.1487 -0.3161
  394MOL0     C53110   6.632   0.939   5.690  0.6777 -0.1991  0.0217
  394MOL0     C53111   6.670   0.970   5.558 -0.7531  0.8894  0.2264
  394MOL0     C53112   6.576   0.967   5.455  0.1010  0.1024  0.2289
  394MOL0     C53113   6.438   0.953   5.485  0.6011  0.5858  0.3404
  394MOL0     O53114   6.338   0.954   5.391  0.0929 -0.7989  0.5230
  394MOL0     C53115   6.341   1.044   5.280 -0.1660  0.4059 -0.1585
  394MOL0     C53116   6.208   1.055   5.206  0.0907  0.8902  0.1784
  394MOL0     C53117   6.224   1.061   5.062 -0.7063 -0.0022  0.2158
  394MOL0     C53118   6.100   1.092   4.988 -0.4714 -0.2034  0.3300
  394MOL0     C53119   6.127   1.121   4.842 -0.9153  0.0689 -0.9197
  394MOL0     C53120   6.163   1.136   4.730  0.6705 -0.1993  0.1165
  394MOL0     C53121   6.400   0.928   5.621  0.7907  0.1489  0.0782
  394MOL0     C53122   6.495   0.923   5.720 -0.4418  0.9310 -0.6337
  394MOL0     H53123   6.801   1.155   6.029  0.9054 -0.9456 -3.3263
  394MOL0     H53124   6.979   1.186   6.193  1.9674 -1.3987  3.5453
  394MOL0     H53125   7.132   1.186   6.333 -1.4668 -0.2032 -1.2203
  394MOL0     H53126   7.047   1.077   6.438 -1.7943 -2.4846 -1.5294
  394MOL0     H53127   7.290   0.979   6.506  1.2473  0.2379 -0.5012
  394MOL0     H53128   7.343   1.118   6.406 -0.1628  2.6669  2.2645
  394MOL0     H53129   7.223   1.269   6.551 -1.4033  0.7246  1.3674
  394MOL0     H53130   7.170   1.135   6.648 -0.7652 -1.0593 -2.1337
  394MOL0     H53131   7.399   1.066   6.700  1.3278  1.3419  3.3043
  394MOL0     H53132   7.459   1.203   6.610 -0.6572  3.8974  1.2807
  394MOL0     H53133   7.299   1.350   6.742 -1.3041 -0.4712  0.0605
  394MOL0     H53134   7.271   1.216   6.856  0.4065  1.4903  1.0973
  394MOL0     H53135   7.554   1.313   6.801  1.0335 -0.8091  1.4946
  394MOL0     H53136   7.438   1.389   6.922  1.3074 -1.3452  2.1417
  394MOL0     H53137   7.531   1.101   6.904  0.0983 -0.0313  0.0429
  394MOL0     H53138   7.613   1.218   6.993 -0.0388  0.6809 -0.1646
  394MOL0     H53139   7.463   1.102   7.163 -2.0291 -1.4461 -0.1315
  394MOL0     H53140   7.320   1.141   7.060  1.5961 -0.8957 -1.6204
  394MOL0     H53141   7.592   1.359   7.227  0.1520 -2.6174 -0.9694
  394MOL0     H53142   7.432   1.644   7.400  1.9417  2.8662 -0.4334
  394MOL0     H53143   7.584   1.561   7.393  0.9132  1.9915  1.0352
  394MOL0     H53144   7.478   1.730   7.149  0.8971 -2.0380 -2.9796
  394MOL0     H53145   7.609   1.630   7.135 -5.3365 -3.0041 -2.7739
  394MOL0     H53146   7.719   1.768   7.340  0.7684  5.3827  3.1633
  394MOL0     H53147   7.569   1.857   7.329  0.0451  0.3827 -0.5701
  394MOL0     H53148   7.736   1.827   7.079 -2.9990 -2.1019 -0.1086
  394MOL0     H53149   7.787   1.948   7.198 -0.1098 -0.2093  1.6605
  394MOL0     H53150   7.703   2.060   7.350 -1.3726  0.0204  1.6117
  394MOL0     H53151   7.726   2.178   7.547  1.6044  1.9331  1.1726
  394MOL0     H53152   7.760   2.347   7.479  1.0110 -0.0484  1.0460
  394MOL0     H53153   7.628   2.319   7.583  1.0053 -0.7398  1.3230
  394MOL0     H53154   7.427   2.648   7.559  0.8888  0.3322 -0.5415
  394MOL0     H53155   7.327   2.866   7.637  0.1970 -0.1670  0.0893
  394MOL0     H53156   7.211   3.197   7.591  1.1200  0.3404  1.9044
  394MOL0     H53157   7.306   3.061   7.638  2.6049  1.0369 -0.2403
  394MOL0     H53158   7.442   3.230   7.526 -0.0318  0.7661  1.5945
  394MOL0     H53159   7.442   3.096   7.416  0.2356  0.2595 -0.2393
  394MOL0     H53160   7.249   3.333   7.397 -2.4717 -0.5705 -1.8001
  394MOL0     H53161   7.224   3.192   7.297  1.0300 -0.3222 -1.1726
  394MOL0     H53162   7.453   3.231   7.204 -0.3180 -2.0449  1.0687
  394MOL0     H53163   7.351   3.381   7.181 -3.3561 -5.2325 -1.4869
  394MOL0     H53164   7.573   3.341   7.382  0.1975 -1.4090 -0.8076
  394MOL0     H53165   7.466   3.484   7.389  0.0819 -0.1388  0.6083
  394MOL0     H53166   7.660   3.414   7.160  1.8677  1.2038 -0.2492
  394MOL0     H53167   7.554   3.559   7.165 -1.1821  2.7255  4.3026
  394MOL0     H53168   7.731   3.465   7.396 -0.2351  2.5804  2.1365
  394MOL0     H53169   7.670   3.625   7.389  0.8405 -1.5601  2.4238
  394MOL0     H53170   7.855   3.560   7.163 -1.3432  2.4894 -1.7322
  394MOL0     H53171   7.902   3.625   7.326  0.0621 -1.2001  0.5079
  394MOL0     H53172   7.159   2.930   7.250  1.9745  2.0946  0.7744
  394MOL0     H53173   7.227   2.699   7.181  0.9504 -2.5096  0.3345
  394MOL0     H53174   7.413   2.366   7.116 -3.2648 -0.6696  0.9672
  394MOL0     H53175   7.458   2.154   7.020 -0.4205 -2.1515  2.3476
  394MOL0     H53176   7.050   0.758   6.167 -2.3725 -0.4507 -0.7900
  394MOL0     H53177   6.880   0.740   6.006  1.9549 -1.3547  2.1809
  394MOL0     H53178   6.769   1.005   5.530 -0.4743 -0.5674 -0.6958
  394MOL0     H53179   6.604   0.986   5.352  1.3256 -1.7688  0.1714
  394MOL0     H53180   6.371   1.141   5.319  1.7465 -0.2810  0.2053
  394MOL0     H53181   6.426   1.021   5.215  0.3967  1.1086  0.3123
  394MOL0     H53182   6.164   1.141   5.259 -0.1764 -0.5245  2.4029
  394MOL0     H53183   6.149   0.968   5.236  0.7686  0.5801  0.6316
  394MOL0     H53184   6.262   0.961   5.038 -0.9925 -0.1432  0.3486
  394MOL0     H53185   6.302   1.137   5.045  1.9786 -3.1376 -3.4463
  394MOL0     H53186   6.058   1.180   5.039  4.0378  2.3663  0.1388
  394MOL0     H53187   6.027   1.012   5.002 -1.4974  0.5119 -0.6719
  394MOL0     H53188   6.178   1.141   4.625  3.3383  1.3846  0.4904
  394MOL0     H53189   6.297   0.901   5.641  0.7145 -1.8648 -2.5110
  394MOL0     H53190   6.480   0.898   5.825 -1.6753  0.6293 -0.8600
  395MOL0     O53191   6.707   0.218   3.985 -0.3009  0.8042  0.4958
  395MOL0     C53192   6.600   0.275   4.007 -0.2321 -0.4369  0.0555
  395MOL0     O53193   6.587   0.409   4.037  0.3638  0.0497  0.9549
  395MOL0     C53194   6.692   0.500   4.051  0.1066  0.1803  0.0849
  395MOL0     C53195   6.640   0.629   4.038  0.4251 -0.6670  0.2367
  395MOL0     C53196   6.735   0.735   4.052 -0.0381  0.0555 -0.3514
  395MOL0     C53197   6.868   0.720   4.085 -0.2365 -0.3051 -0.0316
  395MOL0     O53198   6.955   0.831   4.111  0.3711  0.2705  0.3474
  395MOL0     C53199   6.904   0.963   4.077  0.8850  1.0423 -0.2844
  395MOL0     C53200   7.014   1.065   4.128  1.2271 -0.0331 -0.8908
  395MOL0     C53201   6.960   1.209   4.160  0.2320 -0.6452 -0.9826
  395MOL0     C53202   7.076   1.309   4.159  0.8226 -0.7345 -0.0514
  395MOL0     C53203   7.096   1.354   4.309  0.3623  0.5462 -0.1275
  395MOL0     C53204   7.219   1.427   4.331 -0.4047  0.3482 -0.6191
  395MOL0     C53205   7.208   1.572   4.279  0.0155  0.2420 -0.4387
  395MOL0     C53206   7.307   1.659   4.368  0.2572 -0.5311 -0.3261
  395MOL0     N53207   7.447   1.609   4.352 -0.1647  0.1775 -0.1942
  395MOL0     C53208   7.536   1.652   4.258  0.1670  0.6462  0.2073
  395MOL0     C53209   7.650   1.582   4.280 -0.1016 -0.3421 -0.2927
  395MOL0     C53210   7.772   1.583   4.193  0.5017 -0.1596 -0.2105
  395MOL0     C53211   7.914   1.557   4.260  0.9496  0.0735  0.5723
  395MOL0     C53212   7.979   1.461   4.170 -0.6234  0.5164 -0.2177
  395MOL0     C53213   8.112   1.412   4.215  0.1102  0.2051 -0.7144
  395MOL0     O53214   8.228   1.430   4.128  0.3715  0.4874  0.6643
  395MOL0     C53215   8.279   1.318   4.063  0.0601 -0.0504 -0.8074
  395MOL0     C53216   8.401   1.341   4.007 -0.1942  0.0235  1.3039
  395MOL0     C53217   8.466   1.237   3.939 -0.1926  0.2090  0.0839
  395MOL0     C53218   8.610   1.264   3.899  0.0444 -0.5750 -0.9216
  395MOL0     C53219   8.412   1.107   3.920 -0.0231 -0.8685 -0.2755
  395MOL0     C53220   8.481   0.982   3.859  0.4293 -0.3576 -0.2846
  395MOL0     O53221   8.386   0.887   3.821  0.2369  0.4006  0.2339
  395MOL0     C53222   8.419   0.796   3.728 -0.8608  1.0358  0.1099
  395MOL0     C53223   8.402   0.668   3.773 -0.7775  0.2567 -0.0696
  395MOL0     C53224   8.420   0.552   3.686  0.3313  0.1379 -0.9728
  395MOL0     C53225   8.460   0.568   3.554  0.1822 -0.3000  0.2158
  395MOL0     O53226   8.458   0.457   3.483  1.0929  0.7561  0.3619
  395MOL0     C53227   8.530   0.450   3.360 -0.1468 -0.2326 -0.2492
  395MOL0     C53228   8.510   0.308   3.306  0.7717 -0.3740 -0.4818
  395MOL0     C53229   8.372   0.240   3.334 -0.0679 -0.9979 -0.2695
  395MOL0     C53230   8.314   0.174   3.207  0.1287 -0.4669 -0.9103
  395MOL0     C53231   8.344   0.025   3.192 -0.9508  0.4207  0.7536
  395MOL0     C53232   8.490  -0.019   3.193 -0.0040 -0.1630  0.7535
  395MOL0     C53233   8.505  -0.176   3.185 -0.6546  0.2334 -0.1274
  395MOL0     C53234   8.646  -0.210   3.239  0.1455  0.0627  0.2386
  395MOL0    Cl53235   8.776  -0.156   3.118 -0.0655  0.0493 -0.1020
  395MOL0     C53236   8.477   0.708   3.502  0.2925 -0.3360 -0.0739
  395MOL0     C53237   8.462   0.816   3.596  0.9304  0.0091  0.3539
  395MOL0     O53238   8.601   0.986   3.830 -0.2113 -0.8838  0.1877
  395MOL0     C53239   8.284   1.093   3.966  0.4649 -0.0611 -0.4844
  395MOL0     C53240   8.220   1.189   4.034 -0.2534 -0.5173 -0.7140
  395MOL0     N53241   7.625   1.511   4.400  0.5470 -0.2787 -0.1099
  395MOL0     N53242   7.509   1.524   4.437 -0.6457 -0.8715 -0.5554
  395MOL0     C53243   6.910   0.590   4.105  0.3532  0.0279  0.2076
  395MOL0     C53244   6.826   0.478   4.094 -0.4151  0.2341  0.5089
  395MOL0     C53245   6.475   0.185   4.006 -0.3976 -0.1089  0.2186
  395MOL0     C53246   6.358   0.240   3.964  0.1332 -0.2903 -0.4030
  395MOL0     C53247   6.243   0.161   3.970 -0.4683  1.0719 -0.6773
  395MOL0     C53248   6.246   0.032   4.029 -0.3307  0.1253  0.1703
  395MOL0     O53249   6.126  -0.043   4.032  0.0377  0.3696 -0.4246
  395MOL0     C53250   6.001   0.010   4.083 -0.0986 -0.3422 -0.4614
  395MOL0     C53251   5.923  -0.094   4.153  0.7179 -0.5945 -0.3390
  395MOL0     C53252   5.917  -0.229   4.082  0.1981 -0.0462  0.3765
  395MOL0     C53253   5.824  -0.322   4.158  0.6761  0.7538 -0.5245
  395MOL0     C53254   5.682  -0.284   4.133  0.5575  0.0291  0.0020
  395MOL0     C53255   5.572  -0.238   4.082 -0.0725 -0.9211  0.4318
  395MOL0     C53256   6.366  -0.024   4.074 -0.8748 -0.0955 -0.6169
  395MOL0     C53257   6.478   0.053   4.067  0.4198 -0.0478  1.2332
  395MOL0     H53258   6.533   0.642   4.024  0.9103  3.0352 -1.1578
  395MOL0     H53259   6.678   0.827   4.054  0.6607  0.5001 -0.4883
  395MOL0     H53260   6.878   0.975   3.971  1.1486  1.9230 -0.2558
  395MOL0     H53261   6.813   0.989   4.132  2.8174  2.7223  2.3222
  395MOL0     H53262   7.057   1.024   4.220  0.6386  2.6181  0.6593
  395MOL0     H53263   7.090   1.077   4.050  1.8847  1.3619 -0.0645
  395MOL0     H53264   6.888   1.251   4.089 -0.0228 -0.4846 -0.6290
  395MOL0     H53265   6.912   1.207   4.258 -0.0020 -0.7911 -1.0985
  395MOL0     H53266   7.163   1.258   4.119 -0.2837 -1.3886 -1.7434
  395MOL0     H53267   7.042   1.400   4.108 -0.6882 -1.3069 -0.1136
  395MOL0     H53268   7.011   1.414   4.345 -0.4918 -1.1523  0.7862
  395MOL0     H53269   7.098   1.262   4.368  1.8984  0.2670 -0.5928
  395MOL0     H53270   7.229   1.428   4.440 -0.8776 -0.7944 -0.5477
  395MOL0     H53271   7.300   1.373   4.281 -2.2589 -2.9914 -0.3549
  395MOL0     H53272   7.239   1.578   4.174  3.5299  0.8567  0.4905
  395MOL0     H53273   7.108   1.614   4.291 -0.4767 -1.0582  0.1588
  395MOL0     H53274   7.265   1.644   4.468 -2.7262 -5.6822 -2.0288
  395MOL0     H53275   7.293   1.766   4.349 -1.1640 -0.5461  0.5228
  395MOL0     H53276   7.513   1.718   4.175 -1.1514  0.6889  0.5799
  395MOL0     H53277   7.747   1.511   4.115  3.3611  0.4297 -1.7948
  395MOL0     H53278   7.776   1.686   4.158 -4.6420  0.9237  1.5694
  395MOL0     H53279   7.909   1.513   4.360  1.6213  0.1471  0.6438
  395MOL0     H53280   7.970   1.650   4.278  0.0159  0.8092 -0.1894
  395MOL0     H53281   7.982   1.497   4.067 -1.8295  2.2462  0.3075
  395MOL0     H53282   7.915   1.372   4.176 -0.2044  0.3065  2.9223
  395MOL0     H53283   8.109   1.307   4.244 -0.3385  0.0567 -1.2888
  395MOL0     H53284   8.131   1.458   4.313 -0.4199 -2.9099  0.9715
  395MOL0     H53285   8.438   1.443   4.013 -3.4761  1.6176 -1.7270
  395MOL0     H53286   8.631   1.259   3.792 -1.8039  1.6616 -1.4442
  395MOL0     H53287   8.644   1.360   3.938  2.9709 -1.4734 -0.9483
  395MOL0     H53288   8.676   1.202   3.961  3.5816  1.0589 -2.7533
  395MOL0     H53289   8.359   0.646   3.870 -2.3714 -1.7452 -1.1559
  395MOL0     H53290   8.382   0.462   3.734  0.9272  1.8611  3.1251
  395MOL0     H53291   8.502   0.528   3.288 -0.7048  0.1444  0.3700
  395MOL0     H53292   8.636   0.459   3.387 -0.1213 -1.6195  0.1542
  395MOL0     H53293   8.521   0.310   3.197 -1.5361  0.9493 -0.7507
  395MOL0     H53294   8.581   0.238   3.351 -1.7743 -3.5197 -0.9703
  395MOL0     H53295   8.292   0.313   3.351 -0.7616 -0.7759 -3.7223
  395MOL0     H53296   8.374   0.166   3.414 -2.8257 -0.4652  0.4081
  395MOL0     H53297   8.207   0.196   3.199 -0.0991 -1.6546 -1.3124
  395MOL0     H53298   8.357   0.225   3.120  0.0659  2.2526  0.5407
  395MOL0     H53299   8.309  -0.001   3.092  0.9164  1.6117 -0.2652
  395MOL0     H53300   8.287  -0.033   3.266 -0.5282 -0.9283  0.0658
  395MOL0     H53301   8.538   0.029   3.108  1.6836  1.3597  2.4607
  395MOL0     H53302   8.544   0.018   3.281  0.8995  0.1585  0.0715
  395MOL0     H53303   8.478  -0.203   3.083 -1.3654 -0.7735  0.3168
  395MOL0     H53304   8.434  -0.226   3.251 -1.8121  0.2722 -1.3225
  395MOL0     H53305   8.651  -0.317   3.261  2.2168  0.4167  1.8321
  395MOL0     H53306   8.662  -0.150   3.329  0.1179 -0.5559  0.6671
  395MOL0     H53307   8.506   0.724   3.399 -0.3892 -2.1653 -0.6027
  395MOL0     H53308   8.467   0.921   3.568 -1.0995 -0.1428 -0.8332
  395MOL0     H53309   8.231   0.998   3.969  1.6481 -0.7169  1.4822
  395MOL0     H53310   8.124   1.159   4.075 -0.2692 -1.5204 -1.4627
  395MOL0     H53311   7.007   0.559   4.144  0.5454 -1.4807 -1.3018
  395MOL0     H53312   6.863   0.377   4.105  2.0446  1.2364  2.7089
  395MOL0     H53313   6.359   0.338   3.917 -1.6636 -0.2644 -0.4589
  395MOL0     H53314   6.148   0.210   3.950 -0.8458  1.1294  1.0607
  395MOL0     H53315   6.015   0.096   4.150  2.6465 -0.2346 -1.0738
  395MOL0     H53316   5.949   0.045   3.993 -0.5910  0.1883  0.0198
  395MOL0     H53317   5.819  -0.063   4.166  1.2214  1.8932 -1.6882
  395MOL0     H53318   5.976  -0.105   4.248 -3.7978 -1.0357  2.4182
  395MOL0     H53319   6.021  -0.263   4.085  1.3578  3.1524  0.8498
  395MOL0     H53320   5.897  -0.223   3.975 -2.9214  1.4059  0.9467
  395MOL0     H53321   5.849  -0.302   4.263  0.8309  1.7122 -0.7370
  395MOL0     H53322   5.845  -0.425   4.127  1.6642  1.0520 -0.8806
  395MOL0     H53323   5.483  -0.196   4.039  1.6836  3.0445  0.2216
  395MOL0     H53324   6.364  -0.121   4.123  0.6516  0.7630  1.3082
  395MOL0     H53325   6.570   0.007   4.101  1.5207  1.4012  0.3759
  396MOL0     O53326   9.052  11.437   0.082 -0.0555 -0.1081 -0.6831
  396MOL0     C53327   9.058  11.442  -0.040 -0.3848 -1.3092 -0.2351
  396MOL0     O53328   8.952  11.411  -0.122  0.5834 -0.7001 -0.6256
  396MOL0     C53329   8.835  11.370  -0.060  0.0345 -0.1007 -0.4890
  396MOL0     C53330   8.773  11.449   0.044 -0.5470  0.4992  0.0923
  396MOL0     C53331   8.671  11.397   0.127  0.2398 -0.1738  0.5022
  396MOL0     C53332   8.614  11.276   0.097 -0.0110 -0.4533  1.0640
  396MOL0     O53333   8.512  11.241   0.179  0.7152 -0.1662 -0.2014
  396MOL0     C53334   8.482  11.108   0.189  0.1422 -0.2296  0.4680
  396MOL0     C53335   8.426  11.081   0.333 -0.4092 -0.2659  0.1680
  396MOL0     C53336   8.402  10.932   0.347  0.6450 -0.2289 -1.3178
  396MOL0     C53337   8.524  10.836   0.353 -0.1112  0.6385 -0.7554
  396MOL0     C53338   8.475  10.711   0.430 -0.3310 -0.8928 -0.4456
  396MOL0     C53339   8.602  10.621   0.448  0.1908 -0.8157  0.4357
  396MOL0     C53340   8.558  10.478   0.482  1.0947 -0.0457  0.1285
  396MOL0     C53341   8.485  10.469   0.616 -0.6986  0.7211  0.3914
  396MOL0     N53342   8.421  10.335   0.623  0.6178 -0.3300 -0.4430
  396MOL0     C53343   8.471  10.217   0.671  0.3961  1.2014  1.0716
  396MOL0     C53344   8.373  10.120   0.675 -0.0789  0.1245  0.2598
  396MOL0     C53345   8.394   9.975   0.680  0.3408  0.6805 -0.4644
  396MOL0     C53346   8.271   9.909   0.749 -0.0561 -0.1004 -0.3097
  396MOL0     C53347   8.299   9.759   0.754 -0.3903  0.3384 -0.5411
  396MOL0     C53348   8.346   9.704   0.893 -0.4295  0.7507  0.5690
  396MOL0     O53349   8.481   9.763   0.915 -0.2661 -0.2798  1.3303
  396MOL0     C53350   8.486   9.790   1.046 -0.2027  0.0455 -0.2273
  396MOL0     C53351   8.571   9.713   1.126 -0.2364 -0.6019 -0.3492
  396MOL0     C53352   8.587   9.760   1.267 -0.0855  0.5302 -0.3934
  396MOL0     C53353   8.684   9.697   1.349 -1.3916  0.7704  0.4159
  396MOL0     C53354   8.511   9.871   1.308 -0.3292 -0.2268 -1.0717
  396MOL0     C53355   8.512   9.921   1.453 -0.3081 -0.7841  1.3318
  396MOL0     O53356   8.455  10.035   1.465 -0.0513 -1.0083 -0.2366
  396MOL0     C53357   8.471  10.114   1.579  0.2345  0.1473  0.6138
  396MOL0     C53358   8.550  10.231   1.576 -0.8504  0.9386 -0.2227
  396MOL0     C53359   8.576  10.313   1.693  0.1062 -0.7773  0.4630
  396MOL0     C53360   8.524  10.280   1.814  0.3556 -0.4037 -0.4620
  396MOL0     O53361   8.553  10.358   1.921  0.3087  0.8309  0.1178
  396MOL0     C53362   8.456  10.366   2.027  0.2789 -0.1559 -0.8341
  396MOL0     C53363   8.494  10.467   2.136 -0.0091  0.3092 -0.0940
  396MOL0     C53364   8.512  10.608   2.073 -0.5856  0.4031  0.0231
  396MOL0     C53365   8.483  10.722   2.182  0.3942  0.6415 -0.8843
  396MOL0     C53366   8.479  10.856   2.127 -0.6484 -0.0579  0.5483
  396MOL0     C53367   8.404  10.950   2.213  0.1923  0.3241 -1.0189
  396MOL0     C53368   8.453  11.095   2.185  0.2179  0.9332 -0.4902
  396MOL0     C53369   8.362  11.195   2.256 -0.1565  0.3271 -0.4540
  396MOL0    Cl53370   8.419  11.226   2.417 -0.3441  0.0944  0.1265
  396MOL0     C53371   8.444  10.162   1.813 -0.0477  0.2114  0.1054
  396MOL0     C53372   8.423  10.079   1.705 -0.6873  0.1949 -0.1634
  396MOL0     O53373   8.540   9.847   1.543 -0.3343  0.6086  0.7059
  396MOL0     C53374   8.445   9.947   1.212  0.3346 -1.0081 -0.2230
  396MOL0     C53375   8.442   9.908   1.077 -0.5631  0.0747  0.0166
  396MOL0     N53376   8.265  10.190   0.635  0.4198 -0.0185 -0.0767
  396MOL0     N53377   8.291  10.314   0.609 -0.7741  0.1832 -0.0244
  396MOL0     C53378   8.663  11.201  -0.008  0.4237  0.3693 -0.1075
  396MOL0     C53379   8.776  11.251  -0.084  0.4870  0.1958  0.5903
  396MOL0     C53380   9.179  11.490  -0.110 -0.1339  0.4386 -1.1799
  396MOL0     C53381   9.308  11.496  -0.043  0.2334  0.1293  0.3328
  396MOL0     C53382   9.420  11.532  -0.114  0.3676 -0.6426  0.1057
  396MOL0     C53383   9.415  11.565  -0.250  0.5785  0.4552  0.4533
  396MOL0     O53384   9.533  11.598  -0.307  0.9269  0.0678  0.4441
  396MOL0     C53385   9.550  11.741  -0.330  0.3615  0.2605 -0.3281
  396MOL0     C53386   9.676  11.798  -0.258 -0.4357 -0.2748  0.0010
  396MOL0     C53387   9.684  11.944  -0.294 -0.7062 -0.4925  0.1946
  396MOL0     C53388   9.561  12.031  -0.242  0.1168 -0.1057 -0.9755
  396MOL0     C53389   9.570  12.170  -0.295 -0.2730 -0.3211  0.3449
  396MOL0     C53390   9.583  12.287  -0.326  0.3437  0.0058 -0.8288
  396MOL0     C53391   9.281  11.574  -0.308  0.1502 -0.0536 -1.2310
  396MOL0     C53392   9.175  11.523  -0.237  1.0224 -0.3185  0.4391
  396MOL0     H53393   8.814  11.544   0.076  3.2644 -0.0793 -2.4660
  396MOL0     H53394   8.634  11.452   0.212 -0.6845  0.1021 -0.0612
  396MOL0     H53395   8.406  11.084   0.114  0.4096 -2.1402  0.7594
  396MOL0     H53396   8.575  11.055   0.167  1.1036  2.0021 -1.1995
  396MOL0     H53397   8.489  11.124   0.412  0.6162  1.3846 -1.4655
  396MOL0     H53398   8.331  11.133   0.347  1.2342  2.4688  2.1437
  396MOL0     H53399   8.340  10.919   0.437  1.6437 -2.1923 -0.8518
  396MOL0     H53400   8.339  10.914   0.259  2.1322  0.9088 -2.6667
  396MOL0     H53401   8.561  10.816   0.252  0.9133  1.4104 -0.5442
  396MOL0     H53402   8.615  10.876   0.399 -0.0961 -2.3316  2.1697
  396MOL0     H53403   8.414  10.738   0.516 -3.0229  1.4283 -2.8793
  396MOL0     H53404   8.405  10.651   0.372  0.8552 -0.5572 -2.3107
  396MOL0     H53405   8.660  10.611   0.356  1.6856  1.0618  1.1098
  396MOL0     H53406   8.669  10.644   0.531 -1.8964 -0.4714  2.1127
  396MOL0     H53407   8.498  10.438   0.400 -0.8213 -0.1838  1.5236
  396MOL0     H53408   8.651  10.420   0.491  0.3774 -0.9081  3.8257
  396MOL0     H53409   8.397  10.535   0.619 -0.4402  1.0532  3.2800
  396MOL0     H53410   8.553  10.507   0.693  0.2104 -0.2316  0.0689
  396MOL0     H53411   8.578  10.206   0.689  0.0668  2.2999  4.3121
  396MOL0     H53412   8.387   9.934   0.579 -0.8973 -3.7924  1.1929
  396MOL0     H53413   8.489   9.952   0.729 -0.1371 -3.0905 -1.0092
  396MOL0     H53414   8.183   9.936   0.690  0.2201  0.4103 -0.4916
  396MOL0     H53415   8.261   9.954   0.848 -0.7814  2.1642 -1.3359
  396MOL0     H53416   8.371   9.736   0.676 -0.5693  5.0619 -2.4308
  396MOL0     H53417   8.204   9.706   0.740 -1.3206  0.3951  3.8725
  396MOL0     H53418   8.348   9.596   0.875  0.6818  0.7286  0.7230
  396MOL0     H53419   8.275   9.724   0.973 -0.4094  0.4910  0.6518
  396MOL0     H53420   8.628   9.628   1.091  1.3184 -0.0836  0.8044
  396MOL0     H53421   8.635   9.637   1.426 -0.6586  1.8681  1.7807
  396MOL0     H53422   8.748   9.626   1.295 -0.9137  3.1258 -2.3540
  396MOL0     H53423   8.750   9.777   1.385 -0.2490 -0.5141  1.3187
  396MOL0     H53424   8.601  10.255   1.483 -0.2497 -1.0769 -0.4642
  396MOL0     H53425   8.629  10.407   1.684 -0.1813 -0.6440  0.1118
  396MOL0     H53426   8.363  10.402   1.982 -0.6573 -1.0639  0.3056
  396MOL0     H53427   8.435  10.264   2.058 -1.1786 -0.1759 -1.7914
  396MOL0     H53428   8.421  10.461   2.218 -1.6354  1.6655 -1.3659
  396MOL0     H53429   8.588  10.431   2.179  2.3244  1.4283 -3.8231
  396MOL0     H53430   8.455  10.625   1.981 -1.8863  2.8636  1.1976
  396MOL0     H53431   8.613  10.625   2.035 -1.4395  2.3906 -1.5422
  396MOL0     H53432   8.388  10.699   2.232  1.3269 -1.7741 -0.0919
  396MOL0     H53433   8.559  10.704   2.258  0.8711  1.7594 -1.0829
  396MOL0     H53434   8.436  10.838   2.028  0.1377 -1.5381  0.4348
  396MOL0     H53435   8.583  10.887   2.114  0.1444 -1.7548  2.2876
  396MOL0     H53436   8.298  10.931   2.191  0.1141 -0.3548 -0.0916
  396MOL0     H53437   8.435  10.923   2.314  0.2641 -0.5122 -1.2619
  396MOL0     H53438   8.458  11.124   2.079  2.8515  0.1818 -0.6400
  396MOL0     H53439   8.560  11.101   2.206  0.0948  1.3825  0.0150
  396MOL0     H53440   8.257  11.166   2.264 -0.2329  0.9442  1.3705
  396MOL0     H53441   8.363  11.296   2.212 -1.0694  1.2172  1.4368
  396MOL0     H53442   8.402  10.128   1.908 -0.7946  0.1595 -0.2327
  396MOL0     H53443   8.360   9.991   1.704  1.9208 -1.9388  2.9411
  396MOL0     H53444   8.385  10.034   1.237  1.1376 -0.9671  1.6527
  396MOL0     H53445   8.402   9.981   1.009  0.1777  2.8272  2.3407
  396MOL0     H53446   8.620  11.107  -0.039 -1.1108  0.3849  1.7836
  396MOL0     H53447   8.814  11.189  -0.164 -1.9868  0.6172 -1.0593
  396MOL0     H53448   9.315  11.478   0.064  1.4292 -0.5375  0.1468
  396MOL0     H53449   9.522  11.523  -0.078  0.0237 -0.1434  1.2368
  396MOL0     H53450   9.564  11.758  -0.437 -0.2076 -1.0871 -0.6381
  396MOL0     H53451   9.458  11.780  -0.287  1.0293  0.0412  1.3951
  396MOL0     H53452   9.763  11.754  -0.307  1.8725  3.9426 -0.1146
  396MOL0     H53453   9.668  11.772  -0.152  0.5908 -2.0251 -0.3192
  396MOL0     H53454   9.684  11.947  -0.403  0.5896  3.0417  0.1751
  396MOL0     H53455   9.779  11.976  -0.252  0.0883 -3.6507  1.0943
  396MOL0     H53456   9.563  12.015  -0.134  3.9201  0.7875 -0.7804
  396MOL0     H53457   9.465  11.995  -0.281  0.6928 -4.1381  0.7685
  396MOL0     H53458   9.611  12.390  -0.341 -1.3805  0.6110 -0.0765
  396MOL0     H53459   9.257  11.585  -0.414 -0.2370  0.6709 -1.0757
  396MOL0     H53460   9.081  11.515  -0.290 -0.4709 -1.6486  3.0784
  397MOL0     O53461   9.005   0.294  10.058 -0.1532  0.0892 -0.1862
  397MOL0     C53462   8.970   0.369   9.972 -0.1426  0.7052 -0.2984
  397MOL0     O53463   8.952   0.325   9.844  0.4215  0.6573  0.7159
  397MOL0     C53464   9.023   0.221   9.793 -0.2916 -0.4916 -0.1005
  397MOL0     C53465   9.160   0.244   9.760  0.9774  0.0545  0.0249
  397MOL0     C53466   9.229   0.133   9.716  0.1342  0.5049  0.2033
  397MOL0     C53467   9.177   0.001   9.730  0.0221 -0.5963 -0.2540
  397MOL0     O53468   9.254  -0.113   9.707 -0.1314  0.0513  0.4812
  397MOL0     C53469   9.391  -0.123   9.743 -0.8303 -0.7644 -0.2080
  397MOL0     C53470   9.411  -0.115   9.897 -0.1961 -0.4400 -0.1267
  397MOL0     C53471   9.342  -0.229   9.968  0.0447 -0.3054 -0.5565
  397MOL0     C53472   9.308  -0.192  10.121  0.2668  0.1834 -0.0006
  397MOL0     C53473   9.219  -0.298  10.192 -0.6964  0.2259 -0.6633
  397MOL0     C53474   9.300  -0.415  10.243  1.0710  1.0582 -0.0870
  397MOL0     C53475   9.230  -0.544  10.275  0.2612 -0.5683  0.3505
  397MOL0     C53476   9.316  -0.643  10.347 -0.0159  0.4707 -0.6833
  397MOL0     N53477   9.244  -0.773  10.364  0.7504  0.0295  0.5746
  397MOL0     C53478   9.300  -0.882  10.427  0.5414  0.5416 -0.2752
  397MOL0     C53479   9.213  -0.981  10.418  0.2898 -0.1063 -0.3938
  397MOL0     C53480   9.230  -1.126  10.454 -0.0803 -0.6345  0.8466
  397MOL0     C53481   9.277  -1.207  10.338  0.7632  0.3890  0.8939
  397MOL0     C53482   9.265  -1.365  10.349  0.0487 -1.1684  0.0314
  397MOL0     C53483   9.338  -1.425  10.469 -0.0486 -0.0608  0.2398
  397MOL0     O53484   9.254  -1.399  10.586 -0.3352  0.0894 -0.2096
  397MOL0     C53485   9.314  -1.413  10.702 -0.6447 -0.5511 -1.0652
  397MOL0     C53486   9.391  -1.317  10.770  0.5998 -0.2775 -1.0563
  397MOL0     C53487   9.455  -1.342  10.897 -0.4529 -0.2686 -0.6168
  397MOL0     C53488   9.518  -1.226  10.965 -0.1171 -0.0416  0.3968
  397MOL0     C53489   9.429  -1.469  10.954 -0.4781  0.7252  0.2265
  397MOL0     C53490   9.464  -1.495  11.093 -0.4112 -0.1776  0.9231
  397MOL0     O53491   9.461  -1.631  11.116  0.4213 -0.6538  0.3630
  397MOL0     C53492   9.529  -1.672  11.231  0.6794  0.4328 -0.8103
  397MOL0     C53493   9.671  -1.665  11.241  1.3764  0.8848  0.2904
  397MOL0     C53494   9.731  -1.722  11.343 -0.1429 -0.6815 -0.8102
  397MOL0     C53495   9.659  -1.781  11.441 -0.2192  0.3070  0.4516
  397MOL0     O53496   9.713  -1.812  11.561  0.1417 -0.1015 -0.4413
  397MOL0     C53497   9.839  -1.778  11.600 -0.8670  0.0094  0.0321
  397MOL0     C53498   9.858  -1.851  11.732  0.2428 -0.2617  0.1232
  397MOL0     C53499   9.987  -1.809  11.813  0.7770 -0.2093  0.6827
  397MOL0     C53500   9.976  -1.659  11.861 -0.2356 -0.2374 -0.1421
  397MOL0     C53501  10.080  -1.617  11.966  0.4686 -0.5722 -0.3367
  397MOL0     C53502  10.225  -1.656  11.932  0.0812 -0.1543  0.2125
  397MOL0     C53503  10.323  -1.631  12.054  0.8002  0.2087 -0.3107
  397MOL0     C53504  10.294  -1.719  12.176  0.5281  0.0216 -1.0118
  397MOL0    Cl53505  10.295  -1.883  12.130  0.0261  0.4966 -0.2746
  397MOL0     C53506   9.522  -1.784  11.443  1.0797 -0.2082  0.1130
  397MOL0     C53507   9.455  -1.730  11.330  0.8774  0.2684 -0.5073
  397MOL0     O53508   9.508  -1.410  11.174 -0.0728  0.1321 -1.2295
  397MOL0     C53509   9.357  -1.564  10.886  0.5220  0.1322  1.0466
  397MOL0     C53510   9.294  -1.530  10.771  0.6669  0.2536  0.4224
  397MOL0     N53511   9.099  -0.930  10.359 -0.2236 -0.1177 -0.6388
  397MOL0     N53512   9.123  -0.805  10.327  0.6998  0.7763 -0.7692
  397MOL0     C53513   9.055  -0.013   9.778 -0.1190  0.6961 -0.4230
  397MOL0     C53514   8.969   0.090   9.795 -0.5897 -0.3684  0.7056
  397MOL0     C53515   8.925   0.502  10.012 -0.1312 -0.6432  0.3973
  397MOL0     C53516   8.881   0.583   9.902  1.3939 -0.3125 -0.3458
  397MOL0     C53517   8.827   0.712   9.940  0.2177 -0.7197  0.2216
  397MOL0     C53518   8.821   0.765  10.071 -0.3472  0.7106  1.0283
  397MOL0     O53519   8.789   0.896  10.078  1.3571  0.1401 -0.0211
  397MOL0     C53520   8.695   0.914  10.180  0.8913 -0.8272 -0.4258
  397MOL0     C53521   8.629   1.042  10.153  0.2670 -0.0034 -0.5339
  397MOL0     C53522   8.721   1.166  10.138 -0.4730 -0.0641  0.0927
  397MOL0     C53523   8.662   1.308  10.151  0.6269 -0.4538  0.7305
  397MOL0     C53524   8.531   1.315  10.066 -0.0076  0.9182  0.4889
  397MOL0     C53525   8.426   1.315  10.000  1.1102  0.4949  1.1922
  397MOL0     C53526   8.855   0.672  10.170  0.4770 -0.4169 -0.2042
  397MOL0     C53527   8.914   0.545  10.145 -0.3488  0.3676 -0.1167
  397MOL0     H53528   9.203   0.342   9.779 -0.0882  0.2736  1.4538
  397MOL0     H53529   9.336   0.140   9.695  0.3535 -1.7515  0.3441
  397MOL0     H53530   9.432  -0.218   9.707  0.5127 -2.0568  4.2009
  397MOL0     H53531   9.451  -0.043   9.699 -2.5043  0.3699 -0.5045
  397MOL0     H53532   9.513  -0.094   9.929 -0.0280  0.7798 -1.3479
  397MOL0     H53533   9.358  -0.021   9.919  0.3707  0.3026 -1.7647
  397MOL0     H53534   9.244  -0.243   9.923 -0.4830  2.4920 -0.4287
  397MOL0     H53535   9.416  -0.311   9.971  1.0176  0.5171  2.9745
  397MOL0     H53536   9.399  -0.180  10.180  1.0253 -1.6088 -0.7115
  397MOL0     H53537   9.260  -0.096  10.105  0.5868  0.1407 -1.3130
  397MOL0     H53538   9.171  -0.255  10.280 -0.0174  2.6574 -1.3920
  397MOL0     H53539   9.143  -0.343  10.127  2.6060 -1.8287 -3.4819
  397MOL0     H53540   9.369  -0.444  10.163 -0.1436  1.0447 -1.1593
  397MOL0     H53541   9.348  -0.389  10.338 -0.4953  0.0078  1.0395
  397MOL0     H53542   9.141  -0.522  10.333 -1.4074 -2.7661 -1.2177
  397MOL0     H53543   9.195  -0.592  10.183 -2.8086  1.4402  0.3341
  397MOL0     H53544   9.332  -0.610  10.450  1.0661  3.0239 -1.5872
  397MOL0     H53545   9.411  -0.673  10.302 -1.0167 -2.2327 -1.1984
  397MOL0     H53546   9.399  -0.910  10.462 -0.2403 -2.2097 -0.0094
  397MOL0     H53547   9.301  -1.132  10.537  0.0124 -2.8591  0.6447
  397MOL0     H53548   9.138  -1.162  10.501 -0.1627 -1.8049 -0.1574
  397MOL0     H53549   9.382  -1.182  10.318  0.0322  0.8111 -3.0932
  397MOL0     H53550   9.222  -1.177  10.249 -0.7791 -2.5584  0.7079
  397MOL0     H53551   9.293  -1.399  10.249  1.2997  2.2886 -0.9553
  397MOL0     H53552   9.158  -1.380  10.365 -0.6470  2.8894  0.4964
  397MOL0     H53553   9.441  -1.388  10.473  1.2366 -3.3138  0.9350
  397MOL0     H53554   9.359  -1.531  10.454  1.5668  0.0713  1.2722
  397MOL0     H53555   9.413  -1.223  10.721  0.0120  0.7886  0.6174
  397MOL0     H53556   9.526  -1.146  10.891 -0.2982 -0.3452  0.0447
  397MOL0     H53557   9.454  -1.192  11.047 -1.4386 -1.0074 -0.1945
  397MOL0     H53558   9.620  -1.252  10.996  1.2482  1.5124 -2.4052
  397MOL0     H53559   9.728  -1.609  11.169 -0.2844  0.8275 -1.1291
  397MOL0     H53560   9.839  -1.712  11.343 -0.2310  0.3909 -0.4814
  397MOL0     H53561   9.914  -1.823  11.535 -0.4301  0.5401  0.1609
  397MOL0     H53562   9.862  -1.671  11.605  1.1161 -0.4104  4.5740
  397MOL0     H53563   9.769  -1.828  11.792  1.2168  0.5726  1.3121
  397MOL0     H53564   9.861  -1.958  11.711 -0.6755 -0.3281  0.2642
  397MOL0     H53565  10.067  -1.839  11.744 -2.2302  1.5548 -4.0843
  397MOL0     H53566   9.988  -1.866  11.907 -2.6041 -0.6850  0.5376
  397MOL0     H53567  10.008  -1.599  11.775  0.9499 -3.0049 -1.7644
  397MOL0     H53568   9.878  -1.630  11.899  0.1956 -0.2333  1.0271
  397MOL0     H53569  10.050  -1.662  12.061  1.2013 -1.5942 -0.5780
  397MOL0     H53570  10.081  -1.508  11.976 -0.9466 -0.5932  0.2582
  397MOL0     H53571  10.239  -1.761  11.902 -0.5376 -0.0916 -0.3053
  397MOL0     H53572  10.253  -1.605  11.839  1.4322 -2.2412 -0.6025
  397MOL0     H53573  10.312  -1.527  12.086 -2.5048 -0.6921  2.0723
  397MOL0     H53574  10.423  -1.644  12.013  0.6365  1.1295 -1.0472
  397MOL0     H53575  10.197  -1.691  12.219  1.7427 -0.4081  2.3310
  397MOL0     H53576  10.370  -1.700  12.252  0.0439  2.9500 -1.1420
  397MOL0     H53577   9.465  -1.829  11.523  0.3399  0.1795 -0.1810
  397MOL0     H53578   9.346  -1.738  11.327  0.7846  1.4489 -2.5756
  397MOL0     H53579   9.333  -1.661  10.929  0.7940  0.1455  1.2298
  397MOL0     H53580   9.228  -1.607  10.730  1.7954 -0.8122  0.5495
  397MOL0     H53581   9.011  -0.109   9.802 -0.3806  1.1117  0.8071
  397MOL0     H53582   8.876   0.070   9.847 -1.8978  1.7457 -0.6583
  397MOL0     H53583   8.890   0.555   9.798  2.4440 -1.9491  0.1433
  397MOL0     H53584   8.790   0.779   9.863 -1.5861  0.2891  1.8758
  397MOL0     H53585   8.626   0.830  10.191 -0.3251  0.2459  0.4674
  397MOL0     H53586   8.740   0.911  10.279  2.0218 -0.1691 -0.8944
  397MOL0     H53587   8.572   1.051  10.247 -2.6186 -1.6470 -1.9749
  397MOL0     H53588   8.551   1.041  10.076 -0.7728 -1.4703  0.4628
  397MOL0     H53589   8.764   1.165  10.038  3.9943 -1.0406  1.7746
  397MOL0     H53590   8.805   1.159  10.209 -0.9812  2.4702  1.0362
  397MOL0     H53591   8.725   1.389  10.113 -1.9071  0.8402 -0.9626
  397MOL0     H53592   8.638   1.329  10.255  1.4169  0.2016  0.7939
  397MOL0     H53593   8.333   1.328   9.948  1.3023 -2.5513 -0.1236
  397MOL0     H53594   8.850   0.707  10.272  0.4519 -4.4522  1.3682
  397MOL0     H53595   8.944   0.468  10.216  0.7236  1.2362  0.3882
  398MOL0     O53596   4.468   4.100   1.022 -0.1830 -0.2872  0.1279
  398MOL0     C53597   4.412   4.145   1.117 -0.3043 -0.0040  0.4049
  398MOL0     O53598   4.281   4.190   1.119  0.4225  0.3772  0.0556
  398MOL0     C53599   4.196   4.199   1.006  0.1134  0.1061  0.7277
  398MOL0     C53600   4.216   4.124   0.891  0.7544 -0.6700 -0.5888
  398MOL0     C53601   4.128   4.145   0.785  0.0280 -0.1696  0.4435
  398MOL0     C53602   4.019   4.241   0.800 -0.0324  0.5749 -0.2062
  398MOL0     O53603   3.946   4.274   0.688  0.2690  0.5747  0.1736
  398MOL0     C53604   3.848   4.178   0.644 -0.0232 -0.7416  0.2182
  398MOL0     C53605   3.846   4.174   0.487 -0.0468 -0.2423  0.4733
  398MOL0     C53606   3.991   4.150   0.427 -0.1964  0.2352 -0.1701
  398MOL0     C53607   3.986   4.099   0.278  0.1890 -0.3080  0.1739
  398MOL0     C53608   4.125   4.059   0.224 -0.3835 -0.5188  0.9373
  398MOL0     C53609   4.115   4.022   0.073  0.3681 -0.6630 -0.2539
  398MOL0     C53610   4.251   3.985   0.017 -0.3051 -0.2117  0.0579
  398MOL0     C53611   4.233   3.934  -0.122  0.5389  0.8009  1.0024
  398MOL0     N53612   4.358   3.890  -0.189 -0.0290  0.7136 -0.1321
  398MOL0     C53613   4.369   3.801  -0.289  0.7634 -0.4240 -0.4402
  398MOL0     C53614   4.508   3.775  -0.303  0.1273 -0.8035 -0.4619
  398MOL0     C53615   4.577   3.680  -0.396  0.2860  0.7920  0.4376
  398MOL0     C53616   4.525   3.535  -0.386  0.5138 -0.7443  0.0778
  398MOL0     C53617   4.574   3.456  -0.269  0.1764 -0.3217  0.1615
  398MOL0     C53618   4.508   3.505  -0.141 -0.5863  0.2697 -0.1453
  398MOL0     O53619   4.367   3.487  -0.161  0.9563 -0.3456 -1.3185
  398MOL0     C53620   4.280   3.530  -0.064  0.3183  0.6318 -0.4327
  398MOL0     C53621   4.302   3.590   0.064 -0.3854 -0.5169 -0.0875
  398MOL0     C53622   4.196   3.635   0.141  1.0995  0.1699 -0.0756
  398MOL0     C53623   4.233   3.690   0.271 -0.3182 -0.7560 -0.4994
  398MOL0     C53624   4.066   3.611   0.104 -0.0431  0.0250  0.0602
  398MOL0     C53625   3.954   3.628   0.191  1.7345  0.0416 -0.5767
  398MOL0     O53626   3.856   3.716   0.148  0.4423  0.2789  0.0872
  398MOL0     C53627   3.737   3.681   0.191  0.2732  0.3271  0.0811
  398MOL0     C53628   3.702   3.707   0.322  1.3352 -0.0347  0.2538
  398MOL0     C53629   3.561   3.693   0.361  0.4019 -0.7836 -0.9606
  398MOL0     C53630   3.461   3.642   0.280  0.8717 -0.3387 -0.0501
  398MOL0     O53631   3.328   3.634   0.315 -0.2785 -0.1715 -0.2038
  398MOL0     C53632   3.260   3.715   0.414  0.0567 -0.0971  1.1970
  398MOL0     C53633   3.098   3.726   0.374 -0.8290 -0.6508  0.0746
  398MOL0     C53634   3.022   3.807   0.485 -0.2794  1.2579 -1.0091
  398MOL0     C53635   2.887   3.851   0.441 -0.6117  0.3152  2.1904
  398MOL0     C53636   2.821   3.971   0.516  0.0593 -0.3182 -0.2709
  398MOL0     C53637   2.692   4.023   0.451 -0.3720  0.2207  0.3589
  398MOL0     C53638   2.572   3.957   0.516  1.1100  0.5730  0.0585
  398MOL0     C53639   2.536   3.990   0.663  0.2685  1.0053 -0.3682
  398MOL0    Cl53640   2.398   3.890   0.712 -0.1310  0.1183  0.3669
  398MOL0     C53641   3.506   3.605   0.141  1.3851 -0.0174 -0.1298
  398MOL0     C53642   3.641   3.628   0.102 -0.5539  0.8559  0.8336
  398MOL0     O53643   3.949   3.561   0.294  0.0758  0.0104  1.2750
  398MOL0     C53644   4.037   3.542  -0.016  0.9424 -0.4467 -0.3366
  398MOL0     C53645   4.145   3.514  -0.097  0.3283 -0.1497  0.3558
  398MOL0     N53646   4.568   3.873  -0.224  0.0500  0.0749  0.6508
  398MOL0     N53647   4.481   3.938  -0.158  0.1960 -0.1488 -0.2878
  398MOL0     C53648   4.004   4.317   0.918  0.2672  0.0477  0.4057
  398MOL0     C53649   4.091   4.284   1.019  0.9233  0.0676  1.0327
  398MOL0     C53650   4.494   4.157   1.236 -0.2168  0.3045 -0.4109
  398MOL0     C53651   4.499   4.267   1.326 -0.0515  0.1265  0.3509
  398MOL0     C53652   4.569   4.252   1.445 -0.9357  0.0090 -0.7637
  398MOL0     C53653   4.638   4.140   1.476  1.1328  0.4092  0.4103
  398MOL0     O53654   4.715   4.120   1.588  0.3105 -0.0427  0.6291
  398MOL0     C53655   4.763   4.226   1.662 -0.5434 -0.0880 -0.5353
  398MOL0     C53656   4.706   4.252   1.802  0.3838  0.1024  0.2361
  398MOL0     C53657   4.737   4.127   1.898 -0.4727 -0.0645  1.3430
  398MOL0     C53658   4.659   4.135   2.035  0.1951  0.7768  0.3116
  398MOL0     C53659   4.517   4.146   2.017  0.8360  0.1976  1.1509
  398MOL0     C53660   4.408   4.186   1.986  0.1910 -0.1466 -0.5638
  398MOL0     C53661   4.628   4.032   1.387  0.1620 -0.2471 -0.2012
  398MOL0     C53662   4.565   4.044   1.260  0.0280 -0.0359  0.7795
  398MOL0     H53663   4.283   4.040   0.875 -0.2222 -1.6919  0.5430
  398MOL0     H53664   4.124   4.087   0.694  0.7156  0.2381  0.1439
  398MOL0     H53665   3.875   4.077   0.678  0.4924 -0.1855  1.5097
  398MOL0     H53666   3.749   4.198   0.685 -1.3100 -3.4903 -1.1977
  398MOL0     H53667   3.793   4.082   0.459  0.6947 -0.8905  1.1487
  398MOL0     H53668   3.803   4.263   0.440 -0.5176 -0.0526  1.2571
  398MOL0     H53669   4.050   4.241   0.441  2.2079 -1.3840  0.8215
  398MOL0     H53670   4.045   4.078   0.490  2.8348  1.6439 -0.9826
  398MOL0     H53671   3.914   4.016   0.289  1.1886 -1.0947  0.9440
  398MOL0     H53672   3.942   4.176   0.214 -2.6020 -1.8760 -0.0069
  398MOL0     H53673   4.198   4.139   0.240 -0.3934  0.0537 -1.5068
  398MOL0     H53674   4.163   3.975   0.283 -0.0540 -2.0284 -1.2879
  398MOL0     H53675   4.055   3.931   0.062 -1.7768  0.8522 -1.7248
  398MOL0     H53676   4.081   4.108   0.015  2.7578  1.3329  1.1315
  398MOL0     H53677   4.320   4.070   0.018 -0.7585  0.2276 -1.9996
  398MOL0     H53678   4.283   3.901   0.079 -1.4256  0.8749  2.2179
  398MOL0     H53679   4.184   4.017  -0.174  1.5272 -0.4153 -2.1501
  398MOL0     H53680   4.160   3.853  -0.134 -1.4817  2.7620 -0.6526
  398MOL0     H53681   4.283   3.745  -0.325  0.1346 -0.7055  1.3471
  398MOL0     H53682   4.566   3.721  -0.497 -1.0549 -0.4424  0.0618
  398MOL0     H53683   4.685   3.674  -0.379 -0.2510 -3.2486  3.8837
  398MOL0     H53684   4.572   3.486  -0.472  2.9984  0.2312  0.7857
  398MOL0     H53685   4.417   3.535  -0.402  0.1304 -0.1940  2.2722
  398MOL0     H53686   4.683   3.457  -0.264  0.3332 -3.1941 -0.8005
  398MOL0     H53687   4.545   3.355  -0.298  0.7546 -0.5957  0.5343
  398MOL0     H53688   4.524   3.611  -0.116 -1.4258  1.0625 -2.6610
  398MOL0     H53689   4.552   3.449  -0.058 -0.1909 -0.3640 -0.7781
  398MOL0     H53690   4.396   3.621   0.108 -0.5062  0.3545 -0.4294
  398MOL0     H53691   4.247   3.797   0.251 -0.2472 -0.6104  0.2951
  398MOL0     H53692   4.157   3.665   0.346 -0.1005 -1.1492 -0.4063
  398MOL0     H53693   4.319   3.631   0.303 -1.2115 -2.1407 -0.5718
  398MOL0     H53694   3.759   3.759   0.399 -3.1364  1.0365  3.2481
  398MOL0     H53695   3.525   3.714   0.461  2.4362  0.3827 -0.4144
  398MOL0     H53696   3.261   3.665   0.511  0.6622 -3.2059 -0.2860
  398MOL0     H53697   3.302   3.815   0.428  2.3126 -1.1011  1.9924
  398MOL0     H53698   3.078   3.779   0.280 -1.1670 -0.5876  0.1821
  398MOL0     H53699   3.052   3.629   0.357 -0.1130 -0.8082 -1.1055
  398MOL0     H53700   3.078   3.899   0.505 -3.8494  3.5920 -1.0529
  398MOL0     H53701   3.012   3.741   0.572 -1.8895  2.6768 -0.0608
  398MOL0     H53702   2.885   3.876   0.335 -3.1312  0.2720  2.1555
  398MOL0     H53703   2.809   3.774   0.451 -1.4530  0.6702 -0.6779
  398MOL0     H53704   2.886   4.056   0.493 -1.5013  0.3548 -2.5626
  398MOL0     H53705   2.822   3.953   0.624 -0.2591 -3.0989 -0.6694
  398MOL0     H53706   2.678   4.132   0.451 -1.0054  0.4929 -5.7982
  398MOL0     H53707   2.713   3.992   0.348 -0.6322 -4.0264  1.4204
  398MOL0     H53708   2.562   3.848   0.509 -3.8194  0.8575 -1.0501
  398MOL0     H53709   2.488   3.985   0.452  1.5736 -0.2025 -0.9187
  398MOL0     H53710   2.519   4.093   0.696  0.2438  1.1201 -0.7337
  398MOL0     H53711   2.625   3.967   0.723 -0.5296  3.5674  2.0481
  398MOL0     H53712   3.422   3.577   0.078 -1.3820  1.7517  2.4648
  398MOL0     H53713   3.661   3.604  -0.002 -0.8931  0.2216  0.9126
  398MOL0     H53714   3.943   3.509  -0.060  2.2353  1.2099 -4.9470
  398MOL0     H53715   4.135   3.457  -0.189 -0.8888  2.0315 -0.9511
  398MOL0     H53716   3.924   4.390   0.919 -1.3925 -1.4955 -2.6263
  398MOL0     H53717   4.072   4.319   1.120  0.9157  2.0950  0.3869
  398MOL0     H53718   4.458   4.358   1.284 -1.9225 -0.2481  1.2796
  398MOL0     H53719   4.576   4.335   1.515 -0.7532 -0.7501  0.1351
  398MOL0     H53720   4.869   4.206   1.680 -0.7759 -0.6731  0.2342
  398MOL0     H53721   4.758   4.318   1.602  1.5071 -0.1969 -0.9470
  398MOL0     H53722   4.598   4.266   1.794 -0.4223 -3.2608  2.8413
  398MOL0     H53723   4.750   4.345   1.841 -3.5696  2.6293 -0.7546
  398MOL0     H53724   4.843   4.124   1.926 -0.3110  3.0550  1.3998
  398MOL0     H53725   4.709   4.040   1.838 -2.0297  1.1304  0.2697
  398MOL0     H53726   4.704   4.204   2.108  1.5167 -0.2284  0.4758
  398MOL0     H53727   4.685   4.041   2.084 -0.9112 -1.0225 -2.3188
  398MOL0     H53728   4.304   4.209   1.970 -0.4017 -2.0300  0.3016
  398MOL0     H53729   4.684   3.943   1.413 -0.7499 -0.7861 -0.0223
  398MOL0     H53730   4.586   3.978   1.177  2.4103  0.7465  0.6629
  399MOL0     O53731   7.022   0.737  10.919 -0.2113  0.5489  0.3020
  399MOL0     C53732   6.958   0.800  10.837 -0.4697 -0.0796  0.4736
  399MOL0     O53733   7.009   0.869  10.736  0.2430 -0.2444  0.0749
  399MOL0     C53734   7.147   0.898  10.734 -0.5893 -0.2726 -0.3125
  399MOL0     C53735   7.193   1.031  10.755 -0.0559  0.2633 -0.3932
  399MOL0     C53736   7.330   1.055  10.746 -0.4898 -0.9629 -0.5971
  399MOL0     C53737   7.419   0.961  10.705  0.4321 -0.4223 -0.8418
  399MOL0     O53738   7.557   0.998  10.711  0.4237 -0.2948  0.0148
  399MOL0     C53739   7.645   0.888  10.719 -0.0175  0.2898  1.0236
  399MOL0     C53740   7.780   0.942  10.755  0.7773  0.4597 -0.4416
  399MOL0     C53741   7.801   0.973  10.898 -0.2406  0.1615 -0.5800
  399MOL0     C53742   7.943   1.002  10.933  0.4301 -0.1875  0.6555
  399MOL0     C53743   7.950   1.019  11.084  0.1987 -0.3113  0.4751
  399MOL0     C53744   8.094   1.020  11.131 -1.1455  0.1463  0.1834
  399MOL0     C53745   8.146   0.882  11.178  0.3677  0.4296  0.9632
  399MOL0     C53746   8.301   0.869  11.188  0.4423 -0.2266  0.3461
  399MOL0     N53747   8.347   0.984  11.276  0.0766  0.3551  0.7484
  399MOL0     C53748   8.335   0.994  11.411  0.8358  0.7101 -0.2767
  399MOL0     C53749   8.415   1.095  11.459  1.1752 -0.5351  0.0161
  399MOL0     C53750   8.452   1.149  11.595 -0.5408 -0.5941  0.5101
  399MOL0     C53751   8.493   1.298  11.587  0.3937  0.1680 -0.2628
  399MOL0     C53752   8.590   1.346  11.693 -0.4716  1.2949  0.3528
  399MOL0     C53753   8.526   1.321  11.832 -0.2272  1.1078  0.5083
  399MOL0     O53754   8.627   1.373  11.924  0.6511  0.3243 -0.2579
  399MOL0     C53755   8.597   1.389  12.057  0.7444  0.5974  0.1185
  399MOL0     C53756   8.466   1.370  12.119  0.0109 -0.1425  0.2642
  399MOL0     C53757   8.444   1.398  12.251  0.4191  0.8409 -0.1201
  399MOL0     C53758   8.298   1.382  12.309 -0.7269  0.6164 -0.3920
  399MOL0     C53759   8.553   1.433  12.327  0.5683 -0.2672  0.6742
  399MOL0     C53760   8.535   1.452  12.471  0.1023  0.9450 -0.4957
  399MOL0     O53761   8.531   1.335  12.536 -0.0204  0.2858  0.4383
  399MOL0     C53762   8.484   1.324  12.668 -1.0449  0.6949 -0.0228
  399MOL0     C53763   8.572   1.279  12.762 -0.0725 -0.5345 -0.1136
  399MOL0     C53764   8.541   1.276  12.899 -0.6243 -0.3081  0.3246
  399MOL0     C53765   8.405   1.308  12.939  0.4236  0.5936  0.1679
  399MOL0     O53766   8.347   1.287  13.059  0.2670 -0.4926  0.1899
  399MOL0     C53767   8.431   1.272  13.167 -0.3801  0.0423 -0.6570
  399MOL0     C53768   8.513   1.396  13.216  0.4592 -0.5615  0.2466
  399MOL0     C53769   8.562   1.375  13.359  0.3448 -0.3346  0.2788
  399MOL0     C53770   8.699   1.404  13.392  0.3007 -0.4148 -0.0540
  399MOL0     C53771   8.737   1.557  13.382  0.4849 -0.7687 -0.6195
  399MOL0     C53772   8.855   1.584  13.470 -0.1979  0.2815 -0.2692
  399MOL0     C53773   8.901   1.725  13.460 -0.2190  0.0851 -0.9138
  399MOL0     C53774   9.047   1.735  13.424 -0.1085 -0.9822 -0.2265
  399MOL0    Cl53775   9.151   1.666  13.557 -0.5091  0.4869 -0.0025
  399MOL0     C53776   8.313   1.334  12.841 -0.5435 -0.1727  0.1577
  399MOL0     C53777   8.356   1.358  12.706  0.2564 -0.8012 -0.1023
  399MOL0     O53778   8.518   1.561  12.514 -0.1232 -0.4485  0.3930
  399MOL0     C53779   8.680   1.448  12.270  0.1904  1.0694  0.8075
  399MOL0     C53780   8.708   1.420  12.138  0.4995  0.8205  0.1405
  399MOL0     N53781   8.451   1.158  11.339 -0.4220  0.5775 -0.8591
  399MOL0     N53782   8.416   1.093  11.234  0.5370  1.0118 -0.4521
  399MOL0     C53783   7.373   0.833  10.672 -0.2689  0.4649 -0.3514
  399MOL0     C53784   7.241   0.802  10.694 -0.5166  0.0798 -0.0898
  399MOL0     C53785   6.808   0.812  10.853 -0.0203  0.2274 -0.4486
  399MOL0     C53786   6.742   0.725  10.934  0.5102  0.0377 -0.8036
  399MOL0     C53787   6.605   0.722  10.956 -0.4018  0.1633 -0.6056
  399MOL0     C53788   6.526   0.808  10.880 -0.0635  0.7903 -0.6578
  399MOL0     O53789   6.389   0.788  10.882 -0.1678  0.2971 -0.2668
  399MOL0     C53790   6.307   0.844  10.774  0.1174  0.0353  0.5898
  399MOL0     C53791   6.179   0.773  10.781  0.5910  0.6581 -0.2904
  399MOL0     C53792   6.104   0.825  10.903 -0.4450  0.0251 -0.2483
  399MOL0     C53793   5.957   0.780  10.899  0.0156  0.7042  0.8568
  399MOL0     C53794   5.877   0.899  10.940  0.7005  0.6344 -0.5407
  399MOL0     C53795   5.799   0.977  10.984 -1.3631 -0.8508  0.3921
  399MOL0     C53796   6.594   0.905  10.796  0.1919  0.2912  0.9439
  399MOL0     C53797   6.733   0.905  10.785  0.0241 -0.4530 -0.0858
  399MOL0     H53798   7.116   1.094  10.799 -0.7277 -2.6530  3.0552
  399MOL0     H53799   7.359   1.159  10.761 -2.7065 -0.4597  0.6705
  399MOL0     H53800   7.611   0.822  10.800 -0.2071  0.6382  1.2348
  399MOL0     H53801   7.648   0.832  10.625  3.0069 -0.2521  1.3624
  399MOL0     H53802   7.847   0.862  10.726  0.6717  0.2400 -0.0824
  399MOL0     H53803   7.802   1.031  10.695 -0.7447  1.5307  0.5032
  399MOL0     H53804   7.744   1.061  10.930  1.2176  1.1134 -0.5310
  399MOL0     H53805   7.762   0.894  10.964 -2.0382  0.7107 -0.9170
  399MOL0     H53806   8.003   0.913  10.912  2.2338  0.9637  0.7079
  399MOL0     H53807   7.960   1.089  10.869 -0.9356  0.7338  1.4916
  399MOL0     H53808   7.891   1.108  11.107  0.8146 -0.1809  1.6197
  399MOL0     H53809   7.905   0.935  11.137  1.6888 -0.8025  1.0209
  399MOL0     H53810   8.167   1.045  11.054 -0.4478 -0.7529  0.5284
  399MOL0     H53811   8.092   1.086  11.219 -1.9883 -0.1616  0.4042
  399MOL0     H53812   8.104   0.871  11.278 -2.4320  3.9507  0.4159
  399MOL0     H53813   8.121   0.803  11.106  3.6869 -0.8578  1.0726
  399MOL0     H53814   8.344   0.871  11.088 -1.4619  2.4679 -0.5285
  399MOL0     H53815   8.327   0.771  11.230 -1.5149 -1.4402 -1.0559
  399MOL0     H53816   8.288   0.921  11.476  0.3213 -1.2428 -2.6696
  399MOL0     H53817   8.381   1.129  11.675 -0.7144 -0.1752  0.4664
  399MOL0     H53818   8.543   1.094  11.619  0.3281 -0.5111 -2.2710
  399MOL0     H53819   8.410   1.369  11.579  0.8116  1.2870  3.4507
  399MOL0     H53820   8.546   1.313  11.492 -0.5842 -0.9106 -1.0184
  399MOL0     H53821   8.614   1.452  11.678  0.8055  0.9712 -0.0169
  399MOL0     H53822   8.682   1.288  11.678 -0.5162  1.3964 -0.3638
  399MOL0     H53823   8.512   1.214  11.853  3.7175  0.8817  2.8642
  399MOL0     H53824   8.429   1.371  11.819 -0.9695 -0.2367  0.6397
  399MOL0     H53825   8.375   1.345  12.066  1.8987 -1.8974 -2.3945
  399MOL0     H53826   8.218   1.391  12.235  0.3118  1.2299 -1.4609
  399MOL0     H53827   8.280   1.283  12.353 -0.5158  1.6052  2.0566
  399MOL0     H53828   8.276   1.463  12.379  0.6776  1.2019 -0.5985
  399MOL0     H53829   8.669   1.255  12.721  0.3003  1.4307 -0.4613
  399MOL0     H53830   8.620   1.259  12.971  0.0050  1.6786  0.1512
  399MOL0     H53831   8.377   1.222  13.248 -0.1268  0.3328 -0.3061
  399MOL0     H53832   8.502   1.192  13.144  1.1293  1.6376 -1.8342
  399MOL0     H53833   8.599   1.412  13.150 -0.7602 -1.7828 -1.7338
  399MOL0     H53834   8.442   1.479  13.219 -1.4351 -1.8557 -3.1619
  399MOL0     H53835   8.535   1.275  13.393  1.2244  0.0053  2.1372
  399MOL0     H53836   8.498   1.441  13.419  0.8421 -0.5114  1.0251
  399MOL0     H53837   8.707   1.382  13.499 -2.7523  3.3192  1.1552
  399MOL0     H53838   8.768   1.344  13.332 -1.5634 -0.6643 -2.0798
  399MOL0     H53839   8.644   1.596  13.423  1.6985  0.7364  0.8727
  399MOL0     H53840   8.758   1.605  13.286  0.4901  2.3324  0.8174
  399MOL0     H53841   8.834   1.563  13.575 -1.5552 -0.7331 -0.7080
  399MOL0     H53842   8.932   1.515  13.432 -1.2641 -0.5608 -0.9730
  399MOL0     H53843   8.893   1.777  13.556 -0.7589  2.0662 -1.9716
  399MOL0     H53844   8.831   1.775  13.391  0.4906 -1.2137 -2.6569
  399MOL0     H53845   9.080   1.835  13.396  0.4951 -1.0356  0.2754
  399MOL0     H53846   9.062   1.675  13.333 -2.6337 -0.1485 -1.2977
  399MOL0     H53847   8.216   1.368  12.876 -0.2486  0.6507  0.1881
  399MOL0     H53848   8.278   1.401  12.645 -1.0916 -0.2448  1.9167
  399MOL0     H53849   8.766   1.465  12.335  1.4613  0.2877 -0.6024
  399MOL0     H53850   8.807   1.421  12.092  0.9583  0.2973  1.0878
  399MOL0     H53851   7.440   0.749  10.653 -0.7385 -0.6038  2.2157
  399MOL0     H53852   7.212   0.702  10.663 -0.1950  0.4539 -1.6787
  399MOL0     H53853   6.800   0.654  10.992  0.6295  1.5545  0.9972
  399MOL0     H53854   6.574   0.636  11.014  2.1037 -0.5637 -0.2303
  399MOL0     H53855   6.303   0.953  10.762 -1.3549  0.1567  1.9149
  399MOL0     H53856   6.361   0.813  10.684  2.4529 -0.6533  2.1212
  399MOL0     H53857   6.205   0.669  10.799  1.7262  1.2575  1.8621
  399MOL0     H53858   6.117   0.786  10.691 -0.3613  2.0821  0.5250
  399MOL0     H53859   6.121   0.933  10.901  2.2327 -0.3420  0.0336
  399MOL0     H53860   6.153   0.801  10.997  0.5661  2.8385  0.0183
  399MOL0     H53861   5.944   0.705  10.978 -1.1931  1.2483  1.1985
  399MOL0     H53862   5.938   0.728  10.805 -2.4303  1.5110  0.8224
  399MOL0     H53863   5.732   1.053  11.018  1.3286  1.6215  0.5390
  399MOL0     H53864   6.538   0.975  10.735  0.2391  0.5679  1.2167
  399MOL0     H53865   6.776   0.986  10.726 -0.7508  1.9166  2.3997
  400MOL0     O53866   1.432   2.627   2.260  0.7422 -0.0361 -0.2235
  400MOL0     C53867   1.308   2.622   2.260 -0.3163 -0.0683 -0.4411
  400MOL0     O53868   1.227   2.524   2.312  0.1820 -0.3983 -0.1790
  400MOL0     C53869   1.291   2.435   2.387 -0.3487  0.0329 -0.7166
  400MOL0     C53870   1.361   2.326   2.328 -1.4925  0.4513 -0.3181
  400MOL0     C53871   1.439   2.235   2.398  0.6725  0.0196 -1.0571
  400MOL0     C53872   1.430   2.232   2.538 -0.0914 -0.0321  0.0833
  400MOL0     O53873   1.486   2.133   2.616 -0.2596 -0.4181 -0.5440
  400MOL0     C53874   1.547   2.020   2.566  1.4308 -0.5262  0.1928
  400MOL0     C53875   1.595   1.930   2.678 -0.9623  0.1351  0.9348
  400MOL0     C53876   1.748   1.944   2.682 -0.8102  0.6100  0.2422
  400MOL0     C53877   1.810   1.892   2.816  1.7698 -0.3730 -0.1776
  400MOL0     C53878   1.957   1.900   2.815  1.7192 -0.4431  0.5836
  400MOL0     C53879   2.018   1.797   2.911 -0.5976 -0.2470  0.1684
  400MOL0     C53880   2.171   1.790   2.892 -0.0326 -0.4654  0.1016
  400MOL0     C53881   2.255   1.905   2.937  0.3286 -0.2524 -0.6316
  400MOL0     N53882   2.401   1.889   2.915  1.1008 -0.8099  0.0166
  400MOL0     C53883   2.503   1.852   2.997  0.5084  0.3156 -0.0396
  400MOL0     C53884   2.620   1.876   2.931 -0.0285 -0.9916  0.4831
  400MOL0     C53885   2.754   1.858   2.994 -0.1951 -0.8772  0.5362
  400MOL0     C53886   2.819   1.996   3.021 -0.6396  0.2634  0.0916
  400MOL0     C53887   2.905   2.065   2.913 -0.3915  0.4343 -1.3494
  400MOL0     C53888   2.927   2.211   2.956  0.1867 -0.7698  0.5885
  400MOL0     O53889   3.056   2.256   2.892 -0.0773  0.0683  0.3756
  400MOL0     C53890   3.176   2.207   2.935  0.2577  0.4606 -0.2515
  400MOL0     C53891   3.200   2.113   3.035  0.1494 -0.1685 -0.8109
  400MOL0     C53892   3.328   2.055   3.069  0.0738 -0.3955 -0.7457
  400MOL0     C53893   3.328   1.936   3.170 -0.1586 -0.0862  0.2262
  400MOL0     C53894   3.439   2.106   3.006 -0.6627 -0.1322  0.4095
  400MOL0     C53895   3.574   2.047   3.018  0.4719 -0.7785 -0.1207
  400MOL0     O53896   3.605   1.940   3.106  1.1431 -0.6143 -0.0041
  400MOL0     C53897   3.737   1.883   3.095  0.2409 -0.9071  0.9351
  400MOL0     C53898   3.786   1.831   2.980  0.5776 -0.9679  0.0524
  400MOL0     C53899   3.918   1.785   2.971  0.0119 -0.5064  0.2992
  400MOL0     C53900   3.998   1.788   3.088  0.0347 -1.0312 -0.1310
  400MOL0     O53901   4.127   1.748   3.104 -0.3123 -0.2362 -0.1853
  400MOL0     C53902   4.170   1.649   3.005  0.6962 -0.1256 -0.2157
  400MOL0     C53903   4.285   1.579   3.064  0.2670 -0.3111  0.1213
  400MOL0     C53904   4.400   1.687   3.083  0.3937  0.5482 -0.0160
  400MOL0     C53905   4.518   1.619   3.126  0.4557  0.7898 -0.8012
  400MOL0     C53906   4.635   1.719   3.116  0.2452  0.1903 -0.1184
  400MOL0     C53907   4.767   1.666   3.172  0.3221 -0.3961 -0.2459
  400MOL0     C53908   4.754   1.582   3.303  0.6549 -0.1988 -0.0826
  400MOL0     C53909   4.883   1.567   3.380 -0.5606  0.8279  0.2644
  400MOL0    Cl53910   4.975   1.427   3.306 -0.2078  0.4917 -0.1929
  400MOL0     C53911   3.950   1.846   3.213 -0.1238  0.6535  0.1473
  400MOL0     C53912   3.812   1.888   3.209 -0.0226 -0.1914  0.6515
  400MOL0     O53913   3.662   2.104   2.947  0.7457  1.0725  0.7618
  400MOL0     C53914   3.426   2.222   2.920  0.0384  0.2655 -0.3808
  400MOL0     C53915   3.295   2.262   2.893  0.5555  0.4240 -0.2552
  400MOL0     N53916   2.589   1.912   2.801 -0.0477 -0.2393 -0.4914
  400MOL0     N53917   2.462   1.939   2.802  0.2324 -0.5817  0.0763
  400MOL0     C53918   1.375   2.350   2.600  0.9104  0.3760 -0.6994
  400MOL0     C53919   1.303   2.444   2.525 -0.0868 -0.0579  0.4825
  400MOL0     C53920   1.254   2.725   2.176 -0.2311  0.0519 -0.2073
  400MOL0     C53921   1.113   2.754   2.172  0.1858  0.0533  0.9000
  400MOL0     C53922   1.068   2.856   2.089 -0.2613 -1.1211 -0.1529
  400MOL0     C53923   1.156   2.925   2.009 -0.0541  0.0997  0.0417
  400MOL0     O53924   1.088   3.003   1.929  0.3648 -0.5004  0.6672
  400MOL0     C53925   1.168   3.080   1.832  0.0962  0.2729 -0.2561
  400MOL0     C53926   1.194   3.012   1.703  0.0893  0.0904 -0.1935
  400MOL0     C53927   1.258   3.097   1.593  0.4298 -0.2158 -0.3097
  400MOL0     C53928   1.401   3.072   1.569  0.1893 -0.1034 -0.0740
  400MOL0     C53929   1.490   3.138   1.670  0.4969 -0.3499  0.0160
  400MOL0     C53930   1.573   3.199   1.731  0.4879 -0.1540 -0.0476
  400MOL0     C53931   1.290   2.909   2.017 -0.2424 -0.1012 -0.6802
  400MOL0     C53932   1.344   2.808   2.092 -0.0887 -0.2898  0.5574
  400MOL0     H53933   1.358   2.325   2.220 -2.1699  2.3718 -0.3467
  400MOL0     H53934   1.501   2.164   2.343  0.4553 -2.8307  2.1000
  400MOL0     H53935   1.476   1.960   2.508  0.7654 -0.0059  0.4622
  400MOL0     H53936   1.623   2.048   2.492 -1.0373 -0.5035 -2.4825
  400MOL0     H53937   1.554   1.944   2.779  1.4086 -2.8093  2.4779
  400MOL0     H53938   1.567   1.827   2.653 -1.1594  0.5422 -0.6165
  400MOL0     H53939   1.802   1.899   2.598  0.4642 -2.3704  2.4951
  400MOL0     H53940   1.768   2.052   2.688 -2.0106  0.7608  2.2975
  400MOL0     H53941   1.775   1.951   2.901 -4.8409 -5.0661  1.1875
  400MOL0     H53942   1.769   1.792   2.837 -0.4539  0.7744  1.4578
  400MOL0     H53943   1.986   1.872   2.714 -0.4725 -1.0869  0.0935
  400MOL0     H53944   1.992   2.003   2.826  3.5495 -1.0194  0.5316
  400MOL0     H53945   1.984   1.807   3.014 -2.0145  2.4683 -0.4729
  400MOL0     H53946   1.974   1.707   2.867 -2.9965  0.1372  1.5944
  400MOL0     H53947   2.218   1.710   2.950 -0.4451 -1.9353 -1.5161
  400MOL0     H53948   2.190   1.769   2.787 -0.0879  3.6281 -0.8811
  400MOL0     H53949   2.246   1.912   3.046  1.3048  1.3349 -0.6267
  400MOL0     H53950   2.227   1.998   2.887  2.3211  0.2886 -0.8168
  400MOL0     H53951   2.489   1.827   3.102 -1.3873 -0.1782 -0.3626
  400MOL0     H53952   2.740   1.829   3.098  0.2498  0.4935  1.0109
  400MOL0     H53953   2.811   1.777   2.947 -1.3352 -0.8289 -0.9902
  400MOL0     H53954   2.885   1.986   3.108  0.9814  0.7479 -1.0352
  400MOL0     H53955   2.743   2.072   3.042  0.7577  2.9196 -3.3570
  400MOL0     H53956   2.858   2.068   2.814 -1.9898  1.3630 -0.6002
  400MOL0     H53957   2.994   2.003   2.898  0.4101  1.2487 -0.1017
  400MOL0     H53958   2.939   2.221   3.064  1.3461 -1.9531  0.5925
  400MOL0     H53959   2.846   2.274   2.918  0.3171 -1.0227 -0.1277
  400MOL0     H53960   3.122   2.076   3.100 -0.1169  2.6175  0.6056
  400MOL0     H53961   3.354   1.842   3.120 -1.4184 -0.0255 -0.5639
  400MOL0     H53962   3.387   1.952   3.261 -1.8597  2.3602  0.9883
  400MOL0     H53963   3.224   1.931   3.201 -0.5434  0.9368 -0.8309
  400MOL0     H53964   3.716   1.815   2.899 -1.4862 -2.9076  2.0794
  400MOL0     H53965   3.957   1.757   2.874 -0.9868  1.4623 -0.7478
  400MOL0     H53966   4.085   1.582   2.987 -2.3307  2.0096  4.4295
  400MOL0     H53967   4.204   1.700   2.914  2.8572 -0.6628  0.2291
  400MOL0     H53968   4.267   1.521   3.155  3.1413  0.4792  1.3306
  400MOL0     H53969   4.315   1.505   2.989 -2.4651  0.2859 -1.6834
  400MOL0     H53970   4.382   1.758   3.164  1.7758 -0.5486  1.3092
  400MOL0     H53971   4.403   1.745   2.990 -1.2283  2.6298  1.1311
  400MOL0     H53972   4.495   1.568   3.220 -0.5289  0.4230 -1.2241
  400MOL0     H53973   4.535   1.540   3.052  1.3013  2.2212 -2.1838
  400MOL0     H53974   4.606   1.816   3.157  1.0934  0.7351 -0.7617
  400MOL0     H53975   4.650   1.720   3.007 -2.5077  2.1896 -0.5891
  400MOL0     H53976   4.803   1.588   3.104 -0.8688 -0.0351 -1.3244
  400MOL0     H53977   4.827   1.757   3.178 -1.7927  1.1348 -1.1277
  400MOL0     H53978   4.705   1.485   3.289 -1.9213  0.7877  1.2199
  400MOL0     H53979   4.676   1.634   3.360 -0.1392  2.6872 -3.4984
  400MOL0     H53980   4.856   1.549   3.484 -1.4641 -0.6461 -0.1916
  400MOL0     H53981   4.954   1.650   3.381 -1.0436  1.2909  2.7268
  400MOL0     H53982   4.015   1.869   3.297 -0.5804  0.2909  0.5985
  400MOL0     H53983   3.779   1.931   3.303  0.2123  1.6738 -0.0756
  400MOL0     H53984   3.508   2.274   2.871  0.7925 -2.6239 -2.4655
  400MOL0     H53985   3.290   2.342   2.820  1.7965  2.5043  1.8022
  400MOL0     H53986   1.383   2.355   2.708 -0.7495 -0.4888 -0.5080
  400MOL0     H53987   1.264   2.530   2.580  0.0377  1.9710 -2.3815
  400MOL0     H53988   1.042   2.697   2.230 -1.2900 -0.3466 -1.1834
  400MOL0     H53989   0.962   2.870   2.068 -1.1190 -2.6467  2.5669
  400MOL0     H53990   1.102   3.167   1.830  1.4805  1.3764  0.9016
  400MOL0     H53991   1.265   3.120   1.863  0.8837  1.0509 -3.3186
  400MOL0     H53992   1.093   2.988   1.668  0.5093 -2.0947 -0.0724
  400MOL0     H53993   1.253   2.920   1.710  1.5014  0.7278 -2.7194
  400MOL0     H53994   1.252   3.201   1.628 -0.1632 -0.4730  0.3629
  400MOL0     H53995   1.207   3.083   1.497 -1.6827  0.1129  0.7138
  400MOL0     H53996   1.425   3.109   1.469  0.9919 -0.0479  0.1321
  400MOL0     H53997   1.422   2.965   1.572  1.1067  0.0365 -1.0653
  400MOL0     H53998   1.668   3.238   1.764  0.6581  0.8302 -1.5901
  400MOL0     H53999   1.363   2.959   1.954 -2.9057  0.6034 -3.3737
  400MOL0     H54000   1.449   2.784   2.075 -0.3563 -0.1428 -1.5474
  401MOL0     O54001   2.127   3.592   3.356 -1.2442  0.0269 -0.4354
  401MOL0     C54002   2.245   3.639   3.363  0.5670 -0.6758  0.2672
  401MOL0     O54003   2.293   3.774   3.358  0.2349 -0.7135 -0.1037
  401MOL0     C54004   2.198   3.868   3.364  0.2274 -0.3142 -0.7627
  401MOL0     C54005   2.112   3.870   3.470 -0.0960  0.8852 -0.8949
  401MOL0     C54006   2.009   3.967   3.485 -0.1295 -0.9929  0.1101
  401MOL0     C54007   1.999   4.066   3.381  0.0396  0.6988 -0.2446
  401MOL0     O54008   1.909   4.165   3.408  0.2296  0.1702  0.5148
  401MOL0     C54009   1.790   4.169   3.327  0.3534  0.4282 -0.5025
  401MOL0     C54010   1.776   4.311   3.272 -0.4679 -0.0730 -0.2621
  401MOL0     C54011   1.648   4.333   3.194  0.2679  0.1804 -1.5073
  401MOL0     C54012   1.664   4.424   3.074 -0.5463 -0.3262  0.0219
  401MOL0     C54013   1.554   4.413   2.966  0.4185  0.0562 -0.4052
  401MOL0     C54014   1.566   4.524   2.857  0.1004  0.2257  0.5085
  401MOL0     C54015   1.468   4.525   2.734  0.4361  0.3619  0.2104
  401MOL0     C54016   1.496   4.637   2.636  0.8331  0.1476 -0.2930
  401MOL0     N54017   1.474   4.587   2.499  0.2003  0.0983  0.0792
  401MOL0     C54018   1.572   4.526   2.417  0.2679  0.0293  0.4573
  401MOL0     C54019   1.500   4.485   2.311 -0.0976 -0.6164 -0.4624
  401MOL0     C54020   1.560   4.421   2.196  0.3806 -0.5069 -0.3733
  401MOL0     C54021   1.700   4.483   2.157 -0.2111  0.7855  0.2287
  401MOL0     C54022   1.748   4.452   2.010  0.3434  0.3084 -0.9453
  401MOL0     C54023   1.677   4.554   1.917  0.9506 -1.9383 -0.1089
  401MOL0     O54024   1.557   4.506   1.849  0.3598 -0.0917  0.2793
  401MOL0     C54025   1.572   4.453   1.725  0.6573 -0.6432  0.3884
  401MOL0     C54026   1.695   4.433   1.654  0.6931 -0.4743 -0.1939
  401MOL0     C54027   1.698   4.385   1.521 -0.7587 -0.2738  0.2622
  401MOL0     C54028   1.825   4.346   1.459  0.0686  0.0022  0.2262
  401MOL0     C54029   1.580   4.359   1.455 -0.2170 -0.5502 -1.0767
  401MOL0     C54030   1.566   4.318   1.311 -0.1317 -0.1790 -0.7040
  401MOL0     O54031   1.522   4.407   1.215  0.4077 -0.1933 -0.1645
  401MOL0     C54032   1.526   4.355   1.088  0.6671  0.3191 -0.0991
  401MOL0     C54033   1.642   4.341   1.006 -1.2589 -0.0101 -0.1662
  401MOL0     C54034   1.630   4.313   0.872 -0.3572  1.5828  1.0001
  401MOL0     C54035   1.497   4.292   0.817 -0.0722 -0.1880  1.1157
  401MOL0     O54036   1.475   4.252   0.680 -0.0377 -0.9278 -0.1874
  401MOL0     C54037   1.561   4.163   0.620  0.8018 -0.1423  0.3078
  401MOL0     C54038   1.501   4.129   0.479 -1.2460 -0.0060 -0.4504
  401MOL0     C54039   1.370   4.049   0.497  0.6855 -0.4718  0.1485
  401MOL0     C54040   1.268   4.055   0.383 -1.1452 -0.3336  0.0292
  401MOL0     C54041   1.335   4.006   0.256 -0.0500  0.8477 -0.0469
  401MOL0     C54042   1.254   4.045   0.133 -0.1790 -0.7881  0.0183
  401MOL0     C54043   1.127   3.962   0.122  0.4923  0.2401  0.9316
  401MOL0     C54044   1.054   3.968  -0.020  0.5258 -0.5862 -0.0897
  401MOL0    Cl54045   0.914   3.850  -0.002  0.2579 -0.4426 -0.3842
  401MOL0     C54046   1.390   4.275   0.899 -1.1927  0.6662 -0.1509
  401MOL0     C54047   1.408   4.305   1.029  0.5841 -0.5904 -0.1396
  401MOL0     O54048   1.615   4.213   1.281  1.1124  0.4605  0.0772
  401MOL0     C54049   1.457   4.390   1.521  0.0239  0.2268  0.0795
  401MOL0     C54050   1.454   4.427   1.658 -0.4751 -0.4522 -0.5548
  401MOL0     N54051   1.369   4.528   2.316  0.9696  0.3412 -0.2534
  401MOL0     N54052   1.361   4.591   2.427  0.8752  0.0391 -0.2248
  401MOL0     C54053   2.087   4.066   3.267  1.5125  1.4902 -0.2465
  401MOL0     C54054   2.185   3.962   3.255 -0.5172 -0.0884 -0.3326
  401MOL0     C54055   2.352   3.541   3.365  0.0442 -0.3587  0.1464
  401MOL0     C54056   2.354   3.417   3.295 -1.4813  0.3161  0.5270
  401MOL0     C54057   2.460   3.341   3.293  0.0601  0.0880  0.8888
  401MOL0     C54058   2.575   3.381   3.362 -1.1127  0.0031 -0.3696
  401MOL0     O54059   2.694   3.314   3.365  0.7212 -0.4404  0.3221
  401MOL0     C54060   2.701   3.197   3.282  0.5151  0.2618  0.4093
  401MOL0     C54061   2.716   3.206   3.133  0.6792 -0.2134  0.4700
  401MOL0     C54062   2.779   3.081   3.060 -0.2235 -0.4270 -0.9695
  401MOL0     C54063   2.800   3.111   2.913  0.1008  0.3583  0.1694
  401MOL0     C54064   2.679   3.143   2.822  0.1411 -0.4273  0.6344
  401MOL0     C54065   2.586   3.181   2.751 -0.4335  0.0865  0.2359
  401MOL0     C54066   2.573   3.494   3.441 -0.0991 -0.0416  0.1655
  401MOL0     C54067   2.468   3.577   3.437  0.0579 -0.1979 -0.3644
  401MOL0     H54068   2.128   3.798   3.549 -2.2070  1.3557  0.0239
  401MOL0     H54069   1.943   3.968   3.570 -2.6204  2.8451 -1.5876
  401MOL0     H54070   1.800   4.098   3.245 -2.0722 -0.1719 -0.3477
  401MOL0     H54071   1.702   4.152   3.389  1.7077 -2.8034  0.7423
  401MOL0     H54072   1.772   4.385   3.352  2.2148 -0.6925  0.5431
  401MOL0     H54073   1.864   4.338   3.213 -1.6748  2.2078 -1.1285
  401MOL0     H54074   1.617   4.235   3.155 -0.4637  0.1209 -0.8124
  401MOL0     H54075   1.561   4.357   3.257  1.2225 -0.8225  0.2707
  401MOL0     H54076   1.667   4.528   3.111 -0.3567 -0.7231  1.1677
  401MOL0     H54077   1.759   4.395   3.029  0.1659 -3.3737  3.0152
  401MOL0     H54078   1.564   4.315   2.918  0.5941 -1.7235  2.9511
  401MOL0     H54079   1.453   4.428   3.004  0.2861  0.2947 -0.8357
  401MOL0     H54080   1.566   4.624   2.901  2.6886  1.0013 -0.9980
  401MOL0     H54081   1.664   4.511   2.810  0.0511 -0.5056  0.5940
  401MOL0     H54082   1.469   4.426   2.689  0.4565  0.2798  0.3926
  401MOL0     H54083   1.364   4.536   2.766  0.8817  0.2285  1.7543
  401MOL0     H54084   1.597   4.674   2.658  0.4901  0.4594  0.8342
  401MOL0     H54085   1.430   4.723   2.652  0.7005  0.2763 -1.4353
  401MOL0     H54086   1.676   4.502   2.438  0.2824  0.2841  0.6847
  401MOL0     H54087   1.577   4.315   2.211 -0.5621 -0.3969  1.9092
  401MOL0     H54088   1.485   4.424   2.117  3.0604  0.0138 -3.0877
  401MOL0     H54089   1.773   4.429   2.218 -1.4873  1.1224  2.1616
  401MOL0     H54090   1.709   4.590   2.178 -1.5556  1.3593 -1.8696
  401MOL0     H54091   1.725   4.348   1.983 -1.0061  0.1762  0.5608
  401MOL0     H54092   1.858   4.449   2.008  0.4481  1.5523  0.5855
  401MOL0     H54093   1.749   4.599   1.849  0.7997 -0.1642  0.8433
  401MOL0     H54094   1.646   4.643   1.972  1.1563  0.4795 -3.5617
  401MOL0     H54095   1.792   4.459   1.695  0.0215 -1.0832  1.8931
  401MOL0     H54096   1.910   4.365   1.526 -0.7432 -1.2537  1.6710
  401MOL0     H54097   1.823   4.240   1.433 -0.4431  0.0237  0.1822
  401MOL0     H54098   1.839   4.407   1.369 -0.5491  2.3439  1.6523
  401MOL0     H54099   1.739   4.378   1.039 -0.4528  0.7771 -3.1413
  401MOL0     H54100   1.713   4.308   0.802 -1.7866 -0.8612 -0.6911
  401MOL0     H54101   1.660   4.209   0.605  0.2814  0.2847 -2.2329
  401MOL0     H54102   1.581   4.080   0.688 -0.4147 -1.3201 -0.7217
  401MOL0     H54103   1.473   4.220   0.427 -1.0582  0.7796  0.7816
  401MOL0     H54104   1.575   4.068   0.426 -3.1107 -2.4520 -0.4063
  401MOL0     H54105   1.322   4.082   0.589  0.3393 -0.9765  0.1505
  401MOL0     H54106   1.400   3.946   0.519  1.2652 -0.7652 -1.8311
  401MOL0     H54107   1.176   3.998   0.401 -1.3354  0.2552  1.0020
  401MOL0     H54108   1.242   4.160   0.367  1.5927  0.4103 -0.0085
  401MOL0     H54109   1.351   3.898   0.267 -2.5596  0.1488 -2.1808
  401MOL0     H54110   1.431   4.056   0.239 -0.0055 -0.2971 -4.2315
  401MOL0     H54111   1.229   4.151   0.133  1.6889 -0.2811  1.4690
  401MOL0     H54112   1.304   4.023   0.038 -1.4479  2.6636 -1.5865
  401MOL0     H54113   1.057   3.994   0.200 -0.5402 -3.7246  1.8676
  401MOL0     H54114   1.158   3.859   0.144  2.4935  0.4104 -0.8047
  401MOL0     H54115   1.125   3.933  -0.096  0.4669 -0.4210 -0.2211
  401MOL0     H54116   1.021   4.068  -0.049 -2.2762 -1.1632  0.8005
  401MOL0     H54117   1.292   4.245   0.865 -1.7719  0.2100  1.8032
  401MOL0     H54118   1.323   4.288   1.095  0.5602 -1.3981 -0.3671
  401MOL0     H54119   1.358   4.379   1.478 -0.4542  2.2510  0.5519
  401MOL0     H54120   1.361   4.445   1.710  0.3822  0.9960  0.5419
  401MOL0     H54121   2.092   4.144   3.191  0.4229 -0.3073 -2.2404
  401MOL0     H54122   2.250   3.966   3.168 -0.7428 -0.4244 -0.5167
  401MOL0     H54123   2.265   3.374   3.251 -1.4266 -0.5408  1.1974
  401MOL0     H54124   2.456   3.250   3.235  0.7330 -0.3711  1.5329
  401MOL0     H54125   2.793   3.143   3.309  1.1671  0.9689 -0.3544
  401MOL0     H54126   2.615   3.131   3.297 -1.0697  2.4795  1.5687
  401MOL0     H54127   2.771   3.298   3.108 -1.6035  0.9380 -0.6394
  401MOL0     H54128   2.620   3.227   3.084  0.6171 -0.3417  0.5389
  401MOL0     H54129   2.708   2.998   3.067 -1.1917  0.3781 -0.9472
  401MOL0     H54130   2.875   3.060   3.107  0.6680  2.8517 -1.1057
  401MOL0     H54131   2.846   3.023   2.867 -4.6888 -1.8561 -0.9748
  401MOL0     H54132   2.867   3.198   2.915  0.2621  0.2184  1.4410
  401MOL0     H54133   2.500   3.214   2.696 -2.1281 -2.0643  1.3947
  401MOL0     H54134   2.663   3.522   3.494 -0.1446  1.4292 -0.4861
  401MOL0     H54135   2.463   3.670   3.492  1.1328  0.7815 -1.8645
  402MOL0     O54136   4.804   5.667   4.945 -0.2727  0.1985  0.4530
  402MOL0     C54137   4.897   5.613   5.008 -0.4611 -0.5525 -0.5420
  402MOL0     O54138   5.029   5.642   4.996 -0.2193 -0.7172 -0.0309
  402MOL0     C54139   5.065   5.759   4.928  0.4255  0.4456  0.9349
  402MOL0     C54140   5.133   5.757   4.806 -0.1976 -1.0654  1.1030
  402MOL0     C54141   5.151   5.873   4.728 -0.8731 -0.5211  0.4836
  402MOL0     C54142   5.100   5.997   4.795  0.8828 -0.1424  0.6173
  402MOL0     O54143   5.129   6.109   4.740 -0.3415 -0.1386 -0.8053
  402MOL0     C54144   5.071   6.127   4.607 -0.1920  0.1158 -0.2745
  402MOL0     C54145   5.094   6.273   4.555  0.0554 -0.1935 -0.1033
  402MOL0     C54146   5.002   6.313   4.436 -0.8858  1.0798 -0.5818
  402MOL0     C54147   4.856   6.342   4.483  0.2974 -0.0056 -1.0710
  402MOL0     C54148   4.791   6.425   4.375 -0.8661 -0.1339  0.7197
  402MOL0     C54149   4.790   6.571   4.400 -0.0721  0.5812  0.0737
  402MOL0     C54150   4.785   6.658   4.277 -0.7527 -0.2539 -0.6104
  402MOL0     C54151   4.649   6.668   4.198 -0.3199 -0.1803 -0.2275
  402MOL0     N54152   4.645   6.550   4.108  0.5676  0.4168  0.7559
  402MOL0     C54153   4.565   6.447   4.124  1.2246 -0.9119  0.4613
  402MOL0     C54154   4.558   6.367   4.015  0.3040 -1.1820  0.5340
  402MOL0     C54155   4.491   6.237   4.004  0.9040  0.1031 -0.6029
  402MOL0     C54156   4.438   6.182   4.140  0.0948 -0.5028  0.0534
  402MOL0     C54157   4.425   6.028   4.102  0.6678  0.0855 -0.0989
  402MOL0     C54158   4.370   5.958   4.227  0.4179 -0.0774  0.1599
  402MOL0     O54159   4.365   5.821   4.200  0.5517  1.2335  0.4892
  402MOL0     C54160   4.285   5.758   4.291  0.4529 -0.7103 -0.1315
  402MOL0     C54161   4.143   5.761   4.278 -0.5200  0.6646  1.2173
  402MOL0     C54162   4.068   5.699   4.372  0.8775  0.1784  0.2856
  402MOL0     C54163   3.922   5.727   4.367  0.5332 -0.2029 -0.3739
  402MOL0     C54164   4.124   5.597   4.451  0.2749  0.0667 -0.6567
  402MOL0     C54165   4.048   5.498   4.537  0.4618 -0.2264  1.2595
  402MOL0     O54166   4.115   5.423   4.634  0.0358 -0.1827  0.0120
  402MOL0     C54167   4.039   5.353   4.723  0.7164  0.1796  0.4170
  402MOL0     C54168   3.991   5.415   4.839 -0.1256  0.0428  0.2364
  402MOL0     C54169   3.935   5.351   4.940  0.2068  0.7732 -0.1800
  402MOL0     C54170   3.918   5.211   4.949  0.2157 -0.8549  0.0267
  402MOL0     O54171   3.864   5.162   5.063 -0.4204  0.6158  0.6072
  402MOL0     C54172   3.914   5.037   5.099 -0.5722 -0.7260  0.0917
  402MOL0     C54173   3.860   5.006   5.241  0.5198 -0.1608  0.7282
  402MOL0     C54174   3.711   4.958   5.245  0.5018 -0.3528 -0.0031
  402MOL0     C54175   3.669   4.921   5.384 -0.4287 -0.1432 -0.8690
  402MOL0     C54176   3.542   4.855   5.390  1.6759  0.8846 -0.6185
  402MOL0     C54177   3.494   4.836   5.534  0.2182 -0.4615  1.0816
  402MOL0     C54178   3.415   4.700   5.531 -0.7387  0.6026 -0.4371
  402MOL0     C54179   3.499   4.578   5.494  0.0197 -0.1350 -0.3718
  402MOL0    Cl54180   3.397   4.434   5.500 -1.2061  0.5424 -0.7884
  402MOL0     C54181   3.969   5.138   4.836  0.0253  0.3748  0.2599
  402MOL0     C54182   4.029   5.207   4.722 -0.4092  0.2245 -0.6841
  402MOL0     O54183   3.930   5.481   4.514 -0.2494 -0.1446  0.4725
  402MOL0     C54184   4.272   5.582   4.451  0.5935  0.0516  0.1272
  402MOL0     C54185   4.350   5.674   4.383  0.2975  0.3068  0.0409
  402MOL0     N54186   4.637   6.426   3.923 -0.2087 -0.5391 -0.3368
  402MOL0     N54187   4.695   6.529   3.979  0.1436 -0.6989 -0.0463
  402MOL0     C54188   5.034   6.002   4.922 -0.2272  0.6166  0.4944
  402MOL0     C54189   5.015   5.878   4.984  0.3822  0.1266 -1.6109
  402MOL0     C54190   4.849   5.499   5.098 -0.4135 -0.5757 -0.5857
  402MOL0     C54191   4.718   5.456   5.082  0.2021  0.0987  0.0279
  402MOL0     C54192   4.673   5.354   5.166  0.5953  0.6385  0.0956
  402MOL0     C54193   4.748   5.304   5.276  0.4448 -0.6361 -1.1207
  402MOL0     O54194   4.700   5.214   5.369  0.4795  0.2442  0.1446
  402MOL0     C54195   4.586   5.130   5.332 -0.8640 -0.6177 -0.4707
  402MOL0     C54196   4.572   5.017   5.432  0.5989 -0.0243  0.3131
  402MOL0     C54197   4.529   5.056   5.572 -0.3534 -0.2725  0.0530
  402MOL0     C54198   4.499   4.932   5.657  0.5106  0.7418  0.6024
  402MOL0     C54199   4.629   4.871   5.698 -0.4937 -1.3028 -0.4579
  402MOL0     C54200   4.740   4.821   5.722 -0.3124 -0.4618 -1.1587
  402MOL0     C54201   4.879   5.355   5.287  0.2174  0.3545  0.4696
  402MOL0     C54202   4.930   5.449   5.199  0.0951  0.8636  0.3587
  402MOL0     H54203   5.166   5.664   4.762 -2.4085 -0.4219 -2.2550
  402MOL0     H54204   5.214   5.872   4.640  1.1940 -0.1002  1.8757
  402MOL0     H54205   5.114   6.064   4.528 -0.3317  0.1915 -0.4120
  402MOL0     H54206   4.963   6.111   4.599 -0.9391  3.6339  1.1775
  402MOL0     H54207   5.099   6.353   4.630  0.6681  1.2388 -1.5913
  402MOL0     H54208   5.195   6.283   4.515 -0.0742  3.4674  0.0694
  402MOL0     H54209   5.050   6.398   4.386  1.9291  0.3261  0.6551
  402MOL0     H54210   5.012   6.236   4.359 -2.4663 -0.8710  1.0395
  402MOL0     H54211   4.811   6.245   4.504 -0.7010  0.5740 -0.4387
  402MOL0     H54212   4.865   6.394   4.579  1.2251  0.1270 -1.2217
  402MOL0     H54213   4.816   6.403   4.271  1.0396  2.1463  0.6124
  402MOL0     H54214   4.687   6.392   4.377 -0.5609 -1.3796 -1.3296
  402MOL0     H54215   4.702   6.575   4.464  0.7834 -0.6225  1.3860
  402MOL0     H54216   4.877   6.583   4.465 -0.7778 -1.5600  1.5334
  402MOL0     H54217   4.792   6.759   4.318 -1.2574  0.1319 -1.4469
  402MOL0     H54218   4.879   6.639   4.225  0.6685  1.2918  1.2508
  402MOL0     H54219   4.647   6.758   4.136  2.8376 -1.3219 -2.2508
  402MOL0     H54220   4.561   6.660   4.262 -0.6946 -0.8758 -0.8045
  402MOL0     H54221   4.495   6.439   4.207  2.0158  3.3617  1.8132
  402MOL0     H54222   4.409   6.247   3.932  1.3052  1.7446 -0.8852
  402MOL0     H54223   4.570   6.176   3.961 -2.5974 -2.9807 -3.3815
  402MOL0     H54224   4.339   6.225   4.158 -0.5845 -0.0075 -3.8402
  402MOL0     H54225   4.504   6.199   4.225 -1.8216  2.2355  1.1424
  402MOL0     H54226   4.523   5.988   4.076 -0.6992 -1.7479 -2.9503
  402MOL0     H54227   4.341   6.020   4.032 -0.9532  3.6479  1.1934
  402MOL0     H54228   4.269   5.995   4.249 -0.4499 -0.2810 -2.9307
  402MOL0     H54229   4.441   5.973   4.308  0.3522 -0.8773  0.3720
  402MOL0     H54230   4.104   5.827   4.200 -1.0690  0.3154  1.1932
  402MOL0     H54231   3.913   5.833   4.341  1.2384 -0.0539 -0.0465
  402MOL0     H54232   3.865   5.664   4.299  1.3350  0.6885 -1.9337
  402MOL0     H54233   3.876   5.718   4.465  2.2977 -0.8552  0.4441
  402MOL0     H54234   4.029   5.515   4.860  4.6657 -1.8957  2.3854
  402MOL0     H54235   3.916   5.420   5.022 -0.0422  1.3405 -0.7154
  402MOL0     H54236   3.871   4.966   5.028 -0.8667 -0.6581  0.1981
  402MOL0     H54237   4.023   5.045   5.098 -0.5467 -0.4803 -2.8356
  402MOL0     H54238   3.910   4.923   5.289 -0.0120 -1.3427 -0.6678
  402MOL0     H54239   3.861   5.095   5.304  2.0614  2.4730 -2.6620
  402MOL0     H54240   3.701   4.873   5.177  2.2254 -0.6574  0.0907
  402MOL0     H54241   3.651   5.044   5.213  1.9847  0.7729  0.1632
  402MOL0     H54242   3.743   4.848   5.418  2.3411  1.3544 -3.2512
  402MOL0     H54243   3.679   5.008   5.450  4.5361 -2.3523  1.7976
  402MOL0     H54244   3.527   4.769   5.324 -1.5982  0.6421  0.2642
  402MOL0     H54245   3.470   4.932   5.361 -0.6115  0.8546  4.0905
  402MOL0     H54246   3.574   4.830   5.608 -0.0793  0.2897  1.4688
  402MOL0     H54247   3.432   4.924   5.552 -0.0429 -0.1332 -1.1395
  402MOL0     H54248   3.339   4.711   5.453 -0.3882  2.2747 -0.5615
  402MOL0     H54249   3.369   4.677   5.628  2.3616 -2.3463  0.5295
  402MOL0     H54250   3.579   4.569   5.568 -1.3564  3.2283  1.7571
  402MOL0     H54251   3.535   4.592   5.391  0.9385  1.9502  0.1726
  402MOL0     H54252   3.946   5.032   4.839  0.8634  0.2197  2.1057
  402MOL0     H54253   4.057   5.148   4.635 -2.2771  0.4623 -1.5124
  402MOL0     H54254   4.314   5.494   4.499  2.2668  1.0058  0.5138
  402MOL0     H54255   4.458   5.668   4.395  0.6728  0.2105 -2.6166
  402MOL0     H54256   5.019   6.095   4.975  2.6466  1.1027  0.5755
  402MOL0     H54257   4.978   5.867   5.086  0.6837  1.0657 -1.3855
  402MOL0     H54258   4.652   5.500   5.008  0.5857  0.1204 -0.3095
  402MOL0     H54259   4.568   5.329   5.154  0.1501  3.0001 -1.7661
  402MOL0     H54260   4.500   5.197   5.339  0.0390  0.3740  3.3592
  402MOL0     H54261   4.606   5.103   5.228  0.7877  0.0354 -0.3559
  402MOL0     H54262   4.674   4.977   5.427  0.3097 -1.0360  1.8580
  402MOL0     H54263   4.505   4.939   5.394 -0.7119  1.3559 -0.3173
  402MOL0     H54264   4.439   5.116   5.559  0.2909  0.4116 -1.5122
  402MOL0     H54265   4.593   5.132   5.617 -0.1598  0.0388 -0.7343
  402MOL0     H54266   4.434   4.858   5.610 -2.4242  2.1969  2.0910
  402MOL0     H54267   4.455   4.949   5.756 -2.1942 -2.4595  0.1229
  402MOL0     H54268   4.834   4.779   5.750 -0.2603  1.7295  2.5799
  402MOL0     H54269   4.961   5.327   5.353 -1.4984  0.3308  2.7070
  402MOL0     H54270   5.031   5.484   5.217  0.7171 -0.3639 -0.5588
  403MOL0     O54271   8.406  10.389   8.863  0.1935  0.5819 -0.2441
  403MOL0     C54272   8.470  10.367   8.765 -0.2461 -0.6121  0.3358
  403MOL0     O54273   8.558  10.257   8.758  0.2721 -0.0037  0.2837
  403MOL0     C54274   8.572  10.163   8.852  0.6620  0.4751  0.3810
  403MOL0     C54275   8.656  10.197   8.961  0.0384 -0.0139 -0.2809
  403MOL0     C54276   8.691  10.103   9.049 -1.6109  0.2476 -0.1979
  403MOL0     C54277   8.669   9.967   9.021  0.5919  0.3393  0.6648
  403MOL0     O54278   8.737   9.871   9.088 -0.6167  0.5210 -0.5812
  403MOL0     C54279   8.729   9.880   9.237  0.4543 -0.4504  0.5267
  403MOL0     C54280   8.773   9.760   9.306 -0.3960 -0.1140 -1.0558
  403MOL0     C54281   8.855   9.790   9.426 -0.3206 -1.0985  0.3204
  403MOL0     C54282   8.921   9.661   9.469 -0.9255  0.0953 -0.3220
  403MOL0     C54283   9.036   9.689   9.576  0.5012  0.7119  0.6665
  403MOL0     C54284   9.091   9.550   9.622 -0.1814  0.0470 -0.2260
  403MOL0     C54285   9.228   9.572   9.693 -0.0458  0.0352 -0.2700
  403MOL0     C54286   9.345   9.623   9.602 -1.2327  0.0625  0.0449
  403MOL0     N54287   9.478   9.594   9.670 -0.4887  0.3626 -0.9090
  403MOL0     C54288   9.520   9.639   9.794 -0.0969 -1.4636 -0.2461
  403MOL0     C54289   9.631   9.573   9.822 -0.6422 -0.7949  0.4062
  403MOL0     C54290   9.734   9.604   9.934 -0.5875 -0.2998 -0.8031
  403MOL0     C54291   9.815   9.475   9.959 -0.9030  0.4074  0.7686
  403MOL0     C54292   9.939   9.527  10.033 -0.0186 -0.2728  0.1160
  403MOL0     C54293   9.943   9.664  10.112  0.1898 -1.1145 -0.1481
  403MOL0     O54294  10.064   9.721  10.141  0.1753 -0.4034 -0.0586
  403MOL0     C54295  10.139   9.647  10.229  0.3783  0.4994  0.5259
  403MOL0     C54296  10.101   9.638  10.363 -0.5618 -0.2645 -0.2366
  403MOL0     C54297  10.159   9.544  10.455  0.0490  0.1507  0.0954
  403MOL0     C54298  10.098   9.532  10.590  0.0260 -0.0714 -0.0449
  403MOL0     C54299  10.268   9.466  10.407  0.0636 -0.2661 -0.4886
  403MOL0     C54300  10.333   9.356  10.484 -0.5498 -0.2448 -0.2650
  403MOL0     O54301  10.316   9.338  10.622 -0.3308 -0.5001 -0.3413
  403MOL0     C54302  10.408   9.271  10.698 -0.4330 -0.2247 -0.1077
  403MOL0     C54303  10.378   9.146  10.748 -0.2302  0.1329 -0.8667
  403MOL0     C54304  10.464   9.086  10.838 -0.7848 -0.3035  0.4435
  403MOL0     C54305  10.586   9.152  10.876  0.9386 -0.3127  0.9245
  403MOL0     O54306  10.660   9.086  10.966  0.5682 -0.8712  0.3856
  403MOL0     C54307  10.796   9.107  10.968 -0.1677  0.7856 -0.5652
  403MOL0     C54308  10.861   8.987  11.026  0.9704 -1.1384 -0.3660
  403MOL0     C54309  11.004   9.000  11.053 -0.0744  0.7046 -1.7930
  403MOL0     C54310  11.082   9.011  10.914  0.4399 -0.0965  0.1262
  403MOL0     C54311  11.204   9.103  10.927 -0.6397  0.3779 -0.4279
  403MOL0     C54312  11.177   9.259  10.941  0.0192  0.2628 -0.6872
  403MOL0     C54313  11.105   9.319  10.819  0.8922  0.1944  0.0369
  403MOL0     C54314  11.050   9.456  10.849  0.3923 -0.0773 -0.2596
  403MOL0    Cl54315  11.193   9.554  10.878 -0.2670 -0.0538  0.0020
  403MOL0     C54316  10.616   9.279  10.818 -0.0619  0.4055  0.2362
  403MOL0     C54317  10.525   9.340  10.729 -0.1766 -0.7905 -0.2544
  403MOL0     O54318  10.428   9.300  10.425  0.9597 -0.6550 -0.3070
  403MOL0     C54319  10.322   9.490  10.277  0.0128 -0.2477  0.4268
  403MOL0     C54320  10.257   9.580  10.192 -0.2221 -0.0134  0.3227
  403MOL0     N54321   9.659   9.498   9.708 -1.2290 -0.1226 -0.1189
  403MOL0     N54322   9.561   9.502   9.620  0.5690  0.9969 -1.1768
  403MOL0     C54323   8.591   9.931   8.911  0.1033 -0.0555 -0.5373
  403MOL0     C54324   8.536  10.029   8.824  0.1615 -0.6556  0.1412
  403MOL0     C54325   8.479  10.468   8.656 -0.4629  0.4296 -0.5191
  403MOL0     C54326   8.583  10.463   8.563 -0.7359  0.4787  0.0057
  403MOL0     C54327   8.577  10.543   8.452  0.1924  0.4369  1.0585
  403MOL0     C54328   8.473  10.623   8.422  0.0461  0.8064 -0.4324
  403MOL0     O54329   8.467  10.683   8.296 -0.4216 -0.6554 -0.3754
  403MOL0     C54330   8.386  10.603   8.200 -0.5347 -0.4584  0.4010
  403MOL0     C54331   8.473  10.522   8.099 -0.8271  0.3764 -0.1923
  403MOL0     C54332   8.521  10.594   7.963 -0.9696 -0.1928 -0.2080
  403MOL0     C54333   8.619  10.506   7.895 -1.1696 -0.0569 -0.5650
  403MOL0     C54334   8.561  10.377   7.854 -0.5446  0.4002 -0.6486
  403MOL0     C54335   8.532  10.269   7.815 -0.2236 -1.0530  0.7726
  403MOL0     C54336   8.361  10.624   8.512 -0.5586 -1.1395  0.6079
  403MOL0     C54337   8.364  10.542   8.625  0.7723  0.0991  0.9957
  403MOL0     H54338   8.675  10.302   8.982 -0.9788 -0.0846  1.0487
  403MOL0     H54339   8.750  10.126   9.137 -1.5028 -0.7915  0.0094
  403MOL0     H54340   8.806   9.955   9.258  2.8030 -2.7132  0.6174
  403MOL0     H54341   8.631   9.907   9.277 -0.0210 -1.6629  0.2408
  403MOL0     H54342   8.687   9.698   9.334 -0.6511  0.5159 -0.4226
  403MOL0     H54343   8.830   9.706   9.230  3.5461  0.4309  1.2991
  403MOL0     H54344   8.924   9.865   9.387 -0.4002 -2.2427 -2.2763
  403MOL0     H54345   8.786   9.822   9.505 -2.6019 -2.4154 -1.0143
  403MOL0     H54346   8.850   9.601   9.527 -1.5405  1.8382  0.8288
  403MOL0     H54347   8.960   9.603   9.386 -3.5354 -1.6696 -0.4253
  403MOL0     H54348   9.116   9.755   9.541 -0.3022  1.6343  0.5105
  403MOL0     H54349   8.981   9.735   9.659 -5.2306 -1.7006 -1.3186
  403MOL0     H54350   9.020   9.502   9.689  0.5245  1.1126  1.3567
  403MOL0     H54351   9.107   9.492   9.531  0.1311 -0.5094  0.1749
  403MOL0     H54352   9.218   9.640   9.778  0.7626 -0.1065 -0.0476
  403MOL0     H54353   9.261   9.481   9.744  0.6245  0.2795 -0.2462
  403MOL0     H54354   9.342   9.729   9.577  2.7560  0.7505  1.7856
  403MOL0     H54355   9.340   9.561   9.512 -0.9850 -1.2111  0.8930
  403MOL0     H54356   9.476   9.711   9.862 -1.2477 -1.4694 -0.9668
  403MOL0     H54357   9.796   9.689   9.905  2.2770 -2.7109 -2.3971
  403MOL0     H54358   9.681   9.635  10.024  0.2725  0.8480 -0.6649
  403MOL0     H54359   9.848   9.429   9.866 -0.3417 -0.6040  1.4595
  403MOL0     H54360   9.751   9.410  10.020 -0.1992 -0.6042  0.4410
  403MOL0     H54361  10.011   9.526   9.951 -1.2118  3.5542 -1.2178
  403MOL0     H54362   9.978   9.450  10.100 -0.6538 -1.1358 -0.4825
  403MOL0     H54363   9.880   9.648  10.200 -1.7321 -0.0169 -1.2576
  403MOL0     H54364   9.894   9.751  10.067 -1.3992 -1.8392  0.0931
  403MOL0     H54365  10.010   9.691  10.389  2.0291  3.8385  1.5785
  403MOL0     H54366  10.005   9.585  10.610 -0.4829 -0.7136 -0.6384
  403MOL0     H54367  10.090   9.424  10.606  2.9342 -0.6543 -1.7552
  403MOL0     H54368  10.165   9.569  10.668 -0.8906  1.4517  0.0567
  403MOL0     H54369  10.300   9.101  10.687 -0.8687  0.0771 -0.0282
  403MOL0     H54370  10.457   8.981  10.863 -2.7250 -0.4999 -0.7308
  403MOL0     H54371  10.830   9.127  10.866  0.0670 -0.4647 -0.7558
  403MOL0     H54372  10.829   9.188  11.033  3.6910 -0.7873 -0.2614
  403MOL0     H54373  10.812   8.962  11.121 -2.1162  3.5218 -0.4023
  403MOL0     H54374  10.831   8.900  10.966 -3.8352 -0.4941  0.6768
  403MOL0     H54375  11.049   8.920  11.114 -1.5418  2.1155  1.3854
  403MOL0     H54376  11.017   9.092  11.111 -1.0449 -1.2048  1.7558
  403MOL0     H54377  11.124   8.914  10.885 -0.5562 -1.0785  1.7942
  403MOL0     H54378  11.014   9.047  10.836  2.1899  1.3521 -0.8079
  403MOL0     H54379  11.268   9.087  10.840  0.4196  1.1078  0.1984
  403MOL0     H54380  11.250   9.054  11.013 -0.0366  1.2665 -0.2286
  403MOL0     H54381  11.116   9.279  11.030 -0.3471 -1.7985 -0.4413
  403MOL0     H54382  11.280   9.295  10.949  0.0211  0.9876 -3.0838
  403MOL0     H54383  11.023   9.255  10.786  2.4028 -1.4448 -0.6804
  403MOL0     H54384  11.171   9.336  10.734  3.7275  1.7725  2.3622
  403MOL0     H54385  10.989   9.458  10.940 -0.4866 -2.3399 -0.7321
  403MOL0     H54386  10.990   9.495  10.767  2.2715  0.2925 -1.5161
  403MOL0     H54387  10.706   9.333  10.846  1.5866 -2.8643  1.8271
  403MOL0     H54388  10.549   9.441  10.697  2.9086 -1.6414 -0.9795
  403MOL0     H54389  10.403   9.433  10.232  0.1738 -2.2758  3.0475
  403MOL0     H54390  10.293   9.578  10.089  1.5002  1.5701  0.8442
  403MOL0     H54391   8.586   9.825   8.889  1.3340 -0.4390  0.8828
  403MOL0     H54392   8.487   9.989   8.736  2.1669  0.1194 -1.4250
  403MOL0     H54393   8.653  10.382   8.585  0.5036  1.9114  1.5876
  403MOL0     H54394   8.654  10.537   8.374 -1.8501  2.1567 -1.2499
  403MOL0     H54395   8.320  10.531   8.250 -0.5463 -2.5843 -2.4356
  403MOL0     H54396   8.330  10.666   8.131 -0.7420  0.8279  1.7112
  403MOL0     H54397   8.408  10.440   8.068 -2.6399  2.2336 -1.5879
  403MOL0     H54398   8.566  10.481   8.138  0.3746  0.6904 -2.5476
  403MOL0     H54399   8.575  10.687   7.982  1.3447 -1.6341  0.8895
  403MOL0     H54400   8.437  10.618   7.898  1.2081  0.9201 -2.8202
  403MOL0     H54401   8.707  10.499   7.960 -0.8800 -0.7905 -1.0285
  403MOL0     H54402   8.658  10.551   7.804  0.5054 -2.0544 -0.9033
  403MOL0     H54403   8.503  10.175   7.774 -0.5570  0.1365 -1.9545
  403MOL0     H54404   8.275  10.684   8.484 -0.5573 -1.4706 -0.1173
  403MOL0     H54405   8.282  10.552   8.695  1.4303  1.0608  1.6630
  404MOL0     O54406  10.336   1.076   6.801  0.1224 -0.3961  0.3328
  404MOL0     C54407  10.268   1.083   6.698  0.5598 -0.0700  0.1270
  404MOL0     O54408  10.151   1.163   6.684 -0.2214 -0.2915  1.0442
  404MOL0     C54409  10.100   1.236   6.789  1.0001 -0.0774  1.0830
  404MOL0     C54410  10.023   1.159   6.874 -0.0381 -0.4197 -0.3540
  404MOL0     C54411   9.975   1.215   6.994  0.5339 -1.0154  0.4707
  404MOL0     C54412  10.006   1.346   7.024  0.5856 -1.3697  0.1815
  404MOL0     O54413   9.958   1.409   7.135  1.0256 -0.5188  0.2667
  404MOL0     C54414   9.890   1.332   7.237 -0.1365 -0.1330 -0.1994
  404MOL0     C54415   9.888   1.410   7.366  0.0320 -0.6560  0.8574
  404MOL0     C54416   9.825   1.328   7.481 -1.0576  0.1092  0.2583
  404MOL0     C54417   9.705   1.398   7.531  0.0612 -0.5669 -1.1033
  404MOL0     C54418   9.614   1.298   7.620 -1.1021 -0.4370  0.5523
  404MOL0     C54419   9.500   1.383   7.688 -0.3880  0.3570 -0.1074
  404MOL0     C54420   9.386   1.385   7.586  0.4373  0.1688 -0.1855
  404MOL0     C54421   9.283   1.489   7.625  0.3937  0.4745 -0.2796
  404MOL0     N54422   9.202   1.443   7.752  0.0934  0.8126  0.5770
  404MOL0     C54423   9.171   1.320   7.790  0.0990  0.4139  0.7845
  404MOL0     C54424   9.082   1.331   7.895  1.5328  0.4403  0.0495
  404MOL0     C54425   9.017   1.210   7.957 -0.4607 -0.6766 -0.1727
  404MOL0     C54426   8.867   1.241   8.011 -1.1000 -0.6193 -0.0628
  404MOL0     C54427   8.860   1.261   8.155  0.0424 -0.0064 -0.0640
  404MOL0     C54428   8.933   1.386   8.198 -0.3546 -0.6705 -0.4799
  404MOL0     O54429   8.913   1.385   8.337 -0.5602 -0.0515  0.3210
  404MOL0     C54430   8.995   1.478   8.405 -0.9446 -0.3935  0.4253
  404MOL0     C54431   8.998   1.464   8.540 -0.3119 -0.0868 -0.2032
  404MOL0     C54432   9.066   1.549   8.617 -0.1270  0.2235  0.2117
  404MOL0     C54433   9.081   1.511   8.770  0.1887 -0.3074  0.2916
  404MOL0     C54434   9.141   1.653   8.560  0.3000 -0.1592  0.4231
  404MOL0     C54435   9.221   1.753   8.634 -0.1306  0.2653 -0.2809
  404MOL0     O54436   9.156   1.802   8.741  0.0871 -0.0050 -0.7338
  404MOL0     C54437   9.218   1.895   8.831 -0.0471  0.2172 -0.5441
  404MOL0     C54438   9.266   1.843   8.960 -0.7681 -0.3122  1.2975
  404MOL0     C54439   9.288   1.922   9.068  0.1276  1.2633  0.1881
  404MOL0     C54440   9.278   2.059   9.059  0.1684 -0.0602  1.2202
  404MOL0     O54441   9.317   2.132   9.172  0.1825 -0.2533 -0.3452
  404MOL0     C54442   9.264   2.090   9.298  1.1847  0.0429  0.2594
  404MOL0     C54443   9.107   2.112   9.306 -1.6692 -0.8102 -0.1719
  404MOL0     C54444   9.049   2.127   9.461  0.1232  0.3001 -0.2576
  404MOL0     C54445   8.907   2.069   9.462  0.5945 -1.7739 -0.1192
  404MOL0     C54446   8.834   2.058   9.607 -0.5029  0.6001  0.0483
  404MOL0     C54447   8.765   2.187   9.652  0.2316 -0.3490  0.0299
  404MOL0     C54448   8.728   2.168   9.798  1.3744 -0.4761  0.0328
  404MOL0     C54449   8.610   2.253   9.828 -0.0792  0.0596  0.0487
  404MOL0    Cl54450   8.481   2.189   9.738 -0.0677  0.1777  0.6486
  404MOL0     C54451   9.249   2.125   8.937 -0.4304 -0.8282  0.0604
  404MOL0     C54452   9.222   2.038   8.823 -0.4078  0.0704 -0.4129
  404MOL0     O54453   9.336   1.776   8.604 -0.2670 -0.4538 -0.2983
  404MOL0     C54454   9.131   1.670   8.419 -0.1336  0.3986  0.0104
  404MOL0     C54455   9.069   1.573   8.333  0.4368  0.2213  0.6651
  404MOL0     N54456   9.057   1.465   7.906 -0.2364  0.4532  0.3153
  404MOL0     N54457   9.136   1.529   7.832  0.1013  0.2653  0.1306
  404MOL0     C54458  10.074   1.426   6.942 -0.1859 -0.2482  0.2456
  404MOL0     C54459  10.118   1.375   6.815 -0.0557 -0.4650 -0.1269
  404MOL0     C54460  10.300   0.998   6.578  0.2255 -0.4856 -0.2494
  404MOL0     C54461  10.283   1.044   6.454  0.0041 -1.1373  0.1083
  404MOL0     C54462  10.296   0.953   6.343 -0.3536 -0.1228  0.8873
  404MOL0     C54463  10.333   0.816   6.364 -0.7655  0.1492  0.9054
  404MOL0     O54464  10.350   0.728   6.253  0.6256 -0.4023 -0.3014
  404MOL0     C54465  10.385   0.591   6.280  0.3414  1.3775 -0.5797
  404MOL0     C54466  10.276   0.487   6.326  0.3699 -0.7320 -0.8906
  404MOL0     C54467  10.334   0.351   6.336  0.2471  1.0179  0.5626
  404MOL0     C54468  10.220   0.248   6.343  0.1467 -0.8305 -0.0731
  404MOL0     C54469  10.264   0.130   6.417  0.8653  0.2605 -0.0770
  404MOL0     C54470  10.300   0.034   6.489  0.0982 -0.4269 -0.6311
  404MOL0     C54471  10.352   0.770   6.498 -0.3520 -0.6596 -0.2568
  404MOL0     C54472  10.333   0.868   6.604  0.5892  0.9437 -0.0371
  404MOL0     H54473  10.000   1.057   6.844  1.6633 -0.6789 -0.8726
  404MOL0     H54474   9.905   1.158   7.054 -1.0391  2.2932  2.0716
  404MOL0     H54475   9.787   1.309   7.209 -1.1022  2.0996  1.2552
  404MOL0     H54476   9.932   1.232   7.250 -0.8668 -0.6678 -1.7293
  404MOL0     H54477   9.988   1.444   7.396 -0.5010  0.6488  1.1833
  404MOL0     H54478   9.840   1.508   7.363  4.4735  1.8071 -0.7909
  404MOL0     H54479   9.806   1.226   7.447  1.8542 -0.5934  0.4141
  404MOL0     H54480   9.906   1.326   7.555 -0.2434  1.2114 -0.5813
  404MOL0     H54481   9.754   1.474   7.593 -2.6803 -0.2472  0.8380
  404MOL0     H54482   9.648   1.434   7.444  2.6970 -0.8609 -3.1097
  404MOL0     H54483   9.579   1.222   7.550  0.1037 -0.4083 -0.1175
  404MOL0     H54484   9.687   1.248   7.685 -0.6626 -1.3627 -0.6065
  404MOL0     H54485   9.476   1.323   7.776  3.0507 -1.4923 -0.2472
  404MOL0     H54486   9.531   1.479   7.729  1.5383 -1.8277  4.1403
  404MOL0     H54487   9.418   1.411   7.484  1.4724 -0.7692 -0.1158
  404MOL0     H54488   9.342   1.285   7.581  0.7020  0.0252  0.3821
  404MOL0     H54489   9.202   1.488   7.552  0.1648 -2.9265 -0.1370
  404MOL0     H54490   9.326   1.589   7.635 -2.3353  1.7622 -0.4619
  404MOL0     H54491   9.206   1.224   7.754 -3.3420 -0.6412 -0.1511
  404MOL0     H54492   9.010   1.140   7.874 -0.3625  2.3261 -2.9316
  404MOL0     H54493   9.085   1.180   8.037  3.0919  2.0996 -1.8802
  404MOL0     H54494   8.795   1.160   7.991  0.4414 -2.0301 -0.1213
  404MOL0     H54495   8.821   1.329   7.965  0.1018 -0.3434 -0.7812
  404MOL0     H54496   8.909   1.174   8.200 -2.0959 -2.4022 -2.1314
  404MOL0     H54497   8.756   1.275   8.187  0.2845  1.0622  0.3004
  404MOL0     H54498   8.893   1.478   8.156  1.1881 -0.4782 -1.5666
  404MOL0     H54499   9.034   1.383   8.156  1.4920  1.4823  3.2665
  404MOL0     H54500   8.955   1.374   8.583  3.3053 -1.3969  1.0905
  404MOL0     H54501   9.100   1.405   8.787  0.0205 -0.1846  1.2737
  404MOL0     H54502   9.171   1.552   8.816  0.5973 -1.9349  1.0113
  404MOL0     H54503   9.001   1.557   8.828 -0.2126  0.2127 -0.6465
  404MOL0     H54504   9.260   1.735   8.968 -0.3898 -0.2571  2.4933
  404MOL0     H54505   9.323   1.873   9.158  3.3592  0.4375 -1.3565
  404MOL0     H54506   9.277   1.986   9.327  1.7892  0.2695  0.8382
  404MOL0     H54507   9.315   2.148   9.376  0.4738  0.1853  0.6265
  404MOL0     H54508   9.082   2.206   9.254 -2.3799 -2.7090 -3.5581
  404MOL0     H54509   9.058   2.035   9.245 -1.1698  1.0483 -3.1277
  404MOL0     H54510   9.059   2.232   9.491  2.3588 -0.1433  0.7335
  404MOL0     H54511   9.106   2.059   9.526 -0.0255  0.9123  0.5260
  404MOL0     H54512   8.855   2.140   9.398 -0.2258 -0.2882  2.0710
  404MOL0     H54513   8.896   1.971   9.415 -0.5458 -2.5810  1.6986
  404MOL0     H54514   8.900   2.016   9.684 -2.6014 -0.5698  1.2714
  404MOL0     H54515   8.755   1.986   9.586  0.0355  1.0165 -4.1065
  404MOL0     H54516   8.830   2.274   9.642 -3.9766  3.5009  2.5738
  404MOL0     H54517   8.682   2.207   9.583 -0.1203 -1.2157  0.1880
  404MOL0     H54518   8.817   2.211   9.845  0.2993  2.2891 -0.3000
  404MOL0     H54519   8.697   2.067   9.827  1.1266 -0.3553  0.1915
  404MOL0     H54520   8.633   2.359   9.810  1.4650 -0.4584 -1.1820
  404MOL0     H54521   8.595   2.244   9.936 -0.2148  2.1119  0.2399
  404MOL0     H54522   9.225   2.231   8.941 -4.7674 -1.5274 -1.6066
  404MOL0     H54523   9.191   2.077   8.726  0.7307  0.7279 -0.5326
  404MOL0     H54524   9.180   1.751   8.366  0.0753  0.7402  0.7103
  404MOL0     H54525   9.071   1.587   8.226 -0.3296 -2.1710  0.2656
  404MOL0     H54526  10.085   1.527   6.980  0.3484 -0.1980 -0.0222
  404MOL0     H54527  10.174   1.435   6.744  0.7267 -0.7350  0.2477
  404MOL0     H54528  10.255   1.145   6.427  1.8485 -1.4212 -3.3912
  404MOL0     H54529  10.293   0.990   6.241 -2.7723  0.6658  1.1934
  404MOL0     H54530  10.425   0.553   6.186  1.7863  0.0493  0.5260
  404MOL0     H54531  10.464   0.597   6.355  0.8827  3.3676 -1.2271
  404MOL0     H54532  10.188   0.483   6.261  1.6436  2.0569 -2.9955
  404MOL0     H54533  10.234   0.522   6.421 -1.2556  0.5501 -2.0417
  404MOL0     H54534  10.409   0.342   6.415 -0.8952  1.7376  1.7760
  404MOL0     H54535  10.392   0.326   6.247  1.9043  3.0732  0.9847
  404MOL0     H54536  10.209   0.214   6.240 -2.7519 -3.8853  1.0825
  404MOL0     H54537  10.125   0.293   6.373 -0.1996 -0.3397 -1.7928
  404MOL0     H54538  10.318  -0.055   6.545  0.9079 -0.3984 -0.8384
  404MOL0     H54539  10.385   0.670   6.523 -1.1642 -1.2475 -1.4277
  404MOL0     H54540  10.344   0.840   6.709 -0.1013  1.9337  0.3114
  405MOL0     O54541   4.272   3.588   5.067  0.1544 -0.0258 -0.2263
  405MOL0     C54542   4.395   3.601   5.068 -0.3406 -0.2596 -0.9869
  405MOL0     O54543   4.484   3.533   5.143  0.2496 -0.5971  0.0649
  405MOL0     C54544   4.430   3.443   5.241 -0.8650 -0.2180  0.7721
  405MOL0     C54545   4.489   3.448   5.372  0.2580  0.2970  0.9887
  405MOL0     C54546   4.444   3.366   5.482  0.9479 -1.2092  0.3996
  405MOL0     C54547   4.339   3.278   5.462 -0.2090  0.7607 -0.3714
  405MOL0     O54548   4.301   3.192   5.564 -0.0708  0.0901 -0.3160
  405MOL0     C54549   4.164   3.143   5.574 -0.3668  0.9340 -0.9999
  405MOL0     C54550   4.158   3.064   5.705 -0.8992  0.3016  0.0174
  405MOL0     C54551   4.019   2.998   5.709 -0.4593 -0.5619  0.6478
  405MOL0     C54552   3.987   2.927   5.834  0.3999 -0.6595 -0.0203
  405MOL0     C54553   3.936   3.025   5.948  0.0881 -0.0003 -0.0336
  405MOL0     C54554   3.901   2.960   6.073 -0.2273  0.1327 -0.4216
  405MOL0     C54555   3.997   2.853   6.129 -0.3577 -1.1876  0.0735
  405MOL0     C54556   3.946   2.785   6.257  0.1468 -0.0294 -0.2948
  405MOL0     N54557   4.050   2.696   6.308 -0.2213 -0.4117 -0.6047
  405MOL0     C54558   4.180   2.724   6.307 -0.0822 -0.0388  0.3376
  405MOL0     C54559   4.232   2.629   6.378 -0.2978  0.2883 -0.5257
  405MOL0     C54560   4.382   2.613   6.419  1.2710  0.6413 -0.5816
  405MOL0     C54561   4.497   2.627   6.322 -0.4976 -0.6865 -0.1754
  405MOL0     C54562   4.504   2.518   6.216  0.3146  1.0059  0.8121
  405MOL0     C54563   4.613   2.553   6.113 -0.1182 -0.5756  0.2402
  405MOL0     O54564   4.737   2.541   6.183 -0.3063  0.4218  0.2164
  405MOL0     C54565   4.847   2.531   6.108 -0.4193 -0.6045 -0.1016
  405MOL0     C54566   4.966   2.478   6.144  0.3699 -0.8087 -0.6662
  405MOL0     C54567   5.074   2.460   6.051  0.2735 -0.6263  0.0495
  405MOL0     C54568   5.198   2.376   6.099  0.3019  0.0962 -0.6795
  405MOL0     C54569   5.072   2.519   5.923  0.0768 -0.0396 -0.7883
  405MOL0     C54570   5.173   2.481   5.820 -0.3720  0.3347 -0.6634
  405MOL0     O54571   5.176   2.579   5.720  0.7255  0.2443  0.1051
  405MOL0     C54572   5.287   2.590   5.648 -1.7551 -0.7669 -0.2471
  405MOL0     C54573   5.269   2.660   5.526  0.2756  0.0675 -0.4285
  405MOL0     C54574   5.375   2.692   5.437 -0.1591 -0.3769 -0.0736
  405MOL0     C54575   5.501   2.629   5.460  0.5667  0.0871 -0.4568
  405MOL0     O54576   5.606   2.634   5.382  0.0688  0.4156  0.6402
  405MOL0     C54577   5.570   2.627   5.246  0.0546  0.9742  0.1204
  405MOL0     C54578   5.698   2.622   5.165 -0.1740  0.5832 -0.1736
  405MOL0     C54579   5.676   2.548   5.030 -0.2535 -0.6242  0.6148
  405MOL0     C54580   5.806   2.530   4.951 -0.8185 -0.0164 -0.6555
  405MOL0     C54581   5.802   2.446   4.828 -0.3501  0.5114 -0.3833
  405MOL0     C54582   5.929   2.454   4.738 -0.2594  0.8374  0.3624
  405MOL0     C54583   6.052   2.390   4.812 -0.2404  0.3419 -0.5897
  405MOL0     C54584   6.167   2.353   4.729  0.1963  0.1875 -0.0315
  405MOL0    Cl54585   6.311   2.317   4.835  0.4100 -0.1174 -0.5501
  405MOL0     C54586   5.521   2.575   5.589  0.1056 -0.3160  0.7376
  405MOL0     C54587   5.422   2.562   5.682  0.0648  0.0548 -0.0870
  405MOL0     O54588   5.244   2.385   5.829 -0.2876  0.3310 -0.3552
  405MOL0     C54589   4.962   2.613   5.902 -0.2501 -1.0235  0.0852
  405MOL0     C54590   4.860   2.618   5.990  0.4995  0.1068  0.2154
  405MOL0     N54591   4.122   2.555   6.442  0.5242 -0.6043 -0.2347
  405MOL0     N54592   4.011   2.604   6.402  0.5272  0.1199  0.3428
  405MOL0     C54593   4.269   3.286   5.339 -1.2338  0.1343 -1.0232
  405MOL0     C54594   4.314   3.360   5.232  0.4987  0.3315 -0.1519
  405MOL0     C54595   4.460   3.692   4.977 -0.8685  0.6160  0.6324
  405MOL0     C54596   4.420   3.820   4.953  0.2579 -0.0013 -0.1007
  405MOL0     C54597   4.481   3.894   4.858 -0.0199 -0.0020 -0.3682
  405MOL0     C54598   4.577   3.853   4.768  0.2123 -0.5839 -0.1218
  405MOL0     O54599   4.649   3.945   4.692  0.1976 -0.1651  0.6940
  405MOL0     C54600   4.579   4.050   4.623  0.2134 -0.1113  1.0149
  405MOL0     C54601   4.674   4.152   4.564  0.2449 -0.5250 -0.0105
  405MOL0     C54602   4.605   4.277   4.506  0.1354  0.5540  0.6423
  405MOL0     C54603   4.453   4.263   4.448  0.4195 -0.0129 -0.4686
  405MOL0     C54604   4.348   4.215   4.540 -0.7652  0.6729  0.2274
  405MOL0     C54605   4.265   4.189   4.620  0.6417 -0.2337  0.2014
  405MOL0     C54606   4.620   3.721   4.781 -0.4099  0.0660 -0.9891
  405MOL0     C54607   4.568   3.642   4.893  0.4389  0.0721  0.1290
  405MOL0     H54608   4.574   3.516   5.374  0.0604  0.7474 -1.9215
  405MOL0     H54609   4.493   3.371   5.579 -1.5502 -0.7945  1.7179
  405MOL0     H54610   4.098   3.229   5.582  0.7897  1.7480  0.2948
  405MOL0     H54611   4.138   3.086   5.485 -0.7442  0.4752 -0.6052
  405MOL0     H54612   4.239   2.991   5.708  0.8959  2.2254 -0.1511
  405MOL0     H54613   4.157   3.140   5.784 -0.8757  0.4660 -0.1405
  405MOL0     H54614   3.939   3.068   5.681 -0.2311 -0.6244 -0.2095
  405MOL0     H54615   4.010   2.928   5.626 -2.4961 -2.3018  2.2205
  405MOL0     H54616   3.911   2.852   5.807  0.4128 -0.8555  0.4840
  405MOL0     H54617   4.075   2.874   5.870 -1.5519 -2.9550  1.7866
  405MOL0     H54618   4.021   3.089   5.975  0.2449 -0.6456  1.0735
  405MOL0     H54619   3.855   3.094   5.924  0.7011  1.1605  1.0624
  405MOL0     H54620   3.875   3.029   6.154  0.1727  1.0340 -1.0444
  405MOL0     H54621   3.809   2.906   6.047 -0.3388  0.3626 -0.5086
  405MOL0     H54622   4.006   2.785   6.044 -1.2499  0.4875 -1.4289
  405MOL0     H54623   4.093   2.903   6.149 -1.1186 -0.3674  1.9735
  405MOL0     H54624   3.870   2.714   6.223  1.2534 -1.0053 -0.8354
  405MOL0     H54625   3.918   2.851   6.339  2.5317  0.6705  0.0464
  405MOL0     H54626   4.240   2.801   6.260 -0.8923  1.6327  1.9249
  405MOL0     H54627   4.398   2.688   6.496 -0.0083 -1.2929  1.7114
  405MOL0     H54628   4.383   2.514   6.467 -1.7661  0.0957 -1.4700
  405MOL0     H54629   4.597   2.624   6.368  1.5004  0.3807 -4.0092
  405MOL0     H54630   4.482   2.723   6.272  1.5059 -0.6349 -0.7776
  405MOL0     H54631   4.406   2.508   6.169  0.5114 -2.0738  0.7915
  405MOL0     H54632   4.521   2.424   6.269  1.0987  1.8041  2.0214
  405MOL0     H54633   4.607   2.653   6.071  3.5656 -1.3727 -2.7739
  405MOL0     H54634   4.599   2.484   6.029 -0.2640 -0.8941  0.5219
  405MOL0     H54635   4.960   2.428   6.241  1.9706 -0.4408 -0.3539
  405MOL0     H54636   5.290   2.434   6.088 -0.2559  0.7926 -1.8088
  405MOL0     H54637   5.188   2.357   6.206 -1.4360 -0.1337 -0.8578
  405MOL0     H54638   5.211   2.285   6.039 -0.1714  1.0899 -2.3464
  405MOL0     H54639   5.161   2.671   5.519  0.1575 -1.1302 -0.6726
  405MOL0     H54640   5.354   2.746   5.345 -1.1059 -0.5318  0.0404
  405MOL0     H54641   5.513   2.534   5.236  0.4438  0.8060 -0.6071
  405MOL0     H54642   5.515   2.714   5.209 -0.7815  0.4672  0.1543
  405MOL0     H54643   5.728   2.726   5.147 -0.6160  0.7831  0.2329
  405MOL0     H54644   5.784   2.578   5.215  2.0040  1.3793 -2.9396
  405MOL0     H54645   5.610   2.610   4.968  0.6462  0.5506  0.7993
  405MOL0     H54646   5.635   2.447   5.039 -0.3444 -0.5742  0.7728
  405MOL0     H54647   5.842   2.628   4.918 -1.0791 -0.1713 -1.4274
  405MOL0     H54648   5.869   2.483   5.027  0.1648  0.2572 -1.2787
  405MOL0     H54649   5.723   2.493   4.770 -0.9054 -1.4252 -1.2856
  405MOL0     H54650   5.779   2.344   4.859  2.6493 -0.0562  0.3315
  405MOL0     H54651   5.908   2.397   4.648 -0.3941 -0.4530  1.1794
  405MOL0     H54652   5.946   2.558   4.707  0.1927  0.3679 -1.0263
  405MOL0     H54653   6.029   2.302   4.873 -1.0633 -0.4155 -1.9457
  405MOL0     H54654   6.078   2.474   4.877 -1.0043 -0.2544  0.5399
  405MOL0     H54655   6.181   2.445   4.671 -5.1576  1.6105  0.4313
  405MOL0     H54656   6.128   2.266   4.675 -0.4266 -0.7677  1.8567
  405MOL0     H54657   5.619   2.533   5.610  0.3980  1.6904  3.9664
  405MOL0     H54658   5.458   2.518   5.774  1.0262 -0.3418 -0.6282
  405MOL0     H54659   4.961   2.670   5.810  0.9876  2.0700  1.7921
  405MOL0     H54660   4.777   2.683   5.964  0.5398 -0.8394 -2.6439
  405MOL0     H54661   4.172   3.237   5.329 -0.7043 -0.7257 -2.2104
  405MOL0     H54662   4.261   3.359   5.137  1.5690  4.2371 -0.9476
  405MOL0     H54663   4.343   3.864   5.015  1.1134  1.8487 -0.3050
  405MOL0     H54664   4.459   4.000   4.868  1.9917  0.4576 -0.4486
  405MOL0     H54665   4.518   4.013   4.540 -1.6471  0.7849  1.9201
  405MOL0     H54666   4.510   4.093   4.696  0.4696 -1.8532  2.3394
  405MOL0     H54667   4.740   4.091   4.502 -1.6399 -1.0996 -1.5622
  405MOL0     H54668   4.733   4.197   4.644  1.4341  1.1330 -1.7317
  405MOL0     H54669   4.666   4.313   4.423 -2.0400 -1.8319 -2.2274
  405MOL0     H54670   4.600   4.361   4.576  2.6840  1.9363 -0.7046
  405MOL0     H54671   4.457   4.201   4.357  1.3388 -2.5292  1.1555
  405MOL0     H54672   4.419   4.361   4.413 -0.7227 -0.5483 -0.8974
  405MOL0     H54673   4.187   4.195   4.694  2.5573  0.7015  2.2556
  405MOL0     H54674   4.692   3.691   4.706  0.1708 -0.6802 -0.1583
  405MOL0     H54675   4.598   3.538   4.900 -0.0690 -0.2036 -1.3636
  406MOL0     O54676   8.238   6.339   9.483 -0.1413 -0.7482  0.1551
  406MOL0     C54677   8.339   6.319   9.552 -0.3033  0.0719  0.6602
  406MOL0     O54678   8.475   6.318   9.507  1.7049  0.0764  0.1436
  406MOL0     C54679   8.499   6.387   9.388 -0.2283  0.5476 -0.7450
  406MOL0     C54680   8.513   6.320   9.265  0.4718  0.3551  0.0873
  406MOL0     C54681   8.561   6.387   9.160  0.5542  0.1173  0.8368
  406MOL0     C54682   8.589   6.517   9.163 -0.4523 -0.2097  0.2671
  406MOL0     O54683   8.647   6.569   9.045 -0.2726  0.0306  0.2417
  406MOL0     C54684   8.753   6.655   9.066 -0.2239 -1.1804  0.3496
  406MOL0     C54685   8.828   6.671   8.938 -0.0699 -0.1739  0.3340
  406MOL0     C54686   8.874   6.535   8.888 -0.6999  0.3849 -0.5367
  406MOL0     C54687   8.988   6.548   8.784  0.1005  0.3490  0.7180
  406MOL0     C54688   9.085   6.430   8.799 -0.0925  0.1836  0.0006
  406MOL0     C54689   9.190   6.463   8.906  0.3937  0.3713 -0.0835
  406MOL0     C54690   9.281   6.345   8.951 -0.4955  0.0851 -0.1819
  406MOL0     C54691   9.371   6.272   8.850 -0.0317  0.0660  0.6699
  406MOL0     N54692   9.417   6.137   8.902  0.1439  0.5034 -0.1669
  406MOL0     C54693   9.534   6.119   8.976 -0.5146  0.4665  0.0026
  406MOL0     C54694   9.526   5.989   9.019  0.3155  0.5068  0.3377
  406MOL0     C54695   9.632   5.918   9.104  0.4856  0.1796  0.6331
  406MOL0     C54696   9.710   5.805   9.018 -0.2726  0.0838 -0.3003
  406MOL0     C54697   9.827   5.759   9.106 -0.5341 -0.0054 -0.5540
  406MOL0     C54698   9.836   5.609   9.098 -0.3643 -0.4315  0.0174
  406MOL0     O54699   9.727   5.568   9.179  0.1733 -0.2367  0.2259
  406MOL0     C54700   9.685   5.446   9.193 -0.0451 -0.0100 -0.2112
  406MOL0     C54701   9.741   5.332   9.122 -0.2842 -0.7248  0.1985
  406MOL0     C54702   9.697   5.203   9.140 -1.2950  0.1414  0.2717
  406MOL0     C54703   9.763   5.097   9.069  0.5747 -0.2081 -0.1254
  406MOL0     C54704   9.582   5.181   9.218 -0.4266 -1.3213  0.2565
  406MOL0     C54705   9.522   5.049   9.249 -1.3766  0.3459  0.1263
  406MOL0     O54706   9.434   5.037   9.354  0.0709 -1.0282  0.4278
  406MOL0     C54707   9.381   4.912   9.384  0.3566 -0.3771 -0.3996
  406MOL0     C54708   9.404   4.855   9.508 -0.9439 -0.1697 -0.9926
  406MOL0     C54709   9.382   4.718   9.538 -0.3696  0.3895  0.3186
  406MOL0     C54710   9.331   4.637   9.443  0.4114  0.1525  0.5767
  406MOL0     O54711   9.336   4.499   9.456  0.4038  0.5906  0.2816
  406MOL0     C54712   9.459   4.447   9.499  0.6372  1.3401 -0.5457
  406MOL0     C54713   9.463   4.299   9.467  0.9652  0.6839  0.5431
  406MOL0     C54714   9.508   4.215   9.594 -0.5147  0.0787  0.5931
  406MOL0     C54715   9.489   4.062   9.560 -0.6386 -0.4764 -0.2236
  406MOL0     C54716   9.560   3.974   9.671  0.6968  1.1412 -0.0566
  406MOL0     C54717   9.521   3.826   9.661  1.0023  0.1603 -0.0195
  406MOL0     C54718   9.560   3.745   9.538  0.7576  0.2309 -0.1211
  406MOL0     C54719   9.529   3.592   9.564 -0.1079  0.1951 -0.6094
  406MOL0    Cl54720   9.599   3.491   9.422  0.5387  0.1387 -0.0253
  406MOL0     C54721   9.288   4.690   9.323  0.3336  0.3455  0.2271
  406MOL0     C54722   9.316   4.820   9.291 -0.1744 -0.2124 -0.7023
  406MOL0     O54723   9.569   4.948   9.190 -0.3547 -0.0219 -0.2679
  406MOL0     C54724   9.519   5.289   9.284  0.3729 -0.3336 -0.0969
  406MOL0     C54725   9.571   5.416   9.273 -0.3311  0.3321  0.1436
  406MOL0     N54726   9.417   5.929   8.945  0.5848 -0.0477  1.2017
  406MOL0     N54727   9.358   6.021   8.879  0.1471 -0.6847 -0.0311
  406MOL0     C54728   8.578   6.589   9.287 -0.4618 -0.2155  0.0778
  406MOL0     C54729   8.522   6.520   9.400 -0.2837  0.6461 -0.4572
  406MOL0     C54730   8.321   6.255   9.689  0.3391 -0.2533  1.1143
  406MOL0     C54731   8.437   6.227   9.774  0.6969  0.9020  0.4325
  406MOL0     C54732   8.428   6.156   9.898  0.4267  0.0945 -0.3692
  406MOL0     C54733   8.299   6.111   9.935  0.7319  1.3920 -0.0542
  406MOL0     O54734   8.272   6.021  10.041  0.3995  0.2302  0.5651
  406MOL0     C54735   8.373   5.909  10.034  0.3754 -0.4929 -0.3555
  406MOL0     C54736   8.339   5.796  10.136  0.2123  0.2178  0.1155
  406MOL0     C54737   8.203   5.730  10.098  0.1139  0.9642  0.0817
  406MOL0     C54738   8.227   5.580  10.049  0.7792  0.0626 -0.8774
  406MOL0     C54739   8.103   5.502  10.051  0.9905 -0.9900 -0.5282
  406MOL0     C54740   8.007   5.426  10.055 -0.2717 -0.4949  0.1326
  406MOL0     C54741   8.183   6.148   9.863  0.1576 -0.1067 -0.7211
  406MOL0     C54742   8.198   6.218   9.735  0.2732 -0.4539 -0.6063
  406MOL0     H54743   8.498   6.213   9.261 -1.0621  0.5535 -0.1957
  406MOL0     H54744   8.586   6.334   9.068 -0.6026  1.7016 -0.4514
  406MOL0     H54745   8.721   6.749   9.110 -0.3680 -0.3597 -1.4133
  406MOL0     H54746   8.828   6.605   9.128 -1.5840 -0.6191  2.5345
  406MOL0     H54747   8.758   6.725   8.873  0.3999 -2.5996 -2.3550
  406MOL0     H54748   8.909   6.743   8.949  1.3781 -0.9613 -3.6834
  406MOL0     H54749   8.912   6.476   8.972  2.7352 -3.1264 -4.1063
  406MOL0     H54750   8.800   6.471   8.838 -1.0668  0.8177 -0.5619
  406MOL0     H54751   8.934   6.562   8.690 -2.9366 -1.1772  2.0774
  406MOL0     H54752   9.050   6.638   8.793  0.3921  0.6212 -2.8103
  406MOL0     H54753   9.033   6.342   8.838  0.6486  0.8845  2.7853
  406MOL0     H54754   9.127   6.421   8.698 -0.1197 -1.0715  0.0766
  406MOL0     H54755   9.245   6.556   8.887 -1.3574  1.3596 -0.5439
  406MOL0     H54756   9.133   6.473   8.999  0.3783 -2.5516  0.3096
  406MOL0     H54757   9.361   6.389   9.011  0.3220 -1.8314  0.2363
  406MOL0     H54758   9.228   6.280   9.021 -1.9916 -0.9640 -2.1703
  406MOL0     H54759   9.460   6.332   8.827  1.6766 -1.3702  3.1170
  406MOL0     H54760   9.310   6.251   8.762  3.2807 -0.7799 -1.6200
  406MOL0     H54761   9.619   6.181   8.999  0.5517  0.9420 -4.3114
  406MOL0     H54762   9.689   6.004   9.140 -3.7431  2.8117  1.7741
  406MOL0     H54763   9.579   5.876   9.190 -0.3090  2.7167  1.4788
  406MOL0     H54764   9.738   5.859   8.927 -1.4342  1.0083 -0.1322
  406MOL0     H54765   9.649   5.722   8.980  0.6908 -1.7710  1.9654
  406MOL0     H54766   9.804   5.788   9.209  2.0403  0.3642 -0.0120
  406MOL0     H54767   9.921   5.810   9.080 -1.3701  2.0488  0.2163
  406MOL0     H54768   9.925   5.568   9.145  0.6514  0.2132 -1.2524
  406MOL0     H54769   9.827   5.562   9.000 -2.5995 -1.5030  0.6678
  406MOL0     H54770   9.827   5.348   9.058  0.8881  4.1794  2.5289
  406MOL0     H54771   9.694   5.046   9.002 -3.3874  0.6027  2.9065
  406MOL0     H54772   9.861   5.125   9.030  2.3042 -2.0615  2.5387
  406MOL0     H54773   9.787   5.016   9.139  0.1884 -2.2187 -2.2055
  406MOL0     H54774   9.447   4.916   9.587  0.9447 -1.1303 -1.2134
  406MOL0     H54775   9.408   4.678   9.636 -0.5932 -1.4334 -0.3368
  406MOL0     H54776   9.545   4.498   9.456 -0.4117  2.5756 -1.2445
  406MOL0     H54777   9.449   4.469   9.606 -1.4015  2.3972 -0.9067
  406MOL0     H54778   9.359   4.273   9.447  0.2717  1.9478  2.3327
  406MOL0     H54779   9.531   4.288   9.382 -0.1141  0.6426 -0.3368
  406MOL0     H54780   9.437   4.235   9.674 -1.6228  0.2748 -0.4070
  406MOL0     H54781   9.606   4.249   9.627 -1.1879  2.7442  0.0275
  406MOL0     H54782   9.381   4.045   9.551 -1.1543  1.0689  2.1155
  406MOL0     H54783   9.538   4.052   9.463  0.7380 -1.1676  0.5141
  406MOL0     H54784   9.526   4.003   9.770 -0.4804 -2.0577  0.6078
  406MOL0     H54785   9.668   3.979   9.652  0.2438  1.3375 -3.1467
  406MOL0     H54786   9.554   3.779   9.754 -1.5973 -1.3207  0.2370
  406MOL0     H54787   9.412   3.828   9.659  1.0275  1.6488 -1.1590
  406MOL0     H54788   9.667   3.750   9.517  0.3606  0.8477 -2.2601
  406MOL0     H54789   9.502   3.777   9.451  1.2255  1.5705  0.0484
  406MOL0     H54790   9.421   3.575   9.555 -0.0118 -0.5921 -0.2840
  406MOL0     H54791   9.569   3.562   9.660 -0.1825 -3.0811 -1.4742
  406MOL0     H54792   9.232   4.617   9.266 -0.9723 -2.7494  4.8882
  406MOL0     H54793   9.296   4.847   9.187 -0.6436  3.8106  0.2706
  406MOL0     H54794   9.440   5.271   9.356  0.2654 -1.0226 -0.3815
  406MOL0     H54795   9.535   5.502   9.329 -2.2725 -2.1552  3.0120
  406MOL0     H54796   8.610   6.693   9.284  2.9945 -1.1189 -3.7179
  406MOL0     H54797   8.522   6.565   9.498 -3.0422  0.7354 -0.4366
  406MOL0     H54798   8.533   6.248   9.730 -0.1231  2.5596 -0.6989
  406MOL0     H54799   8.512   6.128   9.961 -0.8823 -1.0665  0.9359
  406MOL0     H54800   8.385   5.872   9.932 -1.1426 -3.1321  0.3446
  406MOL0     H54801   8.468   5.944  10.074 -1.1332 -0.0139  3.1878
  406MOL0     H54802   8.322   5.844  10.233  0.9704 -1.7829  1.3077
  406MOL0     H54803   8.422   5.726  10.149  1.0291  0.6181 -2.4934
  406MOL0     H54804   8.147   5.791  10.027 -5.6615 -1.8062  1.6276
  406MOL0     H54805   8.140   5.712  10.187  1.7825  0.1602  1.1529
  406MOL0     H54806   8.292   5.531  10.122 -0.9907  2.2238  2.4202
  406MOL0     H54807   8.247   5.567   9.942  0.6970 -0.3872 -0.8386
  406MOL0     H54808   7.923   5.361  10.071 -2.3797  2.1085  0.3071
  406MOL0     H54809   8.087   6.115   9.900 -0.5985  2.4283 -0.2225
  406MOL0     H54810   8.115   6.245   9.671 -0.2254  1.1969  0.6655
  407MOL0     O54811   3.185   5.492   9.543 -0.1421  0.5632 -0.0240
  407MOL0     C54812   3.155   5.426   9.637 -0.4370 -0.8273 -0.2336
  407MOL0     O54813   3.239   5.340   9.702 -0.3923  0.3266  0.3637
  407MOL0     C54814   3.358   5.305   9.640 -0.4088 -0.2175  0.0556
  407MOL0     C54815   3.476   5.361   9.687  0.2791  0.6363  0.0696
  407MOL0     C54816   3.591   5.316   9.626 -0.4830  0.3305  0.2581
  407MOL0     C54817   3.597   5.212   9.531  0.9442 -0.8553  0.3399
  407MOL0     O54818   3.722   5.174   9.486  0.6186  1.0065 -0.4017
  407MOL0     C54819   3.748   5.186   9.345 -0.1966 -0.5472 -0.0913
  407MOL0     C54820   3.799   5.328   9.302  0.0665 -0.2616  0.2297
  407MOL0     C54821   3.843   5.323   9.155  0.4330 -0.0502 -0.3218
  407MOL0     C54822   3.902   5.460   9.128 -1.0846 -0.2204  0.5170
  407MOL0     C54823   3.926   5.490   8.975 -0.0620 -0.7101  0.3283
  407MOL0     C54824   3.989   5.629   8.972  0.4530 -0.7356 -0.0411
  407MOL0     C54825   4.018   5.668   8.825  0.5548 -0.1845 -0.1913
  407MOL0     C54826   4.063   5.808   8.813  1.0893 -1.1543  0.5023
  407MOL0     N54827   3.979   5.920   8.854 -0.2877  0.7682  0.0390
  407MOL0     C54828   3.985   6.001   8.959 -0.2105  0.6420 -0.4786
  407MOL0     C54829   3.876   6.077   8.963 -0.1866 -0.3490  0.4366
  407MOL0     C54830   3.864   6.184   9.068  0.2695  0.9005 -0.2810
  407MOL0     C54831   3.825   6.134   9.200 -0.0176 -0.4093 -0.2214
  407MOL0     C54832   3.856   6.256   9.292  0.1588  0.6359  0.2092
  407MOL0     C54833   3.832   6.201   9.432  1.3402 -0.2742 -0.9914
  407MOL0     O54834   3.707   6.236   9.483  0.4598 -0.9014  0.0931
  407MOL0     C54835   3.666   6.164   9.589 -1.3051 -0.8710  0.7606
  407MOL0     C54836   3.721   6.182   9.715 -0.0581 -0.7200  0.6097
  407MOL0     C54837   3.673   6.112   9.826  0.1150 -0.3882 -1.2190
  407MOL0     C54838   3.727   6.158   9.965 -1.0173 -0.5560  0.4527
  407MOL0     C54839   3.588   6.006   9.800 -1.2622  0.4777 -0.1964
  407MOL0     C54840   3.552   5.906   9.894 -0.1575  0.6166 -0.6436
  407MOL0     O54841   3.625   5.892  10.009  0.1648 -0.4997 -0.2504
  407MOL0     C54842   3.595   5.785  10.089  0.3681  0.1594  0.0099
  407MOL0     C54843   3.602   5.653  10.048  0.4510  0.3839  0.2690
  407MOL0     C54844   3.559   5.557  10.144 -0.0938  0.2668  0.3418
  407MOL0     C54845   3.507   5.586  10.276 -0.6778  0.5998  0.9839
  407MOL0     O54846   3.474   5.482  10.361 -0.1632 -0.4895  0.2130
  407MOL0     C54847   3.353   5.493  10.448 -0.6583  0.2375 -0.3432
  407MOL0     C54848   3.297   5.363  10.504 -1.0153  0.0146  0.1554
  407MOL0     C54849   3.211   5.289  10.398 -0.8467  0.4124  0.5571
  407MOL0     C54850   3.183   5.157  10.467 -0.2369  0.9036  0.3114
  407MOL0     C54851   3.106   5.061  10.384 -0.2505  0.8683  0.2047
  407MOL0     C54852   2.987   5.114  10.330 -0.2589 -0.0457 -0.0092
  407MOL0     C54853   2.889   5.002  10.301 -0.2671  0.8527  0.0093
  407MOL0     C54854   2.771   5.049  10.210 -0.7657  0.1335  0.4375
  407MOL0    Cl54855   2.826   5.078  10.050 -0.2008 -0.5658  0.7149
  407MOL0     C54856   3.517   5.715  10.308 -0.5168 -0.4911 -0.3262
  407MOL0     C54857   3.547   5.814  10.210 -0.4921  0.0931  0.2042
  407MOL0     O54858   3.454   5.839   9.874 -0.4758  0.9298  0.9818
  407MOL0     C54859   3.554   5.974   9.671 -0.5800  1.5530  0.4024
  407MOL0     C54860   3.584   6.052   9.563 -0.2463  0.2978  0.7814
  407MOL0     N54861   3.796   6.036   8.861  0.2430  0.0662 -0.1435
  407MOL0     N54862   3.851   5.935   8.797  0.4334  0.7432  0.4864
  407MOL0     C54863   3.478   5.162   9.479 -0.0010  0.0006 -0.9212
  407MOL0     C54864   3.361   5.209   9.528  0.8879  0.5934  0.4603
  407MOL0     C54865   3.009   5.445   9.668 -0.0993 -0.1678  0.5118
  407MOL0     C54866   2.934   5.546   9.599  0.8285 -0.3917 -1.2242
  407MOL0     C54867   2.798   5.567   9.632  0.2699  0.5654 -0.3863
  407MOL0     C54868   2.733   5.503   9.738  0.2298 -0.0639  0.0421
  407MOL0     O54869   2.600   5.520   9.771  0.0265  0.5292 -0.7018
  407MOL0     C54870   2.541   5.648   9.736  0.1318  0.5124  0.1868
  407MOL0     C54871   2.405   5.651   9.809 -0.0293 -0.2333 -0.3565
  407MOL0     C54872   2.402   5.671   9.962  0.7074 -0.2345  0.0082
  407MOL0     C54873   2.486   5.785  10.013  0.5036 -0.0450  0.0479
  407MOL0     C54874   2.492   5.912   9.938 -0.2078 -0.0395 -1.1186
  407MOL0     C54875   2.501   6.023   9.886 -0.0046  0.5186 -0.3668
  407MOL0     C54876   2.814   5.401   9.802 -1.1200  0.3910  0.2831
  407MOL0     C54877   2.942   5.366   9.761  0.5999  0.6024  0.7111
  407MOL0     H54878   3.465   5.440   9.760  1.4220  1.6242 -0.7851
  407MOL0     H54879   3.688   5.358   9.648 -0.1130  0.4056 -1.3694
  407MOL0     H54880   3.835   5.121   9.329  0.7924  1.1382 -1.9900
  407MOL0     H54881   3.661   5.160   9.284 -2.5848  3.0268  1.4476
  407MOL0     H54882   3.723   5.406   9.311  2.6244  3.3210 -4.5226
  407MOL0     H54883   3.887   5.355   9.362 -0.7339 -1.2176  1.9210
  407MOL0     H54884   3.920   5.246   9.141  1.0621  0.4591  0.2820
  407MOL0     H54885   3.760   5.308   9.085 -1.3070  0.4063  1.5670
  407MOL0     H54886   3.835   5.540   9.161  0.2146  0.6883  1.0245
  407MOL0     H54887   3.991   5.461   9.191 -1.6263  0.0107  1.2850
  407MOL0     H54888   3.991   5.405   8.949  0.3173  0.1835 -1.7730
  407MOL0     H54889   3.845   5.489   8.901  1.4010  0.6910 -1.3775
  407MOL0     H54890   3.919   5.706   9.006 -1.5772 -2.4017 -0.2480
  407MOL0     H54891   4.080   5.630   9.032  0.7053 -5.1629 -0.0194
  407MOL0     H54892   4.094   5.598   8.789 -0.6030 -0.9698 -1.1728
  407MOL0     H54893   3.926   5.649   8.769  2.0712 -2.2252 -2.1459
  407MOL0     H54894   4.057   5.835   8.708 -0.2720  1.6624  1.2273
  407MOL0     H54895   4.154   5.817   8.873 -0.8551 -1.2661  3.7185
  407MOL0     H54896   4.064   6.004   9.033 -0.0215 -0.7620 -0.5892
  407MOL0     H54897   3.964   6.229   9.069  2.0845 -2.7680 -0.1285
  407MOL0     H54898   3.786   6.248   9.026 -3.3017 -2.8843 -0.0655
  407MOL0     H54899   3.898   6.061   9.234  1.0501  1.8061  2.6180
  407MOL0     H54900   3.719   6.108   9.215 -0.3726  1.8515  1.8099
  407MOL0     H54901   3.789   6.340   9.274 -0.4734  0.1370  0.2268
  407MOL0     H54902   3.958   6.295   9.279 -0.0498  1.5658  1.1574
  407MOL0     H54903   3.916   6.225   9.498  0.0469 -3.8914  2.4049
  407MOL0     H54904   3.833   6.092   9.432  1.9962 -0.2743 -0.2395
  407MOL0     H54905   3.788   6.263   9.741 -1.6391  0.2582  1.8477
  407MOL0     H54906   3.816   6.096   9.982 -0.2757  0.2670 -0.3208
  407MOL0     H54907   3.766   6.260   9.966 -0.5103 -0.6970 -1.2434
  407MOL0     H54908   3.641   6.151  10.032 -1.7832  0.8069 -0.3605
  407MOL0     H54909   3.641   5.630   9.950  1.3414  1.9379  0.2413
  407MOL0     H54910   3.564   5.450  10.124  1.4524  0.3595  0.0918
  407MOL0     H54911   3.382   5.559  10.529  0.5242 -1.0415  0.3169
  407MOL0     H54912   3.268   5.537  10.395 -0.4270  1.0336 -0.0614
  407MOL0     H54913   3.382   5.298  10.527 -0.8000  0.1351 -0.2804
  407MOL0     H54914   3.243   5.377  10.597 -2.0139 -1.9348 -0.0839
  407MOL0     H54915   3.277   5.263  10.315 -4.3850 -5.4636 -1.0510
  407MOL0     H54916   3.126   5.355  10.375  1.1548  4.8065  4.2474
  407MOL0     H54917   3.275   5.100  10.484 -2.1738 -2.2332  1.1904
  407MOL0     H54918   3.151   5.182  10.569  2.2726  0.1769  1.3641
  407MOL0     H54919   3.088   4.981  10.456 -2.2908  1.4693  0.4414
  407MOL0     H54920   3.168   5.020  10.303 -0.0242  1.0303  0.2985
  407MOL0     H54921   2.936   5.172  10.407 -2.4654  1.1164 -2.2258
  407MOL0     H54922   2.999   5.184  10.246  0.0891 -0.7258 -0.5332
  407MOL0     H54923   2.852   4.961  10.395 -0.2229 -1.1252 -0.7954
  407MOL0     H54924   2.948   4.925  10.251  1.8674  0.6423  2.6250
  407MOL0     H54925   2.719   5.139  10.245 -2.3204 -1.5976  2.9367
  407MOL0     H54926   2.697   4.969  10.208  0.6410 -1.2049 -1.6074
  407MOL0     H54927   3.517   5.749  10.411  0.6823  1.8834 -1.0395
  407MOL0     H54928   3.527   5.917  10.236  0.2812  0.5838 -1.0708
  407MOL0     H54929   3.482   5.894   9.654  2.1859 -1.2094  0.6658
  407MOL0     H54930   3.544   6.033   9.464 -0.5596  0.4161  0.8859
  407MOL0     H54931   3.470   5.093   9.396 -1.1562 -1.3554  0.2786
  407MOL0     H54932   3.277   5.156   9.485  2.2153 -2.0518  0.8918
  407MOL0     H54933   2.993   5.603   9.528  0.3552  0.0614 -1.2590
  407MOL0     H54934   2.742   5.635   9.570 -1.0324 -0.8358 -0.8236
  407MOL0     H54935   2.602   5.733   9.768  2.1535 -1.3336  1.5912
  407MOL0     H54936   2.507   5.654   9.633  0.9299  1.2700 -0.0463
  407MOL0     H54937   2.349   5.558   9.808 -1.7790  0.7811 -0.2411
  407MOL0     H54938   2.338   5.724   9.762 -1.8849 -1.7973 -0.2574
  407MOL0     H54939   2.435   5.587  10.023  4.3482 -0.8646 -2.5161
  407MOL0     H54940   2.299   5.693   9.994  0.1073 -2.1054 -0.5394
  407MOL0     H54941   2.586   5.742  10.010 -0.9764 -3.9526 -0.6984
  407MOL0     H54942   2.462   5.805  10.118 -2.1703 -0.4334 -0.4111
  407MOL0     H54943   2.504   6.118   9.836  3.5843  1.1899  0.7920
  407MOL0     H54944   2.772   5.342   9.883  2.0528 -2.7445 -0.1213
  407MOL0     H54945   2.980   5.279   9.814 -1.9763 -0.8031  0.4325
  408MOL0     O54946   1.575   6.800   3.984 -0.9530  0.2830  0.3804
  408MOL0     C54947   1.700   6.824   3.974 -0.0190 -0.7040  0.4234
  408MOL0     O54948   1.803   6.735   3.963  0.1492  0.0156 -0.2198
  408MOL0     C54949   1.782   6.602   3.961  0.0466  0.2604 -0.2563
  408MOL0     C54950   1.674   6.534   3.903 -0.0680  0.4061  0.9297
  408MOL0     C54951   1.677   6.394   3.897  0.0224 -0.1173 -0.0461
  408MOL0     C54952   1.778   6.333   3.956  0.2932 -0.0161 -0.8195
  408MOL0     O54953   1.768   6.200   3.956  0.1084  0.8895  0.0232
  408MOL0     C54954   1.847   6.116   4.049  0.1117  0.6489 -0.3592
  408MOL0     C54955   1.800   5.971   4.008 -0.4657  0.8176 -0.4579
  408MOL0     C54956   1.841   5.854   4.113 -0.2861 -1.0062  0.3087
  408MOL0     C54957   1.773   5.730   4.055 -0.7990 -0.8595 -0.8795
  408MOL0     C54958   1.863   5.606   4.074 -0.5623 -0.1354  0.7617
  408MOL0     C54959   1.889   5.553   4.219 -0.0950  0.0209 -0.1222
  408MOL0     C54960   1.992   5.453   4.233  0.2473  0.1073  0.9083
  408MOL0     C54961   2.010   5.386   4.363  1.1013 -0.1760  0.5089
  408MOL0     N54962   2.052   5.479   4.473  0.5935 -0.6151 -0.1996
  408MOL0     C54963   1.972   5.543   4.558  0.0712  0.1498  0.3287
  408MOL0     C54964   2.061   5.600   4.649 -0.2652  0.2433 -0.6338
  408MOL0     C54965   2.032   5.694   4.767  0.5100 -0.3419  0.0294
  408MOL0     C54966   2.161   5.725   4.841  0.3493 -1.0157  0.6774
  408MOL0     C54967   2.132   5.819   4.951  0.8184  1.3406 -0.6286
  408MOL0     C54968   2.033   5.765   5.052  0.2998 -0.4120  0.7134
  408MOL0     O54969   2.022   5.866   5.146 -0.0538 -0.1035  0.5905
  408MOL0     C54970   1.924   5.864   5.236  0.0534 -0.1327  0.0284
  408MOL0     C54971   1.818   5.766   5.248  0.1894  0.6210  0.2490
  408MOL0     C54972   1.728   5.770   5.355  0.8167 -0.0763 -0.0366
  408MOL0     C54973   1.627   5.662   5.370  0.3470  1.3012 -0.3156
  408MOL0     C54974   1.728   5.883   5.445 -0.0277 -0.4761 -0.0862
  408MOL0     C54975   1.628   5.903   5.552 -0.8062 -0.7890 -0.1109
  408MOL0     O54976   1.506   5.857   5.538  1.0426 -0.1818  0.2775
  408MOL0     C54977   1.415   5.890   5.642 -0.4655  0.2918  0.2999
  408MOL0     C54978   1.370   5.790   5.727 -0.6826  0.9152 -0.0592
  408MOL0     C54979   1.272   5.823   5.826  0.0837  0.2717 -0.1361
  408MOL0     C54980   1.209   5.953   5.824  0.1128  0.2775  1.3595
  408MOL0     O54981   1.124   5.983   5.926 -0.3092 -0.5845  0.5303
  408MOL0     C54982   1.002   5.907   5.937  0.4310 -0.3074 -0.0343
  408MOL0     C54983   0.907   5.943   5.822 -0.0241 -0.2327  0.7221
  408MOL0     C54984   0.755   5.940   5.855  0.8309 -0.8717 -0.8010
  408MOL0     C54985   0.693   5.806   5.888 -0.8321 -0.0947  0.1499
  408MOL0     C54986   0.650   5.717   5.763  0.9819  0.0162  0.5651
  408MOL0     C54987   0.506   5.756   5.726 -0.0761 -0.0445  0.2725
  408MOL0     C54988   0.487   5.713   5.585  0.1243  0.4448  0.7479
  408MOL0     C54989   0.354   5.775   5.533 -1.0517  0.2925  1.1739
  408MOL0    Cl54990   0.227   5.677   5.598  0.1906  0.6727  0.0106
  408MOL0     C54991   1.258   6.050   5.736 -0.6495  0.3935 -0.2650
  408MOL0     C54992   1.360   6.020   5.642  0.3335 -0.1285 -1.0972
  408MOL0     O54993   1.664   5.976   5.643 -0.4381 -0.8578 -0.0430
  408MOL0     C54994   1.835   5.974   5.433  1.0765 -0.3246  0.0737
  408MOL0     C54995   1.927   5.966   5.330 -0.6283 -0.6040 -0.0255
  408MOL0     N54996   2.189   5.566   4.604 -0.1655  0.1726 -0.2953
  408MOL0     N54997   2.189   5.497   4.495 -0.1519  0.2132 -0.2229
  408MOL0     C54998   1.888   6.395   4.010 -0.6043  0.6354  0.1876
  408MOL0     C54999   1.885   6.538   4.018 -0.8689  0.6955  0.5088
  408MOL0     C55000   1.746   6.966   3.984 -0.4023 -0.0854 -0.8055
  408MOL0     C55001   1.883   6.993   3.988  0.0410  0.1562  0.0065
  408MOL0     C55002   1.935   7.122   4.009 -0.9109  0.3591  0.7669
  408MOL0     C55003   1.845   7.230   4.034 -0.6050  0.1584 -0.2816
  408MOL0     O55004   1.893   7.358   4.053  0.0079  0.4850 -1.2910
  408MOL0     C55005   1.838   7.420   4.171  0.4867  0.1241 -0.1788
  408MOL0     C55006   1.947   7.511   4.224  0.1486 -0.2646 -0.8973
  408MOL0     C55007   1.894   7.607   4.338 -0.1759 -0.1293 -0.5029
  408MOL0     C55008   2.004   7.673   4.428  0.1975 -0.0274 -0.2597
  408MOL0     C55009   2.086   7.779   4.361 -0.6706 -0.0385  0.4686
  408MOL0     C55010   2.145   7.863   4.304  0.1549  0.4161 -0.2264
  408MOL0     C55011   1.711   7.201   4.030  0.1049 -0.2819 -0.1880
  408MOL0     C55012   1.663   7.074   4.007 -0.1449 -0.8562  0.2254
  408MOL0     H55013   1.605   6.595   3.846 -0.0757  1.5620  2.1169
  408MOL0     H55014   1.589   6.341   3.862  0.6238  0.2297 -2.2450
  408MOL0     H55015   1.956   6.115   4.045  0.1285 -0.8813 -4.7381
  408MOL0     H55016   1.805   6.134   4.148  0.6701 -0.6537  0.1426
  408MOL0     H55017   1.691   5.968   4.016 -0.3859  1.3486  1.1776
  408MOL0     H55018   1.829   5.941   3.906 -2.1267  1.6565 -1.2149
  408MOL0     H55019   1.947   5.839   4.133 -0.0177 -0.0267 -0.3433
  408MOL0     H55020   1.798   5.876   4.212 -0.0434  1.3023 -0.0530
  408MOL0     H55021   1.684   5.720   4.118 -1.1727  0.5827 -1.1377
  408MOL0     H55022   1.739   5.751   3.954  1.3539  0.3905 -1.4040
  408MOL0     H55023   1.808   5.535   4.012 -0.4164 -0.6609  1.2311
  408MOL0     H55024   1.961   5.628   4.030 -0.8346 -3.6833 -2.0189
  408MOL0     H55025   1.925   5.639   4.275  2.5556  1.1009 -3.1847
  408MOL0     H55026   1.795   5.525   4.268 -0.2052  1.9134  0.8369
  408MOL0     H55027   1.970   5.373   4.161  3.0460  0.8469 -0.9262
  408MOL0     H55028   2.092   5.487   4.206  0.5784 -2.1241 -1.0535
  408MOL0     H55029   2.082   5.305   4.352  0.0665 -0.9881 -0.4842
  408MOL0     H55030   1.915   5.339   4.390  0.6971 -1.1962 -2.3359
  408MOL0     H55031   1.870   5.575   4.542  0.3116  0.2571 -1.1025
  408MOL0     H55032   1.997   5.792   4.735  1.0403 -1.2892 -4.1124
  408MOL0     H55033   1.954   5.652   4.831  0.5586  1.1215  1.0840
  408MOL0     H55034   2.226   5.777   4.769  0.0275  0.3638  1.3451
  408MOL0     H55035   2.217   5.639   4.879  3.8364  2.6570  5.0115
  408MOL0     H55036   2.111   5.917   4.907  0.2442  1.9032  0.8107
  408MOL0     H55037   2.220   5.836   5.013 -1.4007  2.2667  2.5366
  408MOL0     H55038   2.068   5.670   5.093  1.1604  1.2519  4.2002
  408MOL0     H55039   1.938   5.751   4.999 -0.4407  0.4261  1.7720
  408MOL0     H55040   1.833   5.672   5.196  2.0948  0.7415  0.4885
  408MOL0     H55041   1.643   5.573   5.308  0.1607  1.1066 -0.0830
  408MOL0     H55042   1.640   5.646   5.478  0.4765  2.7713 -0.0948
  408MOL0     H55043   1.531   5.709   5.350 -0.5816  0.8881  2.6107
  408MOL0     H55044   1.402   5.687   5.712 -2.8988  0.6166 -4.0288
  408MOL0     H55045   1.244   5.747   5.899 -2.7773  1.1679 -0.1466
  408MOL0     H55046   1.036   5.803   5.929  1.4556 -0.1103  1.3528
  408MOL0     H55047   0.955   5.916   6.036 -0.5623 -4.5007  0.0727
  408MOL0     H55048   0.932   6.040   5.777 -0.8364  0.1738  1.1344
  408MOL0     H55049   0.923   5.873   5.739  1.6273  2.9901 -1.9446
  408MOL0     H55050   0.696   5.982   5.773 -0.3440  0.2161  0.5259
  408MOL0     H55051   0.735   6.003   5.942  0.7349  0.5432 -1.8063
  408MOL0     H55052   0.762   5.755   5.957  4.1219  0.3892 -3.8418
  408MOL0     H55053   0.603   5.831   5.945 -0.6151 -0.2819  0.5784
  408MOL0     H55054   0.651   5.609   5.785 -1.5436 -0.6600 -2.0578
  408MOL0     H55055   0.720   5.732   5.680  0.5102 -0.8987 -0.0127
  408MOL0     H55056   0.434   5.707   5.793  0.1555 -1.4728 -0.4858
  408MOL0     H55057   0.505   5.866   5.729 -1.3362  0.0433 -1.5493
  408MOL0     H55058   0.501   5.606   5.574 -1.0793  0.3850 -0.5544
  408MOL0     H55059   0.565   5.771   5.535  0.8366  1.3421  2.7692
  408MOL0     H55060   0.359   5.759   5.425 -0.1376 -0.5437  1.3307
  408MOL0     H55061   0.347   5.882   5.556 -0.1280  1.1294 -2.0148
  408MOL0     H55062   1.210   6.147   5.744 -1.2520 -0.0255  2.1142
  408MOL0     H55063   1.391   6.091   5.566  3.8267 -1.2791 -0.9282
  408MOL0     H55064   1.830   6.061   5.499 -1.2740  0.0179 -0.4766
  408MOL0     H55065   2.007   6.038   5.319 -0.8060 -0.7091 -3.2451
  408MOL0     H55066   1.963   6.336   4.062 -1.8127 -0.4022  0.8047
  408MOL0     H55067   1.964   6.593   4.070  2.3934 -4.3161  1.5733
  408MOL0     H55068   1.955   6.916   3.960 -1.7957 -1.7365  0.2164
  408MOL0     H55069   2.042   7.131   4.000 -0.9982  1.8869  1.0080
  408MOL0     H55070   1.754   7.486   4.148  0.7534 -0.5669 -3.6513
  408MOL0     H55071   1.803   7.352   4.248 -0.6841 -0.9434 -1.5970
  408MOL0     H55072   1.997   7.569   4.145 -0.1444 -1.7930 -2.2717
  408MOL0     H55073   2.020   7.449   4.276  1.9385  1.7779 -0.8339
  408MOL0     H55074   1.834   7.554   4.413 -0.8291  2.0133  0.5751
  408MOL0     H55075   1.834   7.689   4.296 -0.1252  0.4660  0.5412
  408MOL0     H55076   2.062   7.586   4.461  1.5281 -0.4789 -3.3930
  408MOL0     H55077   1.950   7.728   4.505  1.5460  3.0710 -1.3606
  408MOL0     H55078   2.193   7.946   4.257 -1.0359 -0.7131 -3.8001
  408MOL0     H55079   1.641   7.281   4.051 -0.9740 -0.7129 -1.9444
  408MOL0     H55080   1.556   7.072   3.991 -0.0732  0.7445 -0.6957
  409MOL0     O55081  10.705   8.507  10.684  0.1956 -0.0381  0.3507
  409MOL0     C55082  10.678   8.621  10.720 -0.5921 -0.8342 -0.6476
  409MOL0     O55083  10.679   8.660  10.855  0.2245  0.0118  0.5279
  409MOL0     C55084  10.727   8.573  10.948  0.0450  0.0664 -0.3095
  409MOL0     C55085  10.859   8.576  10.979 -0.0056  0.2923  0.2699
  409MOL0     C55086  10.909   8.471  11.069  0.4586 -0.0832  0.0125
  409MOL0     C55087  10.823   8.379  11.132 -0.2647 -0.6668  0.1679
  409MOL0     O55088  10.882   8.275  11.200  0.6228 -0.0660  0.5259
  409MOL0     C55089  10.804   8.176  11.262 -0.1140  0.7334 -0.1372
  409MOL0     C55090  10.889   8.076  11.348 -0.5010  0.4257  0.1989
  409MOL0     C55091  10.934   7.954  11.262 -0.4215 -0.1084 -0.7380
  409MOL0     C55092  10.986   7.844  11.358  0.2851  0.0056 -0.2224
  409MOL0     C55093  11.005   7.700  11.286 -0.1003  0.4681 -0.1042
  409MOL0     C55094  10.966   7.580  11.366 -0.8571  0.7972 -0.1726
  409MOL0     C55095  10.991   7.441  11.308 -0.7525  0.4614  0.0098
  409MOL0     C55096  11.136   7.416  11.267 -0.6959  0.3165 -0.6132
  409MOL0     N55097  11.237   7.432  11.372 -0.3972 -0.1014  0.2373
  409MOL0     C55098  11.275   7.339  11.462 -1.4373  0.0299 -0.5282
  409MOL0     C55099  11.390   7.396  11.515  0.1722 -1.1000 -0.3031
  409MOL0     C55100  11.479   7.334  11.626 -0.0895 -0.2882 -0.4136
  409MOL0     C55101  11.409   7.275  11.754  0.3782  0.1881 -0.5925
  409MOL0     C55102  11.311   7.162  11.731 -0.2230  0.1880  0.3959
  409MOL0     C55103  11.282   7.084  11.855 -0.7053 -0.0127 -0.4508
  409MOL0     O55104  11.404   7.020  11.907  0.5124 -0.7665 -0.6377
  409MOL0     C55105  11.411   6.992  12.040  0.3686  0.4471  0.2951
  409MOL0     C55106  11.517   6.909  12.073  0.4693 -0.4849  0.3055
  409MOL0     C55107  11.541   6.856  12.196 -0.2476  0.5031  0.2994
  409MOL0     C55108  11.658   6.762  12.212 -0.0241  0.4461 -0.4398
  409MOL0     C55109  11.459   6.897  12.305 -0.4085 -0.7079  0.5840
  409MOL0     C55110  11.470   6.833  12.435 -0.8055  0.8409 -0.1592
  409MOL0     O55111  11.481   6.921  12.542 -0.6937 -0.3032  0.5587
  409MOL0     C55112  11.458   6.869  12.662  0.5766  0.0900 -0.4232
  409MOL0     C55113  11.549   6.874  12.761 -0.0649  0.5664 -1.1969
  409MOL0     C55114  11.522   6.852  12.891 -0.1174 -0.0464  0.5957
  409MOL0     C55115  11.394   6.817  12.936 -0.5380  0.3854  0.8897
  409MOL0     O55116  11.373   6.802  13.066 -1.4035 -0.3065 -0.3933
  409MOL0     C55117  11.285   6.687  13.096 -0.2289  0.2174  0.4720
  409MOL0     C55118  11.289   6.653  13.244  0.2789 -0.2343 -0.1628
  409MOL0     C55119  11.210   6.521  13.269 -0.8619  0.1857 -0.6376
  409MOL0     C55120  11.249   6.456  13.401 -0.2468 -0.3270  0.3361
  409MOL0     C55121  11.183   6.321  13.423 -0.2060  0.1405 -0.1859
  409MOL0     C55122  11.179   6.253  13.553  0.1025  0.9629 -0.4131
  409MOL0     C55123  11.126   6.345  13.660  0.3709 -0.9310 -0.5525
  409MOL0     C55124  10.996   6.406  13.630 -0.0380  0.5636 -0.4261
  409MOL0    Cl55125  10.882   6.290  13.557  0.0302 -0.0752  0.7845
  409MOL0     C55126  11.302   6.801  12.825 -0.2709  0.0892 -0.4966
  409MOL0     C55127  11.327   6.840  12.698 -0.6003  0.8992  0.5437
  409MOL0     O55128  11.439   6.706  12.432 -0.0745 -0.1355  0.5400
  409MOL0     C55129  11.359   6.993  12.278 -0.0545  0.5138 -0.0497
  409MOL0     C55130  11.333   7.033  12.146 -0.3849  0.0868  0.1491
  409MOL0     N55131  11.411   7.525  11.458 -0.3255 -1.0131  0.5758
  409MOL0     N55132  11.315   7.542  11.378 -0.6767  0.2015 -0.0227
  409MOL0     C55133  10.684   8.402  11.106 -0.2168  0.1298 -0.0974
  409MOL0     C55134  10.630   8.500  11.019  0.8212  0.3576 -0.1065
  409MOL0     C55135  10.634   8.725  10.615  0.3440 -0.2692 -0.5970
  409MOL0     C55136  10.614   8.866  10.636  0.5744  0.7514 -0.5968
  409MOL0     C55137  10.556   8.940  10.539 -0.3599 -0.0706 -0.3048
  409MOL0     C55138  10.524   8.889  10.416  0.0083 -0.7351  0.6322
  409MOL0     O55139  10.484   8.982  10.317  0.1134  0.3483 -0.5604
  409MOL0     C55140  10.516   8.961  10.182  0.0094  0.1984  0.4488
  409MOL0     C55141  10.512   9.092  10.101  0.0523 -0.1812 -0.0422
  409MOL0     C55142  10.367   9.146  10.102 -0.4981 -0.1133  0.6796
  409MOL0     C55143  10.278   9.093   9.990  0.2851  0.2081  1.2605
  409MOL0     C55144  10.130   9.128  10.009 -1.2000  0.7286 -0.7349
  409MOL0     C55145  10.014   9.156  10.013  0.3494 -0.2520  0.1138
  409MOL0     C55146  10.546   8.754  10.394 -0.0571  0.3530 -0.4098
  409MOL0     C55147  10.597   8.668  10.494 -0.3777 -0.4828  0.0887
  409MOL0     H55148  10.926   8.637  10.918 -0.5326 -2.4521 -3.3922
  409MOL0     H55149  11.012   8.469  11.103  0.4191  1.3567  0.2684
  409MOL0     H55150  10.733   8.213  11.336 -0.1888 -0.7532  0.5865
  409MOL0     H55151  10.734   8.126  11.193 -1.7196 -0.0505  1.9616
  409MOL0     H55152  10.973   8.127  11.396  0.0102 -0.0413 -0.1958
  409MOL0     H55153  10.827   8.037  11.430 -0.8679  1.0084  0.2088
  409MOL0     H55154  10.854   7.913  11.199 -2.4000  0.8352  1.0670
  409MOL0     H55155  11.022   7.993  11.210 -0.1627  1.1903  0.6430
  409MOL0     H55156  11.078   7.874  11.409 -0.7737  1.1467  1.1068
  409MOL0     H55157  10.907   7.834  11.433  2.8342  1.8552  2.9701
  409MOL0     H55158  10.942   7.699  11.196 -1.3382  2.7794  0.6810
  409MOL0     H55159  11.112   7.694  11.261  0.0939  0.0418  0.7785
  409MOL0     H55160  11.030   7.579  11.455 -2.1902 -1.5002  0.8465
  409MOL0     H55161  10.868   7.598  11.410  0.6186 -0.5251  4.1772
  409MOL0     H55162  10.962   7.377  11.391  2.1256  0.2080  0.9484
  409MOL0     H55163  10.930   7.426  11.219 -2.7966  2.1192  1.0667
  409MOL0     H55164  11.171   7.478  11.185  0.7645  4.5134  2.8067
  409MOL0     H55165  11.139   7.315  11.225  1.2220 -0.0191  0.2272
  409MOL0     H55166  11.240   7.237  11.475 -0.9066 -0.0908  0.0172
  409MOL0     H55167  11.536   7.253  11.579 -1.1401 -1.2094 -0.1673
  409MOL0     H55168  11.550   7.409  11.660 -1.0510  1.4558 -2.0702
  409MOL0     H55169  11.360   7.361  11.801  2.3540  1.0685 -0.0588
  409MOL0     H55170  11.482   7.239  11.828  0.9060  0.6752 -0.8735
  409MOL0     H55171  11.357   7.095  11.658  0.0920  1.8268 -0.9988
  409MOL0     H55172  11.216   7.200  11.694 -0.7650 -0.5864  0.9833
  409MOL0     H55173  11.213   7.001  11.839 -0.0368 -1.0436  1.6599
  409MOL0     H55174  11.230   7.146  11.928 -0.8169 -1.9008  1.1666
  409MOL0     H55175  11.581   6.884  11.989  0.4943 -0.1684  0.2315
  409MOL0     H55176  11.742   6.806  12.159 -0.3752 -0.3600 -1.7061
  409MOL0     H55177  11.682   6.739  12.317  0.9854  0.1425 -0.7255
  409MOL0     H55178  11.639   6.665  12.164  2.5897  0.4804 -1.7059
  409MOL0     H55179  11.651   6.901  12.737  1.3751 -2.1625  1.2230
  409MOL0     H55180  11.595   6.842  12.971 -0.9342  0.5930  1.4461
  409MOL0     H55181  11.183   6.727  13.091  1.1411  4.0853  0.6141
  409MOL0     H55182  11.318   6.608  13.028  1.1490  1.3325 -0.1810
  409MOL0     H55183  11.393   6.647  13.275  0.0274  0.1234  0.7937
  409MOL0     H55184  11.244   6.730  13.307 -1.8275 -0.3011 -1.4591
  409MOL0     H55185  11.237   6.454  13.186 -2.6363  0.5136 -1.5274
  409MOL0     H55186  11.104   6.548  13.278 -1.0708  0.0831 -2.3211
  409MOL0     H55187  11.355   6.431  13.398 -0.0008  0.5295  1.3731
  409MOL0     H55188  11.223   6.523  13.484 -1.3758  0.4983 -0.6551
  409MOL0     H55189  11.245   6.264  13.352 -1.5235  1.2228 -2.3195
  409MOL0     H55190  11.086   6.332  13.375  0.2419 -3.7606 -2.4026
  409MOL0     H55191  11.124   6.159  13.545  1.1142  0.4652 -2.0102
  409MOL0     H55192  11.280   6.220  13.578 -1.0225 -1.1614  1.7213
  409MOL0     H55193  11.197   6.418  13.699  0.2548 -0.2368 -1.6000
  409MOL0     H55194  11.110   6.296  13.757 -0.7227  0.8205  0.1903
  409MOL0     H55195  11.015   6.477  13.548  2.7122 -2.0219 -2.2396
  409MOL0     H55196  10.956   6.441  13.726  3.8136  2.5761  0.6421
  409MOL0     H55197  11.203   6.763  12.850 -1.1171  2.8349  0.6865
  409MOL0     H55198  11.248   6.844  12.624 -1.4039 -1.0678  1.2337
  409MOL0     H55199  11.313   7.036  12.366  1.4036  0.6515  0.6830
  409MOL0     H55200  11.248   7.096  12.123 -0.6717  1.0100  3.3057
  409MOL0     H55201  10.617   8.331  11.153  0.8168 -1.3466 -0.7805
  409MOL0     H55202  10.524   8.499  10.993 -0.1876 -2.9178  3.2478
  409MOL0     H55203  10.640   8.911  10.731  2.3517 -3.0937  0.9449
  409MOL0     H55204  10.546   9.048  10.548  0.5965  0.0858 -0.9148
  409MOL0     H55205  10.621   8.932  10.186 -0.2035 -0.7483 -0.3966
  409MOL0     H55206  10.459   8.881  10.133  1.4204 -2.6557  3.1205
  409MOL0     H55207  10.536   9.072   9.996 -2.2545  1.2755 -0.9187
  409MOL0     H55208  10.571   9.164  10.159 -0.7251 -0.5363  1.2397
  409MOL0     H55209  10.386   9.253  10.096  1.1396 -0.3155  1.5851
  409MOL0     H55210  10.326   9.134  10.203 -0.5730  1.7958  0.9144
  409MOL0     H55211  10.291   8.985   9.980  2.3975  0.4798  0.4076
  409MOL0     H55212  10.318   9.135   9.897  2.0058 -0.8366  1.4928
  409MOL0     H55213   9.913   9.187   9.993  0.0607 -0.9289  0.4766
  409MOL0     H55214  10.497   8.708  10.309 -1.0731  0.1688  0.2516
  409MOL0     H55215  10.597   8.566  10.458  1.1430 -0.2225 -0.7818
  410MOL0     O55216   3.199   8.960   1.738  1.0279 -0.5440  0.6187
  410MOL0     C55217   3.087   8.900   1.736  0.2219  0.9078 -0.3460
  410MOL0     O55218   3.058   8.761   1.770 -0.1909  0.3241 -0.0217
  410MOL0     C55219   3.153   8.681   1.823 -0.0345  0.3336 -0.6747
  410MOL0     C55220   3.200   8.565   1.760  0.2431 -0.3003 -1.0505
  410MOL0     C55221   3.325   8.519   1.803  0.5739 -0.4075  0.5958
  410MOL0     C55222   3.402   8.580   1.901 -0.2593  0.2993  0.5168
  410MOL0     O55223   3.530   8.541   1.915 -1.2243  0.3641 -0.2828
  410MOL0     C55224   3.542   8.468   2.037  0.8165  0.4140 -0.4348
  410MOL0     C55225   3.678   8.396   2.032  0.6378 -0.4044  0.2164
  410MOL0     C55226   3.689   8.283   1.925  0.1706 -0.9135 -0.8260
  410MOL0     C55227   3.781   8.176   1.985  0.2585  0.4066  1.0670
  410MOL0     C55228   3.808   8.057   1.890 -0.1242  0.0674 -0.0186
  410MOL0     C55229   3.909   7.955   1.953  0.4375  0.0751 -0.6034
  410MOL0     C55230   3.941   7.855   1.834 -0.0246 -0.4280 -0.2592
  410MOL0     C55231   4.034   7.738   1.877  0.0240 -0.7311  0.5229
  410MOL0     N55232   4.046   7.636   1.768  0.4337 -0.2459  0.2989
  410MOL0     C55233   4.111   7.523   1.781  0.2236 -0.6354  0.0000
  410MOL0     C55234   4.086   7.448   1.673 -0.5655 -0.5342  0.0472
  410MOL0     C55235   4.167   7.332   1.635  1.0440 -0.3506 -0.2349
  410MOL0     C55236   4.302   7.344   1.701  0.0203 -0.2404  0.4295
  410MOL0     C55237   4.390   7.227   1.661  0.4455 -0.4342  0.2360
  410MOL0     C55238   4.327   7.092   1.679  0.3301  0.1622  0.2427
  410MOL0     O55239   4.418   6.980   1.670  0.9519  0.4409 -0.3704
  410MOL0     C55240   4.435   6.909   1.555  0.2259  0.2730  0.7247
  410MOL0     C55241   4.478   6.772   1.563 -0.1379 -0.4508 -0.8279
  410MOL0     C55242   4.500   6.700   1.444 -0.3743  1.2163  0.3269
  410MOL0     C55243   4.554   6.560   1.467  0.7708 -0.0768 -0.3421
  410MOL0     C55244   4.486   6.758   1.319 -0.0808  0.0045 -0.6719
  410MOL0     C55245   4.526   6.689   1.198 -0.2684  0.3297 -0.2691
  410MOL0     O55246   4.448   6.717   1.083  0.0547  0.2774  0.2785
  410MOL0     C55247   4.508   6.678   0.968 -1.0316  0.7941 -0.2485
  410MOL0     C55248   4.623   6.738   0.906  0.0648 -0.3408 -0.2128
  410MOL0     C55249   4.683   6.684   0.801  0.3944 -0.7667  0.0881
  410MOL0     C55250   4.659   6.557   0.761  0.5396 -0.0821 -0.2482
  410MOL0     O55251   4.717   6.533   0.639 -0.0919  0.6615  0.0448
  410MOL0     C55252   4.698   6.396   0.593  0.6712  0.0538  0.0928
  410MOL0     C55253   4.793   6.357   0.473  0.5272 -0.3823  0.4157
  410MOL0     C55254   4.789   6.206   0.451  0.3775 -0.5564  0.7687
  410MOL0     C55255   4.857   6.130   0.565 -0.5846  0.0191 -0.6393
  410MOL0     C55256   4.871   5.986   0.535  0.4692 -0.2756  0.7184
  410MOL0     C55257   4.731   5.906   0.499 -0.6452  0.0453 -0.1116
  410MOL0     C55258   4.633   5.895   0.611 -0.0602 -0.1917  0.7975
  410MOL0     C55259   4.506   5.824   0.564  1.0646  0.1026 -0.0158
  410MOL0    Cl55260   4.403   5.764   0.703 -0.0936  0.4603 -0.2209
  410MOL0     C55261   4.548   6.487   0.814 -0.1281 -0.5644 -0.4025
  410MOL0     C55262   4.475   6.546   0.916 -0.0490 -0.6858 -0.1944
  410MOL0     O55263   4.631   6.628   1.200  0.2998  0.6152  0.3863
  410MOL0     C55264   4.427   6.884   1.315  0.4951  1.4608 -0.4214
  410MOL0     C55265   4.422   6.961   1.431 -0.0392  0.0662 -0.0409
  410MOL0     N55266   3.989   7.518   1.605  0.6398  0.5750  0.0698
  410MOL0     N55267   3.961   7.620   1.670 -0.3558  0.3297  0.0659
  410MOL0     C55268   3.344   8.673   1.977  0.5409  0.3502 -0.1386
  410MOL0     C55269   3.220   8.729   1.940  0.2344 -0.2650 -0.0362
  410MOL0     C55270   2.964   8.961   1.675 -0.1404  0.0912 -0.7496
  410MOL0     C55271   2.949   9.091   1.631 -0.2044 -0.3878 -0.2820
  410MOL0     C55272   2.832   9.152   1.587  0.7451 -0.0652  1.4597
  410MOL0     C55273   2.717   9.063   1.573 -0.4665  0.0587 -0.4931
  410MOL0     O55274   2.593   9.096   1.519  0.6647  0.1640  0.2908
  410MOL0     C55275   2.575   9.222   1.455 -0.9279  0.1669 -0.0164
  410MOL0     C55276   2.638   9.234   1.315  0.3624 -0.1707 -0.4063
  410MOL0     C55277   2.584   9.136   1.218 -0.6167  1.4709  0.1367
  410MOL0     C55278   2.463   9.191   1.153  0.7978  0.6121 -0.1233
  410MOL0     C55279   2.369   9.077   1.129 -0.1326 -0.0255 -0.4548
  410MOL0     C55280   2.285   8.983   1.133 -0.7375 -0.3999  0.1107
  410MOL0     C55281   2.734   8.932   1.614  0.6283  0.0146  0.2411
  410MOL0     C55282   2.849   8.885   1.660 -0.5366 -0.4835  0.2736
  410MOL0     H55283   3.163   8.521   1.668 -0.5520  0.8793 -1.3277
  410MOL0     H55284   3.374   8.443   1.744 -0.0755 -2.0006  2.0127
  410MOL0     H55285   3.544   8.535   2.123  1.8469 -0.4206  0.2176
  410MOL0     H55286   3.466   8.390   2.053  0.8012  0.0035 -2.3219
  410MOL0     H55287   3.756   8.472   2.018  0.4230  0.1842  1.9859
  410MOL0     H55288   3.697   8.352   2.130  4.7395  1.6721  0.5832
  410MOL0     H55289   3.591   8.238   1.914 -0.1620 -0.2512 -0.6283
  410MOL0     H55290   3.731   8.312   1.828  2.2791  0.0248  0.2939
  410MOL0     H55291   3.870   8.228   2.023 -0.0770 -0.9062  3.9699
  410MOL0     H55292   3.739   8.133   2.077  0.0856 -0.0406  0.7819
  410MOL0     H55293   3.712   8.017   1.857 -0.1152  0.3676 -0.4239
  410MOL0     H55294   3.870   8.091   1.806 -0.3315  0.0138 -0.1939
  410MOL0     H55295   3.998   8.006   1.990  0.3160 -0.8642  1.1076
  410MOL0     H55296   3.860   7.914   2.042  3.8644  0.8869  1.8696
  410MOL0     H55297   3.851   7.809   1.795 -0.7214  1.9657 -1.6858
  410MOL0     H55298   3.991   7.912   1.755  1.5217 -3.6472 -1.7767
  410MOL0     H55299   3.995   7.681   1.962 -0.1744 -2.9540 -0.9665
  410MOL0     H55300   4.139   7.762   1.897  0.5182 -1.1766 -1.3481
  410MOL0     H55301   4.173   7.500   1.867  0.8221 -1.6996 -0.6953
  410MOL0     H55302   4.109   7.244   1.664 -0.5818 -0.3785 -3.2100
  410MOL0     H55303   4.182   7.327   1.527  1.1351  1.9755 -0.3793
  410MOL0     H55304   4.295   7.338   1.810 -2.3811  0.6154  0.3723
  410MOL0     H55305   4.345   7.442   1.677 -1.1395  0.2641  0.3519
  410MOL0     H55306   4.488   7.232   1.710  0.4198  1.0982  0.1904
  410MOL0     H55307   4.414   7.240   1.555  0.4766  0.0123  0.2949
  410MOL0     H55308   4.246   7.069   1.609  1.1063 -3.4451  0.3511
  410MOL0     H55309   4.269   7.091   1.772  0.2374 -2.4848  0.2316
  410MOL0     H55310   4.485   6.722   1.660 -1.3485  0.2213 -0.3703
  410MOL0     H55311   4.502   6.528   1.558 -0.3123  2.2946 -0.0476
  410MOL0     H55312   4.534   6.485   1.390  0.8358 -2.8464  2.1484
  410MOL0     H55313   4.659   6.567   1.497  0.9138  0.9957 -1.0481
  410MOL0     H55314   4.665   6.826   0.954 -2.5412  0.3336  0.9688
  410MOL0     H55315   4.762   6.741   0.755 -1.0204  0.2977 -1.1398
  410MOL0     H55316   4.711   6.330   0.679 -1.6724  1.0759  1.3233
  410MOL0     H55317   4.597   6.373   0.559  1.9003 -3.4574 -1.6271
  410MOL0     H55318   4.758   6.406   0.383  3.8028  1.3862 -0.0440
  410MOL0     H55319   4.898   6.387   0.485  0.4042  0.4189 -0.4643
  410MOL0     H55320   4.830   6.184   0.352  2.0587  3.1423  0.4470
  410MOL0     H55321   4.684   6.176   0.449  0.5942 -1.3140  0.7281
  410MOL0     H55322   4.957   6.168   0.585  0.3215 -2.8966  1.0941
  410MOL0     H55323   4.795   6.140   0.654 -1.5556 -2.2562 -0.9803
  410MOL0     H55324   4.919   5.935   0.619  0.0387 -0.6357  0.7530
  410MOL0     H55325   4.926   5.973   0.441 -1.7836 -3.4186 -0.3711
  410MOL0     H55326   4.676   5.942   0.412  0.3432 -0.3284 -0.9163
  410MOL0     H55327   4.775   5.814   0.459 -3.2973 -0.6841 -1.5337
  410MOL0     H55328   4.604   5.988   0.660 -5.2900 -0.3283 -1.4373
  410MOL0     H55329   4.687   5.836   0.686 -0.1065 -0.1263  0.8816
  410MOL0     H55330   4.539   5.743   0.499  1.0961 -1.1186  1.4598
  410MOL0     H55331   4.448   5.893   0.502 -0.8035  0.1577  1.6745
  410MOL0     H55332   4.516   6.395   0.767  1.5712 -0.7962 -1.1799
  410MOL0     H55333   4.378   6.503   0.940 -0.1864 -1.9630 -2.7740
  410MOL0     H55334   4.396   6.928   1.221 -0.8596 -0.6879 -1.0365
  410MOL0     H55335   4.386   7.062   1.414  0.3104 -0.2294 -2.9886
  410MOL0     H55336   3.393   8.703   2.069 -0.2519 -1.3332  0.8883
  410MOL0     H55337   3.188   8.810   2.004  1.3429 -0.7006  1.1059
  410MOL0     H55338   3.037   9.153   1.642  1.2698 -2.3090 -0.6763
  410MOL0     H55339   2.839   9.260   1.572  1.2200 -0.2060  0.5787
  410MOL0     H55340   2.468   9.247   1.451 -1.1128 -0.6057 -0.0451
  410MOL0     H55341   2.614   9.303   1.517  0.0214 -0.3903  0.1315
  410MOL0     H55342   2.743   9.213   1.335  0.1082 -0.1763  1.0324
  410MOL0     H55343   2.633   9.332   1.266  1.8750 -1.2511 -2.9326
  410MOL0     H55344   2.583   9.040   1.271  0.4357  1.2190 -0.2757
  410MOL0     H55345   2.655   9.118   1.136 -1.7349 -2.2253 -0.2029
  410MOL0     H55346   2.471   9.234   1.053 -1.6198 -0.1916 -0.7323
  410MOL0     H55347   2.408   9.255   1.223 -0.7412 -1.3183  0.5308
  410MOL0     H55348   2.222   8.897   1.142 -0.3652 -0.4448  3.7257
  410MOL0     H55349   2.652   8.861   1.603  1.2122 -0.9434  1.7361
  410MOL0     H55350   2.851   8.782   1.694  0.4108  0.2804  2.7188
  411MOL0     O55351   6.747   5.437   8.745  0.1798  0.4384  0.6395
  411MOL0     C55352   6.764   5.539   8.815 -0.2574  0.4032  0.9221
  411MOL0     O55353   6.823   5.535   8.945  0.9999 -0.1283 -0.2340
  411MOL0     C55354   6.832   5.422   9.020 -0.1610  0.1071 -0.5753
  411MOL0     C55355   6.739   5.312   9.015  0.1368  0.4647 -0.7089
  411MOL0     C55356   6.748   5.219   9.120 -0.7404 -0.2362  1.1719
  411MOL0     C55357   6.827   5.224   9.235 -0.9228  0.2718  0.3100
  411MOL0     O55358   6.814   5.145   9.346 -0.6218  0.6649  0.0968
  411MOL0     C55359   6.744   5.023   9.346  0.5243  0.6692  0.0292
  411MOL0     C55360   6.719   4.954   9.483 -0.7864  0.6931  0.6442
  411MOL0     C55361   6.850   4.916   9.552 -0.5549  1.4739  0.1427
  411MOL0     C55362   6.818   4.849   9.681 -1.1187  0.5565  0.4713
  411MOL0     C55363   6.949   4.842   9.767 -0.4610 -1.0672  0.7325
  411MOL0     C55364   6.925   4.789   9.919 -0.8765  0.6047  0.0682
  411MOL0     C55365   7.044   4.739   9.998  0.8470 -0.2998  0.7982
  411MOL0     C55366   7.163   4.841   9.986 -0.2448  0.3856  1.0211
  411MOL0     N55367   7.273   4.803  10.084  0.0232 -0.0369  0.3571
  411MOL0     C55368   7.262   4.798  10.219 -0.1546 -0.0072 -0.1505
  411MOL0     C55369   7.381   4.838  10.269 -0.4177 -0.1636  0.5720
  411MOL0     C55370   7.428   4.873  10.407  0.6779 -0.2588 -0.5373
  411MOL0     C55371   7.473   4.754  10.472  0.0472 -0.4331  0.3750
  411MOL0     C55372   7.520   4.770  10.610  0.5657 -0.1650 -0.9539
  411MOL0     C55373   7.597   4.650  10.659 -0.0025  0.2411  0.1198
  411MOL0     O55374   7.610   4.663  10.801  0.9103 -0.7923 -0.2985
  411MOL0     C55375   7.605   4.551  10.881  0.4231 -1.4252  1.0397
  411MOL0     C55376   7.676   4.428  10.848  0.8449 -0.8494  0.2558
  411MOL0     C55377   7.658   4.317  10.925  0.4389  0.2890 -0.4124
  411MOL0     C55378   7.730   4.196  10.895 -0.2868  0.4800  0.1870
  411MOL0     C55379   7.574   4.326  11.042  0.1118 -0.5781 -0.2141
  411MOL0     C55380   7.543   4.218  11.140  0.2406  0.8718 -0.1275
  411MOL0     O55381   7.407   4.226  11.181 -0.4343  0.5918 -0.1864
  411MOL0     C55382   7.353   4.115  11.234  0.3281  0.3359  0.1635
  411MOL0     C55383   7.392   3.978  11.219  0.0244  0.8096  0.0410
  411MOL0     C55384   7.333   3.873  11.296 -1.0051 -0.3706 -0.1681
  411MOL0     C55385   7.228   3.910  11.384 -0.9951 -0.3199  1.1937
  411MOL0     O55386   7.180   3.802  11.462 -0.4041  0.6373 -0.3307
  411MOL0     C55387   7.114   3.827  11.582 -0.0696 -0.0534  1.2601
  411MOL0     C55388   7.168   3.920  11.695  0.0195 -0.3036 -0.3376
  411MOL0     C55389   7.070   3.983  11.796  0.5934  0.6832  0.3571
  411MOL0     C55390   7.129   4.075  11.899 -0.5623 -0.2431  0.1884
  411MOL0     C55391   7.050   4.133  12.017 -1.2630  0.3671 -0.0472
  411MOL0     C55392   6.997   4.023  12.112  0.1386  0.7032 -0.0011
  411MOL0     C55393   6.918   4.082  12.223  0.7741 -0.4342 -0.6818
  411MOL0     C55394   6.915   4.003  12.357 -0.5234  0.3340  0.7380
  411MOL0    Cl55395   6.775   3.903  12.360  0.1035  0.1227 -0.1343
  411MOL0     C55396   7.180   4.041  11.399  0.1367  0.3220 -0.6436
  411MOL0     C55397   7.251   4.138  11.327 -0.0804 -0.2741  0.2116
  411MOL0     O55398   7.634   4.140  11.177  1.1593  0.0855 -0.1828
  411MOL0     C55399   7.523   4.450  11.075 -0.0827  1.0423 -0.0062
  411MOL0     C55400   7.535   4.565  10.993  0.7543  0.4677  0.8501
  411MOL0     N55401   7.467   4.827  10.162 -0.8677 -0.1828 -0.5044
  411MOL0     N55402   7.401   4.814  10.056 -0.9731 -0.7624  0.2290
  411MOL0     C55403   6.905   5.340   9.241 -1.1114 -0.3802  0.9322
  411MOL0     C55404   6.903   5.438   9.143 -1.1671  0.3492  0.1479
  411MOL0     C55405   6.728   5.667   8.753  0.2940 -0.1376 -0.0323
  411MOL0     C55406   6.765   5.778   8.826  0.2815  0.0612 -0.0225
  411MOL0     C55407   6.754   5.909   8.780 -0.3172  0.1477 -0.4051
  411MOL0     C55408   6.689   5.938   8.657  0.2034 -0.7927 -0.0505
  411MOL0     O55409   6.691   6.065   8.604  0.0111  0.2242 -0.5056
  411MOL0     C55410   6.804   6.149   8.623 -0.5185  1.1217 -0.2877
  411MOL0     C55411   6.831   6.228   8.502  0.2078 -0.5755 -0.1559
  411MOL0     C55412   6.727   6.334   8.464  0.8960  0.6137  0.2546
  411MOL0     C55413   6.778   6.439   8.376 -0.3152 -0.1265  0.8526
  411MOL0     C55414   6.814   6.386   8.239  1.0089 -0.0339  0.4528
  411MOL0     C55415   6.840   6.338   8.130 -0.4742  0.1697  0.1243
  411MOL0     C55416   6.663   5.826   8.575 -1.2210 -0.0598 -0.8359
  411MOL0     C55417   6.684   5.695   8.621 -0.0572  0.5719 -0.4406
  411MOL0     H55418   6.683   5.305   8.922 -0.8152  0.3583 -0.1389
  411MOL0     H55419   6.676   5.139   9.115 -0.4463 -0.6862  3.1254
  411MOL0     H55420   6.644   5.046   9.307  0.4093  1.9677  1.0008
  411MOL0     H55421   6.782   4.951   9.273  0.6247  0.7375  0.0125
  411MOL0     H55422   6.650   5.011   9.545 -1.2010  0.0264  0.7976
  411MOL0     H55423   6.679   4.856   9.455  1.4145 -0.2697  0.6480
  411MOL0     H55424   6.920   4.859   9.490  0.2897  1.7653  0.8010
  411MOL0     H55425   6.904   5.008   9.577 -3.4352  3.3264 -0.0531
  411MOL0     H55426   6.738   4.892   9.742  0.1439  0.6465  2.1522
  411MOL0     H55427   6.784   4.749   9.652  0.2883  0.7135 -1.9695
  411MOL0     H55428   7.021   4.779   9.713  2.1844  1.7984  0.6554
  411MOL0     H55429   6.977   4.947   9.781  1.2478 -1.7137  2.7643
  411MOL0     H55430   6.873   4.862   9.983  2.4777  2.0268  1.4231
  411MOL0     H55431   6.857   4.704   9.918  1.1856 -1.1224  0.5851
  411MOL0     H55432   7.025   4.733  10.105 -3.2154  3.2844  0.5295
  411MOL0     H55433   7.079   4.645   9.955  1.8619  0.0292  0.8835
  411MOL0     H55434   7.126   4.941  10.008 -3.6022 -0.2874 -0.8982
  411MOL0     H55435   7.194   4.841   9.881 -2.4466  1.4014  0.3263
  411MOL0     H55436   7.168   4.794  10.272  2.0330  1.3988  4.2898
  411MOL0     H55437   7.508   4.948  10.413 -1.3607  2.0940 -1.3928
  411MOL0     H55438   7.340   4.918  10.454 -0.8648  0.4306 -3.8101
  411MOL0     H55439   7.550   4.699  10.416  1.2217  0.3601  1.1627
  411MOL0     H55440   7.390   4.683  10.468  1.7115 -2.4528  0.0128
  411MOL0     H55441   7.430   4.789  10.671  0.4665  1.9554 -1.6825
  411MOL0     H55442   7.584   4.856  10.630  0.8221 -1.1021  3.2630
  411MOL0     H55443   7.697   4.646  10.615  0.0665 -0.3591  0.3138
  411MOL0     H55444   7.546   4.555  10.639 -0.1496  0.2237  0.5621
  411MOL0     H55445   7.752   4.419  10.770 -0.5738  0.2756 -1.3255
  411MOL0     H55446   7.804   4.177  10.973  0.6637 -0.6244 -0.9235
  411MOL0     H55447   7.661   4.111  10.899 -3.0884  2.6681  1.5744
  411MOL0     H55448   7.786   4.201  10.801 -1.0696  3.0708 -0.2054
  411MOL0     H55449   7.468   3.957  11.144  0.6960  0.5768  0.7708
  411MOL0     H55450   7.361   3.768  11.288 -1.7480 -0.6483  0.6784
  411MOL0     H55451   7.014   3.864  11.557  0.1135  0.5537  1.4170
  411MOL0     H55452   7.085   3.727  11.617 -4.3371 -0.0756 -1.6577
  411MOL0     H55453   7.244   3.867  11.754  1.0616  2.0564  0.5753
  411MOL0     H55454   7.228   4.002  11.654 -1.3635  1.0103  0.1838
  411MOL0     H55455   7.015   3.906  11.851  1.2673 -1.0671 -1.2998
  411MOL0     H55456   6.994   4.044  11.746 -3.2191 -0.4236  4.1652
  411MOL0     H55457   7.221   4.033  11.940 -1.8852 -2.9737  0.6014
  411MOL0     H55458   7.161   4.168  11.852 -1.1324  0.3904  1.0332
  411MOL0     H55459   6.962   4.182  11.973  1.2345  3.4616 -1.9939
  411MOL0     H55460   7.093   4.214  12.077 -1.3661  0.4270 -0.0543
  411MOL0     H55461   6.928   3.954  12.063  2.0060 -1.8205  0.7060
  411MOL0     H55462   7.078   3.969  12.162  1.3107  3.1651  0.9725
  411MOL0     H55463   6.819   4.125  12.207  0.5116 -1.0913 -0.8488
  411MOL0     H55464   6.977   4.169  12.254 -0.2663 -0.2621  0.9481
  411MOL0     H55465   6.911   4.071  12.443 -0.6723  2.6182 -0.9876
  411MOL0     H55466   7.011   3.957  12.381 -0.5440  0.3730  0.8968
  411MOL0     H55467   7.101   4.078  11.465  1.3325 -1.1319  1.7514
  411MOL0     H55468   7.215   4.240  11.339  1.0938  0.0485  1.2617
  411MOL0     H55469   7.466   4.457  11.167  2.4620  3.1124  1.5501
  411MOL0     H55470   7.494   4.655  11.037 -0.0870  1.1144 -1.1480
  411MOL0     H55471   6.971   5.361   9.324 -0.3991 -1.2202  0.5954
  411MOL0     H55472   6.964   5.528   9.147  0.5971 -0.6857 -1.4558
  411MOL0     H55473   6.798   5.769   8.929 -1.9227 -2.4091  0.5418
  411MOL0     H55474   6.794   5.993   8.835  0.9562 -0.8886  0.2872
  411MOL0     H55475   6.796   6.221   8.705  1.2052  1.7154 -0.6040
  411MOL0     H55476   6.891   6.088   8.648 -0.0812  2.4239  1.6496
  411MOL0     H55477   6.839   6.165   8.414 -1.7633  0.8098 -1.4118
  411MOL0     H55478   6.922   6.282   8.530 -0.8621  0.4207  1.6246
  411MOL0     H55479   6.694   6.380   8.557  0.3507  0.4367  0.1526
  411MOL0     H55480   6.652   6.268   8.419  1.7273 -0.5803  0.5647
  411MOL0     H55481   6.851   6.505   8.423  1.6145 -1.4799 -0.0901
  411MOL0     H55482   6.690   6.501   8.356  1.0127  1.5345 -0.0232
  411MOL0     H55483   6.834   6.287   8.037  1.6004  1.3061 -0.6994
  411MOL0     H55484   6.631   5.841   8.473  4.8266  0.1505 -3.1189
  411MOL0     H55485   6.658   5.617   8.551 -1.3168  1.1661 -0.6534
  412MOL0     O55486   5.897  10.702   3.190  0.1675 -0.1637 -0.0714
  412MOL0     C55487   5.817  10.798   3.210  0.2251 -0.0762 -0.1439
  412MOL0     O55488   5.848  10.908   3.275  1.0244  0.4986  0.4556
  412MOL0     C55489   5.960  10.928   3.346 -0.5475  0.3545  1.7095
  412MOL0     C55490   5.956  10.955   3.480  0.3408  0.0190  0.4127
  412MOL0     C55491   6.079  10.967   3.551 -0.3185  0.3539  0.1535
  412MOL0     C55492   6.208  10.945   3.493 -0.2710  0.0381 -0.4178
  412MOL0     O55493   6.322  10.970   3.556 -0.1793  0.4574 -0.1292
  412MOL0     C55494   6.377  10.848   3.597  0.1301  0.3242 -0.6308
  412MOL0     C55495   6.497  10.884   3.703  0.3054  0.5274  1.1328
  412MOL0     C55496   6.593  10.954   3.613  0.4772  0.4003 -0.5983
  412MOL0     C55497   6.722  10.995   3.678 -0.2218 -0.2074 -0.4635
  412MOL0     C55498   6.807  11.094   3.593 -0.7529  1.0259 -0.8402
  412MOL0     C55499   6.842  11.041   3.452 -0.3161 -0.7363 -0.2187
  412MOL0     C55500   6.967  11.113   3.369  1.4678 -0.0647 -1.9121
  412MOL0     C55501   7.102  11.128   3.448  0.3335 -0.3788  0.4470
  412MOL0     N55502   7.140  11.017   3.528  0.3335 -0.3645 -0.2767
  412MOL0     C55503   7.128  11.014   3.666 -0.2263 -0.1200  0.7099
  412MOL0     C55504   7.177  10.891   3.698 -0.7334  0.2382  0.6845
  412MOL0     C55505   7.225  10.838   3.836 -0.8611 -0.7462 -0.1368
  412MOL0     C55506   7.379  10.814   3.834 -0.0775  0.1203  0.1055
  412MOL0     C55507   7.463  10.932   3.775 -0.0837 -0.7541 -0.1619
  412MOL0     C55508   7.607  10.943   3.827  0.2823  0.7254 -0.8232
  412MOL0     O55509   7.614  11.006   3.961 -0.0912  0.2156  1.0961
  412MOL0     C55510   7.543  11.128   3.998 -0.8726  0.3263 -0.4121
  412MOL0     C55511   7.495  11.123   4.129 -0.1499  0.0905  0.3769
  412MOL0     C55512   7.414  11.230   4.178 -0.3054  0.5404 -1.3293
  412MOL0     C55513   7.340  11.210   4.313 -0.2979 -0.1014 -0.2811
  412MOL0     C55514   7.414  11.355   4.106 -0.7825 -0.0075  0.4776
  412MOL0     C55515   7.369  11.480   4.170 -0.1620 -1.1450 -1.2346
  412MOL0     O55516   7.371  11.590   4.080  0.3728  0.4940 -0.9182
  412MOL0     C55517   7.353  11.720   4.127  0.6485  0.7906 -0.4432
  412MOL0     C55518   7.290  11.800   4.037 -1.5697 -0.0749  0.2871
  412MOL0     C55519   7.276  11.937   4.074  0.5859  0.0797  0.9952
  412MOL0     C55520   7.336  11.996   4.186 -0.6288  0.0401 -0.3820
  412MOL0     O55521   7.319  12.135   4.206  0.5427  0.2928  0.2927
  412MOL0     C55522   7.292  12.187   4.335  1.0281 -0.1893 -0.6720
  412MOL0     C55523   7.255  12.331   4.323  0.1335  0.5653  0.6065
  412MOL0     C55524   7.379  12.416   4.292 -0.7673 -0.6630  0.5416
  412MOL0     C55525   7.356  12.566   4.294 -1.2617 -0.9190 -0.2069
  412MOL0     C55526   7.481  12.660   4.269  0.8687  0.8807 -0.8639
  412MOL0     C55527   7.553  12.612   4.140 -0.1342  0.4036  0.7199
  412MOL0     C55528   7.678  12.695   4.103 -0.7239  0.3842 -0.4813
  412MOL0     C55529   7.767  12.636   3.997  1.2674  0.5543  0.2471
  412MOL0    Cl55530   7.831  12.481   4.048 -0.5021  0.0512  0.3241
  412MOL0     C55531   7.401  11.909   4.273  0.1383 -0.0857 -0.6978
  412MOL0     C55532   7.413  11.776   4.239 -0.9160  0.8695  0.2994
  412MOL0     O55533   7.334  11.485   4.289  0.0801 -0.0135  0.0567
  412MOL0     C55534   7.467  11.357   3.976 -0.0883  0.3017 -0.2049
  412MOL0     C55535   7.531  11.245   3.925 -0.4200  0.0117  0.7992
  412MOL0     N55536   7.209  10.822   3.578  0.3983  1.1118  1.2067
  412MOL0     N55537   7.166  10.891   3.477  0.0920  0.0196  0.0836
  412MOL0     C55538   6.205  10.921   3.354 -0.3529 -0.4601  0.7666
  412MOL0     C55539   6.086  10.917   3.280 -0.2748  0.2724  0.1124
  412MOL0     C55540   5.677  10.795   3.135 -0.0682 -0.3318 -0.1738
  412MOL0     C55541   5.584  10.897   3.150  0.0942  0.0835  0.8989
  412MOL0     C55542   5.452  10.886   3.093 -0.4894  0.6293 -0.6324
  412MOL0     C55543   5.424  10.778   3.002  0.1640  0.6483  0.0785
  412MOL0     O55544   5.302  10.788   2.932 -1.0185 -0.2495 -0.7338
  412MOL0     C55545   5.254  10.667   2.871 -0.9727 -0.4422 -0.1600
  412MOL0     C55546   5.116  10.701   2.797 -0.5639 -0.7709  0.3396
  412MOL0     C55547   5.117  10.840   2.715 -0.0423 -0.4671 -1.4168
  412MOL0     C55548   5.247  10.858   2.648 -0.2895 -0.8418  1.4444
  412MOL0     C55549   5.252  10.940   2.532 -0.1477  0.6557  0.7061
  412MOL0     C55550   5.276  11.005   2.438 -0.3916 -1.2416 -0.0460
  412MOL0     C55551   5.520  10.671   2.985 -0.3739 -0.5340  0.0648
  412MOL0     C55552   5.641  10.678   3.055  0.1064 -0.4354 -1.5704
  412MOL0     H55553   5.861  10.971   3.531  0.1457  3.8050 -0.7870
  412MOL0     H55554   6.095  10.988   3.657  1.1583 -2.7595  0.6852
  412MOL0     H55555   6.304  10.796   3.660  1.7969 -1.6878 -0.2238
  412MOL0     H55556   6.405  10.789   3.509 -2.0941  0.3151 -1.4063
  412MOL0     H55557   6.468  10.944   3.791 -0.8180  1.2447  0.2977
  412MOL0     H55558   6.531  10.787   3.740  1.0163 -0.5334 -2.0124
  412MOL0     H55559   6.615  10.886   3.530  1.0932 -1.0788  0.7150
  412MOL0     H55560   6.544  11.043   3.572 -0.5593  0.3967  0.5747
  412MOL0     H55561   6.699  11.045   3.772 -0.5993 -0.8643 -0.2053
  412MOL0     H55562   6.787  10.908   3.692  2.0786  1.5743  0.6411
  412MOL0     H55563   6.751  11.189   3.597  0.1093  1.5128  0.1587
  412MOL0     H55564   6.903  11.114   3.642 -1.5503  0.5475  0.9876
  412MOL0     H55565   6.871  10.936   3.457  2.7984  0.0400  0.3544
  412MOL0     H55566   6.749  11.052   3.397  0.8800  1.9396 -1.9063
  412MOL0     H55567   6.979  11.052   3.279 -1.0851  0.2321 -2.5242
  412MOL0     H55568   6.919  11.200   3.324 -3.1691 -2.8955 -3.1594
  412MOL0     H55569   7.084  11.217   3.509  0.1722  0.5419 -0.8893
  412MOL0     H55570   7.178  11.143   3.370  0.0169 -1.2556 -0.0402
  412MOL0     H55571   7.106  11.096   3.733  0.4319 -0.7405  1.7272
  412MOL0     H55572   7.217  10.918   3.910  0.1621 -0.6865 -0.0793
  412MOL0     H55573   7.167  10.758   3.883  1.3101 -2.2436  0.1238
  412MOL0     H55574   7.395  10.722   3.776  0.5022 -0.3834  1.0351
  412MOL0     H55575   7.428  10.799   3.931  1.2726 -1.2863 -0.7474
  412MOL0     H55576   7.418  11.028   3.801 -0.3144 -1.5235  2.6303
  412MOL0     H55577   7.477  10.925   3.666  1.6477  1.2740 -0.1241
  412MOL0     H55578   7.667  10.998   3.755 -0.2573  0.5473 -1.4219
  412MOL0     H55579   7.640  10.839   3.828 -1.9861 -0.0830 -1.7235
  412MOL0     H55580   7.535  11.046   4.195 -1.0741  0.6722  1.6654
  412MOL0     H55581   7.305  11.108   4.332  4.5855 -1.3757  3.8393
  412MOL0     H55582   7.410  11.235   4.393 -1.0506  1.9249 -0.2136
  412MOL0     H55583   7.252  11.270   4.338  0.3238  0.0761  1.6185
  412MOL0     H55584   7.255  11.764   3.941 -1.0528 -1.2832  0.5329
  412MOL0     H55585   7.217  12.006   4.015  2.3718 -0.3956 -1.5361
  412MOL0     H55586   7.214  12.133   4.389  0.6042  1.4755  0.4531
  412MOL0     H55587   7.380  12.173   4.398  1.1462 -2.6844 -1.2614
  412MOL0     H55588   7.182  12.340   4.242 -0.7259 -3.2357  0.7985
  412MOL0     H55589   7.204  12.366   4.414 -3.2125 -2.0152 -0.0794
  412MOL0     H55590   7.414  12.392   4.191  0.4836  0.6584  0.6214
  412MOL0     H55591   7.460  12.392   4.362  2.0684  0.7663 -1.9943
  412MOL0     H55592   7.294  12.602   4.211 -0.9830  0.6794  0.2358
  412MOL0     H55593   7.311  12.607   4.385 -1.8712 -1.0227 -0.4509
  412MOL0     H55594   7.551  12.657   4.353 -0.1362  0.6577 -0.0159
  412MOL0     H55595   7.459  12.765   4.248 -0.5294  1.0228  1.0012
  412MOL0     H55596   7.581  12.508   4.158  1.5431  0.9692  1.6229
  412MOL0     H55597   7.488  12.611   4.052  3.5789 -2.4202 -2.3236
  412MOL0     H55598   7.740  12.715   4.191 -1.3444  0.1711  0.0104
  412MOL0     H55599   7.650  12.797   4.075 -1.4115  0.4265  0.3439
  412MOL0     H55600   7.833  12.714   3.958 -1.3799  2.4374 -0.7279
  412MOL0     H55601   7.709  12.598   3.912  3.3350  0.0814 -1.0399
  412MOL0     H55602   7.451  11.943   4.364 -0.4883  0.7945 -0.6678
  412MOL0     H55603   7.454  11.702   4.308 -1.8366 -0.0938 -0.1493
  412MOL0     H55604   7.456  11.447   3.916  1.0430  0.7657  0.2486
  412MOL0     H55605   7.568  11.247   3.824 -3.2327  0.1228 -0.3322
  412MOL0     H55606   6.300  10.905   3.305  0.6364  2.9135  1.3650
  412MOL0     H55607   6.085  10.892   3.175 -4.5711 -1.4452  0.3298
  412MOL0     H55608   5.606  10.986   3.208  0.9978  0.6216 -0.2410
  412MOL0     H55609   5.377  10.965   3.095 -0.6406  0.6252 -2.8643
  412MOL0     H55610   5.321  10.622   2.797  0.8439  0.5462  0.8089
  412MOL0     H55611   5.232  10.593   2.948 -2.6802  0.5104  0.3317
  412MOL0     H55612   5.033  10.707   2.868 -3.3049  0.6114 -2.6903
  412MOL0     H55613   5.083  10.625   2.726 -2.7318 -2.5917  3.0919
  412MOL0     H55614   5.092  10.931   2.770  0.9310  0.5130 -2.5650
  412MOL0     H55615   5.038  10.818   2.644  0.5922 -0.9887 -1.9738
  412MOL0     H55616   5.280  10.764   2.604  0.0714 -1.3203  2.6812
  412MOL0     H55617   5.321  10.891   2.722  0.1272 -0.3918  0.8287
  412MOL0     H55618   5.292  11.079   2.362  0.6696 -1.2023  0.1926
  412MOL0     H55619   5.496  10.587   2.920  1.6672 -0.8234 -0.3917
  412MOL0     H55620   5.710  10.594   3.054 -0.3673 -0.8463 -3.7544
  413MOL0     O55621   3.373  11.332  10.629 -0.2046  0.0548 -0.4794
  413MOL0     C55622   3.273  11.307  10.693  0.0288  0.9013 -0.5890
  413MOL0     O55623   3.218  11.180  10.723  0.2028 -0.3345 -0.2286
  413MOL0     C55624   3.278  11.069  10.662  0.6036 -0.0625  0.6295
  413MOL0     C55625   3.359  10.996  10.744 -0.0836  1.0572  0.3197
  413MOL0     C55626   3.439  10.901  10.682 -0.8731 -0.3636 -1.2112
  413MOL0     C55627   3.428  10.860  10.555 -0.5569 -0.0752  0.4710
  413MOL0     O55628   3.509  10.755  10.502 -0.9069 -0.7501 -0.9758
  413MOL0     C55629   3.478  10.708  10.373 -0.4461 -0.0226 -0.3029
  413MOL0     C55630   3.340  10.647  10.364  0.5179  0.1889  1.2685
  413MOL0     C55631   3.290  10.626  10.214  0.1544 -0.2835 -0.5671
  413MOL0     C55632   3.170  10.528  10.229 -0.5199 -0.1120  0.5535
  413MOL0     C55633   3.050  10.564  10.137  0.2245 -0.9050  0.2382
  413MOL0     C55634   3.093  10.563   9.986 -0.2058 -0.3727 -0.5796
  413MOL0     C55635   3.084  10.420   9.923  0.4724  0.1224 -0.3118
  413MOL0     C55636   3.125  10.426   9.772 -0.2110 -0.1767 -0.3723
  413MOL0     N55637   3.153  10.286   9.715 -0.2255  0.1357  0.2361
  413MOL0     C55638   3.062  10.184   9.724  0.3924 -0.7596 -0.2884
  413MOL0     C55639   3.095  10.104   9.618  1.2610 -0.0638  0.5463
  413MOL0     C55640   3.032   9.974   9.582 -0.9895 -0.4909  0.0965
  413MOL0     C55641   3.035   9.945   9.424  0.1652  0.5362 -1.3992
  413MOL0     C55642   2.963   9.816   9.370  0.3900  0.5011  0.4075
  413MOL0     C55643   3.044   9.770   9.247  0.2858  0.2496  0.6572
  413MOL0     O55644   3.177   9.718   9.275  0.3593  0.0129  0.3364
  413MOL0     C55645   3.263   9.731   9.167 -0.2261 -0.2801  0.2880
  413MOL0     C55646   3.402   9.719   9.174 -0.1108 -0.3782 -0.3103
  413MOL0     C55647   3.489   9.719   9.065 -0.0088  0.2082  0.2902
  413MOL0     C55648   3.639   9.685   9.082  1.3836  0.2194 -0.0229
  413MOL0     C55649   3.447   9.752   8.931 -0.1438 -0.6241  0.2470
  413MOL0     C55650   3.538   9.775   8.817  0.5605  0.5013  0.4393
  413MOL0     O55651   3.647   9.846   8.853 -0.0299 -0.3779  0.2977
  413MOL0     C55652   3.740   9.879   8.760 -0.1698 -0.1956  0.7049
  413MOL0     C55653   3.770   9.830   8.629  0.0959 -0.1866  1.1423
  413MOL0     C55654   3.877   9.882   8.547  0.7179 -0.4494  0.5755
  413MOL0     C55655   3.961   9.979   8.595 -0.6061 -0.1744  0.2293
  413MOL0     O55656   4.074  10.022   8.527 -0.6424  0.0853 -0.1464
  413MOL0     C55657   4.048  10.040   8.381  0.4321 -0.2485  0.2589
  413MOL0     C55658   4.149  10.143   8.317  0.3653  0.2336  0.3161
  413MOL0     C55659   4.162  10.285   8.391 -0.0269 -0.0919 -0.1145
  413MOL0     C55660   4.023  10.357   8.402  0.8098 -0.0146  0.8178
  413MOL0     C55661   4.014  10.485   8.500 -0.5513 -0.4633  0.1125
  413MOL0     C55662   3.899  10.578   8.465 -0.5124 -0.4420  0.1886
  413MOL0     C55663   3.869  10.679   8.578 -0.0617  0.4338  1.1605
  413MOL0     C55664   3.753  10.768   8.536 -0.3802 -0.1642 -0.3093
  413MOL0    Cl55665   3.820  10.912   8.437  0.4977  0.6365 -0.6135
  413MOL0     C55666   3.937  10.028   8.719 -0.0559 -0.9789  0.4584
  413MOL0     C55667   3.833   9.980   8.796  0.0241 -0.9340  0.7546
  413MOL0     O55668   3.492   9.750   8.702  0.0474  0.6251  0.5778
  413MOL0     C55669   3.307   9.776   8.929 -0.1486 -0.3419  0.4971
  413MOL0     C55670   3.223   9.758   9.035 -0.4878  1.4035  0.9068
  413MOL0     N55671   3.212  10.149   9.563 -0.5014 -0.2826 -0.7323
  413MOL0     N55672   3.245  10.258   9.622 -0.5051 -0.1616  1.0253
  413MOL0     C55673   3.352  10.949  10.472 -1.0702 -0.2535 -0.6954
  413MOL0     C55674   3.274  11.052  10.526  0.0731 -0.1416  0.3841
  413MOL0     C55675   3.196  11.432  10.722  0.2774 -0.0940 -0.3052
  413MOL0     C55676   3.062  11.422  10.768  0.2337  0.4399  0.8126
  413MOL0     C55677   2.982  11.537  10.780  0.3958  0.1119  1.1526
  413MOL0     C55678   3.022  11.667  10.748  0.3445 -0.5356  0.4529
  413MOL0     O55679   2.933  11.770  10.742 -1.2695  0.0584 -0.6888
  413MOL0     C55680   2.985  11.906  10.744 -0.1965 -1.4324  0.9765
  413MOL0     C55681   3.056  11.948  10.873 -0.5108  0.9570 -0.2499
  413MOL0     C55682   2.975  11.916  11.000 -0.7129  0.3723  0.1557
  413MOL0     C55683   3.025  11.991  11.133  0.5129  0.7474 -0.5911
  413MOL0     C55684   3.051  12.136  11.126 -0.5556  0.4826 -1.5504
  413MOL0     C55685   3.075  12.245  11.103  0.4848 -0.4024 -0.5401
  413MOL0     C55686   3.164  11.674  10.723 -0.3522 -0.3492  0.4749
  413MOL0     C55687   3.238  11.564  10.704 -0.3076 -0.5503 -0.5498
  413MOL0     H55688   3.359  11.001  10.852 -4.9637  1.9057  0.5014
  413MOL0     H55689   3.520  10.845  10.730  0.8454  0.6338 -2.8093
  413MOL0     H55690   3.494  10.786  10.298 -0.5870 -0.5705 -0.9157
  413MOL0     H55691   3.552  10.637  10.334 -0.7124 -0.5779  0.2020
  413MOL0     H55692   3.339  10.547  10.409  0.1852 -0.1537  0.5275
  413MOL0     H55693   3.263  10.705  10.415 -3.2003 -2.5603 -0.7436
  413MOL0     H55694   3.262  10.720  10.165  1.1551  0.9629  1.1627
  413MOL0     H55695   3.374  10.579  10.163 -0.6631  0.2033 -2.4585
  413MOL0     H55696   3.205  10.426  10.209 -2.1019 -0.6627  0.3908
  413MOL0     H55697   3.136  10.532  10.333  2.0656 -3.2071  1.7041
  413MOL0     H55698   2.977  10.483  10.142  0.2943 -0.9944 -0.2072
  413MOL0     H55699   3.007  10.658  10.173  0.1272 -0.9646  0.2788
  413MOL0     H55700   3.036  10.629   9.920 -1.0472 -0.6964 -0.1856
  413MOL0     H55701   3.196  10.594   9.968  0.3690 -2.7435 -1.9148
  413MOL0     H55702   3.150  10.357   9.984 -2.1431 -0.7105  1.8670
  413MOL0     H55703   2.982  10.382   9.932 -0.0835  1.4937 -0.5941
  413MOL0     H55704   3.205  10.496   9.746 -0.3964 -0.0007 -0.4646
  413MOL0     H55705   3.044  10.471   9.713  0.5147  2.5556  0.5617
  413MOL0     H55706   2.976  10.174   9.788  0.9240  4.2495  1.6839
  413MOL0     H55707   3.095   9.901   9.634  0.0303  2.0033  2.6387
  413MOL0     H55708   2.930   9.949   9.612  0.1896 -4.1586  1.6375
  413MOL0     H55709   3.144   9.940   9.416  0.5272 -0.3699  2.2256
  413MOL0     H55710   2.987  10.035   9.384 -5.5405  0.2661  3.4118
  413MOL0     H55711   2.862   9.834   9.331  0.1147 -0.5460  0.5992
  413MOL0     H55712   2.955   9.728   9.436  1.5547 -0.3307 -0.5320
  413MOL0     H55713   3.053   9.866   9.196  0.2641 -0.2823 -0.3670
  413MOL0     H55714   2.986   9.700   9.186  0.5294 -0.6324  1.4216
  413MOL0     H55715   3.428   9.705   9.278 -4.0386  0.4224  0.9639
  413MOL0     H55716   3.647   9.598   9.148  1.1898 -1.5344 -2.2189
  413MOL0     H55717   3.669   9.636   8.989 -1.2819  2.9572 -2.5343
  413MOL0     H55718   3.696   9.772   9.116  1.1552 -0.4769  2.3396
  413MOL0     H55719   3.694   9.768   8.582  1.4753  0.8385 -2.8250
  413MOL0     H55720   3.896   9.837   8.450 -1.0911  4.0660 -2.1608
  413MOL0     H55721   4.065   9.941   8.337 -1.0965 -0.2928 -0.2850
  413MOL0     H55722   3.944  10.061   8.354  0.3228  2.1075  2.1937
  413MOL0     H55723   4.250  10.100   8.311  0.9075  1.6420 -2.1071
  413MOL0     H55724   4.122  10.163   8.213  0.3412 -0.1674  0.2435
  413MOL0     H55725   4.233  10.336   8.327  0.0877  0.2950  0.3139
  413MOL0     H55726   4.208  10.296   8.490 -1.3890  5.1247  0.2345
  413MOL0     H55727   4.003  10.389   8.300 -2.2087 -1.1461  0.9488
  413MOL0     H55728   3.940  10.289   8.424 -1.7935  3.1639  1.6502
  413MOL0     H55729   4.112  10.532   8.506 -1.2588  0.9946  0.7239
  413MOL0     H55730   4.005  10.436   8.597  0.6434 -3.7127 -1.2802
  413MOL0     H55731   3.918  10.644   8.379  0.1863 -1.1389 -0.2063
  413MOL0     H55732   3.807  10.523   8.444 -0.3392  0.2895 -3.1786
  413MOL0     H55733   3.952  10.750   8.591 -1.8050  3.7337 -3.2342
  413MOL0     H55734   3.843  10.634   8.674  1.9020 -0.3412  1.3839
  413MOL0     H55735   3.692  10.798   8.622  1.1157  0.3927  0.5824
  413MOL0     H55736   3.695  10.719   8.457 -2.1887  0.9036  0.2861
  413MOL0     H55737   4.002  10.106   8.757  0.3325 -0.5132 -1.0908
  413MOL0     H55738   3.818  10.013   8.899 -0.1240 -0.6978  0.6581
  413MOL0     H55739   3.256   9.795   8.836  0.1607 -1.6210  0.0470
  413MOL0     H55740   3.121   9.750   8.998  0.3965 -0.7633 -1.3931
  413MOL0     H55741   3.353  10.946  10.363 -2.4018  4.4516 -1.0366
  413MOL0     H55742   3.227  11.131  10.468 -0.8010 -2.0620 -1.6895
  413MOL0     H55743   3.021  11.324  10.791 -1.7029  1.2679  1.0775
  413MOL0     H55744   2.875  11.532  10.794 -0.3113  1.5951 -2.5800
  413MOL0     H55745   3.050  11.918  10.657  1.5317  0.6149  2.4358
  413MOL0     H55746   2.908  11.981  10.722  3.1186  1.8824 -0.4235
  413MOL0     H55747   3.069  12.057  10.880 -0.3167  0.8601  1.1846
  413MOL0     H55748   3.157  11.908  10.877 -0.7477  0.0788 -2.0589
  413MOL0     H55749   2.973  11.807  11.012  0.2994  0.3882  0.5336
  413MOL0     H55750   2.881  11.959  10.964  0.6676  1.4056 -2.4705
  413MOL0     H55751   3.114  11.947  11.179  1.6326  3.8025  0.4048
  413MOL0     H55752   2.954  11.975  11.215  0.9645  4.4932  0.7394
  413MOL0     H55753   3.099  12.348  11.089  0.2526 -0.2638  0.0216
  413MOL0     H55754   3.207  11.771  10.704 -0.5433 -0.4563 -0.5285
  413MOL0     H55755   3.341  11.585  10.678 -1.0570  3.7197 -0.7202
  414MOL0     O55756   0.911  11.326   3.603 -0.7719  0.4467  0.6675
  414MOL0     C55757   0.868  11.338   3.716 -0.4432 -0.1676  0.0596
  414MOL0     O55758   0.784  11.252   3.791  0.0916  0.6197  0.6629
  414MOL0     C55759   0.769  11.121   3.737 -0.1685  0.3178  0.3508
  414MOL0     C55760   0.795  11.002   3.814  0.4133 -0.4048  0.0317
  414MOL0     C55761   0.787  10.878   3.763  0.4243  0.2979  0.8929
  414MOL0     C55762   0.743  10.858   3.623 -0.0984 -0.1234 -0.1991
  414MOL0     O55763   0.752  10.730   3.564 -0.1752 -0.8291  0.0674
  414MOL0     C55764   0.791  10.618   3.642  0.4922  0.1606  0.6410
  414MOL0     C55765   0.669  10.566   3.717 -0.2503  0.0793  0.0008
  414MOL0     C55766   0.537  10.555   3.629 -0.1801 -0.4833  1.0062
  414MOL0     C55767   0.414  10.514   3.709  1.0191  0.3785  0.4830
  414MOL0     C55768   0.277  10.528   3.623  0.4432  0.0223  0.0071
  414MOL0     C55769   0.154  10.486   3.680 -0.2036 -0.4447 -0.7562
  414MOL0     C55770   0.126  10.534   3.826  0.9710 -0.9710  0.3102
  414MOL0     C55771   0.058  10.673   3.847 -0.3493  0.1924  0.7956
  414MOL0     N55772   0.159  10.778   3.805 -0.1669  0.4218 -0.4900
  414MOL0     C55773   0.262  10.816   3.878  0.1158 -0.0358  0.2914
  414MOL0     C55774   0.319  10.914   3.808 -0.5521 -0.0087 -0.2236
  414MOL0     C55775   0.442  10.987   3.848  0.7056 -0.2490  0.1483
  414MOL0     C55776   0.387  11.102   3.941 -0.4990  0.4633  0.0701
  414MOL0     C55777   0.512  11.173   3.992  0.2768  0.4581  0.0047
  414MOL0     C55778   0.473  11.296   4.078 -0.4569  0.4264 -0.1956
  414MOL0     O55779   0.395  11.273   4.197  0.6650  0.9253  0.1952
  414MOL0     C55780   0.360  11.385   4.273  0.8944  0.2022 -1.4003
  414MOL0     C55781   0.353  11.363   4.406 -0.7264 -0.4007 -0.2053
  414MOL0     C55782   0.347  11.461   4.500  1.1989 -0.9413 -0.7741
  414MOL0     C55783   0.331  11.419   4.650 -0.0960  0.3660  0.2909
  414MOL0     C55784   0.343  11.598   4.449 -0.2286  0.1146  0.1624
  414MOL0     C55785   0.346  11.727   4.532 -0.4041  0.8273  0.3506
  414MOL0     O55786   0.353  11.842   4.471 -0.7459 -0.4753 -0.4065
  414MOL0     C55787   0.406  11.956   4.525  0.5820 -0.2527 -0.2787
  414MOL0     C55788   0.452  11.972   4.658  0.2848 -0.4130  0.5805
  414MOL0     C55789   0.515  12.095   4.691  1.1268  0.2311 -0.2785
  414MOL0     C55790   0.519  12.196   4.595  0.2841 -1.2336 -0.4489
  414MOL0     O55791   0.584  12.314   4.643  0.9149  0.4255  0.5707
  414MOL0     C55792   0.703  12.352   4.562  0.0993  0.0240 -0.3631
  414MOL0     C55793   0.808  12.237   4.559 -0.1845  0.5485  0.5852
  414MOL0     C55794   0.934  12.287   4.480  0.1938  0.2191  0.2100
  414MOL0     C55795   1.015  12.180   4.404 -0.7861 -0.0495  0.7355
  414MOL0     C55796   1.118  12.242   4.313 -0.4614 -1.2882 -0.5637
  414MOL0     C55797   1.172  12.132   4.222 -0.5443 -0.1124  0.2931
  414MOL0     C55798   1.279  12.188   4.120 -0.1800  0.2876  0.3921
  414MOL0     C55799   1.372  12.311   4.156  0.5235  0.2340 -0.2202
  414MOL0    Cl55800   1.467  12.352   4.014  0.2197 -0.4682 -0.2497
  414MOL0     C55801   0.476  12.184   4.465  0.5796  0.0585  0.7005
  414MOL0     C55802   0.420  12.062   4.431  0.2519 -1.3441 -0.1437
  414MOL0     O55803   0.320  11.713   4.655  0.0905  0.2051 -0.4561
  414MOL0     C55804   0.307  11.616   4.312 -0.2845  0.4929  1.0214
  414MOL0     C55805   0.319  11.506   4.222  0.4458  1.0063  0.1757
  414MOL0     N55806   0.246  10.935   3.687  0.0444  0.3743 -0.4229
  414MOL0     N55807   0.151  10.853   3.689 -0.3726  0.3551  0.1952
  414MOL0     C55808   0.734  10.971   3.548  0.8346  0.0698  0.6219
  414MOL0     C55809   0.749  11.097   3.599 -0.2201  0.9347  0.7942
  414MOL0     C55810   0.866  11.486   3.758 -0.9104  0.4438  0.6813
  414MOL0     C55811   0.910  11.604   3.679  0.1972  1.0066  0.7755
  414MOL0     C55812   0.899  11.728   3.731 -0.5436 -0.4485  0.9235
  414MOL0     C55813   0.851  11.757   3.854 -0.3117  0.8036  0.1896
  414MOL0     O55814   0.847  11.876   3.916 -0.8879 -0.3351  0.1848
  414MOL0     C55815   0.878  11.987   3.850  0.2986  0.5145  0.6685
  414MOL0     C55816   0.761  12.028   3.746 -0.3180 -0.7481 -0.2031
  414MOL0     C55817   0.821  12.073   3.612  0.7849  0.6619  0.6637
  414MOL0     C55818   0.710  12.124   3.520  0.3950  0.0152 -0.1581
  414MOL0     C55819   0.658  12.263   3.540  0.2737 -0.4325  0.2859
  414MOL0     C55820   0.617  12.375   3.555 -0.3457  0.3061  1.1098
  414MOL0     C55821   0.812  11.640   3.923  0.4131  0.3727  0.3229
  414MOL0     C55822   0.825  11.506   3.888 -0.1367  0.8514 -0.1381
  414MOL0     H55823   0.828  11.022   3.915  0.3801  0.2464 -0.0798
  414MOL0     H55824   0.816  10.792   3.822 -1.0941 -2.0640 -1.5260
  414MOL0     H55825   0.814  10.549   3.560 -2.7699  0.2352 -0.4812
  414MOL0     H55826   0.887  10.620   3.694  0.8916 -1.1134 -0.0008
  414MOL0     H55827   0.692  10.469   3.761 -0.8599  0.9188  2.2945
  414MOL0     H55828   0.649  10.632   3.802  0.5061 -1.4859  1.4354
  414MOL0     H55829   0.505  10.650   3.586  0.0084 -0.8358  0.0794
  414MOL0     H55830   0.567  10.494   3.544 -2.0716 -0.1916  0.0647
  414MOL0     H55831   0.423  10.410   3.741  4.5062  0.9218  1.6608
  414MOL0     H55832   0.417  10.569   3.803  2.4570 -1.9081  1.8572
  414MOL0     H55833   0.264  10.627   3.578 -2.5020 -1.2235 -2.3261
  414MOL0     H55834   0.274  10.456   3.540 -2.1201 -1.6563  1.4120
  414MOL0     H55835   0.073  10.518   3.614  1.4155 -2.1757 -3.8236
  414MOL0     H55836   0.147  10.377   3.687  0.7927 -0.5285 -0.7834
  414MOL0     H55837   0.056  10.465   3.875  3.8893 -2.0980  3.2366
  414MOL0     H55838   0.213  10.541   3.892 -1.8182  2.9145  4.2199
  414MOL0     H55839   0.025  10.684   3.951 -0.2496  1.8191  0.6759
  414MOL0     H55840  -0.037  10.682   3.795  1.0382  2.6405 -1.5903
  414MOL0     H55841   0.274  10.765   3.973  1.0206 -2.1493 -0.8819
  414MOL0     H55842   0.526  10.933   3.894  0.5570 -0.2490  0.4200
  414MOL0     H55843   0.480  11.037   3.758 -0.6797 -0.6436 -0.6880
  414MOL0     H55844   0.341  11.044   4.022  0.6355  0.1590  0.5222
  414MOL0     H55845   0.307  11.155   3.889 -1.5078 -0.8439  0.2506
  414MOL0     H55846   0.561  11.223   3.908  0.4255 -0.7927 -0.6714
  414MOL0     H55847   0.587  11.099   4.022  2.1077  0.5049 -3.8860
  414MOL0     H55848   0.418  11.360   4.008  2.6824  0.3660 -2.9633
  414MOL0     H55849   0.553  11.366   4.104 -0.9476  0.7882  0.3678
  414MOL0     H55850   0.376  11.261   4.432 -1.2952 -1.2190 -2.6242
  414MOL0     H55851   0.418  11.449   4.707  2.6209 -3.8557 -1.1623
  414MOL0     H55852   0.240  11.467   4.689  0.7840  2.2742  0.0883
  414MOL0     H55853   0.321  11.310   4.651  2.7877  0.0261 -0.5817
  414MOL0     H55854   0.451  11.901   4.740  1.9170 -0.6199  0.4493
  414MOL0     H55855   0.572  12.107   4.783 -0.5267  2.6376  0.5355
  414MOL0     H55856   0.683  12.401   4.466  0.5368  2.6138  0.7632
  414MOL0     H55857   0.748  12.433   4.620 -1.1380 -0.4410  1.3227
  414MOL0     H55858   0.829  12.204   4.661  1.0521 -2.0401 -0.4189
  414MOL0     H55859   0.774  12.155   4.496 -0.4539  0.2377  1.1250
  414MOL0     H55860   0.996  12.327   4.561 -2.3639 -0.7000  2.8277
  414MOL0     H55861   0.909  12.365   4.409 -0.1214 -0.9623 -1.0141
  414MOL0     H55862   1.056  12.116   4.482  0.5129 -1.5431 -1.0891
  414MOL0     H55863   0.942  12.120   4.350 -1.3672  1.2859 -0.0003
  414MOL0     H55864   1.201  12.279   4.375 -0.3586 -0.9567 -0.8933
  414MOL0     H55865   1.077  12.327   4.259  3.1703  1.1499  0.1556
  414MOL0     H55866   1.212  12.059   4.293  0.6361 -0.2878 -0.5207
  414MOL0     H55867   1.086  12.091   4.169 -0.6170  1.0533 -0.5147
  414MOL0     H55868   1.228  12.209   4.026  0.1273 -2.9657 -0.6044
  414MOL0     H55869   1.337  12.099   4.094 -2.1231 -1.3442  1.3550
  414MOL0     H55870   1.437  12.286   4.241 -0.1167  0.4053  0.3275
  414MOL0     H55871   1.324  12.404   4.187  4.8162  1.2787  4.9051
  414MOL0     H55872   0.496  12.254   4.385  0.1039  0.4361  0.9143
  414MOL0     H55873   0.383  12.045   4.330  2.1965 -0.6608 -1.0052
  414MOL0     H55874   0.293  11.713   4.267 -0.0173 -0.3286 -0.9159
  414MOL0     H55875   0.287  11.522   4.120 -0.4825  0.3966  0.3708
  414MOL0     H55876   0.713  10.965   3.441 -0.7198 -3.2054  0.9778
  414MOL0     H55877   0.730  11.176   3.528  2.5666 -2.0723 -3.8759
  414MOL0     H55878   0.954  11.584   3.582  2.5945 -2.2673  2.3051
  414MOL0     H55879   0.929  11.813   3.670 -0.2183 -0.6543  0.7949
  414MOL0     H55880   0.890  12.071   3.919  0.3321  1.2238 -0.1871
  414MOL0     H55881   0.975  11.971   3.804  2.5814  1.3576  4.7018
  414MOL0     H55882   0.712  12.113   3.794 -2.9436 -1.6218 -1.1087
  414MOL0     H55883   0.686  11.949   3.732 -1.3218 -0.0866  1.1636
  414MOL0     H55884   0.879  11.995   3.563  0.1900  1.7050 -1.8357
  414MOL0     H55885   0.878  12.165   3.629  0.6613  0.5921  1.5465
  414MOL0     H55886   0.628  12.053   3.527 -0.1925  0.8297  3.3739
  414MOL0     H55887   0.751  12.136   3.419 -0.8744  2.3767 -0.4546
  414MOL0     H55888   0.569  12.469   3.537  0.2035  0.3791 -0.1020
  414MOL0     H55889   0.786  11.647   4.028 -2.3904  0.2493 -0.2844
  414MOL0     H55890   0.791  11.430   3.957 -1.3296 -3.2035 -4.6614
  415MOL0     O55891   6.217   9.578   9.090  0.2601 -0.7055 -0.3934
  415MOL0     C55892   6.281   9.476   9.096  0.2446  0.3934  0.5054
  415MOL0     O55893   6.228   9.352   9.096 -0.3550  0.1508 -0.6321
  415MOL0     C55894   6.110   9.310   9.049 -0.1811 -0.4165  0.5685
  415MOL0     C55895   6.039   9.369   8.942  0.3658 -1.1119  0.7732
  415MOL0     C55896   5.928   9.305   8.898 -0.0485 -0.3774 -1.5664
  415MOL0     C55897   5.888   9.174   8.938 -1.2157  0.9263  0.3559
  415MOL0     O55898   5.783   9.103   8.871  0.5683  0.3412  0.0060
  415MOL0     C55899   5.705   9.007   8.953  0.5378  0.4808 -0.0225
  415MOL0     C55900   5.591   8.963   8.862 -0.3268 -0.1262 -0.5199
  415MOL0     C55901   5.487   8.887   8.937  0.3931  0.2072  0.5217
  415MOL0     C55902   5.385   8.979   9.007 -0.3068 -0.1268  0.1718
  415MOL0     C55903   5.242   8.949   8.977 -0.2806 -0.0292 -0.0431
  415MOL0     C55904   5.158   9.073   9.004  0.5823  0.1067 -0.8317
  415MOL0     C55905   5.009   9.036   9.014 -0.2311  0.1693  0.7777
  415MOL0     C55906   4.933   9.170   9.002 -0.2937  1.2420 -0.0131
  415MOL0     N55907   4.805   9.150   9.068  0.1555  0.7281 -0.6203
  415MOL0     C55908   4.683   9.119   9.004  0.2991  0.5706  0.7515
  415MOL0     C55909   4.589   9.139   9.097  1.1541  0.0980 -0.2279
  415MOL0     C55910   4.435   9.118   9.078  0.2572  0.3916 -0.1740
  415MOL0     C55911   4.365   9.108   9.222 -0.5300 -0.6380  0.4384
  415MOL0     C55912   4.218   9.089   9.209 -0.7318  0.4179  0.9162
  415MOL0     C55913   4.141   9.050   9.338  0.8104 -0.1406  0.8277
  415MOL0     O55914   4.011   9.100   9.316 -0.4281 -0.3040 -0.1342
  415MOL0     C55915   3.924   9.118   9.428  0.4350  0.4685  0.7344
  415MOL0     C55916   3.782   9.129   9.404  0.5226 -0.7909  0.5859
  415MOL0     C55917   3.682   9.131   9.504 -0.6493 -0.1658 -0.3420
  415MOL0     C55918   3.541   9.140   9.451 -1.2848  0.6463  0.7397
  415MOL0     C55919   3.730   9.129   9.642  0.4264 -0.6147 -0.6728
  415MOL0     C55920   3.644   9.130   9.754  0.1255 -0.4951  0.3351
  415MOL0     O55921   3.684   9.198   9.866  0.0345 -0.0739  0.1162
  415MOL0     C55922   3.599   9.215   9.970  0.5599  0.3399 -0.3829
  415MOL0     C55923   3.604   9.341  10.033 -0.2939 -0.6922 -0.5634
  415MOL0     C55924   3.523   9.368  10.147  0.2253  0.3169  0.0212
  415MOL0     C55925   3.455   9.266  10.206 -0.0805 -0.3606  1.4090
  415MOL0     O55926   3.364   9.278  10.309 -0.0870 -0.9163 -0.2617
  415MOL0     C55927   3.414   9.339  10.432 -0.2246 -0.4443 -0.1843
  415MOL0     C55928   3.337   9.296  10.554  0.2541  0.7007  0.6808
  415MOL0     C55929   3.385   9.334  10.695  0.0461  0.1664  0.3747
  415MOL0     C55930   3.301   9.284  10.814  0.0755  0.5915 -0.5582
  415MOL0     C55931   3.336   9.360  10.940  0.0351  0.1939  0.3365
  415MOL0     C55932   3.257   9.307  11.065  0.8326  0.8042 -0.8249
  415MOL0     C55933   3.262   9.401  11.189 -0.1653 -0.2397 -0.2513
  415MOL0     C55934   3.202   9.335  11.321 -0.1252  0.0017  0.4444
  415MOL0    Cl55935   3.036   9.261  11.293  0.3439  0.2492 -0.2415
  415MOL0     C55936   3.456   9.140  10.144 -0.1936  0.0592  0.3139
  415MOL0     C55937   3.526   9.118  10.025  0.4355 -0.3439 -0.2107
  415MOL0     O55938   3.551   9.050   9.747 -0.3214  0.1492  0.9172
  415MOL0     C55939   3.871   9.127   9.663  0.7637 -0.0202 -0.6382
  415MOL0     C55940   3.960   9.125   9.560 -0.2595  0.2735  0.0238
  415MOL0     N55941   4.657   9.173   9.220 -0.7822 -0.3399 -0.1175
  415MOL0     N55942   4.787   9.175   9.203  0.3036  0.4889  0.0002
  415MOL0     C55943   5.973   9.115   9.031  0.2546 -0.2930  0.3784
  415MOL0     C55944   6.077   9.188   9.090 -0.0271  0.6949 -0.1837
  415MOL0     C55945   6.433   9.492   9.115  0.4614 -0.4395 -0.4084
  415MOL0     C55946   6.531   9.385   9.101 -0.4188  0.5553 -0.2551
  415MOL0     C55947   6.670   9.410   9.126  0.1131  0.4504 -0.5530
  415MOL0     C55948   6.722   9.530   9.173  0.8811  0.6194 -0.4442
  415MOL0     O55949   6.855   9.561   9.188 -1.0742  0.3806 -1.0534
  415MOL0     C55950   6.952   9.455   9.196 -0.8158  0.3769  0.7745
  415MOL0     C55951   7.012   9.423   9.059 -0.1256  0.2010  0.5412
  415MOL0     C55952   7.108   9.297   9.058  0.7464  0.3336 -0.2697
  415MOL0     C55953   7.042   9.163   9.085  0.8395 -0.7096 -0.1491
  415MOL0     C55954   7.020   9.133   9.227 -0.7404 -1.2265  0.6308
  415MOL0     C55955   6.996   9.115   9.343 -0.0640  0.9845  0.0649
  415MOL0     C55956   6.625   9.634   9.187 -0.6299 -0.2923  0.9851
  415MOL0     C55957   6.486   9.623   9.159 -0.6511  1.1633  0.3420
  415MOL0     H55958   6.066   9.468   8.908  3.0901 -1.4651  1.7331
  415MOL0     H55959   5.871   9.370   8.832  0.5898  0.5916 -1.1673
  415MOL0     H55960   5.756   8.921   8.999 -2.7929 -3.0216 -2.2484
  415MOL0     H55961   5.664   9.066   9.035  3.1338 -0.0428  1.8138
  415MOL0     H55962   5.554   9.039   8.792  1.9089  0.4979 -1.1115
  415MOL0     H55963   5.632   8.896   8.785  0.3433 -2.5698  1.8244
  415MOL0     H55964   5.443   8.828   8.856 -0.8296 -0.0691  1.3591
  415MOL0     H55965   5.536   8.834   9.019  2.9731  0.7538 -0.5474
  415MOL0     H55966   5.399   8.989   9.115 -0.2055 -1.4473  0.2978
  415MOL0     H55967   5.418   9.078   8.974  1.0894 -1.0790 -1.4650
  415MOL0     H55968   5.231   8.915   8.874  2.8082 -4.5842  0.8004
  415MOL0     H55969   5.208   8.862   9.033 -2.5549  1.2338  0.6373
  415MOL0     H55970   5.185   9.118   9.100 -4.2870 -3.1897  2.5932
  415MOL0     H55971   5.180   9.142   8.922 -1.2348  0.9777 -0.6343
  415MOL0     H55972   4.994   8.958   8.939  1.9658  0.8066 -0.4174
  415MOL0     H55973   4.993   9.000   9.116  4.7268 -0.9232  1.4375
  415MOL0     H55974   4.920   9.203   8.899 -1.2574 -0.5012 -0.4827
  415MOL0     H55975   4.986   9.258   9.039 -0.2148  0.8609  0.8008
  415MOL0     H55976   4.682   9.079   8.904  1.0468  1.0122  0.5595
  415MOL0     H55977   4.378   9.199   9.029 -0.3492  2.5149  3.6791
  415MOL0     H55978   4.421   9.028   9.017 -3.9277  2.0654 -2.1445
  415MOL0     H55979   4.383   9.202   9.274 -3.0014 -1.1913  2.4851
  415MOL0     H55980   4.412   9.031   9.283  0.5471  1.6206  2.6120
  415MOL0     H55981   4.190   9.009   9.139 -1.6611 -0.1896  1.9553
  415MOL0     H55982   4.184   9.187   9.173 -1.4512 -0.4557 -0.9198
  415MOL0     H55983   4.200   9.089   9.421  1.8342  0.4782 -0.1688
  415MOL0     H55984   4.123   8.944   9.356 -2.0237  0.4999  2.6442
  415MOL0     H55985   3.761   9.126   9.297  3.3179 -1.7663 -0.0275
  415MOL0     H55986   3.465   9.166   9.526 -0.7743  0.1786  1.4265
  415MOL0     H55987   3.539   9.200   9.360  2.9225 -0.9702 -0.6385
  415MOL0     H55988   3.514   9.041   9.411 -1.4679  1.1432 -0.4011
  415MOL0     H55989   3.680   9.412  10.002 -1.3667  0.2447 -1.1153
  415MOL0     H55990   3.527   9.466  10.194  1.0151  0.7166 -0.8493
  415MOL0     H55991   3.522   9.337  10.449 -0.1626  1.5004 -0.2016
  415MOL0     H55992   3.392   9.446  10.435 -1.2434 -0.6570  2.3611
  415MOL0     H55993   3.230   9.315  10.544 -0.4789 -2.4650  1.5485
  415MOL0     H55994   3.338   9.188  10.567  0.4123  0.5438 -0.5358
  415MOL0     H55995   3.393   9.443  10.697 -1.0294  0.2525  1.4514
  415MOL0     H55996   3.489   9.300  10.698  1.1143  3.1069  0.2071
  415MOL0     H55997   3.195   9.278  10.787 -0.7767  1.0963  2.3998
  415MOL0     H55998   3.319   9.179  10.838  2.1526  0.1044 -3.6158
  415MOL0     H55999   3.321   9.468  10.926  0.2407  0.2624  0.6358
  415MOL0     H56000   3.442   9.346  10.962  0.7015  0.7779 -2.2318
  415MOL0     H56001   3.154   9.298  11.028 -0.5078  0.2906  2.6852
  415MOL0     H56002   3.279   9.203  11.090  0.2733  1.0968  0.9953
  415MOL0     H56003   3.198   9.488  11.169 -2.7474 -2.2184 -1.1876
  415MOL0     H56004   3.369   9.421  11.199 -0.4321  1.1892 -0.0259
  415MOL0     H56005   3.211   9.409  11.400  2.1392  0.3202 -0.0485
  415MOL0     H56006   3.270   9.257  11.355 -0.2700  0.4471  1.7893
  415MOL0     H56007   3.391   9.062  10.180  1.3143 -1.2363  0.3595
  415MOL0     H56008   3.504   9.025   9.974 -0.3524  0.0115 -0.5386
  415MOL0     H56009   3.904   9.116   9.766  3.0044 -1.1941 -1.4399
  415MOL0     H56010   4.064   9.107   9.587  0.5141  2.4191 -1.2905
  415MOL0     H56011   5.964   9.008   9.046 -1.3621  0.1855  3.9197
  415MOL0     H56012   6.147   9.131   9.150  1.4981  1.9991 -0.6842
  415MOL0     H56013   6.502   9.285   9.069  3.0199 -1.6045  2.5890
  415MOL0     H56014   6.744   9.336   9.097 -1.3817 -0.9992 -0.8066
  415MOL0     H56015   7.031   9.485   9.266  1.6859  0.2508 -1.8252
  415MOL0     H56016   6.907   9.369   9.247 -2.1962  0.5418 -0.1133
  415MOL0     H56017   7.058   9.515   9.022 -1.7646 -0.0973 -2.5851
  415MOL0     H56018   6.929   9.403   8.990 -2.4752  1.7422  2.7686
  415MOL0     H56019   7.183   9.324   9.133  1.3678  3.3219 -1.8266
  415MOL0     H56020   7.159   9.294   8.961 -2.1608  0.4844 -1.9094
  415MOL0     H56021   7.097   9.082   9.036 -0.8662 -2.0944  0.1104
  415MOL0     H56022   6.941   9.150   9.044 -0.5140  0.9707  2.3724
  415MOL0     H56023   6.981   9.091   9.446 -2.1764  3.5652  0.4829
  415MOL0     H56024   6.655   9.730   9.227 -0.0195  1.3993 -3.0302
  415MOL0     H56025   6.414   9.703   9.170 -4.1349 -1.4409 -1.5364
  416MOL0     O56026   0.366   9.007   6.889  0.2968  0.3478 -0.3237
  416MOL0     C56027   0.369   9.022   7.012  0.6682  0.5262 -0.3182
  416MOL0     O56028   0.397   9.143   7.081 -0.2595  0.0400 -0.6237
  416MOL0     C56029   0.466   9.249   7.033 -0.8853 -1.4600  0.1684
  416MOL0     C56030   0.446   9.377   7.090 -0.7890 -0.1491  0.9620
  416MOL0     C56031   0.531   9.489   7.047 -0.3355 -0.7803 -0.0575
  416MOL0     C56032   0.634   9.476   6.959 -0.1529 -0.0605 -0.0004
  416MOL0     O56033   0.711   9.590   6.946 -0.0660  0.9987  0.0339
  416MOL0     C56034   0.851   9.580   6.919  0.5385  0.0929 -0.4705
  416MOL0     C56035   0.906   9.663   7.035 -0.2724 -0.4894  0.2053
  416MOL0     C56036   1.045   9.704   6.984 -0.1526 -1.1247  0.2315
  416MOL0     C56037   1.129   9.780   7.098  0.4876  0.7105  0.4491
  416MOL0     C56038   1.264   9.801   7.025 -0.5286 -0.2912  0.4203
  416MOL0     C56039   1.312   9.948   7.024  0.5510 -0.4957 -0.0486
  416MOL0     C56040   1.442   9.955   6.954 -0.8302 -0.2193 -0.9569
  416MOL0     C56041   1.480  10.109   6.955 -0.6029  0.3554 -0.3703
  416MOL0     N56042   1.546  10.138   6.833 -0.1339  0.9249  0.3085
  416MOL0     C56043   1.681  10.152   6.830 -0.6580  0.4634  0.8475
  416MOL0     C56044   1.716  10.233   6.727 -0.8687  0.5137 -0.3610
  416MOL0     C56045   1.871  10.249   6.696  0.4973  0.1374  0.0607
  416MOL0     C56046   1.886  10.330   6.568 -1.0852  0.2036 -0.7816
  416MOL0     C56047   1.865  10.239   6.441 -0.1449  1.2314  0.6945
  416MOL0     C56048   1.868  10.330   6.322  0.1194  0.0335 -0.6505
  416MOL0     O56049   1.754  10.415   6.327  0.0232  0.5882  1.1995
  416MOL0     C56050   1.720  10.462   6.201  1.0081 -0.1665  0.5797
  416MOL0     C56051   1.627  10.394   6.120  0.3147 -0.2740 -0.2549
  416MOL0     C56052   1.601  10.448   5.988 -0.2818 -0.0877 -0.0997
  416MOL0     C56053   1.517  10.360   5.891 -1.0036 -0.6713  0.1399
  416MOL0     C56054   1.665  10.571   5.945  0.2229 -0.3487  1.1064
  416MOL0     C56055   1.642  10.634   5.812 -0.3041 -0.1907  0.1318
  416MOL0     O56056   1.684  10.762   5.791  0.0655 -0.2052 -0.3447
  416MOL0     C56057   1.656  10.841   5.682  0.4418  0.6437 -0.3682
  416MOL0     C56058   1.730  10.956   5.676 -0.0644  0.2394  0.6845
  416MOL0     C56059   1.716  11.053   5.569  0.1569 -0.2820 -1.1905
  416MOL0     C56060   1.621  11.034   5.478  0.3781  0.2637  0.6804
  416MOL0     O56061   1.589  11.137   5.399  0.5964 -0.3463 -0.7016
  416MOL0     C56062   1.453  11.149   5.353  0.4355 -0.0409  0.7879
  416MOL0     C56063   1.451  11.276   5.270  0.1451 -0.7977  0.3615
  416MOL0     C56064   1.311  11.319   5.202 -0.0858 -0.1265  0.3019
  416MOL0     C56065   1.222  11.216   5.129  0.1821  0.6152  0.9846
  416MOL0     C56066   1.165  11.260   4.993  0.0437 -0.3804 -0.0353
  416MOL0     C56067   1.041  11.347   5.024 -0.0039 -0.6311  0.2933
  416MOL0     C56068   0.963  11.388   4.896 -0.3316  0.5649 -0.2394
  416MOL0     C56069   1.038  11.467   4.790 -0.5370  0.0639 -0.4568
  416MOL0    Cl56070   1.110  11.614   4.864  0.4673 -0.1874  0.0650
  416MOL0     C56071   1.557  10.913   5.472 -1.4118 -0.2835  0.2665
  416MOL0     C56072   1.570  10.822   5.572  1.0593  0.3335 -0.6567
  416MOL0     O56073   1.583  10.573   5.726 -0.7448  0.4411  0.4340
  416MOL0     C56074   1.749  10.635   6.036  0.3386 -0.7415  0.8457
  416MOL0     C56075   1.778  10.575   6.162 -0.5553 -0.3760 -0.0932
  416MOL0     N56076   1.597  10.270   6.660  0.3315  0.6401 -0.3207
  416MOL0     N56077   1.499  10.220   6.733 -1.2260 -0.5060 -0.3014
  416MOL0     C56078   0.654   9.343   6.911  0.1685  1.1330  0.1935
  416MOL0     C56079   0.573   9.237   6.940 -0.0259  0.4208 -0.1607
  416MOL0     C56080   0.330   8.905   7.098 -0.2652 -0.6363  0.0038
  416MOL0     C56081   0.346   8.767   7.047  0.2676  0.1645 -0.5936
  416MOL0     C56082   0.334   8.660   7.136 -0.6394  0.4732 -0.5488
  416MOL0     C56083   0.291   8.675   7.268  0.4959 -0.6353 -0.0354
  416MOL0     O56084   0.288   8.573   7.361  0.2192  1.3838 -0.1333
  416MOL0     C56085   0.238   8.448   7.306  0.2523  0.4640 -0.7451
  416MOL0     C56086   0.167   8.371   7.420  0.3655  0.7649  0.0885
  416MOL0     C56087   0.106   8.231   7.361 -0.0277  0.1785  0.8098
  416MOL0     C56088  -0.026   8.250   7.282 -0.0230  0.0160 -0.2042
  416MOL0     C56089  -0.117   8.140   7.299  0.0202 -0.2533  0.3805
  416MOL0     C56090  -0.194   8.045   7.304  1.0572  1.1523 -0.1552
  416MOL0     C56091   0.266   8.811   7.305  0.3590 -0.5093  0.4425
  416MOL0     C56092   0.285   8.923   7.226 -0.5463  0.1751 -0.0461
  416MOL0     H56093   0.373   9.387   7.169  0.1686  1.2805  1.6919
  416MOL0     H56094   0.519   9.590   7.085 -1.1669 -1.1872  0.8182
  416MOL0     H56095   0.903   9.483   6.921 -0.1639 -0.3765 -2.4649
  416MOL0     H56096   0.866   9.617   6.818 -0.4460 -0.9201 -1.0143
  416MOL0     H56097   0.849   9.752   7.062  0.1112 -0.7166  1.8634
  416MOL0     H56098   0.914   9.592   7.118 -0.5808  1.5941  2.0835
  416MOL0     H56099   1.099   9.614   6.952  2.5209  1.0078 -1.8279
  416MOL0     H56100   1.038   9.772   6.898 -0.7296 -1.8085 -0.2712
  416MOL0     H56101   1.078   9.874   7.119 -0.0856  0.5753 -0.2848
  416MOL0     H56102   1.150   9.714   7.183  1.1279 -0.2017 -0.3797
  416MOL0     H56103   1.339   9.751   7.087  1.8631  2.6451  0.1542
  416MOL0     H56104   1.263   9.766   6.922  0.5098  1.0421 -0.0708
  416MOL0     H56105   1.232  10.010   6.982  0.3193  2.6242  4.3579
  416MOL0     H56106   1.317   9.978   7.129 -1.5246  0.7911 -0.2696
  416MOL0     H56107   1.519   9.895   7.002  1.4563  2.5007 -0.9411
  416MOL0     H56108   1.424   9.926   6.850 -1.9602  4.6523 -2.3981
  416MOL0     H56109   1.547  10.123   7.041 -1.7886  5.0301  0.0644
  416MOL0     H56110   1.390  10.171   6.961  0.4782  1.9165  0.3724
  416MOL0     H56111   1.745  10.095   6.897  2.1730  2.7132  0.2363
  416MOL0     H56112   1.907  10.315   6.774 -0.4917 -0.9385  1.4974
  416MOL0     H56113   1.926  10.155   6.690 -2.5485 -1.9291  1.3655
  416MOL0     H56114   1.982  10.384   6.569 -1.3352  0.6698 -1.4956
  416MOL0     H56115   1.809  10.407   6.578 -1.4908 -0.3138  0.3031
  416MOL0     H56116   1.768  10.189   6.443 -0.4867  1.7956 -0.8190
  416MOL0     H56117   1.932  10.153   6.434 -0.8836  0.7237 -0.2379
  416MOL0     H56118   1.866  10.272   6.229 -0.2512  2.4511 -2.2511
  416MOL0     H56119   1.967  10.377   6.315  0.2305 -0.3271 -1.6602
  416MOL0     H56120   1.582  10.308   6.169  2.0282 -0.4700  1.0632
  416MOL0     H56121   1.496  10.266   5.943 -0.7363  0.0087  1.5394
  416MOL0     H56122   1.420  10.404   5.868 -0.5610 -0.6580 -1.9107
  416MOL0     H56123   1.569  10.347   5.795  0.8257  1.9242  0.6452
  416MOL0     H56124   1.802  10.976   5.755 -1.0878  0.7273  1.5310
  416MOL0     H56125   1.774  11.145   5.560 -1.7024  1.1191  0.2284
  416MOL0     H56126   1.421  11.062   5.295 -2.3488 -0.7972  3.1969
  416MOL0     H56127   1.391  11.164   5.442 -2.4299  0.6988 -1.2083
  416MOL0     H56128   1.479  11.351   5.343 -2.0285  2.2398 -1.6685
  416MOL0     H56129   1.529  11.275   5.193  0.1297  3.0679  0.1404
  416MOL0     H56130   1.334  11.400   5.134  1.6384 -1.6486 -1.0209
  416MOL0     H56131   1.249  11.372   5.275 -0.6657 -0.6140  0.1685
  416MOL0     H56132   1.289  11.133   5.103 -0.1193  0.9459 -0.9939
  416MOL0     H56133   1.138  11.182   5.191 -0.2103 -0.1646  0.0553
  416MOL0     H56134   1.123  11.168   4.953 -2.6178  0.2476  1.0673
  416MOL0     H56135   1.224  11.322   4.925 -0.6657 -0.9716 -1.2141
  416MOL0     H56136   0.968  11.298   5.089 -2.1492  1.6498 -0.2534
  416MOL0     H56137   1.073  11.429   5.089 -0.5498 -1.0841  1.1512
  416MOL0     H56138   0.882  11.456   4.924  0.2057  1.1366 -0.0446
  416MOL0     H56139   0.915  11.299   4.854  1.5845 -0.7273  0.1624
  416MOL0     H56140   0.981  11.499   4.702  3.2113  0.6329 -2.9123
  416MOL0     H56141   1.125  11.411   4.754 -1.3849 -1.5133 -0.1335
  416MOL0     H56142   1.505  10.886   5.381  2.6192 -2.0763 -1.7635
  416MOL0     H56143   1.500  10.739   5.577 -1.2843  2.0192 -2.7870
  416MOL0     H56144   1.780  10.736   6.009 -3.2835  0.0366 -1.0748
  416MOL0     H56145   1.850  10.630   6.222  0.7699 -1.5342 -0.5639
  416MOL0     H56146   0.717   9.322   6.826  2.0947  0.4916  1.7170
  416MOL0     H56147   0.602   9.138   6.906  1.8187  1.6133 -2.2852
  416MOL0     H56148   0.371   8.748   6.944  1.4276 -0.3572 -0.2407
  416MOL0     H56149   0.351   8.558   7.101  2.8356  0.5501  0.5103
  416MOL0     H56150   0.162   8.467   7.230 -1.1245  0.6394  0.6352
  416MOL0     H56151   0.320   8.389   7.264 -1.1153 -1.9424 -0.2009
  416MOL0     H56152   0.088   8.432   7.465 -2.4847 -3.0349  0.7919
  416MOL0     H56153   0.251   8.349   7.487  3.6238  2.4705 -3.1525
  416MOL0     H56154   0.081   8.168   7.447  1.8463 -2.0392 -0.1654
  416MOL0     H56155   0.189   8.186   7.306  2.0834  2.1664  2.1336
  416MOL0     H56156   0.005   8.239   7.177  0.1271 -0.9976 -0.0616
  416MOL0     H56157  -0.085   8.340   7.300  2.8154  2.0357 -0.1705
  416MOL0     H56158  -0.263   7.964   7.305  0.7056  1.3011 -3.4778
  416MOL0     H56159   0.255   8.828   7.412  2.2319  0.0696  0.5895
  416MOL0     H56160   0.264   9.021   7.268 -1.5989  0.3102 -0.8346
  417MOL0     O56161   7.487   5.805   3.753  0.6369 -0.3052 -0.4522
  417MOL0     C56162   7.495   5.764   3.867 -0.8984 -0.4437  0.6561
  417MOL0     O56163   7.398   5.733   3.948  0.4489 -0.0250 -0.2311
  417MOL0     C56164   7.267   5.738   3.892 -0.3926 -1.2724 -0.1397
  417MOL0     C56165   7.223   5.870   3.882  0.5815 -0.4197  1.0643
  417MOL0     C56166   7.106   5.884   3.809  0.9025  0.2503  0.5987
  417MOL0     C56167   7.026   5.778   3.747  1.2346  0.1600 -0.6703
  417MOL0     O56168   6.912   5.809   3.682  0.3671 -0.3587  0.4654
  417MOL0     C56169   6.876   5.941   3.636 -0.3507  0.7155 -0.3166
  417MOL0     C56170   6.755   5.940   3.537  0.6490  0.5429  0.4606
  417MOL0     C56171   6.802   5.994   3.393 -0.2244  0.8826  0.3427
  417MOL0     C56172   6.691   6.056   3.308 -0.2412  0.7832 -0.1271
  417MOL0     C56173   6.557   5.973   3.293 -0.4671  0.2033 -0.6984
  417MOL0     C56174   6.583   5.840   3.218  0.8368 -0.1185 -0.3488
  417MOL0     C56175   6.453   5.810   3.143 -0.2727  1.0176  0.4652
  417MOL0     C56176   6.420   5.895   3.024 -0.1488 -0.4942  0.7118
  417MOL0     N56177   6.287   5.874   2.967 -0.0825 -0.6704 -0.4635
  417MOL0     C56178   6.167   5.849   3.033 -0.4248  0.1353 -0.3668
  417MOL0     C56179   6.081   5.787   2.944  0.4105  1.1642  0.3610
  417MOL0     C56180   5.942   5.721   2.957 -0.1238  0.5116  0.1059
  417MOL0     C56181   5.937   5.575   2.938 -0.3313 -0.0683  0.3642
  417MOL0     C56182   5.798   5.513   2.980 -0.5891 -1.0449  0.0738
  417MOL0     C56183   5.791   5.362   2.975 -0.3752  0.2381 -0.0700
  417MOL0     O56184   5.673   5.320   3.053  0.3457  0.4964  0.2619
  417MOL0     C56185   5.544   5.355   3.023 -0.2650 -0.4646  0.4970
  417MOL0     C56186   5.513   5.417   2.902  0.0914 -0.4854 -0.7986
  417MOL0     C56187   5.385   5.472   2.875  0.0966 -0.0557 -0.1189
  417MOL0     C56188   5.372   5.537   2.742 -0.4921 -0.4094 -1.0056
  417MOL0     C56189   5.281   5.458   2.967  0.4424 -0.3051 -0.3894
  417MOL0     C56190   5.142   5.479   2.936  0.2319  0.0002  0.0581
  417MOL0     O56191   5.103   5.525   2.809  0.7471  1.0154  0.1396
  417MOL0     C56192   4.967   5.539   2.775 -0.1251  0.0478 -0.2963
  417MOL0     C56193   4.873   5.562   2.875 -0.6079 -0.8350  0.7359
  417MOL0     C56194   4.743   5.519   2.851 -0.0297  0.3736 -0.3202
  417MOL0     C56195   4.702   5.476   2.719  0.7454 -0.4900  0.3672
  417MOL0     O56196   4.566   5.463   2.677  0.3726 -1.0055 -0.3027
  417MOL0     C56197   4.464   5.553   2.733  0.1326  0.3353 -0.4131
  417MOL0     C56198   4.336   5.466   2.771 -0.0160  0.0311  1.1342
  417MOL0     C56199   4.274   5.396   2.648  1.1028  0.4991 -0.0294
  417MOL0     C56200   4.212   5.501   2.549  0.5880  0.1970 -0.3818
  417MOL0     C56201   4.126   5.431   2.445 -0.0367 -1.0892 -0.3614
  417MOL0     C56202   4.079   5.543   2.356 -0.4275 -0.0707  0.1612
  417MOL0     C56203   3.997   5.506   2.224  0.1414  0.6995  0.0127
  417MOL0     C56204   3.918   5.622   2.170 -0.1613  0.3748 -0.6424
  417MOL0    Cl56205   3.791   5.654   2.302 -0.7650 -0.3514  0.2994
  417MOL0     C56206   4.800   5.463   2.617 -0.4775  0.4678 -0.3637
  417MOL0     C56207   4.933   5.494   2.653  1.0131  0.1491  0.1450
  417MOL0     O56208   5.072   5.462   3.040  0.0314  0.0860 -0.0890
  417MOL0     C56209   5.317   5.391   3.096 -0.5643 -0.2247 -0.9853
  417MOL0     C56210   5.448   5.354   3.116  0.0286 -0.6321  0.0457
  417MOL0     N56211   6.153   5.777   2.830  0.7136  0.0946 -0.2955
  417MOL0     N56212   6.270   5.833   2.835 -0.6462  0.3794  0.0176
  417MOL0     C56213   7.070   5.645   3.761 -0.0014  0.1342 -0.0820
  417MOL0     C56214   7.196   5.629   3.827 -0.2871 -0.7886 -0.1356
  417MOL0     C56215   7.632   5.742   3.918  0.4800 -0.1544  0.2180
  417MOL0     C56216   7.746   5.757   3.837  1.2065  0.7495 -0.4626
  417MOL0     C56217   7.875   5.740   3.895 -0.1278  0.0707  0.1315
  417MOL0     C56218   7.895   5.729   4.027  0.4731 -0.9076 -0.1966
  417MOL0     O56219   8.022   5.712   4.078  0.1725  0.3321 -0.3911
  417MOL0     C56220   8.039   5.675   4.220 -0.5369  0.5992 -0.1029
  417MOL0     C56221   8.187   5.671   4.250 -0.5340 -0.3716  0.1243
  417MOL0     C56222   8.250   5.532   4.205 -0.7859  0.5665  0.0762
  417MOL0     C56223   8.373   5.489   4.279  0.9486  0.9119  0.0742
  417MOL0     C56224   8.472   5.595   4.265  1.1219 -0.4014 -0.5153
  417MOL0     C56225   8.553   5.675   4.253  0.1719 -0.5332 -0.3810
  417MOL0     C56226   7.788   5.722   4.114  0.5830 -0.1888 -0.0348
  417MOL0     C56227   7.661   5.716   4.056 -0.3394  0.2263  0.3697
  417MOL0     H56228   7.260   5.960   3.930 -1.9713 -0.3785  3.2221
  417MOL0     H56229   7.064   5.984   3.804 -0.7656 -0.4497 -0.5972
  417MOL0     H56230   6.849   6.006   3.720 -3.1495  0.7573 -1.1526
  417MOL0     H56231   6.966   5.976   3.585  1.6076 -2.6502  0.5128
  417MOL0     H56232   6.710   5.841   3.540 -2.1759  1.5461 -2.5676
  417MOL0     H56233   6.668   6.001   3.566 -1.4281 -1.8984 -0.2796
  417MOL0     H56234   6.887   6.061   3.406  1.2749 -1.2524  2.2553
  417MOL0     H56235   6.839   5.912   3.332 -2.0476 -0.5038  0.9981
  417MOL0     H56236   6.666   6.149   3.359 -2.6678  0.4621 -0.6032
  417MOL0     H56237   6.718   6.080   3.204 -0.7158  1.1849 -0.1592
  417MOL0     H56238   6.504   5.947   3.385  1.5884  0.8355  0.7345
  417MOL0     H56239   6.492   6.031   3.228  1.2100 -0.0392 -2.6873
  417MOL0     H56240   6.667   5.865   3.153 -0.3209  0.7804 -1.5613
  417MOL0     H56241   6.597   5.751   3.280  4.7629 -0.8993 -2.0157
  417MOL0     H56242   6.430   5.706   3.116 -0.1595 -0.2421  4.5569
  417MOL0     H56243   6.376   5.831   3.217  0.3274 -2.1459  2.1889
  417MOL0     H56244   6.498   5.874   2.950 -1.5978  0.8738 -1.3120
  417MOL0     H56245   6.429   6.003   3.040 -1.8780 -0.2752  0.4544
  417MOL0     H56246   6.153   5.859   3.140 -1.1790 -2.3087 -0.1743
  417MOL0     H56247   5.898   5.751   3.053 -0.1631  2.6122 -0.5161
  417MOL0     H56248   5.875   5.766   2.884  0.4533  0.3149 -0.5532
  417MOL0     H56249   6.013   5.532   3.003  0.9178  0.2821 -0.8023
  417MOL0     H56250   5.973   5.547   2.838  0.0936  0.1088  0.4664
  417MOL0     H56251   5.730   5.561   2.908  0.1238 -1.4430 -0.8824
  417MOL0     H56252   5.777   5.539   3.084  0.1181 -0.0854 -0.0046
  417MOL0     H56253   5.883   5.315   3.010  0.7553  1.8476 -0.7621
  417MOL0     H56254   5.781   5.312   2.879 -1.6324 -2.2870  1.2817
  417MOL0     H56255   5.595   5.423   2.830 -0.1258  0.5562 -0.9765
  417MOL0     H56256   5.299   5.497   2.671 -1.3886  2.7885 -2.0604
  417MOL0     H56257   5.341   5.642   2.752  0.6277 -0.3024  2.7940
  417MOL0     H56258   5.468   5.541   2.689 -0.1609 -1.1040 -0.4735
  417MOL0     H56259   4.893   5.601   2.974 -3.4982  3.1176  0.0250
  417MOL0     H56260   4.665   5.517   2.926  0.9458 -2.2846  0.7300
  417MOL0     H56261   4.494   5.597   2.829 -3.5449 -0.4015  1.2516
  417MOL0     H56262   4.437   5.639   2.671 -2.3885  1.0972  1.5612
  417MOL0     H56263   4.365   5.393   2.847 -0.7112  2.0224  3.4458
  417MOL0     H56264   4.261   5.533   2.814 -0.0382  0.8245 -0.0850
  417MOL0     H56265   4.191   5.333   2.682  0.3023  0.6099 -1.6638
  417MOL0     H56266   4.348   5.334   2.596  0.2213 -0.4997 -0.1265
  417MOL0     H56267   4.145   5.578   2.587 -0.6397  0.2433 -2.4684
  417MOL0     H56268   4.298   5.554   2.507  0.6154 -1.1128 -2.0957
  417MOL0     H56269   4.044   5.383   2.499  0.3979 -0.7688  0.6086
  417MOL0     H56270   4.183   5.365   2.379  0.1062 -0.7237 -0.6056
  417MOL0     H56271   4.009   5.594   2.423 -0.7792 -1.5002  0.9259
  417MOL0     H56272   4.166   5.608   2.341 -0.7114  1.0413  2.7633
  417MOL0     H56273   3.916   5.436   2.245  1.0409  0.0494  1.4853
  417MOL0     H56274   4.070   5.461   2.156 -0.3277 -2.1347  1.2636
  417MOL0     H56275   3.884   5.598   2.068  0.2630 -1.5474 -0.3740
  417MOL0     H56276   3.987   5.706   2.158  0.7982 -0.1463  1.0062
  417MOL0     H56277   4.770   5.428   2.519 -2.3993 -1.9209  0.9489
  417MOL0     H56278   5.017   5.487   2.584  0.9396  1.1406 -0.0638
  417MOL0     H56279   5.245   5.369   3.174  1.8011 -5.0633  0.2554
  417MOL0     H56280   5.461   5.318   3.217 -1.0191  2.8510  1.5882
  417MOL0     H56281   7.016   5.563   3.715  2.0948 -2.1395  1.2615
  417MOL0     H56282   7.234   5.530   3.848 -3.1086 -2.4321 -1.9876
  417MOL0     H56283   7.734   5.793   3.735 -1.2575 -1.9535 -1.2723
  417MOL0     H56284   7.957   5.723   3.826 -0.7831  0.1439 -0.6838
  417MOL0     H56285   8.005   5.753   4.289  2.5063  0.8062  1.3479
  417MOL0     H56286   7.984   5.583   4.239 -0.7314  0.1425 -2.6043
  417MOL0     H56287   8.215   5.681   4.355  0.3168  1.5168 -0.2466
  417MOL0     H56288   8.245   5.743   4.192 -1.7713  1.4079  1.0151
  417MOL0     H56289   8.259   5.514   4.098  0.5335 -3.1134  0.6442
  417MOL0     H56290   8.174   5.458   4.233  0.6261  0.0835  2.9958
  417MOL0     H56291   8.409   5.392   4.241 -1.8560 -0.0517 -0.3147
  417MOL0     H56292   8.358   5.475   4.386  2.3799  1.5302  0.3865
  417MOL0     H56293   8.633   5.744   4.238 -0.0223 -0.2056  0.0747
  417MOL0     H56294   7.797   5.698   4.219  1.3196 -1.0632 -0.2949
  417MOL0     H56295   7.575   5.703   4.121 -1.1159  0.8249 -0.5059
  418MOL0     O56296   9.002   5.356   8.826  0.7964  0.6516 -0.0448
  418MOL0     C56297   8.879   5.369   8.843 -0.3629 -0.5220 -0.6090
  418MOL0     O56298   8.786   5.377   8.742  0.4873  0.5873 -0.4545
  418MOL0     C56299   8.837   5.345   8.616  0.9913  1.2877 -0.3550
  418MOL0     C56300   8.897   5.222   8.586  0.4802  0.9721  0.2306
  418MOL0     C56301   8.921   5.181   8.452 -0.4900 -0.3638 -0.4379
  418MOL0     C56302   8.898   5.277   8.353  0.7780  0.3815  0.3346
  418MOL0     O56303   8.918   5.246   8.223 -0.7647 -0.3237 -0.2810
  418MOL0     C56304   9.043   5.174   8.184  1.1396  0.0375 -1.2005
  418MOL0     C56305   9.083   5.213   8.047 -0.2509 -0.1201 -0.5222
  418MOL0     C56306   8.993   5.159   7.932 -0.8967 -0.4552  1.6671
  418MOL0     C56307   9.021   5.232   7.796  0.1163  0.7501 -0.1083
  418MOL0     C56308   9.164   5.243   7.757 -0.2488 -0.5560  0.8030
  418MOL0     C56309   9.233   5.110   7.732  0.8769 -0.1753 -0.0865
  418MOL0     C56310   9.382   5.128   7.694  0.1715 -0.3775 -0.1917
  418MOL0     C56311   9.418   5.026   7.579 -0.0227  0.7021  0.2135
  418MOL0     N56312   9.388   4.880   7.606  0.1738  0.2946 -0.5615
  418MOL0     C56313   9.371   4.790   7.499  0.1049  0.0337 -0.5957
  418MOL0     C56314   9.435   4.676   7.534 -0.8575  0.4242  1.1212
  418MOL0     C56315   9.445   4.534   7.470  0.4012  0.7935 -0.6323
  418MOL0     C56316   9.354   4.414   7.533  0.4594 -0.9423 -0.2036
  418MOL0     C56317   9.359   4.402   7.682 -0.3200 -0.0809 -0.1997
  418MOL0     C56318   9.256   4.305   7.725 -1.0599  0.9651 -0.0284
  418MOL0     O56319   9.132   4.371   7.714  0.6502 -0.6543 -0.2937
  418MOL0     C56320   9.021   4.293   7.733 -0.3358  0.0595  0.3152
  418MOL0     C56321   9.008   4.215   7.853 -0.9280  0.3552  0.1992
  418MOL0     C56322   8.906   4.123   7.880 -0.0002  0.0134  0.3870
  418MOL0     C56323   8.887   4.066   8.013 -0.0310 -0.6561  0.1003
  418MOL0     C56324   8.810   4.108   7.778 -0.2227  0.0653 -1.0509
  418MOL0     C56325   8.689   4.010   7.782 -0.9611 -0.0710 -0.0212
  418MOL0     O56326   8.672   3.931   7.890  0.9802  0.0741 -0.2264
  418MOL0     C56327   8.559   3.850   7.884  0.9211 -1.0325 -0.5277
  418MOL0     C56328   8.550   3.755   7.790  0.1651  0.9711 -0.1789
  418MOL0     C56329   8.444   3.659   7.785 -0.4337 -0.0976  0.5477
  418MOL0     C56330   8.341   3.667   7.875 -0.6975 -0.3230 -0.7507
  418MOL0     O56331   8.245   3.579   7.854 -0.4429 -0.6114 -0.0640
  418MOL0     C56332   8.166   3.544   7.969 -0.2782 -0.3123 -0.3002
  418MOL0     C56333   8.051   3.459   7.928 -0.0720  0.5337 -0.2065
  418MOL0     C56334   8.081   3.369   7.803 -0.2005 -0.0291 -0.8981
  418MOL0     C56335   8.198   3.270   7.823 -0.4423 -0.3822 -0.5606
  418MOL0     C56336   8.173   3.126   7.861 -0.4840  0.1857  0.4237
  418MOL0     C56337   8.190   3.125   8.021  0.1983  0.9369 -0.0940
  418MOL0     C56338   8.163   2.983   8.088 -0.1331 -1.2192 -0.4925
  418MOL0     C56339   8.082   3.006   8.214  0.1044 -0.1314  0.6369
  418MOL0    Cl56340   7.918   3.077   8.161  0.2866 -0.8582  0.7133
  418MOL0     C56341   8.352   3.767   7.983 -0.2316 -0.0961 -0.0856
  418MOL0     C56342   8.464   3.851   7.986  0.4129 -0.1054  1.6522
  418MOL0     O56343   8.621   4.015   7.687  0.6795  0.5830 -0.2479
  418MOL0     C56344   8.823   4.180   7.661 -0.6068  0.0297 -0.8553
  418MOL0     C56345   8.928   4.271   7.635 -0.4610  0.6260  0.8113
  418MOL0     N56346   9.484   4.696   7.664 -0.1078 -0.4586  0.5579
  418MOL0     N56347   9.469   4.822   7.699 -0.1250  0.0158 -0.3662
  418MOL0     C56348   8.821   5.388   8.384  0.3010  0.7503  0.2152
  418MOL0     C56349   8.788   5.424   8.513  0.5117 -0.0415 -0.3237
  418MOL0     C56350   8.828   5.408   8.981 -0.4597 -1.2945 -0.5150
  418MOL0     C56351   8.919   5.427   9.091 -0.8362 -0.6078 -0.0908
  418MOL0     C56352   8.862   5.482   9.202 -0.7550 -0.2702  0.0548
  418MOL0     C56353   8.733   5.523   9.225 -0.5415  1.1509  0.2064
  418MOL0     O56354   8.690   5.588   9.340 -0.1469 -0.8090  0.0367
  418MOL0     C56355   8.633   5.511   9.448 -0.9574 -0.2616  0.6543
  418MOL0     C56356   8.753   5.478   9.544 -0.7237 -0.2493 -0.7953
  418MOL0     C56357   8.811   5.594   9.625 -0.1713 -1.0539  0.0902
  418MOL0     C56358   8.779   5.604   9.776 -0.9139 -0.4710 -0.0970
  418MOL0     C56359   8.635   5.623   9.795 -0.0479 -0.3057  0.3889
  418MOL0     C56360   8.514   5.649   9.810 -0.3621 -0.4401  0.0510
  418MOL0     C56361   8.646   5.504   9.121  0.1039 -0.4791  0.1917
  418MOL0     C56362   8.692   5.443   9.002  0.5030  0.3247  0.2690
  418MOL0     H56363   8.899   5.147   8.664 -1.4548  2.4957  1.8397
  418MOL0     H56364   8.962   5.083   8.429 -2.5624 -2.0303  2.3306
  418MOL0     H56365   9.124   5.192   8.255  1.0528  1.9991 -1.5259
  418MOL0     H56366   9.026   5.066   8.185 -0.8309  0.2261 -3.7297
  418MOL0     H56367   9.106   5.319   8.032  0.6672 -0.2890 -0.3433
  418MOL0     H56368   9.185   5.178   8.030 -0.2837  0.7794 -2.8889
  418MOL0     H56369   9.005   5.051   7.919 -2.3886 -0.3157 -2.0482
  418MOL0     H56370   8.889   5.189   7.945 -1.0702  0.4778 -1.1879
  418MOL0     H56371   8.973   5.170   7.720  1.1107  0.2744 -0.3725
  418MOL0     H56372   8.969   5.328   7.807 -0.1068  0.4927  1.2977
  418MOL0     H56373   9.169   5.298   7.662 -0.1996 -3.1217 -0.7770
  418MOL0     H56374   9.224   5.287   7.837  1.0864 -1.0614  0.1276
  418MOL0     H56375   9.217   5.034   7.809 -1.2217 -0.8136 -1.0852
  418MOL0     H56376   9.178   5.070   7.647  2.4057 -0.4529 -0.9893
  418MOL0     H56377   9.408   5.230   7.664  0.9101 -1.0892 -2.1488
  418MOL0     H56378   9.441   5.098   7.781  0.8868  1.7733  0.1378
  418MOL0     H56379   9.524   5.027   7.552  0.1505 -0.8306  0.7720
  418MOL0     H56380   9.368   5.057   7.487  0.3051 -1.8048 -0.8920
  418MOL0     H56381   9.327   4.821   7.404  2.5529  2.1679 -1.1441
  418MOL0     H56382   9.417   4.540   7.364 -1.5619 -2.1047 -0.4064
  418MOL0     H56383   9.543   4.485   7.479 -0.5819 -2.1853 -3.6634
  418MOL0     H56384   9.381   4.321   7.483  0.4741 -0.4921 -1.0595
  418MOL0     H56385   9.250   4.440   7.511 -0.0730 -1.9380  1.0234
  418MOL0     H56386   9.331   4.496   7.732 -0.5467  0.1082 -0.6800
  418MOL0     H56387   9.455   4.362   7.717  0.7552  0.0777 -2.7683
  418MOL0     H56388   9.271   4.268   7.826  0.1023 -0.9843 -0.8741
  418MOL0     H56389   9.252   4.223   7.653 -0.3523  2.1975 -1.5440
  418MOL0     H56390   9.088   4.235   7.924 -1.3851 -3.5509  2.1321
  418MOL0     H56391   8.805   4.103   8.074  1.9384  0.8675  1.9819
  418MOL0     H56392   8.872   3.958   8.010  0.5739 -0.7475 -2.4079
  418MOL0     H56393   8.982   4.079   8.066  0.2688 -0.9624 -0.3526
  418MOL0     H56394   8.637   3.745   7.726 -0.9358  0.7224 -1.6954
  418MOL0     H56395   8.460   3.577   7.716  1.7724  0.2882  0.5222
  418MOL0     H56396   8.241   3.483   8.020  0.0384 -0.3499 -0.8069
  418MOL0     H56397   8.135   3.630   8.029 -1.4779 -0.1402 -1.1286
  418MOL0     H56398   8.023   3.386   8.004 -2.4380  0.2573 -1.2356
  418MOL0     H56399   7.971   3.531   7.907  0.0487  0.5379 -0.6469
  418MOL0     H56400   8.101   3.431   7.716 -2.3360 -1.0964 -2.2301
  418MOL0     H56401   7.999   3.303   7.775  0.0430 -0.1357 -1.3784
  418MOL0     H56402   8.227   3.256   7.719 -0.9930  0.4296 -0.8321
  418MOL0     H56403   8.274   3.312   7.890 -1.7944  1.4214 -0.0717
  418MOL0     H56404   8.254   3.064   7.823 -1.5842 -2.4173  2.0411
  418MOL0     H56405   8.080   3.089   7.818 -0.9516  1.2354  0.5098
  418MOL0     H56406   8.291   3.156   8.052 -0.4786  4.1279 -0.7007
  418MOL0     H56407   8.126   3.194   8.075  0.5144 -0.9113  2.8650
  418MOL0     H56408   8.257   2.931   8.111  1.3253 -0.0081 -3.2318
  418MOL0     H56409   8.094   2.928   8.023 -0.0986 -0.6042 -1.0636
  418MOL0     H56410   8.133   3.086   8.269 -0.2965  1.4932 -1.2300
  418MOL0     H56411   8.067   2.915   8.274 -0.9681 -0.7596 -0.5316
  418MOL0     H56412   8.281   3.779   8.064 -4.8326 -0.4514 -3.6495
  418MOL0     H56413   8.478   3.930   8.059  0.4267  0.3552  1.1596
  418MOL0     H56414   8.755   4.169   7.577  1.2352 -2.6804 -2.1566
  418MOL0     H56415   8.929   4.336   7.548  0.8785 -0.3924  0.0389
  418MOL0     H56416   8.801   5.463   8.308  1.5868 -0.7602 -1.6978
  418MOL0     H56417   8.744   5.521   8.534 -0.4171 -0.5664  0.1791
  418MOL0     H56418   9.026   5.408   9.089 -0.7224 -0.0684  0.5842
  418MOL0     H56419   8.925   5.501   9.289  1.6357  0.2098 -1.6942
  418MOL0     H56420   8.554   5.567   9.497 -0.2611 -1.5913  3.4821
  418MOL0     H56421   8.591   5.414   9.419 -1.4660  0.6621 -2.0486
  418MOL0     H56422   8.828   5.425   9.486  0.5902  0.9703 -0.2609
  418MOL0     H56423   8.725   5.400   9.617 -0.0972 -0.8361 -1.1758
  418MOL0     H56424   8.787   5.690   9.580  2.0348 -1.0632 -1.2984
  418MOL0     H56425   8.920   5.579   9.618 -0.4351 -3.4017  0.3013
  418MOL0     H56426   8.831   5.690   9.820 -0.5662  0.8690 -2.9300
  418MOL0     H56427   8.814   5.517   9.833 -3.2622  0.5323  3.2129
  418MOL0     H56428   8.411   5.676   9.812 -0.2674  0.0814 -1.0892
  418MOL0     H56429   8.543   5.539   9.121 -0.1275 -0.8458 -3.4966
  418MOL0     H56430   8.629   5.449   8.914 -0.7066 -0.1923  1.0693
  419MOL0     O56431  10.872   1.440   5.499  0.2885 -0.6792  0.2842
  419MOL0     C56432  10.787   1.370   5.451 -0.8901  0.7911  0.5024
  419MOL0     O56433  10.648   1.387   5.463 -0.4198 -0.4049  0.0130
  419MOL0     C56434  10.614   1.509   5.531  0.0896  0.4002 -0.3699
  419MOL0     C56435  10.647   1.638   5.490 -0.5086  0.3016  0.6316
  419MOL0     C56436  10.602   1.752   5.552 -0.8896 -0.0159 -0.2555
  419MOL0     C56437  10.492   1.747   5.651  0.6199 -0.0684 -1.0825
  419MOL0     O56438  10.440   1.865   5.699 -0.1575  0.3112  0.6780
  419MOL0     C56439  10.324   1.851   5.787  0.0077 -0.9019  0.8576
  419MOL0     C56440  10.264   1.988   5.806 -0.6459  0.2363  0.4252
  419MOL0     C56441  10.178   1.994   5.934  0.4380 -0.4313 -0.0384
  419MOL0     C56442  10.112   2.128   5.912  0.0466  0.5301 -0.3439
  419MOL0     C56443  10.014   2.164   6.030 -0.4022 -0.2335 -0.0797
  419MOL0     C56444   9.888   2.079   6.034 -0.6098 -0.4560  0.0525
  419MOL0     C56445   9.799   2.134   6.148  0.2671  0.3277  1.5595
  419MOL0     C56446   9.667   2.049   6.166 -0.0053 -0.1933  0.4170
  419MOL0     N56447   9.699   1.912   6.210  0.1406  0.0053  0.2076
  419MOL0     C56448   9.711   1.862   6.338  0.0582 -0.0900 -0.0777
  419MOL0     C56449   9.726   1.729   6.321 -1.0375 -0.0571  0.2896
  419MOL0     C56450   9.750   1.629   6.434 -0.5809  0.4574 -0.7522
  419MOL0     C56451   9.823   1.509   6.391  0.4223 -0.4940  0.1528
  419MOL0     C56452   9.876   1.418   6.499 -0.3272  0.5088  0.5758
  419MOL0     C56453   9.957   1.294   6.441  0.2202 -0.1699  0.4891
  419MOL0     O56454   9.882   1.200   6.359  0.2840 -0.5249 -0.9689
  419MOL0     C56455   9.774   1.144   6.420  0.7762 -0.3075 -0.0520
  419MOL0     C56456   9.754   1.128   6.558  0.4684 -0.1512 -0.4391
  419MOL0     C56457   9.638   1.073   6.619 -0.7905 -0.9068  0.7041
  419MOL0     C56458   9.647   1.036   6.768 -0.2885 -0.3032  0.2788
  419MOL0     C56459   9.539   1.035   6.523  0.0093 -0.4423 -0.4425
  419MOL0     C56460   9.402   0.987   6.560 -0.7513  0.6015 -0.2461
  419MOL0     O56461   9.326   0.930   6.462  0.5482  0.1805  0.4949
  419MOL0     C56462   9.201   0.909   6.493  0.6961  0.5046 -0.3460
  419MOL0     C56463   9.161   0.809   6.591 -0.3207 -0.5855  0.9026
  419MOL0     C56464   9.022   0.786   6.617  0.1858  0.0840 -0.3314
  419MOL0     C56465   8.926   0.862   6.562  0.1481 -0.0876  0.6729
  419MOL0     O56466   8.798   0.815   6.587 -1.2428  0.2290 -0.0497
  419MOL0     C56467   8.696   0.897   6.531  0.0520  0.7520 -0.3622
  419MOL0     C56468   8.565   0.822   6.552 -0.0076  0.0287 -0.8507
  419MOL0     C56469   8.516   0.820   6.704 -0.2986  0.8302 -0.1451
  419MOL0     C56470   8.359   0.795   6.709 -0.6499 -0.4217 -0.4380
  419MOL0     C56471   8.303   0.832   6.849  0.0239  0.3068  0.4363
  419MOL0     C56472   8.159   0.786   6.850  0.8513  0.0423 -0.4066
  419MOL0     C56473   8.083   0.816   6.989 -1.2007  0.1752  0.2028
  419MOL0     C56474   7.928   0.780   7.012  0.8211 -0.1515  0.7829
  419MOL0    Cl56475   7.879   0.605   7.038  0.1324 -0.4601  0.1753
  419MOL0     C56476   8.966   0.974   6.475  0.2846  0.4245 -1.0748
  419MOL0     C56477   9.100   0.993   6.449 -0.7432  0.8122 -1.3433
  419MOL0     O56478   9.361   1.018   6.673 -0.1921 -0.6209  0.1922
  419MOL0     C56479   9.558   1.067   6.383  1.0009 -0.4747 -0.8545
  419MOL0     C56480   9.668   1.118   6.337  0.8331  0.8191  0.8554
  419MOL0     N56481   9.738   1.705   6.185  0.5771  0.7389  0.6413
  419MOL0     N56482   9.722   1.817   6.118 -0.3280  0.1999 -0.6000
  419MOL0     C56483  10.448   1.616   5.682  0.7525 -0.4967 -0.0461
  419MOL0     C56484  10.508   1.506   5.622  1.2506  0.3669 -0.4930
  419MOL0     C56485  10.843   1.263   5.360 -0.1108  0.3396 -0.0497
  419MOL0     C56486  10.980   1.264   5.321 -0.8661 -1.0377  0.3843
  419MOL0     C56487  11.032   1.169   5.235 -0.0233  0.0462  0.0178
  419MOL0     C56488  10.935   1.082   5.172  0.1334 -0.5892  1.0017
  419MOL0     O56489  10.952   0.996   5.072  0.0449 -0.4660 -0.5729
  419MOL0     C56490  11.082   0.989   5.007  0.2476 -0.2439 -0.3480
  419MOL0     C56491  11.055   0.950   4.862 -0.1529  1.0540 -0.2931
  419MOL0     C56492  11.005   0.808   4.846  1.0266  0.4082 -0.4159
  419MOL0     C56493  10.954   0.776   4.705 -0.1570  0.5800  0.9702
  419MOL0     C56494  11.020   0.659   4.646 -0.7626 -0.5243  0.1791
  419MOL0     C56495  11.067   0.559   4.590  0.3282 -0.5755 -0.4663
  419MOL0     C56496  10.804   1.084   5.223 -0.0075  0.2399  0.9060
  419MOL0     C56497  10.759   1.177   5.305  0.2022  0.8121  0.4864
  419MOL0     H56498  10.715   1.644   5.406  0.0289 -0.0949  1.0339
  419MOL0     H56499  10.646   1.849   5.531  2.4603 -1.2852  0.2950
  419MOL0     H56500  10.262   1.782   5.729 -1.6138  0.1827  1.2598
  419MOL0     H56501  10.355   1.813   5.885 -1.6211  0.9359  2.1480
  419MOL0     H56502  10.354   2.051   5.808 -1.2289  1.0670  0.8998
  419MOL0     H56503  10.199   2.010   5.722 -1.4979 -0.5711  0.8626
  419MOL0     H56504  10.098   1.920   5.947 -1.8082  1.8578 -0.0509
  419MOL0     H56505  10.247   1.993   6.019 -0.3357  1.2533  0.6648
  419MOL0     H56506  10.184   2.210   5.919 -0.1710  0.5964  1.5665
  419MOL0     H56507  10.060   2.126   5.816  0.0936  1.3222 -0.3924
  419MOL0     H56508  10.064   2.154   6.127  0.5019  0.0122 -0.5026
  419MOL0     H56509   9.976   2.267   6.025  0.7991  0.1833 -1.8788
  419MOL0     H56510   9.827   2.080   5.943  0.9063 -2.6580 -1.1068
  419MOL0     H56511   9.912   1.972   6.039 -1.4483 -0.7197 -1.1339
  419MOL0     H56512   9.845   2.150   6.246  0.3672  3.5191  1.0984
  419MOL0     H56513   9.769   2.236   6.121  0.0513 -0.3598 -0.9773
  419MOL0     H56514   9.616   2.056   6.070  2.6696  1.4187 -1.0265
  419MOL0     H56515   9.604   2.084   6.248 -0.4602  3.0216 -1.1579
  419MOL0     H56516   9.699   1.915   6.432 -0.2779  1.2472 -0.8486
  419MOL0     H56517   9.809   1.678   6.512 -0.6156 -1.5903  0.6575
  419MOL0     H56518   9.659   1.603   6.489  0.9004  1.3915  2.3936
  419MOL0     H56519   9.903   1.557   6.334  0.0586 -1.3205 -1.0798
  419MOL0     H56520   9.754   1.454   6.326 -1.2993  1.3799  0.3193
  419MOL0     H56521   9.793   1.383   6.561 -0.7867 -0.7897 -0.7197
  419MOL0     H56522   9.950   1.469   6.561  0.9254  0.8791 -1.1458
  419MOL0     H56523  10.007   1.239   6.521  0.2387  0.9712  1.2849
  419MOL0     H56524  10.033   1.342   6.379  1.5615 -2.7874 -0.0323
  419MOL0     H56525   9.823   1.159   6.635 -3.0593 -2.4644  4.1814
  419MOL0     H56526   9.753   1.022   6.793 -0.7035 -3.7512  0.6822
  419MOL0     H56527   9.600   1.106   6.838 -0.4514 -3.0886  3.2011
  419MOL0     H56528   9.603   0.936   6.770  0.0889 -0.4921  3.0230
  419MOL0     H56529   9.240   0.741   6.620 -0.3902 -0.3611  1.6333
  419MOL0     H56530   8.995   0.706   6.686  2.9730 -1.0206 -0.3776
  419MOL0     H56531   8.686   0.993   6.581 -1.6098  1.0865 -1.2688
  419MOL0     H56532   8.703   0.906   6.422  0.8511  0.8620 -0.3123
  419MOL0     H56533   8.488   0.869   6.491 -0.1399 -0.6167 -1.1967
  419MOL0     H56534   8.578   0.716   6.526  1.9332  0.0872 -0.2809
  419MOL0     H56535   8.543   0.921   6.738 -2.8150  1.9454 -1.1778
  419MOL0     H56536   8.559   0.741   6.766 -0.4763 -0.4090 -1.5522
  419MOL0     H56537   8.314   0.878   6.652  0.3463  0.8546  0.5830
  419MOL0     H56538   8.324   0.700   6.667  0.3169 -0.8992 -0.1957
  419MOL0     H56539   8.316   0.939   6.864 -1.6131  0.6825 -0.6337
  419MOL0     H56540   8.362   0.775   6.922  1.6358  0.8639 -0.3760
  419MOL0     H56541   8.105   0.846   6.775 -1.7662  0.7420  1.8581
  419MOL0     H56542   8.159   0.677   6.842 -2.2176 -0.2888  1.9413
  419MOL0     H56543   8.089   0.919   7.024 -2.2254 -0.9950  4.3748
  419MOL0     H56544   8.129   0.771   7.078 -0.4201  1.4629  0.4779
  419MOL0     H56545   7.881   0.816   6.920 -1.0960  0.2542  1.8806
  419MOL0     H56546   7.882   0.851   7.081 -0.5918 -0.2148 -0.0515
  419MOL0     H56547   8.890   1.044   6.441  1.4916  1.4248 -1.8139
  419MOL0     H56548   9.122   1.068   6.374  1.9515 -0.2488 -1.7466
  419MOL0     H56549   9.480   1.055   6.308  0.4943 -3.3571  0.0204
  419MOL0     H56550   9.672   1.130   6.229  2.1263 -1.3143  0.5891
  419MOL0     H56551  10.356   1.594   5.736 -0.5959 -2.0836 -2.8034
  419MOL0     H56552  10.467   1.410   5.652  1.2890  0.0952 -1.2737
  419MOL0     H56553  11.044   1.344   5.358 -1.9159 -0.7955  1.7379
  419MOL0     H56554  11.138   1.162   5.212  0.2382 -1.3864  1.5016
  419MOL0     H56555  11.128   1.088   5.000  2.3940 -1.2057 -0.6734
  419MOL0     H56556  11.140   0.914   5.062 -1.0990 -0.5774  0.6866
  419MOL0     H56557  11.151   0.944   4.810  0.6526 -3.8462  1.2470
  419MOL0     H56558  10.990   1.021   4.810  0.1322  0.7512 -1.0751
  419MOL0     H56559  10.931   0.779   4.921 -0.6197  0.9290 -1.7660
  419MOL0     H56560  11.091   0.747   4.875  1.9080  1.6044 -0.4433
  419MOL0     H56561  10.973   0.865   4.644 -0.3733  1.5347  2.2446
  419MOL0     H56562  10.848   0.750   4.708 -0.0167 -0.1766 -0.1650
  419MOL0     H56563  11.093   0.478   4.524 -1.7438 -1.3924 -0.3578
  419MOL0     H56564  10.726   1.026   5.174  0.4100  0.2480  0.2224
  419MOL0     H56565  10.656   1.169   5.339  0.7780  3.1201  3.1516
  420MOL0     O56566   3.530  10.278   1.106 -0.2846 -0.1229 -0.5620
  420MOL0     C56567   3.624  10.331   1.050 -0.2959 -0.9948  0.4455
  420MOL0     O56568   3.684  10.448   1.086  0.2354  0.0643 -0.1736
  420MOL0     C56569   3.653  10.515   1.207 -0.0527  0.7883 -0.4833
  420MOL0     C56570   3.767  10.588   1.251  1.1429 -1.2762  0.6246
  420MOL0     C56571   3.764  10.648   1.379 -0.1173 -0.4021  0.8248
  420MOL0     C56572   3.655  10.635   1.468 -1.3297 -0.5748 -0.1153
  420MOL0     O56573   3.646  10.702   1.591 -0.3424 -0.1769  0.1105
  420MOL0     C56574   3.723  10.646   1.698 -0.7070 -0.3256 -0.1673
  420MOL0     C56575   3.640  10.583   1.814  0.7388 -0.4263  0.4422
  420MOL0     C56576   3.529  10.679   1.862  0.7892 -0.0189  0.0861
  420MOL0     C56577   3.598  10.788   1.950  0.9665  0.3758  0.1536
  420MOL0     C56578   3.510  10.898   1.997 -0.2692  0.7815  0.6828
  420MOL0     C56579   3.370  10.859   2.051 -0.7628 -0.2702  0.1730
  420MOL0     C56580   3.321  10.974   2.139 -0.5541 -0.3599 -0.2622
  420MOL0     C56581   3.163  11.017   2.131 -0.5913  0.0953  0.0990
  420MOL0     N56582   3.068  10.907   2.113 -0.2175 -0.4967  0.5863
  420MOL0     C56583   3.015  10.816   2.209 -0.0140 -0.4058  0.2970
  420MOL0     C56584   2.956  10.720   2.132 -0.2002 -0.7487 -0.2019
  420MOL0     C56585   2.893  10.603   2.187  0.0323  0.1378  0.2797
  420MOL0     C56586   2.941  10.559   2.329  0.0317  0.0796  0.6778
  420MOL0     C56587   2.877  10.421   2.366  0.7481 -0.3170 -0.5315
  420MOL0     C56588   2.862  10.397   2.519  0.3273 -0.8988  0.2520
  420MOL0     O56589   2.980  10.331   2.573  0.3928 -0.0499 -0.1024
  420MOL0     C56590   3.001  10.193   2.562  0.2855 -0.2909  1.0031
  420MOL0     C56591   3.129  10.142   2.602 -1.2436  1.2376  0.0962
  420MOL0     C56592   3.156  10.002   2.586 -0.6350 -0.1801  0.5122
  420MOL0     C56593   3.300   9.965   2.623 -0.6446  0.1034 -1.0500
  420MOL0     C56594   3.064   9.917   2.534 -0.5649 -0.5777 -0.0253
  420MOL0     C56595   3.099   9.776   2.507  0.5515  0.7721 -0.1770
  420MOL0     O56596   2.990   9.684   2.528 -0.8017 -0.2303 -0.7525
  420MOL0     C56597   2.985   9.549   2.476 -1.9359 -0.6087 -0.1636
  420MOL0     C56598   2.906   9.471   2.550  0.4724 -0.0135  0.5810
  420MOL0     C56599   2.892   9.338   2.530 -0.2674 -0.9957  0.5780
  420MOL0     C56600   2.962   9.280   2.416  1.8076  0.3441 -0.1666
  420MOL0     O56601   2.926   9.143   2.379 -0.9249 -0.0987  1.2500
  420MOL0     C56602   3.001   9.036   2.434  0.0087  0.1691 -0.4324
  420MOL0     C56603   3.056   8.966   2.312  0.5425  0.2924  0.0265
  420MOL0     C56604   2.953   8.859   2.247 -0.3021  0.4038 -0.0296
  420MOL0     C56605   2.917   8.894   2.110 -0.0049  0.4203 -0.1461
  420MOL0     C56606   2.850   8.775   2.039 -0.1368 -0.4133  0.6288
  420MOL0     C56607   2.706   8.758   2.090 -0.2365  0.4291  0.1824
  420MOL0     C56608   2.659   8.611   2.080 -0.0780  0.2406  0.3810
  420MOL0     C56609   2.543   8.598   1.981 -0.3263  0.6833 -0.2844
  420MOL0    Cl56610   2.504   8.427   1.967  0.0219  0.4716 -0.3514
  420MOL0     C56611   3.044   9.360   2.342  0.6451 -0.2596  0.9070
  420MOL0     C56612   3.057   9.497   2.363 -0.7025 -0.1574 -0.1249
  420MOL0     O56613   3.210   9.743   2.481 -0.4203  0.5554  0.2387
  420MOL0     C56614   2.939   9.965   2.507 -0.0168 -0.9346  0.1801
  420MOL0     C56615   2.898  10.099   2.511 -0.2785 -0.7230 -0.3858
  420MOL0     N56616   2.956  10.750   2.001  0.2918 -0.9074 -0.4301
  420MOL0     N56617   3.031  10.855   1.987 -0.3305 -0.3119 -0.3116
  420MOL0     C56618   3.544  10.564   1.424  0.4181  0.0407 -0.1297
  420MOL0     C56619   3.543  10.497   1.298  0.2189 -0.9984 -0.3817
  420MOL0     C56620   3.664  10.273   0.924  0.2445  0.0920  0.3297
  420MOL0     C56621   3.608  10.150   0.889  0.1114 -0.4709  1.4186
  420MOL0     C56622   3.671  10.072   0.790  0.3259  0.2381 -0.1922
  420MOL0     C56623   3.749  10.133   0.691 -0.9083 -0.1194  0.1984
  420MOL0     O56624   3.800  10.082   0.572  0.1831 -0.1591  0.2779
  420MOL0     C56625   3.770   9.953   0.534 -0.2002 -0.2397 -1.1018
  420MOL0     C56626   3.838   9.908   0.408 -0.6970  0.5689  0.5890
  420MOL0     C56627   3.800  10.007   0.287 -0.7058  1.1619  0.0053
  420MOL0     C56628   3.865   9.959   0.149 -0.1658 -0.0115 -0.6329
  420MOL0     C56629   3.808  10.027   0.035  0.1017  0.3586 -0.8129
  420MOL0     C56630   3.759  10.088  -0.051  0.3605 -0.3931 -0.2344
  420MOL0     C56631   3.785  10.263   0.724  0.2060 -0.0543  0.1631
  420MOL0     C56632   3.756  10.333   0.837  0.0979 -0.5388 -0.3657
  420MOL0     H56633   3.851  10.596   1.183  0.7766 -1.4534  0.1502
  420MOL0     H56634   3.854  10.697   1.416  1.7528 -1.8026 -1.5965
  420MOL0     H56635   3.801  10.576   1.666 -1.6862 -0.4559 -2.5059
  420MOL0     H56636   3.785  10.729   1.731  2.2799 -0.4006 -4.6978
  420MOL0     H56637   3.594  10.489   1.781 -0.3997 -0.4040  1.8322
  420MOL0     H56638   3.716  10.553   1.886 -0.6642  0.6916  2.4920
  420MOL0     H56639   3.487  10.743   1.784  0.7854  1.5237  1.2759
  420MOL0     H56640   3.444  10.625   1.905  1.3370 -0.6900  0.3270
  420MOL0     H56641   3.632  10.725   2.033  0.1764 -1.2171 -0.6899
  420MOL0     H56642   3.678  10.831   1.890  0.9965 -0.8929 -0.7401
  420MOL0     H56643   3.572  10.948   2.072 -2.1082  1.9740  1.4822
  420MOL0     H56644   3.497  10.959   1.907 -0.9777 -1.7581 -1.0381
  420MOL0     H56645   3.300  10.830   1.972  0.3595 -1.3211 -0.4668
  420MOL0     H56646   3.396  10.772   2.112  1.5625 -0.4009 -0.9176
  420MOL0     H56647   3.335  10.942   2.243  2.8916 -1.0269 -0.7985
  420MOL0     H56648   3.372  11.071   2.131 -0.0082 -0.3871  2.0762
  420MOL0     H56649   3.142  11.084   2.047 -0.5895 -2.4120 -2.0142
  420MOL0     H56650   3.133  11.074   2.219 -0.0354 -0.5648  0.7266
  420MOL0     H56651   3.025  10.821   2.317 -2.3984 -0.7593  0.5854
  420MOL0     H56652   2.786  10.620   2.173 -0.2270  0.6586  2.4703
  420MOL0     H56653   2.920  10.523   2.118  0.8139  0.2699  0.4250
  420MOL0     H56654   2.901  10.626   2.405  0.5686  0.8102  0.3311
  420MOL0     H56655   3.051  10.560   2.326  0.1104 -2.6089  0.7002
  420MOL0     H56656   2.934  10.342   2.317  0.5314 -1.7080  1.3383
  420MOL0     H56657   2.777  10.441   2.328  1.1527  3.2473 -0.0692
  420MOL0     H56658   2.776  10.339   2.554  0.1302  1.0264  3.3471
  420MOL0     H56659   2.855  10.500   2.556 -0.0477 -0.6275 -0.5765
  420MOL0     H56660   3.209  10.214   2.619 -0.3747  1.1435 -3.0093
  420MOL0     H56661   3.367  10.043   2.662  0.3114 -0.8067 -0.8063
  420MOL0     H56662   3.294   9.890   2.702 -4.0951  0.8694 -0.4247
  420MOL0     H56663   3.353   9.935   2.533  1.0328  0.9579 -0.3996
  420MOL0     H56664   2.841   9.505   2.629  0.1171 -0.0033  0.2872
  420MOL0     H56665   2.818   9.289   2.594  0.4405  0.2806  2.4668
  420MOL0     H56666   3.075   9.082   2.501 -0.6457  3.4043 -1.7835
  420MOL0     H56667   2.931   8.980   2.497  1.7420  1.4869  2.9546
  420MOL0     H56668   3.100   9.032   2.238  0.3456 -0.5499 -0.8667
  420MOL0     H56669   3.131   8.895   2.348 -1.1311 -1.9991 -0.7023
  420MOL0     H56670   2.856   8.848   2.296 -2.2467  5.9873 -1.8986
  420MOL0     H56671   3.015   8.769   2.243  1.3133  1.5447 -2.1042
  420MOL0     H56672   2.863   8.989   2.102  0.0296  0.5904  1.3528
  420MOL0     H56673   3.018   8.901   2.067  1.1190 -2.0332  1.8281
  420MOL0     H56674   2.912   8.688   2.064  0.8002 -0.6060 -1.9623
  420MOL0     H56675   2.858   8.794   1.931  3.0886  0.2404  0.8728
  420MOL0     H56676   2.700   8.802   2.190 -0.8131  2.4758 -0.6988
  420MOL0     H56677   2.638   8.829   2.042  1.2383  0.1889 -2.4826
  420MOL0     H56678   2.627   8.567   2.175 -0.1835 -2.9590 -1.0111
  420MOL0     H56679   2.742   8.547   2.049  1.1840  2.7470 -1.8069
  420MOL0     H56680   2.567   8.637   1.882  0.5508 -1.4611 -0.9787
  420MOL0     H56681   2.462   8.662   2.016  0.7183  1.2903  1.1433
  420MOL0     H56682   3.106   9.312   2.268 -1.0305  0.5600 -1.1305
  420MOL0     H56683   3.133   9.550   2.305 -1.2408  1.7747  0.8386
  420MOL0     H56684   2.872   9.892   2.463 -0.6564 -0.9660  1.2007
  420MOL0     H56685   2.795  10.126   2.492 -0.1600  0.0864  0.0591
  420MOL0     H56686   3.463  10.566   1.496  1.1226  1.4068  0.6793
  420MOL0     H56687   3.462  10.428   1.280  0.2788 -1.0158 -0.5862
  420MOL0     H56688   3.538  10.092   0.949  1.6951 -0.2958  3.5359
  420MOL0     H56689   3.638   9.968   0.790  1.5784 -0.1845  0.0940
  420MOL0     H56690   3.798   9.890   0.619 -0.9900  2.5197  1.3519
  420MOL0     H56691   3.665   9.930   0.510  0.1996 -2.7761 -0.6882
  420MOL0     H56692   3.802   9.809   0.377 -0.9997  1.3304 -1.7239
  420MOL0     H56693   3.947   9.909   0.413 -0.5805  0.3650 -1.1988
  420MOL0     H56694   3.825  10.107   0.322  1.5683  0.6176  0.1206
  420MOL0     H56695   3.692  10.010   0.270 -0.6858  0.0280 -0.4315
  420MOL0     H56696   3.858   9.850   0.149  0.3841 -0.0654  0.4652
  420MOL0     H56697   3.973   9.977   0.162 -0.1831  0.1375 -0.7001
  420MOL0     H56698   3.731  10.149  -0.134  1.0179 -0.7914 -0.7631
  420MOL0     H56699   3.839  10.315   0.644  1.0456 -0.6260  0.3405
  420MOL0     H56700   3.797  10.433   0.850 -0.7622  0.2421 -2.9454
  421MOL0     O56701   4.550   6.825   4.507  0.0794 -0.2717  0.9103
  421MOL0     C56702   4.454   6.896   4.466 -0.1618  0.3026 -0.4740
  421MOL0     O56703   4.460   7.007   4.392 -0.3014  0.1166 -0.3268
  421MOL0     C56704   4.588   7.055   4.363  0.2387  0.4418  0.5758
  421MOL0     C56705   4.638   7.036   4.233 -0.0101 -0.1632 -0.4202
  421MOL0     C56706   4.763   7.073   4.193 -0.3261 -0.0793  0.9714
  421MOL0     C56707   4.854   7.130   4.280  0.0190 -1.0110 -0.0301
  421MOL0     O56708   4.978   7.168   4.238  0.2014 -1.2008 -0.0169
  421MOL0     C56709   4.969   7.283   4.150 -0.3558  0.7531 -0.1294
  421MOL0     C56710   5.105   7.333   4.115 -0.1708  0.9098 -0.0687
  421MOL0     C56711   5.113   7.434   4.003  0.2829  0.9101  0.8193
  421MOL0     C56712   5.049   7.384   3.874 -0.1374 -0.9668 -0.2556
  421MOL0     C56713   5.079   7.472   3.746  0.1360  0.2820 -0.0833
  421MOL0     C56714   5.065   7.624   3.752  0.7301 -0.6450 -0.1887
  421MOL0     C56715   4.922   7.675   3.794  0.4103 -0.0592  0.1586
  421MOL0     C56716   4.921   7.828   3.826  0.5757  0.4080  0.0280
  421MOL0     N56717   4.951   7.856   3.966 -0.6495 -0.6029  1.0759
  421MOL0     C56718   4.906   7.954   4.045  0.3074 -0.1261  0.1316
  421MOL0     C56719   4.962   7.938   4.166 -0.4230  1.2034  0.4870
  421MOL0     C56720   4.949   8.033   4.278 -0.2716 -0.2446  0.2501
  421MOL0     C56721   4.837   7.980   4.371 -0.2160  0.1202 -0.0837
  421MOL0     C56722   4.876   7.838   4.434  0.1822  0.1498  0.4397
  421MOL0     C56723   4.776   7.796   4.546 -1.0218 -0.5068  0.1517
  421MOL0     O56724   4.778   7.897   4.654  0.7077  0.1188  0.5191
  421MOL0     C56725   4.869   7.889   4.762 -0.6654 -0.3437 -0.2454
  421MOL0     C56726   4.983   7.817   4.755 -0.5271 -0.1471  0.3693
  421MOL0     C56727   5.085   7.829   4.852 -0.8720  0.1980  0.0568
  421MOL0     C56728   5.207   7.743   4.821 -0.7296 -0.3006 -0.2329
  421MOL0     C56729   5.072   7.934   4.952  0.2571  0.3453 -0.4348
  421MOL0     C56730   5.177   7.952   5.054 -1.0564 -0.2830  0.3224
  421MOL0     O56731   5.311   7.962   5.011 -0.3177 -0.1752 -0.3965
  421MOL0     C56732   5.402   8.004   5.103  0.2341  0.6219 -0.4548
  421MOL0     C56733   5.437   8.134   5.120 -0.7538 -0.7787  0.6543
  421MOL0     C56734   5.532   8.169   5.214  0.6739  0.2194  1.2153
  421MOL0     C56735   5.585   8.069   5.309 -0.5438  0.4644 -0.8380
  421MOL0     O56736   5.659   8.128   5.417  0.3615  0.7751  0.1480
  421MOL0     C56737   5.611   8.087   5.549  0.7521 -0.1104  0.2176
  421MOL0     C56738   5.706   8.156   5.652 -0.1996 -0.1397 -0.2198
  421MOL0     C56739   5.670   8.096   5.792  0.1774  0.1922  0.2385
  421MOL0     C56740   5.527   8.110   5.845  0.1682  0.3614  0.1850
  421MOL0     C56741   5.526   8.059   5.994  0.5479  0.2722  1.2069
  421MOL0     C56742   5.387   8.086   6.066 -0.0950 -0.1596 -0.4366
  421MOL0     C56743   5.379   7.992   6.188 -0.5530  0.3732 -0.0157
  421MOL0     C56744   5.464   8.045   6.302  0.0951  0.2189  0.3496
  421MOL0    Cl56745   5.367   8.055   6.458  0.3016 -0.4355  0.3306
  421MOL0     C56746   5.536   7.935   5.297  0.4642  0.2809 -0.0170
  421MOL0     C56747   5.445   7.902   5.194  0.2139  0.1075  0.0313
  421MOL0     O56748   5.137   7.948   5.169 -0.2730 -0.4531 -0.1894
  421MOL0     C56749   4.954   8.010   4.949 -0.6826  0.2517 -0.4354
  421MOL0     C56750   4.851   7.981   4.864 -0.3482  0.2126 -0.1244
  421MOL0     N56751   5.062   7.846   4.149 -0.5802  0.1094  0.5624
  421MOL0     N56752   5.053   7.798   4.027  0.3195  1.1724 -0.6258
  421MOL0     C56753   4.808   7.163   4.413 -0.3372  0.0588  0.0621
  421MOL0     C56754   4.680   7.126   4.452  0.6885  0.7475 -0.0036
  421MOL0     C56755   4.315   6.855   4.498 -1.3308 -0.2985  0.2226
  421MOL0     C56756   4.281   6.756   4.594  0.1806 -0.3386 -0.7134
  421MOL0     C56757   4.138   6.733   4.623  0.4619  0.3310 -0.3011
  421MOL0     C56758   4.037   6.789   4.548  0.1180  0.5090  1.1024
  421MOL0     O56759   3.914   6.745   4.588  0.4214  0.1689 -1.0434
  421MOL0     C56760   3.815   6.851   4.570  0.3677 -0.9046  0.0308
  421MOL0     C56761   3.694   6.798   4.645 -0.5907 -0.4426  0.3835
  421MOL0     C56762   3.611   6.704   4.557 -0.4635  0.5024  0.4353
  421MOL0     C56763   3.492   6.652   4.646 -0.7194  0.2024 -0.2203
  421MOL0     C56764   3.457   6.515   4.624 -0.1052 -0.5504  1.0228
  421MOL0     C56765   3.453   6.397   4.603 -0.3630 -1.2666 -0.3355
  421MOL0     C56766   4.077   6.868   4.435  0.0639 -0.0056 -1.1609
  421MOL0     C56767   4.213   6.903   4.411  0.7925  0.1954  0.5692
  421MOL0     H56768   4.565   6.990   4.167  0.2066 -0.5146 -0.4201
  421MOL0     H56769   4.788   7.062   4.088 -1.7545 -0.0406  0.6070
  421MOL0     H56770   4.925   7.258   4.053  3.0393 -0.6415 -1.4802
  421MOL0     H56771   4.910   7.365   4.191 -0.2159  1.2493 -0.8961
  421MOL0     H56772   5.151   7.379   4.202 -3.8871  4.1187  0.4789
  421MOL0     H56773   5.152   7.238   4.088  1.4049  1.1314  1.7585
  421MOL0     H56774   5.066   7.528   4.034 -3.1586 -0.0575 -0.9058
  421MOL0     H56775   5.218   7.457   3.983  1.4306 -2.4982  2.2258
  421MOL0     H56776   5.077   7.279   3.862  0.1102 -0.8127 -1.0927
  421MOL0     H56777   4.940   7.389   3.888 -0.1706 -2.1061  0.0027
  421MOL0     H56778   5.183   7.455   3.717  0.0129 -0.4701 -0.0809
  421MOL0     H56779   5.014   7.443   3.662  0.5655 -0.4839 -0.1534
  421MOL0     H56780   5.137   7.663   3.824 -0.6660  0.1112  0.8448
  421MOL0     H56781   5.095   7.663   3.654  0.6470 -1.5160 -0.5717
  421MOL0     H56782   4.856   7.666   3.707  2.7765 -0.3263 -1.7047
  421MOL0     H56783   4.893   7.619   3.883 -1.9487  0.6873 -0.0587
  421MOL0     H56784   4.828   7.879   3.800  0.6480  0.4721 -0.1040
  421MOL0     H56785   4.998   7.883   3.771  1.2840  1.5398  2.0496
  421MOL0     H56786   4.822   8.021   4.027 -0.2234 -0.1721  2.2178
  421MOL0     H56787   5.040   8.041   4.337 -1.6190 -3.6001  3.1056
  421MOL0     H56788   4.923   8.135   4.247  2.5131 -0.0527 -1.7658
  421MOL0     H56789   4.737   7.976   4.328  0.2056  2.2657 -1.4348
  421MOL0     H56790   4.836   8.058   4.448 -1.2860  0.5458 -0.5100
  421MOL0     H56791   4.969   7.864   4.487  0.3437  1.4640 -0.4286
  421MOL0     H56792   4.896   7.770   4.351 -1.8471  1.1774 -0.9560
  421MOL0     H56793   4.805   7.703   4.595  0.5019  1.3968  3.1544
  421MOL0     H56794   4.673   7.775   4.514 -0.1844 -1.9685 -1.7573
  421MOL0     H56795   4.998   7.750   4.671 -3.0144 -1.0999  0.5903
  421MOL0     H56796   5.186   7.649   4.872  0.0387  0.6526  1.9939
  421MOL0     H56797   5.221   7.720   4.715  0.6250 -2.1965  0.3051
  421MOL0     H56798   5.300   7.782   4.863 -0.5622 -1.4392  0.4990
  421MOL0     H56799   5.396   8.212   5.056  1.9045 -0.2312 -0.5341
  421MOL0     H56800   5.563   8.273   5.221  0.0631  0.3656  1.8088
  421MOL0     H56801   5.509   8.123   5.566  1.7866  1.8977  2.9601
  421MOL0     H56802   5.621   7.978   5.552 -2.0688 -0.5224 -1.4706
  421MOL0     H56803   5.809   8.120   5.644 -0.2409  0.2110 -3.2031
  421MOL0     H56804   5.708   8.265   5.650 -3.8126  0.2419  3.3986
  421MOL0     H56805   5.737   8.138   5.868 -0.3890  0.3356  0.6717
  421MOL0     H56806   5.686   7.988   5.793  0.3137  0.2118  0.1709
  421MOL0     H56807   5.489   8.212   5.841 -1.9529 -0.3044  1.6805
  421MOL0     H56808   5.461   8.060   5.775  2.3835 -3.0320  0.2863
  421MOL0     H56809   5.602   8.117   6.047  2.0217  1.5638 -2.0538
  421MOL0     H56810   5.562   7.957   6.010  0.4854  0.6196  4.1691
  421MOL0     H56811   5.359   8.189   6.091 -0.8968  0.4765 -3.5570
  421MOL0     H56812   5.304   8.055   6.003  0.1936 -5.3272  1.2843
  421MOL0     H56813   5.427   7.897   6.161 -0.8061 -0.1134  1.1893
  421MOL0     H56814   5.276   7.970   6.218 -0.1690 -1.7905 -0.1095
  421MOL0     H56815   5.474   8.148   6.265  2.0326  0.2698  0.8684
  421MOL0     H56816   5.564   8.002   6.310 -1.2737 -2.8038  4.1259
  421MOL0     H56817   5.578   7.857   5.359 -1.5440 -0.7196  0.1554
  421MOL0     H56818   5.415   7.799   5.179 -1.4941  0.5430  0.2395
  421MOL0     H56819   4.921   8.074   5.030  1.6220 -0.2431  1.0126
  421MOL0     H56820   4.763   8.044   4.858 -2.7871 -2.7438  1.3699
  421MOL0     H56821   4.870   7.215   4.485  0.0631 -0.5418  0.1532
  421MOL0     H56822   4.655   7.136   4.557 -1.9997 -2.8139 -0.1180
  421MOL0     H56823   4.359   6.708   4.652 -0.2406  1.7226  1.7813
  421MOL0     H56824   4.127   6.670   4.711  3.0688  2.9152  2.0881
  421MOL0     H56825   3.858   6.939   4.619 -0.7337 -1.6667  2.5059
  421MOL0     H56826   3.795   6.880   4.467 -3.6160 -0.8201  0.6780
  421MOL0     H56827   3.631   6.879   4.684  1.6752  1.6489 -0.1260
  421MOL0     H56828   3.716   6.742   4.736  1.0483  0.3222  0.4884
  421MOL0     H56829   3.668   6.620   4.517  0.2432  1.1865 -0.0312
  421MOL0     H56830   3.575   6.761   4.471 -2.9959 -0.3891  0.8320
  421MOL0     H56831   3.414   6.724   4.621 -1.7316 -0.0556  1.9534
  421MOL0     H56832   3.520   6.653   4.751  3.8754 -1.3674 -1.1897
  421MOL0     H56833   3.448   6.290   4.592 -1.8778 -1.5305  2.1645
  421MOL0     H56834   3.996   6.909   4.374  0.0941  3.7385  0.9685
  421MOL0     H56835   4.233   6.968   4.326 -2.5907 -3.4577 -3.5434
  422MOL0     O56836   5.799  11.288   2.062 -0.9863  0.4953  0.0790
  422MOL0     C56837   5.782  11.410   2.035  0.4317  0.2481 -0.0174
  422MOL0     O56838   5.858  11.491   1.965  0.5854 -0.8965  0.3506
  422MOL0     C56839   5.985  11.452   1.959 -0.0365  0.3857  0.9233
  422MOL0     C56840   6.027  11.401   1.835  0.3877 -0.2598  0.0568
  422MOL0     C56841   6.161  11.352   1.825  0.0938  0.4005  0.6143
  422MOL0     C56842   6.241  11.356   1.934  0.1449 -0.4217  0.4067
  422MOL0     O56843   6.374  11.341   1.902 -0.2801 -0.6329 -0.0641
  422MOL0     C56844   6.475  11.367   2.002  0.3800  0.8065  0.6273
  422MOL0     C56845   6.571  11.480   1.952  0.9826 -1.0302 -1.1055
  422MOL0     C56846   6.679  11.503   2.059 -0.5928  0.8684 -0.3190
  422MOL0     C56847   6.652  11.637   2.118  0.1753 -0.6052 -0.4216
  422MOL0     C56848   6.774  11.686   2.191  0.0556  0.0213  0.4283
  422MOL0     C56849   6.754  11.830   2.248  0.2405 -0.2180  0.9692
  422MOL0     C56850   6.898  11.886   2.292 -0.1754  0.7255  0.2118
  422MOL0     C56851   6.944  11.825   2.424 -0.3091 -0.5855  0.1224
  422MOL0     N56852   6.850  11.837   2.539 -0.3585 -0.6822  0.7547
  422MOL0     C56853   6.866  11.921   2.646  0.1846 -0.1418 -0.8417
  422MOL0     C56854   6.783  11.857   2.744  0.3895 -1.0633  0.0791
  422MOL0     C56855   6.779  11.900   2.883  0.6042  0.1022 -0.4644
  422MOL0     C56856   6.910  11.917   2.954  0.2244  0.5513 -0.4628
  422MOL0     C56857   6.942  11.777   3.009  0.5554 -0.4045 -0.3380
  422MOL0     C56858   7.090  11.745   3.013 -0.6840 -0.7066  1.2494
  422MOL0     O56859   7.147  11.763   2.885 -0.2847  0.0914 -0.6775
  422MOL0     C56860   7.278  11.716   2.863  0.2908 -0.2500 -0.6684
  422MOL0     C56861   7.304  11.704   2.726  0.2639 -0.6942 -0.0873
  422MOL0     C56862   7.424  11.652   2.675 -0.5843 -0.6553  0.4829
  422MOL0     C56863   7.441  11.654   2.521  0.7910  0.6219  0.2197
  422MOL0     C56864   7.518  11.607   2.773 -0.1096  0.3875  1.3522
  422MOL0     C56865   7.642  11.549   2.736  0.4876 -1.1311  0.9151
  422MOL0     O56866   7.662  11.421   2.773  0.4779  0.2737  0.3508
  422MOL0     C56867   7.770  11.339   2.753  0.7995 -0.2659  0.5593
  422MOL0     C56868   7.734  11.202   2.778  0.0399 -0.4372  0.6961
  422MOL0     C56869   7.832  11.103   2.755 -0.4859 -0.1290  0.0401
  422MOL0     C56870   7.963  11.137   2.700  0.2228 -0.4445 -0.4145
  422MOL0     O56871   8.049  11.037   2.679  0.6577  0.1431  0.4167
  422MOL0     C56872   8.098  11.035   2.547  0.2479  0.4654 -0.2966
  422MOL0     C56873   8.153  10.891   2.504  0.5891 -0.6168  0.6305
  422MOL0     C56874   8.266  10.845   2.600  0.8403  1.0481  0.4478
  422MOL0     C56875   8.335  10.716   2.560  0.1278 -0.2224 -0.4872
  422MOL0     C56876   8.255  10.587   2.532 -0.7773  1.3554  0.5880
  422MOL0     C56877   8.347  10.465   2.513 -0.5243 -0.4403 -0.7412
  422MOL0     C56878   8.264  10.344   2.511 -0.1229 -0.4132  0.7884
  422MOL0     C56879   8.329  10.225   2.446 -0.1791 -0.5139 -1.0790
  422MOL0    Cl56880   8.488  10.202   2.538  0.1436  0.2028 -0.1860
  422MOL0     C56881   7.986  11.272   2.671 -0.6026 -0.7147 -0.6077
  422MOL0     C56882   7.886  11.375   2.696  0.1422  0.9618  1.2481
  422MOL0     O56883   7.715  11.621   2.663 -0.1068 -0.0893  0.0869
  422MOL0     C56884   7.489  11.625   2.911  0.0585  0.4414  0.6160
  422MOL0     C56885   7.377  11.678   2.954  0.2084 -0.4459 -0.3220
  422MOL0     N56886   6.734  11.741   2.695 -0.4276  0.0924 -0.4195
  422MOL0     N56887   6.769  11.731   2.571  0.0482  0.5201  0.9244
  422MOL0     C56888   6.187  11.405   2.054 -0.8968  0.4692 -0.0821
  422MOL0     C56889   6.061  11.451   2.067  0.1740 -0.5899 -0.0394
  422MOL0     C56890   5.655  11.469   2.076  0.2921  0.0049  0.4228
  422MOL0     C56891   5.551  11.383   2.125  0.1296  0.2713 -1.0814
  422MOL0     C56892   5.428  11.438   2.162  0.3577  0.2041  0.2937
  422MOL0     C56893   5.396  11.575   2.125 -1.4468  0.1799 -0.0451
  422MOL0     O56894   5.266  11.614   2.143 -0.1539  0.0466  0.2208
  422MOL0     C56895   5.240  11.720   2.229 -0.3246 -0.4059 -0.2862
  422MOL0     C56896   5.097  11.772   2.230 -0.1158  0.0801 -0.1949
  422MOL0     C56897   5.081  11.847   2.100  0.0748 -0.3991  0.1442
  422MOL0     C56898   4.944  11.807   2.048 -0.1716 -0.6990 -0.3136
  422MOL0     C56899   4.930  11.829   1.899  1.0671  0.9642 -0.3495
  422MOL0     C56900   4.919  11.822   1.781 -0.4147 -0.6940 -0.5776
  422MOL0     C56901   5.503  11.662   2.089  0.6516 -0.6743  0.8856
  422MOL0     C56902   5.627  11.606   2.069 -0.6324  1.1765  0.1740
  422MOL0     H56903   5.968  11.416   1.745  1.2283  2.0780 -0.1814
  422MOL0     H56904   6.198  11.308   1.732 -1.6928 -0.2452  0.1704
  422MOL0     H56905   6.443  11.397   2.102  0.6162  1.5457  0.4875
  422MOL0     H56906   6.526  11.273   2.024 -3.1583 -1.1396  1.1381
  422MOL0     H56907   6.605  11.439   1.857  0.5900 -0.8595 -1.3237
  422MOL0     H56908   6.515  11.572   1.935  1.8747  0.4195  2.8060
  422MOL0     H56909   6.688  11.418   2.128 -2.4117  0.1563 -0.9020
  422MOL0     H56910   6.774  11.503   2.004 -0.9996 -0.3056 -1.0697
  422MOL0     H56911   6.634  11.716   2.045  0.5790  0.8269  0.9639
  422MOL0     H56912   6.564  11.622   2.182  0.7947 -0.6456  0.4487
  422MOL0     H56913   6.783  11.619   2.277 -2.1326  1.9706  2.3345
  422MOL0     H56914   6.860  11.679   2.124 -0.2366 -0.5412  0.0963
  422MOL0     H56915   6.720  11.889   2.162 -1.8551 -1.6415  0.7615
  422MOL0     H56916   6.670  11.833   2.318 -3.2226 -1.2346 -2.7460
  422MOL0     H56917   6.975  11.871   2.216  0.7520 -2.0765  1.5329
  422MOL0     H56918   6.881  11.990   2.320 -2.5654 -0.4698  3.9490
  422MOL0     H56919   7.038  11.874   2.451 -0.1444 -0.6420 -0.3282
  422MOL0     H56920   6.972  11.720   2.409  1.3641 -0.2389  0.5470
  422MOL0     H56921   6.939  12.002   2.654  0.9648 -0.7980 -1.1130
  422MOL0     H56922   6.738  12.001   2.877 -1.3251 -0.6444 -0.3128
  422MOL0     H56923   6.715  11.836   2.944  1.0916  0.0401 -0.0115
  422MOL0     H56924   6.907  11.983   3.041  4.0382 -0.1259  0.3527
  422MOL0     H56925   6.990  11.957   2.892 -0.1722  3.1130  0.5719
  422MOL0     H56926   6.912  11.704   2.934  0.0249  0.1573 -0.6812
  422MOL0     H56927   6.898  11.746   3.105  1.4471 -1.2918 -0.1993
  422MOL0     H56928   7.095  11.641   3.047  1.1752 -0.7212  1.0252
  422MOL0     H56929   7.131  11.809   3.091 -0.7170  0.1955  0.5393
  422MOL0     H56930   7.227  11.732   2.655 -0.1041 -0.5971  0.3378
  422MOL0     H56931   7.485  11.749   2.490 -0.2584  1.1811  0.4286
  422MOL0     H56932   7.504  11.574   2.479  0.1531  0.9780 -1.4925
  422MOL0     H56933   7.346  11.635   2.470  0.2416 -0.2329  1.5125
  422MOL0     H56934   7.632  11.166   2.789 -0.3644  0.5678  0.3953
  422MOL0     H56935   7.822  10.996   2.768 -0.0081 -0.1594  0.1743
  422MOL0     H56936   8.045  11.067   2.456  2.2041  1.2257 -1.2277
  422MOL0     H56937   8.193  11.089   2.546  0.7827 -0.3696  1.5102
  422MOL0     H56938   8.062  10.830   2.503 -0.8108  1.1378  3.8538
  422MOL0     H56939   8.203  10.893   2.407  1.2658 -3.1121  0.8419
  422MOL0     H56940   8.222  10.832   2.700  0.8728 -0.4963  0.2806
  422MOL0     H56941   8.345  10.918   2.621  1.6698 -0.2426  2.1474
  422MOL0     H56942   8.394  10.748   2.473  2.5983  1.7723  1.7714
  422MOL0     H56943   8.400  10.701   2.646 -1.7622 -1.2871  0.8389
  422MOL0     H56944   8.188  10.608   2.448  0.3046  2.7684  0.0346
  422MOL0     H56945   8.198  10.571   2.624  1.4682  0.6638  1.9606
  422MOL0     H56946   8.414  10.479   2.427 -1.5991  1.4565 -1.3348
  422MOL0     H56947   8.415  10.449   2.597  1.2154 -1.0456 -2.2118
  422MOL0     H56948   8.171  10.365   2.459 -1.6400 -1.0491  3.0716
  422MOL0     H56949   8.230  10.311   2.610 -2.3072  0.2746  0.3166
  422MOL0     H56950   8.352  10.242   2.340 -0.1248  0.3660 -0.9308
  422MOL0     H56951   8.266  10.137   2.463 -2.4391  0.9725 -1.2460
  422MOL0     H56952   8.069  11.304   2.610 -0.7949  1.1441  0.0146
  422MOL0     H56953   7.921  11.474   2.667 -1.3302  0.2367 -4.2479
  422MOL0     H56954   7.565  11.577   2.972 -0.3931  0.4248  1.1731
  422MOL0     H56955   7.360  11.689   3.061 -2.9088  2.2210 -0.9608
  422MOL0     H56956   6.247  11.412   2.145  3.0895  2.6940 -2.5759
  422MOL0     H56957   6.011  11.483   2.158 -1.7705 -0.3576 -1.1208
  422MOL0     H56958   5.565  11.279   2.155  0.4789  1.2483  2.6109
  422MOL0     H56959   5.352  11.373   2.204  0.0678 -2.0265 -3.2912
  422MOL0     H56960   5.252  11.694   2.334 -0.9562  3.4907  0.9239
  422MOL0     H56961   5.304  11.806   2.209  2.3425 -2.7114 -2.6570
  422MOL0     H56962   5.070  11.835   2.316 -1.7430 -1.1502  0.2505
  422MOL0     H56963   5.029  11.689   2.249 -0.4907  0.4448  0.0701
  422MOL0     H56964   5.163  11.832   2.030  0.2908 -1.5178  0.6193
  422MOL0     H56965   5.079  11.956   2.115 -1.3625 -0.3823 -0.0617
  422MOL0     H56966   4.857  11.866   2.079 -2.0071  0.1167 -5.9083
  422MOL0     H56967   4.915  11.705   2.075 -3.2826  0.1562  0.0332
  422MOL0     H56968   4.911  11.814   1.674  2.1644  1.2682 -1.0221
  422MOL0     H56969   5.502  11.769   2.070  1.2502 -0.4054  2.2404
  422MOL0     H56970   5.714  11.668   2.051  0.0949 -0.0717 -0.7671
  423MOL0     O56971   0.777   2.091   4.018  0.0655 -0.4008 -0.3637
  423MOL0     C56972   0.811   2.072   4.136 -0.2331 -0.3265 -0.0760
  423MOL0     O56973   0.890   1.968   4.179 -0.9721  0.1045  0.1933
  423MOL0     C56974   0.961   1.889   4.102 -0.4410 -0.0924 -0.7192
  423MOL0     C56975   1.050   1.939   4.005  0.2978  0.0784  0.6012
  423MOL0     C56976   1.129   1.848   3.936  0.0497 -0.6753 -0.1328
  423MOL0     C56977   1.141   1.711   3.970 -0.3246 -0.0417 -1.2653
  423MOL0     O56978   1.234   1.638   3.914 -0.1228  0.9405 -0.6354
  423MOL0     C56979   1.220   1.500   3.925  0.5485  0.6961 -0.0354
  423MOL0     C56980   1.310   1.400   3.831  0.2825  0.4204  0.0485
  423MOL0     C56981   1.311   1.263   3.868 -0.5369  0.3722 -0.5101
  423MOL0     C56982   1.171   1.208   3.898 -0.5705 -0.2269 -0.1230
  423MOL0     C56983   1.185   1.051   3.894 -0.1666 -0.5967  0.4474
  423MOL0     C56984   1.050   0.987   3.894  0.5919  0.5637 -0.2489
  423MOL0     C56985   0.963   0.990   4.028  0.2776 -0.0044  0.0720
  423MOL0     C56986   0.846   1.096   4.034  0.5961 -0.3859  0.0571
  423MOL0     N56987   0.836   1.149   4.170  0.6432  0.4759 -0.3758
  423MOL0     C56988   0.911   1.243   4.227 -0.2037  0.0966  0.3339
  423MOL0     C56989   0.853   1.262   4.342  0.5106  0.1609 -0.5496
  423MOL0     C56990   0.900   1.362   4.442 -0.6645 -0.1558 -1.0445
  423MOL0     C56991   0.836   1.503   4.430 -0.1433 -0.0874 -1.1314
  423MOL0     C56992   0.947   1.609   4.460 -0.5912 -0.0717  0.3361
  423MOL0     C56993   0.956   1.643   4.605  0.6133  0.1469 -0.5807
  423MOL0     O56994   0.833   1.683   4.673  0.0040  0.3083  0.7579
  423MOL0     C56995   0.829   1.676   4.809 -0.1548  0.1205  1.0731
  423MOL0     C56996   0.699   1.704   4.852 -0.3630  1.1847 -0.5625
  423MOL0     C56997   0.668   1.709   4.994  0.1228 -1.0561  0.6898
  423MOL0     C56998   0.529   1.727   5.030  0.4462  0.1674  0.1553
  423MOL0     C56999   0.782   1.720   5.080 -0.3263  0.8651  0.5457
  423MOL0     C57000   0.777   1.763   5.226  0.9167  1.1790  0.0328
  423MOL0     O57001   0.896   1.785   5.285 -0.1666 -0.3381 -0.6957
  423MOL0     C57002   0.881   1.858   5.402 -0.0334 -0.8273 -0.0480
  423MOL0     C57003   0.890   1.788   5.524 -0.2254  0.7588  0.2450
  423MOL0     C57004   0.887   1.862   5.644  0.0869 -0.3370  0.5952
  423MOL0     C57005   0.880   2.007   5.640  0.1643  1.3385  0.3214
  423MOL0     O57006   0.864   2.087   5.749 -0.1943  0.3104 -0.2460
  423MOL0     C57007   0.974   2.078   5.841  0.2024  0.2231 -0.4463
  423MOL0     C57008   0.945   2.181   5.958 -0.7159  0.8481  0.9370
  423MOL0     C57009   1.056   2.169   6.064 -0.3799  0.1514 -0.1899
  423MOL0     C57010   1.206   2.192   6.008 -0.7814  0.1197  0.8059
  423MOL0     C57011   1.303   2.159   6.126  0.4404  0.0106  0.5649
  423MOL0     C57012   1.447   2.179   6.083 -0.1537 -0.0799 -0.0196
  423MOL0     C57013   1.541   2.175   6.199  0.2905  0.4524  0.2330
  423MOL0     C57014   1.685   2.150   6.160  0.0636  0.0954  0.1492
  423MOL0    Cl57015   1.783   2.290   6.100  0.2182  0.1602  0.3596
  423MOL0     C57016   0.869   2.074   5.519  0.6014  1.0025  1.1224
  423MOL0     C57017   0.866   2.001   5.398  0.0176 -0.1365 -0.2056
  423MOL0     O57018   0.670   1.753   5.288  0.2643 -0.2451  0.3313
  423MOL0     C57019   0.910   1.687   5.024  0.3268 -0.3211 -0.7052
  423MOL0     C57020   0.938   1.665   4.888  0.8605 -0.8018  0.2125
  423MOL0     N57021   0.756   1.170   4.374 -0.5104  0.1848  0.8248
  423MOL0     N57022   0.738   1.113   4.259  0.8419 -0.3347  0.1887
  423MOL0     C57023   1.046   1.665   4.070  0.4606 -0.0872  0.2254
  423MOL0     C57024   0.958   1.754   4.138  0.2621 -0.1084  0.0355
  423MOL0     C57025   0.745   2.171   4.233 -0.2464 -0.0893  0.5313
  423MOL0     C57026   0.795   2.181   4.362  0.0165 -1.0874 -0.3980
  423MOL0     C57027   0.751   2.281   4.458  0.1565  0.2281 -0.1780
  423MOL0     C57028   0.653   2.373   4.410 -0.2655 -0.0168 -0.3631
  423MOL0     O57029   0.625   2.492   4.478 -0.4122 -0.3854 -1.0298
  423MOL0     C57030   0.566   2.474   4.610 -0.4402 -0.2187  0.3128
  423MOL0     C57031   0.433   2.556   4.629  0.0524  0.1214  0.6893
  423MOL0     C57032   0.461   2.699   4.602 -1.6849  0.5028  0.9222
  423MOL0     C57033   0.334   2.773   4.555  0.6252 -0.0011  0.0374
  423MOL0     C57034   0.326   2.784   4.404 -0.7901 -0.5984 -0.9291
  423MOL0     C57035   0.308   2.802   4.290 -0.0221  0.4589 -0.3175
  423MOL0     C57036   0.594   2.358   4.285  0.2461  0.5368 -0.5318
  423MOL0     C57037   0.641   2.262   4.196 -0.3736 -0.0628 -0.0189
  423MOL0     H57038   1.049   2.045   3.982  1.1032  0.1498  0.8410
  423MOL0     H57039   1.193   1.885   3.856  0.4682 -0.0976  0.4643
  423MOL0     H57040   1.237   1.463   4.026 -1.5070 -1.7425 -0.4692
  423MOL0     H57041   1.120   1.468   3.893 -1.1182  3.5019  1.9123
  423MOL0     H57042   1.267   1.394   3.731 -0.8619 -1.1232  0.5963
  423MOL0     H57043   1.416   1.427   3.835  0.3993  0.0442 -0.3854
  423MOL0     H57044   1.363   1.224   3.781 -0.4876  1.3879 -0.9554
  423MOL0     H57045   1.382   1.252   3.951 -3.2519 -0.1586  1.9075
  423MOL0     H57046   1.127   1.249   3.990  0.4658  1.1913 -0.2243
  423MOL0     H57047   1.113   1.244   3.813 -0.8026  2.0016  0.9051
  423MOL0     H57048   1.240   1.034   3.800 -0.2899 -1.6978  0.5656
  423MOL0     H57049   1.248   1.011   3.974  0.3293  0.2698  0.5085
  423MOL0     H57050   0.988   1.026   3.813  0.2285  0.2676 -0.1127
  423MOL0     H57051   1.070   0.886   3.857  0.1628  0.1164  0.7276
  423MOL0     H57052   0.921   0.890   4.044  0.7485 -0.9193 -3.5336
  423MOL0     H57053   1.033   1.021   4.106 -1.0327  1.0930  0.8363
  423MOL0     H57054   0.752   1.051   3.999 -0.2664  2.8644 -2.3618
  423MOL0     H57055   0.873   1.171   3.959 -0.1087 -3.5363 -3.6995
  423MOL0     H57056   0.998   1.298   4.191 -2.4290  3.1397 -0.7889
  423MOL0     H57057   0.880   1.318   4.541 -2.8913  1.1332 -0.8454
  423MOL0     H57058   1.009   1.369   4.436 -0.4812  0.3944  1.6536
  423MOL0     H57059   0.748   1.519   4.493  0.0643  2.5870 -1.4328
  423MOL0     H57060   0.799   1.515   4.328 -1.2921  1.6041 -0.5608
  423MOL0     H57061   0.923   1.703   4.409  0.2624 -1.4972 -2.9934
  423MOL0     H57062   1.047   1.582   4.425 -0.4391 -0.5973  1.1581
  423MOL0     H57063   1.040   1.708   4.630  0.7775 -0.8439  1.6937
  423MOL0     H57064   0.980   1.545   4.648 -0.3304 -0.2995 -1.0478
  423MOL0     H57065   0.620   1.693   4.779 -3.0261 -2.0511  2.4377
  423MOL0     H57066   0.494   1.673   5.118 -0.3618 -1.2127 -0.9725
  423MOL0     H57067   0.507   1.834   5.042  1.2848  0.3964 -0.2790
  423MOL0     H57068   0.468   1.681   4.951 -0.0617  1.4993 -0.2532
  423MOL0     H57069   0.884   1.680   5.527  0.8503  0.6578 -0.5796
  423MOL0     H57070   0.896   1.821   5.745  1.5071 -0.1943  0.5591
  423MOL0     H57071   0.988   1.979   5.885 -0.3661  0.9621  1.5547
  423MOL0     H57072   1.062   2.117   5.790 -0.7252  0.5697 -1.8376
  423MOL0     H57073   0.939   2.282   5.916  1.7901  0.4266 -0.6396
  423MOL0     H57074   0.854   2.148   6.010 -0.6080 -2.0061 -0.4845
  423MOL0     H57075   1.052   2.072   6.112  1.2056 -0.6093 -1.5021
  423MOL0     H57076   1.036   2.250   6.134  1.2207 -0.5771  1.1687
  423MOL0     H57077   1.229   2.119   5.931 -0.2981  0.5456  0.5329
  423MOL0     H57078   1.226   2.297   5.981  1.4124 -0.3881  0.2214
  423MOL0     H57079   1.286   2.058   6.164  1.6389 -2.2062 -4.0205
  423MOL0     H57080   1.288   2.224   6.212  1.5763 -0.3566  1.0443
  423MOL0     H57081   1.465   2.099   6.011 -0.3399  1.9951 -2.5439
  423MOL0     H57082   1.456   2.276   6.032  0.1604  0.0225  0.2240
  423MOL0     H57083   1.529   2.088   6.265  0.8410 -1.4227 -1.9961
  423MOL0     H57084   1.536   2.266   6.259  1.0572  0.5006  0.2355
  423MOL0     H57085   1.674   2.085   6.073 -0.4311  0.8527 -0.3656
  423MOL0     H57086   1.734   2.091   6.238  0.0028 -1.2353 -0.7989
  423MOL0     H57087   0.862   2.182   5.517  2.6867  1.1838  1.1525
  423MOL0     H57088   0.863   2.048   5.300  3.4337 -1.4322 -1.0450
  423MOL0     H57089   0.997   1.685   5.088 -0.5074 -1.6427  0.4380
  423MOL0     H57090   1.040   1.657   4.852  0.2233  1.0532 -2.2962
  423MOL0     H57091   1.056   1.567   4.114  2.5906  0.7872  1.9355
  423MOL0     H57092   0.888   1.713   4.211  1.9982 -0.5715  1.5253
  423MOL0     H57093   0.878   2.117   4.389  0.3719  0.1720  1.7325
  423MOL0     H57094   0.801   2.275   4.554 -1.7318  0.6338  0.8681
  423MOL0     H57095   0.532   2.372   4.628 -0.0911 -0.2338  0.9183
  423MOL0     H57096   0.638   2.501   4.688 -0.7454 -0.1428  0.5700
  423MOL0     H57097   0.404   2.545   4.734  2.0161 -0.5585  1.2087
  423MOL0     H57098   0.360   2.504   4.567  2.0782 -2.2233  0.0848
  423MOL0     H57099   0.540   2.706   4.527 -0.1326  0.1359  2.4672
  423MOL0     H57100   0.505   2.735   4.695  0.4759 -1.7156  0.8846
  423MOL0     H57101   0.342   2.879   4.583 -3.9500  1.1852 -2.1833
  423MOL0     H57102   0.249   2.723   4.602  0.1641  1.6921  1.0735
  423MOL0     H57103   0.294   2.842   4.191  1.2602  1.3966 -0.1427
  423MOL0     H57104   0.515   2.425   4.253  0.3974  0.6419 -0.6905
  423MOL0     H57105   0.605   2.256   4.094 -1.8272 -1.5558  0.5297
  424MOL0     O57106   1.785   0.442   7.950 -0.5303  0.9927  1.2546
  424MOL0     C57107   1.706   0.387   8.018 -0.0979  0.9753  1.2057
  424MOL0     O57108   1.581   0.442   8.037  0.0358 -0.3502 -0.9891
  424MOL0     C57109   1.519   0.542   7.957  0.6972  0.2340 -0.1751
  424MOL0     C57110   1.576   0.665   7.923  0.5813 -0.1582 -0.6465
  424MOL0     C57111   1.513   0.762   7.844 -0.3124  0.3439  0.3133
  424MOL0     C57112   1.383   0.742   7.808  0.1922  1.5965 -0.3174
  424MOL0     O57113   1.310   0.833   7.744  0.0105 -0.3869  0.1426
  424MOL0     C57114   1.319   0.965   7.797 -0.9290 -0.6132  0.5698
  424MOL0     C57115   1.209   1.050   7.754  1.3018 -1.3564 -0.0192
  424MOL0     C57116   1.082   0.999   7.835 -0.1699 -0.3493  0.1726
  424MOL0     C57117   0.978   1.109   7.823 -0.3648 -0.0673  0.1624
  424MOL0     C57118   0.843   1.074   7.891 -0.5627 -0.8020 -0.0980
  424MOL0     C57119   0.719   1.138   7.806  0.5972  0.2214  0.0806
  424MOL0     C57120   0.706   1.289   7.802 -0.2657  0.0183  0.0296
  424MOL0     C57121   0.750   1.350   7.664  0.7000 -0.8104  1.2234
  424MOL0     N57122   0.829   1.468   7.684 -0.8449 -0.0714  0.2166
  424MOL0     C57123   0.967   1.476   7.663  0.0608 -0.3099  0.6020
  424MOL0     C57124   0.987   1.607   7.693  0.2073  1.4900 -0.6104
  424MOL0     C57125   1.119   1.689   7.678 -0.8984  0.1062  1.7419
  424MOL0     C57126   1.200   1.653   7.548  0.5708  0.2108  0.0882
  424MOL0     C57127   1.157   1.738   7.420  0.1817  0.6821  0.1663
  424MOL0     C57128   1.050   1.676   7.330 -0.9629  0.1631  0.7513
  424MOL0     O57129   1.008   1.776   7.237  0.2895  0.9289  0.6407
  424MOL0     C57130   0.933   1.726   7.124 -0.1332  0.1104 -1.2057
  424MOL0     C57131   0.930   1.596   7.083 -0.1024  0.6699 -0.5832
  424MOL0     C57132   0.858   1.566   6.964 -0.2106 -0.2980  0.6971
  424MOL0     C57133   0.837   1.414   6.925  0.8643  0.0826 -0.3244
  424MOL0     C57134   0.795   1.665   6.891 -0.0391 -0.0541  0.4621
  424MOL0     C57135   0.712   1.642   6.771 -0.1616 -0.0504  0.0030
  424MOL0     O57136   0.576   1.682   6.780  0.2208 -0.1821  0.6419
  424MOL0     C57137   0.508   1.690   6.663 -0.0065 -0.0386 -0.3401
  424MOL0     C57138   0.415   1.600   6.619  0.2003 -0.4561 -0.0311
  424MOL0     C57139   0.352   1.617   6.488 -0.3663 -0.9843  0.5128
  424MOL0     C57140   0.396   1.709   6.396  0.7541  0.1538  0.3350
  424MOL0     O57141   0.336   1.712   6.277 -0.2198 -0.3949 -0.6396
  424MOL0     C57142   0.192   1.725   6.290  0.6260 -0.7698 -0.1969
  424MOL0     C57143   0.141   1.842   6.206 -1.0473 -0.9729  0.1798
  424MOL0     C57144   0.171   1.828   6.058 -0.6688 -0.3641  0.2188
  424MOL0     C57145   0.083   1.927   5.989  0.0614  0.7898 -0.7926
  424MOL0     C57146   0.114   1.915   5.841  0.1353  0.4627 -0.0677
  424MOL0     C57147   0.028   2.026   5.778  0.3674  0.4480 -0.2330
  424MOL0     C57148   0.017   2.015   5.630 -0.4001  0.1010  0.1710
  424MOL0     C57149  -0.065   2.124   5.554  0.0970 -0.1999 -0.5054
  424MOL0    Cl57150  -0.092   2.086   5.379  0.2881 -0.0017 -0.2162
  424MOL0     C57151   0.487   1.796   6.434 -0.0778 -0.1162  0.4221
  424MOL0     C57152   0.539   1.793   6.565 -0.1713 -0.7973 -0.4723
  424MOL0     O57153   0.770   1.594   6.673 -0.0789 -0.8578 -0.1658
  424MOL0     C57154   0.794   1.789   6.945 -0.4809 -0.7435 -0.5154
  424MOL0     C57155   0.869   1.823   7.051 -0.1257  0.7410  0.1021
  424MOL0     N57156   0.869   1.673   7.730 -0.6316  0.4003  0.4628
  424MOL0     N57157   0.771   1.587   7.719  0.0167 -0.5031  1.3092
  424MOL0     C57158   1.324   0.618   7.830  0.0647  0.2159  0.1825
  424MOL0     C57159   1.386   0.522   7.910 -1.2769  0.5871  0.2280
  424MOL0     C57160   1.740   0.262   8.100 -0.2501  0.2566  0.0466
  424MOL0     C57161   1.872   0.226   8.109 -0.2626 -0.9264 -1.1171
  424MOL0     C57162   1.894   0.111   8.190 -0.3429  0.4800  0.9785
  424MOL0     C57163   1.800   0.041   8.258 -0.2157 -0.0637  0.1808
  424MOL0     O57164   1.819  -0.059   8.339 -0.5230  0.0339 -0.4194
  424MOL0     C57165   1.957  -0.121   8.342 -0.7077 -0.0114 -0.7581
  424MOL0     C57166   1.995  -0.204   8.218 -0.6466  0.0860  0.1254
  424MOL0     C57167   1.878  -0.295   8.169  0.7817 -0.3050  0.2059
  424MOL0     C57168   1.920  -0.356   8.034 -0.8781  0.1588  0.2929
  424MOL0     C57169   1.816  -0.429   7.970  0.3350 -0.0815  0.2708
  424MOL0     C57170   1.727  -0.499   7.914 -0.1522 -0.1948 -1.0279
  424MOL0     C57171   1.668   0.085   8.259  0.4030 -0.0251  0.5175
  424MOL0     C57172   1.643   0.195   8.173  0.1816 -0.2242 -0.1238
  424MOL0     H57173   1.673   0.670   7.972  0.7959 -3.8999 -0.3771
  424MOL0     H57174   1.559   0.855   7.813  0.6723 -0.4682 -0.8178
  424MOL0     H57175   1.322   0.964   7.906 -2.9240 -4.4319  0.7401
  424MOL0     H57176   1.412   1.012   7.761 -0.8075 -0.5667  0.9379
  424MOL0     H57177   1.231   1.152   7.786  3.6747 -0.9439 -2.6615
  424MOL0     H57178   1.194   1.046   7.646 -0.0866 -0.3045  0.1129
  424MOL0     H57179   1.039   0.910   7.787 -1.5610  0.8410 -0.8799
  424MOL0     H57180   1.085   1.003   7.945  1.1439  2.2989  0.0986
  424MOL0     H57181   1.021   1.203   7.860  0.5362 -0.1217 -0.7267
  424MOL0     H57182   0.945   1.129   7.721 -2.2981  2.7190  1.2081
  424MOL0     H57183   0.839   0.965   7.897 -2.6113 -1.0298 -3.2326
  424MOL0     H57184   0.833   1.125   7.987 -2.2038  0.5938 -0.9380
  424MOL0     H57185   0.728   1.078   7.715 -3.9536 -1.7689  0.6392
  424MOL0     H57186   0.625   1.100   7.847  0.1416  1.4419  0.2099
  424MOL0     H57187   0.601   1.321   7.806 -0.7669 -1.3759 -1.1475
  424MOL0     H57188   0.756   1.335   7.888 -2.8092  0.5421  1.3246
  424MOL0     H57189   0.662   1.377   7.605  1.1043  1.2261  1.4697
  424MOL0     H57190   0.808   1.272   7.614  2.4662  0.5245  1.0923
  424MOL0     H57191   1.048   1.406   7.643  0.4939  0.0816  0.9538
  424MOL0     H57192   1.105   1.797   7.668  1.8866  0.4789  0.9527
  424MOL0     H57193   1.181   1.670   7.766 -0.2601 -0.3188  1.2132
  424MOL0     H57194   1.193   1.548   7.519 -1.4995  0.6401 -1.2134
  424MOL0     H57195   1.303   1.684   7.565 -0.1230  2.8004 -0.0140
  424MOL0     H57196   1.250   1.759   7.366  2.2781  2.7358  4.1516
  424MOL0     H57197   1.107   1.831   7.447  2.5161  1.6582  1.3169
  424MOL0     H57198   0.960   1.646   7.383 -0.6764 -1.6509  0.2714
  424MOL0     H57199   1.092   1.591   7.276 -5.3361 -0.2187 -2.6396
  424MOL0     H57200   0.994   1.521   7.128 -0.9500  0.1710 -0.1690
  424MOL0     H57201   0.758   1.409   6.849 -1.1592  0.9894  1.5751
  424MOL0     H57202   0.929   1.364   6.895  1.5088 -0.5449  2.4105
  424MOL0     H57203   0.793   1.361   7.010 -0.4304 -0.4497 -1.2970
  424MOL0     H57204   0.387   1.522   6.689  1.6603  1.0443  2.3524
  424MOL0     H57205   0.280   1.538   6.470  0.5199 -2.3447  2.5732
  424MOL0     H57206   0.134   1.640   6.254 -5.1537  1.9567  1.5924
  424MOL0     H57207   0.160   1.742   6.394 -1.3215 -1.8705 -0.5653
  424MOL0     H57208   0.034   1.842   6.227 -0.7944 -0.2683  1.5272
  424MOL0     H57209   0.189   1.937   6.229 -3.5483  0.5749 -0.5857
  424MOL0     H57210   0.159   1.721   6.038  1.9897 -0.9512  1.3390
  424MOL0     H57211   0.275   1.851   6.037 -1.1565 -0.6410 -3.0327
  424MOL0     H57212  -0.022   1.907   6.009  0.7674 -4.5457 -0.9858
  424MOL0     H57213   0.103   2.029   6.024  1.3713  0.1842  0.3727
  424MOL0     H57214   0.096   1.819   5.793  1.9469  0.4563 -0.8274
  424MOL0     H57215   0.217   1.937   5.812 -0.0103  4.6366  1.7636
  424MOL0     H57216  -0.072   2.030   5.822 -0.6987  2.4007 -2.6083
  424MOL0     H57217   0.080   2.120   5.799  5.2392 -1.4759 -2.1593
  424MOL0     H57218  -0.045   1.927   5.611  0.9139 -0.4532 -1.8157
  424MOL0     H57219   0.118   2.009   5.588 -0.8181  1.6341 -1.1833
  424MOL0     H57220  -0.006   2.214   5.572  1.2005 -1.4924  2.9733
  424MOL0     H57221  -0.162   2.130   5.604 -0.3114 -1.5051 -1.0928
  424MOL0     H57222   0.517   1.859   6.351 -1.3341 -0.1011 -0.0403
  424MOL0     H57223   0.602   1.875   6.599  0.1301 -0.7230 -1.1778
  424MOL0     H57224   0.731   1.864   6.900 -2.9418 -2.2896  0.1440
  424MOL0     H57225   0.890   1.923   7.089  0.1165  0.1895  1.4754
  424MOL0     H57226   1.227   0.598   7.786  0.9449 -0.0342 -1.7280
  424MOL0     H57227   1.342   0.425   7.929  0.1292 -0.6763 -2.3365
  424MOL0     H57228   1.954   0.263   8.048  1.6294 -2.9151  0.0964
  424MOL0     H57229   1.999   0.090   8.171 -0.2888  1.8256 -0.4165
  424MOL0     H57230   2.038  -0.050   8.359  3.2011 -3.3062 -3.4339
  424MOL0     H57231   1.958  -0.194   8.424 -3.5625 -0.0492 -0.6334
  424MOL0     H57232   2.078  -0.265   8.255 -1.0314 -2.8785 -3.3380
  424MOL0     H57233   2.030  -0.137   8.140 -0.7781 -1.0156 -0.9119
  424MOL0     H57234   1.790  -0.232   8.155  1.0874 -0.2400 -1.6192
  424MOL0     H57235   1.863  -0.371   8.246 -1.4655 -1.1097 -0.9593
  424MOL0     H57236   2.009  -0.419   8.040  0.3439  1.7967  0.1026
  424MOL0     H57237   1.951  -0.282   7.960  1.4511 -0.5777  0.4413
  424MOL0     H57238   1.652  -0.563   7.872 -2.1229  1.8480 -0.8295
  424MOL0     H57239   1.584   0.026   8.294 -1.3673  2.0880  0.0660
  424MOL0     H57240   1.543   0.231   8.194 -0.1098 -2.3591  2.6093
  425MOL0     O57241   9.485   0.353   4.365  0.6709 -0.7869  0.0787
  425MOL0     C57242   9.439   0.277   4.450  0.0605 -1.0624  0.3518
  425MOL0     O57243   9.331   0.199   4.421  0.2915  0.0860 -0.6265
  425MOL0     C57244   9.278   0.182   4.289 -0.3449  0.4366 -1.1083
  425MOL0     C57245   9.304   0.245   4.167  0.0586 -0.1167 -0.1947
  425MOL0     C57246   9.237   0.205   4.051 -0.0376  0.5278 -0.1456
  425MOL0     C57247   9.155   0.081   4.054  0.2132 -0.8170 -1.3285
  425MOL0     O57248   9.083   0.029   3.949  0.7402  0.2053  0.2715
  425MOL0     C57249   9.117   0.079   3.812  0.1751  0.2554 -0.4352
  425MOL0     C57250   9.009   0.191   3.766 -0.6912  0.4449 -0.8183
  425MOL0     C57251   8.888   0.117   3.718 -0.4080  0.6876  0.7367
  425MOL0     C57252   8.786   0.209   3.653 -0.3414 -1.2139  0.6558
  425MOL0     C57253   8.639   0.181   3.664  0.0699  0.0161  0.2907
  425MOL0     C57254   8.588   0.212   3.800 -0.1608 -0.4850  0.1500
  425MOL0     C57255   8.464   0.140   3.834  0.2737 -0.8120  1.0209
  425MOL0     C57256   8.409   0.195   3.967  0.9977 -0.3425  0.0215
  425MOL0     N57257   8.283   0.125   3.996  0.0006 -0.2172  0.2455
  425MOL0     C57258   8.170   0.154   3.936  0.4102  0.2328 -1.0818
  425MOL0     C57259   8.067   0.081   3.995 -0.2745  0.2225  0.0558
  425MOL0     C57260   7.920   0.087   3.958  0.7844  0.1681 -0.4791
  425MOL0     C57261   7.829  -0.025   4.033 -0.1642  0.2101  0.0381
  425MOL0     C57262   7.814  -0.013   4.182 -0.2948  0.0068 -1.1164
  425MOL0     C57263   7.783   0.128   4.225  0.2786 -0.5936 -0.2762
  425MOL0     O57264   7.900   0.214   4.233 -0.0150  0.3957  0.0964
  425MOL0     C57265   7.878   0.332   4.289  0.0598  0.0037  0.3296
  425MOL0     C57266   7.798   0.429   4.215 -0.3085 -0.7718  0.4828
  425MOL0     C57267   7.758   0.550   4.290 -0.1199  0.3063  0.9182
  425MOL0     C57268   7.657   0.636   4.217  0.1468  0.5123  0.6884
  425MOL0     C57269   7.802   0.565   4.421  0.2206  0.6052  0.4212
  425MOL0     C57270   7.762   0.687   4.500 -1.1449 -0.7519 -0.0424
  425MOL0     O57271   7.774   0.666   4.641  0.1743  0.0518 -0.1091
  425MOL0     C57272   7.683   0.730   4.726 -0.4950 -0.4049 -0.0106
  425MOL0     C57273   7.738   0.748   4.851  0.4495 -0.2678  0.5645
  425MOL0     C57274   7.666   0.808   4.954  0.5537  0.3657 -0.2288
  425MOL0     C57275   7.540   0.858   4.923 -0.7451  1.0528 -0.2947
  425MOL0     O57276   7.460   0.898   5.023  0.5109 -0.0376 -0.8842
  425MOL0     C57277   7.332   0.837   5.041  0.1358  0.3111 -0.9836
  425MOL0     C57278   7.353   0.702   5.103  0.5510 -0.6281 -0.0569
  425MOL0     C57279   7.224   0.636   5.149  1.0076  0.5912 -0.4603
  425MOL0     C57280   7.116   0.628   5.035 -0.3095  0.1138  0.0364
  425MOL0     C57281   6.996   0.539   5.068  0.7212 -0.0353 -0.2120
  425MOL0     C57282   6.910   0.603   5.175  0.0989  0.3463 -0.7895
  425MOL0     C57283   6.810   0.510   5.242 -0.2166 -0.2812  0.4018
  425MOL0     C57284   6.695   0.594   5.303 -0.6905  0.1851  0.3339
  425MOL0    Cl57285   6.721   0.637   5.456 -0.3740  0.0324 -0.0886
  425MOL0     C57286   7.490   0.846   4.800  0.1610 -0.0686 -0.1489
  425MOL0     C57287   7.561   0.788   4.691 -0.5505  0.0875  0.0528
  425MOL0     O57288   7.727   0.795   4.449  0.1743 -0.1192  0.6114
  425MOL0     C57289   7.872   0.457   4.483 -0.4377 -0.4194 -0.1056
  425MOL0     C57290   7.921   0.340   4.423 -0.0329 -0.2819  1.2726
  425MOL0     N57291   8.133   0.003   4.090 -0.3761 -0.7307 -0.6438
  425MOL0     N57292   8.262   0.038   4.095  0.3304  0.1786 -0.0581
  425MOL0     C57293   9.131   0.014   4.175 -0.2990 -0.1618 -0.0202
  425MOL0     C57294   9.200   0.066   4.292 -0.3218 -0.4759  0.4462
  425MOL0     C57295   9.496   0.265   4.584  0.5025 -0.0335 -0.5462
  425MOL0     C57296   9.427   0.203   4.692 -0.5860 -0.2370  0.3615
  425MOL0     C57297   9.487   0.196   4.818 -0.8719  0.5813 -0.6518
  425MOL0     C57298   9.618   0.256   4.841 -0.2452  0.3882 -0.6658
  425MOL0     O57299   9.688   0.229   4.958  0.2852  0.5370 -0.6028
  425MOL0     C57300   9.718   0.353   5.030 -0.2548 -0.1064 -0.4475
  425MOL0     C57301   9.754   0.331   5.178 -0.9522  0.0590 -0.2000
  425MOL0     C57302   9.892   0.247   5.174  0.7377 -0.9639  0.9551
  425MOL0     C57303   9.952   0.259   5.306 -0.2864 -0.0855  0.5873
  425MOL0     C57304  10.001   0.392   5.335 -0.5227 -1.1381  0.2079
  425MOL0     C57305  10.050   0.507   5.353 -0.4525 -0.1005  0.2024
  425MOL0     C57306   9.682   0.319   4.732 -0.2799  0.3525  0.0575
  425MOL0     C57307   9.617   0.329   4.608 -1.3622  0.3418 -1.3751
  425MOL0     H57308   9.351   0.342   4.156 -1.9845  0.6676 -3.1947
  425MOL0     H57309   9.248   0.267   3.963  0.9084 -0.3139 -0.6454
  425MOL0     H57310   9.223   0.101   3.804  0.5960 -0.6478  1.7822
  425MOL0     H57311   9.098  -0.008   3.749 -1.6995 -0.4564  0.9829
  425MOL0     H57312   8.985   0.252   3.853 -1.6598 -1.7092  0.5159
  425MOL0     H57313   9.062   0.250   3.691  1.7190 -2.4688 -1.5865
  425MOL0     H57314   8.932   0.042   3.651 -0.0230 -0.6029  2.3891
  425MOL0     H57315   8.843   0.063   3.802 -1.4460 -0.4897 -0.5147
  425MOL0     H57316   8.791   0.306   3.703 -4.0625 -0.6708  0.2082
  425MOL0     H57317   8.819   0.221   3.549 -2.1149 -1.2909  0.0604
  425MOL0     H57318   8.593   0.246   3.589  2.1538 -1.9199 -2.8935
  425MOL0     H57319   8.621   0.079   3.629  0.7769  0.2293 -0.7382
  425MOL0     H57320   8.664   0.171   3.867  0.1653  1.0171  0.7465
  425MOL0     H57321   8.561   0.317   3.816 -0.9300 -0.9939  2.7209
  425MOL0     H57322   8.399   0.142   3.746  2.8522 -0.8112 -1.0315
  425MOL0     H57323   8.489   0.038   3.866  0.3224 -0.5994  1.6740
  425MOL0     H57324   8.384   0.302   3.961 -5.3893 -1.1581  3.2692
  425MOL0     H57325   8.488   0.179   4.041  0.9239  3.4131  1.1274
  425MOL0     H57326   8.155   0.228   3.858 -0.6101  0.6143 -0.5421
  425MOL0     H57327   7.878   0.182   3.991  0.4965 -0.1436  0.0721
  425MOL0     H57328   7.901   0.079   3.851 -4.0073  1.3892  0.0742
  425MOL0     H57329   7.862  -0.124   4.000 -0.4740  0.1357 -0.0553
  425MOL0     H57330   7.727  -0.013   3.994 -0.0868  2.8489  0.4870
  425MOL0     H57331   7.902  -0.051   4.235  0.9710  1.1418 -2.3114
  425MOL0     H57332   7.743  -0.085   4.222 -0.3535 -0.0586 -1.3411
  425MOL0     H57333   7.732   0.124   4.322 -0.5865  0.0051 -0.6895
  425MOL0     H57334   7.711   0.177   4.158  1.1726  1.7744  0.4164
  425MOL0     H57335   7.772   0.402   4.113  0.0362 -3.6685  1.0478
  425MOL0     H57336   7.576   0.677   4.278 -0.3331  2.4732 -1.1217
  425MOL0     H57337   7.711   0.712   4.159  1.0033 -1.0599 -0.6552
  425MOL0     H57338   7.610   0.581   4.135  3.4612 -1.6497  0.0547
  425MOL0     H57339   7.833   0.699   4.867 -0.8560 -4.1950 -2.1804
  425MOL0     H57340   7.697   0.831   5.056  1.4065  1.4539 -0.7122
  425MOL0     H57341   7.269   0.883   5.117  2.4310  0.2150  1.1076
  425MOL0     H57342   7.281   0.846   4.944  0.6230 -3.2271 -1.7003
  425MOL0     H57343   7.398   0.625   5.040  0.8768 -2.2510  2.0630
  425MOL0     H57344   7.421   0.714   5.187  1.1941 -0.7116 -0.5596
  425MOL0     H57345   7.183   0.677   5.241 -0.4776 -5.9352  2.3183
  425MOL0     H57346   7.256   0.534   5.168 -0.6158  0.4755  2.0527
  425MOL0     H57347   7.075   0.726   5.010 -3.8042 -0.9786  0.9842
  425MOL0     H57348   7.170   0.593   4.946  3.0023 -1.9384  2.5829
  425MOL0     H57349   7.015   0.439   5.109 -0.8164 -0.3487 -0.1836
  425MOL0     H57350   6.940   0.533   4.974  0.7237 -3.8273 -0.1368
  425MOL0     H57351   6.977   0.631   5.257  1.0169 -0.5233 -1.2336
  425MOL0     H57352   6.868   0.698   5.140 -0.7725 -0.1059 -1.0139
  425MOL0     H57353   6.864   0.451   5.317  0.2821  0.6621  0.7969
  425MOL0     H57354   6.766   0.443   5.167  3.0148 -0.0998 -1.8800
  425MOL0     H57355   6.598   0.543   5.307 -1.4309  1.5550  0.4680
  425MOL0     H57356   6.675   0.684   5.244  0.4079  0.6366  0.6315
  425MOL0     H57357   7.396   0.890   4.772 -1.4646 -3.5969 -0.7999
  425MOL0     H57358   7.531   0.797   4.587 -1.8596  1.7540  0.5225
  425MOL0     H57359   7.905   0.469   4.586  1.3219  0.1526 -0.7034
  425MOL0     H57360   7.976   0.258   4.467 -0.4767 -0.9440  0.6019
  425MOL0     H57361   9.084  -0.083   4.186 -0.7446  0.0762  0.2541
  425MOL0     H57362   9.190   0.009   4.384  1.4531  1.9183  2.2541
  425MOL0     H57363   9.337   0.146   4.671 -1.3975  0.6285  1.4325
  425MOL0     H57364   9.449   0.142   4.903 -0.1640 -0.5607 -1.0402
  425MOL0     H57365   9.801   0.400   4.977  0.9809 -0.1063  1.4240
  425MOL0     H57366   9.626   0.413   5.021  0.0056  0.0809 -2.2963
  425MOL0     H57367   9.667   0.283   5.225  1.6712 -2.2837  2.6632
  425MOL0     H57368   9.762   0.427   5.230 -3.4829  0.4733 -0.4140
  425MOL0     H57369   9.959   0.294   5.102  1.5023 -3.3389  0.0423
  425MOL0     H57370   9.870   0.147   5.136 -0.5693 -0.2092 -0.4256
  425MOL0     H57371  10.034   0.187   5.300 -0.1305  0.1853 -0.6391
  425MOL0     H57372   9.876   0.233   5.380 -2.2640  0.9708 -0.9935
  425MOL0     H57373  10.086   0.607   5.366 -1.4053  0.2744  0.0022
  425MOL0     H57374   9.782   0.359   4.739 -0.8152  1.6734  0.6551
  425MOL0     H57375   9.671   0.393   4.539  0.2664  2.5890  1.7284
  426MOL0     O57376   0.810   2.081  11.038  0.3065 -0.1561  0.1734
  426MOL0     C57377   0.860   2.007  11.125 -0.4816  0.4454  1.1754
  426MOL0     O57378   0.826   1.867  11.129 -0.6306  0.2963  0.1507
  426MOL0     C57379   0.733   1.821  11.040  0.0966 -0.0470 -0.1276
  426MOL0     C57380   0.773   1.813  10.905  0.0041  0.5168 -0.3894
  426MOL0     C57381   0.684   1.747  10.809  0.0815 -0.7974  0.0193
  426MOL0     C57382   0.556   1.702  10.859  0.5229  0.1025  0.0338
  426MOL0     O57383   0.459   1.652  10.775 -0.2310 -0.0401  0.3597
  426MOL0     C57384   0.473   1.698  10.634 -0.4163  0.3437 -0.2776
  426MOL0     C57385   0.398   1.821  10.595 -0.2983 -0.8503 -0.0746
  426MOL0     C57386   0.443   1.957  10.644  1.1231 -0.5183 -0.4402
  426MOL0     C57387   0.319   2.056  10.646 -0.6575 -0.7152  0.6632
  426MOL0     C57388   0.228   2.025  10.765  0.1758  0.8316 -0.2202
  426MOL0     C57389   0.289   2.037  10.906  0.0157 -0.5679 -0.3599
  426MOL0     C57390   0.195   2.068  11.017  0.2254 -0.4729 -0.2622
  426MOL0     C57391   0.142   1.939  11.086 -0.6762  0.0639  0.0156
  426MOL0     N57392   0.062   1.847  11.000 -0.4049  0.4941 -0.2788
  426MOL0     C57393   0.117   1.739  10.935  0.3196  0.7697  0.4851
  426MOL0     C57394   0.012   1.673  10.884  1.2066  0.1053 -0.5103
  426MOL0     C57395   0.023   1.540  10.807 -0.4385  0.3385 -0.6228
  426MOL0     C57396  -0.075   1.531  10.696  0.0193  0.5439 -1.9056
  426MOL0     C57397  -0.051   1.626  10.579  0.0290 -0.6137  0.5015
  426MOL0     C57398  -0.149   1.582  10.471  0.2063 -0.4580 -0.4268
  426MOL0     O57399  -0.136   1.647  10.354 -0.2825  0.1711  0.4044
  426MOL0     C57400  -0.026   1.608  10.281 -0.9077  0.3746 -0.6398
  426MOL0     C57401  -0.010   1.478  10.225 -0.3745  0.2257 -0.2344
  426MOL0     C57402   0.087   1.457  10.120 -0.0203 -0.5809 -1.2978
  426MOL0     C57403   0.092   1.323  10.057  0.1164  0.2025  0.1503
  426MOL0     C57404   0.197   1.555  10.105 -0.0178 -0.7014  0.7086
  426MOL0     C57405   0.313   1.540  10.012 -0.1192  0.3632  0.8951
  426MOL0     O57406   0.371   1.658   9.978  0.2623 -0.3340  0.0620
  426MOL0     C57407   0.480   1.657   9.890  0.2102 -0.6420  0.2583
  426MOL0     C57408   0.470   1.597   9.763  0.2364  0.9755  0.3094
  426MOL0     C57409   0.583   1.604   9.675 -0.2183 -0.3613 -0.4193
  426MOL0     C57410   0.701   1.669   9.712  0.8346  0.5229 -0.1340
  426MOL0     O57411   0.809   1.666   9.625 -0.2575 -0.9503 -1.0492
  426MOL0     C57412   0.932   1.605   9.667  0.5129 -0.1245 -1.2966
  426MOL0     C57413   1.038   1.718   9.653 -0.3070 -0.2261  1.0678
  426MOL0     C57414   1.051   1.772   9.510  1.3505 -0.4646  0.6261
  426MOL0     C57415   1.192   1.840   9.482 -0.6586  0.1513  1.6278
  426MOL0     C57416   1.193   1.912   9.342  0.1789  0.5051  1.0063
  426MOL0     C57417   1.322   1.982   9.328 -0.3566 -0.4015 -0.4621
  426MOL0     C57418   1.332   2.010   9.182  0.1562  0.1037 -0.1551
  426MOL0     C57419   1.207   2.085   9.122  0.9364  0.0324 -0.8978
  426MOL0    Cl57420   1.167   2.232   9.226 -0.1589 -0.0327  0.2271
  426MOL0     C57421   0.711   1.716   9.843  0.2668 -0.0883  0.4804
  426MOL0     C57422   0.603   1.713   9.932  0.2873  0.1862  0.0167
  426MOL0     O57423   0.357   1.429   9.974  0.0242 -0.3971  0.2663
  426MOL0     C57424   0.175   1.684  10.168 -0.7013  0.5395  0.0273
  426MOL0     C57425   0.063   1.708  10.235 -0.0730  0.2210 -0.8222
  426MOL0     N57426  -0.106   1.741  10.928 -0.7698  0.6219  0.8243
  426MOL0     N57427  -0.071   1.846  10.988  0.8169  0.5814  0.4897
  426MOL0     C57428   0.531   1.712  10.993 -0.2611  0.7020 -0.2698
  426MOL0     C57429   0.612   1.775  11.081 -0.1827 -0.4096  1.4684
  426MOL0     C57430   0.956   2.062  11.223  0.6840 -0.3856  0.5771
  426MOL0     C57431   0.972   2.205  11.228 -0.4817 -0.0244 -0.0155
  426MOL0     C57432   1.055   2.266  11.320 -0.2752 -0.2042 -0.1372
  426MOL0     C57433   1.142   2.185  11.396  0.0809 -0.4527  0.2842
  426MOL0     O57434   1.247   2.244  11.460 -0.0266  0.3737  0.4835
  426MOL0     C57435   1.312   2.185  11.573  0.4618 -0.1901 -0.0536
  426MOL0     C57436   1.451   2.127  11.541 -0.8294  0.4570 -0.9348
  426MOL0     C57437   1.553   2.222  11.472  1.0775 -0.4311  0.0599
  426MOL0     C57438   1.675   2.149  11.439 -0.0150 -0.7946 -0.2486
  426MOL0     C57439   1.654   2.038  11.340  0.8159 -1.8539 -0.3869
  426MOL0     C57440   1.643   1.939  11.274  0.9069 -0.0491  0.7868
  426MOL0     C57441   1.119   2.041  11.391  0.0891 -0.2174  0.0327
  426MOL0     C57442   1.031   1.976  11.302 -0.4949 -0.2948 -0.0551
  426MOL0     H57443   0.875   1.847  10.890 -0.3233  2.6962  1.6600
  426MOL0     H57444   0.736   1.749  10.714 -4.2295  3.3092 -2.7174
  426MOL0     H57445   0.575   1.706  10.595 -0.0152  3.7319  1.0853
  426MOL0     H57446   0.413   1.630  10.573 -0.2295 -0.9614  0.9522
  426MOL0     H57447   0.400   1.823  10.486  0.8496 -4.3270 -0.2469
  426MOL0     H57448   0.292   1.813  10.622 -0.7632 -0.3095 -1.6053
  426MOL0     H57449   0.493   1.962  10.741 -0.1654 -0.9855  0.2659
  426MOL0     H57450   0.506   1.993  10.562  1.8177 -3.4022 -1.2711
  426MOL0     H57451   0.356   2.157  10.661 -1.8569 -0.6485  4.0226
  426MOL0     H57452   0.263   2.054  10.552 -1.3549 -3.0174  1.0518
  426MOL0     H57453   0.150   2.101  10.750  3.4888  3.9424 -5.1520
  426MOL0     H57454   0.184   1.925  10.761 -0.4686  1.1143 -0.3360
  426MOL0     H57455   0.350   1.947  10.925  3.3608  1.6853  0.5700
  426MOL0     H57456   0.359   2.120  10.892 -0.1716  0.1375  2.2889
  426MOL0     H57457   0.246   2.124  11.096 -0.0043 -1.4654  0.5982
  426MOL0     H57458   0.116   2.131  10.976  3.2082  2.7131 -1.7111
  426MOL0     H57459   0.080   1.968  11.171  3.2335 -0.8385  3.4968
  426MOL0     H57460   0.228   1.885  11.128 -0.6287  0.9546  1.1258
  426MOL0     H57461   0.224   1.722  10.939  0.6470  2.4753 -0.1767
  426MOL0     H57462   0.125   1.517  10.778  0.8166  0.5558  3.0502
  426MOL0     H57463  -0.012   1.465  10.878  0.1378  1.1600  0.5714
  426MOL0     H57464  -0.175   1.565  10.724  1.1796  0.7883  2.9209
  426MOL0     H57465  -0.080   1.425  10.669 -1.3023  0.1702 -0.3806
  426MOL0     H57466   0.050   1.629  10.538 -0.5563  2.0952 -1.0383
  426MOL0     H57467  -0.071   1.729  10.610  2.1397 -0.9681  3.3855
  426MOL0     H57468  -0.254   1.595  10.497 -0.4195 -2.5359 -1.7347
  426MOL0     H57469  -0.141   1.476  10.446 -1.1962 -1.0706  1.4996
  426MOL0     H57470  -0.079   1.397  10.244  0.5192 -0.3700  0.5574
  426MOL0     H57471   0.175   1.268  10.103  1.6115  3.8328  2.1431
  426MOL0     H57472  -0.005   1.274  10.071 -0.7584  1.4587 -1.2568
  426MOL0     H57473   0.117   1.331   9.951 -1.0062  1.2405 -0.0596
  426MOL0     H57474   0.371   1.566   9.733  0.5884  1.1333 -1.0673
  426MOL0     H57475   0.558   1.580   9.572 -2.8123  4.9404 -1.3587
  426MOL0     H57476   0.932   1.558   9.766 -0.8183 -3.0894 -2.5993
  426MOL0     H57477   0.969   1.528   9.599  0.8796 -1.5319  0.4060
  426MOL0     H57478   1.034   1.803   9.722 -1.7022  0.6418 -0.0198
  426MOL0     H57479   1.133   1.664   9.667 -1.3337 -1.6253  3.1313
  426MOL0     H57480   0.965   1.839   9.501  2.3767  0.9617  0.9108
  426MOL0     H57481   1.050   1.695   9.433 -0.0340  0.5688 -0.4318
  426MOL0     H57482   1.225   1.920   9.548  0.7291  2.5372 -1.6591
  426MOL0     H57483   1.268   1.761   9.481 -1.2379 -0.6043  4.9908
  426MOL0     H57484   1.107   1.979   9.338 -0.9125 -0.9257 -0.6077
  426MOL0     H57485   1.180   1.835   9.266 -0.3401  2.2026 -0.6899
  426MOL0     H57486   1.308   2.074   9.385  0.1056 -2.9947  4.3921
  426MOL0     H57487   1.412   1.927   9.355  1.2978  2.5156  0.4830
  426MOL0     H57488   1.330   1.918   9.123 -4.3241 -0.5549  0.7009
  426MOL0     H57489   1.425   2.067   9.168  1.5419 -1.9649  0.2183
  426MOL0     H57490   1.122   2.017   9.123  0.3139  0.7539  1.3041
  426MOL0     H57491   1.222   2.117   9.019 -2.6350 -1.2741 -1.9768
  426MOL0     H57492   0.800   1.769   9.875  0.0507  2.1256 -2.2256
  426MOL0     H57493   0.610   1.764  10.027  1.8884  1.2000 -0.6062
  426MOL0     H57494   0.252   1.761  10.169  0.2848 -0.4013  2.1325
  426MOL0     H57495   0.049   1.804  10.283 -0.0595 -0.2663  0.1933
  426MOL0     H57496   0.444   1.669  11.042  0.6053  1.0971  1.7153
  426MOL0     H57497   0.590   1.776  11.187  2.9341  2.0138  2.2305
  426MOL0     H57498   0.921   2.265  11.154 -2.2297 -0.2615  0.9194
  426MOL0     H57499   1.076   2.373  11.315 -1.5230  0.1533  1.3721
  426MOL0     H57500   1.305   2.268  11.643 -2.3533  2.6823 -3.3786
  426MOL0     H57501   1.252   2.106  11.619  3.2649 -4.7280 -3.3382
  426MOL0     H57502   1.422   2.045  11.475  0.4218 -0.2069 -0.6894
  426MOL0     H57503   1.504   2.093  11.631 -1.9023 -0.9228 -0.7747
  426MOL0     H57504   1.564   2.316  11.527  1.3365  0.1716 -1.0029
  426MOL0     H57505   1.501   2.251  11.381  0.2928 -2.5206 -0.2248
  426MOL0     H57506   1.722   2.110  11.530  2.0003  2.4913  0.2727
  426MOL0     H57507   1.749   2.221  11.405 -4.2910  5.7584  2.3233
  426MOL0     H57508   1.628   1.865  11.197 -1.2191 -0.7744  1.8258
  426MOL0     H57509   1.175   1.967  11.446 -0.8093 -1.9007 -1.2256
  426MOL0     H57510   1.025   1.869  11.315 -0.1049 -0.0844  2.4495
  427MOL0     O57511   2.342   7.778   8.913 -0.6533 -0.1302  0.2984
  427MOL0     C57512   2.310   7.808   9.031  1.3601 -0.4691 -0.3263
  427MOL0     O57513   2.186   7.847   9.072  0.9977  0.0792 -0.2039
  427MOL0     C57514   2.075   7.861   8.995 -0.3990 -0.5020  0.5307
  427MOL0     C57515   2.072   7.909   8.860  0.6076  0.0205 -0.9343
  427MOL0     C57516   1.950   7.928   8.788 -0.0587  0.3154  0.2441
  427MOL0     C57517   1.823   7.900   8.855 -0.9354  0.1086  0.0467
  427MOL0     O57518   1.711   7.908   8.780 -0.0738 -0.0766 -0.2220
  427MOL0     C57519   1.680   8.038   8.739  0.2065 -1.1465  0.5304
  427MOL0     C57520   1.535   8.057   8.684  0.2139 -1.3071 -1.0168
  427MOL0     C57521   1.513   8.210   8.664 -0.0168 -0.0954  0.4465
  427MOL0     C57522   1.561   8.254   8.521  0.5500  0.1928 -0.3084
  427MOL0     C57523   1.572   8.399   8.497 -0.2195 -0.2918  0.1622
  427MOL0     C57524   1.636   8.417   8.365  0.2891 -0.1635 -0.2135
  427MOL0     C57525   1.687   8.559   8.337  0.2090  0.0995 -0.7054
  427MOL0     C57526   1.693   8.600   8.186 -0.6459 -0.2837  0.0915
  427MOL0     N57527   1.802   8.698   8.180 -0.3423  0.3457 -0.5990
  427MOL0     C57528   1.923   8.689   8.112  0.7178  0.8281 -0.3395
  427MOL0     C57529   1.978   8.805   8.131  0.6914  0.0568 -0.5425
  427MOL0     C57530   2.113   8.834   8.075 -0.9006  0.5835 -1.8015
  427MOL0     C57531   2.222   8.782   8.169 -0.0658 -0.1369  0.1886
  427MOL0     C57532   2.372   8.825   8.121  0.1961 -0.1098 -0.1936
  427MOL0     C57533   2.413   8.829   7.968  0.2995  0.6952 -0.9998
  427MOL0     O57534   2.326   8.919   7.892 -0.1767 -0.5478  0.5205
  427MOL0     C57535   2.384   8.984   7.783 -0.2297  1.4352 -0.1372
  427MOL0     C57536   2.468   8.920   7.694  0.1314  0.8663 -0.8871
  427MOL0     C57537   2.536   8.998   7.600  0.0532  0.6436 -0.2915
  427MOL0     C57538   2.620   8.902   7.510 -0.8243 -1.0647 -0.5540
  427MOL0     C57539   2.507   9.131   7.582  0.0643 -0.0683  0.1972
  427MOL0     C57540   2.575   9.221   7.492  0.2024 -0.4983  1.2977
  427MOL0     O57541   2.506   9.328   7.434 -0.0531  0.3129 -0.0651
  427MOL0     C57542   2.577   9.421   7.363 -0.4658 -0.9653 -0.0522
  427MOL0     C57543   2.573   9.549   7.426 -0.7561  0.4647  0.3123
  427MOL0     C57544   2.647   9.653   7.369  0.7617  0.0643 -0.8530
  427MOL0     C57545   2.690   9.643   7.239  0.0818 -0.0879 -0.4692
  427MOL0     O57546   2.721   9.762   7.168 -0.1877  0.2522 -0.1119
  427MOL0     C57547   2.716   9.777   7.024 -1.0171 -0.8741  0.1665
  427MOL0     C57548   2.850   9.802   6.955 -0.3322  1.7920 -0.2212
  427MOL0     C57549   2.967   9.851   7.038  0.1755 -0.6737 -0.3355
  427MOL0     C57550   2.942   9.990   7.103  0.1932 -0.2780  0.1789
  427MOL0     C57551   3.052  10.046   7.186 -0.0849  0.4109  0.4182
  427MOL0     C57552   3.181  10.042   7.108 -0.3208  0.0737  0.8777
  427MOL0     C57553   3.283  10.147   7.165 -0.0585  0.0608 -0.4965
  427MOL0     C57554   3.250  10.284   7.108  0.8889 -0.0578 -0.4934
  427MOL0    Cl57555   3.307  10.276   6.928  0.5690 -0.2617 -0.0436
  427MOL0     C57556   2.689   9.523   7.174 -0.1607  0.2751 -0.0016
  427MOL0     C57557   2.635   9.413   7.235  0.9427  0.9819 -0.4021
  427MOL0     O57558   2.690   9.198   7.462  0.1006  1.0777 -0.8717
  427MOL0     C57559   2.403   9.191   7.663  0.1453  0.3226  0.0818
  427MOL0     C57560   2.344   9.119   7.764  0.9731  0.1060  0.3933
  427MOL0     N57561   1.890   8.896   8.201  0.0989  0.8561 -0.4264
  427MOL0     N57562   1.786   8.828   8.226 -0.9400  0.9139  0.4542
  427MOL0     C57563   1.834   7.853   8.988  0.2704 -0.4868  0.4352
  427MOL0     C57564   1.953   7.853   9.054 -0.4882  0.1502  0.1999
  427MOL0     C57565   2.407   7.843   9.134  0.4668 -0.5172  0.2182
  427MOL0     C57566   2.546   7.865   9.099  0.5426 -0.2980 -0.0259
  427MOL0     C57567   2.630   7.885   9.207  0.2800  0.2693  0.0073
  427MOL0     C57568   2.595   7.868   9.341 -1.0166  0.1977 -0.0415
  427MOL0     O57569   2.673   7.902   9.439  0.1211 -0.5420  0.2923
  427MOL0     C57570   2.812   7.957   9.430  0.2970 -0.3714 -0.2639
  427MOL0     C57571   2.891   7.885   9.539 -0.7687 -0.2617  0.4592
  427MOL0     C57572   2.924   7.735   9.492 -0.1598  0.0652 -0.7824
  427MOL0     C57573   2.980   7.645   9.601 -0.5723 -0.7971 -0.3534
  427MOL0     C57574   2.893   7.646   9.725 -0.4023  0.0566 -0.1221
  427MOL0     C57575   2.850   7.664   9.834  0.1519  0.2259 -0.1865
  427MOL0     C57576   2.464   7.831   9.376  0.0474  0.3597  0.0062
  427MOL0     C57577   2.371   7.831   9.267 -0.1759  0.2814  0.3870
  427MOL0     H57578   2.169   7.926   8.814  3.1362 -2.5926  2.7691
  427MOL0     H57579   1.958   7.962   8.686  0.5596  0.2332  0.2600
  427MOL0     H57580   1.694   8.110   8.820  0.7621  1.9435 -2.1457
  427MOL0     H57581   1.743   8.059   8.653 -0.8739 -2.4620 -0.6226
  427MOL0     H57582   1.516   8.006   8.590 -4.9288 -2.2163  0.2128
  427MOL0     H57583   1.459   8.015   8.751  0.5864 -0.9334 -0.3449
  427MOL0     H57584   1.406   8.232   8.663  0.2243  1.5109 -2.2856
  427MOL0     H57585   1.557   8.261   8.750 -0.1488  2.0483 -0.6794
  427MOL0     H57586   1.651   8.198   8.493 -0.5883 -0.6836 -2.5179
  427MOL0     H57587   1.487   8.205   8.456  1.1216 -4.2050  1.9589
  427MOL0     H57588   1.476   8.450   8.511 -0.9074 -1.3006 -0.6827
  427MOL0     H57589   1.645   8.442   8.566  0.6956  0.2837 -1.1179
  427MOL0     H57590   1.722   8.351   8.349 -1.0271 -2.6527  2.1941
  427MOL0     H57591   1.566   8.392   8.285 -0.3338  1.8562 -0.3610
  427MOL0     H57592   1.625   8.631   8.392  0.0639 -0.8493  0.4267
  427MOL0     H57593   1.787   8.564   8.381  0.7415 -2.0083 -1.5066
  427MOL0     H57594   1.599   8.651   8.161 -1.4580 -0.7294  2.0301
  427MOL0     H57595   1.718   8.517   8.120 -0.9741 -0.6045  0.3651
  427MOL0     H57596   1.954   8.605   8.050  0.2893  1.2839 -1.1860
  427MOL0     H57597   2.108   8.788   7.976  0.9343  0.0194 -1.6703
  427MOL0     H57598   2.112   8.942   8.056 -2.6202  0.4394 -2.7856
  427MOL0     H57599   2.217   8.673   8.175 -0.9715 -0.0363  2.0936
  427MOL0     H57600   2.207   8.820   8.270  3.2060 -0.1870  0.8144
  427MOL0     H57601   2.454   8.773   8.172  1.1174  2.1713  0.7570
  427MOL0     H57602   2.388   8.926   8.160  0.8144 -0.1589 -0.3162
  427MOL0     H57603   2.390   8.734   7.920 -0.6437 -0.1590  1.0329
  427MOL0     H57604   2.516   8.863   7.952  0.9230 -0.1386  0.9027
  427MOL0     H57605   2.476   8.813   7.706  1.8273  1.2011  1.7228
  427MOL0     H57606   2.715   8.862   7.548 -0.2791  0.1179 -0.6395
  427MOL0     H57607   2.562   8.815   7.479 -3.9128  1.3731 -2.1503
  427MOL0     H57608   2.640   8.957   7.418 -0.4176  2.6014  1.5308
  427MOL0     H57609   2.517   9.567   7.517 -2.5744 -1.8438 -0.2658
  427MOL0     H57610   2.638   9.741   7.433 -1.1394 -1.3024  0.9216
  427MOL0     H57611   2.660   9.690   6.989 -4.4150  1.2583 -0.1378
  427MOL0     H57612   2.655   9.864   6.998  2.8058  1.5840 -1.6326
  427MOL0     H57613   2.880   9.702   6.923  0.0726  0.9021  2.6759
  427MOL0     H57614   2.824   9.877   6.879  0.5266  0.9079 -1.4216
  427MOL0     H57615   3.055   9.840   6.976 -0.8867 -2.6183 -1.5919
  427MOL0     H57616   2.989   9.787   7.124 -1.9597 -1.5266 -0.3467
  427MOL0     H57617   2.918  10.064   7.026 -1.2103  0.4191  1.2633
  427MOL0     H57618   2.862   9.995   7.177  0.2446 -0.7587  0.2660
  427MOL0     H57619   3.057   9.984   7.276  1.0558  1.8011  1.3503
  427MOL0     H57620   3.038  10.150   7.214  1.4984  1.0736 -1.0513
  427MOL0     H57621   3.219   9.939   7.114  1.2625  0.6262  0.7992
  427MOL0     H57622   3.167  10.077   7.005  0.7278  0.6273  0.9135
  427MOL0     H57623   3.388  10.136   7.137 -0.0931  0.4259 -0.7728
  427MOL0     H57624   3.279  10.159   7.274 -3.4924  1.0517 -0.6048
  427MOL0     H57625   3.295  10.370   7.159 -0.4211  1.3115 -1.5536
  427MOL0     H57626   3.143  10.300   7.102  1.2331  1.9220 -3.3810
  427MOL0     H57627   2.723   9.514   7.072 -0.5076  0.6541 -0.1512
  427MOL0     H57628   2.639   9.312   7.195 -2.2265 -0.7652  3.1446
  427MOL0     H57629   2.373   9.295   7.658 -3.4631 -0.5320  1.3040
  427MOL0     H57630   2.281   9.157   7.843  1.4353  0.7407  0.4614
  427MOL0     H57631   1.738   7.827   9.032  0.7582 -1.3608  1.0097
  427MOL0     H57632   1.952   7.827   9.159 -1.3317 -1.2314 -0.1239
  427MOL0     H57633   2.581   7.877   8.997  1.1177  0.2277  0.2263
  427MOL0     H57634   2.730   7.920   9.183  1.4181  0.2679  3.9662
  427MOL0     H57635   2.851   7.926   9.332  2.6374  1.4704 -0.0197
  427MOL0     H57636   2.821   8.066   9.434  2.3463 -0.4924 -0.5540
  427MOL0     H57637   2.824   7.873   9.624 -2.6279 -2.8153 -1.2169
  427MOL0     H57638   2.983   7.935   9.571 -1.3907  2.1804 -1.2455
  427MOL0     H57639   2.976   7.741   9.396  2.0467 -1.0845  0.2534
  427MOL0     H57640   2.828   7.689   9.471  1.1396 -4.5362  1.9293
  427MOL0     H57641   3.080   7.681   9.627 -0.5908 -1.9726  1.5443
  427MOL0     H57642   2.995   7.545   9.559 -1.7667 -1.3504  0.4570
  427MOL0     H57643   2.792   7.692   9.920 -2.0408 -0.4590 -1.3683
  427MOL0     H57644   2.437   7.822   9.481  1.2554  2.3548  0.5470
  427MOL0     H57645   2.271   7.802   9.299 -0.4274 -0.4903 -1.0282
  428MOL0     O57646   2.158   1.208  10.253 -0.6776 -0.4237  0.2484
  428MOL0     C57647   2.051   1.172  10.209  0.3503  0.4459 -0.0336
  428MOL0     O57648   2.000   1.204  10.087  0.4201  0.4320 -0.4458
  428MOL0     C57649   2.076   1.257   9.992  0.0431 -0.5201  0.1096
  428MOL0     C57650   2.179   1.362  10.005  0.3828  0.5885 -0.8600
  428MOL0     C57651   2.222   1.424   9.887 -0.9584 -1.3292  0.6420
  428MOL0     C57652   2.172   1.394   9.758 -0.1074  0.5707  0.3838
  428MOL0     O57653   2.209   1.436   9.632  0.0698 -0.0935 -0.2303
  428MOL0     C57654   2.318   1.526   9.611  0.6927 -0.2267 -0.6046
  428MOL0     C57655   2.448   1.449   9.602 -0.7838  0.3886 -0.5103
  428MOL0     C57656   2.458   1.351   9.484  0.0075  0.2498 -0.6362
  428MOL0     C57657   2.575   1.256   9.487  0.3702  0.0774 -0.1783
  428MOL0     C57658   2.552   1.147   9.384 -0.0176 -0.6258  0.0516
  428MOL0     C57659   2.656   1.034   9.383 -0.4284  0.1221 -0.5775
  428MOL0     C57660   2.612   0.900   9.313  0.0458  0.7277  0.0655
  428MOL0     C57661   2.537   0.799   9.401  0.3915  1.4137 -0.1040
  428MOL0     N57662   2.391   0.809   9.366  0.4706 -0.2972 -0.1216
  428MOL0     C57663   2.317   0.731   9.283  0.2769 -0.0327  0.1509
  428MOL0     C57664   2.190   0.789   9.272  1.1378  0.4709 -1.4018
  428MOL0     C57665   2.071   0.725   9.205  0.1590 -0.0079  0.4699
  428MOL0     C57666   2.026   0.805   9.075 -0.0159  0.0741  0.1539
  428MOL0     C57667   1.882   0.773   9.035  0.4890  0.1068  0.6748
  428MOL0     C57668   1.848   0.836   8.898 -0.1567 -0.3941 -0.3054
  428MOL0     O57669   1.864   0.981   8.904  0.6078 -0.0282 -0.1310
  428MOL0     C57670   1.961   1.052   8.837 -0.5216  0.8237 -0.1345
  428MOL0     C57671   1.953   1.194   8.855 -0.1411  0.2001  0.6593
  428MOL0     C57672   2.040   1.280   8.794  0.0576 -0.7758 -0.0636
  428MOL0     C57673   2.030   1.430   8.835  0.1620 -0.1599  0.1460
  428MOL0     C57674   2.148   1.234   8.716 -0.4781 -0.2310  1.3719
  428MOL0     C57675   2.242   1.314   8.630 -0.7056  1.2819 -0.6538
  428MOL0     O57676   2.352   1.236   8.584  0.2955  0.1090  0.2066
  428MOL0     C57677   2.465   1.309   8.543  0.0934 -0.6493 -0.2961
  428MOL0     C57678   2.512   1.428   8.594 -0.2671 -0.1169 -0.2854
  428MOL0     C57679   2.611   1.510   8.546  0.5928 -0.3596 -0.7584
  428MOL0     C57680   2.679   1.473   8.430  0.2058  0.2108 -0.5968
  428MOL0     O57681   2.781   1.561   8.401  0.3816  0.8161 -0.6611
  428MOL0     C57682   2.794   1.587   8.259 -0.1179 -0.1940  0.4201
  428MOL0     C57683   2.675   1.644   8.186  0.0476 -0.6431 -0.2450
  428MOL0     C57684   2.651   1.791   8.225  0.0590 -0.5692  0.1012
  428MOL0     C57685   2.512   1.845   8.188 -0.4062  0.7715  0.2065
  428MOL0     C57686   2.496   1.992   8.246 -0.4984 -0.4009 -0.1570
  428MOL0     C57687   2.367   2.059   8.205  0.2094 -0.5824  0.2757
  428MOL0     C57688   2.362   2.203   8.274  0.3378 -0.6134 -0.0214
  428MOL0     C57689   2.233   2.267   8.227  0.2006  1.1807 -0.1352
  428MOL0    Cl57690   2.276   2.331   8.068  0.4002 -0.0282 -0.2171
  428MOL0     C57691   2.656   1.342   8.382  0.5564  0.1126  0.1680
  428MOL0     C57692   2.548   1.268   8.438 -0.5544  0.2797  0.6607
  428MOL0     O57693   2.212   1.428   8.605 -0.4485  0.9629 -0.2490
  428MOL0     C57694   2.155   1.092   8.704  0.4160  0.7379 -0.0623
  428MOL0     C57695   2.058   1.006   8.752  0.2353  0.1632 -1.5035
  428MOL0     N57696   2.187   0.891   9.368 -0.3404 -0.0678 -0.3638
  428MOL0     N57697   2.299   0.895   9.420 -0.5768  0.0167  0.2636
  428MOL0     C57698   2.073   1.290   9.757 -0.0189  0.2045 -0.4336
  428MOL0     C57699   2.035   1.212   9.866 -0.0110  0.5954  0.0774
  428MOL0     C57700   1.953   1.102  10.311 -0.3887  0.2201 -0.2875
  428MOL0     C57701   1.964   1.125  10.454 -0.2953 -0.4352  0.5071
  428MOL0     C57702   1.888   1.058  10.541  1.2543 -0.2694 -0.2115
  428MOL0     C57703   1.779   0.983  10.496 -0.5438 -0.7318  1.1618
  428MOL0     O57704   1.703   0.916  10.587 -0.6815  0.5138  0.7586
  428MOL0     C57705   1.670   0.778  10.552  1.5040 -0.5569 -0.2738
  428MOL0     C57706   1.606   0.729  10.685  1.1700  1.5486  0.9433
  428MOL0     C57707   1.473   0.799  10.712  0.3656  0.7359  0.6102
  428MOL0     C57708   1.423   0.777  10.858  0.5219 -0.3261  0.2366
  428MOL0     C57709   1.283   0.845  10.875 -0.7372  0.3428 -0.5927
  428MOL0     C57710   1.175   0.887  10.915  0.2712 -0.4632  0.5419
  428MOL0     C57711   1.760   0.970  10.359  0.8083  0.7049 -0.1931
  428MOL0     C57712   1.845   1.023  10.265  0.5892  0.8138  0.5948
  428MOL0     H57713   2.225   1.393  10.098  0.7388 -1.6066 -0.2515
  428MOL0     H57714   2.285   1.512   9.893  0.0419 -2.1241  3.2149
  428MOL0     H57715   2.301   1.580   9.517  1.8199  0.2733 -0.5444
  428MOL0     H57716   2.309   1.590   9.699 -2.5477 -3.5979  1.8242
  428MOL0     H57717   2.522   1.530   9.603 -0.8021  0.4125  0.8770
  428MOL0     H57718   2.451   1.386   9.691 -2.3225  1.1485  0.1162
  428MOL0     H57719   2.369   1.289   9.490  0.3101 -0.0801  2.6222
  428MOL0     H57720   2.448   1.406   9.390  0.2074 -2.2425 -2.2021
  428MOL0     H57721   2.668   1.309   9.463 -0.0819 -0.2094 -2.8630
  428MOL0     H57722   2.570   1.207   9.585 -0.0470  1.7911  0.7067
  428MOL0     H57723   2.461   1.091   9.406 -0.9090  0.4867 -0.6972
  428MOL0     H57724   2.536   1.195   9.287  1.7111  1.5702  0.7809
  428MOL0     H57725   2.744   1.074   9.332  2.3093 -1.6883  2.3275
  428MOL0     H57726   2.696   1.005   9.481 -1.4667 -0.5616 -0.3388
  428MOL0     H57727   2.548   0.924   9.227 -1.0951  0.0719  0.7120
  428MOL0     H57728   2.694   0.840   9.273 -1.8239 -0.7198 -1.8551
  428MOL0     H57729   2.563   0.824   9.504  0.3381  0.7063  0.0840
  428MOL0     H57730   2.569   0.696   9.381  3.3529  2.6901 -2.7583
  428MOL0     H57731   2.330   0.645   9.218 -1.2767  1.4204 -2.2644
  428MOL0     H57732   2.090   0.620   9.184  0.2156  0.1358 -0.2269
  428MOL0     H57733   1.984   0.723   9.271 -1.8326 -1.4146 -2.0204
  428MOL0     H57734   2.098   0.775   8.999 -0.0813 -0.4933  0.3121
  428MOL0     H57735   2.032   0.913   9.090 -1.4352  0.9262 -4.0093
  428MOL0     H57736   1.831   0.813   9.123  1.2195 -0.7806  1.5211
  428MOL0     H57737   1.871   0.665   9.038  0.2987  0.0094 -1.4550
  428MOL0     H57738   1.742   0.812   8.883 -0.5091 -0.1569  1.5010
  428MOL0     H57739   1.904   0.781   8.822  0.5717 -1.3826  0.9040
  428MOL0     H57740   1.876   1.224   8.925 -0.7893 -4.5282  2.3563
  428MOL0     H57741   2.007   1.429   8.942  1.3735 -0.8749  0.4156
  428MOL0     H57742   2.113   1.497   8.814  0.3656  0.0034  1.3693
  428MOL0     H57743   1.942   1.470   8.785 -0.2277 -1.2381 -0.0602
  428MOL0     H57744   2.461   1.458   8.686 -1.6045 -2.6957 -0.0997
  428MOL0     H57745   2.625   1.598   8.609  1.8241 -2.2278  1.7692
  428MOL0     H57746   2.884   1.648   8.249 -0.3721  0.6468  2.8165
  428MOL0     H57747   2.830   1.500   8.202  0.2475  0.2737 -0.0754
  428MOL0     H57748   2.693   1.638   8.078  0.2575  2.1893 -0.4395
  428MOL0     H57749   2.592   1.575   8.202 -1.5369  0.1155 -4.0573
  428MOL0     H57750   2.715   1.847   8.156 -0.5792 -1.9090 -1.6650
  428MOL0     H57751   2.666   1.806   8.332 -0.9644  1.9964 -0.0488
  428MOL0     H57752   2.490   1.847   8.081 -2.1188 -0.1191  0.5141
  428MOL0     H57753   2.439   1.781   8.239 -0.6298 -0.7216 -1.8704
  428MOL0     H57754   2.579   2.054   8.209  0.0447  1.3115  3.4318
  428MOL0     H57755   2.512   1.998   8.354 -0.1466 -0.0357 -0.2241
  428MOL0     H57756   2.376   2.084   8.098 -0.4372 -2.2082 -0.1920
  428MOL0     H57757   2.275   2.002   8.224  1.0290 -1.1354  2.9393
  428MOL0     H57758   2.445   2.271   8.254 -1.7889  1.2473 -3.3376
  428MOL0     H57759   2.358   2.181   8.382 -2.0609 -1.4696 -0.2191
  428MOL0     H57760   2.195   2.336   8.302 -2.1176 -2.1210  1.9743
  428MOL0     H57761   2.160   2.187   8.222  0.8692  0.5380  0.1903
  428MOL0     H57762   2.706   1.302   8.295  1.4207  2.4649 -0.5176
  428MOL0     H57763   2.502   1.188   8.382 -2.1186 -1.7884  4.4796
  428MOL0     H57764   2.226   1.046   8.636 -0.6175 -0.5488 -0.3307
  428MOL0     H57765   2.058   0.900   8.727 -0.6309 -0.4021  0.6468
  428MOL0     H57766   2.028   1.257   9.664 -1.1882 -2.8044  1.0632
  428MOL0     H57767   1.965   1.132   9.847 -1.7640  2.4543 -1.8222
  428MOL0     H57768   2.046   1.184  10.492 -0.1042 -1.2677  1.4242
  428MOL0     H57769   1.900   1.060  10.649 -1.5063  1.3649  0.1477
  428MOL0     H57770   1.599   0.778  10.468  1.1913  3.0519 -0.1537
  428MOL0     H57771   1.756   0.711  10.539  1.0550 -1.0162 -0.9597
  428MOL0     H57772   1.684   0.729  10.762  3.9022 -1.7161 -1.5012
  428MOL0     H57773   1.583   0.625  10.660  2.4641  1.4736 -0.0617
  428MOL0     H57774   1.399   0.750  10.648 -0.1357  1.5896  0.5103
  428MOL0     H57775   1.466   0.906  10.687 -2.2419  1.1996  2.8100
  428MOL0     H57776   1.486   0.833  10.928 -1.2171 -1.0109  2.4807
  428MOL0     H57777   1.407   0.671  10.879  0.7411 -0.1111  1.5567
  428MOL0     H57778   1.087   0.946  10.927  1.0958  1.0731 -0.6337
  428MOL0     H57779   1.673   0.914  10.327  0.7284  0.4119  0.5031
  428MOL0     H57780   1.836   1.010  10.158 -2.5696 -1.6880  1.0248
  429MOL0     O57781  10.434   8.586  10.101 -0.4028  0.5235 -0.1261
  429MOL0     C57782  10.532   8.624  10.039  0.5795  0.3064 -0.1831
  429MOL0     O57783  10.534   8.720   9.939 -0.7810 -0.7484  0.2004
  429MOL0     C57784  10.426   8.739   9.857  0.5333  0.7685  0.2998
  429MOL0     C57785  10.415   8.854   9.786  0.3780  0.0810 -1.3400
  429MOL0     C57786  10.300   8.874   9.706  0.8803 -0.4586  0.1638
  429MOL0     C57787  10.197   8.776   9.697  0.9219 -0.3992  0.5345
  429MOL0     O57788  10.088   8.783   9.618 -0.8623  0.5927  0.4960
  429MOL0     C57789  10.002   8.900   9.626 -0.1357 -0.7387 -0.5745
  429MOL0     C57790   9.894   8.896   9.738 -0.1270  0.1784  0.4267
  429MOL0     C57791   9.793   8.994   9.695  0.6108  0.1440 -0.7152
  429MOL0     C57792   9.686   9.009   9.796  0.2034  0.4295  0.5940
  429MOL0     C57793   9.562   9.085   9.744  0.6625 -0.4564 -0.8195
  429MOL0     C57794   9.480   9.143   9.861  0.9180  0.5661 -0.7050
  429MOL0     C57795   9.370   9.251   9.820 -0.6313  0.7009  0.1203
  429MOL0     C57796   9.228   9.193   9.835  0.4644  0.5107  0.0971
  429MOL0     N57797   9.180   9.127   9.712  0.5209 -0.0763 -0.4995
  429MOL0     C57798   9.191   9.169   9.588  0.4900 -0.6325  0.4057
  429MOL0     C57799   9.112   9.088   9.514 -0.1265 -0.4222 -0.3806
  429MOL0     C57800   9.082   9.105   9.375  0.1085  1.4320 -0.4322
  429MOL0     C57801   9.097   9.248   9.326 -0.3851 -0.2525  0.1877
  429MOL0     C57802   9.022   9.261   9.191  0.4168  0.6950  0.3718
  429MOL0     C57803   9.011   9.398   9.133 -0.7607  0.3292 -0.2830
  429MOL0     O57804   9.140   9.466   9.155  0.3656  0.0458 -0.0055
  429MOL0     C57805   9.157   9.601   9.147 -0.9254 -0.4880 -0.4493
  429MOL0     C57806   9.276   9.650   9.201 -0.1713 -1.0731 -0.0185
  429MOL0     C57807   9.295   9.788   9.210 -0.8803  0.5743  0.1051
  429MOL0     C57808   9.435   9.817   9.273 -0.1199 -1.0401 -0.6177
  429MOL0     C57809   9.201   9.881   9.160 -0.2169  0.0507 -0.6794
  429MOL0     C57810   9.226  10.028   9.154  0.4504  0.3775 -0.2709
  429MOL0     O57811   9.336  10.075   9.106 -0.1700  0.3735  0.5596
  429MOL0     C57812   9.355  10.207   9.117 -0.2048  0.0732 -0.6499
  429MOL0     C57813   9.332  10.292   9.012 -0.0324 -0.9736  1.1794
  429MOL0     C57814   9.375  10.427   9.011  0.6461 -0.4835 -0.0867
  429MOL0     C57815   9.438  10.475   9.123  0.5470  1.1361 -0.7100
  429MOL0     O57816   9.450  10.611   9.121 -0.4561  0.4142  0.4957
  429MOL0     C57817   9.542  10.662   9.213 -0.2062 -0.6009  0.3315
  429MOL0     C57818   9.550  10.815   9.177  0.4120 -0.6729 -0.6746
  429MOL0     C57819   9.669  10.871   9.273  0.1432  0.7207  0.3626
  429MOL0     C57820   9.687  11.019   9.256 -0.4803 -0.8561  0.1978
  429MOL0     C57821   9.801  11.088   9.332 -0.9709  0.0003 -0.8831
  429MOL0     C57822   9.742  11.107   9.472  0.8497 -0.1363 -0.0642
  429MOL0     C57823   9.843  11.075   9.584  1.2665 -0.2865 -0.1079
  429MOL0     C57824   9.803  11.133   9.728  0.7514 -0.4179  0.4442
  429MOL0    Cl57825   9.925  11.080   9.828  0.0824 -0.0614  0.2594
  429MOL0     C57826   9.474  10.394   9.225 -0.5983  0.0936 -0.7916
  429MOL0     C57827   9.429  10.260   9.224  1.1037 -0.8357  0.3480
  429MOL0     O57828   9.137  10.096   9.214  0.3506  0.7998  0.7625
  429MOL0     C57829   9.083   9.829   9.099 -0.4017 -0.2743  0.6213
  429MOL0     C57830   9.059   9.691   9.102  0.9661 -0.5836  0.7847
  429MOL0     N57831   9.061   8.996   9.595 -0.7210  1.6937 -0.3107
  429MOL0     N57832   9.095   9.021   9.716 -0.2855 -0.1629 -0.3610
  429MOL0     C57833  10.219   8.657   9.770 -0.2577 -0.3530 -0.2505
  429MOL0     C57834  10.334   8.636   9.844 -0.2809 -0.3623  0.0356
  429MOL0     C57835  10.659   8.580  10.089  0.8222  0.6216 -0.4964
  429MOL0     C57836  10.670   8.487  10.193 -0.5044  0.6082  0.5974
  429MOL0     C57837  10.800   8.457  10.241 -0.0189 -0.0284  0.8403
  429MOL0     C57838  10.914   8.516  10.175 -0.3852  0.1617 -0.3723
  429MOL0     O57839  11.042   8.494  10.205  0.5241  0.6004 -0.2175
  429MOL0     C57840  11.062   8.418  10.334 -0.4422  0.1196 -0.3516
  429MOL0     C57841  11.201   8.449  10.379 -0.1464 -1.8203  0.2431
  429MOL0     C57842  11.232   8.589  10.447  0.1497 -0.7694  0.4691
  429MOL0     C57843  11.149   8.609  10.577 -0.9337  0.0228 -0.4687
  429MOL0     C57844  11.166   8.751  10.610 -0.8531  0.2025 -0.2306
  429MOL0     C57845  11.187   8.866  10.618  0.6966  0.3056  1.0000
  429MOL0     C57846  10.901   8.602  10.069  0.4323  0.0123 -0.7896
  429MOL0     C57847  10.771   8.636  10.035  0.6735 -0.2235 -0.2562
  429MOL0     H57848  10.484   8.938   9.779 -0.1215  0.7015  0.4841
  429MOL0     H57849  10.282   8.964   9.648 -5.2982 -0.6535  1.1262
  429MOL0     H57850  10.063   8.991   9.631  1.8248 -1.8731 -2.2300
  429MOL0     H57851   9.949   8.913   9.531 -1.9982  2.8842  0.7529
  429MOL0     H57852   9.860   8.793   9.753 -0.6125  0.4942  1.6084
  429MOL0     H57853   9.947   8.924   9.829 -0.7726  1.8933  0.3146
  429MOL0     H57854   9.829   9.096   9.681  0.2770  0.0967 -2.0099
  429MOL0     H57855   9.749   8.969   9.598  1.9719 -1.5945 -0.9408
  429MOL0     H57856   9.660   8.909   9.833  3.8037 -1.0734 -0.5197
  429MOL0     H57857   9.724   9.061   9.885  3.1244  0.6495 -0.6584
  429MOL0     H57858   9.586   9.160   9.668 -2.1369  1.9613  0.4596
  429MOL0     H57859   9.490   9.016   9.698  0.3536 -0.6088 -0.1178
  429MOL0     H57860   9.433   9.061   9.918  2.9432 -3.8196 -4.6425
  429MOL0     H57861   9.541   9.194   9.937 -0.3265 -1.5891  1.9181
  429MOL0     H57862   9.379   9.338   9.887 -3.7396  0.9340  0.3702
  429MOL0     H57863   9.384   9.285   9.717 -1.2813 -0.3008 -0.3163
  429MOL0     H57864   9.159   9.274   9.860 -2.2933 -0.8143 -2.5022
  429MOL0     H57865   9.214   9.124   9.918  2.5612 -4.1595 -2.9590
  429MOL0     H57866   9.235   9.263   9.556  1.7972 -0.2835  2.9877
  429MOL0     H57867   9.141   9.043   9.308 -1.3347  1.9217 -2.2303
  429MOL0     H57868   8.976   9.078   9.372 -0.0644  2.1166 -0.7985
  429MOL0     H57869   9.203   9.271   9.326 -0.5870  0.8031  1.4055
  429MOL0     H57870   9.048   9.305   9.406  2.2231  1.5503  0.5904
  429MOL0     H57871   8.919   9.225   9.186  1.0667 -1.3785 -5.1874
  429MOL0     H57872   9.083   9.198   9.125  0.0261 -0.6467  1.2391
  429MOL0     H57873   8.932   9.449   9.189  0.6989  3.4273 -0.8477
  429MOL0     H57874   8.986   9.379   9.028  2.6860  0.3484 -1.2392
  429MOL0     H57875   9.346   9.583   9.249  0.1910 -0.1445  0.7700
  429MOL0     H57876   9.422   9.816   9.381  0.9980 -1.1095 -0.4737
  429MOL0     H57877   9.514   9.747   9.245 -0.1321 -1.8531  1.2397
  429MOL0     H57878   9.468   9.917   9.242  1.0082 -1.2751 -0.2175
  429MOL0     H57879   9.294  10.256   8.917  1.0733 -0.1357  0.3861
  429MOL0     H57880   9.349  10.487   8.924  1.3906 -0.8709 -0.5879
  429MOL0     H57881   9.524  10.652   9.321  0.2386  1.7342  0.6911
  429MOL0     H57882   9.638  10.614   9.195  0.0580 -0.8558  2.1685
  429MOL0     H57883   9.563  10.823   9.069  0.8535  0.9850 -0.5220
  429MOL0     H57884   9.458  10.864   9.210  1.3947  0.1722  0.9454
  429MOL0     H57885   9.765  10.822   9.257  1.4089  1.9433  3.5312
  429MOL0     H57886   9.662  10.840   9.377  0.5917 -2.5464 -0.4665
  429MOL0     H57887   9.724  11.037   9.154  2.8628  1.1824  1.6003
  429MOL0     H57888   9.593  11.074   9.268  0.6876  0.8557  2.0041
  429MOL0     H57889   9.809  11.186   9.285 -0.8433 -0.5163 -1.9609
  429MOL0     H57890   9.890  11.024   9.336  0.8557  2.4360 -0.7021
  429MOL0     H57891   9.712  11.211   9.486  0.7852 -0.0738 -0.6749
  429MOL0     H57892   9.652  11.045   9.482  1.4001 -1.5008 -2.7015
  429MOL0     H57893   9.945  11.101   9.556  1.3029  0.3176  0.5813
  429MOL0     H57894   9.848  10.966   9.599  0.1707 -0.4459 -0.7753
  429MOL0     H57895   9.709  11.091   9.764 -0.6537  0.5737 -1.8284
  429MOL0     H57896   9.794  11.242   9.738 -4.8210 -0.5725 -0.2613
  429MOL0     H57897   9.538  10.403   9.312  0.0638 -1.5973 -1.0565
  429MOL0     H57898   9.468  10.199   9.304 -0.0673 -0.6857  1.0473
  429MOL0     H57899   9.009   9.892   9.052 -2.5380 -0.7857  3.0904
  429MOL0     H57900   8.966   9.652   9.059  1.9587 -1.9239 -0.2369
  429MOL0     H57901  10.156   8.571   9.754  0.8070 -1.0647 -0.6839
  429MOL0     H57902  10.357   8.536   9.881 -1.6644 -0.1385  1.6094
  429MOL0     H57903  10.582   8.441  10.235 -0.2937 -0.9653 -0.6015
  429MOL0     H57904  10.798   8.389  10.326 -0.8454 -1.0891  0.0096
  429MOL0     H57905  11.000   8.435  10.422  1.5199 -0.4405  1.2137
  429MOL0     H57906  11.060   8.312  10.306  0.6840  0.1893 -0.7720
  429MOL0     H57907  11.277   8.429  10.303  0.8820 -0.3585  0.8312
  429MOL0     H57908  11.213   8.384  10.467  1.5544  1.7796  2.9422
  429MOL0     H57909  11.198   8.660  10.371 -0.5008 -2.2365 -0.6668
  429MOL0     H57910  11.338   8.585  10.475  0.4417 -0.1309 -0.4902
  429MOL0     H57911  11.176   8.533  10.650  1.1749  1.1702  0.0191
  429MOL0     H57912  11.043   8.596  10.553 -1.1778 -0.7952  0.9670
  429MOL0     H57913  11.202   8.969  10.644  0.0026  0.8229 -0.5523
  429MOL0     H57914  10.983   8.653  10.020 -0.1241 -0.8737 -2.7519
  429MOL0     H57915  10.774   8.714   9.960  1.6816  1.7108  1.6720
  430MOL0     O57916   3.534   9.976   1.377 -0.2131  0.4110  0.6655
  430MOL0     C57917   3.457  10.066   1.348  0.1345  0.8145 -0.1206
  430MOL0     O57918   3.440  10.181   1.423 -0.4912  0.2455 -0.3630
  430MOL0     C57919   3.495  10.186   1.547 -0.1890  1.1263  0.6205
  430MOL0     C57920   3.628  10.233   1.550  0.3203 -0.2069 -0.3921
  430MOL0     C57921   3.692  10.246   1.677  0.5825  0.6096  0.0790
  430MOL0     C57922   3.628  10.204   1.797 -0.4931  0.0148 -0.0116
  430MOL0     O57923   3.700  10.207   1.916 -0.4442  0.1356  0.1642
  430MOL0     C57924   3.645  10.137   2.024  0.6560  0.3745 -0.8703
  430MOL0     C57925   3.757  10.102   2.132 -0.4691 -0.2777  0.2152
  430MOL0     C57926   3.725  10.028   2.263 -0.3821  0.1280 -0.8292
  430MOL0     C57927   3.863   9.974   2.321  0.4284 -0.3882  0.7793
  430MOL0     C57928   3.954  10.083   2.379 -0.4232 -0.0272  0.1976
  430MOL0     C57929   4.069  10.015   2.456 -1.4597 -0.6397  1.0301
  430MOL0     C57930   4.161  10.119   2.515  0.3806 -0.0863 -0.3962
  430MOL0     C57931   4.245  10.196   2.412 -0.4817 -0.3407 -0.2738
  430MOL0     N57932   4.308  10.303   2.489  0.1178 -0.4557  0.1242
  430MOL0     C57933   4.283  10.438   2.475 -0.0553  1.0151 -0.1508
  430MOL0     C57934   4.340  10.493   2.587 -0.4678 -0.6116 -0.8892
  430MOL0     C57935   4.309  10.631   2.622  0.3043  0.0399  0.0135
  430MOL0     C57936   4.405  10.724   2.537 -0.7659  0.5236 -0.7808
  430MOL0     C57937   4.500  10.800   2.629 -0.9814 -0.4763 -0.6016
  430MOL0     C57938   4.599  10.885   2.546  0.1673  0.7072  0.2000
  430MOL0     O57939   4.694  10.795   2.486  0.5932 -0.1839 -0.7984
  430MOL0     C57940   4.793  10.841   2.404 -0.6367 -0.0461  0.2157
  430MOL0     C57941   4.824  10.967   2.359 -0.1581 -0.5464 -0.3029
  430MOL0     C57942   4.940  11.009   2.298  0.3777 -0.8542 -0.3501
  430MOL0     C57943   4.969  11.158   2.277  0.2152 -0.6741 -0.2866
  430MOL0     C57944   5.023  10.904   2.260  0.8259  0.2749 -0.2386
  430MOL0     C57945   5.140  10.926   2.173  0.1629 -0.2806  0.2591
  430MOL0     O57946   5.211  10.818   2.122  0.9832  0.1043 -0.2895
  430MOL0     C57947   5.320  10.836   2.042  0.0064 -0.9817 -0.0314
  430MOL0     C57948   5.338  10.735   1.948 -0.4753 -0.2261  0.0286
  430MOL0     C57949   5.445  10.730   1.857 -1.0975  0.1473 -1.3599
  430MOL0     C57950   5.541  10.831   1.870 -0.2499  0.3965  0.3601
  430MOL0     O57951   5.638  10.847   1.774  0.0807  1.1150  0.1852
  430MOL0     C57952   5.651  10.763   1.656 -0.9998  0.2273 -0.2135
  430MOL0     C57953   5.785  10.768   1.577  0.2949 -0.3608  0.4669
  430MOL0     C57954   5.797  10.649   1.479 -0.6151 -0.5619  0.4258
  430MOL0     C57955   5.937  10.647   1.416 -0.3664  0.2887  0.7156
  430MOL0     C57956   6.028  10.556   1.503  0.3995 -0.3879  0.4305
  430MOL0     C57957   6.170  10.537   1.467 -0.7295 -0.0544 -0.5167
  430MOL0     C57958   6.186  10.452   1.332 -0.4905  0.2185 -0.3758
  430MOL0     C57959   6.328  10.432   1.271 -0.1373  0.0730  0.3356
  430MOL0    Cl57960   6.300  10.358   1.111  0.5648 -0.1741 -0.2905
  430MOL0     C57961   5.538  10.920   1.978  0.1839  0.3099 -0.3444
  430MOL0     C57962   5.434  10.921   2.068 -0.3994  0.4819 -0.4856
  430MOL0     O57963   5.176  11.041   2.151  0.3091  0.2840 -0.2577
  430MOL0     C57964   4.987  10.773   2.295 -0.5183  0.0632 -0.0225
  430MOL0     C57965   4.881  10.744   2.375 -0.5904  0.3530  0.1912
  430MOL0     N57966   4.407  10.398   2.655  0.5734  0.0746 -0.1433
  430MOL0     N57967   4.388  10.282   2.604  0.7517  0.0189  0.2914
  430MOL0     C57968   3.498  10.154   1.780  0.1737 -1.3340 -0.1818
  430MOL0     C57969   3.442  10.132   1.658  0.3282  0.3591 -0.2399
  430MOL0     C57970   3.365  10.041   1.233  0.3567  0.3307 -0.6295
  430MOL0     C57971   3.238  10.098   1.224  0.3906  0.3277 -0.4585
  430MOL0     C57972   3.148  10.073   1.122 -0.1819 -0.4531 -0.3530
  430MOL0     C57973   3.197   9.979   1.021 -0.1480  0.4953 -0.2703
  430MOL0     O57974   3.121   9.948   0.912  0.8596  1.0882 -1.3219
  430MOL0     C57975   2.982   9.927   0.929 -1.1983 -0.3175 -0.3874
  430MOL0     C57976   2.922   9.805   0.854  0.0919 -1.1043 -0.5886
  430MOL0     C57977   2.926   9.819   0.704 -0.5530 -0.9374 -0.7756
  430MOL0     C57978   2.830   9.725   0.630 -0.0922 -0.2285 -0.6553
  430MOL0     C57979   2.758   9.791   0.516  0.1577 -0.2157 -0.5724
  430MOL0     C57980   2.719   9.853   0.416  0.6995 -0.2897  0.1749
  430MOL0     C57981   3.323   9.925   1.025 -0.1252 -0.1178  0.3850
  430MOL0     C57982   3.407   9.945   1.141  0.2722  0.8007 -0.5818
  430MOL0     H57983   3.686  10.237   1.458  1.8120 -1.5495  0.4383
  430MOL0     H57984   3.798  10.270   1.682  1.1519 -1.3450 -1.4591
  430MOL0     H57985   3.576  10.209   2.069  0.1503  0.3473 -1.5789
  430MOL0     H57986   3.602  10.038   2.001 -0.2430  0.2356  1.1868
  430MOL0     H57987   3.835  10.049   2.076  1.3640 -0.1915  2.5170
  430MOL0     H57988   3.819  10.189   2.157  1.3484 -1.9785  2.0120
  430MOL0     H57989   3.684  10.093   2.340  0.2952 -1.9287  1.4096
  430MOL0     H57990   3.657   9.944   2.248  0.9071 -0.4215 -4.6501
  430MOL0     H57991   3.845   9.905   2.404 -0.3823 -1.5930 -0.3540
  430MOL0     H57992   3.897   9.916   2.234 -2.3252  0.0735 -0.7258
  430MOL0     H57993   3.988  10.145   2.296 -0.4555  1.4405  1.2497
  430MOL0     H57994   3.901  10.147   2.449 -2.3541 -0.7937 -0.4974
  430MOL0     H57995   4.037   9.959   2.545  2.2388  0.5979  3.3947
  430MOL0     H57996   4.128   9.947   2.394  0.1668  2.6793 -1.3729
  430MOL0     H57997   4.095  10.185   2.571  0.8827  1.8727 -2.0027
  430MOL0     H57998   4.241  10.073   2.573  0.6816  3.5436  2.4153
  430MOL0     H57999   4.190  10.237   2.326  0.4461 -0.1870 -0.8129
  430MOL0     H58000   4.332  10.140   2.376  2.2845  2.5078  1.3800
  430MOL0     H58001   4.215  10.478   2.400 -2.1106 -0.5150  0.7689
  430MOL0     H58002   4.203  10.650   2.602  0.3273 -1.7455 -2.2712
  430MOL0     H58003   4.332  10.664   2.724 -1.0183  1.8215 -0.2227
  430MOL0     H58004   4.336  10.786   2.479 -1.6110  1.7044  1.3719
  430MOL0     H58005   4.463  10.659   2.471 -1.4898  0.6142 -1.5180
  430MOL0     H58006   4.565  10.725   2.675  1.0784  1.0630 -0.8809
  430MOL0     H58007   4.448  10.870   2.695  0.8736 -2.5279  3.4384
  430MOL0     H58008   4.651  10.965   2.600  2.9603 -1.7563  1.4336
  430MOL0     H58009   4.545  10.945   2.472  0.5473  0.1824 -0.5083
  430MOL0     H58010   4.768  11.055   2.391  1.9857  0.5842  0.5762
  430MOL0     H58011   4.973  11.180   2.170 -1.8003  2.1719  0.1319
  430MOL0     H58012   4.881  11.212   2.312 -1.6393 -3.6957  0.1350
  430MOL0     H58013   5.056  11.188   2.337 -1.1621  0.4528  1.2471
  430MOL0     H58014   5.269  10.651   1.945 -0.6835 -0.0419 -0.4143
  430MOL0     H58015   5.456  10.646   1.788 -2.5612 -0.1006 -1.3350
  430MOL0     H58016   5.638  10.662   1.694 -0.5423  1.0696  2.4136
  430MOL0     H58017   5.564  10.755   1.590  0.8460  1.7462 -3.0691
  430MOL0     H58018   5.784  10.866   1.528 -1.3197 -0.6994 -0.2677
  430MOL0     H58019   5.867  10.774   1.649  1.0278  0.7549 -0.4333
  430MOL0     H58020   5.727  10.656   1.395  2.6344  1.7414 -2.3600
  430MOL0     H58021   5.776  10.555   1.529  0.2962 -2.2430 -2.1438
  430MOL0     H58022   5.924  10.612   1.314 -1.0812  3.5030 -0.4156
  430MOL0     H58023   5.987  10.744   1.408 -1.2539  0.7589  0.7602
  430MOL0     H58024   5.972  10.461   1.502  1.3465 -0.9558  0.4463
  430MOL0     H58025   6.011  10.606   1.599  0.5364  2.2039 -0.8149
  430MOL0     H58026   6.212  10.636   1.450  0.8686 -0.9917 -2.4746
  430MOL0     H58027   6.234  10.483   1.537  1.1037  0.8862 -1.4132
  430MOL0     H58028   6.132  10.493   1.247  0.6710 -1.2297 -1.8693
  430MOL0     H58029   6.136  10.355   1.341  2.1907 -1.6124 -3.1189
  430MOL0     H58030   6.395  10.367   1.330  1.4653  3.0993  2.0971
  430MOL0     H58031   6.374  10.530   1.259  3.6127 -1.7620 -2.9644
  430MOL0     H58032   5.627  10.981   1.994  1.3752 -1.4917  0.1998
  430MOL0     H58033   5.433  10.994   2.148 -1.4051  0.1578 -0.1801
  430MOL0     H58034   5.047  10.684   2.283 -0.5913 -0.2425  1.6433
  430MOL0     H58035   4.877  10.646   2.422  1.1360  0.6177  0.9491
  430MOL0     H58036   3.450  10.129   1.874 -0.8281 -0.8650 -0.5559
  430MOL0     H58037   3.346  10.087   1.636  1.8460 -2.5464 -1.5986
  430MOL0     H58038   3.213  10.179   1.291  1.9664 -0.5664  1.2898
  430MOL0     H58039   3.052  10.123   1.127  0.2448  0.3885 -0.4207
  430MOL0     H58040   2.955   9.920   1.035 -1.8671 -1.7665 -0.6328
  430MOL0     H58041   2.936  10.016   0.884  0.1093  0.6110  0.0521
  430MOL0     H58042   2.831   9.772   0.904 -0.4815  1.9919  0.5811
  430MOL0     H58043   2.981   9.718   0.885  1.1234  0.2739  1.5213
  430MOL0     H58044   3.026   9.790   0.668  0.2099 -1.7167  1.7896
  430MOL0     H58045   2.917   9.924   0.672  3.1989  0.7316  2.7119
  430MOL0     H58046   2.750   9.712   0.703 -0.0739  1.1142 -0.3678
  430MOL0     H58047   2.880   9.632   0.601 -0.0366 -0.5167  0.3354
  430MOL0     H58048   2.671   9.900   0.332  1.0061 -1.3733 -0.6229
  430MOL0     H58049   3.355   9.857   0.947  2.1329  1.9569 -0.6258
  430MOL0     H58050   3.501   9.893   1.158 -1.5736 -2.3619  0.7697
  431MOL0     O58051   2.482   0.631   0.214 -1.1744  0.9055  0.8985
  431MOL0     C58052   2.396   0.715   0.246  0.2265 -0.5667 -0.5739
  431MOL0     O58053   2.412   0.810   0.334  0.0570 -0.1015 -0.1894
  431MOL0     C58054   2.530   0.826   0.395 -0.0530 -0.3773 -0.1452
  431MOL0     C58055   2.609   0.945   0.393  0.7487  0.0485 -0.3928
  431MOL0     C58056   2.740   0.958   0.448  0.2461 -0.1319 -0.0125
  431MOL0     C58057   2.786   0.854   0.538  0.4722 -0.4227 -0.8291
  431MOL0     O58058   2.914   0.871   0.592 -0.0648 -0.3760  0.2165
  431MOL0     C58059   2.912   0.894   0.730  0.0408  0.4659  0.0461
  431MOL0     C58060   3.054   0.863   0.783 -0.4620  0.3253 -0.0517
  431MOL0     C58061   3.067   0.715   0.795  0.0839  0.6094 -0.7864
  431MOL0     C58062   3.216   0.666   0.796  0.2362  0.7147  0.3543
  431MOL0     C58063   3.311   0.720   0.912 -0.1499 -0.4044 -0.5573
  431MOL0     C58064   3.443   0.658   0.901 -0.2312 -0.3738 -0.2045
  431MOL0     C58065   3.541   0.763   0.856  0.0794 -0.1479 -0.4464
  431MOL0     C58066   3.688   0.703   0.852 -0.1342 -0.6604  0.0904
  431MOL0     N58067   3.706   0.588   0.772  0.1306  0.5333  0.0753
  431MOL0     C58068   3.771   0.473   0.815  0.5309 -0.4821  0.0549
  431MOL0     C58069   3.785   0.392   0.702 -0.4935  0.0312  0.0505
  431MOL0     C58070   3.854   0.255   0.695  0.6245 -0.2575  1.0815
  431MOL0     C58071   3.970   0.274   0.591  0.3665 -0.1756 -0.1800
  431MOL0     C58072   4.053   0.145   0.581 -0.1826  0.1796  0.2219
  431MOL0     C58073   4.127   0.122   0.450 -0.3980 -0.0232  0.0985
  431MOL0     O58074   4.181  -0.010   0.461 -0.2630  0.1364 -0.3160
  431MOL0     C58075   4.303  -0.036   0.525  0.3306  0.3192 -0.1265
  431MOL0     C58076   4.332  -0.172   0.548  0.5995 -1.0062  0.4261
  431MOL0     C58077   4.427  -0.214   0.637 -0.0313  0.5025 -1.6223
  431MOL0     C58078   4.425  -0.370   0.653 -1.0451 -0.0006  0.1496
  431MOL0     C58079   4.508  -0.119   0.702 -0.3470 -0.4808 -0.9078
  431MOL0     C58080   4.609  -0.157   0.807  0.2631  0.2684  0.2799
  431MOL0     O58081   4.595  -0.278   0.880 -0.0504 -1.0150  0.1677
  431MOL0     C58082   4.683  -0.321   0.977  0.3954 -0.3120  0.8404
  431MOL0     C58083   4.813  -0.342   0.945 -0.7399  0.0723  0.5128
  431MOL0     C58084   4.909  -0.385   1.047 -0.2678  0.7645 -0.1076
  431MOL0     C58085   4.865  -0.424   1.178  0.2825  0.1053  0.2235
  431MOL0     O58086   4.935  -0.476   1.279 -0.1529  0.7790 -0.1283
  431MOL0     C58087   5.076  -0.504   1.249  0.3026 -1.1803  0.0579
  431MOL0     C58088   5.107  -0.638   1.185 -0.2076 -0.0468 -0.2182
  431MOL0     C58089   5.095  -0.757   1.280 -0.3282 -0.0479 -0.4361
  431MOL0     C58090   5.093  -0.889   1.206 -0.5162  0.4936 -0.2367
  431MOL0     C58091   5.032  -1.005   1.301  0.5140  0.0180  0.6497
  431MOL0     C58092   5.001  -1.140   1.232 -1.1674 -0.7454  0.3548
  431MOL0     C58093   4.975  -1.236   1.341 -0.6174  0.0741  0.2893
  431MOL0     C58094   4.961  -1.386   1.297  0.0737  0.2184 -0.1536
  431MOL0    Cl58095   5.004  -1.509   1.424  0.3342 -0.0692 -0.1954
  431MOL0     C58096   4.723  -0.403   1.206 -0.0793  0.1739  0.1611
  431MOL0     C58097   4.636  -0.356   1.109 -0.5275 -0.6730 -0.0213
  431MOL0     O58098   4.701  -0.081   0.831  0.1400  0.2789  0.3712
  431MOL0     C58099   4.491   0.015   0.661 -0.3848  0.6003  0.1048
  431MOL0     C58100   4.392   0.056   0.577  0.1856 -0.3128 -0.0268
  431MOL0     N58101   3.733   0.461   0.595  0.0113 -0.6925  0.2020
  431MOL0     N58102   3.677   0.571   0.641 -0.1292  0.2759  0.3401
  431MOL0     C58103   2.718   0.730   0.536  0.2014 -0.1000 -0.6964
  431MOL0     C58104   2.591   0.721   0.468  1.0011 -0.0720  0.8045
  431MOL0     C58105   2.272   0.713   0.178  0.6032  0.1920  0.2008
  431MOL0     C58106   2.192   0.830   0.197 -0.3397  0.5749  0.6498
  431MOL0     C58107   2.072   0.840   0.126  0.1460  0.2521 -0.4793
  431MOL0     C58108   2.030   0.732   0.043 -0.1050 -0.4570 -0.8941
  431MOL0     O58109   1.916   0.765  -0.030 -0.8538  0.1189 -0.4632
  431MOL0     C58110   1.885   0.694  -0.152 -0.0622  0.6371 -0.0930
  431MOL0     C58111   1.774   0.758  -0.228  0.8170 -0.5957  0.1738
  431MOL0     C58112   1.719   0.683  -0.349 -0.1324 -0.6223 -0.3053
  431MOL0     C58113   1.817   0.678  -0.472 -0.2058  0.7952 -0.3137
  431MOL0     C58114   1.829   0.809  -0.543 -0.1335  0.2314  0.1356
  431MOL0     C58115   1.828   0.922  -0.578 -0.0512  0.6125  0.7384
  431MOL0     C58116   2.102   0.615   0.037  0.5707 -0.6262  0.2411
  431MOL0     C58117   2.219   0.601   0.102 -0.5747  0.8275 -0.6151
  431MOL0     H58118   2.558   1.024   0.338  1.6443  0.6058 -0.4378
  431MOL0     H58119   2.810   1.039   0.431 -1.1577  0.9390 -0.9797
  431MOL0     H58120   2.888   0.998   0.755 -0.1893 -0.6360  5.8816
  431MOL0     H58121   2.836   0.837   0.783  0.4019 -2.8263 -2.6536
  431MOL0     H58122   3.126   0.886   0.703 -1.2737 -2.6214 -1.7989
  431MOL0     H58123   3.068   0.920   0.875 -1.5059 -0.1709  0.4350
  431MOL0     H58124   3.033   0.691   0.896  4.1789  1.3458  0.9859
  431MOL0     H58125   3.014   0.652   0.723 -0.6899 -2.1567  1.9735
  431MOL0     H58126   3.208   0.557   0.795 -2.4827  0.8389  0.4700
  431MOL0     H58127   3.262   0.712   0.707  0.5159  2.0216  1.1407
  431MOL0     H58128   3.324   0.827   0.929  1.0071 -0.8476  1.8432
  431MOL0     H58129   3.268   0.695   1.009  0.3642 -2.0015 -0.7092
  431MOL0     H58130   3.477   0.634   1.003  1.9369  0.1723 -0.7360
  431MOL0     H58131   3.444   0.568   0.839  0.3835  0.0330 -0.7989
  431MOL0     H58132   3.513   0.819   0.766  1.3846  4.3929  1.6691
  431MOL0     H58133   3.541   0.850   0.922  1.2804  1.2166 -2.1229
  431MOL0     H58134   3.696   0.672   0.956 -1.4643  2.0731  1.1066
  431MOL0     H58135   3.761   0.778   0.820 -0.3195 -0.5971 -0.1893
  431MOL0     H58136   3.807   0.453   0.915  1.7774 -0.7958 -0.4385
  431MOL0     H58137   3.887   0.228   0.796  2.1156 -0.8730  0.4509
  431MOL0     H58138   3.785   0.177   0.661  0.2122  0.6527 -0.2374
  431MOL0     H58139   4.030   0.361   0.621  0.7506 -1.0191  1.5848
  431MOL0     H58140   3.936   0.311   0.494  0.7971 -1.4422 -0.8365
  431MOL0     H58141   3.983   0.061   0.589  0.9437 -0.8310 -0.3560
  431MOL0     H58142   4.120   0.150   0.666  0.1922  2.4556 -0.1440
  431MOL0     H58143   4.198   0.202   0.428 -0.5165 -0.0474 -0.3991
  431MOL0     H58144   4.046   0.141   0.379 -0.2238  1.7337  0.3316
  431MOL0     H58145   4.276  -0.243   0.488 -1.4064  1.6374 -1.0533
  431MOL0     H58146   4.381  -0.423   0.568  1.0065 -1.4143 -0.1331
  431MOL0     H58147   4.526  -0.411   0.667  0.0897  2.7562  0.5951
  431MOL0     H58148   4.371  -0.392   0.745 -3.0915  2.1727 -0.4391
  431MOL0     H58149   4.852  -0.324   0.845  0.2544 -2.4824  0.3528
  431MOL0     H58150   5.007  -0.404   1.004  0.2243  0.1793  1.2140
  431MOL0     H58151   5.125  -0.417   1.204 -2.4837  0.3776 -0.1640
  431MOL0     H58152   5.128  -0.503   1.345  0.4445 -2.0549  0.0019
  431MOL0     H58153   5.046  -0.645   1.095 -2.9872  0.1740  1.5158
  431MOL0     H58154   5.215  -0.622   1.176  0.0372  1.3012  3.3104
  431MOL0     H58155   4.996  -0.743   1.325 -0.6458 -0.5054 -0.9845
  431MOL0     H58156   5.165  -0.755   1.364  0.7541 -1.0886 -1.2768
  431MOL0     H58157   5.035  -0.880   1.114 -0.2812  1.7880 -0.2704
  431MOL0     H58158   5.194  -0.919   1.175 -1.4275  0.3617 -3.4315
  431MOL0     H58159   4.940  -0.961   1.341 -0.8968  2.2418 -4.2946
  431MOL0     H58160   5.091  -1.026   1.390 -1.3323 -3.1816  1.2806
  431MOL0     H58161   4.920  -1.134   1.158 -0.2919 -3.2679 -0.9423
  431MOL0     H58162   5.091  -1.169   1.177  0.1075  1.4505  1.1514
  431MOL0     H58163   4.882  -1.220   1.398 -0.4751 -2.5411  1.3766
  431MOL0     H58164   5.056  -1.237   1.415 -1.2697  0.3066  1.0299
  431MOL0     H58165   5.025  -1.405   1.210  3.8457  0.5942  2.3154
  431MOL0     H58166   4.860  -1.413   1.266 -0.3780 -1.2193  2.2744
  431MOL0     H58167   4.692  -0.436   1.305  1.0104  2.0262  1.1778
  431MOL0     H58168   4.534  -0.335   1.142 -0.7411 -0.7187 -0.6333
  431MOL0     H58169   4.560   0.087   0.704  2.7698 -1.1729 -1.6139
  431MOL0     H58170   4.380   0.164   0.575  0.8173 -0.2278  0.5223
  431MOL0     H58171   2.752   0.646   0.595 -2.1330  0.4737  1.6722
  431MOL0     H58172   2.546   0.622   0.463  2.6882 -1.3282  5.2409
  431MOL0     H58173   2.221   0.912   0.262 -1.6193  0.4332  1.4447
  431MOL0     H58174   2.010   0.929   0.132 -1.4625 -0.6385 -2.5346
  431MOL0     H58175   1.970   0.684  -0.220 -0.3813 -4.6134 -0.1579
  431MOL0     H58176   1.857   0.594  -0.116 -0.7009  1.1248  0.7792
  431MOL0     H58177   1.805   0.860  -0.250 -1.2658  0.0616  0.0441
  431MOL0     H58178   1.685   0.765  -0.165 -1.6362  3.5063 -3.2456
  431MOL0     H58179   1.624   0.727  -0.380 -0.7850 -1.9468 -0.2405
  431MOL0     H58180   1.679   0.589  -0.312 -2.8308  1.0237  1.3418
  431MOL0     H58181   1.764   0.626  -0.552 -1.7515  0.6883  0.7297
  431MOL0     H58182   1.918   0.648  -0.440 -0.9194  0.9741  2.3538
  431MOL0     H58183   1.846   1.024  -0.606 -0.2015  0.2273 -0.8474
  431MOL0     H58184   2.090   0.529  -0.029  3.0913 -1.8058  1.1845
  431MOL0     H58185   2.280   0.511   0.105 -0.4739  0.8917  2.5796
  432MOL0     O58186   0.920   5.853   1.337 -0.1702 -0.0834  0.2662
  432MOL0     C58187   0.943   5.972   1.304  0.8752  0.0548  0.5355
  432MOL0     O58188   0.894   6.034   1.192  0.9945 -0.1096  0.0175
  432MOL0     C58189   0.882   5.948   1.081 -0.2081 -0.5570 -0.3032
  432MOL0     C58190   0.982   5.943   0.980  0.3334  0.1982  0.5779
  432MOL0     C58191   0.972   5.845   0.869  0.3863  0.3194 -1.1419
  432MOL0     C58192   0.851   5.783   0.852  1.1329  0.3414 -0.5564
  432MOL0     O58193   0.827   5.713   0.740 -0.4064  0.6009 -0.5241
  432MOL0     C58194   0.793   5.570   0.762  0.6271  0.8352  0.4421
  432MOL0     C58195   0.906   5.483   0.700 -0.3506  0.0462 -0.5821
  432MOL0     C58196   0.942   5.503   0.552  0.5187  0.2781 -0.1001
  432MOL0     C58197   1.070   5.588   0.540 -0.2968  1.0501 -0.0189
  432MOL0     C58198   1.066   5.668   0.412 -0.5485 -0.9531  0.7955
  432MOL0     C58199   1.158   5.792   0.412 -0.6510  0.5574  0.1175
  432MOL0     C58200   1.114   5.901   0.510 -0.3335  0.1891  0.1918
  432MOL0     C58201   1.161   6.037   0.465 -0.0452 -0.2892  0.2061
  432MOL0     N58202   1.052   6.106   0.400  0.3388  1.0674 -0.2716
  432MOL0     C58203   0.976   6.064   0.294 -0.6757  0.5081 -0.9216
  432MOL0     C58204   0.870   6.143   0.290  0.5390  0.0779  0.3870
  432MOL0     C58205   0.746   6.118   0.201  0.2628 -0.2207 -0.3301
  432MOL0     C58206   0.754   6.171   0.061  0.6908 -0.4149 -0.1846
  432MOL0     C58207   0.723   6.322   0.031 -0.7387  1.3166 -0.5533
  432MOL0     C58208   0.781   6.365  -0.106  0.6307  0.7851 -0.5695
  432MOL0     O58209   0.917   6.403  -0.082  0.7080  0.4157 -0.2853
  432MOL0     C58210   0.972   6.465  -0.184  0.1840  0.4870 -0.1333
  432MOL0     C58211   1.106   6.500  -0.170  0.3242  0.0105  0.5506
  432MOL0     C58212   1.172   6.571  -0.276  0.8867  0.3332  0.4928
  432MOL0     C58213   1.313   6.629  -0.246  0.0323 -0.2564 -0.4442
  432MOL0     C58214   1.112   6.598  -0.398  0.2119  0.2434 -0.9215
  432MOL0     C58215   1.181   6.670  -0.511 -0.5854 -0.5973  0.1915
  432MOL0     O58216   1.128   6.647  -0.636  1.0027  0.7434 -0.4834
  432MOL0     C58217   1.207   6.644  -0.754  0.2233  0.4611  1.1657
  432MOL0     C58218   1.141   6.626  -0.872  0.3298 -0.2356 -1.1810
  432MOL0     C58219   1.219   6.632  -0.989 -0.3073  0.8816 -0.5376
  432MOL0     C58220   1.360   6.668  -0.994  1.1185 -0.0092 -0.9583
  432MOL0     O58221   1.421   6.703  -1.109 -0.0365 -0.7672 -0.0507
  432MOL0     C58222   1.554   6.659  -1.136  0.2270 -0.2496  0.0680
  432MOL0     C58223   1.572   6.670  -1.286  0.0381 -0.7650 -0.2300
  432MOL0     C58224   1.710   6.622  -1.307  0.0007  0.2127 -0.4625
  432MOL0     C58225   1.750   6.651  -1.459  0.4256  0.5391 -0.1094
  432MOL0     C58226   1.905   6.640  -1.463  0.2683 -0.2768  0.4381
  432MOL0     C58227   1.964   6.652  -1.610 -0.1481  0.0712 -0.0669
  432MOL0     C58228   2.125   6.618  -1.610  0.1802 -0.5778 -0.2267
  432MOL0     C58229   2.191   6.720  -1.523  0.1498 -0.3947 -0.5628
  432MOL0    Cl58230   2.347   6.765  -1.581  0.7501 -0.0003  0.9149
  432MOL0     C58231   1.418   6.678  -0.868 -0.0343  0.4447 -0.4762
  432MOL0     C58232   1.349   6.660  -0.748 -1.0928 -0.2783 -0.3954
  432MOL0     O58233   1.253   6.768  -0.491 -0.3950 -0.7674 -0.1151
  432MOL0     C58234   0.982   6.551  -0.418  1.2096 -0.1073 -0.0973
  432MOL0     C58235   0.915   6.491  -0.312 -0.3767 -0.2249  0.9932
  432MOL0     N58236   0.901   6.250   0.367 -0.1554 -0.2825 -0.3273
  432MOL0     N58237   1.010   6.226   0.441 -0.2526 -0.2934 -0.0170
  432MOL0     C58238   0.737   5.817   0.939 -0.0217 -0.7413 -0.5236
  432MOL0     C58239   0.759   5.885   1.054  0.1597  0.0323  0.2329
  432MOL0     C58240   1.009   6.047   1.415  0.4789 -0.9663  0.7074
  432MOL0     C58241   1.013   6.183   1.409  0.3361 -0.4014 -0.5053
  432MOL0     C58242   1.070   6.269   1.502  0.1481 -0.3107  0.5000
  432MOL0     C58243   1.128   6.212   1.613 -0.5482 -0.9043  0.7946
  432MOL0     O58244   1.175   6.297   1.710 -0.3653  0.2296 -0.4610
  432MOL0     C58245   1.131   6.277   1.845 -0.1879  0.0829  0.4660
  432MOL0     C58246   1.041   6.399   1.878  0.5565  0.5475  0.8234
  432MOL0     C58247   0.902   6.386   1.809 -0.0446  0.1202 -0.2569
  432MOL0     C58248   0.810   6.480   1.896  0.3417 -0.0723 -0.4015
  432MOL0     C58249   0.670   6.454   1.871  0.6584  0.0765  0.2326
  432MOL0     C58250   0.556   6.434   1.863 -0.2287 -0.9578 -0.8219
  432MOL0     C58251   1.133   6.068   1.623  0.2921  0.2884  0.0056
  432MOL0     C58252   1.075   5.982   1.524 -1.3199 -0.4881 -0.2757
  432MOL0     H58253   1.073   6.001   0.991  2.1268 -2.5830  1.4446
  432MOL0     H58254   1.048   5.822   0.796  1.7487 -1.6252  0.7595
  432MOL0     H58255   0.769   5.541   0.865 -1.0493  2.7698  0.6739
  432MOL0     H58256   0.700   5.548   0.709  0.7918  3.1237 -0.9570
  432MOL0     H58257   0.995   5.490   0.764 -0.5013  1.5032 -0.4996
  432MOL0     H58258   0.885   5.376   0.702  1.3425 -0.3404 -1.6890
  432MOL0     H58259   0.969   5.401   0.524 -1.3821 -0.6925  1.3370
  432MOL0     H58260   0.861   5.539   0.488 -0.6549  0.4283  1.4298
  432MOL0     H58261   1.063   5.663   0.619 -2.7165  1.3730 -0.4588
  432MOL0     H58262   1.163   5.530   0.541 -0.0706  1.3360 -1.6805
  432MOL0     H58263   1.100   5.598   0.335 -1.8563  1.3480 -2.0894
  432MOL0     H58264   0.973   5.699   0.363  1.8346  1.7065 -2.5253
  432MOL0     H58265   1.261   5.762   0.434 -0.4430 -0.5214 -2.0677
  432MOL0     H58266   1.167   5.829   0.310  4.1210 -3.4384 -1.3253
  432MOL0     H58267   1.005   5.893   0.523 -0.4509  1.6929  0.3760
  432MOL0     H58268   1.155   5.882   0.610  1.3346  1.1596 -0.2668
  432MOL0     H58269   1.241   6.031   0.391  0.0412 -0.9571  0.3474
  432MOL0     H58270   1.213   6.093   0.544  1.1986  1.1191 -1.5401
  432MOL0     H58271   0.981   5.974   0.234  1.5475  0.3538 -0.6085
  432MOL0     H58272   0.759   6.010   0.189  3.5388  0.0072  0.2875
  432MOL0     H58273   0.654   6.147   0.252 -1.3838 -3.7844 -0.9551
  432MOL0     H58274   0.688   6.114  -0.005  0.7321 -1.4939  0.6924
  432MOL0     H58275   0.859   6.158   0.033  0.4540 -0.0835 -1.3121
  432MOL0     H58276   0.746   6.396   0.109  1.2582  1.2265 -0.9810
  432MOL0     H58277   0.614   6.323   0.023 -0.7330  3.2374 -0.9087
  432MOL0     H58278   0.720   6.451  -0.135 -2.0540 -1.5032 -2.2395
  432MOL0     H58279   0.769   6.283  -0.176 -2.0779 -1.8670  2.6496
  432MOL0     H58280   1.155   6.488  -0.073  1.7279  0.5580 -0.0601
  432MOL0     H58281   1.373   6.563  -0.182  1.0693 -2.3408 -3.3242
  432MOL0     H58282   1.376   6.639  -0.334 -0.6815 -0.6382 -1.0110
  432MOL0     H58283   1.305   6.727  -0.198  0.9643  0.2097 -1.2263
  432MOL0     H58284   1.033   6.614  -0.875  0.0895  1.5313 -0.7179
  432MOL0     H58285   1.176   6.619  -1.088  1.4588  0.1624 -1.2556
  432MOL0     H58286   1.617   6.723  -1.074 -0.1657 -0.6234  0.8685
  432MOL0     H58287   1.568   6.553  -1.113  0.5564 -0.5176 -1.3013
  432MOL0     H58288   1.507   6.610  -1.351  0.5172  0.1561 -1.6115
  432MOL0     H58289   1.568   6.776  -1.311 -0.2946 -0.7403 -0.0833
  432MOL0     H58290   1.730   6.517  -1.283 -0.1129  0.4745  0.8246
  432MOL0     H58291   1.767   6.691  -1.245 -3.0870  3.0579 -0.4884
  432MOL0     H58292   1.693   6.580  -1.519  0.4322  0.5059 -0.0758
  432MOL0     H58293   1.726   6.752  -1.494  3.1416  1.7907  1.3161
  432MOL0     H58294   1.938   6.544  -1.423  1.2803 -0.0020  0.3010
  432MOL0     H58295   1.946   6.720  -1.400 -2.1333  1.3420  0.0972
  432MOL0     H58296   1.925   6.575  -1.677  1.0224  1.5587 -2.5929
  432MOL0     H58297   1.945   6.750  -1.654 -1.5631  1.0322  2.4880
  432MOL0     H58298   2.165   6.609  -1.711  0.9539  2.1198 -0.2514
  432MOL0     H58299   2.138   6.519  -1.566  0.3678 -0.6817 -0.5157
  432MOL0     H58300   2.203   6.667  -1.428 -1.3128  0.2201  0.0021
  432MOL0     H58301   2.134   6.813  -1.530  0.5908  0.0129  0.8662
  432MOL0     H58302   1.524   6.700  -0.864 -0.2175  1.2598  2.6621
  432MOL0     H58303   1.400   6.685  -0.656 -3.9990  0.5121  1.1253
  432MOL0     H58304   0.927   6.561  -0.510  0.8947  0.8508  0.1786
  432MOL0     H58305   0.816   6.455  -0.337  0.1582 -1.3432  0.4098
  432MOL0     H58306   0.638   5.776   0.920 -0.1295 -1.4760  1.3766
  432MOL0     H58307   0.683   5.910   1.127  1.3691 -3.2850  2.8859
  432MOL0     H58308   0.966   6.232   1.325  0.8301 -0.6663 -0.9427
  432MOL0     H58309   1.057   6.377   1.497 -1.7313 -0.5218  0.1757
  432MOL0     H58310   1.067   6.188   1.844 -0.6464  0.4064  0.0616
  432MOL0     H58311   1.204   6.273   1.926 -2.5638  0.4043  2.7711
  432MOL0     H58312   1.090   6.487   1.836  1.4588 -0.7439 -1.0030
  432MOL0     H58313   1.025   6.419   1.984  0.7366 -0.9072  1.1488
  432MOL0     H58314   0.862   6.284   1.811 -0.7384  0.3946 -0.1610
  432MOL0     H58315   0.918   6.413   1.704  1.6128  2.4874  0.5304
  432MOL0     H58316   0.825   6.586   1.873 -2.3935  0.7110  0.8723
  432MOL0     H58317   0.819   6.463   2.004 -0.4164 -0.0191 -0.3252
  432MOL0     H58318   0.451   6.409   1.859  0.0187 -2.2597  0.2347
  432MOL0     H58319   1.170   6.005   1.704 -5.1198 -0.0506  2.6898
  432MOL0     H58320   1.096   5.875   1.527 -0.8284 -0.3823  0.2635
  433MOL0     O58321   1.581   8.105   9.485 -0.2241  0.2098  0.5649
  433MOL0     C58322   1.575   8.081   9.362  0.0950  0.1145 -0.1872
  433MOL0     O58323   1.676   8.039   9.289  0.0135  0.4812 -0.4435
  433MOL0     C58324   1.791   8.001   9.355 -0.8988  0.2735 -0.2113
  433MOL0     C58325   1.798   7.901   9.446 -0.7030  0.6241 -0.0367
  433MOL0     C58326   1.915   7.872   9.512 -0.7369  0.1231  0.1666
  433MOL0     C58327   2.036   7.934   9.482 -1.0140  0.8152  1.3660
  433MOL0     O58328   2.148   7.916   9.556  0.1470 -0.1163  0.3935
  433MOL0     C58329   2.137   7.934   9.697  0.3321  0.0051  0.2820
  433MOL0     C58330   2.275   7.925   9.756 -0.6731 -0.1177  0.3310
  433MOL0     C58331   2.325   7.777   9.772  0.7735 -0.7236  0.5839
  433MOL0     C58332   2.454   7.768   9.854  0.0351  0.2279 -0.1825
  433MOL0     C58333   2.487   7.622   9.895 -0.2286  0.0643  0.4923
  433MOL0     C58334   2.470   7.532   9.787 -0.0303  0.1081  0.0659
  433MOL0     C58335   2.531   7.391   9.815 -0.2456  0.0875 -0.0213
  433MOL0     C58336   2.462   7.314   9.928  0.1880  0.3229  0.2794
  433MOL0     N58337   2.355   7.236   9.876  0.2574 -0.2624 -0.1555
  433MOL0     C58338   2.361   7.117   9.814  0.0500 -0.9893 -1.0853
  433MOL0     C58339   2.242   7.093   9.756 -0.3133  0.0858 -0.3855
  433MOL0     C58340   2.206   6.992   9.659  0.7506 -0.4636  0.7100
  433MOL0     C58341   2.104   7.031   9.541 -0.1789 -0.2822  0.5542
  433MOL0     C58342   2.166   7.113   9.433  0.0668 -0.2309  0.8315
  433MOL0     C58343   2.081   7.183   9.341 -0.7973 -0.5009  0.4361
  433MOL0     O58344   2.080   7.105   9.228 -0.5597 -0.0432  0.5260
  433MOL0     C58345   2.030   7.164   9.113 -0.8545 -0.2002  0.5540
  433MOL0     C58346   1.991   7.292   9.094 -0.0793 -0.5241  1.1545
  433MOL0     C58347   1.943   7.336   8.963  0.3218 -0.3379 -0.2685
  433MOL0     C58348   1.910   7.472   8.947  0.1829 -1.0726  0.1830
  433MOL0     C58349   1.941   7.246   8.852  0.0025 -0.0703 -0.2127
  433MOL0     C58350   1.895   7.278   8.720  0.2519 -0.4410  0.8038
  433MOL0     O58351   1.961   7.218   8.614  0.2585 -0.3708 -0.0893
  433MOL0     C58352   1.916   7.268   8.486 -0.7138  0.8219 -0.3771
  433MOL0     C58353   1.886   7.175   8.388  1.0028  0.5486  0.1637
  433MOL0     C58354   1.856   7.220   8.258  1.2004  0.9318 -0.1806
  433MOL0     C58355   1.861   7.351   8.215 -0.2412 -0.9616 -0.2784
  433MOL0     O58356   1.814   7.365   8.091  0.0309 -0.0109  1.0806
  433MOL0     C58357   1.791   7.494   8.030 -0.7598  0.0615 -1.0359
  433MOL0     C58358   1.924   7.549   7.985  0.0021  0.4279 -0.4207
  433MOL0     C58359   1.901   7.664   7.883  0.5797 -0.6408 -1.0454
  433MOL0     C58360   1.829   7.785   7.954  0.4626  0.4757  0.6484
  433MOL0     C58361   1.806   7.906   7.859  0.0040  0.2603  0.5955
  433MOL0     C58362   1.745   8.033   7.929 -0.5381  0.2341  0.4775
  433MOL0     C58363   1.731   8.143   7.825 -0.7048 -0.1738  0.2679
  433MOL0     C58364   1.743   8.291   7.879 -0.3233  0.2046  0.0048
  433MOL0    Cl58365   1.897   8.321   7.954  0.0190 -0.1728 -0.6859
  433MOL0     C58366   1.880   7.445   8.321 -0.3110 -0.1638  0.8740
  433MOL0     C58367   1.914   7.401   8.447 -0.5628 -0.2991  0.3965
  433MOL0     O58368   1.798   7.355   8.711  0.0627 -0.5039 -0.5524
  433MOL0     C58369   1.995   7.124   8.872 -0.0087  0.1429 -0.0834
  433MOL0     C58370   2.031   7.078   9.002  0.8797  0.0448 -0.0693
  433MOL0     N58371   2.160   7.201   9.794  0.1677  0.1362  0.2408
  433MOL0     N58372   2.228   7.292   9.853  0.5802  0.1497 -0.5244
  433MOL0     C58373   2.044   8.008   9.361  1.0769 -0.7897 -0.9395
  433MOL0     C58374   1.918   8.046   9.305  0.4640  0.6000 -0.3022
  433MOL0     C58375   1.441   8.090   9.293 -0.4933 -0.0482  0.6584
  433MOL0     C58376   1.326   8.131   9.362 -0.0614  0.4272 -0.2704
  433MOL0     C58377   1.207   8.146   9.294 -0.1830  0.5307  0.2792
  433MOL0     C58378   1.196   8.101   9.163  0.1680  0.2696  0.2246
  433MOL0     O58379   1.084   8.082   9.084 -0.6226 -0.6173  0.1850
  433MOL0     C58380   1.007   8.208   9.066 -0.5829  0.0507  0.3704
  433MOL0     C58381   1.073   8.326   8.999 -0.1801  0.6009  0.0565
  433MOL0     C58382   1.133   8.295   8.861  0.4162  0.4551  0.5525
  433MOL0     C58383   1.170   8.423   8.794 -0.1468  0.5524  0.2973
  433MOL0     C58384   1.277   8.493   8.860  0.3780 -0.6650  0.6269
  433MOL0     C58385   1.345   8.567   8.928 -0.5333  1.0158 -0.0639
  433MOL0     C58386   1.308   8.051   9.095 -0.1745 -0.1153  0.4766
  433MOL0     C58387   1.428   8.056   9.158 -0.0332 -0.0208 -0.8950
  433MOL0     H58388   1.711   7.844   9.476  1.1260 -4.1039 -2.6325
  433MOL0     H58389   1.907   7.806   9.598  1.5382  0.0857  0.4077
  433MOL0     H58390   2.093   8.032   9.720  1.3680  0.5462  0.0250
  433MOL0     H58391   2.069   7.861   9.742 -1.2203  2.3418  1.9969
  433MOL0     H58392   2.336   7.984   9.686 -3.9865 -0.3248 -3.0678
  433MOL0     H58393   2.261   7.972   9.853 -1.3335 -0.5052  0.4249
  433MOL0     H58394   2.247   7.724   9.829  1.5863 -1.5934  0.9088
  433MOL0     H58395   2.337   7.742   9.669  1.3042 -0.1615  0.4522
  433MOL0     H58396   2.531   7.804   9.785  1.2704  0.1266  1.1115
  433MOL0     H58397   2.442   7.832   9.941 -0.0360  0.2838 -0.2328
  433MOL0     H58398   2.592   7.621   9.927 -0.0559  1.0168  0.0006
  433MOL0     H58399   2.427   7.603   9.985  0.5051  2.3611  1.5697
  433MOL0     H58400   2.365   7.516   9.761  0.2130 -2.7134  0.4983
  433MOL0     H58401   2.527   7.579   9.706  1.9860 -0.7091  0.9236
  433MOL0     H58402   2.516   7.333   9.723  1.4910 -0.2039 -0.1545
  433MOL0     H58403   2.638   7.405   9.830  0.2029 -1.5985 -1.3245
  433MOL0     H58404   2.420   7.380  10.004 -0.3151  1.9796 -1.3441
  433MOL0     H58405   2.539   7.245   9.963  2.2730  2.5494  0.4269
  433MOL0     H58406   2.451   7.058   9.804  1.0989  0.8083 -2.8531
  433MOL0     H58407   2.302   6.954   9.622  0.5560 -0.8559  0.6022
  433MOL0     H58408   2.165   6.910   9.720 -0.9384  1.0304  1.6691
  433MOL0     H58409   2.026   7.089   9.591 -1.9177  0.7385 -2.9837
  433MOL0     H58410   2.060   6.936   9.507 -1.8459 -0.3293  2.6253
  433MOL0     H58411   2.247   7.062   9.381  1.1220 -1.0289  3.0968
  433MOL0     H58412   2.219   7.191   9.488 -0.8477  0.7650  0.3406
  433MOL0     H58413   2.101   7.290   9.327 -1.7174 -0.3079  0.5323
  433MOL0     H58414   1.980   7.172   9.383 -0.4667  0.1127  1.4174
  433MOL0     H58415   1.986   7.359   9.179  1.5828  0.2588  0.6865
  433MOL0     H58416   1.802   7.485   8.938 -0.4964 -3.9366  2.3800
  433MOL0     H58417   1.935   7.521   9.042  3.4121 -0.7478 -0.6933
  433MOL0     H58418   1.961   7.494   8.853  0.2545 -5.3841 -0.9963
  433MOL0     H58419   1.857   7.072   8.409 -0.2625  1.3643  2.9274
  433MOL0     H58420   1.823   7.146   8.186  1.0335 -1.1423  1.9117
  433MOL0     H58421   1.731   7.482   7.939 -0.8428 -0.1821 -0.9494
  433MOL0     H58422   1.742   7.558   8.103  1.8314 -0.6509  1.5359
  433MOL0     H58423   1.982   7.593   8.066  1.9017  2.3004 -2.6509
  433MOL0     H58424   1.985   7.466   7.949  0.7288 -0.7407  3.1130
  433MOL0     H58425   1.836   7.619   7.807 -0.1883 -2.9540  0.8448
  433MOL0     H58426   2.002   7.687   7.846  1.1492  1.3717  1.4261
  433MOL0     H58427   1.730   7.752   7.989  0.7506  1.0079  2.0110
  433MOL0     H58428   1.882   7.828   8.039  0.8426  1.5092 -0.0973
  433MOL0     H58429   1.748   7.881   7.770 -0.8136  0.7341  0.9840
  433MOL0     H58430   1.903   7.924   7.812  0.1144 -2.6505 -0.4798
  433MOL0     H58431   1.644   8.012   7.966  0.0779  0.6952  2.5886
  433MOL0     H58432   1.802   8.071   8.015 -0.6728  2.1166 -0.2323
  433MOL0     H58433   1.637   8.128   7.772 -0.7784 -2.3894  0.9126
  433MOL0     H58434   1.813   8.140   7.752 -0.2125 -0.1508  0.8128
  433MOL0     H58435   1.661   8.305   7.950  0.1517 -1.0795  0.8413
  433MOL0     H58436   1.728   8.363   7.798 -3.0826  4.1040  3.4777
  433MOL0     H58437   1.876   7.550   8.295  3.5004 -0.1956 -0.4743
  433MOL0     H58438   1.934   7.483   8.516  0.0243  0.5251 -0.7252
  433MOL0     H58439   1.986   7.050   8.793  0.8886  2.3165 -2.3551
  433MOL0     H58440   2.048   6.971   9.006  2.2396  0.1730 -1.6041
  433MOL0     H58441   2.139   8.052   9.331  0.2638  1.3780 -0.5568
  433MOL0     H58442   1.910   8.103   9.213 -1.2703  0.2730 -0.3859
  433MOL0     H58443   1.336   8.168   9.464 -0.6365 -2.3748  0.8771
  433MOL0     H58444   1.130   8.186   9.358  0.3560 -2.4819  3.1004
  433MOL0     H58445   0.933   8.190   8.988  0.6114  2.7066 -1.5131
  433MOL0     H58446   0.955   8.232   9.160 -2.0000  1.2976 -0.6973
  433MOL0     H58447   1.150   8.364   9.067 -1.8769 -1.2229  3.2209
  433MOL0     H58448   0.997   8.405   8.993  0.4037  1.3152  1.5337
  433MOL0     H58449   1.068   8.234   8.798  2.5343 -1.9242  0.5222
  433MOL0     H58450   1.223   8.234   8.873 -1.3515 -2.0038  2.5696
  433MOL0     H58451   1.079   8.484   8.788 -0.2650  0.3816  0.3456
  433MOL0     H58452   1.193   8.401   8.689  0.0493  0.1413  0.4244
  433MOL0     H58453   1.401   8.640   8.982 -3.2205  3.0182  0.2394
  433MOL0     H58454   1.303   8.008   8.995 -4.4693  0.1478  0.3680
  433MOL0     H58455   1.517   8.030   9.102  0.3424 -1.0037  0.1338
  434MOL0     O58456   3.943   9.263   4.571 -0.5622  0.6293  0.1353
  434MOL0     C58457   4.056   9.282   4.518  0.3298 -0.8939 -0.1662
  434MOL0     O58458   4.080   9.354   4.396 -0.2851 -0.7667 -0.7456
  434MOL0     C58459   3.966   9.413   4.339 -0.6209 -0.1267  0.2091
  434MOL0     C58460   3.930   9.544   4.392  0.1295  0.5439 -0.2890
  434MOL0     C58461   3.823   9.600   4.332  0.1479 -0.4147  0.4678
  434MOL0     C58462   3.760   9.544   4.219  0.8927 -0.4485  0.6700
  434MOL0     O58463   3.661   9.603   4.132 -0.6371  1.5597  0.1421
  434MOL0     C58464   3.645   9.739   4.143  0.0737  0.7764 -0.3382
  434MOL0     C58465   3.500   9.763   4.083 -0.1305 -0.0289 -0.5648
  434MOL0     C58466   3.509   9.705   3.941  0.7427 -0.0087  0.0132
  434MOL0     C58467   3.399   9.733   3.845 -0.4034 -0.0800 -0.7348
  434MOL0     C58468   3.259   9.700   3.913 -0.1547 -0.3777 -1.4738
  434MOL0     C58469   3.142   9.739   3.816 -0.8180 -0.1229  0.6099
  434MOL0     C58470   3.009   9.688   3.878  0.0397  0.3117  0.0427
  434MOL0     C58471   2.879   9.726   3.798 -0.2597  0.1175  0.1239
  434MOL0     N58472   2.882   9.677   3.658  0.1214 -0.2235 -0.1040
  434MOL0     C58473   2.859   9.561   3.603 -0.9227  0.7353  0.6200
  434MOL0     C58474   2.856   9.576   3.467 -0.6702 -0.6028  0.2701
  434MOL0     C58475   2.839   9.458   3.369  0.5091  0.4133 -1.2329
  434MOL0     C58476   2.985   9.389   3.361  0.8910  0.6991 -0.3502
  434MOL0     C58477   2.983   9.264   3.448 -0.6224  0.0912 -0.1120
  434MOL0     C58478   3.099   9.264   3.546 -0.3794 -0.4208 -0.5539
  434MOL0     O58479   3.104   9.134   3.609  0.3301 -0.6229  0.4178
  434MOL0     C58480   3.209   9.104   3.693  0.9365  0.1863 -0.0166
  434MOL0     C58481   3.295   9.187   3.763  0.8391 -0.3351 -0.5459
  434MOL0     C58482   3.392   9.147   3.859  0.6435 -0.3017 -0.0261
  434MOL0     C58483   3.484   9.262   3.915  0.8678  0.1986  0.7972
  434MOL0     C58484   3.405   8.998   3.873  0.4503 -0.3723 -0.6449
  434MOL0     C58485   3.506   8.943   3.970 -0.2883  0.4393  0.4541
  434MOL0     O58486   3.605   9.029   4.013 -0.2953 -0.5020 -0.3729
  434MOL0     C58487   3.690   8.986   4.116  0.1505 -0.9771  0.5142
  434MOL0     C58488   3.793   8.893   4.088 -1.4669 -0.5441  1.3007
  434MOL0     C58489   3.871   8.838   4.193 -0.8755  0.3375 -0.4833
  434MOL0     C58490   3.852   8.884   4.321 -1.1691  0.1942 -0.7874
  434MOL0     O58491   3.934   8.827   4.419 -0.6489  0.0427  0.3761
  434MOL0     C58492   3.887   8.797   4.552 -0.0338 -0.3620  1.4526
  434MOL0     C58493   4.010   8.739   4.632 -0.4666 -0.6169 -0.2363
  434MOL0     C58494   4.034   8.600   4.592  0.8295 -0.5418  0.6164
  434MOL0     C58495   4.165   8.542   4.617  0.2856 -0.8666  0.2679
  434MOL0     C58496   4.181   8.387   4.596 -0.1356  0.0122 -1.0141
  434MOL0     C58497   4.128   8.333   4.466  0.4393 -0.5338 -0.0935
  434MOL0     C58498   4.180   8.193   4.433 -1.2754 -0.3934 -1.0439
  434MOL0     C58499   4.115   8.129   4.323 -0.1748  0.3579 -1.0820
  434MOL0    Cl58500   4.201   7.996   4.247 -0.2140  0.4661 -0.3610
  434MOL0     C58501   3.753   8.981   4.354  0.0154  1.3210 -0.1022
  434MOL0     C58502   3.667   9.030   4.252  0.0004  0.4200  0.7225
  434MOL0     O58503   3.494   8.820   3.989  0.1228  0.5378 -1.1039
  434MOL0     C58504   3.312   8.916   3.820  0.5453  0.1345  1.2686
  434MOL0     C58505   3.221   8.968   3.725  0.1147  0.4338 -0.2222
  434MOL0     N58506   2.885   9.705   3.437 -0.0592 -1.2449 -0.4017
  434MOL0     N58507   2.895   9.765   3.557 -0.7750 -0.7896  0.1180
  434MOL0     C58508   3.796   9.420   4.171 -1.0966  0.5240 -0.7283
  434MOL0     C58509   3.901   9.346   4.238  0.9852 -0.2329  0.8870
  434MOL0     C58510   4.170   9.208   4.576  0.3404  0.3357  0.5952
  434MOL0     C58511   4.294   9.209   4.516 -0.2420  0.1708  0.0777
  434MOL0     C58512   4.396   9.139   4.569 -0.4270  0.6423  1.0937
  434MOL0     C58513   4.376   9.074   4.690  0.2122 -0.7501 -0.4244
  434MOL0     O58514   4.468   9.011   4.766 -0.4075 -0.6670 -0.0543
  434MOL0     C58515   4.611   9.027   4.729  0.1682 -0.3867  0.2461
  434MOL0     C58516   4.709   8.961   4.825 -0.0705  0.7860 -0.1799
  434MOL0     C58517   4.746   9.066   4.935  0.3512 -0.1608  0.3563
  434MOL0     C58518   4.849   9.000   5.026 -0.2491  0.8597 -0.8639
  434MOL0     C58519   4.844   9.091   5.145 -0.5786 -0.1869 -0.3517
  434MOL0     C58520   4.837   9.166   5.243 -0.8491  0.0179 -0.4659
  434MOL0     C58521   4.247   9.062   4.756 -0.6837 -0.3484 -0.3669
  434MOL0     C58522   4.146   9.137   4.694 -0.3788  0.6107 -0.7599
  434MOL0     H58523   3.988   9.597   4.467  0.3964  0.3216 -0.3368
  434MOL0     H58524   3.800   9.703   4.357 -0.3028  0.9825 -4.5197
  434MOL0     H58525   3.644   9.775   4.247  0.6617 -0.1766  0.0102
  434MOL0     H58526   3.714   9.801   4.086 -1.2255  2.2410 -0.3918
  434MOL0     H58527   3.434   9.713   4.155 -1.0656  1.4494 -0.3772
  434MOL0     H58528   3.480   9.870   4.078 -0.2265  0.0883  1.3443
  434MOL0     H58529   3.602   9.731   3.890  1.7370 -2.6184  0.3654
  434MOL0     H58530   3.510   9.598   3.963  3.2802  0.4080  2.4367
  434MOL0     H58531   3.412   9.836   3.810  4.8731 -0.0083  0.6513
  434MOL0     H58532   3.423   9.677   3.755 -0.3645 -0.4555 -0.4961
  434MOL0     H58533   3.253   9.593   3.935 -1.9431  0.3507  2.5525
  434MOL0     H58534   3.246   9.760   4.003  0.9276 -0.3875 -1.2888
  434MOL0     H58535   3.155   9.846   3.794  2.0156  0.1102  2.8844
  434MOL0     H58536   3.151   9.678   3.726 -0.0653 -0.9379  1.2306
  434MOL0     H58537   3.006   9.579   3.886 -0.5601  0.0832 -2.5316
  434MOL0     H58538   2.985   9.726   3.978  0.8988  0.4891  0.1857
  434MOL0     H58539   2.862   9.834   3.797 -1.2150  0.0343  2.4746
  434MOL0     H58540   2.788   9.691   3.847  1.2611 -2.9730  0.9561
  434MOL0     H58541   2.836   9.464   3.647 -0.7067  0.0471 -0.7318
  434MOL0     H58542   2.761   9.388   3.403  0.4961 -0.1038 -2.2961
  434MOL0     H58543   2.805   9.501   3.275 -0.0924  0.9900 -0.7640
  434MOL0     H58544   3.065   9.459   3.385  2.8046 -1.6998  0.7351
  434MOL0     H58545   3.009   9.351   3.261  2.2332 -3.8419  1.4383
  434MOL0     H58546   2.990   9.186   3.371 -1.9885  1.0733 -1.2820
  434MOL0     H58547   2.891   9.263   3.507  0.1880 -0.7307  1.1708
  434MOL0     H58548   3.075   9.347   3.614  1.5125  0.3497 -0.7669
  434MOL0     H58549   3.197   9.293   3.509  0.8383  1.6851  3.7299
  434MOL0     H58550   3.287   9.294   3.752  4.4181 -0.0643 -1.7516
  434MOL0     H58551   3.519   9.243   4.017  1.6987 -0.1059  0.4681
  434MOL0     H58552   3.574   9.269   3.854 -0.0823  1.3236 -0.5242
  434MOL0     H58553   3.431   9.357   3.912  1.0672  0.3633  1.8569
  434MOL0     H58554   3.815   8.864   3.986  2.5269 -0.9260  2.1147
  434MOL0     H58555   3.944   8.760   4.174 -1.4332  0.3294 -2.9935
  434MOL0     H58556   3.863   8.897   4.589  0.1895 -0.3285  1.5107
  434MOL0     H58557   3.808   8.722   4.549  0.1432 -0.6179 -2.9850
  434MOL0     H58558   4.102   8.796   4.613 -0.8999  0.6280  1.2491
  434MOL0     H58559   3.995   8.750   4.739  3.4906  0.3822  0.3929
  434MOL0     H58560   4.020   8.587   4.484 -0.2264  1.9529  0.3791
  434MOL0     H58561   3.963   8.540   4.649 -1.1740  1.3513  0.2349
  434MOL0     H58562   4.228   8.596   4.545 -0.0150 -2.9138 -1.6477
  434MOL0     H58563   4.196   8.575   4.717 -0.8908  1.5912 -0.1023
  434MOL0     H58564   4.131   8.326   4.672  0.7807  0.5157  0.0297
  434MOL0     H58565   4.288   8.362   4.599  0.2114  1.3497 -1.4344
  434MOL0     H58566   4.020   8.335   4.477  0.2577 -0.0549 -1.8073
  434MOL0     H58567   4.152   8.405   4.388  2.3807  0.8858  1.6877
  434MOL0     H58568   4.176   8.126   4.519  1.2081  2.4970  1.5607
  434MOL0     H58569   4.284   8.191   4.397 -0.8407 -1.2990  0.1898
  434MOL0     H58570   4.120   8.208   4.248  4.8128 -0.9314 -2.4425
  434MOL0     H58571   4.014   8.102   4.356  0.9347 -2.0206  0.6341
  434MOL0     H58572   3.731   9.019   4.453  0.5381 -2.0412  1.4557
  434MOL0     H58573   3.573   9.074   4.282  0.2747  0.7310  1.1462
  434MOL0     H58574   3.309   8.808   3.832 -0.5665  0.2294  1.9892
  434MOL0     H58575   3.146   8.911   3.672 -0.8225  0.2623  1.2287
  434MOL0     H58576   3.744   9.383   4.083 -0.9955 -0.2243 -0.4813
  434MOL0     H58577   3.928   9.249   4.197 -2.4842 -1.4529  1.1611
  434MOL0     H58578   4.323   9.257   4.422  0.7885  1.6989  1.1196
  434MOL0     H58579   4.491   9.144   4.518 -0.3601 -0.3596  1.1061
  434MOL0     H58580   4.614   8.979   4.630 -3.7255  0.1230 -0.2741
  434MOL0     H58581   4.644   9.131   4.721  1.2325 -0.8112 -1.4569
  434MOL0     H58582   4.794   8.925   4.767  0.2354  0.2104  0.6078
  434MOL0     H58583   4.671   8.870   4.873  0.4877  0.6704  0.0454
  434MOL0     H58584   4.654   9.094   4.987 -0.2074 -2.7394  0.8839
  434MOL0     H58585   4.788   9.157   4.892  1.7070 -1.0413 -0.2636
  434MOL0     H58586   4.944   8.999   4.972 -0.9308 -0.1080 -2.1024
  434MOL0     H58587   4.812   8.898   5.037 -2.5616  1.7038 -0.1770
  434MOL0     H58588   4.843   9.240   5.320  0.6138 -0.1298 -0.4144
  434MOL0     H58589   4.232   9.022   4.855 -1.5908  3.1812  1.0581
  434MOL0     H58590   4.049   9.122   4.738 -1.2111  0.3406 -2.5688
  435MOL0     O58591   0.485   6.179   1.498 -0.4161 -0.3362 -0.0878
  435MOL0     C58592   0.540   6.172   1.386 -0.1546 -0.7548 -0.0454
  435MOL0     O58593   0.539   6.068   1.300  0.6143 -0.1516  0.1361
  435MOL0     C58594   0.476   5.947   1.334 -0.2589  0.4865 -0.4492
  435MOL0     C58595   0.385   5.885   1.242 -0.2534  0.6142  0.7094
  435MOL0     C58596   0.305   5.778   1.273  0.8281  0.3402 -1.0670
  435MOL0     C58597   0.324   5.716   1.404  0.4804  0.1591 -0.0603
  435MOL0     O58598   0.253   5.619   1.463  0.4803 -0.3438 -0.3727
  435MOL0     C58599   0.135   5.670   1.536 -0.9275  0.5502  0.4544
  435MOL0     C58600   0.019   5.587   1.525  0.4117  0.7474  0.4897
  435MOL0     C58601   0.038   5.446   1.573  1.2440 -0.7992  1.3396
  435MOL0     C58602  -0.016   5.346   1.470  0.0696  0.0157  0.3818
  435MOL0     C58603  -0.033   5.204   1.529 -0.6943 -1.0446  0.0280
  435MOL0     C58604  -0.100   5.099   1.436 -0.2407  0.2061 -0.4785
  435MOL0     C58605  -0.136   4.974   1.523 -0.4690  0.0523 -0.1209
  435MOL0     C58606  -0.199   4.867   1.430  0.1786 -0.7691 -0.6549
  435MOL0     N58607  -0.340   4.876   1.432  0.6516 -0.4301 -0.2433
  435MOL0     C58608  -0.443   4.782   1.451 -0.0487  0.2481  0.7282
  435MOL0     C58609  -0.542   4.844   1.392 -0.2520  0.2178  0.0067
  435MOL0     C58610  -0.680   4.784   1.393 -0.8695  0.4466  0.3409
  435MOL0     C58611  -0.730   4.732   1.254 -0.2788  0.1747  0.0470
  435MOL0     C58612  -0.778   4.849   1.167  0.2523 -0.8445  0.5430
  435MOL0     C58613  -0.895   4.934   1.231 -0.5377  0.4984  0.2069
  435MOL0     O58614  -1.018   4.863   1.242  0.3303  0.0628 -0.0249
  435MOL0     C58615  -1.123   4.896   1.153 -0.0273  0.0616  0.4174
  435MOL0     C58616  -1.096   4.935   1.023  0.1816 -0.7238 -0.1901
  435MOL0     C58617  -1.199   4.965   0.930  0.4997 -0.1749  0.4934
  435MOL0     C58618  -1.154   4.989   0.787 -0.5585 -0.2624  0.3872
  435MOL0     C58619  -1.336   4.951   0.965  0.5642 -0.6615  0.2066
  435MOL0     C58620  -1.457   4.969   0.867 -1.0047 -0.3340 -0.2314
  435MOL0     O58621  -1.567   4.933   0.924  0.7682 -0.3113  0.4103
  435MOL0     C58622  -1.688   4.944   0.847 -0.0288 -0.5989  0.8379
  435MOL0     C58623  -1.734   5.065   0.790  0.4928 -0.0221  0.9313
  435MOL0     C58624  -1.863   5.064   0.732 -1.1531 -0.0305  0.4995
  435MOL0     C58625  -1.946   4.951   0.733  0.3515 -0.3360 -0.2603
  435MOL0     O58626  -2.063   4.934   0.663 -0.7279 -0.8115  0.0604
  435MOL0     C58627  -2.145   5.051   0.632 -0.7067  0.1662  0.2131
  435MOL0     C58628  -2.099   5.125   0.497  0.0705  0.9833 -0.2402
  435MOL0     C58629  -2.218   5.216   0.434 -0.4716  1.0264  0.8463
  435MOL0     C58630  -2.192   5.356   0.472 -0.0532 -0.6429 -0.0151
  435MOL0     C58631  -2.318   5.436   0.490  0.3412  0.3522 -0.9232
  435MOL0     C58632  -2.411   5.442   0.366  0.6674  0.9335 -0.9089
  435MOL0     C58633  -2.335   5.513   0.257 -0.1493  0.1527  0.2137
  435MOL0     C58634  -2.407   5.511   0.130  0.5190 -0.8428  0.0813
  435MOL0    Cl58635  -2.441   5.342   0.072 -0.2747  0.0779 -0.0593
  435MOL0     C58636  -1.902   4.836   0.800  0.2814 -0.5446 -0.7436
  435MOL0     C58637  -1.774   4.830   0.846  0.4772 -0.0788  0.4901
  435MOL0     O58638  -1.446   5.035   0.762 -0.8783  0.1928  0.2681
  435MOL0     C58639  -1.361   4.917   1.102 -0.8346  0.1336  0.6337
  435MOL0     C58640  -1.260   4.891   1.193 -0.2495  0.5926 -0.1495
  435MOL0     N58641  -0.497   4.958   1.322  0.6983  0.4787  0.6136
  435MOL0     N58642  -0.385   4.979   1.365  0.6073 -0.4012  0.0325
  435MOL0     C58643   0.438   5.752   1.478  0.4891  0.1724  0.0552
  435MOL0     C58644   0.507   5.871   1.452  0.2210 -0.4564  0.4991
  435MOL0     C58645   0.621   6.286   1.338 -0.8797 -0.6814 -0.1383
  435MOL0     C58646   0.654   6.399   1.417  0.3149  0.2377  0.3558
  435MOL0     C58647   0.728   6.500   1.363 -0.1487 -1.0950 -0.1354
  435MOL0     C58648   0.780   6.506   1.229  0.4318  0.6388  0.0691
  435MOL0     O58649   0.846   6.611   1.172 -0.4894  0.1436  0.0046
  435MOL0     C58650   0.769   6.722   1.114  0.0340 -0.1381 -0.0841
  435MOL0     C58651   0.732   6.832   1.218 -0.3967 -0.2708 -0.1254
  435MOL0     C58652   0.662   6.955   1.167  0.1991 -0.5529 -0.5581
  435MOL0     C58653   0.761   7.067   1.125  0.5222  0.3921 -0.3630
  435MOL0     C58654   0.821   7.125   1.245 -0.1813 -1.5023  0.2342
  435MOL0     C58655   0.864   7.156   1.353 -0.5981  0.6673 -0.8694
  435MOL0     C58656   0.752   6.396   1.151  0.3414  0.7345  0.2488
  435MOL0     C58657   0.676   6.287   1.201 -0.6395 -0.4646 -0.1966
  435MOL0     H58658   0.360   5.946   1.155  0.3149 -2.1172 -1.4929
  435MOL0     H58659   0.219   5.751   1.211  0.5150  0.9385 -0.8959
  435MOL0     H58660   0.172   5.686   1.638 -1.7322 -0.2081  0.8828
  435MOL0     H58661   0.111   5.764   1.486  3.0012  0.9859 -0.9010
  435MOL0     H58662  -0.051   5.635   1.595  1.4216 -0.4268  2.3961
  435MOL0     H58663  -0.017   5.581   1.422  2.9580 -0.4851 -0.4091
  435MOL0     H58664   0.142   5.424   1.596  0.9988 -1.6987  1.6382
  435MOL0     H58665  -0.012   5.430   1.669 -1.7519  2.0827  0.4386
  435MOL0     H58666  -0.114   5.381   1.437  0.1873  2.1622  2.0696
  435MOL0     H58667   0.050   5.339   1.383 -0.8203 -0.3105 -0.2797
  435MOL0     H58668   0.064   5.166   1.562 -0.2576  0.4315  0.5527
  435MOL0     H58669  -0.096   5.222   1.617  0.7199 -3.1521  1.5845
  435MOL0     H58670  -0.194   5.137   1.394 -2.4855 -1.2950  2.7910
  435MOL0     H58671  -0.028   5.074   1.358  2.0435  2.2095  0.8193
  435MOL0     H58672  -0.039   4.937   1.558  0.2164  1.3703 -0.5496
  435MOL0     H58673  -0.187   5.000   1.616  0.2010  0.9057  0.0263
  435MOL0     H58674  -0.162   4.768   1.458  1.8206 -1.0026 -3.3375
  435MOL0     H58675  -0.152   4.888   1.334  2.0041 -1.1421  0.1165
  435MOL0     H58676  -0.434   4.680   1.487 -0.1793 -0.2437 -0.5708
  435MOL0     H58677  -0.665   4.695   1.455  1.7080  0.1785 -0.5503
  435MOL0     H58678  -0.759   4.846   1.438 -0.6022  1.4888 -0.5826
  435MOL0     H58679  -0.809   4.658   1.268  0.6467 -0.7427  0.5708
  435MOL0     H58680  -0.652   4.674   1.202 -0.3963 -0.3528  0.4510
  435MOL0     H58681  -0.808   4.802   1.072 -1.1025 -1.4607  1.2479
  435MOL0     H58682  -0.695   4.915   1.142 -1.3387  0.1748 -2.5478
  435MOL0     H58683  -0.909   5.028   1.176 -0.1218 -0.0243 -0.8138
  435MOL0     H58684  -0.863   4.967   1.330  2.7531  3.0541 -1.5021
  435MOL0     H58685  -0.991   4.935   0.994  0.5455  0.6850  0.9961
  435MOL0     H58686  -1.214   4.927   0.720 -0.6705  2.1739 -1.9284
  435MOL0     H58687  -1.167   5.095   0.765  2.1380  0.9618  3.7126
  435MOL0     H58688  -1.053   4.957   0.759 -1.5318 -1.1219 -2.5382
  435MOL0     H58689  -1.675   5.156   0.781 -2.6750  1.9839 -3.3037
  435MOL0     H58690  -1.882   5.157   0.679  0.9348  0.8278  1.1695
  435MOL0     H58691  -2.247   5.015   0.615 -1.5680  2.5303 -0.0346
  435MOL0     H58692  -2.144   5.117   0.719  0.2809  2.1260 -1.2161
  435MOL0     H58693  -2.013   5.190   0.515 -1.1046  2.3777  0.6121
  435MOL0     H58694  -2.066   5.052   0.423 -0.9536 -0.3393  0.5628
  435MOL0     H58695  -2.315   5.171   0.457  1.1722 -2.1904  2.0929
  435MOL0     H58696  -2.214   5.216   0.325 -2.5612 -0.1007  0.7237
  435MOL0     H58697  -2.136   5.357   0.566  0.6592  1.3936 -0.3976
  435MOL0     H58698  -2.124   5.403   0.400 -0.2351 -2.5164 -1.4842
  435MOL0     H58699  -2.296   5.539   0.518  2.3900  0.5483 -2.9550
  435MOL0     H58700  -2.362   5.381   0.574  2.9281 -1.0998 -0.4367
  435MOL0     H58701  -2.437   5.340   0.337  3.8436  0.0419 -1.0670
  435MOL0     H58702  -2.502   5.501   0.378 -0.0288  0.5155 -3.6064
  435MOL0     H58703  -2.236   5.466   0.253 -1.8822 -4.0789  1.4067
  435MOL0     H58704  -2.322   5.612   0.302 -0.7984 -0.1713  1.1580
  435MOL0     H58705  -2.344   5.572   0.065 -0.6597  1.9440  1.3742
  435MOL0     H58706  -2.505   5.556   0.144 -0.8805 -3.5030 -0.6160
  435MOL0     H58707  -1.965   4.749   0.815  0.3829 -0.3597  0.8792
  435MOL0     H58708  -1.734   4.744   0.900 -1.2030 -2.5736 -1.9515
  435MOL0     H58709  -1.459   4.918   1.148 -1.8815 -1.2748 -1.3873
  435MOL0     H58710  -1.278   4.880   1.300 -3.1099  1.5727 -0.4377
  435MOL0     H58711   0.463   5.708   1.574  1.1762  0.5099  0.0400
  435MOL0     H58712   0.560   5.913   1.537 -2.5388  0.3425  1.9225
  435MOL0     H58713   0.612   6.395   1.517 -2.5552 -1.1307 -0.7806
  435MOL0     H58714   0.741   6.592   1.419  1.3536 -0.7280 -1.0384
  435MOL0     H58715   0.827   6.764   1.031  0.1465 -1.0101 -0.4589
  435MOL0     H58716   0.682   6.681   1.062  1.7077 -1.7917 -1.7301
  435MOL0     H58717   0.828   6.854   1.266  0.4302 -2.3528 -0.7215
  435MOL0     H58718   0.660   6.790   1.289 -1.3076 -0.1594 -0.9636
  435MOL0     H58719   0.586   7.005   1.228 -1.9416  0.3259 -3.7012
  435MOL0     H58720   0.611   6.911   1.081  2.6290 -3.6982 -0.5721
  435MOL0     H58721   0.697   7.145   1.081 -1.0182 -1.1483 -0.9680
  435MOL0     H58722   0.839   7.028   1.059 -0.4957 -2.3467 -0.0870
  435MOL0     H58723   0.899   7.181   1.451  0.5519  2.4784 -1.6652
  435MOL0     H58724   0.783   6.376   1.049  0.7326 -2.4431  0.8807
  435MOL0     H58725   0.669   6.197   1.141 -0.9660 -0.7081  0.2034
  436MOL0     O58726   5.774   6.499   8.024 -0.0660  0.1145  0.6837
  436MOL0     C58727   5.714   6.513   7.917 -0.6132 -0.4260 -0.6776
  436MOL0     O58728   5.771   6.491   7.794  0.1070 -0.0357 -0.0628
  436MOL0     C58729   5.904   6.438   7.782  0.6112 -0.2409 -0.0484
  436MOL0     C58730   5.949   6.378   7.662  1.0161 -0.1194  0.7991
  436MOL0     C58731   6.085   6.360   7.636  0.3114  0.9130 -0.8494
  436MOL0     C58732   6.189   6.395   7.712  0.2966 -0.5820  0.1051
  436MOL0     O58733   6.316   6.403   7.664 -0.3680 -0.8474  0.4175
  436MOL0     C58734   6.419   6.387   7.758 -0.7486  1.1075 -0.6405
  436MOL0     C58735   6.541   6.322   7.693  0.5058 -0.2713  1.3378
  436MOL0     C58736   6.519   6.169   7.662  0.1741  0.4662 -0.3498
  436MOL0     C58737   6.645   6.113   7.594  0.0748  0.2624  0.3251
  436MOL0     C58738   6.624   5.972   7.548  0.0281  0.8277 -0.5539
  436MOL0     C58739   6.742   5.924   7.465  0.0044 -0.1553 -0.0746
  436MOL0     C58740   6.739   5.775   7.443  0.4778 -0.2151 -0.8632
  436MOL0     C58741   6.849   5.745   7.337  0.0056 -0.1805 -0.5857
  436MOL0     N58742   6.853   5.603   7.320 -0.8289 -1.0399  1.2005
  436MOL0     C58743   6.743   5.535   7.272 -0.3548 -0.8332  0.6589
  436MOL0     C58744   6.787   5.408   7.267 -0.2978  0.6122 -0.7057
  436MOL0     C58745   6.703   5.283   7.215  0.8111 -0.5819 -0.9125
  436MOL0     C58746   6.770   5.225   7.101 -0.4195  0.3884  0.3683
  436MOL0     C58747   6.706   5.085   7.058 -0.0825 -1.7195  0.4048
  436MOL0     C58748   6.567   5.122   6.994  0.0116  0.1672  0.2352
  436MOL0     O58749   6.522   5.003   6.927 -0.0380 -0.8863 -0.2971
  436MOL0     C58750   6.417   4.937   6.991 -0.1865 -0.1835 -0.3592
  436MOL0     C58751   6.338   4.862   6.900  0.2168 -0.4252  0.3258
  436MOL0     C58752   6.250   4.768   6.951 -0.6012 -1.0412 -1.1672
  436MOL0     C58753   6.171   4.704   6.853  0.0493  0.4573 -0.2520
  436MOL0     C58754   6.236   4.744   7.091 -0.0062  0.8152 -0.0880
  436MOL0     C58755   6.158   4.638   7.170 -0.5755  1.0585  0.4112
  436MOL0     O58756   6.174   4.635   7.300  0.3000 -1.1025 -0.3903
  436MOL0     C58757   6.101   4.531   7.367 -0.2801 -0.4817  0.9068
  436MOL0     C58758   6.173   4.413   7.390  0.5799 -0.3676  0.7768
  436MOL0     C58759   6.095   4.288   7.416  1.4902 -0.5648 -0.8098
  436MOL0     C58760   5.947   4.298   7.440  0.3926  0.0968 -0.1627
  436MOL0     O58761   5.872   4.188   7.469 -0.0649  0.4652 -0.8207
  436MOL0     C58762   5.914   4.067   7.412  0.8767  0.4775  0.7340
  436MOL0     C58763   5.798   3.961   7.423 -0.3779  0.2093  0.7193
  436MOL0     C58764   5.763   3.909   7.566 -0.4543 -0.4947 -1.0554
  436MOL0     C58765   5.881   3.842   7.630  0.0637 -1.3627 -0.3659
  436MOL0     C58766   5.933   3.927   7.749 -0.7033  0.6776  0.8202
  436MOL0     C58767   6.034   3.844   7.840  0.9509  0.2224  0.0329
  436MOL0     C58768   6.034   3.874   7.990 -0.3254 -1.1744  0.8743
  436MOL0     C58769   6.049   4.021   8.030  0.9161 -0.7745 -0.8370
  436MOL0    Cl58770   6.155   4.028   8.182 -0.4198 -0.2140 -0.2501
  436MOL0     C58771   5.887   4.425   7.418 -0.8617  0.5664  0.3142
  436MOL0     C58772   5.967   4.546   7.388  0.3073  0.6190 -0.2500
  436MOL0     O58773   6.082   4.566   7.109 -0.0041 -0.3605  0.2252
  436MOL0     C58774   6.297   4.838   7.178  0.7629 -0.2722 -0.2543
  436MOL0     C58775   6.393   4.932   7.129 -1.1996 -0.0712 -0.0380
  436MOL0     N58776   6.915   5.400   7.324 -0.0128  0.2791 -0.6752
  436MOL0     N58777   6.951   5.515   7.358  0.6703  0.6109  0.1856
  436MOL0     C58778   6.142   6.454   7.833 -0.1064 -0.2168 -0.1968
  436MOL0     C58779   6.004   6.466   7.873  0.6952  0.5256  0.3150
  436MOL0     C58780   5.582   6.578   7.925  0.4830 -0.3288  0.3826
  436MOL0     C58781   5.521   6.610   8.049 -0.2254 -0.3696 -0.0328
  436MOL0     C58782   5.377   6.641   8.056 -0.0176 -0.2570 -0.4743
  436MOL0     C58783   5.310   6.641   7.938  0.2695 -0.1286 -0.5650
  436MOL0     O58784   5.183   6.679   7.943  0.1038 -0.2252 -0.8275
  436MOL0     C58785   5.151   6.820   7.923 -0.1638  0.3904  0.2431
  436MOL0     C58786   5.140   6.903   8.048 -0.5958  0.1410  0.3497
  436MOL0     C58787   5.079   7.037   8.022 -0.1188 -0.1879 -0.1581
  436MOL0     C58788   5.053   7.108   8.159  0.2183  0.2582 -0.7084
  436MOL0     C58789   4.977   7.224   8.136  0.1212 -0.2449 -0.2572
  436MOL0     C58790   4.916   7.327   8.123 -0.0082  0.5728 -0.3610
  436MOL0     C58791   5.367   6.612   7.811 -0.3682  0.0495  0.1185
  436MOL0     C58792   5.499   6.573   7.808  1.0588  0.2053  0.0458
  436MOL0     H58793   5.871   6.345   7.595  0.3576  0.8730  1.0551
  436MOL0     H58794   6.104   6.322   7.536  1.4989  1.8341 -0.9908
  436MOL0     H58795   6.456   6.484   7.795  1.3533 -0.1242  0.6724
  436MOL0     H58796   6.397   6.331   7.849  2.1771  0.7094 -0.0793
  436MOL0     H58797   6.554   6.372   7.596  0.4822 -1.5297  0.6561
  436MOL0     H58798   6.632   6.338   7.751 -0.7078  0.1413  3.2100
  436MOL0     H58799   6.508   6.114   7.756  1.2802  2.3311  0.9411
  436MOL0     H58800   6.423   6.165   7.610  0.2188 -0.1066 -0.3932
  436MOL0     H58801   6.674   6.180   7.512 -1.8725  1.3870  0.4876
  436MOL0     H58802   6.726   6.118   7.667  1.5620  1.2163 -1.3162
  436MOL0     H58803   6.599   5.893   7.619  0.3752 -1.4516 -2.8238
  436MOL0     H58804   6.537   5.954   7.485  0.9745 -1.3897 -1.3212
  436MOL0     H58805   6.749   5.977   7.370  0.9577 -1.0357 -0.5237
  436MOL0     H58806   6.836   5.956   7.511 -0.0298  2.2568 -1.5042
  436MOL0     H58807   6.782   5.736   7.536  0.2565  0.1092 -0.6204
  436MOL0     H58808   6.644   5.724   7.421 -0.7498  1.7864 -0.4280
  436MOL0     H58809   6.949   5.783   7.359 -0.2961  0.5810 -0.5073
  436MOL0     H58810   6.829   5.801   7.245  1.4043  2.8642  0.8061
  436MOL0     H58811   6.643   5.569   7.247 -0.0808  1.7034  2.5384
  436MOL0     H58812   6.694   5.207   7.293 -1.9684  1.3997  0.8965
  436MOL0     H58813   6.598   5.315   7.204 -0.6427 -4.1609  0.9342
  436MOL0     H58814   6.875   5.208   7.126  0.7659  3.5163 -1.8746
  436MOL0     H58815   6.778   5.290   7.014 -0.0620  1.3190  1.0904
  436MOL0     H58816   6.686   5.019   7.143 -0.2703 -3.8770 -1.2383
  436MOL0     H58817   6.770   5.040   6.983  1.2260  2.1745 -1.0591
  436MOL0     H58818   6.582   5.211   6.932  1.7886  0.7422  1.4103
  436MOL0     H58819   6.499   5.146   7.076  0.8853 -1.3295  1.4725
  436MOL0     H58820   6.359   4.887   6.797  1.8811 -2.1409  0.1936
  436MOL0     H58821   6.065   4.697   6.881  0.0987 -2.5796 -0.4359
  436MOL0     H58822   6.181   4.749   6.754 -1.8317 -3.3349 -2.3926
  436MOL0     H58823   6.198   4.599   6.837  3.0844  1.2189 -0.6371
  436MOL0     H58824   6.279   4.407   7.370  0.3977  0.5405 -0.5813
  436MOL0     H58825   6.156   4.199   7.425  0.8730 -0.8607  0.9575
  436MOL0     H58826   5.942   4.089   7.308 -1.0334  2.2550  0.5445
  436MOL0     H58827   6.008   4.034   7.457  1.2141 -1.1150 -0.9854
  436MOL0     H58828   5.712   3.997   7.366  1.7744  2.0271 -1.6548
  436MOL0     H58829   5.838   3.870   7.377  1.0493 -0.3116  2.8510
  436MOL0     H58830   5.682   3.836   7.553  1.5575 -2.8170 -1.4667
  436MOL0     H58831   5.720   3.989   7.626 -3.6751 -3.6647  1.2876
  436MOL0     H58832   5.848   3.747   7.674  1.3876 -1.5331  0.3215
  436MOL0     H58833   5.961   3.819   7.559  1.3174 -2.3838  1.2696
  436MOL0     H58834   5.847   3.961   7.808 -0.3550 -1.3464  2.6079
  436MOL0     H58835   5.988   4.019   7.728  2.1035 -0.4103  2.8321
  436MOL0     H58836   6.014   3.738   7.818 -3.1748  0.8338 -0.0149
  436MOL0     H58837   6.128   3.847   7.785 -0.4396 -3.3005 -2.9770
  436MOL0     H58838   6.115   3.815   8.033  0.1717  0.2991  2.0642
  436MOL0     H58839   5.951   3.832   8.046  1.3493 -2.1428  2.7700
  436MOL0     H58840   5.955   4.067   8.062  1.6032  1.8833 -2.3155
  436MOL0     H58841   6.084   4.086   7.949 -1.8205  1.9225 -0.0715
  436MOL0     H58842   5.781   4.441   7.438 -0.5535  2.5905  0.6143
  436MOL0     H58843   5.908   4.634   7.364 -1.8201 -1.1527 -1.9151
  436MOL0     H58844   6.285   4.836   7.286 -1.2785 -1.4983 -0.4568
  436MOL0     H58845   6.441   4.995   7.202  0.1828 -2.8248  1.5879
  436MOL0     H58846   6.227   6.491   7.889  0.2613 -4.0323  2.1794
  436MOL0     H58847   5.989   6.512   7.970 -1.8715 -2.0454  1.2816
  436MOL0     H58848   5.574   6.603   8.144  0.1072 -3.2027 -0.3553
  436MOL0     H58849   5.321   6.659   8.147 -1.5923 -0.3517 -1.3739
  436MOL0     H58850   5.193   6.868   7.834 -5.0099  1.2001 -1.9328
  436MOL0     H58851   5.047   6.805   7.895 -0.6269  3.1897  0.1567
  436MOL0     H58852   5.237   6.918   8.097 -0.7152  0.0989  0.5990
  436MOL0     H58853   5.081   6.841   8.117 -3.2790  1.0261 -1.0131
  436MOL0     H58854   4.983   7.021   7.973  1.5649 -1.1578 -3.4132
  436MOL0     H58855   5.134   7.103   7.954  0.7521 -0.0731  0.6293
  436MOL0     H58856   5.153   7.134   8.197  0.1282 -0.6136  0.1615
  436MOL0     H58857   4.996   7.043   8.226 -0.9556  1.8761 -0.0824
  436MOL0     H58858   4.859   7.417   8.120  0.6654  0.9971 -0.5187
  436MOL0     H58859   5.306   6.630   7.724  1.9456  1.7150 -1.2988
  436MOL0     H58860   5.534   6.538   7.711 -0.3623  1.0726 -0.8183
  437MOL0     O58861   3.406   7.275   1.828  0.2840 -0.4546 -0.3843
  437MOL0     C58862   3.503   7.345   1.800 -0.5249  0.4390 -0.4124
  437MOL0     O58863   3.630   7.300   1.773 -0.7289  0.0034 -0.2810
  437MOL0     C58864   3.681   7.187   1.825 -1.0904  0.3263 -0.2569
  437MOL0     C58865   3.797   7.154   1.762 -0.5475 -0.0857  0.1174
  437MOL0     C58866   3.872   7.032   1.780 -0.1060 -0.3722  0.2073
  437MOL0     C58867   3.848   6.964   1.889  0.6081 -0.0954  0.2944
  437MOL0     O58868   3.932   6.869   1.942 -0.4122 -0.6281  0.0013
  437MOL0     C58869   4.022   6.790   1.872 -0.3257 -0.5548 -0.8847
  437MOL0     C58870   4.106   6.703   1.971  0.5024  0.2673  0.5786
  437MOL0     C58871   4.197   6.611   1.895 -0.2948 -0.0480  0.2237
  437MOL0     C58872   4.243   6.483   1.981 -0.1191  0.3415 -0.7825
  437MOL0     C58873   4.302   6.391   1.878  0.0142 -0.8693  1.0862
  437MOL0     C58874   4.314   6.252   1.949 -0.4835  1.0340 -0.4907
  437MOL0     C58875   4.387   6.155   1.853 -0.9022 -0.9602 -0.1894
  437MOL0     C58876   4.386   6.011   1.905 -0.5805  0.8357  0.3395
  437MOL0     N58877   4.248   5.952   1.886 -1.0827  0.1553  0.4736
  437MOL0     C58878   4.190   5.927   1.764 -0.4788  0.1881  0.0735
  437MOL0     C58879   4.087   5.847   1.802  0.2514  1.6255 -0.1612
  437MOL0     C58880   3.986   5.773   1.709  0.5912  0.6972 -0.1002
  437MOL0     C58881   3.889   5.686   1.789  0.0459 -0.1611  0.0746
  437MOL0     C58882   3.784   5.617   1.703 -1.1092 -0.0527  0.4263
  437MOL0     C58883   3.666   5.552   1.787  0.3495  1.2993  0.1506
  437MOL0     O58884   3.585   5.646   1.859 -0.3153 -0.6800  0.4770
  437MOL0     C58885   3.455   5.605   1.902  0.3879  0.3818  0.5522
  437MOL0     C58886   3.417   5.477   1.907 -1.0405 -0.3946  0.5414
  437MOL0     C58887   3.292   5.447   1.944 -0.0036 -0.3344 -0.7747
  437MOL0     C58888   3.256   5.296   1.932  0.1844  0.9935  0.4358
  437MOL0     C58889   3.200   5.539   1.979 -0.4722 -0.0007 -0.4310
  437MOL0     C58890   3.063   5.507   2.013  0.5562  1.2102 -0.5412
  437MOL0     O58891   3.038   5.396   2.104 -1.0843 -0.8796  1.1119
  437MOL0     C58892   2.920   5.375   2.167 -0.7094 -0.3791 -0.4212
  437MOL0     C58893   2.901   5.244   2.214 -0.2005 -0.3393  1.1234
  437MOL0     C58894   2.786   5.209   2.286 -0.0806  0.1913 -0.3380
  437MOL0     C58895   2.694   5.309   2.320 -0.4267 -0.4506 -1.2022
  437MOL0     O58896   2.581   5.265   2.381  0.3410  0.3102  0.3393
  437MOL0     C58897   2.470   5.349   2.423 -0.6176  0.2977 -0.1181
  437MOL0     C58898   2.359   5.289   2.507  0.4362 -0.0664 -0.3188
  437MOL0     C58899   2.399   5.244   2.648  1.0482  0.2672 -0.5057
  437MOL0     C58900   2.284   5.165   2.729  0.1048 -0.0826  0.7758
  437MOL0     C58901   2.333   5.152   2.869  0.9067  0.3219 -0.3350
  437MOL0     C58902   2.304   5.269   2.959  0.3591  0.1370  0.2941
  437MOL0     C58903   2.354   5.230   3.098  0.8426 -0.5171 -0.5877
  437MOL0     C58904   2.326   5.350   3.202 -0.7062 -0.5344  0.6785
  437MOL0    Cl58905   2.396   5.301   3.363 -0.0924  0.0999  0.4197
  437MOL0     C58906   2.725   5.446   2.294 -0.7365 -0.8671 -0.8870
  437MOL0     C58907   2.833   5.474   2.211 -0.2305  0.0001  0.7620
  437MOL0     O58908   2.978   5.583   1.973  1.3023  0.1559  0.1221
  437MOL0     C58909   3.240   5.675   1.976  0.7434 -0.6146 -0.2796
  437MOL0     C58910   3.362   5.702   1.925 -0.5056 -0.6321 -1.0822
  437MOL0     N58911   4.091   5.824   1.945  0.1273  0.4279 -0.1447
  437MOL0     N58912   4.186   5.888   1.985 -0.5452  0.0475  0.2383
  437MOL0     C58913   3.725   6.999   1.964  0.1393 -0.3496 -0.1744
  437MOL0     C58914   3.639   7.106   1.924 -0.2810  1.6125  0.5506
  437MOL0     C58915   3.464   7.483   1.771 -0.6409 -0.0407 -0.2656
  437MOL0     C58916   3.331   7.532   1.767  0.0841 -0.6397 -0.1016
  437MOL0     C58917   3.305   7.664   1.725 -0.4445  0.6580 -0.0359
  437MOL0     C58918   3.414   7.735   1.677 -0.1603  0.2041 -0.4712
  437MOL0     O58919   3.410   7.863   1.625  0.2257  0.1677  0.0808
  437MOL0     C58920   3.300   7.953   1.665 -0.0983  1.3588  0.3295
  437MOL0     C58921   3.199   7.966   1.553 -0.7190  0.0939 -0.2120
  437MOL0     C58922   3.075   8.038   1.601 -0.1538 -0.1282 -0.4790
  437MOL0     C58923   3.102   8.175   1.658  0.5841  0.2897 -0.1383
  437MOL0     C58924   2.985   8.264   1.663  0.1088  0.0941 -0.3165
  437MOL0     C58925   2.890   8.336   1.685  0.2623  0.8190 -0.6287
  437MOL0     C58926   3.545   7.684   1.675  0.3436 -1.0553 -0.1694
  437MOL0     C58927   3.570   7.568   1.729 -0.3386  1.0595 -0.5278
  437MOL0     H58928   3.819   7.219   1.678  1.1413 -0.8284 -0.0713
  437MOL0     H58929   3.968   7.030   1.731 -0.1056  0.7634  0.1368
  437MOL0     H58930   3.969   6.735   1.794  0.4695 -0.7783 -1.2828
  437MOL0     H58931   4.087   6.863   1.823 -2.7661  1.7074 -0.9749
  437MOL0     H58932   4.148   6.765   2.051  0.2932 -0.6896  1.4551
  437MOL0     H58933   4.034   6.628   2.006  0.6602 -0.7904 -1.2602
  437MOL0     H58934   4.153   6.586   1.798  2.0903 -2.5778 -0.3628
  437MOL0     H58935   4.288   6.662   1.862 -1.3103  2.0582  0.5825
  437MOL0     H58936   4.319   6.518   2.051 -0.7441 -0.3189  0.2461
  437MOL0     H58937   4.157   6.433   2.025 -0.1643  0.2317 -0.9917
  437MOL0     H58938   4.239   6.395   1.788  0.5400  4.4377  0.6609
  437MOL0     H58939   4.396   6.442   1.859 -0.8215  0.5021  0.5162
  437MOL0     H58940   4.367   6.266   2.043 -4.5394  1.0091  2.0389
  437MOL0     H58941   4.221   6.197   1.967 -0.4415  1.0455 -0.2379
  437MOL0     H58942   4.331   6.159   1.759  0.6147  2.1244 -1.0814
  437MOL0     H58943   4.488   6.191   1.830 -2.5245  3.0152 -2.0253
  437MOL0     H58944   4.410   6.006   2.012 -1.3825 -4.7390  0.5666
  437MOL0     H58945   4.469   5.957   1.859  0.2790  0.6422  2.0079
  437MOL0     H58946   4.209   5.970   1.666  1.6293 -0.8898 -0.0593
  437MOL0     H58947   3.929   5.847   1.653  1.1166  1.3078  0.1648
  437MOL0     H58948   4.036   5.702   1.643 -2.7098 -1.5963 -0.4163
  437MOL0     H58949   3.835   5.750   1.860 -1.8714 -1.9308  0.3079
  437MOL0     H58950   3.944   5.618   1.855  0.6060 -1.0561 -1.2781
  437MOL0     H58951   3.842   5.544   1.645  3.2046  2.1644  1.4733
  437MOL0     H58952   3.727   5.681   1.636  0.1776 -2.3355 -3.1093
  437MOL0     H58953   3.714   5.485   1.860  2.5658 -0.0416 -2.3591
  437MOL0     H58954   3.608   5.486   1.722 -1.3802  0.8054  2.0740
  437MOL0     H58955   3.494   5.404   1.884  1.6484  3.2538 -3.6098
  437MOL0     H58956   3.336   5.242   1.881  1.1496  1.3757  1.5085
  437MOL0     H58957   3.251   5.244   2.028  2.6722  1.2628  0.7804
  437MOL0     H58958   3.165   5.289   1.871  0.6039 -0.2740 -0.0794
  437MOL0     H58959   2.980   5.169   2.213  2.8331  2.2223 -4.7963
  437MOL0     H58960   2.766   5.106   2.312 -1.7517  0.3699 -0.8085
  437MOL0     H58961   2.521   5.436   2.467  1.9092 -0.4262 -1.4121
  437MOL0     H58962   2.429   5.372   2.324 -2.1059 -3.2033 -0.4397
  437MOL0     H58963   2.268   5.350   2.519  1.3886  1.2301  0.5689
  437MOL0     H58964   2.333   5.200   2.450  0.6826 -0.2690 -0.1134
  437MOL0     H58965   2.431   5.331   2.707 -1.3269 -0.0958  1.5271
  437MOL0     H58966   2.479   5.169   2.640  0.7748  0.0710 -1.5420
  437MOL0     H58967   2.189   5.219   2.729  0.5597  0.7460  0.7952
  437MOL0     H58968   2.267   5.068   2.683  0.7011 -1.2662  2.9367
  437MOL0     H58969   2.440   5.129   2.867  0.8161 -0.9810  3.2648
  437MOL0     H58970   2.272   5.069   2.905  0.0865  2.1680  2.9572
  437MOL0     H58971   2.344   5.367   2.931  0.2090 -0.1507 -1.0015
  437MOL0     H58972   2.196   5.283   2.948  0.0490 -1.8558  0.3907
  437MOL0     H58973   2.457   5.194   3.093  0.9715  0.0395 -2.8273
  437MOL0     H58974   2.290   5.149   3.137 -0.3071  0.7729  0.2924
  437MOL0     H58975   2.220   5.379   3.203 -0.5492  0.1524 -0.3887
  437MOL0     H58976   2.393   5.430   3.169 -0.7814 -0.1094  1.5331
  437MOL0     H58977   2.663   5.527   2.331  2.4438  1.5243 -0.3399
  437MOL0     H58978   2.854   5.576   2.183 -0.6882  0.2157  1.1902
  437MOL0     H58979   3.168   5.754   1.998  0.9389 -0.5942  0.2980
  437MOL0     H58980   3.406   5.800   1.908  2.6800 -1.7509 -0.0107
  437MOL0     H58981   3.707   6.933   2.048  3.2043 -0.6207  0.3926
  437MOL0     H58982   3.542   7.121   1.971 -1.5017  1.3267 -1.7267
  437MOL0     H58983   3.250   7.470   1.805 -1.6275  0.3069 -1.9846
  437MOL0     H58984   3.202   7.698   1.721 -0.5164  0.3817 -3.3806
  437MOL0     H58985   3.260   7.907   1.756  1.9445 -1.1748  0.0571
  437MOL0     H58986   3.345   8.045   1.704  0.7508  0.6028  1.1976
  437MOL0     H58987   3.176   7.865   1.517  1.3730 -0.4948  0.0004
  437MOL0     H58988   3.259   8.025   1.483 -0.0994 -0.7183 -0.3805
  437MOL0     H58989   3.027   7.967   1.669  1.0362  1.8060  2.5819
  437MOL0     H58990   3.015   8.049   1.510 -0.4325  0.9971 -0.1662
  437MOL0     H58991   3.182   8.231   1.608  1.2211 -0.2078  0.2970
  437MOL0     H58992   3.136   8.147   1.759  2.3611  0.6236 -0.6147
  437MOL0     H58993   2.817   8.405   1.721 -0.6509 -0.6652  0.5063
  437MOL0     H58994   3.632   7.743   1.649 -0.8625 -0.0892 -2.2716
  437MOL0     H58995   3.675   7.539   1.728 -0.4392  0.2847  2.6741
  438MOL0     O58996   2.930   1.089   7.217 -0.5100  0.2409 -0.0786
  438MOL0     C58997   3.013   1.116   7.136 -0.6719  0.0727  0.6620
  438MOL0     O58998   3.043   1.047   7.028 -0.5174  0.4609 -0.9205
  438MOL0     C58999   2.991   0.918   7.012  0.7412  0.9428  0.2950
  438MOL0     C59000   2.983   0.875   6.877 -0.2842  0.1988 -0.2155
  438MOL0     C59001   2.947   0.735   6.855  0.1522 -0.6710  0.9576
  438MOL0     C59002   2.931   0.645   6.954 -0.1679 -0.1841  0.0938
  438MOL0     O59003   2.917   0.507   6.926 -0.5379 -0.6088 -0.4011
  438MOL0     C59004   2.970   0.415   7.024  0.1683  0.3058  0.1084
  438MOL0     C59005   2.978   0.278   6.960 -1.1058  0.9344  0.0339
  438MOL0     C59006   3.052   0.177   7.061 -0.2311  0.7302  0.8632
  438MOL0     C59007   3.199   0.172   7.037 -1.4504 -0.1721 -0.0999
  438MOL0     C59008   3.268   0.083   7.146  0.0188 -0.6915  0.4358
  438MOL0     C59009   3.227  -0.067   7.135 -1.2153  0.3012 -0.0925
  438MOL0     C59010   3.281  -0.145   7.254  0.3642 -0.3566  0.8518
  438MOL0     C59011   3.264  -0.304   7.246  0.4387 -1.0473  0.8624
  438MOL0     N59012   3.127  -0.344   7.236  1.2728  0.1732 -0.3884
  438MOL0     C59013   3.052  -0.372   7.125  0.4731 -0.5233 -0.9990
  438MOL0     C59014   2.939  -0.421   7.176  0.4135 -0.1233 -0.5943
  438MOL0     C59015   2.837  -0.487   7.093 -0.1794  0.8370  0.2819
  438MOL0     C59016   2.709  -0.411   7.106  0.1576 -0.9281 -0.0554
  438MOL0     C59017   2.604  -0.473   7.023  0.0608  0.0071 -0.1963
  438MOL0     C59018   2.464  -0.439   7.058  0.1260  0.7748 -0.3903
  438MOL0     O59019   2.374  -0.461   6.954 -1.1283  0.1729  0.1625
  438MOL0     C59020   2.246  -0.411   6.953  0.7367 -1.7912 -0.5983
  438MOL0     C59021   2.194  -0.346   7.066 -0.2846  0.4148  1.0313
  438MOL0     C59022   2.049  -0.326   7.072  0.2026  0.3639 -0.9793
  438MOL0     C59023   2.000  -0.231   7.179  0.6892 -0.0392 -1.1690
  438MOL0     C59024   1.973  -0.355   6.960  0.1778  0.1813 -0.4730
  438MOL0     C59025   1.835  -0.320   6.948  0.6509  0.1621  0.4441
  438MOL0     O59026   1.820  -0.243   6.842 -0.3428  0.8841 -0.3673
  438MOL0     C59027   1.696  -0.204   6.812  0.3783  0.8529  0.3543
  438MOL0     C59028   1.643  -0.252   6.680 -0.4812 -0.4215  0.1168
  438MOL0     C59029   1.520  -0.217   6.642  0.1152 -0.2514  0.2190
  438MOL0     C59030   1.443  -0.146   6.716  1.0796 -0.6397  0.1275
  438MOL0     O59031   1.322  -0.103   6.686  1.1406  0.0490 -0.1178
  438MOL0     C59032   1.279  -0.117   6.555 -0.3544  0.4291 -0.0064
  438MOL0     C59033   1.166  -0.015   6.531  0.2805  0.0832 -0.7498
  438MOL0     C59034   1.113  -0.037   6.383  0.3012  0.4353 -0.0539
  438MOL0     C59035   0.963   0.002   6.356  0.1939 -0.4681 -0.2813
  438MOL0     C59036   0.931  -0.002   6.206 -0.2560 -0.3267  0.2335
  438MOL0     C59037   0.787   0.035   6.192  0.0313  0.2666  0.6908
  438MOL0     C59038   0.760   0.078   6.049  0.0496 -0.3646  0.9278
  438MOL0     C59039   0.740  -0.036   5.946 -0.4406  0.0613  0.2374
  438MOL0    Cl59040   0.748   0.026   5.780  0.1386  0.0011  0.0283
  438MOL0     C59041   1.489  -0.079   6.834 -0.4249  0.4334  0.5099
  438MOL0     C59042   1.620  -0.112   6.884 -0.3274  1.1878  0.3824
  438MOL0     O59043   1.745  -0.382   7.005 -0.2138 -0.4139  0.2158
  438MOL0     C59044   2.036  -0.406   6.849  0.0724 -0.2125 -0.3362
  438MOL0     C59045   2.169  -0.443   6.853 -0.3104  0.4989 -0.5314
  438MOL0     N59046   2.943  -0.438   7.307 -0.1790 -0.0713 -0.6531
  438MOL0     N59047   3.055  -0.385   7.347 -0.5013 -0.1621  0.6745
  438MOL0     C59048   2.950   0.686   7.090 -0.5193 -0.4328  0.3015
  438MOL0     C59049   2.969   0.824   7.116 -0.3029 -0.2638  0.2157
  438MOL0     C59050   3.058   1.260   7.144  0.6646  0.2987  0.8818
  438MOL0     C59051   3.108   1.332   7.029  0.0256  0.4668 -0.5395
  438MOL0     C59052   3.138   1.470   7.027 -0.5570  0.4688 -0.2351
  438MOL0     C59053   3.141   1.534   7.153 -0.2923  1.0848  0.2671
  438MOL0     O59054   3.189   1.661   7.151  0.0847 -0.3699 -0.1360
  438MOL0     C59055   3.187   1.737   7.273 -0.2819  1.5212 -0.6746
  438MOL0     C59056   3.283   1.852   7.258 -0.1216 -1.0432 -0.5100
  438MOL0     C59057   3.268   1.950   7.379  0.9943 -0.6985 -1.6537
  438MOL0     C59058   3.344   2.086   7.351  0.7385  0.5073  1.1924
  438MOL0     C59059   3.320   2.151   7.218 -0.3578 -0.4476  0.0631
  438MOL0     C59060   3.305   2.199   7.107 -0.9388 -0.8900 -0.0096
  438MOL0     C59061   3.107   1.454   7.269 -0.9818  0.4066  0.0913
  438MOL0     C59062   3.060   1.321   7.263  0.3404 -0.2772 -1.0337
  438MOL0     H59063   3.001   0.950   6.801 -1.1518  0.2313 -0.4039
  438MOL0     H59064   2.922   0.710   6.753  1.0179 -0.0794  0.5883
  438MOL0     H59065   3.073   0.436   7.053  0.9615 -2.8214 -0.0005
  438MOL0     H59066   2.915   0.415   7.119 -1.7655  0.1041 -0.9599
  438MOL0     H59067   2.879   0.241   6.931 -0.9314 -0.1742  0.8069
  438MOL0     H59068   3.030   0.292   6.865 -4.3017  1.4656 -1.7956
  438MOL0     H59069   3.026   0.194   7.166  1.0349  2.1935  0.9840
  438MOL0     H59070   3.024   0.076   7.033 -1.6699  1.0815  0.9730
  438MOL0     H59071   3.224   0.132   6.938  0.4828 -0.4337  0.4414
  438MOL0     H59072   3.242   0.270   7.059 -1.8368  0.1077 -0.5690
  438MOL0     H59073   3.377   0.091   7.137 -0.1120  0.0183 -0.5882
  438MOL0     H59074   3.252   0.119   7.248  1.5372 -1.0665  0.8272
  438MOL0     H59075   3.119  -0.078   7.133 -1.1337 -0.6159  0.3146
  438MOL0     H59076   3.282  -0.095   7.045  1.4912 -1.1270  1.8409
  438MOL0     H59077   3.387  -0.120   7.253  0.3373 -0.2402  0.8160
  438MOL0     H59078   3.256  -0.096   7.348  2.2214  4.1730 -0.7162
  438MOL0     H59079   3.300  -0.346   7.341 -1.7033 -0.4471  1.9998
  438MOL0     H59080   3.313  -0.342   7.155 -1.2055  1.4403 -1.1914
  438MOL0     H59081   3.069  -0.348   7.020 -4.4385  2.2696 -1.4658
  438MOL0     H59082   2.874  -0.482   6.990  0.2260 -2.3049  0.1975
  438MOL0     H59083   2.824  -0.594   7.110  3.2827  0.0389 -1.3046
  438MOL0     H59084   2.728  -0.306   7.081 -0.4622 -1.2007 -1.7733
  438MOL0     H59085   2.688  -0.421   7.213  0.6650  1.8613  0.3933
  438MOL0     H59086   2.620  -0.581   7.013  2.8273  0.4821 -1.7320
  438MOL0     H59087   2.612  -0.423   6.926  3.7583 -0.4244 -0.2401
  438MOL0     H59088   2.456  -0.338   7.099 -3.8993  1.0829 -1.4978
  438MOL0     H59089   2.448  -0.503   7.146  0.4834  0.9809 -0.1746
  438MOL0     H59090   2.255  -0.332   7.155  1.4844 -0.4640  0.0154
  438MOL0     H59091   2.068  -0.225   7.265 -0.3905  3.0492 -0.4130
  438MOL0     H59092   1.980  -0.128   7.150 -3.4000  0.5100  2.4931
  438MOL0     H59093   1.905  -0.270   7.216 -1.3785  4.5170 -1.0638
  438MOL0     H59094   1.710  -0.306   6.614  1.2187  0.2527  1.2213
  438MOL0     H59095   1.479  -0.245   6.546  0.7190 -0.3745 -0.0058
  438MOL0     H59096   1.365  -0.103   6.489  1.2139 -0.2090  1.7951
  438MOL0     H59097   1.245  -0.221   6.546 -0.0923  0.4399 -1.2788
  438MOL0     H59098   1.080  -0.037   6.596 -1.9416  3.5288 -2.2491
  438MOL0     H59099   1.193   0.089   6.550 -1.6147  0.3960  0.5182
  438MOL0     H59100   1.119  -0.142   6.352  2.4803  1.8936 -5.9562
  438MOL0     H59101   1.173   0.012   6.306  1.5213  0.0513  0.6342
  438MOL0     H59102   0.876  -0.056   6.387 -0.3302  1.1302  1.4269
  438MOL0     H59103   0.953   0.104   6.395 -0.7307 -0.5859 -0.1770
  438MOL0     H59104   0.950  -0.099   6.158 -4.0477 -0.8787 -0.4839
  438MOL0     H59105   0.992   0.077   6.163 -2.6512  1.5645  0.1391
  438MOL0     H59106   0.727  -0.053   6.216  0.8343 -0.2238  0.9138
  438MOL0     H59107   0.742   0.123   6.240 -1.5191  2.4183 -4.0942
  438MOL0     H59108   0.842   0.134   6.005 -0.6995 -0.1540 -0.2529
  438MOL0     H59109   0.672   0.143   6.043 -0.9653 -1.7323  0.3485
  438MOL0     H59110   0.648  -0.090   5.970 -0.1541  0.2522  1.8528
  438MOL0     H59111   0.821  -0.107   5.964  0.3110  0.9077  0.2956
  438MOL0     H59112   1.416  -0.013   6.879 -1.0743  0.8109 -1.0175
  438MOL0     H59113   1.650  -0.071   6.980 -1.2819  1.0251  0.7639
  438MOL0     H59114   1.977  -0.425   6.760  0.0378 -1.8632  0.0096
  438MOL0     H59115   2.211  -0.490   6.765  1.7201 -0.4421  0.8684
  438MOL0     H59116   2.946   0.625   7.180  1.3286 -1.1315 -0.0424
  438MOL0     H59117   2.991   0.863   7.215  2.3696  1.8082 -1.0484
  438MOL0     H59118   3.116   1.279   6.934  1.0726  3.0970 -2.0438
  438MOL0     H59119   3.157   1.527   6.937  3.2084  0.3185  0.2919
  438MOL0     H59120   3.086   1.776   7.290 -0.8701 -0.4971  0.9327
  438MOL0     H59121   3.214   1.678   7.361 -2.2676 -0.9332 -1.5740
  438MOL0     H59122   3.269   1.901   7.161  0.7785  0.8284  0.2715
  438MOL0     H59123   3.388   1.823   7.259  0.8163  1.8967  2.7315
  438MOL0     H59124   3.311   1.915   7.474 -0.0723  1.3680 -0.3382
  438MOL0     H59125   3.160   1.965   7.380  0.9283 -0.6515 -3.9943
  438MOL0     H59126   3.453   2.074   7.359  1.2254  2.2305 -1.4279
  438MOL0     H59127   3.315   2.153   7.434 -1.5453  0.4599  0.4963
  438MOL0     H59128   3.294   2.255   7.016  2.3067 -1.2652 -0.7487
  438MOL0     H59129   3.109   1.500   7.368 -3.2926 -3.6980  2.3432
  438MOL0     H59130   3.049   1.277   7.362  0.3062 -0.6897 -1.2219
  439MOL0     O59131   9.890   6.784   5.583  0.4397 -0.5864 -0.3076
  439MOL0     C59132   9.880   6.682   5.651 -0.3898  0.0971  0.2152
  439MOL0     O59133   9.793   6.663   5.756 -0.5137 -0.0544  0.1186
  439MOL0     C59134   9.724   6.761   5.822  0.2218  0.2945 -1.1959
  439MOL0     C59135   9.766   6.889   5.858  0.3176 -0.0767 -0.1560
  439MOL0     C59136   9.665   6.980   5.911 -1.2532  0.3466 -0.3908
  439MOL0     C59137   9.535   6.941   5.935 -1.1008  0.2014 -0.6009
  439MOL0     O59138   9.453   7.035   5.992 -0.1912  0.4533  0.0168
  439MOL0     C59139   9.310   7.044   5.968 -0.7309  0.8110  0.1290
  439MOL0     C59140   9.241   7.100   6.099 -1.0266 -0.0042 -0.1083
  439MOL0     C59141   9.255   7.000   6.209 -0.3056  0.0802 -0.3149
  439MOL0     C59142   9.171   7.015   6.330  0.4369 -0.5725 -2.0167
  439MOL0     C59143   9.193   7.147   6.410 -0.0959  0.7228 -1.0371
  439MOL0     C59144   9.346   7.168   6.456 -0.6466 -1.3342 -0.4736
  439MOL0     C59145   9.388   7.053   6.555 -0.2815 -1.2248 -0.2558
  439MOL0     C59146   9.286   7.039   6.679  0.5474 -0.5866 -0.4860
  439MOL0     N59147   9.273   7.154   6.767 -0.0530  0.3276 -0.2917
  439MOL0     C59148   9.360   7.236   6.837 -0.9829 -0.0593  1.0982
  439MOL0     C59149   9.288   7.332   6.894  1.4370  0.7595  0.3675
  439MOL0     C59150   9.337   7.446   6.979  0.0463 -0.0059 -0.1934
  439MOL0     C59151   9.325   7.581   6.903 -0.9231  0.0662 -1.1667
  439MOL0     C59152   9.346   7.703   6.996  0.4222  0.0128  0.6669
  439MOL0     C59153   9.217   7.707   7.092 -0.3311  0.2706 -0.5573
  439MOL0     O59154   9.215   7.823   7.172 -0.1778 -0.5558 -0.6066
  439MOL0     C59155   9.249   7.814   7.303 -0.2632  0.0466 -0.5692
  439MOL0     C59156   9.161   7.834   7.405  0.6003 -0.0800 -0.3771
  439MOL0     C59157   9.200   7.829   7.541 -0.5034  0.7516 -0.1406
  439MOL0     C59158   9.080   7.848   7.626 -1.3775  0.2759 -0.2874
  439MOL0     C59159   9.324   7.791   7.571  0.4847 -0.5282 -0.8368
  439MOL0     C59160   9.346   7.754   7.711 -0.4826  0.0161 -0.4060
  439MOL0     O59161   9.432   7.647   7.724  0.9213  0.0785  0.0471
  439MOL0     C59162   9.475   7.626   7.856 -0.0351 -0.3908  0.1622
  439MOL0     C59163   9.531   7.723   7.949  0.0367 -0.2336 -0.0094
  439MOL0     C59164   9.580   7.680   8.074 -0.1828 -0.4399  0.8791
  439MOL0     C59165   9.582   7.543   8.108  0.1902 -0.2240  0.2216
  439MOL0     O59166   9.639   7.496   8.223 -0.5418  0.5173 -0.5092
  439MOL0     C59167   9.729   7.570   8.303  0.5851  0.0213 -0.2911
  439MOL0     C59168   9.786   7.492   8.419 -0.5608 -0.7613  0.5762
  439MOL0     C59169   9.909   7.554   8.492  0.6095 -0.4345 -0.4000
  439MOL0     C59170   9.881   7.679   8.579  0.2497 -0.0096 -1.2147
  439MOL0     C59171  10.005   7.745   8.633 -0.2556  0.2623  0.0832
  439MOL0     C59172  10.000   7.875   8.713 -0.0261  0.1962  0.1835
  439MOL0     C59173   9.923   7.839   8.848  0.3423  0.1749  0.7378
  439MOL0     C59174   9.967   7.946   8.944 -1.2270 -1.1494  0.0321
  439MOL0    Cl59175   9.973   8.113   8.867 -0.3223 -0.0923 -0.4448
  439MOL0     C59176   9.526   7.453   8.020  0.2332 -0.0842  0.5908
  439MOL0     C59177   9.475   7.491   7.895  0.6497  0.1886 -0.9820
  439MOL0     O59178   9.312   7.827   7.801 -0.4166 -0.5208 -0.2203
  439MOL0     C59179   9.420   7.779   7.473 -0.6498  0.7780 -0.4397
  439MOL0     C59180   9.378   7.778   7.338 -0.6869 -0.0314 -0.9985
  439MOL0     N59181   9.162   7.318   6.850 -0.4591 -0.8380 -0.2805
  439MOL0     N59182   9.158   7.218   6.771  0.1748 -0.2963 -0.1516
  439MOL0     C59183   9.499   6.810   5.899 -0.6494 -0.0231 -0.7666
  439MOL0     C59184   9.590   6.721   5.846 -0.4777  0.5686 -0.8841
  439MOL0     C59185   9.956   6.561   5.592  0.6151  0.2239  0.9473
  439MOL0     C59186   9.950   6.435   5.658 -0.0863 -0.8082 -0.8318
  439MOL0     C59187  10.006   6.312   5.601 -0.2979 -0.6590  0.0559
  439MOL0     C59188  10.082   6.330   5.489 -0.6141  0.0835  0.2157
  439MOL0     O59189  10.149   6.221   5.439 -0.2790 -0.2600  0.0944
  439MOL0     C59190  10.253   6.233   5.340  0.9390  0.7998 -0.7030
  439MOL0     C59191  10.277   6.086   5.292 -0.3132 -0.3752  0.1676
  439MOL0     C59192  10.325   5.997   5.409 -0.0315 -0.2020 -0.4195
  439MOL0     C59193  10.348   5.847   5.385 -0.6598 -0.4231 -0.1282
  439MOL0     C59194  10.430   5.832   5.269  0.1740  0.3055 -0.9676
  439MOL0     C59195  10.498   5.815   5.167  0.1924  0.2510  0.2673
  439MOL0     C59196  10.095   6.454   5.433  0.4688  0.0505  0.3667
  439MOL0     C59197  10.034   6.567   5.483  0.1497 -0.1163  1.4070
  439MOL0     H59198   9.864   6.918   5.822  1.5444 -3.6169 -0.0628
  439MOL0     H59199   9.698   7.082   5.928 -1.5541  0.3267  0.3533
  439MOL0     H59200   9.291   7.124   5.896 -3.3141 -0.4257 -0.6887
  439MOL0     H59201   9.263   6.956   5.924  1.2060  0.0173 -0.4426
  439MOL0     H59202   9.283   7.192   6.141  1.2208  0.4686 -3.0371
  439MOL0     H59203   9.138   7.122   6.069 -0.9195  1.2454  0.3922
  439MOL0     H59204   9.213   6.906   6.172 -2.0399  0.2477  1.0880
  439MOL0     H59205   9.359   6.982   6.238 -0.0516 -1.4568 -1.9859
  439MOL0     H59206   9.063   7.003   6.315 -0.2272 -1.7356  2.3141
  439MOL0     H59207   9.202   6.932   6.393 -2.3251 -0.8727 -0.9511
  439MOL0     H59208   9.164   7.233   6.350  2.7124  2.5452  0.0499
  439MOL0     H59209   9.128   7.144   6.498  0.4710  2.3739 -0.5320
  439MOL0     H59210   9.400   7.174   6.361 -0.2155  1.2050 -0.1422
  439MOL0     H59211   9.364   7.266   6.500  1.5259 -2.2267  0.7864
  439MOL0     H59212   9.391   6.962   6.495  2.1157 -0.9964 -0.5458
  439MOL0     H59213   9.487   7.075   6.594 -1.8727  3.2981  1.9804
  439MOL0     H59214   9.320   6.970   6.756 -2.4966 -0.2302  1.3389
  439MOL0     H59215   9.184   7.012   6.653  1.2174 -1.0543 -2.9594
  439MOL0     H59216   9.468   7.229   6.840 -0.7691  0.8977 -1.4583
  439MOL0     H59217   9.274   7.448   7.069  0.5755  1.6494  0.1910
  439MOL0     H59218   9.440   7.418   7.006 -0.8707 -1.4576  2.1231
  439MOL0     H59219   9.228   7.595   6.857 -0.8757 -0.9491 -1.5931
  439MOL0     H59220   9.402   7.584   6.825  1.5282  0.9183  1.0824
  439MOL0     H59221   9.339   7.790   6.931  0.3154 -0.5070 -0.0314
  439MOL0     H59222   9.442   7.706   7.049  1.6112  2.2859 -1.4102
  439MOL0     H59223   9.218   7.622   7.161 -3.6056 -0.2720 -1.0250
  439MOL0     H59224   9.130   7.707   7.026 -0.6443  0.7306 -0.1501
  439MOL0     H59225   9.060   7.850   7.368  0.4351  0.1635  0.1560
  439MOL0     H59226   9.063   7.743   7.651  3.7633 -1.1004 -1.4775
  439MOL0     H59227   9.090   7.912   7.714  0.8002  0.4895 -0.6367
  439MOL0     H59228   8.989   7.885   7.577 -0.8052  1.2971 -0.6247
  439MOL0     H59229   9.529   7.827   7.919  1.1716 -0.1368  0.2257
  439MOL0     H59230   9.633   7.751   8.136  0.8340  0.1559 -0.5985
  439MOL0     H59231   9.807   7.607   8.236 -0.2941 -0.2137 -1.5029
  439MOL0     H59232   9.675   7.660   8.334 -1.8566 -0.7690 -1.8999
  439MOL0     H59233   9.712   7.482   8.500  0.9494  2.9447  2.6945
  439MOL0     H59234   9.809   7.389   8.389 -0.2352 -1.5104  3.1341
  439MOL0     H59235   9.984   7.572   8.415  0.6011 -0.9239 -0.5283
  439MOL0     H59236   9.951   7.475   8.555 -2.1786 -0.6397  1.4092
  439MOL0     H59237   9.812   7.743   8.523 -1.6711  0.7776  1.7950
  439MOL0     H59238   9.825   7.642   8.665  2.3719 -1.7524 -0.4993
  439MOL0     H59239  10.072   7.759   8.547 -0.8519  0.1509 -0.4046
  439MOL0     H59240  10.051   7.661   8.686 -1.2916 -0.8505 -0.7293
  439MOL0     H59241  10.103   7.907   8.731 -0.2568  3.4439 -3.0472
  439MOL0     H59242   9.944   7.951   8.658  0.2319  0.9403  0.9461
  439MOL0     H59243   9.938   7.741   8.893  1.6766  0.8322  1.8208
  439MOL0     H59244   9.816   7.854   8.836  0.4138  0.8457  0.8764
  439MOL0     H59245  10.067   7.922   8.981  0.0054  2.6331 -0.4529
  439MOL0     H59246   9.908   7.958   9.036  1.2580  0.4975  1.5219
  439MOL0     H59247   9.544   7.347   8.036 -1.8983 -0.7868 -1.2686
  439MOL0     H59248   9.438   7.414   7.829 -0.3464  0.7449 -1.0998
  439MOL0     H59249   9.521   7.757   7.505 -1.0443 -1.8580 -0.7635
  439MOL0     H59250   9.451   7.737   7.269 -0.1979  0.8375 -1.0083
  439MOL0     H59251   9.398   6.776   5.918  0.4870 -1.6163  3.5625
  439MOL0     H59252   9.554   6.622   5.821  1.0176  0.2394 -1.8899
  439MOL0     H59253   9.884   6.426   5.743  0.6266 -2.3373 -0.4001
  439MOL0     H59254   9.991   6.216   5.648 -2.9527  0.0209  0.7656
  439MOL0     H59255  10.217   6.295   5.258  0.0471  0.7163 -0.3946
  439MOL0     H59256  10.334   6.292   5.382  0.6588  0.7768 -0.1016
  439MOL0     H59257  10.355   6.071   5.217  1.0147 -1.5461  1.6932
  439MOL0     H59258  10.184   6.055   5.245 -1.0555  0.1661  1.2366
  439MOL0     H59259  10.247   6.003   5.486  0.4055  2.6482 -0.0559
  439MOL0     H59260  10.424   6.032   5.441  0.3478 -0.1641 -1.6032
  439MOL0     H59261  10.254   5.792   5.376 -1.2097  0.6168 -0.8865
  439MOL0     H59262  10.397   5.809   5.476  2.2383 -0.4879 -1.5981
  439MOL0     H59263  10.550   5.790   5.077  0.1203 -1.2737  0.6142
  439MOL0     H59264  10.128   6.470   5.331 -0.9747 -1.4615 -0.3911
  439MOL0     H59265  10.050   6.661   5.429 -2.2953  1.0068  2.5239
  440MOL0     O59266   6.001   7.071   8.820  0.1749  0.4967 -0.8561
  440MOL0     C59267   6.014   7.017   8.712 -0.5328  0.5771 -0.5328
  440MOL0     O59268   6.061   6.888   8.690  0.2704  0.1707  0.3244
  440MOL0     C59269   6.069   6.802   8.801  0.2415 -0.7564  0.9274
  440MOL0     C59270   5.958   6.781   8.883 -0.7759  0.5992 -0.2545
  440MOL0     C59271   5.971   6.681   8.981  0.4866  0.0794  0.0151
  440MOL0     C59272   6.087   6.601   9.001  0.0617 -0.7318 -0.2188
  440MOL0     O59273   6.090   6.493   9.092 -0.2836  0.2660  0.0923
  440MOL0     C59274   5.973   6.408   9.095  0.4517  0.3824 -0.2888
  440MOL0     C59275   6.003   6.262   9.123  0.7684  0.4634  0.1855
  440MOL0     C59276   6.084   6.207   9.006 -0.4162  1.0378  0.8306
  440MOL0     C59277   6.227   6.239   8.996 -0.9490 -0.8944 -0.1610
  440MOL0     C59278   6.299   6.135   8.913 -0.0955 -0.4290  0.1391
  440MOL0     C59279   6.316   5.997   8.977 -0.1122 -0.0618  0.5991
  440MOL0     C59280   6.426   5.920   8.905  0.6870 -0.5137 -1.2261
  440MOL0     C59281   6.456   5.778   8.964 -0.7813  0.1329  0.9068
  440MOL0     N59282   6.333   5.715   8.997 -0.1428  0.7410 -0.0796
  440MOL0     C59283   6.235   5.683   8.907  0.4725  0.0530  0.9138
  440MOL0     C59284   6.132   5.629   8.975  0.2910 -0.4868 -0.0048
  440MOL0     C59285   5.993   5.602   8.930  0.3148 -0.3296 -0.0016
  440MOL0     C59286   5.892   5.651   9.039 -0.5151 -0.0239 -0.0606
  440MOL0     C59287   5.897   5.800   9.068  0.7513 -0.5259  0.0048
  440MOL0     C59288   5.830   5.891   8.962 -0.5356  0.8820  0.1703
  440MOL0     O59289   5.700   5.919   8.999  0.2181 -0.0912  0.7586
  440MOL0     C59290   5.679   6.058   8.993  0.5963  0.0337  0.2413
  440MOL0     C59291   5.684   6.122   8.869  0.1878  1.1181 -0.8890
  440MOL0     C59292   5.664   6.261   8.860 -1.5949  1.3871  0.7366
  440MOL0     C59293   5.693   6.334   8.722 -0.3364 -0.8385  0.1540
  440MOL0     C59294   5.640   6.335   8.972 -0.0581  0.0983  0.0300
  440MOL0     C59295   5.607   6.474   8.966  0.2210 -0.0544  0.6211
  440MOL0     O59296   5.506   6.509   8.873 -0.0337  0.6503  0.7091
  440MOL0     C59297   5.492   6.641   8.848  0.3893  0.2078  0.6323
  440MOL0     C59298   5.583   6.705   8.767 -1.2261 -0.6008 -0.6563
  440MOL0     C59299   5.575   6.844   8.751 -0.5131  1.2707  0.9535
  440MOL0     C59300   5.472   6.918   8.791 -0.1933 -0.4395 -0.4002
  440MOL0     O59301   5.462   7.050   8.758 -0.4360 -0.4624 -0.2081
  440MOL0     C59302   5.449   7.136   8.863  0.5100 -0.1674  0.0045
  440MOL0     C59303   5.582   7.171   8.923 -0.2406 -0.5442 -0.1496
  440MOL0     C59304   5.581   7.262   9.044 -0.5031  0.0439  0.3155
  440MOL0     C59305   5.719   7.255   9.111  0.7224  0.2063 -0.7335
  440MOL0     C59306   5.726   7.328   9.245 -0.6068 -0.7908 -1.7475
  440MOL0     C59307   5.679   7.479   9.239 -0.6181  0.5157 -0.0344
  440MOL0     C59308   5.715   7.552   9.364  0.0458  0.4757 -0.1187
  440MOL0     C59309   5.620   7.666   9.381 -0.0936 -0.2352  1.3013
  440MOL0    Cl59310   5.443   7.614   9.406 -1.3510  0.0396  0.0789
  440MOL0     C59311   5.372   6.850   8.871 -0.9840  0.5278 -0.0382
  440MOL0     C59312   5.388   6.712   8.896  0.0329  0.2166  0.4033
  440MOL0     O59313   5.653   6.548   9.052 -0.4874 -0.2821 -1.0933
  440MOL0     C59314   5.639   6.273   9.099  0.1875 -0.4616 -0.1751
  440MOL0     C59315   5.647   6.137   9.110 -0.0374  0.7575  0.4110
  440MOL0     N59316   6.171   5.647   9.107  0.5146 -0.7602 -0.8671
  440MOL0     N59317   6.293   5.689   9.118  0.1322 -0.4385 -0.0987
  440MOL0     C59318   6.198   6.645   8.930  0.4606 -0.6619 -0.2860
  440MOL0     C59319   6.193   6.738   8.825 -0.8002  1.0129  0.1153
  440MOL0     C59320   5.993   7.096   8.587 -0.9190 -0.5369 -1.3931
  440MOL0     C59321   6.076   7.071   8.474  0.1090  0.8495  0.8404
  440MOL0     C59322   6.044   7.138   8.352 -0.6988 -0.1279 -0.0773
  440MOL0     C59323   5.944   7.236   8.346  0.9653 -0.1843  0.0831
  440MOL0     O59324   5.920   7.320   8.236 -0.2476  0.3305 -0.9741
  440MOL0     C59325   6.032   7.369   8.167  0.6811  0.7359  0.0757
  440MOL0     C59326   5.981   7.495   8.091 -0.1193  0.3307 -1.3065
  440MOL0     C59327   6.096   7.570   8.024  0.1858  0.1530 -0.3752
  440MOL0     C59328   6.052   7.718   7.997 -0.3902  0.2639 -0.0482
  440MOL0     C59329   6.164   7.766   7.911 -0.4078 -1.4459 -0.5669
  440MOL0     C59330   6.263   7.805   7.843 -0.8811 -0.0778 -1.2014
  440MOL0     C59331   5.871   7.266   8.469  0.1067  0.6833  0.4588
  440MOL0     C59332   5.888   7.189   8.583  0.5229  0.2136  0.4707
  440MOL0     H59333   5.860   6.827   8.879 -1.4608 -0.8744 -2.3541
  440MOL0     H59334   5.888   6.664   9.048 -0.6091  1.0731 -1.0336
  440MOL0     H59335   5.907   6.448   9.173  2.0740  2.9002 -0.0777
  440MOL0     H59336   5.921   6.409   8.999 -2.8533 -1.6274  1.3105
  440MOL0     H59337   6.052   6.252   9.219  2.0299 -1.8123 -0.6279
  440MOL0     H59338   5.904   6.216   9.135  0.0831  2.1507  1.4399
  440MOL0     H59339   6.070   6.098   9.012 -0.0709  0.8075 -1.6792
  440MOL0     H59340   6.042   6.229   8.908 -1.8488 -2.3280  0.5468
  440MOL0     H59341   6.233   6.342   8.960 -0.1182 -0.5407  0.9511
  440MOL0     H59342   6.272   6.230   9.095 -1.1756  0.8264  0.1148
  440MOL0     H59343   6.243   6.118   8.821 -1.3685 -1.2965  1.0437
  440MOL0     H59344   6.399   6.172   8.887 -0.7095  1.5281  0.4095
  440MOL0     H59345   6.329   5.999   9.086  1.3683 -1.8787  0.5063
  440MOL0     H59346   6.221   5.943   8.964 -0.7017  1.2030 -0.5435
  440MOL0     H59347   6.397   5.907   8.800 -4.2250 -0.6858 -0.1275
  440MOL0     H59348   6.519   5.976   8.920 -0.2347  1.2849 -1.8895
  440MOL0     H59349   6.508   5.783   9.060 -0.0001 -0.3405  0.5173
  440MOL0     H59350   6.514   5.715   8.896 -3.4530 -0.3749 -1.0764
  440MOL0     H59351   6.244   5.702   8.800  0.9711 -1.1590  0.7193
  440MOL0     H59352   5.965   5.654   8.838  0.9231  1.3430  0.7161
  440MOL0     H59353   5.979   5.496   8.908 -0.0099 -0.3087  0.0876
  440MOL0     H59354   5.929   5.599   9.128  0.1978 -0.6450 -0.7117
  440MOL0     H59355   5.786   5.633   9.017 -0.2725 -0.8233 -0.5898
  440MOL0     H59356   6.001   5.834   9.075  0.3968  1.0787 -1.6709
  440MOL0     H59357   5.861   5.817   9.170  1.3653 -2.1518  0.5174
  440MOL0     H59358   5.824   5.838   8.866 -0.2993 -1.9851  1.6319
  440MOL0     H59359   5.895   5.978   8.946  1.2745 -0.0711  1.8982
  440MOL0     H59360   5.701   6.045   8.794  0.3785  1.1315 -0.8601
  440MOL0     H59361   5.728   6.436   8.738 -2.8014  0.1158 -0.0572
  440MOL0     H59362   5.757   6.268   8.664 -1.2980 -1.5753 -0.0980
  440MOL0     H59363   5.602   6.346   8.662 -0.2194  0.7598  0.2472
  440MOL0     H59364   5.673   6.658   8.729  2.0251  2.1204  2.8750
  440MOL0     H59365   5.656   6.893   8.697 -1.4418 -0.3028 -2.1369
  440MOL0     H59366   5.418   7.230   8.815  3.8681  0.2115 -1.6833
  440MOL0     H59367   5.375   7.108   8.939 -0.8258  3.8582  0.4374
  440MOL0     H59368   5.598   7.074   8.970 -3.9401  0.8364  4.7991
  440MOL0     H59369   5.657   7.204   8.850 -1.5702  2.3734 -0.3665
  440MOL0     H59370   5.507   7.242   9.122 -1.0662 -3.1018 -0.8556
  440MOL0     H59371   5.562   7.362   9.006 -1.8049  0.1422  1.1868
  440MOL0     H59372   5.744   7.155   9.147  3.6491  0.6822 -1.2126
  440MOL0     H59373   5.801   7.295   9.051 -0.8955 -0.3143 -3.4660
  440MOL0     H59374   5.830   7.340   9.274 -0.9499  0.7697 -1.0455
  440MOL0     H59375   5.666   7.280   9.323 -0.9074  2.3999  0.1446
  440MOL0     H59376   5.737   7.530   9.161  2.1085 -1.9162  0.2039
  440MOL0     H59377   5.573   7.483   9.215 -0.3912  0.3518 -1.1452
  440MOL0     H59378   5.819   7.582   9.352  0.3597  0.2274  1.6296
  440MOL0     H59379   5.710   7.481   9.447  0.8222 -0.5137 -0.8924
  440MOL0     H59380   5.611   7.723   9.288  0.3683 -1.9552  0.1652
  440MOL0     H59381   5.640   7.727   9.470 -0.7163  0.3002  1.0813
  440MOL0     H59382   5.299   6.915   8.918  2.4659  3.8832  1.2282
  440MOL0     H59383   5.309   6.664   8.952  1.6981 -2.2779  0.8045
  440MOL0     H59384   5.634   6.332   9.190  1.2303 -1.9297  0.8859
  440MOL0     H59385   5.658   6.091   9.207 -0.4551 -3.0239 -1.1587
  440MOL0     H59386   6.290   6.599   8.964  1.2240 -0.2599 -1.7222
  440MOL0     H59387   6.274   6.751   8.754 -2.0990  0.2531 -1.5896
  440MOL0     H59388   6.160   7.004   8.484 -0.7863 -0.0869  2.5159
  440MOL0     H59389   6.097   7.126   8.258 -0.4956  0.4631 -0.0458
  440MOL0     H59390   6.119   7.402   8.225  1.1218  2.8265 -1.6537
  440MOL0     H59391   6.066   7.290   8.099 -1.3892  0.1342 -0.3322
  440MOL0     H59392   5.936   7.559   8.168 -1.4640 -2.0118 -0.0252
  440MOL0     H59393   5.904   7.473   8.016  2.7227 -1.0025 -4.0976
  440MOL0     H59394   6.100   7.516   7.929  3.6204  0.4356 -0.5228
  440MOL0     H59395   6.191   7.551   8.076  0.5086 -0.6881 -1.2295
  440MOL0     H59396   6.048   7.770   8.093 -0.1901 -1.1252  0.7449
  440MOL0     H59397   5.958   7.729   7.941 -0.4013 -1.3492 -0.3838
  440MOL0     H59398   6.334   7.827   7.766 -1.4087  2.1958 -1.1113
  440MOL0     H59399   5.806   7.353   8.474  1.3011  1.7833 -1.5654
  440MOL0     H59400   5.817   7.212   8.662 -1.5769  1.4272 -1.6380
  441MOL0     O59401   9.522   6.357   8.551  0.2817  0.0177  0.2614
  441MOL0     C59402   9.549   6.236   8.539  0.5077 -0.3684 -0.0516
  441MOL0     O59403   9.475   6.149   8.464 -0.6267 -0.3242 -0.0941
  441MOL0     C59404   9.344   6.186   8.449  0.2387  0.4881 -0.2249
  441MOL0     C59405   9.241   6.130   8.534 -0.0218  0.2817 -0.2454
  441MOL0     C59406   9.107   6.166   8.516 -0.6326 -1.2251 -0.2746
  441MOL0     C59407   9.067   6.264   8.425 -1.0643  0.2341  0.8008
  441MOL0     O59408   8.937   6.309   8.409 -0.4942 -0.2902 -0.2235
  441MOL0     C59409   8.831   6.218   8.438 -0.4441  0.7878 -0.1649
  441MOL0     C59410   8.779   6.263   8.577 -0.4197 -0.2094 -0.0139
  441MOL0     C59411   8.633   6.207   8.575  0.2606  1.0950 -1.2397
  441MOL0     C59412   8.569   6.229   8.705  0.3971 -0.9703  0.4269
  441MOL0     C59413   8.420   6.191   8.702 -0.5379  0.3424  0.7815
  441MOL0     C59414   8.352   6.239   8.826  0.4724  0.2412  0.5925
  441MOL0     C59415   8.232   6.142   8.858 -0.2509 -0.8040 -1.3114
  441MOL0     C59416   8.185   6.183   9.008 -0.0214  0.0747  0.6066
  441MOL0     N59417   8.084   6.088   9.068  0.8566  0.3869 -0.8841
  441MOL0     C59418   8.056   6.069   9.205 -0.4893 -0.6726  1.2146
  441MOL0     C59419   7.978   5.965   9.219 -0.3869  0.3720 -0.6850
  441MOL0     C59420   7.924   5.931   9.355  0.2483  0.0359  0.5508
  441MOL0     C59421   8.042   5.913   9.457 -0.1584 -0.5862 -0.2855
  441MOL0     C59422   7.996   5.861   9.595  0.4244 -0.3152 -0.6374
  441MOL0     C59423   8.107   5.838   9.705 -0.2284 -0.3369  0.7488
  441MOL0     O59424   8.117   5.702   9.737  0.5402  0.4632 -0.0978
  441MOL0     C59425   8.144   5.604   9.640  0.0779 -0.0306  0.2062
  441MOL0     C59426   8.223   5.618   9.532  0.2872 -0.8529  0.6944
  441MOL0     C59427   8.249   5.526   9.440  0.2041 -0.3929  0.6168
  441MOL0     C59428   8.311   5.561   9.313  0.2872 -0.1590 -0.2427
  441MOL0     C59429   8.207   5.396   9.454  0.4559 -0.2715 -0.8598
  441MOL0     C59430   8.218   5.278   9.363 -0.5034 -1.2370 -0.2236
  441MOL0     O59431   8.124   5.180   9.374 -0.4301 -0.5022 -0.1052
  441MOL0     C59432   8.149   5.063   9.306  0.0979 -0.0348  0.3439
  441MOL0     C59433   8.246   4.978   9.349  0.1732 -0.6272 -0.1580
  441MOL0     C59434   8.255   4.855   9.298  0.5448 -0.3001  0.3737
  441MOL0     C59435   8.187   4.818   9.182 -0.2074 -0.4137 -0.1632
  441MOL0     O59436   8.216   4.698   9.127 -0.0612 -0.2920 -0.2995
  441MOL0     C59437   8.282   4.712   8.995 -0.1566  0.6771 -0.3009
  441MOL0     C59438   8.292   4.571   8.933  0.3072  0.1453 -0.4507
  441MOL0     C59439   8.367   4.577   8.797 -0.5431  0.0115 -0.0212
  441MOL0     C59440   8.401   4.429   8.753  0.2214 -0.1186 -0.5537
  441MOL0     C59441   8.498   4.359   8.854  0.1377 -0.6469 -0.2992
  441MOL0     C59442   8.556   4.228   8.790 -0.5031  0.3482 -0.2835
  441MOL0     C59443   8.702   4.193   8.851  0.9775 -0.0746  0.0514
  441MOL0     C59444   8.720   4.040   8.863 -0.4646  0.2682  0.1298
  441MOL0    Cl59445   8.678   3.968   8.705  0.0714  0.4549 -0.0278
  441MOL0     C59446   8.101   4.909   9.124 -0.6084 -0.5370 -0.1960
  441MOL0     C59447   8.079   5.029   9.183 -0.3452  0.9591 -0.2627
  441MOL0     O59448   8.320   5.274   9.293  0.1177  0.0227 -0.6630
  441MOL0     C59449   8.144   5.371   9.577 -0.0346 -0.6475  0.3366
  441MOL0     C59450   8.115   5.479   9.669  0.0160  0.1287  0.1924
  441MOL0     N59451   7.962   5.906   9.100  1.1241  0.7062  0.3695
  441MOL0     N59452   8.024   5.980   9.007 -0.7277 -0.5691 -0.6724
  441MOL0     C59453   9.166   6.318   8.341  0.0202  0.7672  0.6961
  441MOL0     C59454   9.307   6.283   8.354  0.6413  0.6479 -0.0391
  441MOL0     C59455   9.667   6.191   8.598 -0.3086 -0.5298  0.4299
  441MOL0     C59456   9.784   6.277   8.617  1.1780 -0.1267  0.4934
  441MOL0     C59457   9.897   6.236   8.686  0.2603  0.1608 -0.0098
  441MOL0     C59458   9.888   6.108   8.747 -0.1648 -0.6014  0.6255
  441MOL0     O59459   9.987   6.063   8.827  0.3359 -0.8751  0.6043
  441MOL0     C59460  10.112   6.021   8.770 -0.2239 -0.3822 -0.6842
  441MOL0     C59461  10.226   6.005   8.865 -1.0582 -0.7143  0.2628
  441MOL0     C59462  10.276   6.141   8.916  0.3648  0.0414 -0.1906
  441MOL0     C59463  10.387   6.118   9.020 -0.2276 -1.0628  0.3860
  441MOL0     C59464  10.519   6.100   8.954  0.1639 -0.8196 -0.7296
  441MOL0     C59465  10.628   6.073   8.904  0.4425 -0.6369  0.1626
  441MOL0     C59466   9.785   6.031   8.727  0.6557  0.8297 -0.1154
  441MOL0     C59467   9.673   6.063   8.659  0.8241  0.0198  0.9678
  441MOL0     H59468   9.272   6.063   8.614  0.3084  2.1681  1.2670
  441MOL0     H59469   9.036   6.138   8.594  0.3308  0.8292  1.4660
  441MOL0     H59470   8.756   6.230   8.359 -2.1685 -2.8312  0.7115
  441MOL0     H59471   8.865   6.114   8.438 -2.9197 -0.0991 -0.5180
  441MOL0     H59472   8.834   6.220   8.661 -2.1572 -0.9163  0.8195
  441MOL0     H59473   8.794   6.371   8.579  0.0470 -0.2824  1.9889
  441MOL0     H59474   8.574   6.261   8.500  1.4082  3.4259 -0.5683
  441MOL0     H59475   8.644   6.101   8.553  2.5251  1.3952 -1.8352
  441MOL0     H59476   8.609   6.167   8.786 -0.1555  2.1316  3.3203
  441MOL0     H59477   8.596   6.330   8.736 -1.0651 -0.8874  1.5439
  441MOL0     H59478   8.375   6.232   8.611  0.5090  1.1197  0.5995
  441MOL0     H59479   8.423   6.082   8.706  0.3222  0.3965  3.1229
  441MOL0     H59480   8.423   6.245   8.909 -0.2553  1.0396  1.1693
  441MOL0     H59481   8.317   6.341   8.809  0.3906  0.0149 -0.7466
  441MOL0     H59482   8.153   6.179   8.793  0.8650 -0.3544 -2.4580
  441MOL0     H59483   8.257   6.036   8.851 -0.7434 -1.2614  2.0984
  441MOL0     H59484   8.157   6.289   9.016 -1.1750 -0.2778  1.7086
  441MOL0     H59485   8.269   6.155   9.072  0.6224 -0.5544 -0.5003
  441MOL0     H59486   8.100   6.135   9.280  0.7789  0.5836 -0.5507
  441MOL0     H59487   7.842   5.993   9.392 -0.4668 -0.3864 -0.3068
  441MOL0     H59488   7.882   5.831   9.342  0.9553 -0.1609 -0.2937
  441MOL0     H59489   8.098   6.005   9.470  3.9974 -2.8311 -0.6583
  441MOL0     H59490   8.110   5.837   9.418  1.2750 -0.1802  1.2671
  441MOL0     H59491   7.933   5.777   9.567  1.0050 -0.4426 -1.5978
  441MOL0     H59492   7.911   5.919   9.632  0.9461 -0.7908  1.5005
  441MOL0     H59493   8.083   5.895   9.795 -0.6849 -0.1075  0.4798
  441MOL0     H59494   8.208   5.878   9.690 -0.5791  0.1659 -0.3666
  441MOL0     H59495   8.270   5.715   9.521  0.5075 -1.0581 -0.3151
  441MOL0     H59496   8.343   5.665   9.325  1.1290 -0.1238 -2.3923
  441MOL0     H59497   8.403   5.506   9.292  3.5241  3.9125  1.6667
  441MOL0     H59498   8.245   5.549   9.227 -0.0027 -0.6760  0.0450
  441MOL0     H59499   8.308   5.008   9.433  2.8371 -1.8834 -1.5508
  441MOL0     H59500   8.308   4.780   9.356  0.4411 -0.1003  0.7289
  441MOL0     H59501   8.226   4.781   8.931  0.4163  2.1652  0.7341
  441MOL0     H59502   8.382   4.749   9.022 -0.0160 -0.2868  0.5963
  441MOL0     H59503   8.350   4.510   9.003  3.2045  1.5084 -1.5372
  441MOL0     H59504   8.192   4.534   8.906  0.3507 -0.1102 -0.2673
  441MOL0     H59505   8.464   4.628   8.799 -0.3414 -0.1556 -2.6722
  441MOL0     H59506   8.312   4.634   8.722 -2.8272 -0.4893  1.1960
  441MOL0     H59507   8.301   4.385   8.751 -1.3968  3.2659 -1.4606
  441MOL0     H59508   8.432   4.443   8.649 -1.6703  0.9458 -1.0289
  441MOL0     H59509   8.447   4.325   8.944  0.0173  2.8016  1.0504
  441MOL0     H59510   8.580   4.429   8.872  1.6108 -2.0263 -1.2210
  441MOL0     H59511   8.491   4.144   8.817 -0.5496  0.7280  0.8640
  441MOL0     H59512   8.562   4.243   8.682  0.3300  3.0197  0.0514
  441MOL0     H59513   8.705   4.218   8.957 -1.1249 -1.7109  0.5703
  441MOL0     H59514   8.786   4.238   8.798 -2.4776  0.1498 -6.2346
  441MOL0     H59515   8.652   3.999   8.938 -1.2280  0.3019 -0.5394
  441MOL0     H59516   8.823   4.012   8.888 -0.9999 -0.0892  2.1014
  441MOL0     H59517   8.041   4.884   9.037 -1.1089 -2.4913  0.6431
  441MOL0     H59518   8.003   5.089   9.136 -1.1659 -0.5630 -0.9691
  441MOL0     H59519   8.107   5.272   9.604  0.3830  0.0007  3.8594
  441MOL0     H59520   8.064   5.461   9.764 -3.8393 -3.4178 -2.2034
  441MOL0     H59521   9.123   6.383   8.266  1.4911 -0.6132 -1.4671
  441MOL0     H59522   9.389   6.342   8.313  1.3949  0.4650  1.1861
  441MOL0     H59523   9.790   6.375   8.570  0.3570 -0.1830  0.2569
  441MOL0     H59524   9.979   6.306   8.700 -1.0095  1.6042  0.5175
  441MOL0     H59525  10.095   5.922   8.728  1.3281 -0.6132 -0.8103
  441MOL0     H59526  10.145   6.096   8.697 -0.0955  1.4350  1.1339
  441MOL0     H59527  10.308   5.950   8.818 -0.0615 -1.6401  2.8979
  441MOL0     H59528  10.190   5.951   8.953 -1.9741 -1.1898 -0.3895
  441MOL0     H59529  10.197   6.201   8.961 -1.8423 -1.0741 -2.3631
  441MOL0     H59530  10.305   6.195   8.825 -0.2978  0.8192  0.0481
  441MOL0     H59531  10.374   6.030   9.085  1.5888  0.4573  3.0088
  441MOL0     H59532  10.398   6.208   9.081  2.4049 -0.0047 -1.4917
  441MOL0     H59533  10.713   6.050   8.844  0.2863 -3.0090  0.7550
  441MOL0     H59534   9.799   5.933   8.772 -0.2077  1.1657  0.9528
  441MOL0     H59535   9.590   6.001   8.624 -0.0472  2.0239 -0.6995
  442MOL0     O59536   3.050   6.408  11.093  0.0200  0.8207 -0.9285
  442MOL0     C59537   2.952   6.344  11.116  0.3019  0.2951 -0.0220
  442MOL0     O59538   2.905   6.314  11.237  0.9067 -0.1011 -0.9060
  442MOL0     C59539   2.978   6.319  11.350  0.7633  0.7250  0.3400
  442MOL0     C59540   3.122   6.330  11.368  0.3185  0.3739  0.5065
  442MOL0     C59541   3.178   6.333  11.494 -0.1577 -0.3677 -0.0848
  442MOL0     C59542   3.099   6.337  11.609  0.3672  0.6263  0.2838
  442MOL0     O59543   3.170   6.361  11.724 -0.2307  1.1111 -0.6737
  442MOL0     C59544   3.120   6.368  11.857  0.0954 -0.0192 -0.6263
  442MOL0     C59545   3.116   6.517  11.897 -0.0545 -0.1297 -1.0010
  442MOL0     C59546   3.089   6.541  12.045 -0.3851 -0.6794 -0.6184
  442MOL0     C59547   3.062   6.690  12.074 -0.9372 -0.1831  0.8050
  442MOL0     C59548   2.929   6.731  12.018 -0.3320  0.6214 -0.6294
  442MOL0     C59549   2.945   6.837  11.916 -0.6236 -1.5516 -0.0606
  442MOL0     C59550   2.796   6.867  11.863  0.2884  0.3324  0.1084
  442MOL0     C59551   2.781   7.014  11.808  0.6733 -0.2577  0.3688
  442MOL0     N59552   2.889   7.047  11.709  1.4327 -0.2102 -1.2300
  442MOL0     C59553   2.894   7.007  11.577  0.4847  0.3781 -0.1713
  442MOL0     C59554   2.975   7.101  11.522 -0.6292 -0.1831 -0.4870
  442MOL0     C59555   2.997   7.107  11.362  0.0256 -0.6685 -0.6614
  442MOL0     C59556   2.906   7.217  11.307 -0.0553 -0.0013  0.9735
  442MOL0     C59557   2.916   7.221  11.148  1.3667 -1.1937 -0.7260
  442MOL0     C59558   2.821   7.113  11.084 -0.6223 -0.6250 -0.4203
  442MOL0     O59559   2.794   7.141  10.945  0.1631 -0.8743  0.6831
  442MOL0     C59560   2.879   7.123  10.844  0.4667  0.4708  0.9235
  442MOL0     C59561   2.872   7.204  10.729 -1.3440 -1.2964  0.4663
  442MOL0     C59562   2.948   7.187  10.617  0.0981  1.4359  0.8916
  442MOL0     C59563   2.934   7.290  10.500  0.2545  0.4149 -0.7824
  442MOL0     C59564   3.050   7.094  10.621 -0.5616  0.2552  0.4711
  442MOL0     C59565   3.156   7.072  10.516 -0.1910 -0.7722 -0.4923
  442MOL0     O59566   3.276   7.047  10.574  0.7724 -0.1876  0.2582
  442MOL0     C59567   3.397   7.035  10.503  0.3906  0.7930 -1.0764
  442MOL0     C59568   3.428   7.089  10.384 -0.1229  0.6061  0.2231
  442MOL0     C59569   3.549   7.061  10.323  0.5613  0.2599  0.1313
  442MOL0     C59570   3.651   6.993  10.393  0.6662 -0.4161  0.5184
  442MOL0     O59571   3.766   6.942  10.339  0.4813  0.4068  0.5933
  442MOL0     C59572   3.812   6.995  10.216  0.4102  0.3582 -0.1365
  442MOL0     C59573   3.965   6.999  10.224 -0.6032  0.4199 -0.3962
  442MOL0     C59574   4.023   7.067  10.103  0.5763 -0.1540  0.0630
  442MOL0     C59575   4.178   7.062  10.087 -0.8937  0.4864  0.4963
  442MOL0     C59576   4.236   6.929  10.032 -1.4623  0.1736  0.0793
  442MOL0     C59577   4.387   6.951   9.987  0.1936 -0.2600 -0.6099
  442MOL0     C59578   4.471   6.925  10.109 -0.7056  0.9747  0.7183
  442MOL0     C59579   4.614   6.951  10.078  0.0283  0.0013 -0.0692
  442MOL0    Cl59580   4.639   7.115  10.027  0.2828  0.7030 -0.6025
  442MOL0     C59581   3.620   6.950  10.518 -0.4963  0.6983 -0.0627
  442MOL0     C59582   3.496   6.964  10.575  0.1096  0.7299  0.4266
  442MOL0     O59583   3.130   7.054  10.397  0.0958 -0.0884 -0.6389
  442MOL0     C59584   3.064   7.023  10.735  0.3567  0.1111  0.5825
  442MOL0     C59585   2.986   7.028  10.849 -0.3185 -0.4257  0.5060
  442MOL0     N59586   3.023   7.188  11.618  0.4831 -0.6648 -1.3101
  442MOL0     N59587   2.973   7.143  11.736 -0.0382  0.6047  0.1407
  442MOL0     C59588   2.963   6.323  11.594  0.7538  0.6734 -0.2656
  442MOL0     C59589   2.904   6.317  11.469  0.0334  0.1673  0.1987
  442MOL0     C59590   2.862   6.294  11.005 -0.2177 -0.6344  0.5806
  442MOL0     C59591   2.758   6.198  11.031  0.0845 -0.7134 -0.5202
  442MOL0     C59592   2.667   6.175  10.936  0.2416  0.0571 -0.4967
  442MOL0     C59593   2.667   6.232  10.803 -1.1036 -0.0375  0.5524
  442MOL0     O59594   2.581   6.200  10.707  0.1434 -0.2783 -0.5771
  442MOL0     C59595   2.493   6.087  10.725  0.2733  0.4596  0.8246
  442MOL0     C59596   2.399   6.069  10.610  0.9546  0.7358  0.2073
  442MOL0     C59597   2.303   5.955  10.629 -0.4055 -0.0463  0.5325
  442MOL0     C59598   2.177   5.956  10.545 -0.6367 -0.6148  0.4714
  442MOL0     C59599   2.206   5.923  10.405  0.4951 -0.4997  0.2497
  442MOL0     C59600   2.217   5.925  10.285 -0.5536 -1.4560 -0.8996
  442MOL0     C59601   2.769   6.330  10.784  0.3044 -0.0335  0.2583
  442MOL0     C59602   2.857   6.366  10.883 -0.1699  0.8741  0.4140
  442MOL0     H59603   3.186   6.341  11.281  0.8337 -2.1983  0.4727
  442MOL0     H59604   3.284   6.351  11.508 -0.6748  1.5833  1.8501
  442MOL0     H59605   3.024   6.318  11.875  2.7450 -5.8221 -0.6496
  442MOL0     H59606   3.195   6.323  11.922  0.0488 -0.1953 -0.6950
  442MOL0     H59607   3.220   6.546  11.882 -0.4283  0.5298 -2.5341
  442MOL0     H59608   3.050   6.572  11.828 -2.0154 -0.7139  0.3066
  442MOL0     H59609   2.997   6.495  12.082 -1.0035  0.3928 -0.7890
  442MOL0     H59610   3.171   6.504  12.107 -0.1677 -4.6409 -2.9197
  442MOL0     H59611   3.070   6.707  12.182  2.9556 -0.4910  0.6995
  442MOL0     H59612   3.143   6.741  12.022 -1.8415 -1.3023 -1.9014
  442MOL0     H59613   2.876   6.642  11.983 -1.9690  1.8284 -1.3152
  442MOL0     H59614   2.877   6.771  12.105  0.6518  2.0547 -0.6529
  442MOL0     H59615   2.993   6.920  11.969 -1.0016 -1.5184  0.2376
  442MOL0     H59616   3.012   6.809  11.835  1.6855  0.6587  0.9641
  442MOL0     H59617   2.771   6.793  11.787 -0.7354  1.4235 -0.6619
  442MOL0     H59618   2.723   6.853  11.943  0.3185  2.9033  0.6850
  442MOL0     H59619   2.783   7.084  11.892 -2.7881  1.4133 -0.7280
  442MOL0     H59620   2.683   7.030  11.763 -0.3649 -0.7836  2.3615
  442MOL0     H59621   2.841   6.929  11.524  2.2538 -2.3244  1.7702
  442MOL0     H59622   3.099   7.138  11.340 -0.4927  3.1743  1.5072
  442MOL0     H59623   2.985   7.009  11.314 -3.3870  0.4794 -2.5017
  442MOL0     H59624   2.940   7.311  11.352  0.7308 -0.2289  0.8657
  442MOL0     H59625   2.800   7.204  11.331 -0.4792 -1.8451 -1.5037
  442MOL0     H59626   3.011   7.206  11.097  3.1555  0.8443  1.7561
  442MOL0     H59627   2.875   7.314  11.106  1.1822 -1.6151 -1.5016
  442MOL0     H59628   2.731   7.094  11.144  1.7477 -0.2487  3.6512
  442MOL0     H59629   2.883   7.024  11.090  0.6505  0.3357  1.6841
  442MOL0     H59630   2.794   7.278  10.716 -0.6344 -0.7121 -0.6480
  442MOL0     H59631   2.989   7.382  10.515 -2.7013  2.2463 -0.3366
  442MOL0     H59632   2.952   7.237  10.406 -0.0205  0.4266 -0.8433
  442MOL0     H59633   2.829   7.319  10.508 -0.0894 -0.2728 -2.3158
  442MOL0     H59634   3.359   7.141  10.318  0.2738  0.4253 -0.3419
  442MOL0     H59635   3.562   7.095  10.220  0.9863 -1.6498 -0.4888
  442MOL0     H59636   3.779   6.931  10.134  1.0542  1.0915 -0.9793
  442MOL0     H59637   3.785   7.100  10.200  2.0229  0.4859 -2.4221
  442MOL0     H59638   4.000   7.052  10.313 -0.6246 -0.6255  0.2595
  442MOL0     H59639   4.010   6.899  10.232  0.1271  0.7009 -0.9403
  442MOL0     H59640   3.991   7.171  10.115 -0.5500 -0.6736  2.0326
  442MOL0     H59641   3.971   7.026  10.016 -0.0154  4.2947 -1.9282
  442MOL0     H59642   4.211   7.143  10.021  1.8093  0.3492  1.5795
  442MOL0     H59643   4.226   7.062  10.185  0.6569 -3.2883 -0.0667
  442MOL0     H59644   4.169   6.898   9.951 -0.7840 -1.1962  0.0192
  442MOL0     H59645   4.240   6.850  10.108  2.3858 -1.7271 -1.7840
  442MOL0     H59646   4.404   6.867   9.920 -1.8707 -2.6181  1.5904
  442MOL0     H59647   4.405   7.047   9.938  2.2726 -0.1300  0.3263
  442MOL0     H59648   4.463   6.819  10.134  0.6605  0.7882  0.4394
  442MOL0     H59649   4.432   6.992  10.185 -1.7884  2.6168 -1.1769
  442MOL0     H59650   4.644   6.879  10.001  2.4082 -1.7596  2.3363
  442MOL0     H59651   4.672   6.934  10.169 -0.8268  0.0922  0.4963
  442MOL0     H59652   3.704   6.915  10.578 -1.6745  3.2878  3.4375
  442MOL0     H59653   3.481   6.928  10.676 -1.1715 -2.2730 -0.7213
  442MOL0     H59654   3.136   6.942  10.739 -0.8086 -1.0674 -0.8596
  442MOL0     H59655   3.001   6.964  10.936  0.2088 -0.1978  0.5868
  442MOL0     H59656   2.898   6.330  11.680  1.3882  1.2424  0.1848
  442MOL0     H59657   2.798   6.294  11.471  0.4389 -1.9066  0.9735
  442MOL0     H59658   2.753   6.146  11.127 -2.3655 -1.9440 -1.2251
  442MOL0     H59659   2.584   6.118  10.976  3.0902 -0.7674  5.2721
  442MOL0     H59660   2.552   5.996  10.738 -1.8491 -1.3046 -0.9962
  442MOL0     H59661   2.429   6.099  10.813 -0.9118 -2.3316  0.4710
  442MOL0     H59662   2.447   6.044  10.515 -1.6686 -2.5019 -0.4450
  442MOL0     H59663   2.354   6.165  10.585 -0.0827 -0.1620 -1.4989
  442MOL0     H59664   2.265   5.960  10.732 -1.8914 -3.3645  0.2793
  442MOL0     H59665   2.342   5.853  10.617 -0.3643 -0.1927  1.8069
  442MOL0     H59666   2.141   6.058  10.557  0.8311 -0.2271  1.9310
  442MOL0     H59667   2.106   5.879  10.576  1.3775 -2.5202  0.6278
  442MOL0     H59668   2.235   5.937  10.180  2.1579  1.4501 -0.2462
  442MOL0     H59669   2.783   6.386  10.692  1.7744 -2.7229 -1.3017
  442MOL0     H59670   2.936   6.439  10.869  1.2286 -0.5367  0.7199
  443MOL0     O59671   7.615   4.053   6.406 -0.2192  0.2481 -0.3746
  443MOL0     C59672   7.727   4.001   6.380 -0.3387  0.4668 -0.0017
  443MOL0     O59673   7.845   4.062   6.387  0.4297 -0.4407  0.1414
  443MOL0     C59674   7.856   4.179   6.445 -0.4504 -0.6467  0.8178
  443MOL0     C59675   7.843   4.302   6.377  0.3897 -0.8314 -0.4148
  443MOL0     C59676   7.857   4.421   6.447  0.2851 -0.3822 -0.4362
  443MOL0     C59677   7.881   4.428   6.584  0.5282  1.0143 -0.7706
  443MOL0     O59678   7.899   4.539   6.664 -0.2601  0.6906 -0.2141
  443MOL0     C59679   7.912   4.667   6.599  0.8246  0.4704 -0.1720
  443MOL0     C59680   7.962   4.751   6.712 -0.3996  0.1756 -0.0624
  443MOL0     C59681   7.938   4.904   6.697 -0.6379 -1.4346  0.4267
  443MOL0     C59682   8.062   4.962   6.622  0.0661 -0.1270  0.0305
  443MOL0     C59683   8.026   5.102   6.579  0.6444  0.5798  0.4195
  443MOL0     C59684   8.130   5.153   6.487  1.3394  0.9939  0.2667
  443MOL0     C59685   8.125   5.295   6.442 -0.4557  0.6816  0.0684
  443MOL0     C59686   8.021   5.328   6.343  0.9316  0.1047  0.3949
  443MOL0     N59687   7.996   5.469   6.284  0.1562  0.5576  0.1903
  443MOL0     C59688   7.942   5.560   6.357  0.2722 -0.3119  0.2624
  443MOL0     C59689   7.980   5.675   6.298 -0.2497 -0.2022  1.0204
  443MOL0     C59690   7.954   5.816   6.353 -1.0841 -0.6497 -0.0970
  443MOL0     C59691   7.802   5.840   6.382 -0.8612 -0.2652  0.0996
  443MOL0     C59692   7.726   5.806   6.249 -0.6016 -0.1953  1.0458
  443MOL0     C59693   7.588   5.875   6.264 -0.6972  0.2594  0.0610
  443MOL0     O59694   7.592   6.012   6.226 -0.4610 -1.2458  0.2534
  443MOL0     C59695   7.616   6.047   6.092  0.0313  0.5985 -0.2929
  443MOL0     C59696   7.685   6.167   6.079  1.1473 -1.1682 -0.0891
  443MOL0     C59697   7.739   6.226   5.967  0.5146 -0.6440  0.4683
  443MOL0     C59698   7.795   6.369   5.985  0.1595 -0.2413  0.3047
  443MOL0     C59699   7.702   6.160   5.845  0.8681 -0.0019  0.3513
  443MOL0     C59700   7.723   6.220   5.709 -0.1077  0.0156  0.3864
  443MOL0     O59701   7.682   6.145   5.602 -0.0381  0.4349  0.7538
  443MOL0     C59702   7.726   6.185   5.484 -0.1244 -0.1141 -0.2856
  443MOL0     C59703   7.824   6.107   5.424 -0.3797  0.0702  1.0286
  443MOL0     C59704   7.880   6.150   5.305  0.4975  0.8209 -0.1078
  443MOL0     C59705   7.827   6.258   5.237  0.6969 -0.1425  0.3028
  443MOL0     O59706   7.884   6.281   5.122 -0.1978  0.8479  1.3748
  443MOL0     C59707   7.839   6.399   5.050  0.4339 -0.3829  0.1110
  443MOL0     C59708   7.922   6.395   4.921  0.0546 -0.0597 -0.1270
  443MOL0     C59709   7.890   6.509   4.821  0.6405  0.4965  0.1850
  443MOL0     C59710   7.955   6.482   4.687  0.0463 -0.2540 -0.5165
  443MOL0     C59711   7.920   6.582   4.580  0.5649 -0.0677 -0.6433
  443MOL0     C59712   7.994   6.558   4.446  0.3467 -0.4413 -0.4862
  443MOL0     C59713   7.980   6.682   4.350 -0.3596 -0.3208  0.2334
  443MOL0     C59714   7.842   6.669   4.277 -0.6393  0.4374  0.1381
  443MOL0    Cl59715   7.851   6.532   4.167  0.4695  0.1945  0.0736
  443MOL0     C59716   7.717   6.323   5.293  0.0146 -0.6207 -0.5612
  443MOL0     C59717   7.671   6.298   5.423 -0.2547  0.3211  0.2111
  443MOL0     O59718   7.785   6.332   5.698  0.0313 -0.5263 -0.2559
  443MOL0     C59719   7.620   6.038   5.857 -0.4446  0.0801  0.1516
  443MOL0     C59720   7.589   5.976   5.981  0.3720 -0.3207  0.6194
  443MOL0     N59721   8.064   5.648   6.188 -0.4280  0.4239  0.1019
  443MOL0     N59722   8.056   5.526   6.178  0.3153  0.0120 -0.4161
  443MOL0     C59723   7.880   4.301   6.654  0.1128 -0.0453  0.7148
  443MOL0     C59724   7.867   4.184   6.582 -0.0985  0.5229 -0.1978
  443MOL0     C59725   7.736   3.850   6.354 -0.6558 -0.1788  0.1420
  443MOL0     C59726   7.860   3.781   6.367 -0.0028 -0.6601 -0.6212
  443MOL0     C59727   7.879   3.647   6.333  0.9301  0.0012 -0.4837
  443MOL0     C59728   7.770   3.569   6.293  0.2817  0.4262 -1.2994
  443MOL0     O59729   7.792   3.434   6.267  0.7414 -0.1425  0.0893
  443MOL0     C59730   7.678   3.341   6.270 -0.0701  0.4585  0.0784
  443MOL0     C59731   7.728   3.203   6.228  0.0382 -0.0653  0.1137
  443MOL0     C59732   7.797   3.195   6.088  0.0524 -0.4603  0.0150
  443MOL0     C59733   7.858   3.046   6.061 -0.6277 -0.1672 -1.0105
  443MOL0     C59734   7.752   2.935   6.054 -0.3166 -0.4397  0.6450
  443MOL0     C59735   7.663   2.855   6.054 -1.2651 -0.1365  0.3290
  443MOL0     C59736   7.643   3.630   6.290  0.0490  0.1863  0.5028
  443MOL0     C59737   7.628   3.767   6.323 -0.3451  0.4091  0.1245
  443MOL0     H59738   7.846   4.306   6.268  1.0273 -0.2049 -0.3852
  443MOL0     H59739   7.851   4.514   6.392  0.1083  1.6212  2.7202
  443MOL0     H59740   7.985   4.671   6.518  1.2423 -0.6197  0.1451
  443MOL0     H59741   7.815   4.710   6.572  1.2743  2.9461  1.6892
  443MOL0     H59742   7.912   4.730   6.807 -0.6920  2.2413  0.2814
  443MOL0     H59743   8.069   4.730   6.725 -0.3093 -0.4850 -1.6955
  443MOL0     H59744   7.846   4.939   6.648  1.7110  2.7242 -1.5113
  443MOL0     H59745   7.938   4.948   6.797  2.4902 -0.9056  0.2847
  443MOL0     H59746   8.147   4.969   6.690 -0.4182  1.2091  0.5380
  443MOL0     H59747   8.098   4.894   6.544  2.1436 -0.0824  0.8777
  443MOL0     H59748   7.926   5.099   6.535 -0.3155  4.9864  1.7837
  443MOL0     H59749   8.014   5.166   6.667  1.5441  2.7411 -0.9440
  443MOL0     H59750   8.227   5.136   6.535  1.3686  1.8405  0.5348
  443MOL0     H59751   8.134   5.095   6.395 -1.1426 -0.6402  1.1153
  443MOL0     H59752   8.114   5.351   6.536  1.6372 -2.6164  2.4942
  443MOL0     H59753   8.226   5.320   6.409  0.6724  0.7193  3.1619
  443MOL0     H59754   7.923   5.301   6.382  0.6493 -3.9127 -2.4715
  443MOL0     H59755   8.033   5.264   6.255  1.1162  0.4168  0.1905
  443MOL0     H59756   7.892   5.552   6.453  1.0998  0.2863  0.7672
  443MOL0     H59757   8.013   5.823   6.445  4.5784 -1.4337 -3.2305
  443MOL0     H59758   7.988   5.895   6.286 -5.5864  0.4394 -1.4325
  443MOL0     H59759   7.797   5.946   6.410 -1.9313 -0.4347  0.6182
  443MOL0     H59760   7.772   5.781   6.470 -1.3329 -1.1886 -0.6593
  443MOL0     H59761   7.709   5.700   6.229  1.4551 -0.5118  0.7717
  443MOL0     H59762   7.779   5.857   6.169  1.2262  0.1929  2.4318
  443MOL0     H59763   7.562   5.872   6.370 -0.6669 -0.1931  0.0575
  443MOL0     H59764   7.507   5.826   6.209  2.2828 -1.5391 -3.2141
  443MOL0     H59765   7.693   6.223   6.172  0.7823 -1.1025 -0.0970
  443MOL0     H59766   7.720   6.438   5.948  2.0305  2.2558  0.8710
  443MOL0     H59767   7.805   6.384   6.093 -0.9641 -2.8217  0.8298
  443MOL0     H59768   7.890   6.359   5.931 -0.0094 -1.2923  0.1755
  443MOL0     H59769   7.872   6.019   5.467  1.3625 -0.0337 -0.9880
  443MOL0     H59770   7.951   6.090   5.249 -0.4551  0.3472 -0.8424
  443MOL0     H59771   7.731   6.384   5.040  0.4737 -5.5922  3.5758
  443MOL0     H59772   7.866   6.497   5.092  1.4162  0.6417 -2.6985
  443MOL0     H59773   8.027   6.381   4.949 -0.1459 -3.9239 -0.8811
  443MOL0     H59774   7.894   6.304   4.868  2.5746 -0.8535 -0.2209
  443MOL0     H59775   7.925   6.607   4.856 -1.6888  2.0004 -1.3561
  443MOL0     H59776   7.782   6.520   4.808  0.8346  1.5434 -0.7353
  443MOL0     H59777   8.063   6.489   4.701 -0.3890  2.0888  2.7640
  443MOL0     H59778   7.942   6.379   4.653  0.2291 -0.7721  0.8848
  443MOL0     H59779   7.945   6.679   4.622 -1.5035 -0.4379  1.7048
  443MOL0     H59780   7.811   6.570   4.574  0.1412  2.4608  1.0377
  443MOL0     H59781   8.099   6.549   4.476  0.1260  0.3240  0.5682
  443MOL0     H59782   7.976   6.465   4.391  3.0164 -0.2584 -1.8536
  443MOL0     H59783   8.061   6.688   4.277  0.1642  4.5196  0.8738
  443MOL0     H59784   7.986   6.777   4.405  1.6516 -0.0964 -0.3024
  443MOL0     H59785   7.830   6.762   4.221 -0.9718 -1.0617 -2.4566
  443MOL0     H59786   7.758   6.656   4.346 -0.6383 -0.4955 -0.0097
  443MOL0     H59787   7.664   6.403   5.243  0.0343 -0.0861  0.2501
  443MOL0     H59788   7.587   6.350   5.469  0.7805  2.1889  0.0687
  443MOL0     H59789   7.596   5.989   5.763 -2.4316  2.6688 -0.8257
  443MOL0     H59790   7.529   5.885   5.983  2.8689 -2.0782  0.9463
  443MOL0     H59791   7.884   4.304   6.762  0.0107 -0.1910  0.7235
  443MOL0     H59792   7.865   4.095   6.644  0.8392 -0.8055 -1.9425
  443MOL0     H59793   7.942   3.851   6.382  0.2226 -0.9737 -0.3932
  443MOL0     H59794   7.979   3.606   6.333  1.4360  0.7710 -4.8406
  443MOL0     H59795   7.632   3.313   6.365  1.4446  0.5100  0.8629
  443MOL0     H59796   7.607   3.374   6.194  0.1022  0.1345 -0.2238
  443MOL0     H59797   7.647   3.130   6.219  0.9444 -0.8554 -3.5855
  443MOL0     H59798   7.799   3.167   6.302 -1.5193 -0.0413  1.6700
  443MOL0     H59799   7.886   3.259   6.082 -1.1040  1.0494 -1.8661
  443MOL0     H59800   7.739   3.240   6.007  1.5440  0.0486 -0.8109
  443MOL0     H59801   7.918   3.017   6.148 -0.7616  0.0178 -0.8525
  443MOL0     H59802   7.922   3.040   5.973  3.6864 -3.8284  1.8970
  443MOL0     H59803   7.586   2.780   6.052  0.0438 -1.5400 -2.3985
  443MOL0     H59804   7.559   3.567   6.263  1.9741 -3.2051  1.8150
  443MOL0     H59805   7.529   3.808   6.306 -1.3830 -2.1447 -0.4802
  444MOL0     O59806   9.441  10.965   9.839  0.2275  0.1002 -0.2697
  444MOL0     C59807   9.385  10.893   9.921  1.2641 -0.3918  0.0858
  444MOL0     O59808   9.243  10.894   9.943  0.2822 -0.6100 -0.6738
  444MOL0     C59809   9.162  10.974   9.860  0.7471 -0.3912 -0.7173
  444MOL0     C59810   9.048  11.016   9.938 -0.2951  0.2624 -0.2853
  444MOL0     C59811   8.951  11.091   9.882  0.0070 -0.8521  0.7607
  444MOL0     C59812   8.967  11.151   9.754 -0.1711 -0.2810 -0.1510
  444MOL0     O59813   8.866  11.224   9.695  0.4616  0.0679 -0.1167
  444MOL0     C59814   8.885  11.251   9.558 -0.1248  0.6225  0.5588
  444MOL0     C59815   8.770  11.309   9.490 -0.1896  0.0836 -0.7313
  444MOL0     C59816   8.752  11.455   9.540  0.0693  0.5638  0.0293
  444MOL0     C59817   8.621  11.511   9.479  0.1019  0.5207 -0.2774
  444MOL0     C59818   8.626  11.529   9.323 -0.0943 -0.3405  0.2950
  444MOL0     C59819   8.497  11.583   9.259 -0.7076  0.5804  0.2318
  444MOL0     C59820   8.391  11.477   9.243 -0.4673  0.0021  0.8670
  444MOL0     C59821   8.282  11.517   9.141 -0.3858  0.6974  0.5176
  444MOL0     N59822   8.215  11.641   9.156  0.1925 -0.3302  0.2962
  444MOL0     C59823   8.266  11.759   9.099  0.1774 -0.7259  0.4830
  444MOL0     C59824   8.192  11.858   9.146 -0.0788  0.5458 -0.1770
  444MOL0     C59825   8.213  12.000   9.111  0.2920 -0.5711 -0.8301
  444MOL0     C59826   8.087  12.066   9.058 -0.9534  0.1274  0.9676
  444MOL0     C59827   8.078  12.217   9.042 -0.7076  0.2104  0.2431
  444MOL0     C59828   8.054  12.276   9.185 -0.5004 -0.4334 -0.2523
  444MOL0     O59829   8.073  12.423   9.184 -0.5210  0.0182  0.2488
  444MOL0     C59830   8.206  12.471   9.179 -0.5659 -0.1598  0.4764
  444MOL0     C59831   8.329  12.395   9.191 -0.2482 -0.0802  1.1038
  444MOL0     C59832   8.457  12.458   9.222 -0.4413  0.0576  0.6929
  444MOL0     C59833   8.579  12.373   9.209  0.6302 -0.6657  0.5759
  444MOL0     C59834   8.453  12.595   9.267 -0.9020 -0.6916 -1.0797
  444MOL0     C59835   8.575  12.671   9.298 -0.2545 -0.4822  0.8813
  444MOL0     O59836   8.695  12.645   9.233  0.2523  0.7201  0.9087
  444MOL0     C59837   8.778  12.750   9.211 -1.1629 -0.4621  1.2995
  444MOL0     C59838   8.907  12.713   9.176 -0.3938  0.1232  0.1195
  444MOL0     C59839   9.014  12.809   9.170 -0.2855 -0.9374  0.3794
  444MOL0     C59840   8.989  12.940   9.210 -0.2702  0.8005 -0.7872
  444MOL0     O59841   9.090  13.027   9.236 -0.4832  0.2915  0.7746
  444MOL0     C59842   9.210  12.985   9.300  0.0440  0.0155 -1.2753
  444MOL0     C59843   9.326  13.084   9.310 -0.1007 -0.1655  0.4153
  444MOL0     C59844   9.277  13.213   9.380 -0.3671  0.3784  0.2439
  444MOL0     C59845   9.239  13.200   9.527 -0.5328  0.4126 -0.0414
  444MOL0     C59846   9.088  13.206   9.568 -0.1375  0.2760  0.9313
  444MOL0     C59847   9.059  13.123   9.691  0.2719  0.1548  0.7233
  444MOL0     C59848   8.913  13.130   9.719 -0.4676  0.1060  0.5751
  444MOL0     C59849   8.877  13.051   9.836  0.1651  0.1690 -0.9219
  444MOL0    Cl59850   8.914  12.881   9.840 -0.4313  0.5793  0.2594
  444MOL0     C59851   8.859  12.987   9.225  0.3158 -0.2616  0.2051
  444MOL0     C59852   8.756  12.889   9.225 -0.9324 -0.7300 -0.1795
  444MOL0     O59853   8.564  12.755   9.390  0.4742  0.5073 -0.0041
  444MOL0     C59854   8.328  12.659   9.262  0.1290 -1.1110  0.3514
  444MOL0     C59855   8.207  12.607   9.219  0.6228 -0.2717  1.0338
  444MOL0     N59856   8.089  11.793   9.225  0.3628  1.1482  0.4624
  444MOL0     N59857   8.119  11.669   9.244 -0.1013  0.5756 -1.6039
  444MOL0     C59858   9.088  11.120   9.683  0.5178 -0.0781 -0.5653
  444MOL0     C59859   9.178  11.034   9.733  0.3231  0.7815  0.2270
  444MOL0     C59860   9.470  10.796  10.003  0.8864  0.1471  0.6058
  444MOL0     C59861   9.412  10.695  10.084 -0.4495  0.0985  0.5351
  444MOL0     C59862   9.487  10.621  10.179 -0.1225 -0.3754  0.1919
  444MOL0     C59863   9.631  10.637  10.184  0.1285 -0.0319 -1.0516
  444MOL0     O59864   9.694  10.549  10.274 -0.3264 -0.6673  0.3021
  444MOL0     C59865   9.841  10.552  10.270 -0.1236 -0.5134 -0.1206
  444MOL0     C59866   9.915  10.495  10.394  0.1260  0.0231 -0.3582
  444MOL0     C59867   9.874  10.570  10.520 -1.0208  0.5559  0.7483
  444MOL0     C59868   9.918  10.491  10.639 -0.7065  0.3663 -0.2592
  444MOL0     C59869   9.828  10.367  10.656 -0.1084 -0.1740  1.0268
  444MOL0     C59870   9.766  10.267  10.661  0.5148 -0.4064 -0.8519
  444MOL0     C59871   9.680  10.737  10.104 -1.4760  0.3486  0.1326
  444MOL0     C59872   9.604  10.821  10.017 -0.6009  0.5034  0.1822
  444MOL0     H59873   9.032  10.977  10.038  1.5890  2.8462  1.1310
  444MOL0     H59874   8.856  11.109   9.932  0.5703 -1.3555  2.0682
  444MOL0     H59875   8.963  11.325   9.541 -2.0816  2.4909 -0.9119
  444MOL0     H59876   8.907  11.154   9.514 -0.3713 -0.3882  2.5398
  444MOL0     H59877   8.784  11.304   9.382 -1.9352  0.8196 -1.0219
  444MOL0     H59878   8.683  11.251   9.522  1.1907 -0.7057  1.8587
  444MOL0     H59879   8.721  11.453   9.645 -4.8310  3.1597 -1.0840
  444MOL0     H59880   8.837  11.519   9.512  1.1366 -1.4014 -1.5487
  444MOL0     H59881   8.540  11.441   9.498 -0.0572  0.1286 -2.1928
  444MOL0     H59882   8.603  11.599   9.541 -0.0387 -0.9928  1.9698
  444MOL0     H59883   8.711  11.597   9.311 -0.0206 -0.0878  1.9825
  444MOL0     H59884   8.665  11.443   9.268  0.4406  0.6034 -0.8369
  444MOL0     H59885   8.448  11.669   9.306 -1.6701 -0.4261  1.1444
  444MOL0     H59886   8.515  11.603   9.153  2.4508 -1.1753  0.3152
  444MOL0     H59887   8.436  11.380   9.221  1.1752  0.3581  2.4278
  444MOL0     H59888   8.345  11.459   9.341  3.2961 -0.4728  2.7365
  444MOL0     H59889   8.214  11.433   9.156 -1.3363  1.7177  2.3773
  444MOL0     H59890   8.328  11.508   9.042  0.8647  1.9117  0.9518
  444MOL0     H59891   8.359  11.774   9.046  2.0991  0.1993  3.8446
  444MOL0     H59892   8.226  12.062   9.200 -1.7042 -0.8911 -0.2720
  444MOL0     H59893   8.305  12.011   9.052  0.6309  0.1000 -0.1946
  444MOL0     H59894   7.999  12.036   9.115 -2.2086  1.7172 -0.0715
  444MOL0     H59895   8.086  12.011   8.963  0.3035 -2.4044  2.2972
  444MOL0     H59896   8.007  12.241   8.963 -0.9361 -1.8338 -0.2257
  444MOL0     H59897   8.169  12.250   8.990 -1.7618  2.6910 -0.1546
  444MOL0     H59898   8.118  12.236   9.264 -3.2737  0.2394  2.5230
  444MOL0     H59899   7.950  12.263   9.217 -1.4075  1.1272 -2.3795
  444MOL0     H59900   8.331  12.295   9.149  1.3709  0.9808 -1.6380
  444MOL0     H59901   8.543  12.276   9.176  0.4923  0.6019 -3.5902
  444MOL0     H59902   8.639  12.424   9.133  0.8220 -0.8065  0.6341
  444MOL0     H59903   8.628  12.375   9.307  1.0172  4.0539  0.5385
  444MOL0     H59904   8.932  12.608   9.162  0.7423  0.4959 -0.7300
  444MOL0     H59905   9.114  12.795   9.130 -0.2762  5.3787 -3.0516
  444MOL0     H59906   9.186  12.937   9.396 -0.0219  2.4690 -0.0033
  444MOL0     H59907   9.255  12.904   9.242  2.4781 -0.4091  0.9926
  444MOL0     H59908   9.413  13.049   9.367  0.0137 -1.7053 -0.6203
  444MOL0     H59909   9.350  13.119   9.210  0.4342 -1.4881  0.0601
  444MOL0     H59910   9.190  13.245   9.321 -1.6963  0.4119  2.1151
  444MOL0     H59911   9.354  13.291   9.373  0.9591 -1.0076 -1.4769
  444MOL0     H59912   9.285  13.110   9.568  2.2395  0.9191 -1.7790
  444MOL0     H59913   9.287  13.281   9.582 -0.1276  0.2494 -0.1535
  444MOL0     H59914   9.042  13.169   9.476  0.3918  1.5386  0.1489
  444MOL0     H59915   9.045  13.304   9.592 -2.7764 -0.9214  1.4995
  444MOL0     H59916   9.084  13.018   9.674  0.9325  0.6733 -1.8035
  444MOL0     H59917   9.121  13.163   9.772  0.5919  0.0276  0.5407
  444MOL0     H59918   8.858  13.108   9.628  0.2043 -0.6714  0.3501
  444MOL0     H59919   8.880  13.230   9.751 -0.7427 -0.0433  0.7652
  444MOL0     H59920   8.768  13.048   9.840  0.2030 -1.3393 -0.5733
  444MOL0     H59921   8.916  13.092   9.930 -0.5692 -3.1174  0.9813
  444MOL0     H59922   8.844  13.094   9.228  0.2777 -0.2807  0.9082
  444MOL0     H59923   8.661  12.931   9.253 -0.3901 -0.6326  1.6196
  444MOL0     H59924   8.329  12.760   9.302 -4.5324  0.3099 -2.4261
  444MOL0     H59925   8.116  12.666   9.224  1.3377  0.9174  0.3766
  444MOL0     H59926   9.112  11.182   9.598 -0.8353  1.4005  0.0805
  444MOL0     H59927   9.275  11.014   9.689  0.3466  0.3464  0.4642
  444MOL0     H59928   9.314  10.653  10.065 -0.3743 -0.1663  0.7476
  444MOL0     H59929   9.443  10.542  10.238 -2.4368  2.0533  1.9092
  444MOL0     H59930   9.873  10.494  10.183 -0.8313  0.6490 -1.1779
  444MOL0     H59931   9.866  10.659  10.266 -1.3357  0.0550  3.5841
  444MOL0     H59932  10.019  10.518  10.367 -1.2579  2.7688 -4.3089
  444MOL0     H59933   9.890  10.389  10.405 -0.9690  0.4941  2.5407
  444MOL0     H59934   9.767  10.593  10.514 -1.0579  0.4401  0.9520
  444MOL0     H59935   9.930  10.664  10.525  3.9706 -1.9178 -1.7986
  444MOL0     H59936   9.921  10.545  10.734  0.8042 -1.6582  0.9099
  444MOL0     H59937  10.018  10.452  10.619 -1.9823 -2.2854 -1.9814
  444MOL0     H59938   9.702  10.181  10.661  0.9659 -0.8729 -3.8791
  444MOL0     H59939   9.787  10.752  10.098 -1.1190 -1.5591  0.9473
  444MOL0     H59940   9.650  10.905   9.965  2.9143  1.2545  3.9515
  445MOL0     O59941   6.699   2.676   6.934  0.3004 -0.3471 -0.2025
  445MOL0     C59942   6.771   2.640   7.021  0.6465  0.1822 -0.1983
  445MOL0     O59943   6.721   2.625   7.156 -0.2574  0.2844  0.2265
  445MOL0     C59944   6.595   2.660   7.184  0.3286  0.0667  0.1583
  445MOL0     C59945   6.550   2.785   7.169  0.1955 -0.6954 -0.9653
  445MOL0     C59946   6.417   2.823   7.197  0.2971 -0.4120 -0.2486
  445MOL0     C59947   6.329   2.736   7.256  0.3699 -0.1908 -0.0330
  445MOL0     O59948   6.209   2.779   7.303  0.5185  0.7223 -0.0940
  445MOL0     C59949   6.102   2.688   7.337 -0.8282 -0.0633  0.2429
  445MOL0     C59950   5.986   2.740   7.244 -0.6194  0.0557  0.0034
  445MOL0     C59951   5.893   2.625   7.208  0.3795  0.0127 -0.2769
  445MOL0     C59952   5.951   2.526   7.108 -0.1360  0.3461 -0.0606
  445MOL0     C59953   5.865   2.405   7.105 -0.1876  0.4669 -0.6583
  445MOL0     C59954   5.919   2.299   7.009 -0.7650  0.7873 -1.1504
  445MOL0     C59955   6.040   2.219   7.064  0.2405  0.0753  0.8166
  445MOL0     C59956   6.120   2.136   6.974 -1.1470  0.1087 -0.6678
  445MOL0     N59957   6.180   2.232   6.880 -0.8182 -0.2305 -0.3218
  445MOL0     C59958   6.279   2.319   6.912 -0.7860  0.0182 -0.0283
  445MOL0     C59959   6.315   2.385   6.800  0.8578  0.7986 -0.4495
  445MOL0     C59960   6.419   2.492   6.783  1.1482 -0.1881 -0.2354
  445MOL0     C59961   6.373   2.628   6.841 -1.1266  0.0657 -1.3889
  445MOL0     C59962   6.252   2.686   6.772  0.2711 -0.6370  0.0703
  445MOL0     C59963   6.169   2.779   6.867 -0.6443  0.1338  0.3233
  445MOL0     O59964   6.237   2.910   6.890  0.4225  0.4699 -0.2407
  445MOL0     C59965   6.167   3.025   6.868  0.4614  0.4047  0.1075
  445MOL0     C59966   6.191   3.140   6.953 -0.4849 -0.3476 -0.4049
  445MOL0     C59967   6.124   3.259   6.936  0.5164 -0.0101 -0.0151
  445MOL0     C59968   6.160   3.377   7.025 -0.8756  0.0181 -0.1623
  445MOL0     C59969   6.021   3.268   6.837  0.0811 -0.3168 -0.5576
  445MOL0     C59970   5.937   3.387   6.829 -0.7014 -0.6629  0.3523
  445MOL0     O59971   5.995   3.505   6.799 -0.0620  0.4849  0.1644
  445MOL0     C59972   5.913   3.589   6.724  0.1809 -0.2120  1.4177
  445MOL0     C59973   5.827   3.683   6.773  0.6528 -0.4040  0.5876
  445MOL0     C59974   5.760   3.771   6.681  0.1470 -0.2541  0.2936
  445MOL0     C59975   5.770   3.747   6.535  0.3460 -0.0648 -0.8607
  445MOL0     O59976   5.713   3.832   6.442 -1.3936  0.1036 -0.3614
  445MOL0     C59977   5.761   3.965   6.448 -0.1038  0.0369  0.3639
  445MOL0     C59978   5.775   4.016   6.300 -0.5076  0.4814 -1.8789
  445MOL0     C59979   5.641   4.024   6.227 -0.1169  0.3721  0.0684
  445MOL0     C59980   5.670   4.057   6.080  0.0954  0.4860  0.0055
  445MOL0     C59981   5.565   4.147   6.024  0.1314  0.2137 -0.2540
  445MOL0     C59982   5.577   4.181   5.874  0.1666  0.5414 -0.4163
  445MOL0     C59983   5.722   4.182   5.805  0.7103 -1.0430 -0.7559
  445MOL0     C59984   5.712   4.236   5.661 -0.0042 -0.5495  1.1602
  445MOL0    Cl59985   5.717   4.108   5.532 -0.4990  0.1302 -0.3598
  445MOL0     C59986   5.860   3.654   6.492 -0.2733 -0.8795  0.0470
  445MOL0     C59987   5.920   3.572   6.583 -0.9733 -0.0658  1.2832
  445MOL0     O59988   5.819   3.364   6.824  0.5893 -0.2950  0.9710
  445MOL0     C59989   5.993   3.157   6.752 -0.7263 -0.4208  0.3388
  445MOL0     C59990   6.063   3.036   6.768  0.1187 -0.2618 -0.5975
  445MOL0     N59991   6.236   2.332   6.701 -0.4052 -0.7040  0.7082
  445MOL0     N59992   6.168   2.231   6.741 -0.4662 -0.2803  0.3896
  445MOL0     C59993   6.374   2.602   7.262  0.5123 -0.3163  0.0604
  445MOL0     C59994   6.512   2.565   7.224  0.3210  0.2048 -1.1343
  445MOL0     C59995   6.910   2.603   6.993  0.5563  0.0750  1.4608
  445MOL0     C59996   6.989   2.529   7.082 -0.9250 -0.6867 -0.2701
  445MOL0     C59997   7.112   2.487   7.049 -0.5187 -0.0492 -0.3888
  445MOL0     C59998   7.174   2.527   6.929  0.0099  0.4472  0.7059
  445MOL0     O59999   7.303   2.488   6.912 -1.0661  0.4784  0.0256
  445MOL0     C60000   7.353   2.475   6.783 -0.2527  0.2506 -0.6100
  445MOL0     C60001   7.304   2.336   6.758 -0.6625  0.5707  0.4434
  445MOL0     C60002   7.369   2.273   6.635 -0.0643  0.3987  0.1530
  445MOL0     C60003   7.277   2.190   6.545  0.4186 -0.1000  0.4534
  445MOL0     C60004   7.183   2.276   6.476 -0.6824  0.7473 -0.6553
  445MOL0     C60005   7.101   2.354   6.435  0.6307 -0.6454  0.4029
  445MOL0     C60006   7.094   2.586   6.830 -0.5914  0.9459 -0.3121
  445MOL0     C60007   6.967   2.633   6.863 -0.9306 -0.5740  0.3837
  445MOL0     H60008   6.624   2.861   7.147  0.4003 -0.8543 -0.8315
  445MOL0     H60009   6.389   2.928   7.193 -1.4105 -0.8609 -1.0573
  445MOL0     H60010   6.137   2.586   7.319 -0.1298 -0.0170  1.2805
  445MOL0     H60011   6.063   2.703   7.438  1.7698  2.1911  1.0226
  445MOL0     H60012   5.932   2.813   7.305 -0.6824 -1.7670  2.2484
  445MOL0     H60013   6.034   2.794   7.162  3.2002 -0.4957  1.6596
  445MOL0     H60014   5.880   2.577   7.305  0.0864  2.7817  1.1651
  445MOL0     H60015   5.794   2.652   7.169 -0.0832 -1.6177 -0.2991
  445MOL0     H60016   5.954   2.572   7.008 -1.2491 -2.1867 -1.3435
  445MOL0     H60017   6.057   2.508   7.127 -0.0193  1.0190 -0.0307
  445MOL0     H60018   5.866   2.369   7.208  2.3291  5.5174  1.4686
  445MOL0     H60019   5.760   2.431   7.088 -0.7049 -0.5465  0.7897
  445MOL0     H60020   5.844   2.223   6.988 -0.6678  1.6346 -5.5977
  445MOL0     H60021   5.954   2.340   6.914  0.8655 -2.2896 -2.0263
  445MOL0     H60022   6.106   2.291   7.113  0.3329  0.3415  0.3121
  445MOL0     H60023   5.999   2.163   7.148 -2.0777  2.3679  1.3381
  445MOL0     H60024   6.050   2.063   6.932 -0.8424 -1.4326  1.3599
  445MOL0     H60025   6.199   2.094   7.037  1.4615 -0.6204 -4.1371
  445MOL0     H60026   6.327   2.321   7.009 -0.2215 -2.2520 -0.1997
  445MOL0     H60027   6.510   2.464   6.836  0.5430 -0.4453  0.6864
  445MOL0     H60028   6.447   2.502   6.677 -0.1241  1.7091 -0.4527
  445MOL0     H60029   6.455   2.700   6.832 -0.1054  0.3106  5.2924
  445MOL0     H60030   6.347   2.615   6.946  1.0747 -0.1030 -0.8217
  445MOL0     H60031   6.188   2.609   6.726  1.2395  0.8443 -4.1973
  445MOL0     H60032   6.291   2.738   6.684  1.6567 -0.6669  0.6446
  445MOL0     H60033   6.158   2.734   6.966 -0.5736 -0.2709  0.1480
  445MOL0     H60034   6.072   2.786   6.816  0.3344 -4.8985 -2.8711
  445MOL0     H60035   6.266   3.120   7.029  0.6855 -1.1594 -1.7051
  445MOL0     H60036   6.090   3.461   7.018 -0.0664  0.7324  0.1366
  445MOL0     H60037   6.156   3.326   7.122  0.5517  0.4397  0.1457
  445MOL0     H60038   6.256   3.421   6.998 -2.3660  1.2047 -4.2619
  445MOL0     H60039   5.818   3.687   6.882  0.7653  0.9512  0.5657
  445MOL0     H60040   5.697   3.850   6.722  1.1459  0.2212  0.9594
  445MOL0     H60041   5.686   4.026   6.499  2.0572  2.7844  0.5020
  445MOL0     H60042   5.849   3.974   6.513 -0.9055 -1.7639  1.7785
  445MOL0     H60043   5.800   4.121   6.315  1.3326 -0.2238  0.7786
  445MOL0     H60044   5.852   3.963   6.243 -2.4758 -1.7254 -2.6716
  445MOL0     H60045   5.569   4.094   6.269 -3.3052 -2.1015 -0.8174
  445MOL0     H60046   5.598   3.923   6.227  0.6864 -0.0072  2.2838
  445MOL0     H60047   5.766   4.101   6.055  0.0959 -0.5807 -2.1382
  445MOL0     H60048   5.662   3.967   6.018 -2.6813 -0.6067  1.7326
  445MOL0     H60049   5.572   4.242   6.077 -0.0480  1.0748 -1.7208
  445MOL0     H60050   5.466   4.105   6.046  1.0372 -1.1289  1.4699
  445MOL0     H60051   5.515   4.108   5.821 -2.2322  0.9064  1.7105
  445MOL0     H60052   5.518   4.269   5.848 -1.9946 -0.5269  0.5951
  445MOL0     H60053   5.777   4.087   5.804  0.7980 -0.9888 -1.0723
  445MOL0     H60054   5.774   4.265   5.853 -1.3081  0.2696 -0.7539
  445MOL0     H60055   5.801   4.296   5.642  1.8831 -2.9787  1.6956
  445MOL0     H60056   5.627   4.304   5.653  0.2279 -0.4443 -4.6748
  445MOL0     H60057   5.886   3.641   6.387  3.8162 -3.6667  1.1581
  445MOL0     H60058   5.983   3.496   6.538 -2.0150 -0.8362  1.0866
  445MOL0     H60059   5.911   3.166   6.681  0.2952 -2.2983 -1.1622
  445MOL0     H60060   6.031   2.953   6.705 -0.6678 -1.0678  0.8286
  445MOL0     H60061   6.325   2.524   7.319 -0.2308  0.5151  0.5961
  445MOL0     H60062   6.546   2.463   7.243 -0.4002  0.3291  1.1800
  445MOL0     H60063   6.956   2.499   7.181  0.2072  2.3004  1.1300
  445MOL0     H60064   7.149   2.419   7.125 -1.7012 -0.1164  0.1451
  445MOL0     H60065   7.322   2.547   6.707  6.5926  0.0615 -4.4164
  445MOL0     H60066   7.461   2.490   6.789 -0.6583  3.7693  0.2895
  445MOL0     H60067   7.195   2.339   6.746 -0.6604 -1.4169 -0.4014
  445MOL0     H60068   7.339   2.277   6.843 -0.7789  1.6585  1.2710
  445MOL0     H60069   7.447   2.206   6.671  0.3024  1.6311  1.8150
  445MOL0     H60070   7.421   2.355   6.586 -1.1844  2.2833  1.9367
  445MOL0     H60071   7.212   2.119   6.597  3.4657 -2.7358  0.9620
  445MOL0     H60072   7.329   2.134   6.467 -0.3886  3.0350 -2.6512
  445MOL0     H60073   7.019   2.417   6.410  1.0791  0.1098  0.8220
  445MOL0     H60074   7.125   2.601   6.727 -2.0782 -0.1227 -0.9412
  445MOL0     H60075   6.919   2.702   6.796 -2.2459  0.1143  1.9607
  446MOL0     O60076   9.291  11.436   2.358  0.4586 -0.4033 -0.3314
  446MOL0     C60077   9.237  11.453   2.248 -0.0307  0.9878  0.4422
  446MOL0     O60078   9.192  11.572   2.204 -0.4784  0.4590 -0.0921
  446MOL0     C60079   9.221  11.678   2.288 -0.2557  1.3324  1.0574
  446MOL0     C60080   9.346  11.707   2.328  0.4135 -0.9666  0.1391
  446MOL0     C60081   9.383  11.832   2.380  0.4709 -0.6004 -0.6481
  446MOL0     C60082   9.288  11.924   2.414 -0.5827 -0.0531  0.2225
  446MOL0     O60083   9.341  12.047   2.449  0.4885  0.0246  0.8482
  446MOL0     C60084   9.252  12.159   2.465 -0.4328  1.0957  0.2268
  446MOL0     C60085   9.168  12.135   2.593  0.1533  0.9850 -0.7251
  446MOL0     C60086   9.083  12.266   2.612 -0.7636 -0.0730 -0.4038
  446MOL0     C60087   8.944  12.228   2.671 -0.4313  0.1232  0.2728
  446MOL0     C60088   8.963  12.151   2.797  0.4429  0.6292 -0.2503
  446MOL0     C60089   8.816  12.163   2.865  0.5959  0.9963  0.2059
  446MOL0     C60090   8.822  12.207   3.011  1.2990  0.0644  0.1388
  446MOL0     C60091   8.691  12.181   3.086  0.0038  0.3174  0.8425
  446MOL0     N60092   8.594  12.281   3.031 -0.3926 -0.4644 -0.1862
  446MOL0     C60093   8.574  12.395   3.102 -1.6108 -0.0876  0.1132
  446MOL0     C60094   8.449  12.430   3.088 -0.5911  0.0130 -0.4603
  446MOL0     C60095   8.396  12.559   3.152 -0.3279  0.5009  0.4255
  446MOL0     C60096   8.373  12.536   3.302 -0.1990 -1.0973 -1.4058
  446MOL0     C60097   8.339  12.674   3.379  0.1170  0.4707  0.6474
  446MOL0     C60098   8.447  12.783   3.391  0.4580 -0.3341  1.0058
  446MOL0     O60099   8.435  12.870   3.505 -0.3718  0.3950  0.6412
  446MOL0     C60100   8.509  12.983   3.522 -0.0088  0.9393  0.1685
  446MOL0     C60101   8.498  13.049   3.644 -0.2049 -0.3539 -0.4180
  446MOL0     C60102   8.567  13.172   3.668 -0.3009 -0.9593  0.3689
  446MOL0     C60103   8.526  13.227   3.800 -0.4345  0.2385 -0.7328
  446MOL0     C60104   8.653  13.225   3.563 -0.1435 -0.5950 -0.4762
  446MOL0     C60105   8.718  13.357   3.579 -0.2165 -0.2915  0.2177
  446MOL0     O60106   8.725  13.423   3.459 -0.0700  0.2096 -0.4175
  446MOL0     C60107   8.809  13.528   3.445  0.0623 -0.6986 -0.2014
  446MOL0     C60108   8.933  13.543   3.509 -0.3324 -0.4799  0.1549
  446MOL0     C60109   9.025  13.649   3.484 -0.2698 -0.3358  0.0079
  446MOL0     C60110   8.993  13.753   3.405 -0.1746  0.3421 -0.2923
  446MOL0     O60111   9.085  13.852   3.385 -1.1959 -0.0437  0.4441
  446MOL0     C60112   9.044  13.975   3.331  0.1346 -0.1515 -0.8063
  446MOL0     C60113   9.162  14.053   3.279  0.1656  0.1863  1.7302
  446MOL0     C60114   9.251  14.114   3.388 -0.3246 -0.2926  0.6600
  446MOL0     C60115   9.310  14.248   3.358  0.4022 -0.4170 -0.6064
  446MOL0     C60116   9.404  14.301   3.470 -0.2545  0.1996  0.3441
  446MOL0     C60117   9.537  14.215   3.494  0.3797 -0.3479 -0.7981
  446MOL0     C60118   9.633  14.283   3.597 -0.2204  0.5963 -0.4054
  446MOL0     C60119   9.734  14.180   3.650 -0.8107 -0.5018  0.7285
  446MOL0    Cl60120   9.766  14.207   3.821 -0.6717  0.0860 -0.2077
  446MOL0     C60121   8.873  13.736   3.331  0.1979 -0.2199  0.5763
  446MOL0     C60122   8.781  13.627   3.355  1.3976  0.9836  0.0529
  446MOL0     O60123   8.749  13.407   3.687  0.6360 -0.6085  0.1238
  446MOL0     C60124   8.674  13.153   3.445  0.6272 -0.2251 -0.6580
  446MOL0     C60125   8.603  13.029   3.426 -0.4343  0.3833 -0.3367
  446MOL0     N60126   8.388  12.344   3.001  0.4820 -0.3619 -0.5931
  446MOL0     N60127   8.482  12.256   2.969  0.7860  0.6565 -0.6847
  446MOL0     C60128   9.153  11.895   2.382 -0.1442 -1.3617 -0.7085
  446MOL0     C60129   9.126  11.769   2.321  0.8239  0.0104  0.2695
  446MOL0     C60130   9.227  11.344   2.146  0.2535 -1.1754 -0.6285
  446MOL0     C60131   9.249  11.212   2.181 -0.1155  0.0930 -0.1395
  446MOL0     C60132   9.224  11.110   2.093  0.2080 -0.6075 -0.2997
  446MOL0     C60133   9.195  11.133   1.958 -0.1684  0.6728 -0.8855
  446MOL0     O60134   9.189  11.026   1.857  0.6505  0.3503 -0.1604
  446MOL0     C60135   9.219  10.890   1.896  0.8957 -0.1291 -0.1929
  446MOL0     C60136   9.098  10.792   1.888  0.0837 -0.1606 -0.1826
  446MOL0     C60137   8.982  10.846   1.975 -0.4059  0.0592 -0.6259
  446MOL0     C60138   8.876  10.748   1.996 -1.1164  0.2423 -1.0744
  446MOL0     C60139   8.820  10.690   1.874  0.4874 -0.4586 -0.2728
  446MOL0     C60140   8.793  10.656   1.765  0.7219  0.1912  0.3772
  446MOL0     C60141   9.188  11.268   1.914 -0.6648  1.5450 -0.6117
  446MOL0     C60142   9.191  11.371   2.015 -0.1762  0.6263 -0.3922
  446MOL0     H60143   9.425  11.635   2.312 -0.4776 -2.5296  2.2206
  446MOL0     H60144   9.489  11.856   2.376  0.0080  1.5874 -2.4917
  446MOL0     H60145   9.322  12.244   2.468  0.0553  0.7984 -1.6927
  446MOL0     H60146   9.196  12.153   2.371 -1.1237 -6.0616  0.6013
  446MOL0     H60147   9.106  12.045   2.586  0.1276  0.9514 -0.0791
  446MOL0     H60148   9.235  12.120   2.677 -0.5059 -0.1547 -0.3878
  446MOL0     H60149   9.143  12.328   2.679  0.7418 -1.7825 -0.0868
  446MOL0     H60150   9.069  12.319   2.517  0.2594 -0.1191 -0.5919
  446MOL0     H60151   8.890  12.320   2.697  0.1196 -0.2511  3.0979
  446MOL0     H60152   8.883  12.166   2.605 -0.1354  0.1360 -0.0162
  446MOL0     H60153   9.007  12.053   2.779 -1.0854  0.1789 -1.7843
  446MOL0     H60154   9.026  12.202   2.870 -0.5915  1.2706  0.2243
  446MOL0     H60155   8.744  12.227   2.814 -0.6638 -1.4712 -1.2829
  446MOL0     H60156   8.784  12.059   2.877 -0.9642  1.3488 -0.6131
  446MOL0     H60157   8.888  12.138   3.065  0.3785 -0.4233  0.6507
  446MOL0     H60158   8.852  12.310   3.028 -0.5158  0.7874 -0.7901
  446MOL0     H60159   8.702  12.205   3.192  1.8572  1.6913  0.3889
  446MOL0     H60160   8.657  12.078   3.070 -1.1593  0.8142 -0.0379
  446MOL0     H60161   8.648  12.436   3.171 -0.5993 -1.2753 -0.2359
  446MOL0     H60162   8.471  12.637   3.140  0.1630 -0.0238 -0.0239
  446MOL0     H60163   8.306  12.590   3.099 -2.0702 -1.0201  2.3303
  446MOL0     H60164   8.465  12.495   3.345  0.3161 -0.4918 -1.9082
  446MOL0     H60165   8.287  12.469   3.313 -1.6886  0.6105 -2.1072
  446MOL0     H60166   8.295  12.643   3.474  1.4107 -4.4056 -0.0923
  446MOL0     H60167   8.262  12.720   3.317  0.8793  2.3327  1.0013
  446MOL0     H60168   8.447  12.833   3.294  1.2428 -0.7511  0.7838
  446MOL0     H60169   8.540  12.726   3.400  2.6391  2.5955 -1.1502
  446MOL0     H60170   8.414  13.020   3.707  0.9456  0.0353  1.3748
  446MOL0     H60171   8.436  13.289   3.797 -0.4732  0.4278  1.9275
  446MOL0     H60172   8.499  13.143   3.864 -1.6858  0.7384 -0.5725
  446MOL0     H60173   8.603  13.280   3.856 -2.8010  1.4301  1.6355
  446MOL0     H60174   8.985  13.471   3.571 -0.7807  0.0617  1.1942
  446MOL0     H60175   9.121  13.655   3.534 -0.5102 -2.4485  0.8453
  446MOL0     H60176   8.978  13.969   3.244 -1.9333  1.9271  0.5106
  446MOL0     H60177   8.996  14.042   3.403  2.9043  1.0012  0.0879
  446MOL0     H60178   9.218  13.982   3.217 -1.4965 -0.4887  0.9485
  446MOL0     H60179   9.122  14.136   3.220  0.1639 -0.5317  0.6854
  446MOL0     H60180   9.330  14.048   3.424 -0.7737 -1.7669 -0.9334
  446MOL0     H60181   9.187  14.133   3.474 -1.2417  2.4981 -0.5060
  446MOL0     H60182   9.376  14.258   3.271  0.3145 -0.5335 -0.6874
  446MOL0     H60183   9.238  14.329   3.344  0.3035 -0.5421 -0.8448
  446MOL0     H60184   9.349  14.313   3.563 -2.1741 -0.2777 -0.6842
  446MOL0     H60185   9.439  14.402   3.447 -1.1540  0.3751 -0.2982
  446MOL0     H60186   9.507  14.117   3.534 -2.3336  0.3929 -0.7910
  446MOL0     H60187   9.603  14.204   3.408  2.3121 -0.9457  0.6752
  446MOL0     H60188   9.562  14.317   3.673  0.4814 -1.3455  1.1981
  446MOL0     H60189   9.685  14.367   3.549 -0.3243  1.0296  0.2274
  446MOL0     H60190   9.831  14.196   3.602  0.2337  1.8171  3.3037
  446MOL0     H60191   9.689  14.083   3.628 -0.4124  0.1645 -4.1448
  446MOL0     H60192   8.849  13.809   3.255  5.1325 -1.5091 -2.6920
  446MOL0     H60193   8.685  13.606   3.309  0.2719 -1.9561  3.2603
  446MOL0     H60194   8.746  13.192   3.374  3.8862 -3.0525  0.8108
  446MOL0     H60195   8.627  12.978   3.333  1.4169  0.7575 -0.1052
  446MOL0     H60196   9.074  11.968   2.387  0.6677 -0.5463  2.3181
  446MOL0     H60197   9.026  11.746   2.287  1.2561  1.3997 -2.2798
  446MOL0     H60198   9.293  11.195   2.279 -1.5562 -2.2901  0.1738
  446MOL0     H60199   9.245  11.014   2.137 -1.7474 -1.8191 -1.8467
  446MOL0     H60200   9.294  10.857   1.823 -1.6491  0.2559 -3.1984
  446MOL0     H60201   9.262  10.891   1.996 -0.5189  1.5862  0.4240
  446MOL0     H60202   9.131  10.695   1.928 -2.8759 -1.5929 -0.8842
  446MOL0     H60203   9.068  10.778   1.783 -1.2828  2.5236 -0.2365
  446MOL0     H60204   8.932  10.937   1.939 -0.6112  1.4380  2.8340
  446MOL0     H60205   9.031  10.866   2.070  1.4897 -0.3486 -1.4624
  446MOL0     H60206   8.802  10.803   2.055  1.5869  1.8848  1.0891
  446MOL0     H60207   8.915  10.677   2.070 -1.9721  2.8405  2.1089
  446MOL0     H60208   8.769  10.635   1.662 -2.5221 -1.5845  1.3523
  446MOL0     H60209   9.154  11.277   1.811 -1.2300  0.9238 -0.4832
  446MOL0     H60210   9.173  11.475   1.992 -1.9759  0.5717  0.5981
  447MOL0     O60211   1.717   7.630   3.240 -0.0227  0.6860  0.3860
  447MOL0     C60212   1.829   7.631   3.297  0.4264  0.5843 -0.1440
  447MOL0     O60213   1.927   7.540   3.272 -0.2392  0.3843 -0.4553
  447MOL0     C60214   1.933   7.446   3.177  0.3367  0.1673  0.6341
  447MOL0     C60215   1.879   7.318   3.195  0.6281 -1.0849  0.3581
  447MOL0     C60216   1.888   7.218   3.090 -0.1093  0.6892 -0.2404
  447MOL0     C60217   1.958   7.242   2.966  0.7626  0.0044  0.1175
  447MOL0     O60218   1.965   7.169   2.857  0.1608 -0.9179 -0.7579
  447MOL0     C60219   1.883   7.051   2.860  0.2055 -0.4598 -0.8207
  447MOL0     C60220   1.884   7.006   2.713 -0.6377  0.7111  0.4241
  447MOL0     C60221   1.794   6.882   2.697 -0.8459 -0.5882 -0.6051
  447MOL0     C60222   1.788   6.867   2.543  0.4399  0.0320  0.9920
  447MOL0     C60223   1.710   6.741   2.500  0.9994 -0.3287 -0.6599
  447MOL0     C60224   1.560   6.744   2.543  0.7523 -0.4995 -0.1992
  447MOL0     C60225   1.493   6.605   2.510 -0.1838 -0.0891  0.0885
  447MOL0     C60226   1.333   6.608   2.488 -0.3123 -0.7610  0.5824
  447MOL0     N60227   1.266   6.654   2.606  0.2595  0.6912 -0.8032
  447MOL0     C60228   1.243   6.578   2.716 -0.4650 -0.5173 -0.8763
  447MOL0     C60229   1.193   6.661   2.809  0.4290 -0.0682 -0.0265
  447MOL0     C60230   1.152   6.631   2.957  0.4169 -0.5230 -0.4508
  447MOL0     C60231   1.048   6.715   3.022  0.6887 -0.0743 -0.0795
  447MOL0     C60232   0.914   6.690   2.962  0.0962  0.7020  0.5271
  447MOL0     C60233   0.801   6.786   3.014 -0.0436 -0.2634 -1.3417
  447MOL0     O60234   0.801   6.797   3.155 -0.7357  0.0596 -0.2452
  447MOL0     C60235   0.747   6.905   3.217 -0.2643 -0.2240 -0.2663
  447MOL0     C60236   0.777   6.918   3.353 -0.2043  0.2297  0.4267
  447MOL0     C60237   0.733   7.027   3.428  1.4184 -0.1726  0.8035
  447MOL0     C60238   0.743   7.006   3.575 -0.7354  0.0228  0.2479
  447MOL0     C60239   0.656   7.133   3.365  0.0457 -0.0353  0.2126
  447MOL0     C60240   0.598   7.237   3.452  1.2067 -0.1135 -0.5288
  447MOL0     O60241   0.644   7.365   3.431 -0.7395  0.0244 -0.2263
  447MOL0     C60242   0.596   7.483   3.472 -0.4662 -1.0261  0.1009
  447MOL0     C60243   0.664   7.596   3.446  0.0450  0.7045  0.7445
  447MOL0     C60244   0.617   7.722   3.475  0.1444 -0.0556 -0.0773
  447MOL0     C60245   0.507   7.741   3.554 -0.2429  0.0745 -0.5083
  447MOL0     O60246   0.468   7.868   3.588 -0.1027  0.1949 -0.2593
  447MOL0     C60247   0.362   7.889   3.679 -0.3367 -0.1721  0.1015
  447MOL0     C60248   0.356   8.030   3.731 -0.3029 -0.2109  0.0956
  447MOL0     C60249   0.260   8.109   3.649 -0.4636  0.0462  0.3751
  447MOL0     C60250   0.247   8.254   3.708 -0.1752 -0.5256  0.5243
  447MOL0     C60251   0.135   8.259   3.809  0.3747  0.3634 -0.3378
  447MOL0     C60252   0.083   8.393   3.841  0.5984  0.9325  0.3733
  447MOL0     C60253   0.047   8.416   3.987 -0.0911  0.9623 -1.0477
  447MOL0     C60254  -0.043   8.546   3.995  0.1263  0.2923  0.0096
  447MOL0    Cl60255   0.074   8.690   3.973  0.2594  0.0742  0.6999
  447MOL0     C60256   0.441   7.622   3.597  0.3626 -0.4505  0.8816
  447MOL0     C60257   0.479   7.497   3.545 -0.3138 -0.4759  0.4869
  447MOL0     O60258   0.510   7.200   3.533 -0.4667 -0.5668 -0.8772
  447MOL0     C60259   0.625   7.124   3.227 -0.0980 -0.2274  0.7319
  447MOL0     C60260   0.677   7.010   3.154  0.2949  0.3168  0.1583
  447MOL0     N60261   1.174   6.788   2.747 -0.5183  0.4821  0.3363
  447MOL0     N60262   1.211   6.782   2.624  0.0810 -0.2745 -0.5802
  447MOL0     C60263   2.004   7.377   2.950 -0.3565  0.1250 -1.1162
  447MOL0     C60264   1.996   7.468   3.055  0.5485  0.4906  0.2139
  447MOL0     C60265   1.855   7.725   3.404 -0.8126  0.6335  0.4653
  447MOL0     C60266   1.763   7.811   3.453  0.1487  0.1757  1.2649
  447MOL0     C60267   1.801   7.912   3.541  0.0631 -0.1860  0.9285
  447MOL0     C60268   1.934   7.929   3.580 -0.7613 -0.3730 -0.5562
  447MOL0     O60269   1.985   8.025   3.674  0.1715 -0.3018  0.1596
  447MOL0     C60270   1.896   8.100   3.754 -0.2197  1.3448 -0.4274
  447MOL0     C60271   1.827   8.228   3.697 -0.9536  0.3296  0.2404
  447MOL0     C60272   1.750   8.297   3.808  0.8817 -0.5724 -0.0560
  447MOL0     C60273   1.620   8.238   3.848 -0.3270  0.3088  0.6765
  447MOL0     C60274   1.533   8.335   3.901  0.9055 -2.0699 -0.1174
  447MOL0     C60275   1.487   8.438   3.960  0.5335  0.4547 -0.4833
  447MOL0     C60276   2.025   7.832   3.548  0.1967  0.8591  0.7886
  447MOL0     C60277   1.988   7.735   3.452  0.0878  0.7936 -0.2025
  447MOL0     H60278   1.819   7.292   3.281 -2.6333  1.2771 -0.9929
  447MOL0     H60279   1.842   7.120   3.088 -0.3188  0.7895 -2.1091
  447MOL0     H60280   1.917   6.971   2.927 -1.9334 -0.4232  0.3857
  447MOL0     H60281   1.779   7.074   2.883  0.5871 -0.2366  0.8388
  447MOL0     H60282   1.841   7.078   2.643  1.7617 -0.5923 -2.6187
  447MOL0     H60283   1.982   6.972   2.681 -2.3961 -2.2125 -2.4635
  447MOL0     H60284   1.854   6.804   2.745 -1.4805  0.5674  2.2598
  447MOL0     H60285   1.699   6.897   2.749 -1.8329 -2.2702 -1.8204
  447MOL0     H60286   1.735   6.949   2.493  0.8574 -0.5545 -0.4706
  447MOL0     H60287   1.891   6.864   2.505 -0.1537  0.0434 -0.6996
  447MOL0     H60288   1.716   6.728   2.391  1.7497  1.1004 -0.8188
  447MOL0     H60289   1.754   6.655   2.551  2.2317  2.0225  2.6064
  447MOL0     H60290   1.543   6.772   2.647  0.4389  2.1197 -0.8943
  447MOL0     H60291   1.508   6.816   2.480  1.8515 -0.9346 -1.6825
  447MOL0     H60292   1.535   6.579   2.412  0.0697  1.0812 -0.1310
  447MOL0     H60293   1.519   6.522   2.577  1.3529  0.4181  0.1702
  447MOL0     H60294   1.297   6.509   2.459  0.0262 -0.2397 -1.8802
  447MOL0     H60295   1.328   6.674   2.401  2.4147 -0.6612  0.4163
  447MOL0     H60296   1.285   6.478   2.714  0.4879 -0.1351 -0.4057
  447MOL0     H60297   1.133   6.523   2.955  2.5181 -0.9403 -1.8468
  447MOL0     H60298   1.242   6.638   3.019  0.0389  1.4170 -0.0480
  447MOL0     H60299   1.077   6.819   3.002  1.4379  0.1738  2.0593
  447MOL0     H60300   1.040   6.708   3.131  1.6101  0.1148  0.0039
  447MOL0     H60301   0.883   6.588   2.986  2.2335 -0.1094  0.0947
  447MOL0     H60302   0.911   6.703   2.853  0.1600  0.0960  0.4492
  447MOL0     H60303   0.700   6.755   2.984  0.2295  0.2840 -2.9620
  447MOL0     H60304   0.829   6.880   2.965  0.7853 -0.7948 -1.9133
  447MOL0     H60305   0.825   6.831   3.396  2.0841  0.8030 -0.7887
  447MOL0     H60306   0.775   7.105   3.610  1.1933 -0.2132 -0.6887
  447MOL0     H60307   0.645   6.974   3.610 -0.5213 -1.9199 -0.7919
  447MOL0     H60308   0.823   6.938   3.607 -1.6820 -0.3320  1.9688
  447MOL0     H60309   0.745   7.585   3.374  0.5462 -0.9590  1.5164
  447MOL0     H60310   0.668   7.809   3.434  2.5527 -2.3930 -2.3959
  447MOL0     H60311   0.271   7.857   3.627  0.6424 -0.9846 -1.1589
  447MOL0     H60312   0.361   7.833   3.773 -1.1413 -2.1771 -1.0348
  447MOL0     H60313   0.328   8.046   3.836  2.0604 -3.1848  1.3636
  447MOL0     H60314   0.453   8.079   3.722  1.5243 -3.6725 -1.1203
  447MOL0     H60315   0.162   8.070   3.621 -1.9330  2.7571  1.2865
  447MOL0     H60316   0.309   8.120   3.552  1.8498  2.3853  1.6586
  447MOL0     H60317   0.333   8.293   3.763 -0.0179  1.9986 -1.3226
  447MOL0     H60318   0.245   8.324   3.624  1.6994 -4.1239 -2.8681
  447MOL0     H60319   0.156   8.223   3.910  0.8409  1.1167 -0.1600
  447MOL0     H60320   0.049   8.206   3.767  0.6491  0.8042 -1.4950
  447MOL0     H60321   0.166   8.463   3.829  4.4382 -3.1321  0.7179
  447MOL0     H60322  -0.002   8.406   3.772  0.9206 -1.2845 -0.5283
  447MOL0     H60323   0.137   8.429   4.048  0.3093 -3.6714 -0.2957
  447MOL0     H60324  -0.003   8.328   4.030  4.7708 -1.2088  0.8743
  447MOL0     H60325  -0.085   8.540   4.096  0.7189 -0.7613  0.2084
  447MOL0     H60326  -0.129   8.527   3.930 -1.0229 -0.8500  1.7677
  447MOL0     H60327   0.359   7.635   3.667 -0.0422  2.2364  0.0144
  447MOL0     H60328   0.415   7.413   3.570 -0.8796 -0.1989  0.0084
  447MOL0     H60329   0.576   7.200   3.168  1.2971 -2.5850 -3.9050
  447MOL0     H60330   0.647   7.003   3.050  1.0161 -0.5373  0.0018
  447MOL0     H60331   2.046   7.421   2.860  1.8267 -1.4911 -0.9961
  447MOL0     H60332   2.024   7.571   3.039  0.0109  0.3815 -1.5853
  447MOL0     H60333   1.666   7.812   3.406  0.5809 -0.5250  0.3213
  447MOL0     H60334   1.713   7.975   3.547 -1.7866 -2.2122 -2.1337
  447MOL0     H60335   1.823   8.024   3.785  2.1821 -0.4062  1.3643
  447MOL0     H60336   1.953   8.120   3.845 -2.3745  2.1775  0.8111
  447MOL0     H60337   1.751   8.211   3.620 -1.9918  2.5936  0.6687
  447MOL0     H60338   1.910   8.293   3.668 -0.9822 -0.2700 -1.2307
  447MOL0     H60339   1.734   8.400   3.775  0.9317 -0.8596 -1.0112
  447MOL0     H60340   1.813   8.302   3.897 -0.5124  1.4334  0.8878
  447MOL0     H60341   1.654   8.160   3.916  0.9138  1.2331  1.1395
  447MOL0     H60342   1.581   8.194   3.755  1.2810 -0.7751  0.4695
  447MOL0     H60343   1.456   8.524   4.017  3.2398 -0.9197  3.4628
  447MOL0     H60344   2.132   7.839   3.566  1.1555 -0.7589 -3.1192
  447MOL0     H60345   2.060   7.658   3.426 -0.4040  0.4143 -0.4555
  448MOL0     O60346   9.248   9.958   1.726 -0.6055  0.0108 -0.5142
  448MOL0     C60347   9.268   9.982   1.608  0.4438  0.0799 -0.2531
  448MOL0     O60348   9.388   9.982   1.541 -0.3906 -0.7270 -0.3726
  448MOL0     C60349   9.495   9.920   1.598 -0.7356 -0.4414  0.0222
  448MOL0     C60350   9.552   9.978   1.703  0.0929 -0.0757 -0.6625
  448MOL0     C60351   9.662   9.927   1.767  0.4792 -0.9653  0.3262
  448MOL0     C60352   9.728   9.810   1.722 -0.2188  0.8355 -0.1405
  448MOL0     O60353   9.840   9.754   1.781 -0.2983  0.2610 -0.2705
  448MOL0     C60354   9.893   9.813   1.903  0.9289  0.4079 -0.0486
  448MOL0     C60355  10.032   9.770   1.942 -0.4149 -0.0384 -0.2915
  448MOL0     C60356  10.032   9.638   2.009 -0.0436  0.7022 -0.3966
  448MOL0     C60357  10.154   9.603   2.091 -0.4795  0.6515  0.9325
  448MOL0     C60358  10.144   9.466   2.155  0.7887  0.7861 -1.0914
  448MOL0     C60359  10.288   9.426   2.208  0.9525 -0.2773 -0.3238
  448MOL0     C60360  10.281   9.455   2.364 -0.9617 -0.1830 -0.2268
  448MOL0     C60361  10.420   9.449   2.425  0.2510  0.1053  0.3540
  448MOL0     N60362  10.504   9.338   2.374  0.2195 -0.4191  0.3387
  448MOL0     C60363  10.583   9.325   2.261  0.4469  0.1405  0.0042
  448MOL0     C60364  10.634   9.201   2.272 -1.1085 -0.3681 -0.5239
  448MOL0     C60365  10.714   9.116   2.175  0.1324  0.2108 -0.1032
  448MOL0     C60366  10.795   9.191   2.071 -0.7997  0.7024  0.0215
  448MOL0     C60367  10.920   9.268   2.130 -0.0422 -0.0399  0.1066
  448MOL0     C60368  10.896   9.396   2.207  0.6435  0.3468 -0.9997
  448MOL0     O60369  10.854   9.497   2.117 -0.5723 -0.1794  0.4654
  448MOL0     C60370  10.859   9.630   2.149  0.2147  0.1942 -0.0196
  448MOL0     C60371  10.838   9.715   2.043  0.2953  1.0036 -0.6384
  448MOL0     C60372  10.834   9.851   2.050 -1.3307  0.2461 -1.4036
  448MOL0     C60373  10.824   9.926   1.926 -0.5405  0.8101  0.9868
  448MOL0     C60374  10.852   9.912   2.180  1.0849  0.2867 -1.2162
  448MOL0     C60375  10.854  10.056   2.212  0.5451 -0.0260  0.1045
  448MOL0     O60376  10.814  10.105   2.339 -0.3539  0.0889  0.0556
  448MOL0     C60377  10.825  10.225   2.385  0.3767  0.4273 -0.1692
  448MOL0     C60378  10.830  10.347   2.313 -0.0411  0.2128 -0.6044
  448MOL0     C60379  10.841  10.476   2.370  0.0217  1.7400 -0.8764
  448MOL0     C60380  10.833  10.483   2.519 -0.2777  0.3519 -0.1623
  448MOL0     O60381  10.826  10.606   2.577 -0.1623  0.0698 -0.4834
  448MOL0     C60382  10.822  10.625   2.728 -0.8610  0.1727  0.5923
  448MOL0     C60383  10.958  10.595   2.787 -0.0022 -0.0795 -0.0335
  448MOL0     C60384  10.957  10.642   2.929 -0.4040 -0.0589 -1.4277
  448MOL0     C60385  11.097  10.641   2.979 -0.9588 -0.0550 -1.1079
  448MOL0     C60386  11.109  10.667   3.133  0.0610 -0.0390  0.3110
  448MOL0     C60387  11.235  10.581   3.189  0.0187  0.5933  0.1177
  448MOL0     C60388  11.256  10.628   3.336  0.1783 -0.4570 -0.0929
  448MOL0     C60389  11.335  10.754   3.340  0.4406 -0.6215 -0.3785
  448MOL0    Cl60390  11.442  10.740   3.479 -0.6109 -0.2616 -0.0308
  448MOL0     C60391  10.830  10.365   2.590  0.6331  0.6795 -0.1958
  448MOL0     C60392  10.822  10.241   2.529 -0.7661 -1.1210  0.4944
  448MOL0     O60393  10.913  10.124   2.135 -0.3962  0.2551 -0.0240
  448MOL0     C60394  10.883   9.818   2.290  0.0158  0.0471 -0.3233
  448MOL0     C60395  10.890   9.674   2.276 -0.0806 -0.5856  0.5726
  448MOL0     N60396  10.593   9.140   2.386 -0.4003  0.3281  0.0809
  448MOL0     N60397  10.521   9.232   2.452  0.9094  0.0861 -0.4819
  448MOL0     C60398   9.676   9.755   1.597 -0.1464 -0.1719  0.1788
  448MOL0     C60399   9.564   9.811   1.537 -0.1124  0.3115  0.5598
  448MOL0     C60400   9.149  10.000   1.515 -0.0107 -0.4020 -0.4960
  448MOL0     C60401   9.169  10.042   1.386  0.3168 -0.2345  0.2747
  448MOL0     C60402   9.058  10.079   1.309 -0.3639  0.0993 -0.2060
  448MOL0     C60403   8.922  10.076   1.359 -0.6744 -0.5236  0.2799
  448MOL0     O60404   8.803  10.130   1.297 -0.9948  0.1368 -0.3719
  448MOL0     C60405   8.843  10.217   1.185  0.3117  0.3088  0.1045
  448MOL0     C60406   8.734  10.328   1.164 -0.3976  0.4881 -0.1261
  448MOL0     C60407   8.603  10.267   1.120 -0.4239 -1.2129  0.7977
  448MOL0     C60408   8.483  10.368   1.141 -0.4669  0.3521  0.2006
  448MOL0     C60409   8.360  10.299   1.104  0.5738 -0.7166  0.7817
  448MOL0     C60410   8.257  10.251   1.053 -0.2438  0.2840  0.0185
  448MOL0     C60411   8.908  10.036   1.489 -0.1932  0.0149  0.1322
  448MOL0     C60412   9.018  10.005   1.571  1.0229  0.3159 -0.5203
  448MOL0     H60413   9.504  10.071   1.729  0.8968  0.7540 -2.0466
  448MOL0     H60414   9.702   9.981   1.852  1.9923  1.0798 -1.5903
  448MOL0     H60415   9.895   9.922   1.893 -0.9372  0.6571  1.5496
  448MOL0     H60416   9.822   9.781   1.981 -0.9366 -1.8817 -2.4992
  448MOL0     H60417  10.109   9.776   1.864 -0.5995 -0.3379 -0.4999
  448MOL0     H60418  10.055   9.852   2.011  1.3674 -0.0861 -0.7643
  448MOL0     H60419   9.952   9.624   2.082  2.4396  0.6757  2.4978
  448MOL0     H60420  10.023   9.551   1.943 -1.0386 -0.1314  0.7958
  448MOL0     H60421  10.239   9.604   2.022 -1.5140 -2.8473 -0.6109
  448MOL0     H60422  10.175   9.687   2.158  1.1805  2.6432 -1.8541
  448MOL0     H60423  10.059   9.472   2.224  0.5889  2.0867 -1.4141
  448MOL0     H60424  10.109   9.405   2.071 -3.5352  0.6571  0.5401
  448MOL0     H60425  10.318   9.328   2.169  0.8002  0.8479 -3.5695
  448MOL0     H60426  10.359   9.496   2.161 -0.4992 -0.0862 -2.3630
  448MOL0     H60427  10.237   9.551   2.392  0.5636  0.7654 -0.8968
  448MOL0     H60428  10.226   9.368   2.399 -1.7624  1.0579  1.7310
  448MOL0     H60429  10.401   9.442   2.532 -1.4923  0.3598  0.0960
  448MOL0     H60430  10.473   9.541   2.398 -0.6403 -0.3006 -3.2838
  448MOL0     H60431  10.606   9.393   2.179 -0.8481 -0.3863 -0.8340
  448MOL0     H60432  10.785   9.062   2.238  3.0003  2.8428 -0.8766
  448MOL0     H60433  10.640   9.049   2.128 -0.7640  2.0618 -1.4778
  448MOL0     H60434  10.724   9.259   2.023 -2.8708 -1.1849  0.2421
  448MOL0     H60435  10.833   9.118   1.999  1.4327  1.5327  0.2888
  448MOL0     H60436  10.999   9.291   2.058  0.9246 -0.8428  0.8879
  448MOL0     H60437  10.974   9.193   2.188 -0.9558 -1.7271 -1.0993
  448MOL0     H60438  10.991   9.423   2.255  1.7287 -0.3335 -2.6604
  448MOL0     H60439  10.827   9.382   2.291 -0.0978  2.0039 -1.3055
  448MOL0     H60440  10.826   9.676   1.942 -3.1217  0.0717 -0.0035
  448MOL0     H60441  10.871   9.873   1.842  1.8451 -0.5586  3.0610
  448MOL0     H60442  10.719   9.955   1.911 -0.7253  0.2637  1.2041
  448MOL0     H60443  10.880  10.020   1.926  1.5757 -0.2852 -2.2014
  448MOL0     H60444  10.854  10.347   2.207  1.3462  3.5839 -0.4195
  448MOL0     H60445  10.851  10.573   2.323 -0.5166  1.4965 -1.5191
  448MOL0     H60446  10.809  10.733   2.745  1.6377  0.2031  3.0950
  448MOL0     H60447  10.744  10.560   2.768 -0.0272 -2.2926 -1.5483
  448MOL0     H60448  10.978  10.488   2.788 -2.3446 -0.6353 -2.4159
  448MOL0     H60449  11.035  10.647   2.729  1.0328 -1.9009 -0.3491
  448MOL0     H60450  10.894  10.574   2.987 -1.0606  2.1853  0.6265
  448MOL0     H60451  10.909  10.740   2.932  0.5588  0.4001  0.5508
  448MOL0     H60452  11.139  10.542   2.959 -3.5763 -1.5150  0.1044
  448MOL0     H60453  11.165  10.708   2.925 -0.3173 -0.5527 -0.9314
  448MOL0     H60454  11.011  10.648   3.178  1.0303 -0.4399  2.3861
  448MOL0     H60455  11.134  10.770   3.159  1.0679 -0.6539  1.9265
  448MOL0     H60456  11.214  10.474   3.184  2.8960 -0.0822  0.7810
  448MOL0     H60457  11.317  10.594   3.117 -2.4914  2.9894 -2.5603
  448MOL0     H60458  11.317  10.560   3.397  0.6257 -0.3916 -0.4646
  448MOL0     H60459  11.157  10.634   3.383  0.1063 -1.0645 -0.1568
  448MOL0     H60460  11.270  10.841   3.356 -0.8921 -1.4863 -0.8654
  448MOL0     H60461  11.381  10.762   3.241  1.0103 -0.5644 -0.1095
  448MOL0     H60462  10.831  10.351   2.698  3.6042 -1.5699 -0.3876
  448MOL0     H60463  10.834  10.155   2.595 -0.5968 -0.4360  1.3690
  448MOL0     H60464  10.919   9.858   2.384  0.2609 -0.6000 -0.1388
  448MOL0     H60465  10.934   9.613   2.354  1.4460 -0.1403  0.0873
  448MOL0     H60466   9.726   9.668   1.557  0.1724 -0.3956  1.0399
  448MOL0     H60467   9.518   9.784   1.443 -1.0376  2.2600  0.4096
  448MOL0     H60468   9.266  10.042   1.336  0.7923  1.3420  1.1239
  448MOL0     H60469   9.091  10.116   1.212  3.7831 -1.5860  0.3947
  448MOL0     H60470   8.939  10.267   1.200 -0.0138  1.4705 -1.4214
  448MOL0     H60471   8.852  10.160   1.093  4.9609  0.0624  0.4927
  448MOL0     H60472   8.769  10.405   1.095  1.2253  0.9272  1.1227
  448MOL0     H60473   8.723  10.369   1.265  1.2346  1.2178 -0.2029
  448MOL0     H60474   8.589  10.176   1.179  3.5901 -2.1108  0.6810
  448MOL0     H60475   8.621  10.239   1.016 -1.1345  2.6139 -0.4855
  448MOL0     H60476   8.491  10.460   1.081 -0.5977 -0.4660 -1.1194
  448MOL0     H60477   8.479  10.390   1.248 -2.2370  1.7213 -0.0966
  448MOL0     H60478   8.169  10.201   1.019 -1.3479  0.8714  1.8717
  448MOL0     H60479   8.813  10.052   1.539  0.1436  0.6806  0.5592
  448MOL0     H60480   8.990   9.981   1.673 -0.8848  1.9012 -0.6254
  449MOL0     O60481   7.712   7.266   1.808  0.4900  0.2763  0.0772
  449MOL0     C60482   7.628   7.174   1.811  0.4568 -1.0506  0.1525
  449MOL0     O60483   7.517   7.169   1.897 -0.1675  0.3048  0.0710
  449MOL0     C60484   7.482   7.280   1.972 -0.0334 -0.3826  1.0087
  449MOL0     C60485   7.487   7.289   2.111 -0.6395 -0.6884 -0.2154
  449MOL0     C60486   7.443   7.404   2.173  0.0082  0.5052  0.2998
  449MOL0     C60487   7.400   7.509   2.108  0.7330  0.4490  0.5069
  449MOL0     O60488   7.376   7.624   2.178 -0.5279 -0.6813 -0.1112
  449MOL0     C60489   7.323   7.735   2.099 -0.2126  0.5755 -0.3733
  449MOL0     C60490   7.325   7.862   2.197 -0.3734  0.7382  0.8033
  449MOL0     C60491   7.253   7.847   2.330 -0.5121 -0.1901  0.0852
  449MOL0     C60492   7.229   7.980   2.399 -0.0571 -0.3121  0.3513
  449MOL0     C60493   7.185   7.965   2.550 -0.1720 -1.0236  0.3098
  449MOL0     C60494   7.173   8.105   2.615 -0.3693 -0.0734  0.3543
  449MOL0     C60495   7.145   8.093   2.760  0.2120 -0.1261  0.1220
  449MOL0     C60496   7.271   8.060   2.845 -0.2898 -0.3169 -0.6743
  449MOL0     N60497   7.233   8.083   2.989 -0.5642 -0.0154 -0.5829
  449MOL0     C60498   7.309   8.030   3.096 -0.0531 -0.0294 -0.1078
  449MOL0     C60499   7.258   8.088   3.207 -0.2368 -0.5503  0.4275
  449MOL0     C60500   7.291   8.074   3.346 -0.5310 -0.5153 -0.0081
  449MOL0     C60501   7.241   7.945   3.397 -0.2252 -0.3787 -0.1946
  449MOL0     C60502   7.088   7.917   3.379  1.2190 -0.4333  0.3807
  449MOL0     C60503   6.998   8.026   3.441 -0.1793  0.5567  0.3656
  449MOL0     O60504   6.865   8.016   3.394  0.0006  0.4619 -0.7068
  449MOL0     C60505   6.762   8.057   3.475 -1.1981 -0.3035 -0.0177
  449MOL0     C60506   6.759   8.187   3.517 -1.0460 -0.2326 -0.0638
  449MOL0     C60507   6.655   8.240   3.590 -0.1593  0.5279  0.0033
  449MOL0     C60508   6.682   8.380   3.636 -0.4683 -0.5184  0.3482
  449MOL0     C60509   6.552   8.150   3.625  0.0150  1.3625  0.0367
  449MOL0     C60510   6.445   8.192   3.715  0.5398 -0.5023  0.1441
  449MOL0     O60511   6.330   8.119   3.726  0.6422  0.3752  0.9131
  449MOL0     C60512   6.212   8.169   3.779  1.6536 -1.8132  0.4901
  449MOL0     C60513   6.152   8.298   3.759 -1.1194  0.4290  1.0713
  449MOL0     C60514   6.033   8.338   3.824 -0.3904 -0.3793  0.0510
  449MOL0     C60515   5.969   8.239   3.901  0.2734 -0.1822 -0.8542
  449MOL0     O60516   5.839   8.245   3.949  0.0657  0.8143 -0.5238
  449MOL0     C60517   5.817   8.329   4.067  0.0442  0.1348 -0.0979
  449MOL0     C60518   5.843   8.227   4.192  0.6968 -1.4365 -0.8706
  449MOL0     C60519   5.745   8.114   4.198 -0.3123 -0.2582  0.8711
  449MOL0     C60520   5.622   8.139   4.281 -0.7387  0.9056 -0.1118
  449MOL0     C60521   5.543   8.011   4.282  0.5770 -1.1387  0.6026
  449MOL0     C60522   5.428   8.023   4.384  0.5753 -0.2485 -0.1953
  449MOL0     C60523   5.313   7.912   4.370 -0.4916  0.1463 -0.7974
  449MOL0     C60524   5.372   7.768   4.379 -0.1436 -0.3404  0.7932
  449MOL0    Cl60525   5.402   7.734   4.544  0.0252  0.2768  0.2556
  449MOL0     C60526   6.022   8.103   3.912 -0.2483 -0.1843 -0.7852
  449MOL0     C60527   6.140   8.076   3.849  0.8536  0.4125  0.8372
  449MOL0     O60528   6.462   8.295   3.782 -0.7887  0.0541  0.2487
  449MOL0     C60529   6.552   8.025   3.572  0.2769 -0.3835 -0.2733
  449MOL0     C60530   6.654   7.978   3.492 -0.3764  0.8008 -0.4762
  449MOL0     N60531   7.163   8.192   3.173  0.1086 -0.0359  0.0075
  449MOL0     N60532   7.155   8.186   3.038 -0.1685  0.0636 -0.2478
  449MOL0     C60533   7.391   7.503   1.960  0.2558 -0.7443  0.7652
  449MOL0     C60534   7.427   7.383   1.894  0.6882  0.2145 -0.1671
  449MOL0     C60535   7.642   7.055   1.721 -0.0937  0.0388 -0.7110
  449MOL0     C60536   7.735   7.066   1.613  0.2727  0.3802  0.4118
  449MOL0     C60537   7.755   6.959   1.521  0.1547  0.8008  0.4819
  449MOL0     C60538   7.681   6.839   1.538  1.2844  0.6135  0.5895
  449MOL0     O60539   7.686   6.730   1.453 -0.2279 -0.2258 -0.1734
  449MOL0     C60540   7.777   6.720   1.342  0.0915  0.0379  0.5702
  449MOL0     C60541   7.727   6.780   1.212  0.0268  0.5351 -0.2975
  449MOL0     C60542   7.579   6.742   1.200 -0.6564 -0.4202 -0.0344
  449MOL0     C60543   7.524   6.761   1.056  0.0412  0.3605  0.1353
  449MOL0     C60544   7.559   6.637   0.982  0.1011  0.1870 -0.6667
  449MOL0     C60545   7.596   6.542   0.923  0.2858  0.6636 -0.7130
  449MOL0     C60546   7.585   6.834   1.645  1.0544 -0.3689 -1.5250
  449MOL0     C60547   7.554   6.944   1.731 -0.1937  0.7165  0.5728
  449MOL0     H60548   7.509   7.205   2.176  0.2733 -2.1381 -2.2976
  449MOL0     H60549   7.442   7.400   2.282  0.1924 -4.1653  0.3321
  449MOL0     H60550   7.386   7.759   2.013 -0.6231 -0.5241 -0.9964
  449MOL0     H60551   7.225   7.718   2.053  1.5386 -2.2429 -3.4705
  449MOL0     H60552   7.426   7.900   2.217 -0.0863  0.5826 -0.2973
  449MOL0     H60553   7.274   7.942   2.144 -0.4081  1.1598  1.4538
  449MOL0     H60554   7.157   7.804   2.300 -3.6558  2.9392  4.3237
  449MOL0     H60555   7.308   7.778   2.394 -0.3990  0.7888  1.0667
  449MOL0     H60556   7.318   8.042   2.395 -0.0099 -0.4366 -1.8773
  449MOL0     H60557   7.156   8.040   2.344 -1.7912 -3.6566 -1.3397
  449MOL0     H60558   7.086   7.920   2.559 -0.9362  1.0499  5.1404
  449MOL0     H60559   7.255   7.893   2.594 -0.4284 -0.9718  0.8112
  449MOL0     H60560   7.267   8.160   2.602 -1.1087  0.5167 -3.5560
  449MOL0     H60561   7.089   8.150   2.561 -1.5326 -3.3535 -0.7913
  449MOL0     H60562   7.115   8.196   2.782 -0.4109 -0.1532 -0.5735
  449MOL0     H60563   7.057   8.031   2.777  0.3235 -0.6487 -1.0676
  449MOL0     H60564   7.362   8.116   2.821  0.5377 -0.9129  0.9121
  449MOL0     H60565   7.293   7.953   2.835 -0.7968 -0.3740 -1.2378
  449MOL0     H60566   7.397   7.966   3.094  0.8759  0.7276  4.5279
  449MOL0     H60567   7.397   8.071   3.372 -0.8758 -5.0401  1.7665
  449MOL0     H60568   7.253   8.167   3.389  1.4678  0.8297 -0.9821
  449MOL0     H60569   7.237   7.940   3.506  2.5474 -0.5139 -0.0306
  449MOL0     H60570   7.310   7.870   3.357  0.9596  0.0909  0.8658
  449MOL0     H60571   7.063   7.822   3.427 -1.4157  0.8915  1.8705
  449MOL0     H60572   7.055   7.914   3.275 -1.9126  0.6701  1.2327
  449MOL0     H60573   7.032   8.129   3.431  2.3566 -0.1425  1.0030
  449MOL0     H60574   6.984   8.005   3.548 -4.0062 -1.4981 -0.3341
  449MOL0     H60575   6.840   8.252   3.487 -0.9618  0.2350  1.1308
  449MOL0     H60576   6.594   8.443   3.626  0.6262  1.7363  3.3973
  449MOL0     H60577   6.703   8.377   3.743 -3.9090 -0.1332  1.1322
  449MOL0     H60578   6.771   8.413   3.580 -1.5647 -1.0019 -1.8062
  449MOL0     H60579   6.204   8.375   3.702 -1.5976  0.0873  0.1609
  449MOL0     H60580   5.977   8.427   3.798 -0.0422 -0.8784 -2.7625
  449MOL0     H60581   5.891   8.410   4.061  3.2157 -2.3574  1.7976
  449MOL0     H60582   5.713   8.359   4.072 -0.3352 -1.2649  1.6800
  449MOL0     H60583   5.945   8.189   4.180  1.7162  1.2068 -1.2326
  449MOL0     H60584   5.843   8.286   4.284  0.4536 -3.7845  0.7210
  449MOL0     H60585   5.789   8.019   4.231 -1.2679 -1.0007  0.0655
  449MOL0     H60586   5.718   8.088   4.095  1.4506  2.0681 -0.2854
  449MOL0     H60587   5.653   8.156   4.384 -0.1245 -0.4282 -0.0529
  449MOL0     H60588   5.556   8.216   4.243 -1.7643  1.7538  3.0795
  449MOL0     H60589   5.610   7.926   4.302  2.3968  0.1804  0.3508
  449MOL0     H60590   5.493   7.997   4.186  1.9534  0.5505 -0.4106
  449MOL0     H60591   5.467   8.030   4.486 -3.8001  0.3409  1.6461
  449MOL0     H60592   5.379   8.120   4.372 -0.5606 -0.8615 -0.6327
  449MOL0     H60593   5.279   7.911   4.266  3.0304 -1.2615 -2.0966
  449MOL0     H60594   5.227   7.921   4.437 -1.1850  1.2096 -1.7939
  449MOL0     H60595   5.459   7.759   4.312 -0.2565  1.0477  0.4469
  449MOL0     H60596   5.292   7.705   4.339 -0.2395 -1.1695  2.2392
  449MOL0     H60597   5.976   8.029   3.977  1.9604 -2.3849 -1.5484
  449MOL0     H60598   6.186   7.981   3.875  2.3171  1.2090  1.2730
  449MOL0     H60599   6.479   7.949   3.599  0.5834 -0.5235  0.1605
  449MOL0     H60600   6.672   7.878   3.454 -2.9335  0.3750 -0.7497
  449MOL0     H60601   7.352   7.588   1.905 -1.4484 -1.7365  0.3384
  449MOL0     H60602   7.411   7.368   1.787  2.4836 -1.2057 -0.2832
  449MOL0     H60603   7.793   7.157   1.605  0.8135  0.1373  1.3463
  449MOL0     H60604   7.814   6.974   1.431 -0.6410 -2.0307 -0.6108
  449MOL0     H60605   7.868   6.774   1.369 -0.7159  1.0549  1.3793
  449MOL0     H60606   7.813   6.618   1.326 -0.2702  0.1617 -1.1799
  449MOL0     H60607   7.790   6.769   1.123  3.1051  1.6034  1.5803
  449MOL0     H60608   7.736   6.889   1.215  1.9184  0.4111  1.4513
  449MOL0     H60609   7.525   6.801   1.274 -0.6082  1.3067 -1.3293
  449MOL0     H60610   7.560   6.642   1.240  2.7340 -1.1185  0.1392
  449MOL0     H60611   7.567   6.847   1.005  1.6575  0.2316  1.1953
  449MOL0     H60612   7.416   6.751   1.046  0.4234 -2.8044 -2.2076
  449MOL0     H60613   7.632   6.446   0.893  0.4933 -0.8810  3.7661
  449MOL0     H60614   7.526   6.744   1.662 -1.5327  1.3798 -0.5126
  449MOL0     H60615   7.472   6.930   1.801 -0.5923 -1.4179 -0.2506
  450MOL0     O60616   6.356   5.717   5.832  0.4736  0.0463  0.1936
  450MOL0     C60617   6.354   5.831   5.868 -0.3539  0.6628  0.4022
  450MOL0     O60618   6.336   5.936   5.790 -0.5969  0.3373  0.2136
  450MOL0     C60619   6.289   5.912   5.664  0.3809  0.1031  0.3812
  450MOL0     C60620   6.154   5.910   5.650  0.4516  0.5621 -0.2233
  450MOL0     C60621   6.093   5.888   5.531 -0.3388  0.8532  0.7477
  450MOL0     C60622   6.174   5.887   5.408  1.0784 -0.6600 -1.1786
  450MOL0     O60623   6.119   5.864   5.280 -0.1060  0.1854 -0.0718
  450MOL0     C60624   6.174   5.741   5.231 -1.0447  0.0204 -0.1721
  450MOL0     C60625   6.090   5.677   5.125  0.2556 -0.3766 -0.3548
  450MOL0     C60626   5.940   5.660   5.171 -0.0785 -0.0499  0.5393
  450MOL0     C60627   5.914   5.564   5.302  0.8710  0.0149 -0.0380
  450MOL0     C60628   5.791   5.606   5.376 -0.3854  0.0604  0.1802
  450MOL0     C60629   5.748   5.506   5.484 -0.8945  0.6155 -0.1784
  450MOL0     C60630   5.635   5.559   5.579 -0.0830 -0.9710  0.3865
  450MOL0     C60631   5.684   5.663   5.684  0.6421  0.9809  0.3528
  450MOL0     N60632   5.780   5.619   5.776  0.4974 -0.1052  0.3307
  450MOL0     C60633   5.919   5.620   5.762 -0.6694  0.8646 -0.4603
  450MOL0     C60634   5.948   5.530   5.863 -0.0999 -0.9750 -0.2006
  450MOL0     C60635   6.082   5.466   5.899 -0.5302  0.5875 -0.4092
  450MOL0     C60636   6.161   5.528   6.018  0.1445 -1.1839 -0.3715
  450MOL0     C60637   6.156   5.430   6.145  0.0956 -0.1385 -0.1239
  450MOL0     C60638   6.232   5.482   6.266  0.6045 -0.9571  1.4070
  450MOL0     O60639   6.205   5.393   6.376 -0.0625  0.0543  0.4860
  450MOL0     C60640   6.230   5.421   6.510 -0.6592  0.2475 -0.2529
  450MOL0     C60641   6.197   5.316   6.600  1.0030 -0.3124 -0.5033
  450MOL0     C60642   6.220   5.330   6.739  0.2435 -0.4765  0.4711
  450MOL0     C60643   6.189   5.223   6.837  0.0529 -0.2367 -0.6850
  450MOL0     C60644   6.293   5.452   6.776  0.3607 -0.7182  0.7428
  450MOL0     C60645   6.338   5.464   6.911  1.4378 -0.4854 -0.5221
  450MOL0     O60646   6.250   5.479   7.010  0.1901 -0.1001  0.0687
  450MOL0     C60647   6.292   5.486   7.140  0.4658 -0.4802 -0.0126
  450MOL0     C60648   6.306   5.372   7.216  0.1571  0.9294 -0.0187
  450MOL0     C60649   6.330   5.383   7.351 -0.2382  0.0102  0.5595
  450MOL0     C60650   6.355   5.499   7.415  0.4592 -0.4062  0.6767
  450MOL0     O60651   6.389   5.504   7.549  0.7072  0.3848  1.1874
  450MOL0     C60652   6.356   5.623   7.617 -0.0891  0.1502  0.2856
  450MOL0     C60653   6.346   5.605   7.770  0.3076  0.1950  0.0436
  450MOL0     C60654   6.213   5.530   7.812 -0.1705  0.1835  0.0027
  450MOL0     C60655   6.193   5.547   7.964 -0.0723 -0.1480 -0.0730
  450MOL0     C60656   6.081   5.454   8.007  0.2007 -0.3613 -0.7702
  450MOL0     C60657   6.055   5.473   8.157  0.0111 -0.1981 -1.1244
  450MOL0     C60658   5.941   5.385   8.199 -0.6289  0.6972 -0.4303
  450MOL0     C60659   5.840   5.443   8.292 -0.7492 -0.8936 -0.0876
  450MOL0    Cl60660   5.906   5.422   8.456  0.3998 -0.4004 -0.3983
  450MOL0     C60661   6.347   5.614   7.331  0.0212 -0.1576  1.1096
  450MOL0     C60662   6.307   5.607   7.198  0.2233 -0.1855 -0.1236
  450MOL0     O60663   6.456   5.444   6.931  0.3607  0.5046  0.2831
  450MOL0     C60664   6.325   5.552   6.680  1.0167  0.4676 -0.7487
  450MOL0     C60665   6.283   5.538   6.552  0.4942 -0.1883  0.7827
  450MOL0     N60666   5.833   5.487   5.929  0.0225  0.8872  0.5545
  450MOL0     N60667   5.735   5.545   5.879  0.4826  0.3356  0.4720
  450MOL0     C60668   6.312   5.894   5.419  0.3428  0.8538  0.1929
  450MOL0     C60669   6.368   5.902   5.548 -1.1560  0.1881 -0.1272
  450MOL0     C60670   6.385   5.860   6.009 -0.5842  0.5761  0.4155
  450MOL0     C60671   6.359   5.986   6.078  0.1234  0.1272  0.9647
  450MOL0     C60672   6.390   6.004   6.221  0.3520 -0.2350 -0.1694
  450MOL0     C60673   6.449   5.901   6.299 -0.2892  1.4952  0.1726
  450MOL0     O60674   6.462   5.914   6.438  0.1819 -0.1942 -0.3837
  450MOL0     C60675   6.552   6.017   6.487  0.4144  0.1803  0.1974
  450MOL0     C60676   6.566   5.992   6.637 -0.3663 -0.3711  0.4013
  450MOL0     C60677   6.418   5.989   6.700  0.5951  0.0265 -0.4304
  450MOL0     C60678   6.435   6.019   6.854 -0.1894  0.0585 -0.3159
  450MOL0     C60679   6.520   5.927   6.929 -0.5821 -0.2829  0.1407
  450MOL0     C60680   6.586   5.837   6.980  0.3607 -0.1005  0.1416
  450MOL0     C60681   6.469   5.784   6.232 -0.2679  0.0158 -0.2495
  450MOL0     C60682   6.451   5.769   6.091 -0.0110  0.6078 -0.2202
  450MOL0     H60683   6.089   5.909   5.737 -1.3990 -3.3169 -1.4376
  450MOL0     H60684   5.985   5.890   5.529 -0.4790 -2.2635 -0.2060
  450MOL0     H60685   6.273   5.752   5.184 -1.2775 -0.0747 -0.6950
  450MOL0     H60686   6.195   5.677   5.317 -0.9603  1.4099  0.8748
  450MOL0     H60687   6.100   5.728   5.029 -0.4457 -0.4231 -0.4516
  450MOL0     H60688   6.137   5.578   5.117  1.9819  0.3043  0.6761
  450MOL0     H60689   5.908   5.761   5.198 -1.8290 -1.1755  3.2373
  450MOL0     H60690   5.884   5.613   5.089 -0.3566  1.4312 -0.1459
  450MOL0     H60691   5.906   5.456   5.287 -1.2968  0.2702 -1.1346
  450MOL0     H60692   5.997   5.582   5.370 -1.0664  1.2754  2.1486
  450MOL0     H60693   5.806   5.709   5.410  1.5635 -0.2004  0.2423
  450MOL0     H60694   5.709   5.624   5.305  0.3123  1.7328 -0.2475
  450MOL0     H60695   5.709   5.414   5.440 -2.6840  1.3452 -0.2003
  450MOL0     H60696   5.842   5.489   5.536 -0.7925  3.0938  0.5925
  450MOL0     H60697   5.548   5.601   5.528  2.1193  0.3926 -2.5667
  450MOL0     H60698   5.603   5.473   5.638 -0.6387 -0.6852  0.5027
  450MOL0     H60699   5.601   5.708   5.738  0.3202  2.9630 -1.6585
  450MOL0     H60700   5.717   5.743   5.618 -1.4695  2.2052  0.7064
  450MOL0     H60701   5.996   5.664   5.700  0.8183  0.5827  1.1320
  450MOL0     H60702   6.050   5.366   5.929  0.3840  0.0006 -1.3159
  450MOL0     H60703   6.146   5.461   5.811  1.6723 -0.3645  1.1672
  450MOL0     H60704   6.134   5.633   6.032 -0.7721 -1.7057  2.4342
  450MOL0     H60705   6.267   5.537   5.994 -0.1171  1.4753 -0.8708
  450MOL0     H60706   6.199   5.333   6.120 -1.1099 -1.0546  1.1939
  450MOL0     H60707   6.050   5.420   6.170  0.1187 -0.1360 -0.0229
  450MOL0     H60708   6.202   5.584   6.292  3.7466  0.6651 -0.7488
  450MOL0     H60709   6.340   5.491   6.258  0.4429  1.2607  1.0528
  450MOL0     H60710   6.157   5.218   6.575 -0.4612  0.3189 -0.7863
  450MOL0     H60711   6.243   5.130   6.817  0.6120 -0.3721  1.2081
  450MOL0     H60712   6.217   5.247   6.940  1.0427 -2.2811 -0.4170
  450MOL0     H60713   6.082   5.198   6.841  0.1110 -0.4039  0.1903
  450MOL0     H60714   6.283   5.273   7.180 -3.5366  0.3140  3.3007
  450MOL0     H60715   6.341   5.288   7.401  1.2707  0.7273  1.6700
  450MOL0     H60716   6.439   5.693   7.606  0.2309 -0.5144 -1.9830
  450MOL0     H60717   6.266   5.670   7.576 -0.7454  1.0062  2.5567
  450MOL0     H60718   6.428   5.554   7.822 -0.4290  0.2424  1.3072
  450MOL0     H60719   6.359   5.700   7.824  0.7904  0.1202  0.0695
  450MOL0     H60720   6.220   5.421   7.803 -1.1798 -0.0254  1.4279
  450MOL0     H60721   6.134   5.582   7.757  1.4410  0.4293 -2.2366
  450MOL0     H60722   6.279   5.533   8.030  0.3728 -2.3886 -1.0253
  450MOL0     H60723   6.166   5.651   7.982 -0.6689  0.1422 -2.3174
  450MOL0     H60724   6.113   5.350   7.993  1.9511  0.4913 -3.9431
  450MOL0     H60725   5.986   5.477   7.957 -1.0118 -1.3505  0.9619
  450MOL0     H60726   6.143   5.462   8.222 -0.2685  4.0378  0.3353
  450MOL0     H60727   6.021   5.576   8.171 -0.0846 -0.5733  2.5103
  450MOL0     H60728   5.979   5.291   8.239 -2.2161  0.1326 -0.1560
  450MOL0     H60729   5.877   5.363   8.113 -2.3534 -1.3609  1.2540
  450MOL0     H60730   5.743   5.397   8.274 -0.3668 -1.0979 -1.8025
  450MOL0     H60731   5.824   5.547   8.262 -1.8191  1.0126  5.8487
  450MOL0     H60732   6.376   5.717   7.350  2.1229 -0.9810  2.7506
  450MOL0     H60733   6.318   5.693   7.132 -0.7887  0.5862  0.6655
  450MOL0     H60734   6.389   5.628   6.724 -1.0755  0.8156  2.0294
  450MOL0     H60735   6.314   5.610   6.477  3.0304 -2.9246 -1.0276
  450MOL0     H60736   6.368   5.891   5.326 -0.4965 -0.8024 -0.2999
  450MOL0     H60737   6.473   5.882   5.567 -2.0301 -4.7209  0.6460
  450MOL0     H60738   6.321   6.074   6.026 -0.6038  0.9089  2.7226
  450MOL0     H60739   6.368   6.093   6.279  1.1573  0.6856 -1.2341
  450MOL0     H60740   6.649   6.000   6.439 -0.8618  1.3966 -3.1221
  450MOL0     H60741   6.520   6.120   6.466 -0.7269  0.2533  2.1176
  450MOL0     H60742   6.615   6.079   6.683  0.3571 -0.6436  0.1529
  450MOL0     H60743   6.628   5.905   6.659 -1.1260 -1.1369 -0.4027
  450MOL0     H60744   6.374   5.893   6.669 -0.9313 -0.8763  3.8555
  450MOL0     H60745   6.364   6.067   6.646 -1.2296 -0.6930  0.2633
  450MOL0     H60746   6.344   6.035   6.913  1.1738 -0.9755  2.2275
  450MOL0     H60747   6.501   6.105   6.865  3.2698 -2.5522  1.3146
  450MOL0     H60748   6.638   5.758   7.031  0.3592 -1.8606 -2.3775
  450MOL0     H60749   6.489   5.697   6.293  0.1617 -0.2386 -0.7489
  450MOL0     H60750   6.480   5.672   6.051  2.6405  0.8971  0.7835
  451MOL0     O60751   1.205   0.064   0.599 -0.2368  0.4397  0.0651
  451MOL0     C60752   1.283   0.162   0.619  0.0532 -0.5747 -0.1576
  451MOL0     O60753   1.268   0.237   0.738 -0.5935 -0.0901  0.2759
  451MOL0     C60754   1.172   0.221   0.834 -0.0532 -0.1502 -0.2218
  451MOL0     C60755   1.043   0.259   0.805  0.4428 -0.3485  0.5069
  451MOL0     C60756   0.930   0.262   0.895  0.6109  0.1361 -0.1975
  451MOL0     C60757   0.958   0.212   1.024 -0.0639 -0.5640  0.4473
  451MOL0     O60758   0.859   0.214   1.121 -0.3237  0.6675  0.4436
  451MOL0     C60759   0.769   0.106   1.105  0.0566 -0.6468 -1.1744
  451MOL0     C60760   0.649   0.133   1.199 -0.3272  0.1479 -0.6431
  451MOL0     C60761   0.688   0.103   1.346  0.2915 -0.2488  0.0064
  451MOL0     C60762   0.800   0.190   1.394  0.6294 -0.5089 -0.0682
  451MOL0     C60763   0.814   0.210   1.549 -0.0422  0.0611  0.5316
  451MOL0     C60764   0.944   0.271   1.593 -0.2097 -0.0521  0.2486
  451MOL0     C60765   0.960   0.304   1.742  1.0589 -0.7875  0.0546
  451MOL0     C60766   0.887   0.435   1.778  1.1072  0.0858  1.0828
  451MOL0     N60767   0.894   0.459   1.920  0.5748  0.0793  0.7063
  451MOL0     C60768   0.814   0.540   1.987  0.1209 -0.1753 -0.3223
  451MOL0     C60769   0.865   0.562   2.116 -0.2973 -0.1274 -0.3513
  451MOL0     C60770   0.827   0.652   2.228 -0.5359 -0.4744  0.2994
  451MOL0     C60771   0.913   0.668   2.350 -0.4004 -0.2024  0.0749
  451MOL0     C60772   0.854   0.757   2.460  0.1535  0.0612  0.9765
  451MOL0     C60773   0.838   0.907   2.425 -0.5375  0.4784  0.2017
  451MOL0     O60774   0.770   0.990   2.528 -0.4543  0.1572  0.2280
  451MOL0     C60775   0.855   1.062   2.618 -0.1468 -0.2708  0.1848
  451MOL0     C60776   0.991   1.038   2.634 -0.1228  0.0106 -0.6755
  451MOL0     C60777   1.073   1.118   2.721  0.0272  1.1369  0.7424
  451MOL0     C60778   1.216   1.076   2.724 -0.0383 -0.3630  0.9319
  451MOL0     C60779   1.024   1.234   2.778 -1.0659 -0.0631 -0.3727
  451MOL0     C60780   1.103   1.322   2.874 -0.1004  0.3986  0.4644
  451MOL0     O60781   1.040   1.434   2.899  1.0202 -0.7706  0.2458
  451MOL0     C60782   1.096   1.514   2.997 -0.8758  0.6347 -0.0948
  451MOL0     C60783   1.072   1.483   3.130  0.6029 -0.5669  1.0330
  451MOL0     C60784   1.146   1.533   3.232  0.0902 -0.5044  0.0044
  451MOL0     C60785   1.242   1.632   3.210 -0.3673 -0.2789 -0.6636
  451MOL0     O60786   1.320   1.696   3.304  0.0406  0.0868  0.2578
  451MOL0     C60787   1.283   1.704   3.441 -0.0797 -0.3991 -0.3033
  451MOL0     C60788   1.157   1.796   3.448  0.3136  0.6508  0.3637
  451MOL0     C60789   1.073   1.761   3.573  0.4788  0.2029  0.0100
  451MOL0     C60790   0.937   1.840   3.561 -0.5111 -0.1267 -0.3708
  451MOL0     C60791   0.839   1.794   3.673 -0.8755 -0.1144  0.2677
  451MOL0     C60792   0.686   1.842   3.643 -1.0666  0.7503 -0.1349
  451MOL0     C60793   0.589   1.785   3.745  0.4569  0.6305 -0.0086
  451MOL0     C60794   0.525   1.898   3.842 -0.6695 -0.1244 -0.0223
  451MOL0    Cl60795   0.422   2.008   3.744 -0.0976 -0.5168  0.5400
  451MOL0     C60796   1.272   1.658   3.080  0.0519 -0.5237  0.1463
  451MOL0     C60797   1.203   1.597   2.978  1.0478 -0.0851  0.4650
  451MOL0     O60798   1.207   1.276   2.924  0.5266  0.1162 -0.1806
  451MOL0     C60799   0.889   1.255   2.760 -0.8339 -0.3710  0.4739
  451MOL0     C60800   0.806   1.172   2.684 -0.3065  0.6252 -0.2625
  451MOL0     N60801   0.996   0.506   2.100 -0.6128 -0.3667 -0.2035
  451MOL0     N60802   1.016   0.461   1.983  0.2166  0.5613 -0.6351
  451MOL0     C60803   1.088   0.150   1.055  0.9502 -1.1173  0.1298
  451MOL0     C60804   1.188   0.154   0.960  0.5553  0.6721  0.2008
  451MOL0     C60805   1.393   0.203   0.524 -0.1519  0.6202  0.5957
  451MOL0     C60806   1.506   0.260   0.577 -0.6545  0.0018  0.0465
  451MOL0     C60807   1.609   0.280   0.485  0.1645  0.8845 -0.3746
  451MOL0     C60808   1.599   0.255   0.352  0.2020 -0.2224  1.1125
  451MOL0     O60809   1.693   0.271   0.255  0.0470 -0.0618 -0.3452
  451MOL0     C60810   1.818   0.314   0.295  0.5513  0.2852  0.5453
  451MOL0     C60811   1.909   0.214   0.370  1.1612  0.8242 -0.2335
  451MOL0     C60812   1.877   0.065   0.326  0.0647  0.1770  0.3764
  451MOL0     C60813   1.986  -0.034   0.368  0.5987  0.0594 -0.3392
  451MOL0     C60814   1.977  -0.032   0.519 -0.1430 -0.7351  0.5307
  451MOL0     C60815   1.977  -0.031   0.641  0.7214  0.8034  0.0240
  451MOL0     C60816   1.481   0.191   0.304 -0.7727 -1.0607 -0.0933
  451MOL0     C60817   1.364   0.179   0.391 -0.1384  0.8776  0.5333
  451MOL0     H60818   1.033   0.300   0.705 -1.7475  1.6919  1.4763
  451MOL0     H60819   0.840   0.317   0.867  0.9119  1.7753  1.8400
  451MOL0     H60820   0.726   0.101   1.005 -1.2365 -0.6591 -0.6399
  451MOL0     H60821   0.810   0.008   1.134 -3.5553 -1.6518  1.1803
  451MOL0     H60822   0.611   0.235   1.189  2.4845  1.5306  1.4598
  451MOL0     H60823   0.554   0.081   1.182 -1.2035  1.4531  0.0487
  451MOL0     H60824   0.601   0.137   1.402  0.3076 -3.0762  1.9482
  451MOL0     H60825   0.707  -0.003   1.368 -0.5696 -0.4688 -0.2748
  451MOL0     H60826   0.897   0.148   1.365 -0.4829 -1.9450 -1.9041
  451MOL0     H60827   0.790   0.295   1.363  0.8706 -0.4047  0.2000
  451MOL0     H60828   0.724   0.265   1.577 -0.9887 -1.2346  0.0717
  451MOL0     H60829   0.800   0.109   1.588 -0.7120  0.5621  1.6351
  451MOL0     H60830   1.030   0.208   1.566  0.2389  1.2789 -1.6028
  451MOL0     H60831   0.975   0.355   1.530  5.5128 -1.1880  0.9176
  451MOL0     H60832   0.921   0.227   1.809 -3.2379  1.7719  0.9232
  451MOL0     H60833   1.065   0.308   1.771  0.9253  0.3679  0.4400
  451MOL0     H60834   0.780   0.430   1.759  1.3125 -0.9092  0.0983
  451MOL0     H60835   0.937   0.521   1.731  0.3256 -0.2494 -0.4143
  451MOL0     H60836   0.714   0.567   1.953  0.7841 -0.6483 -2.8572
  451MOL0     H60837   0.836   0.749   2.179 -1.9068 -0.7448 -0.5513
  451MOL0     H60838   0.724   0.634   2.258  0.0101 -3.2232  0.8123
  451MOL0     H60839   1.010   0.712   2.323 -0.7057 -0.5519 -1.6795
  451MOL0     H60840   0.928   0.567   2.390 -3.2392 -0.4540  0.6766
  451MOL0     H60841   0.938   0.762   2.530  2.1878  2.0536 -1.4233
  451MOL0     H60842   0.761   0.719   2.504  0.9273  0.8279  3.4270
  451MOL0     H60843   0.765   0.904   2.344  0.8495 -1.2079 -1.0547
  451MOL0     H60844   0.934   0.943   2.386 -2.7381  3.6132 -3.0048
  451MOL0     H60845   1.038   0.946   2.602 -1.2375 -0.1009 -2.0668
  451MOL0     H60846   1.279   1.163   2.703  0.8185 -0.9054  1.2506
  451MOL0     H60847   1.238   1.022   2.816  2.6710  0.8274  1.0788
  451MOL0     H60848   1.235   1.006   2.643 -0.4091 -0.3605  0.8415
  451MOL0     H60849   0.999   1.402   3.133  0.4576 -0.4854  0.0819
  451MOL0     H60850   1.124   1.511   3.336 -1.7154 -1.6568 -0.5666
  451MOL0     H60851   1.265   1.601   3.472  0.3901 -0.2373  0.5283
  451MOL0     H60852   1.371   1.747   3.489  1.3396  2.7170 -4.9452
  451MOL0     H60853   1.188   1.901   3.442  0.4565  0.5939  0.1015
  451MOL0     H60854   1.092   1.776   3.363 -2.2012  1.2277  2.0515
  451MOL0     H60855   1.117   1.793   3.667  1.3475  1.4309 -0.7834
  451MOL0     H60856   1.039   1.657   3.569 -0.0679  0.3623  0.4010
  451MOL0     H60857   0.952   1.947   3.578  1.5329 -0.1169 -1.8464
  451MOL0     H60858   0.908   1.807   3.461 -0.0461  0.8512 -0.8480
  451MOL0     H60859   0.881   1.836   3.765  1.1070  1.1108 -1.1333
  451MOL0     H60860   0.846   1.686   3.686 -1.4499 -0.0829  0.9465
  451MOL0     H60861   0.674   1.950   3.638 -1.4425  0.6868 -0.7991
  451MOL0     H60862   0.667   1.798   3.544 -0.1254 -0.2701  0.1149
  451MOL0     H60863   0.630   1.703   3.806 -0.3260  0.3012  0.0920
  451MOL0     H60864   0.498   1.750   3.697 -1.4877  1.6131  2.7082
  451MOL0     H60865   0.600   1.963   3.888  0.4949  1.3251 -3.6584
  451MOL0     H60866   0.482   1.847   3.929 -0.9581  1.1452  0.5944
  451MOL0     H60867   1.345   1.737   3.068 -1.9867  1.6170  1.0554
  451MOL0     H60868   1.233   1.618   2.876 -0.8806  1.8789  0.2196
  451MOL0     H60869   0.844   1.332   2.822  2.2161 -0.5974  3.2556
  451MOL0     H60870   0.702   1.198   2.669 -0.2107 -0.3524 -3.2514
  451MOL0     H60871   1.109   0.099   1.149 -1.2033 -0.1385  1.2323
  451MOL0     H60872   1.287   0.113   0.979  1.2640  1.9092 -0.6716
  451MOL0     H60873   1.527   0.279   0.682 -0.0548 -1.2145  0.1548
  451MOL0     H60874   1.702   0.317   0.527  0.8298  0.0017 -1.0332
  451MOL0     H60875   1.877   0.356   0.213 -0.8380  1.7273  0.2273
  451MOL0     H60876   1.808   0.402   0.360  0.3011  0.0319  0.8504
  451MOL0     H60877   1.877   0.229   0.473 -0.9128  3.3498 -1.1350
  451MOL0     H60878   2.013   0.233   0.343  0.2134  1.9089 -3.6519
  451MOL0     H60879   1.869   0.059   0.217  1.6751 -3.8222  0.3233
  451MOL0     H60880   1.780   0.056   0.377 -0.2256 -2.3574 -0.4884
  451MOL0     H60881   2.085  -0.028   0.324  0.9193  0.9545  0.4691
  451MOL0     H60882   1.945  -0.133   0.343 -0.8044 -0.4902  3.4339
  451MOL0     H60883   1.973  -0.037   0.748  1.9429 -4.8987  0.1014
  451MOL0     H60884   1.464   0.159   0.201  0.1449 -1.4328 -0.1378
  451MOL0     H60885   1.272   0.134   0.357  0.0869 -0.3735  1.5264
  452MOL0     O60886   4.446   9.758   3.223 -0.3426 -0.1479  0.3899
  452MOL0     C60887   4.426   9.662   3.145  0.4326 -0.0673  0.5021
  452MOL0     O60888   4.521   9.565   3.105 -0.4485  0.0230  0.1154
  452MOL0     C60889   4.630   9.558   3.191 -0.7490  0.6456 -0.0243
  452MOL0     C60890   4.733   9.653   3.179 -0.9380  0.5351  0.0358
  452MOL0     C60891   4.839   9.632   3.272 -0.3765  0.5033  1.2312
  452MOL0     C60892   4.841   9.531   3.359 -0.2674 -0.2491 -0.8194
  452MOL0     O60893   4.951   9.532   3.445  0.5991 -0.3612 -0.2776
  452MOL0     C60894   5.008   9.409   3.471  0.4676  1.5207  0.1096
  452MOL0     C60895   5.167   9.425   3.470 -0.3354 -0.2271  0.8875
  452MOL0     C60896   5.228   9.537   3.548 -0.0926 -0.1727  0.3526
  452MOL0     C60897   5.198   9.511   3.700 -0.2402 -1.1111  0.4395
  452MOL0     C60898   5.287   9.608   3.780 -0.1169  0.2438 -0.2097
  452MOL0     C60899   5.441   9.598   3.766 -0.5336 -0.0969  0.3259
  452MOL0     C60900   5.502   9.577   3.908 -0.0929  0.1324 -0.4228
  452MOL0     C60901   5.651   9.589   3.897 -0.0104  0.1045  0.1379
  452MOL0     N60902   5.725   9.587   4.024 -1.5025 -0.6991 -0.3297
  452MOL0     C60903   5.718   9.691   4.114 -0.0394  0.6869  0.5080
  452MOL0     C60904   5.802   9.646   4.210  0.0606 -0.0089 -0.7770
  452MOL0     C60905   5.865   9.722   4.325 -0.8775  0.1473 -0.7573
  452MOL0     C60906   6.003   9.772   4.286  0.8664  0.6094  0.0647
  452MOL0     C60907   6.002   9.867   4.169  0.2401  0.0345 -0.0145
  452MOL0     C60908   6.136   9.932   4.160  0.5509  0.7803  0.5593
  452MOL0     O60909   6.255   9.855   4.158  0.1572  0.1885  0.2832
  452MOL0     C60910   6.295   9.793   4.039  0.8671 -0.6420  0.3687
  452MOL0     C60911   6.217   9.789   3.922 -0.0228  0.1467  0.0087
  452MOL0     C60912   6.251   9.713   3.807 -0.1881  0.1437 -0.3694
  452MOL0     C60913   6.150   9.707   3.698  0.2560  0.2682 -0.6044
  452MOL0     C60914   6.371   9.639   3.809 -0.2999  0.1704  0.1501
  452MOL0     C60915   6.404   9.555   3.689 -0.2702 -0.3125  1.0895
  452MOL0     O60916   6.525   9.496   3.706 -0.4247  1.0222  0.2838
  452MOL0     C60917   6.553   9.415   3.608  0.5994  1.0401 -0.8072
  452MOL0     C60918   6.474   9.300   3.574  0.5494  0.5298 -0.1319
  452MOL0     C60919   6.495   9.227   3.459  0.3280 -0.2765 -1.0688
  452MOL0     C60920   6.599   9.259   3.367 -0.5700 -0.3072 -0.1329
  452MOL0     O60921   6.618   9.195   3.246 -0.3914  0.3775  0.5195
  452MOL0     C60922   6.654   9.272   3.134 -0.4926  0.4011 -0.3628
  452MOL0     C60923   6.799   9.249   3.074  0.1804  0.3751 -0.2602
  452MOL0     C60924   6.843   9.099   3.073  0.7029  0.4933  0.4550
  452MOL0     C60925   6.749   9.009   2.991 -0.0162 -1.4165  0.2032
  452MOL0     C60926   6.790   8.871   3.008 -0.0433 -0.5817 -0.4725
  452MOL0     C60927   6.713   8.786   2.900  0.6161 -0.2113  0.8243
  452MOL0     C60928   6.773   8.652   2.886  0.5046 -0.0969  0.5828
  452MOL0     C60929   6.679   8.542   2.849  0.6632 -0.6512 -0.7579
  452MOL0    Cl60930   6.637   8.544   2.673 -0.3367  0.1813 -0.8046
  452MOL0     C60931   6.687   9.370   3.408  0.7350  0.1721  0.1810
  452MOL0     C60932   6.657   9.443   3.521 -0.4527  0.5686 -0.2952
  452MOL0     O60933   6.347   9.572   3.580  0.9281 -0.6365 -0.3066
  452MOL0     C60934   6.454   9.652   3.917 -1.3726 -0.1732 -0.0660
  452MOL0     C60935   6.424   9.732   4.033 -0.3493  0.8618  0.4311
  452MOL0     N60936   5.839   9.516   4.180 -0.1575  1.0310 -0.6604
  452MOL0     N60937   5.798   9.477   4.065  0.2737 -1.2744 -0.9902
  452MOL0     C60938   4.737   9.434   3.372 -0.2843 -0.3228  1.2021
  452MOL0     C60939   4.632   9.450   3.277  0.5381  0.0095 -0.2814
  452MOL0     C60940   4.291   9.648   3.078  1.0781  1.1952 -0.4027
  452MOL0     C60941   4.200   9.757   3.093  0.7049  0.5908 -0.5831
  452MOL0     C60942   4.065   9.755   3.039 -0.0341 -0.4432 -0.2110
  452MOL0     C60943   4.031   9.645   2.961  1.2573 -0.2942 -0.1323
  452MOL0     O60944   3.908   9.639   2.892 -0.1083  0.3906  0.4033
  452MOL0     C60945   3.865   9.755   2.819 -0.1586  1.0281 -0.0941
  452MOL0     C60946   3.863   9.730   2.666 -0.1923  0.3474  0.0009
  452MOL0     C60947   3.778   9.606   2.634 -0.8049 -0.5493 -0.3194
  452MOL0     C60948   3.759   9.598   2.480 -0.5490 -0.0077  0.0106
  452MOL0     C60949   3.636   9.669   2.437  0.2149 -0.0275  1.6541
  452MOL0     C60950   3.527   9.710   2.389 -0.1000 -0.5944 -0.8733
  452MOL0     C60951   4.119   9.535   2.937 -0.1753  0.3443 -0.7104
  452MOL0     C60952   4.246   9.535   3.002 -0.7519 -0.6508 -0.1683
  452MOL0     H60953   4.743   9.725   3.097  1.2160  0.1637 -0.0818
  452MOL0     H60954   4.932   9.689   3.268  0.7527 -1.2934 -2.0543
  452MOL0     H60955   4.983   9.365   3.568  0.1426 -1.5555 -1.2402
  452MOL0     H60956   4.976   9.327   3.406 -0.6764  0.4009  2.0095
  452MOL0     H60957   5.217   9.335   3.506 -1.9771 -0.7361  2.0365
  452MOL0     H60958   5.192   9.441   3.365  1.1411  2.4868  1.5637
  452MOL0     H60959   5.334   9.546   3.520 -0.0241  2.4571  1.2688
  452MOL0     H60960   5.187   9.633   3.518  0.5522 -0.2044 -0.6974
  452MOL0     H60961   5.093   9.528   3.723  0.3246  3.6072  0.4516
  452MOL0     H60962   5.226   9.407   3.718  0.7352 -1.7671 -3.8131
  452MOL0     H60963   5.272   9.709   3.741 -0.8994  0.0954 -0.3091
  452MOL0     H60964   5.258   9.596   3.884  0.0410 -1.3151 -0.3268
  452MOL0     H60965   5.465   9.513   3.701 -0.6269 -0.1145  0.3144
  452MOL0     H60966   5.468   9.688   3.711 -2.0239 -0.7264 -1.5296
  452MOL0     H60967   5.468   9.653   3.978  1.3049  0.9327 -0.5866
  452MOL0     H60968   5.474   9.480   3.951 -2.3736  0.3849 -1.1740
  452MOL0     H60969   5.678   9.688   3.860 -0.1914  0.6643  1.4300
  452MOL0     H60970   5.685   9.501   3.841  1.3253 -0.9895  2.5048
  452MOL0     H60971   5.673   9.789   4.106 -1.7561 -0.1499 -0.7141
  452MOL0     H60972   5.796   9.799   4.362 -1.1028  0.2463 -1.3674
  452MOL0     H60973   5.868   9.652   4.409 -6.1129  1.8661  1.2999
  452MOL0     H60974   6.058   9.681   4.259 -0.6938 -0.0119 -1.1173
  452MOL0     H60975   6.048   9.805   4.380  0.8559 -0.0139  0.2893
  452MOL0     H60976   5.920   9.939   4.176 -0.1457 -0.1362 -2.0665
  452MOL0     H60977   5.974   9.817   4.075 -0.0388  1.0945 -0.5118
  452MOL0     H60978   6.141   9.998   4.248 -0.8701  0.7399  0.7081
  452MOL0     H60979   6.141   9.995   4.071 -1.5692  0.3150  0.0547
  452MOL0     H60980   6.130   9.854   3.919  0.3830  0.8845  2.4231
  452MOL0     H60981   6.066   9.762   3.742  0.6253 -0.0893  0.5842
  452MOL0     H60982   6.207   9.754   3.618  1.4153  1.8411  1.0711
  452MOL0     H60983   6.119   9.605   3.671 -0.0406  0.4159 -0.8372
  452MOL0     H60984   6.388   9.274   3.635  1.4519 -1.6676  0.2849
  452MOL0     H60985   6.436   9.137   3.445 -0.1398 -0.0931 -0.2999
  452MOL0     H60986   6.581   9.242   3.058  1.0504  0.3997 -1.9013
  452MOL0     H60987   6.629   9.376   3.156 -0.3976  0.3890 -0.1968
  452MOL0     H60988   6.782   9.286   2.972 -0.3298 -0.0024 -0.3165
  452MOL0     H60989   6.872   9.317   3.118 -0.1745  1.0335 -0.6731
  452MOL0     H60990   6.836   9.058   3.174 -0.2827 -2.0690 -0.5710
  452MOL0     H60991   6.946   9.107   3.036  0.8566  3.8988  1.2481
  452MOL0     H60992   6.646   9.017   3.027 -0.2280 -0.5525 -0.5622
  452MOL0     H60993   6.767   9.027   2.884  2.5613  0.2259  0.8337
  452MOL0     H60994   6.762   8.838   3.108  1.2929 -2.2750 -0.6201
  452MOL0     H60995   6.899   8.862   3.000  0.1333  0.8820 -0.0872
  452MOL0     H60996   6.608   8.783   2.931  0.6940 -1.4189  1.0042
  452MOL0     H60997   6.705   8.836   2.803 -3.2348  0.8995  1.5065
  452MOL0     H60998   6.805   8.618   2.985  0.8349  0.4848  0.6773
  452MOL0     H60999   6.853   8.660   2.812 -0.0830 -1.2846 -0.2016
  452MOL0     H61000   6.584   8.528   2.901  1.4734 -2.4404  0.3506
  452MOL0     H61001   6.735   8.448   2.862  1.1690 -0.1761  0.6337
  452MOL0     H61002   6.772   9.403   3.349 -0.2565 -0.8030 -1.8925
  452MOL0     H61003   6.701   9.539   3.549 -0.0945  0.7843 -1.5428
  452MOL0     H61004   6.550   9.601   3.923 -1.0457  0.3448 -0.7518
  452MOL0     H61005   6.483   9.737   4.124 -0.6067  4.2390  0.5715
  452MOL0     H61006   4.743   9.350   3.440 -0.4739 -1.6742 -0.3841
  452MOL0     H61007   4.542   9.389   3.273 -1.6440  3.1112 -3.0786
  452MOL0     H61008   4.228   9.844   3.151 -0.7094  0.9912 -0.4712
  452MOL0     H61009   4.010   9.849   3.036  1.6208  0.5592 -0.6913
  452MOL0     H61010   3.771   9.798   2.853 -0.5330  1.5226 -1.6346
  452MOL0     H61011   3.930   9.842   2.832 -0.8784  1.0666  4.7404
  452MOL0     H61012   3.963   9.705   2.629 -1.9344 -4.8103 -2.1552
  452MOL0     H61013   3.822   9.816   2.613 -0.1266 -0.9893 -2.3399
  452MOL0     H61014   3.680   9.611   2.682 -0.2089 -0.3971  0.9348
  452MOL0     H61015   3.830   9.518   2.674  0.3894 -0.9068 -2.5251
  452MOL0     H61016   3.747   9.492   2.456  1.2394  0.3164 -2.8159
  452MOL0     H61017   3.847   9.631   2.424  1.0888 -0.3120  2.2562
  452MOL0     H61018   3.447   9.756   2.336  0.3174  2.5172  0.9535
  452MOL0     H61019   4.095   9.461   2.861  0.9642  0.9636 -1.6980
  452MOL0     H61020   4.314   9.452   2.984 -1.5983 -1.2829 -0.4969
  453MOL0     O61021   9.987  11.117   6.140  0.5591  0.4649  0.5547
  453MOL0     C61022   9.910  11.207   6.136 -0.5071 -0.5379 -0.0853
  453MOL0     O61023   9.865  11.284   6.246  0.0101 -0.2061  0.4186
  453MOL0     C61024   9.900  11.252   6.369 -0.7377  1.1377  0.5341
  453MOL0     C61025   9.991  11.337   6.445 -0.1112 -0.1751 -0.1461
  453MOL0     C61026  10.045  11.307   6.575 -0.0158 -0.3968  0.4732
  453MOL0     C61027   9.995  11.188   6.629  0.9713  0.3336 -1.1655
  453MOL0     O61028  10.026  11.152   6.758  0.3703  0.0199  0.5960
  453MOL0     C61029  10.154  11.094   6.760 -0.7545 -0.3989 -0.9349
  453MOL0     C61030  10.193  11.030   6.893  1.0329  0.1647 -0.6108
  453MOL0     C61031  10.095  10.904   6.912 -0.0697 -0.8909 -0.0357
  453MOL0     C61032  10.141  10.828   7.035  0.2128  0.2659  0.2928
  453MOL0     C61033  10.024  10.843   7.136  0.9171 -0.5381 -0.0880
  453MOL0     C61034  10.053  10.781   7.276 -1.1985 -0.3486 -0.2609
  453MOL0     C61035  10.174  10.839   7.365  0.5015 -0.5647  0.5534
  453MOL0     C61036  10.121  10.938   7.468 -1.2953 -0.4333  1.0935
  453MOL0     N61037  10.035  10.895   7.570  0.0902  0.3079  0.2379
  453MOL0     C61038  10.057  10.790   7.653 -0.3415  0.4977  0.1547
  453MOL0     C61039   9.940  10.771   7.712  0.5872 -0.5895 -0.3485
  453MOL0     C61040   9.911  10.658   7.814  0.3112  0.0796  0.0613
  453MOL0     C61041   9.825  10.554   7.755 -0.0658 -0.1758  0.7539
  453MOL0     C61042   9.797  10.431   7.840  0.2145  0.5449 -0.5132
  453MOL0     C61043   9.760  10.306   7.773 -0.8485 -0.0878  0.0833
  453MOL0     O61044   9.625  10.313   7.720  0.8809 -0.5243 -0.1822
  453MOL0     C61045   9.585  10.238   7.612  0.1731  0.1011 -0.5294
  453MOL0     C61046   9.462  10.264   7.560  0.4514  0.3472 -0.3958
  453MOL0     C61047   9.400  10.189   7.463  0.9692  0.1489 -0.2309
  453MOL0     C61048   9.252  10.223   7.415 -0.3261 -0.5445 -0.4036
  453MOL0     C61049   9.477  10.088   7.403  0.0450 -0.3450 -0.3764
  453MOL0     C61050   9.441   9.998   7.290 -0.2148  0.3895 -0.4533
  453MOL0     O61051   9.327  10.035   7.217 -0.0267  0.2518 -0.3794
  453MOL0     C61052   9.271   9.940   7.133 -0.0782 -0.1870 -0.4452
  453MOL0     C61053   9.287   9.959   7.000  0.1101  0.2356  0.8122
  453MOL0     C61054   9.226   9.872   6.909 -0.4834  0.3089  0.8406
  453MOL0     C61055   9.170   9.751   6.951 -0.3640  0.1472  0.5861
  453MOL0     O61056   9.133   9.649   6.868 -0.0771  0.5898 -0.5997
  453MOL0     C61057   9.244   9.565   6.821 -0.1763  0.3596  0.7404
  453MOL0     C61058   9.269   9.458   6.930  1.2145  0.1548 -0.5895
  453MOL0     C61059   9.417   9.409   6.925 -0.0763 -0.4416  0.6945
  453MOL0     C61060   9.439   9.338   6.790  0.4903 -0.5357  0.5512
  453MOL0     C61061   9.567   9.263   6.772 -0.2102 -0.1559 -0.2045
  453MOL0     C61062   9.685   9.356   6.775  0.0468  0.3325 -0.2293
  453MOL0     C61063   9.820   9.269   6.770  0.3908 -0.5197  0.2900
  453MOL0     C61064   9.935   9.357   6.744  0.3451 -0.6340 -0.4344
  453MOL0    Cl61065   9.925   9.416   6.570  0.0590  0.2638  0.4394
  453MOL0     C61066   9.154   9.729   7.093  0.0272 -0.1421  0.3264
  453MOL0     C61067   9.198   9.832   7.179  0.3553  0.1854  0.5179
  453MOL0     O61068   9.518   9.901   7.259 -0.5984 -0.0057 -0.2548
  453MOL0     C61069   9.600  10.056   7.461  0.3645  0.3234 -0.0013
  453MOL0     C61070   9.650  10.133   7.564  0.2264 -0.1938  0.2510
  453MOL0     N61071   9.854  10.859   7.656 -0.4599  0.2192 -0.0140
  453MOL0     N61072   9.909  10.946   7.583 -0.2243  0.5762 -0.6928
  453MOL0     C61073   9.914  11.101   6.551  0.3449  0.4419 -0.5659
  453MOL0     C61074   9.865  11.137   6.431  0.3656  0.5282 -0.0466
  453MOL0     C61075   9.881  11.262   5.993 -0.2122  0.5747  0.0043
  453MOL0     C61076   9.985  11.287   5.907  0.0428 -0.2470  0.6387
  453MOL0     C61077   9.967  11.345   5.780  0.6873 -0.3900 -0.4965
  453MOL0     C61078   9.843  11.391   5.738 -0.1402  0.9221  0.7199
  453MOL0     O61079   9.837  11.437   5.610 -0.0642 -0.5948  0.0542
  453MOL0     C61080   9.717  11.501   5.564  0.6597 -0.3004 -0.2648
  453MOL0     C61081   9.615  11.396   5.506 -0.2076  0.5010 -0.4430
  453MOL0     C61082   9.594  11.392   5.351 -0.4672  0.1821  0.9288
  453MOL0     C61083   9.705  11.310   5.286  0.2596  0.8872  0.4092
  453MOL0     C61084   9.706  11.323   5.137  0.5280 -0.0973  0.5282
  453MOL0     C61085   9.706  11.339   5.016 -1.2434 -0.0745 -0.9974
  453MOL0     C61086   9.729  11.360   5.832 -0.0705  0.1210 -0.4069
  453MOL0     C61087   9.750  11.302   5.955 -0.5856  0.3732  0.8216
  453MOL0     H61088  10.014  11.429   6.392 -3.0965  0.7550 -0.0094
  453MOL0     H61089  10.131  11.360   6.615 -0.3732  0.6280 -0.0792
  453MOL0     H61090  10.176  11.024   6.679  3.2246 -0.4823  0.0141
  453MOL0     H61091  10.239  11.163   6.756 -0.4541 -0.6000  0.9400
  453MOL0     H61092  10.293  10.985   6.884  0.0304 -1.7436 -4.1994
  453MOL0     H61093  10.187  11.101   6.975 -1.0401  2.8632 -2.9031
  453MOL0     H61094   9.992  10.940   6.913  0.7184  1.5625 -0.0405
  453MOL0     H61095  10.115  10.834   6.831  3.8077 -0.0913  0.0053
  453MOL0     H61096  10.156  10.724   7.005  5.5263  1.0248 -0.6711
  453MOL0     H61097  10.234  10.868   7.075 -0.0961  0.0052  1.2977
  453MOL0     H61098   9.994  10.944   7.163 -0.5253 -0.5383 -1.5060
  453MOL0     H61099   9.940  10.791   7.089  0.1191  0.1614  0.5496
  453MOL0     H61100   9.971  10.791   7.348  0.3131 -0.9657  1.6403
  453MOL0     H61101  10.064  10.673   7.257 -1.2797 -0.3761 -0.1547
  453MOL0     H61102  10.226  10.759   7.419  0.7499 -0.1958  0.8636
  453MOL0     H61103  10.245  10.897   7.306  2.3339 -1.7699  1.4587
  453MOL0     H61104  10.080  11.015   7.402  4.2684  0.9220 -1.4210
  453MOL0     H61105  10.207  10.988   7.515  0.6909 -1.8593 -0.8153
  453MOL0     H61106  10.148  10.733   7.670 -0.1314  0.9501  0.5403
  453MOL0     H61107  10.005  10.604   7.828  0.1697 -1.0713 -2.7845
  453MOL0     H61108   9.878  10.704   7.908 -1.3534  0.6600 -0.7623
  453MOL0     H61109   9.846  10.522   7.652 -1.7273  1.1873 -0.0606
  453MOL0     H61110   9.729  10.606   7.750 -1.4361 -2.4763  1.3454
  453MOL0     H61111   9.724  10.465   7.913  1.3316  0.6399  0.6033
  453MOL0     H61112   9.890  10.405   7.892  0.8751  1.7535 -1.0620
  453MOL0     H61113   9.768  10.219   7.838 -0.2909 -1.2003 -1.4065
  453MOL0     H61114   9.843  10.291   7.702  0.8050  1.5277  1.5745
  453MOL0     H61115   9.400  10.346   7.595  0.8947  1.4909 -2.1156
  453MOL0     H61116   9.243  10.249   7.309 -0.5622  2.5127  0.2958
  453MOL0     H61117   9.190  10.133   7.419  0.5129 -1.0807  2.1416
  453MOL0     H61118   9.206  10.303   7.473  2.4046  0.8341  0.0366
  453MOL0     H61119   9.344  10.046   6.970 -0.9530  0.0480 -2.0072
  453MOL0     H61120   9.231   9.892   6.802 -3.2618 -2.2285  0.0714
  453MOL0     H61121   9.219   9.516   6.726  4.7487 -2.5326  0.5624
  453MOL0     H61122   9.330   9.631   6.804 -0.4718  0.9409  1.4629
  453MOL0     H61123   9.251   9.507   7.026 -1.2506 -1.0944 -0.3242
  453MOL0     H61124   9.196   9.376   6.920 -0.0427  1.4273 -2.4643
  453MOL0     H61125   9.459   9.347   7.006  4.7179 -0.6280 -1.5491
  453MOL0     H61126   9.480   9.498   6.934  0.2425 -0.7225  1.3275
  453MOL0     H61127   9.356   9.268   6.777  0.4748 -0.3791 -0.2194
  453MOL0     H61128   9.429   9.421   6.720 -2.1624 -0.5146  0.8663
  453MOL0     H61129   9.571   9.201   6.682  3.9840 -0.5373  0.0694
  453MOL0     H61130   9.584   9.189   6.850  2.2243 -3.6231 -3.6595
  453MOL0     H61131   9.685   9.429   6.694  0.9572  0.2203 -0.3447
  453MOL0     H61132   9.684   9.422   6.863  1.3872  1.2737 -0.8701
  453MOL0     H61133   9.809   9.190   6.696  0.0262  0.4664 -0.7324
  453MOL0     H61134   9.843   9.213   6.862 -3.1827 -0.7346  1.2144
  453MOL0     H61135  10.018   9.290   6.763 -1.3776 -2.9529 -0.6583
  453MOL0     H61136   9.936   9.451   6.801 -0.8028 -0.2291 -1.0403
  453MOL0     H61137   9.120   9.643   7.150 -0.0584  1.1613  2.3113
  453MOL0     H61138   9.190   9.825   7.287  2.9651 -0.5687  0.7242
  453MOL0     H61139   9.655   9.970   7.423 -2.4434 -2.0500  0.8925
  453MOL0     H61140   9.741  10.099   7.612 -0.6110 -1.6389  0.8897
  453MOL0     H61141   9.908  10.999   6.589  1.9788  1.4219  2.7286
  453MOL0     H61142   9.805  11.054   6.393  1.8548 -0.2289 -0.8275
  453MOL0     H61143  10.092  11.276   5.921  0.6189  0.9737 -1.9979
  453MOL0     H61144  10.056  11.361   5.720  0.6620  1.6115 -0.0662
  453MOL0     H61145   9.662  11.547   5.647  1.2137 -1.7330  0.9607
  453MOL0     H61146   9.745  11.584   5.499 -0.4718  4.1745  4.2501
  453MOL0     H61147   9.513  11.414   5.541  0.0109 -1.9111  1.7200
  453MOL0     H61148   9.643  11.297   5.541 -0.0888  0.1511 -1.4798
  453MOL0     H61149   9.581  11.490   5.305 -2.8077 -0.2058  0.6041
  453MOL0     H61150   9.502  11.337   5.329 -0.6044  0.6561  0.3036
  453MOL0     H61151   9.690  11.206   5.318 -0.8461  1.4165  1.6995
  453MOL0     H61152   9.805  11.325   5.329  0.6074  1.6363 -0.6118
  453MOL0     H61153   9.735  11.358   4.914 -2.4161  2.4698 -0.9193
  453MOL0     H61154   9.624  11.369   5.808  0.0315 -0.3127 -1.0625
  453MOL0     H61155   9.666  11.282   6.020  1.2437 -4.7573  2.0567
  454MOL0     O61156   7.247  10.349   6.284  0.2325 -0.3269 -0.2864
  454MOL0     C61157   7.282  10.456   6.231  0.7110  0.3751  0.2218
  454MOL0     O61158   7.231  10.505   6.111 -1.0428  0.2083 -0.0290
  454MOL0     C61159   7.119  10.446   6.060 -0.0129  0.0234  0.4767
  454MOL0     C61160   7.135  10.418   5.924  0.7902  0.5191  0.0919
  454MOL0     C61161   7.033  10.368   5.849  1.0718 -0.3549  0.0896
  454MOL0     C61162   6.910  10.329   5.909 -0.4124 -1.7224 -0.5686
  454MOL0     O61163   6.818  10.286   5.818 -0.6409 -0.1691 -0.0147
  454MOL0     C61164   6.696  10.237   5.876 -0.8042  0.8396 -0.1637
  454MOL0     C61165   6.585  10.342   5.889  0.0707  0.4907 -0.6208
  454MOL0     C61166   6.521  10.377   5.755  0.2538 -0.3279 -0.6309
  454MOL0     C61167   6.387  10.444   5.785  0.2371  0.2514  0.5613
  454MOL0     C61168   6.305  10.484   5.657  0.4943 -0.3153 -0.1590
  454MOL0     C61169   6.276  10.360   5.557 -0.3774 -0.5921  0.3290
  454MOL0     C61170   6.175  10.397   5.461 -1.0074 -0.3560  0.5795
  454MOL0     C61171   6.212  10.504   5.352  0.6303  0.4201 -0.2819
  454MOL0     N61172   6.298  10.459   5.247  0.5142 -0.5585  0.5793
  454MOL0     C61173   6.255  10.369   5.148 -0.7081 -0.1191  0.8057
  454MOL0     C61174   6.376  10.341   5.092  1.1047  0.5175  0.1665
  454MOL0     C61175   6.389  10.226   4.979 -0.6114  0.4729 -0.5040
  454MOL0     C61176   6.478  10.111   5.020  0.0175 -0.9724  0.9620
  454MOL0     C61177   6.476   9.979   4.939  0.8432 -0.5975  0.9279
  454MOL0     C61178   6.589   9.885   4.975  0.1028  0.6611 -0.0605
  454MOL0     O61179   6.559   9.831   5.109 -0.6144  0.1164 -0.3327
  454MOL0     C61180   6.487   9.709   5.109  0.0016 -0.4284 -0.8473
  454MOL0     C61181   6.438   9.686   5.239  0.5175  0.1270  1.5784
  454MOL0     C61182   6.372   9.564   5.265  0.2298  0.1910 -0.1568
  454MOL0     C61183   6.309   9.553   5.404  0.0986 -0.7799 -0.9040
  454MOL0     C61184   6.366   9.460   5.169  0.2608 -0.5593 -0.4483
  454MOL0     C61185   6.307   9.321   5.204 -0.5913 -0.6354  0.3581
  454MOL0     O61186   6.305   9.242   5.098 -0.1083  0.3133 -0.8286
  454MOL0     C61187   6.315   9.108   5.112 -0.5757 -0.0565 -0.4370
  454MOL0     C61188   6.367   9.043   5.226  0.3883  0.1973 -0.1686
  454MOL0     C61189   6.384   8.907   5.227 -0.2775  0.8802  0.0378
  454MOL0     C61190   6.351   8.819   5.114  0.8418 -0.9566 -0.4449
  454MOL0     O61191   6.376   8.687   5.118  0.6627  0.7958 -0.7636
  454MOL0     C61192   6.484   8.649   5.201 -0.9299 -0.4520  0.4114
  454MOL0     C61193   6.519   8.506   5.170  1.0246 -0.2773 -0.2651
  454MOL0     C61194   6.662   8.460   5.228  0.0398 -0.0630 -0.4542
  454MOL0     C61195   6.690   8.312   5.204  0.2192  1.0709  0.5174
  454MOL0     C61196   6.812   8.255   5.278 -0.1693  0.0415 -0.8706
  454MOL0     C61197   6.795   8.237   5.431 -1.1352  0.2937  0.5892
  454MOL0     C61198   6.893   8.147   5.506 -0.8516 -0.0825 -0.3002
  454MOL0     C61199   7.046   8.156   5.480  0.7038  0.1961  0.1137
  454MOL0    Cl61200   7.084   8.335   5.476 -0.2008  0.1166  0.1731
  454MOL0     C61201   6.292   8.885   5.001 -0.1952  0.0939  0.8956
  454MOL0     C61202   6.289   9.029   4.999  0.3462 -0.5363 -0.5901
  454MOL0     O61203   6.280   9.289   5.323 -0.5387  0.0456 -0.7008
  454MOL0     C61204   6.407   9.491   5.039  0.0520 -0.4274  0.0822
  454MOL0     C61205   6.472   9.614   5.009 -0.0871  0.4280 -0.2115
  454MOL0     N61206   6.471  10.421   5.145 -0.7681 -0.6494  0.0947
  454MOL0     N61207   6.429  10.495   5.235  0.2876 -0.4669 -0.7868
  454MOL0     C61208   6.898  10.349   6.046 -0.1158  0.3018 -1.4182
  454MOL0     C61209   6.995  10.417   6.126  0.2087  0.7895  0.3455
  454MOL0     C61210   7.382  10.543   6.298  0.3532  0.6831 -0.7941
  454MOL0     C61211   7.447  10.496   6.404  0.0384 -1.4339 -0.7760
  454MOL0     C61212   7.548  10.567   6.463  0.7726  0.3203  0.7542
  454MOL0     C61213   7.586  10.694   6.420 -0.3040  0.8074 -0.2463
  454MOL0     O61214   7.659  10.768   6.497 -0.3102 -0.2271 -0.2534
  454MOL0     C61215   7.769  10.829   6.458 -0.7986 -0.8015  0.5289
  454MOL0     C61216   7.890  10.785   6.541 -0.4166  0.1197 -0.3681
  454MOL0     C61217   8.011  10.880   6.528  0.4923  0.5331 -0.7081
  454MOL0     C61218   8.142  10.814   6.567 -0.4129  0.4482  0.4597
  454MOL0     C61219   8.256  10.902   6.530 -0.2737  0.9526  0.0258
  454MOL0     C61220   8.335  10.990   6.507  0.6555 -0.7079  0.1016
  454MOL0     C61221   7.535  10.733   6.296  0.5756 -0.5363  0.3167
  454MOL0     C61222   7.426  10.662   6.235  0.7520 -0.6828 -0.3151
  454MOL0     H61223   7.221  10.459   5.872 -0.8624  4.0451 -0.1701
  454MOL0     H61224   7.050  10.354   5.742  1.3743 -2.3486  0.3654
  454MOL0     H61225   6.663  10.150   5.819 -0.5342 -0.5824  1.7569
  454MOL0     H61226   6.716  10.192   5.974 -1.3014  2.1133  0.5550
  454MOL0     H61227   6.521  10.290   5.960  1.9526 -1.3958 -0.2029
  454MOL0     H61228   6.635  10.429   5.934  2.9960 -1.3923  0.0384
  454MOL0     H61229   6.591  10.443   5.702 -0.1553 -1.4969 -2.7253
  454MOL0     H61230   6.516  10.293   5.685 -1.0113  0.3708 -1.4077
  454MOL0     H61231   6.327  10.372   5.842  1.8530 -1.7017 -0.0753
  454MOL0     H61232   6.406  10.532   5.848  0.8987  2.5556 -2.6134
  454MOL0     H61233   6.222  10.550   5.682  2.4544  3.1718 -2.0561
  454MOL0     H61234   6.376  10.551   5.608  0.3207  0.7664  1.0174
  454MOL0     H61235   6.364  10.329   5.501 -1.2532  1.0030 -2.0748
  454MOL0     H61236   6.236  10.284   5.625 -0.2492 -1.4655 -0.5576
  454MOL0     H61237   6.152  10.309   5.401 -1.1462 -0.3090  0.5615
  454MOL0     H61238   6.086  10.434   5.513 -3.7055  2.0594 -4.8985
  454MOL0     H61239   6.260  10.579   5.415  0.0573 -0.0873  0.7886
  454MOL0     H61240   6.120  10.543   5.307  0.2035 -0.0528  0.1537
  454MOL0     H61241   6.153  10.347   5.118 -1.1270 -1.1601  2.7777
  454MOL0     H61242   6.288  10.184   4.983 -1.8058  3.2182  2.2676
  454MOL0     H61243   6.408  10.262   4.877  1.7170  1.6807  0.2842
  454MOL0     H61244   6.464  10.091   5.126  1.8640 -1.4972  1.1467
  454MOL0     H61245   6.579  10.152   5.007 -0.0648 -1.2331 -0.8356
  454MOL0     H61246   6.492  10.010   4.835 -2.1677 -0.2912  0.4489
  454MOL0     H61247   6.382   9.925   4.949 -0.4199  1.1636 -0.5954
  454MOL0     H61248   6.690   9.925   4.970  1.1977 -1.7635  0.8429
  454MOL0     H61249   6.589   9.807   4.898 -1.9450 -0.2003  0.7278
  454MOL0     H61250   6.436   9.769   5.308 -1.8143 -1.2052  3.2457
  454MOL0     H61251   6.210   9.508   5.392  0.0794 -0.3315 -2.8526
  454MOL0     H61252   6.385   9.501   5.463  2.8032  2.8793 -0.8301
  454MOL0     H61253   6.308   9.650   5.454  1.6812 -0.8080 -0.7422
  454MOL0     H61254   6.399   9.095   5.315  1.5690  0.4323 -0.7131
  454MOL0     H61255   6.438   8.861   5.310 -1.9375 -1.4626 -0.0918
  454MOL0     H61256   6.568   8.719   5.193 -0.8382 -0.3807  1.7862
  454MOL0     H61257   6.449   8.668   5.302  1.1881 -0.5507  1.2103
  454MOL0     H61258   6.438   8.454   5.222  0.1895 -0.0328 -1.2700
  454MOL0     H61259   6.523   8.494   5.062  0.7758  4.2959 -0.9818
  454MOL0     H61260   6.666   8.471   5.337  0.8368 -2.5276 -0.1693
  454MOL0     H61261   6.741   8.526   5.192 -0.4498  1.9677  1.9004
  454MOL0     H61262   6.603   8.246   5.211 -0.6312  2.1144  0.0786
  454MOL0     H61263   6.720   8.293   5.100  0.1389 -1.2481  0.8643
  454MOL0     H61264   6.891   8.325   5.248  0.2577  0.8027  1.7420
  454MOL0     H61265   6.829   8.151   5.250 -2.9017 -1.2375  1.7093
  454MOL0     H61266   6.784   8.332   5.486 -2.4594  1.5502 -1.6862
  454MOL0     H61267   6.695   8.194   5.444 -1.3056  0.5125  0.0345
  454MOL0     H61268   6.875   8.045   5.471  2.1515 -0.6625 -0.4873
  454MOL0     H61269   6.873   8.161   5.613  0.9194  1.1268 -0.0761
  454MOL0     H61270   7.070   8.115   5.382 -0.5248 -2.4756  0.8220
  454MOL0     H61271   7.101   8.102   5.558 -0.3742  1.3416  1.7400
  454MOL0     H61272   6.261   8.834   4.910  0.0603 -1.5034  1.6593
  454MOL0     H61273   6.238   9.081   4.918 -1.1370  0.1788  0.7607
  454MOL0     H61274   6.425   9.418   4.961  0.5339 -1.0021  0.7263
  454MOL0     H61275   6.519   9.621   4.912 -0.1037  1.0066 -0.1843
  454MOL0     H61276   6.807  10.318   6.096  0.2562  0.0525 -0.8833
  454MOL0     H61277   6.983  10.451   6.228  0.6358  0.5162  0.4929
  454MOL0     H61278   7.423  10.395   6.436  1.2789 -1.6351 -0.4456
  454MOL0     H61279   7.593  10.534   6.556 -0.0340 -1.2045  0.6343
  454MOL0     H61280   7.788  10.822   6.350 -1.4392 -0.1213  0.3639
  454MOL0     H61281   7.765  10.938   6.465 -0.0018 -0.4830 -2.4795
  454MOL0     H61282   7.895  10.681   6.508 -2.9194  0.1545 -1.0635
  454MOL0     H61283   7.862  10.780   6.646  1.7498  1.3093  0.3341
  454MOL0     H61284   8.000  10.976   6.580  1.1789  0.9880 -1.3889
  454MOL0     H61285   8.019  10.917   6.425  3.8262  0.5616 -0.5284
  454MOL0     H61286   8.155  10.720   6.512 -0.4962  0.1261  0.9855
  454MOL0     H61287   8.138  10.790   6.674 -0.0833 -1.1615  0.1419
  454MOL0     H61288   8.398  11.068   6.467  0.6558 -1.1558 -0.8085
  454MOL0     H61289   7.575  10.820   6.247 -1.8333  0.5199  0.0905
  454MOL0     H61290   7.388  10.700   6.141  3.1748  1.2230 -0.6067
  455MOL0     O61291   6.062   3.731   4.763  0.5642  0.0499  0.0699
  455MOL0     C61292   5.970   3.673   4.711 -0.0871 -0.0963  0.5514
  455MOL0     O61293   5.893   3.589   4.781  0.9022  1.1040 -1.1187
  455MOL0     C61294   5.913   3.553   4.909 -1.0306 -0.5376 -0.4520
  455MOL0     C61295   5.943   3.651   5.008 -0.1819 -0.0242  0.2978
  455MOL0     C61296   5.933   3.637   5.147 -0.2912  0.2121 -0.7935
  455MOL0     C61297   5.893   3.510   5.198 -0.2727 -0.5721  0.6354
  455MOL0     O61298   5.886   3.453   5.318 -0.7502 -0.1619  0.0089
  455MOL0     C61299   5.935   3.537   5.427 -0.1208  0.4129 -0.0219
  455MOL0     C61300   5.818   3.625   5.488 -0.8148 -0.1290  0.2018
  455MOL0     C61301   5.735   3.569   5.603  0.1430 -0.6885  0.8325
  455MOL0     C61302   5.661   3.442   5.558 -0.1548  0.1383  0.0435
  455MOL0     C61303   5.547   3.400   5.656 -0.0700 -0.9255  0.8202
  455MOL0     C61304   5.599   3.376   5.793 -0.6453 -0.1331 -0.0214
  455MOL0     C61305   5.499   3.315   5.894 -0.9310  0.0835 -1.2470
  455MOL0     C61306   5.372   3.399   5.941  0.6078 -0.7053 -0.2438
  455MOL0     N61307   5.294   3.330   6.052 -0.0470  0.1837 -0.0614
  455MOL0     C61308   5.174   3.383   6.093 -0.5426 -0.4241  0.2740
  455MOL0     C61309   5.126   3.292   6.177  0.4421 -0.5801  0.2292
  455MOL0     C61310   4.990   3.312   6.250 -0.0840  0.7515 -0.6704
  455MOL0     C61311   5.013   3.257   6.395  0.4185 -0.1355 -0.3864
  455MOL0     C61312   4.878   3.262   6.469  0.7904  0.1491 -0.2373
  455MOL0     C61313   4.894   3.290   6.623  0.0599 -0.1726 -0.2659
  455MOL0     O61314   4.893   3.430   6.630  0.1712 -0.7531 -0.0955
  455MOL0     C61315   4.813   3.481   6.727 -0.1479 -0.0879 -0.3717
  455MOL0     C61316   4.741   3.603   6.699 -0.0556  0.1640 -0.7792
  455MOL0     C61317   4.659   3.664   6.793 -0.9231  0.1474  0.3663
  455MOL0     C61318   4.572   3.782   6.748  0.2197  0.9997  0.7669
  455MOL0     C61319   4.662   3.616   6.925 -0.5548  0.0991  0.4289
  455MOL0     C61320   4.588   3.679   7.036  0.4540  0.1835 -0.3300
  455MOL0     O61321   4.653   3.661   7.164 -0.1527  0.5028 -0.0578
  455MOL0     C61322   4.589   3.688   7.283 -0.9429 -0.0040  0.6891
  455MOL0     C61323   4.656   3.745   7.389 -0.9838 -0.1493  0.9642
  455MOL0     C61324   4.582   3.772   7.511  0.2990 -0.0979 -0.3641
  455MOL0     C61325   4.453   3.739   7.524  0.4844 -0.6540  0.2544
  455MOL0     O61326   4.383   3.763   7.643  0.1705  0.2343  0.7669
  455MOL0     C61327   4.401   3.649   7.731 -0.1045 -0.0202 -1.2181
  455MOL0     C61328   4.301   3.647   7.845  0.5936  0.6251 -0.3380
  455MOL0     C61329   4.154   3.661   7.801  0.7042  0.1301 -0.1901
  455MOL0     C61330   4.049   3.701   7.912 -0.1830 -0.0874  0.7851
  455MOL0     C61331   4.073   3.615   8.035  1.1480 -0.6037  0.0903
  455MOL0     C61332   3.944   3.649   8.122  0.8219 -0.2228  0.8943
  455MOL0     C61333   3.963   3.588   8.254 -0.9942 -1.1180  0.5216
  455MOL0     C61334   3.844   3.612   8.354  0.2085 -0.4240 -0.2351
  455MOL0    Cl61335   3.879   3.566   8.521 -0.5931 -0.6261  0.0829
  455MOL0     C61336   4.390   3.665   7.427 -0.2758  0.3167 -0.5869
  455MOL0     C61337   4.457   3.637   7.306  0.4532 -0.6936 -0.6185
  455MOL0     O61338   4.485   3.739   7.018 -0.2632  0.1191 -0.1072
  455MOL0     C61339   4.741   3.505   6.958 -0.3322  0.1245 -1.4502
  455MOL0     C61340   4.818   3.443   6.866 -0.5746  0.8170 -0.1941
  455MOL0     N61341   5.221   3.195   6.188  0.2927  0.4788 -0.4624
  455MOL0     N61342   5.323   3.209   6.117  0.2020 -0.1376  0.4714
  455MOL0     C61343   5.863   3.414   5.094  0.2947 -0.7903  0.1577
  455MOL0     C61344   5.872   3.425   4.959  1.4445  0.8839  0.7140
  455MOL0     C61345   5.954   3.668   4.558 -0.2631 -0.4298  0.3380
  455MOL0     C61346   5.875   3.566   4.497  0.6796 -0.2972 -0.3098
  455MOL0     C61347   5.858   3.551   4.360  0.5451  0.5144 -0.1626
  455MOL0     C61348   5.916   3.647   4.280  0.0943 -0.6077 -0.1193
  455MOL0     O61349   5.918   3.649   4.144 -0.2062 -0.4291  0.4664
  455MOL0     C61350   5.806   3.585   4.078 -0.1039 -0.3645  0.7111
  455MOL0     C61351   5.775   3.665   3.944  0.6733  0.6924  0.6824
  455MOL0     C61352   5.740   3.817   3.958  0.3361 -0.2301  0.1937
  455MOL0     C61353   5.747   3.905   3.822  1.2356 -1.5260  0.2289
  455MOL0     C61354   5.614   3.959   3.777 -0.1137  0.7757 -0.3354
  455MOL0     C61355   5.509   4.022   3.763  0.6483 -0.1219  0.8116
  455MOL0     C61356   6.001   3.741   4.327  0.1647  1.3351 -0.2404
  455MOL0     C61357   6.027   3.751   4.466 -0.0086  0.6052 -0.3088
  455MOL0     H61358   5.974   3.751   4.980 -0.3128  0.4332  1.7087
  455MOL0     H61359   5.978   3.710   5.214  3.2088 -1.6667 -0.8769
  455MOL0     H61360   5.974   3.466   5.501 -0.8252 -0.5800 -0.5721
  455MOL0     H61361   6.022   3.596   5.396  1.6738 -1.4743  1.1257
  455MOL0     H61362   5.863   3.715   5.532 -0.7840  1.1119 -2.2160
  455MOL0     H61363   5.742   3.650   5.414 -1.2133 -1.5032  0.1212
  455MOL0     H61364   5.791   3.559   5.697  5.3641 -1.5086 -1.9536
  455MOL0     H61365   5.655   3.642   5.613  1.4257  1.3296 -2.3262
  455MOL0     H61366   5.606   3.459   5.465 -1.9460  3.0666  1.4815
  455MOL0     H61367   5.735   3.364   5.537  0.0775  0.2511  0.4386
  455MOL0     H61368   5.467   3.474   5.655  3.3655  3.1368  0.6347
  455MOL0     H61369   5.490   3.314   5.619 -0.9555 -0.9323  2.1399
  455MOL0     H61370   5.676   3.300   5.773  1.0196  1.9202 -1.8384
  455MOL0     H61371   5.649   3.466   5.828  1.4472 -0.7391 -1.2662
  455MOL0     H61372   5.470   3.213   5.868 -2.4168  0.5367 -1.4334
  455MOL0     H61373   5.558   3.314   5.986 -2.1234 -0.7506 -0.4637
  455MOL0     H61374   5.299   3.418   5.861  1.3426 -2.0609 -1.2697
  455MOL0     H61375   5.405   3.498   5.974  1.0677 -1.8516  3.0191
  455MOL0     H61376   5.130   3.479   6.067  1.9186  1.1690  1.6309
  455MOL0     H61377   4.968   3.419   6.259 -0.0019  0.7818 -0.8206
  455MOL0     H61378   4.906   3.271   6.193 -0.1115 -0.8000  0.4387
  455MOL0     H61379   5.084   3.320   6.448 -0.8081  1.4863 -0.5965
  455MOL0     H61380   5.046   3.152   6.396  0.6065 -0.0748 -0.1856
  455MOL0     H61381   4.821   3.175   6.437 -1.3728  1.9072 -1.4814
  455MOL0     H61382   4.813   3.341   6.430 -1.6491 -1.3538  0.5409
  455MOL0     H61383   4.977   3.237   6.671  0.3245 -0.0666 -0.6077
  455MOL0     H61384   4.797   3.249   6.655 -0.0765  0.3927  0.0557
  455MOL0     H61385   4.749   3.640   6.597  1.4411 -2.0413 -1.5598
  455MOL0     H61386   4.466   3.762   6.769 -1.1630  1.0459 -4.6603
  455MOL0     H61387   4.610   3.870   6.801  1.0250  1.1024  0.0370
  455MOL0     H61388   4.573   3.804   6.641 -2.5083 -3.7500 -0.5347
  455MOL0     H61389   4.755   3.789   7.380 -1.1177 -0.0527 -0.0498
  455MOL0     H61390   4.621   3.822   7.598  1.4558 -1.2845 -0.1696
  455MOL0     H61391   4.381   3.556   7.677 -0.4445 -1.8804  1.8678
  455MOL0     H61392   4.499   3.647   7.778 -0.3216 -0.7578 -0.7741
  455MOL0     H61393   4.321   3.555   7.899 -0.4511  0.1621 -0.7133
  455MOL0     H61394   4.316   3.728   7.917 -0.3339 -0.8239  1.5753
  455MOL0     H61395   4.111   3.567   7.766 -2.1157 -0.0959  3.2275
  455MOL0     H61396   4.146   3.721   7.710  0.1478  0.8710  0.3261
  455MOL0     H61397   4.043   3.810   7.927  0.2148  0.1254 -0.4545
  455MOL0     H61398   3.955   3.676   7.862 -1.3874  0.6001  2.5843
  455MOL0     H61399   4.167   3.639   8.085  0.2059  3.2079  0.3387
  455MOL0     H61400   4.077   3.507   8.020  1.6899 -0.3805 -1.5338
  455MOL0     H61401   3.931   3.758   8.132  0.6916 -0.2477  1.0051
  455MOL0     H61402   3.849   3.613   8.081  0.1246  0.8541  1.4939
  455MOL0     H61403   4.061   3.611   8.296 -0.5596 -1.6325 -0.1849
  455MOL0     H61404   3.974   3.480   8.244  1.6880 -0.8650 -0.0141
  455MOL0     H61405   3.758   3.550   8.324  0.1730 -2.0199  2.7357
  455MOL0     H61406   3.802   3.713   8.353  1.5888  0.1898  0.8114
  455MOL0     H61407   4.290   3.628   7.445 -0.2838  0.7668  0.3728
  455MOL0     H61408   4.411   3.589   7.221  0.3050 -0.4814 -0.6588
  455MOL0     H61409   4.745   3.472   7.061  2.7632 -0.4002 -1.6637
  455MOL0     H61410   4.888   3.362   6.888 -0.6866  0.4420 -1.1644
  455MOL0     H61411   5.842   3.311   5.120 -3.4421 -0.2565 -0.2803
  455MOL0     H61412   5.864   3.333   4.902  0.9476  2.4313 -1.8911
  455MOL0     H61413   5.824   3.486   4.549  0.2595  1.3658  1.9990
  455MOL0     H61414   5.794   3.473   4.318 -1.1983  2.6978 -1.8025
  455MOL0     H61415   5.838   3.482   4.061  3.1163  0.1670  2.7550
  455MOL0     H61416   5.710   3.598   4.129 -0.2811  0.8446  0.1239
  455MOL0     H61417   5.692   3.621   3.889  0.0229  3.0648 -0.3668
  455MOL0     H61418   5.862   3.664   3.877  0.4827 -1.9497  0.3805
  455MOL0     H61419   5.823   3.861   4.014  0.6416  0.0505 -0.4608
  455MOL0     H61420   5.646   3.827   4.013  0.2143 -1.1605  0.1736
  455MOL0     H61421   5.776   3.835   3.743  2.9350  0.4110 -0.9674
  455MOL0     H61422   5.817   3.988   3.837 -0.8652 -0.0626  2.8357
  455MOL0     H61423   5.414   4.071   3.757  0.4776 -0.3699  1.4263
  455MOL0     H61424   6.061   3.803   4.261  1.3248 -0.6645 -1.1344
  455MOL0     H61425   6.108   3.815   4.497 -0.7296  0.2312  2.5939
  456MOL0     O61426   6.847   2.542   3.812  0.5556 -0.0039  0.8923
  456MOL0     C61427   6.936   2.450   3.808 -0.5648 -0.7928  0.5436
  456MOL0     O61428   7.067   2.464   3.773  0.3460  0.3293 -0.9050
  456MOL0     C61429   7.093   2.581   3.704 -0.4777  0.1111 -0.0524
  456MOL0     C61430   7.035   2.608   3.581  0.0831  0.0594  0.2214
  456MOL0     C61431   7.042   2.735   3.525 -0.2096  0.6972  0.2036
  456MOL0     C61432   7.134   2.829   3.575  0.3995  1.0209  0.3359
  456MOL0     O61433   7.145   2.957   3.527 -0.1092  0.5217 -0.0159
  456MOL0     C61434   7.023   3.006   3.456  0.1002 -0.1019 -0.5098
  456MOL0     C61435   7.064   3.152   3.438 -0.5089 -0.9095 -0.7921
  456MOL0     C61436   7.179   3.195   3.339 -0.3568  0.1279 -0.6958
  456MOL0     C61437   7.219   3.341   3.369  0.0221 -0.9209 -0.4078
  456MOL0     C61438   7.341   3.369   3.278  0.5655 -0.5298 -0.3292
  456MOL0     C61439   7.400   3.504   3.275  0.3744 -0.6177  0.7997
  456MOL0     C61440   7.526   3.491   3.180  0.8684 -0.4172  0.5978
  456MOL0     C61441   7.597   3.626   3.173  0.0179 -0.3866  0.3740
  456MOL0     N61442   7.713   3.623   3.077 -0.7176 -0.2790 -0.0464
  456MOL0     C61443   7.719   3.640   2.941 -0.2966 -0.2428  1.5065
  456MOL0     C61444   7.845   3.591   2.911 -1.0066 -0.6289  0.5750
  456MOL0     C61445   7.908   3.578   2.773  0.3502 -0.5652  0.5191
  456MOL0     C61446   8.047   3.632   2.745  0.0886 -0.3200  1.0290
  456MOL0     C61447   8.075   3.782   2.772  0.3535 -1.1929  0.6324
  456MOL0     C61448   8.058   3.821   2.919 -0.4840 -0.6285 -0.4962
  456MOL0     O61449   8.126   3.945   2.950 -0.1794  0.0710 -0.7193
  456MOL0     C61450   8.156   3.959   3.079  0.3409 -0.3420  0.2877
  456MOL0     C61451   8.076   3.908   3.181  0.7519 -0.2004 -0.0530
  456MOL0     C61452   8.116   3.912   3.323  0.1588  0.0472 -0.0658
  456MOL0     C61453   8.031   3.846   3.423 -0.7660 -0.7721 -0.3213
  456MOL0     C61454   8.231   3.975   3.358 -0.1243  0.2817 -1.4531
  456MOL0     C61455   8.282   3.981   3.509  0.0072 -0.5359  0.1362
  456MOL0     O61456   8.297   4.116   3.527  0.1538  0.0261 -0.2694
  456MOL0     C61457   8.326   4.158   3.656 -0.4671 -0.9361 -0.1226
  456MOL0     C61458   8.436   4.120   3.738  0.4389  0.5467 -0.3238
  456MOL0     C61459   8.467   4.183   3.862  0.5898  1.0720  0.0775
  456MOL0     C61460   8.389   4.296   3.904 -0.4007  0.5759 -0.0001
  456MOL0     O61461   8.402   4.361   4.027  0.2358  0.5229  0.1924
  456MOL0     C61462   8.538   4.361   4.076 -0.1815 -0.3630 -0.3833
  456MOL0     C61463   8.523   4.456   4.189  0.4879 -0.3291  0.3760
  456MOL0     C61464   8.646   4.464   4.280 -0.2452  0.5060 -0.3962
  456MOL0     C61465   8.664   4.336   4.361  0.0051 -0.2789 -0.5816
  456MOL0     C61466   8.781   4.238   4.331  0.0574 -0.4269  1.2888
  456MOL0     C61467   8.913   4.288   4.390  0.0249  0.0253 -0.2164
  456MOL0     C61468   9.032   4.215   4.328  0.4944  0.6029  0.3545
  456MOL0     C61469   9.163   4.269   4.398 -1.2678  0.1222 -0.2898
  456MOL0    Cl61470   9.176   4.227   4.568  0.3760 -0.5337  0.3023
  456MOL0     C61471   8.282   4.340   3.823  0.0166 -1.0661  0.4740
  456MOL0     C61472   8.259   4.277   3.695 -0.3518 -0.1178  0.2212
  456MOL0     O61473   8.301   3.892   3.587 -0.6669  0.1956 -0.0649
  456MOL0     C61474   8.301   4.038   3.250 -0.0932 -0.5755 -0.9021
  456MOL0     C61475   8.265   4.025   3.116  0.2716 -0.0131 -1.1397
  456MOL0     N61476   7.915   3.565   3.031  0.7841  0.1444  0.0000
  456MOL0     N61477   7.831   3.579   3.131  0.6076 -0.9634 -0.3327
  456MOL0     C61478   7.200   2.799   3.688 -0.3559  0.0598  0.0569
  456MOL0     C61479   7.183   2.677   3.758 -0.1791  0.3145 -0.6799
  456MOL0     C61480   6.901   2.321   3.876  0.2986 -0.2330  0.9819
  456MOL0     C61481   6.973   2.206   3.838  0.3349  0.4409  0.1290
  456MOL0     C61482   6.941   2.080   3.891 -0.2378 -0.4108  0.1084
  456MOL0     C61483   6.841   2.068   3.984 -0.3732 -0.0603 -0.8191
  456MOL0     O61484   6.807   1.940   4.017  0.2289  0.6266 -0.1591
  456MOL0     C61485   6.742   1.913   4.149  0.1859  0.0768 -1.2861
  456MOL0     C61486   6.709   1.767   4.153 -0.9032 -0.1802  0.2771
  456MOL0     C61487   6.640   1.743   4.284  1.3030 -0.9940 -1.4841
  456MOL0     C61488   6.491   1.790   4.291 -0.3558 -0.6064 -0.3532
  456MOL0     C61489   6.441   1.814   4.425  0.3605  0.5163  0.1691
  456MOL0     C61490   6.403   1.825   4.544 -0.7364  0.0413  0.3631
  456MOL0     C61491   6.776   2.181   4.030 -1.1059  0.1747  0.1271
  456MOL0     C61492   6.801   2.308   3.970 -0.3794  0.4152 -0.2391
  456MOL0     H61493   6.959   2.543   3.539 -0.8291  1.2271  0.0067
  456MOL0     H61494   6.991   2.754   3.431  0.4993  1.9713  0.0637
  456MOL0     H61495   7.011   2.959   3.358 -2.8957  2.6388 -1.6318
  456MOL0     H61496   6.939   3.011   3.527  0.7269 -1.0241  0.3270
  456MOL0     H61497   6.980   3.208   3.394  0.6879  1.9508  0.3758
  456MOL0     H61498   7.073   3.184   3.542 -3.7142 -0.2292 -0.6213
  456MOL0     H61499   7.265   3.128   3.343  0.5994  1.3747  0.3903
  456MOL0     H61500   7.134   3.193   3.239 -2.9482  2.4131  0.3044
  456MOL0     H61501   7.136   3.409   3.348  1.0828 -0.5297 -4.0541
  456MOL0     H61502   7.240   3.344   3.476  0.8934 -2.2546 -0.5213
  456MOL0     H61503   7.424   3.300   3.298  2.2575  1.0170 -1.6247
  456MOL0     H61504   7.306   3.346   3.177  0.7541 -0.5774 -0.3855
  456MOL0     H61505   7.316   3.570   3.247 -0.0587 -1.6149 -0.3375
  456MOL0     H61506   7.426   3.526   3.379  1.7746  2.2658 -0.0451
  456MOL0     H61507   7.588   3.414   3.226  1.5220 -1.0389 -1.2413
  456MOL0     H61508   7.497   3.467   3.077  0.9064  2.7843 -0.2663
  456MOL0     H61509   7.633   3.648   3.274  1.7145 -2.4677  0.2769
  456MOL0     H61510   7.535   3.713   3.147  1.0944 -0.4043 -2.5796
  456MOL0     H61511   7.642   3.670   2.870  1.8394  0.0452 -0.8213
  456MOL0     H61512   7.904   3.471   2.751 -1.5679 -0.3730 -0.2601
  456MOL0     H61513   7.842   3.629   2.702 -1.6374  0.1228  2.7118
  456MOL0     H61514   8.063   3.613   2.638 -3.2838 -1.7712  0.6545
  456MOL0     H61515   8.114   3.577   2.812  4.1963  1.9830 -0.8175
  456MOL0     H61516   8.017   3.857   2.717  1.9324  0.1106  0.6803
  456MOL0     H61517   8.181   3.803   2.754  0.0753 -0.0642  0.2090
  456MOL0     H61518   8.106   3.737   2.971  2.5906  1.9614  1.2054
  456MOL0     H61519   7.953   3.815   2.949  0.3792 -0.0405  3.0749
  456MOL0     H61520   7.987   3.850   3.158  0.6204 -0.4311  1.0007
  456MOL0     H61521   7.948   3.790   3.380  0.2177 -3.1559  0.7054
  456MOL0     H61522   8.086   3.771   3.480  0.1894 -1.4872 -2.0851
  456MOL0     H61523   7.983   3.927   3.480 -0.1717 -0.2249 -0.5777
  456MOL0     H61524   8.490   4.034   3.700 -2.2078 -1.0935 -0.6457
  456MOL0     H61525   8.542   4.147   3.932 -1.5898 -1.9256  1.0827
  456MOL0     H61526   8.580   4.268   4.115  1.3562  1.7383  3.4490
  456MOL0     H61527   8.608   4.395   3.998  0.2891  1.2152  0.6863
  456MOL0     H61528   8.528   4.556   4.146  0.7990  1.0344  3.3112
  456MOL0     H61529   8.421   4.452   4.230  0.6470  2.4908  1.2960
  456MOL0     H61530   8.637   4.548   4.349  0.2887  0.0934  0.1904
  456MOL0     H61531   8.734   4.476   4.217 -1.1741  2.2912 -1.4441
  456MOL0     H61532   8.671   4.358   4.468  2.0068 -0.8036 -0.5684
  456MOL0     H61533   8.569   4.282   4.348  0.2502 -1.1587  1.0563
  456MOL0     H61534   8.781   4.232   4.222  1.8829  2.1020  1.0453
  456MOL0     H61535   8.760   4.134   4.356  1.3150 -0.9265  0.3629
  456MOL0     H61536   8.930   4.393   4.365  0.2793 -0.0993 -0.5570
  456MOL0     H61537   8.898   4.267   4.497 -0.9230 -5.1238 -1.0972
  456MOL0     H61538   9.036   4.255   4.226 -1.4245  0.9320  0.3702
  456MOL0     H61539   9.016   4.107   4.326 -0.8862  0.7348  1.9835
  456MOL0     H61540   9.159   4.377   4.381 -1.4185 -0.1393 -2.0497
  456MOL0     H61541   9.252   4.243   4.340 -0.2872  1.9188  0.3164
  456MOL0     H61542   8.230   4.429   3.856  1.3435  0.0291 -0.2890
  456MOL0     H61543   8.181   4.319   3.632 -0.9116  0.1337  1.0668
  456MOL0     H61544   8.389   4.097   3.274 -0.4171  0.1166 -1.3674
  456MOL0     H61545   8.335   4.057   3.039  0.5717  0.6386 -0.6054
  456MOL0     H61546   7.277   2.873   3.712  0.8808 -1.0541 -0.3662
  456MOL0     H61547   7.241   2.666   3.849  0.5845  1.7584 -0.9578
  456MOL0     H61548   7.043   2.204   3.755 -0.3112 -0.9926 -0.4110
  456MOL0     H61549   6.984   1.992   3.845  1.2784  0.7031 -0.7215
  456MOL0     H61550   6.817   1.925   4.228 -1.4590 -1.7443  0.6625
  456MOL0     H61551   6.653   1.971   4.176 -0.3226 -2.6376  4.4690
  456MOL0     H61552   6.797   1.703   4.142 -0.2936  0.9897 -2.5015
  456MOL0     H61553   6.658   1.739   4.060  1.1376  3.1379 -2.0549
  456MOL0     H61554   6.694   1.784   4.370  0.2825  0.3034 -1.4162
  456MOL0     H61555   6.640   1.634   4.291  2.2208 -0.9581 -0.7689
  456MOL0     H61556   6.433   1.717   4.235 -0.0491 -0.3950 -0.9495
  456MOL0     H61557   6.484   1.883   4.235  2.2947  0.4178  0.8393
  456MOL0     H61558   6.376   1.825   4.648 -0.7727  1.8447  0.3901
  456MOL0     H61559   6.693   2.169   4.099 -0.5011  1.7454  1.1910
  456MOL0     H61560   6.735   2.390   3.998 -1.4189 -0.1902 -0.8256
  457MOL0     O61561   1.702  10.771   2.484  0.0192 -0.3872 -0.2835
  457MOL0     C61562   1.592  10.732   2.451 -0.3136 -0.4356  0.8427
  457MOL0     O61563   1.559  10.675   2.331  0.0928  0.7310 -0.4800
  457MOL0     C61564   1.661  10.655   2.233  1.0449  0.7085 -0.0773
  457MOL0     C61565   1.633  10.688   2.102  0.0163  1.4430  0.6916
  457MOL0     C61566   1.716  10.645   1.994  0.7325  0.0711 -0.5357
  457MOL0     C61567   1.838  10.586   2.028  0.0015 -0.3048 -0.6327
  457MOL0     O61568   1.922  10.542   1.924  0.1715 -0.5980  0.0145
  457MOL0     C61569   2.052  10.580   1.923  0.3584  0.0708 -0.1082
  457MOL0     C61570   2.132  10.523   1.812 -0.2133  1.6309  0.3010
  457MOL0     C61571   2.138  10.365   1.796  0.7169  0.2043  0.7292
  457MOL0     C61572   2.238  10.318   1.695  0.3407  0.0140  0.1559
  457MOL0     C61573   2.233  10.168   1.663 -0.4184 -0.3684  0.8992
  457MOL0     C61574   2.280  10.084   1.784 -0.9745 -0.1658 -0.1360
  457MOL0     C61575   2.299   9.944   1.749 -0.7384  0.6433  0.3108
  457MOL0     C61576   2.384   9.859   1.844  0.5555  0.0520 -0.1804
  457MOL0     N61577   2.359   9.716   1.841 -0.2058 -0.8263 -0.1754
  457MOL0     C61578   2.233   9.655   1.853 -0.5613 -0.2790  0.1500
  457MOL0     C61579   2.248   9.526   1.855  1.2586 -0.2511 -0.2266
  457MOL0     C61580   2.149   9.421   1.875 -0.0495  0.0981 -0.3634
  457MOL0     C61581   2.163   9.394   2.026  1.4089 -0.4675  0.9882
  457MOL0     C61582   2.053   9.298   2.082 -0.2078 -0.1927  0.3544
  457MOL0     C61583   2.005   9.315   2.230  0.3366  0.6673  0.2527
  457MOL0     O61584   1.972   9.187   2.273  1.5076  0.6319  0.1031
  457MOL0     C61585   1.914   9.159   2.393 -1.0775 -0.4750 -0.8433
  457MOL0     C61586   1.904   9.022   2.411  0.7356 -0.8496 -0.2530
  457MOL0     C61587   1.850   8.979   2.532 -0.1522 -0.4775  0.0597
  457MOL0     C61588   1.847   8.823   2.542  0.5050 -0.1240 -0.0179
  457MOL0     C61589   1.801   9.073   2.630  0.0046 -0.1748  0.3348
  457MOL0     C61590   1.730   9.038   2.755 -0.6688 -0.4245 -0.1438
  457MOL0     O61591   1.598   9.011   2.728  0.4722  0.1547 -0.6850
  457MOL0     C61592   1.525   8.983   2.838 -0.6490  0.2005 -0.0334
  457MOL0     C61593   1.502   8.856   2.886 -0.5856 -0.5766  0.9439
  457MOL0     C61594   1.407   8.840   2.991  0.4841 -0.0048 -0.9294
  457MOL0     C61595   1.333   8.943   3.043 -0.7275 -0.2934  0.6312
  457MOL0     O61596   1.246   8.921   3.142 -0.3333 -0.7023 -1.0399
  457MOL0     C61597   1.139   8.850   3.100  0.3665  0.0062  0.2211
  457MOL0     C61598   1.012   8.890   3.177 -0.1329 -0.6267 -0.5608
  457MOL0     C61599   1.021   8.853   3.322 -0.1515 -0.0091  0.5747
  457MOL0     C61600   0.938   8.932   3.410  0.3844 -0.0774  0.0255
  457MOL0     C61601   0.974   8.929   3.553  0.1688 -0.1084 -0.3487
  457MOL0     C61602   0.855   8.963   3.644 -0.3995  0.5984 -1.4068
  457MOL0     C61603   0.907   9.001   3.786  0.3937  0.2542  0.1433
  457MOL0     C61604   0.792   9.069   3.861 -0.6566  0.1745 -1.0579
  457MOL0    Cl61605   0.853   9.166   3.999  0.1632 -0.5475 -0.3377
  457MOL0     C61606   1.342   9.067   2.986  0.0363 -0.5673  1.0276
  457MOL0     C61607   1.443   9.092   2.887 -0.2522  0.2609 -0.8706
  457MOL0     O61608   1.788   9.041   2.866 -0.1709  0.0723  0.0490
  457MOL0     C61609   1.828   9.207   2.606 -0.0584 -0.3131 -0.0988
  457MOL0     C61610   1.888   9.259   2.489 -0.2837  0.7634 -0.2796
  457MOL0     N61611   2.382   9.504   1.824 -0.0152  0.2785  0.0312
  457MOL0     N61612   2.442   9.621   1.805 -0.0383 -0.2936  0.5769
  457MOL0     C61613   1.869  10.558   2.164  0.4754  0.3045 -0.5443
  457MOL0     C61614   1.767  10.582   2.258 -0.8604 -0.0800  0.0432
  457MOL0     C61615   1.483  10.751   2.541 -0.4822  0.1504 -1.3623
  457MOL0     C61616   1.358  10.751   2.502 -0.7461  0.5287 -0.4429
  457MOL0     C61617   1.253  10.759   2.589  0.5349  0.7162 -0.4273
  457MOL0     C61618   1.274  10.773   2.724  0.4787 -0.3174  0.0765
  457MOL0     O61619   1.160  10.789   2.807  0.1085  0.8064 -0.1082
  457MOL0     C61620   1.171  10.792   2.953 -0.4107  0.9569 -0.2330
  457MOL0     C61621   1.028  10.831   3.004 -0.4974 -1.3129  0.0329
  457MOL0     C61622   0.910  10.734   2.976  0.4480 -0.3346 -0.5611
  457MOL0     C61623   0.793  10.796   3.043 -0.2059  0.3668 -0.7310
  457MOL0     C61624   0.751  10.917   2.969 -0.6252 -0.7128  0.5914
  457MOL0     C61625   0.716  11.002   2.890 -0.3948 -0.6988 -0.6248
  457MOL0     C61626   1.407  10.779   2.772  0.1262 -0.4099 -0.0464
  457MOL0     C61627   1.512  10.755   2.682  0.3031  0.9249  0.3731
  457MOL0     H61628   1.539  10.737   2.078 -0.2246  0.3478 -0.7830
  457MOL0     H61629   1.689  10.665   1.891  1.4231 -0.0994 -0.7522
  457MOL0     H61630   2.075  10.686   1.913 -0.8677  0.1994 -2.1213
  457MOL0     H61631   2.096  10.535   2.012 -0.6464 -1.8428 -0.5194
  457MOL0     H61632   2.102  10.564   1.715  0.4444  0.5142 -0.3960
  457MOL0     H61633   2.237  10.551   1.813 -0.1085  1.3255 -1.2421
  457MOL0     H61634   2.154  10.318   1.894 -1.2532 -1.4686  0.3157
  457MOL0     H61635   2.041  10.326   1.765  1.9854 -0.3953 -2.9931
  457MOL0     H61636   2.232  10.377   1.603 -0.2118  1.2024  0.9465
  457MOL0     H61637   2.341  10.334   1.729  0.7634 -3.7360  1.1302
  457MOL0     H61638   2.137  10.138   1.621  1.3838 -3.8356 -1.2679
  457MOL0     H61639   2.298  10.147   1.577  1.8970 -1.1066  2.7481
  457MOL0     H61640   2.374  10.121   1.827 -0.3331 -0.5353 -1.1824
  457MOL0     H61641   2.214  10.078   1.870  2.4329 -1.8249  2.6069
  457MOL0     H61642   2.205   9.889   1.740 -0.5710  0.1205  1.5834
  457MOL0     H61643   2.353   9.946   1.653  3.4928  3.5394  2.4123
  457MOL0     H61644   2.363   9.896   1.944  2.2308 -1.5942  0.8374
  457MOL0     H61645   2.491   9.872   1.821  0.4298 -0.1072 -0.8738
  457MOL0     H61646   2.142   9.710   1.871  0.2946  1.4161 -0.4665
  457MOL0     H61647   2.047   9.446   1.845 -1.4292 -2.3302  1.8602
  457MOL0     H61648   2.174   9.323   1.833 -1.7910 -0.6912  0.3510
  457MOL0     H61649   2.167   9.490   2.079  3.1453 -0.6122  1.1643
  457MOL0     H61650   2.261   9.350   2.045  3.5225  3.7779  1.0872
  457MOL0     H61651   2.101   9.199   2.081 -1.2303 -0.7007 -0.7441
  457MOL0     H61652   1.969   9.293   2.012  2.1081  3.1755 -3.0241
  457MOL0     H61653   1.916   9.380   2.228 -0.8808 -0.5364  4.5653
  457MOL0     H61654   2.084   9.363   2.288  0.9932  0.3074 -0.3362
  457MOL0     H61655   1.942   8.959   2.331 -0.6906 -1.5620 -0.4000
  457MOL0     H61656   1.785   8.794   2.627 -1.0440 -2.0790 -1.7054
  457MOL0     H61657   1.808   8.777   2.451  1.5708  1.8351 -1.5436
  457MOL0     H61658   1.947   8.784   2.563  0.2242 -1.1354 -0.5050
  457MOL0     H61659   1.569   8.778   2.850 -0.1767  0.7968 -1.4824
  457MOL0     H61660   1.392   8.735   3.014  4.9639 -0.5432  0.6506
  457MOL0     H61661   1.121   8.867   2.993 -0.5064 -0.9920  0.1956
  457MOL0     H61662   1.151   8.741   3.103 -0.8845 -0.1352  1.4271
  457MOL0     H61663   0.993   8.996   3.158 -3.9810 -1.0868 -0.2162
  457MOL0     H61664   0.923   8.837   3.141 -0.1162 -0.8168 -0.3286
  457MOL0     H61665   1.124   8.866   3.357 -0.1264 -1.4825  1.0964
  457MOL0     H61666   1.001   8.746   3.330 -0.4886  0.0533  0.5516
  457MOL0     H61667   0.949   9.040   3.395 -3.8706  0.7117  1.2109
  457MOL0     H61668   0.835   8.897   3.394  0.3811 -0.4802  0.8867
  457MOL0     H61669   1.050   9.006   3.566  0.5308 -0.8317  2.3798
  457MOL0     H61670   1.008   8.828   3.579  1.7443  0.2854 -0.7857
  457MOL0     H61671   0.803   9.043   3.591 -1.3462  0.9817  0.0502
  457MOL0     H61672   0.787   8.878   3.650 -0.7246  0.9591  2.1167
  457MOL0     H61673   1.000   9.059   3.779  2.2455 -2.0608  3.1577
  457MOL0     H61674   0.937   8.905   3.828 -1.0126 -0.6707 -0.8863
  457MOL0     H61675   0.724   8.993   3.901  1.6561 -2.3275 -1.6390
  457MOL0     H61676   0.731   9.132   3.796 -2.2743  1.8284  1.8232
  457MOL0     H61677   1.280   9.151   3.016 -2.4196 -1.9855  0.2647
  457MOL0     H61678   1.468   9.190   2.846  1.4932  0.7411  1.1387
  457MOL0     H61679   1.794   9.290   2.667  0.9298  1.0080 -1.3066
  457MOL0     H61680   1.915   9.365   2.488  1.4540  0.3726  0.5046
  457MOL0     H61681   1.964  10.520   2.200 -0.1424  1.5589  2.7476
  457MOL0     H61682   1.772  10.544   2.359 -4.0457  0.5542  0.5400
  457MOL0     H61683   1.319  10.756   2.400 -1.7450  3.5793 -0.0042
  457MOL0     H61684   1.149  10.758   2.558  0.0493  0.2218  1.1376
  457MOL0     H61685   1.192  10.694   2.997 -2.3874 -0.7677 -2.7796
  457MOL0     H61686   1.241  10.869   2.985 -2.3356  1.8625  2.0718
  457MOL0     H61687   1.006  10.927   2.956 -1.3269  0.7691  4.1468
  457MOL0     H61688   1.039  10.860   3.109  2.0807  0.8863 -0.7048
  457MOL0     H61689   0.926  10.633   3.013  1.5117  0.2170  0.5723
  457MOL0     H61690   0.899  10.714   2.869  0.2403  0.3405 -0.6733
  457MOL0     H61691   0.807  10.847   3.138 -2.5482  1.2533 -0.8140
  457MOL0     H61692   0.714  10.724   3.063 -0.7922  0.9830 -0.7845
  457MOL0     H61693   0.693  11.058   2.801  0.0672 -2.1050 -1.6638
  457MOL0     H61694   1.439  10.793   2.875  0.0360  1.4204 -0.2460
  457MOL0     H61695   1.612  10.755   2.725 -0.6370 -1.4508  2.8476
  458MOL0     O61696   1.816   2.902   0.196 -1.1708 -0.2094 -0.2728
  458MOL0     C61697   1.891   2.936   0.287  0.3116 -0.3476 -0.5466
  458MOL0     O61698   1.855   2.988   0.406 -0.8942  0.2444  0.0631
  458MOL0     C61699   1.721   2.991   0.433 -0.2076 -0.9859  0.3782
  458MOL0     C61700   1.649   2.879   0.436  0.3859  0.0279  0.0833
  458MOL0     C61701   1.515   2.872   0.477 -0.0385 -0.6773 -0.3661
  458MOL0     C61702   1.457   2.994   0.522  0.1072 -0.7612 -0.2488
  458MOL0     O61703   1.335   3.005   0.580  1.2626 -0.0994  0.1677
  458MOL0     C61704   1.231   2.925   0.524 -0.0062 -0.0393  0.5643
  458MOL0     C61705   1.104   3.009   0.527 -0.2354  0.0384  0.4149
  458MOL0     C61706   0.995   2.943   0.441 -0.2029 -0.2542 -0.3149
  458MOL0     C61707   0.882   3.034   0.401  0.3931  0.1236  0.8583
  458MOL0     C61708   0.776   3.040   0.499 -0.2335 -0.5484 -0.1654
  458MOL0     C61709   0.651   3.116   0.457 -0.4675 -0.0538  0.0545
  458MOL0     C61710   0.648   3.247   0.386 -0.5903 -0.0249  0.1973
  458MOL0     C61711   0.512   3.304   0.401  1.0373 -0.4545  0.5557
  458MOL0     N61712   0.432   3.238   0.309  0.4734 -0.7565 -0.0944
  458MOL0     C61713   0.327   3.164   0.354  0.6965 -0.4753  0.5502
  458MOL0     C61714   0.254   3.127   0.248 -0.2297  0.6478 -0.6716
  458MOL0     C61715   0.129   3.047   0.248 -0.2651  0.9526 -0.2957
  458MOL0     C61716   0.015   3.113   0.332 -0.0018  0.0368 -0.7703
  458MOL0     C61717  -0.117   3.036   0.294 -0.0460 -0.2038 -0.1559
  458MOL0     C61718  -0.253   3.096   0.344  0.1645 -0.5551  0.5459
  458MOL0     O61719  -0.362   3.009   0.298 -0.5037 -0.2665  0.7973
  458MOL0     C61720  -0.415   3.063   0.177  0.2379  0.6952 -0.6215
  458MOL0     C61721  -0.384   3.002   0.049 -0.1433  0.3375  0.2230
  458MOL0     C61722  -0.448   3.054  -0.063  0.2202  0.0924 -0.2371
  458MOL0     C61723  -0.404   2.982  -0.189  0.0211  0.7198  0.3257
  458MOL0     C61724  -0.538   3.160  -0.058 -0.2634 -0.0444 -0.1120
  458MOL0     C61725  -0.598   3.230  -0.174  0.8364 -0.4879  0.3894
  458MOL0     O61726  -0.683   3.341  -0.143 -0.4123 -0.5828 -1.2615
  458MOL0     C61727  -0.766   3.402  -0.234  0.8181  0.5913 -0.1293
  458MOL0     C61728  -0.834   3.325  -0.333 -0.4729  0.4223 -0.1482
  458MOL0     C61729  -0.924   3.395  -0.416 -1.0861  0.9749 -0.9696
  458MOL0     C61730  -0.940   3.531  -0.418  0.6713  0.6227  0.3067
  458MOL0     O61731  -1.049   3.580  -0.476  0.4131 -0.4654  0.7772
  458MOL0     C61732  -1.103   3.716  -0.474 -0.4933 -1.3135  0.0497
  458MOL0     C61733  -1.032   3.805  -0.570 -0.8532  0.5452  0.1437
  458MOL0     C61734  -1.060   3.774  -0.717  0.3041 -0.3999  0.0737
  458MOL0     C61735  -1.212   3.754  -0.741 -0.6654 -0.1119  0.1286
  458MOL0     C61736  -1.226   3.725  -0.891 -0.2559 -0.4924  0.5439
  458MOL0     C61737  -1.244   3.842  -0.977  0.1980  0.6994  1.0532
  458MOL0     C61738  -1.311   3.813  -1.107  0.2137 -0.0219  0.6641
  458MOL0     C61739  -1.318   3.927  -1.206 -0.0317 -0.0609  0.6412
  458MOL0    Cl61740  -1.454   3.903  -1.307 -0.0737  0.0762  0.4175
  458MOL0     C61741  -0.867   3.604  -0.330 -0.4364 -0.5034  0.0531
  458MOL0     C61742  -0.786   3.549  -0.242 -0.0838  0.2917  0.0370
  458MOL0     O61743  -0.560   3.212  -0.292 -0.9975  0.1211  0.6711
  458MOL0     C61744  -0.568   3.207   0.074  0.4180  0.3005  0.7702
  458MOL0     C61745  -0.516   3.152   0.189 -0.6991  0.7535  0.3725
  458MOL0     N61746   0.320   3.182   0.140 -0.0425 -0.1424  0.5431
  458MOL0     N61747   0.415   3.262   0.178 -0.2342 -1.0928  0.3917
  458MOL0     C61748   1.536   3.105   0.530  0.0218 -0.6526 -0.2012
  458MOL0     C61749   1.669   3.110   0.488  0.7248 -0.1514 -0.8693
  458MOL0     C61750   2.034   2.913   0.264  0.9224 -0.3246 -0.1431
  458MOL0     C61751   2.124   2.964   0.352  0.9981 -0.2080  0.9949
  458MOL0     C61752   2.266   2.946   0.333  0.2463  0.3465  0.4099
  458MOL0     C61753   2.320   2.875   0.224 -0.2605  0.2041 -0.1144
  458MOL0     O61754   2.455   2.867   0.199 -0.5696 -0.6070  0.0608
  458MOL0     C61755   2.499   2.874   0.056  0.2110  0.1311 -0.4981
  458MOL0     C61756   2.635   2.950   0.042 -0.1051 -0.4162 -1.2480
  458MOL0     C61757   2.743   2.846   0.095  0.8460  0.1173 -0.2250
  458MOL0     C61758   2.877   2.915   0.141 -0.2824  0.1362  0.7239
  458MOL0     C61759   2.963   2.831   0.224 -0.0287 -0.1803  1.2902
  458MOL0     C61760   3.035   2.746   0.278  0.9716  0.7485  0.1466
  458MOL0     C61761   2.228   2.793   0.156 -0.1768 -0.1450  0.2185
  458MOL0     C61762   2.085   2.815   0.174 -0.3582  0.6304  0.2161
  458MOL0     H61763   1.691   2.785   0.402 -0.1374 -0.1190 -0.1800
  458MOL0     H61764   1.464   2.777   0.491 -2.6633  0.4052 -1.7162
  458MOL0     H61765   1.246   2.894   0.420  0.7744 -2.6069  1.3580
  458MOL0     H61766   1.226   2.835   0.586 -0.3528  0.4472  1.2483
  458MOL0     H61767   1.064   3.027   0.627  2.4190 -0.1476  1.5905
  458MOL0     H61768   1.125   3.105   0.480 -0.6906  0.7421  1.5938
  458MOL0     H61769   1.035   2.897   0.350 -1.0867  0.9081 -1.3145
  458MOL0     H61770   0.962   2.854   0.496  1.0898 -1.6762 -1.7221
  458MOL0     H61771   0.909   3.134   0.369  0.4535 -0.8869 -2.5887
  458MOL0     H61772   0.844   2.986   0.310 -0.4143 -1.5273  2.0103
  458MOL0     H61773   0.742   2.940   0.529 -2.1326  0.1345  0.1008
  458MOL0     H61774   0.828   3.077   0.588 -0.1741 -2.2095  0.5357
  458MOL0     H61775   0.598   3.047   0.391 -0.7982  2.1725 -2.1459
  458MOL0     H61776   0.601   3.136   0.552 -1.5145  1.7894 -0.8293
  458MOL0     H61777   0.728   3.311   0.424 -1.8511  2.6446 -1.3665
  458MOL0     H61778   0.664   3.243   0.278 -0.5490 -0.3558  0.2154
  458MOL0     H61779   0.524   3.400   0.350  0.8988 -1.5824 -1.7022
  458MOL0     H61780   0.482   3.305   0.506  1.7353 -0.2887  0.7628
  458MOL0     H61781   0.311   3.151   0.461  1.1320  2.9821  1.1531
  458MOL0     H61782   0.093   3.049   0.144 -1.6863  0.3083  0.1590
  458MOL0     H61783   0.152   2.945   0.280 -1.0743 -0.0411 -2.6576
  458MOL0     H61784  -0.004   3.215   0.299 -0.2469 -0.2330 -1.4753
  458MOL0     H61785   0.044   3.114   0.438  3.3331 -0.7470 -1.5513
  458MOL0     H61786  -0.113   2.933   0.330  0.1435  1.0915  4.1545
  458MOL0     H61787  -0.126   3.029   0.185 -0.1087  2.1483 -0.3530
  458MOL0     H61788  -0.276   3.198   0.313 -2.8964 -1.7009 -1.4957
  458MOL0     H61789  -0.246   3.095   0.453 -1.4215 -0.2087  0.6818
  458MOL0     H61790  -0.314   2.919   0.052  0.5839  0.9562  0.6758
  458MOL0     H61791  -0.296   2.989  -0.199 -0.1764  1.9997 -1.2241
  458MOL0     H61792  -0.425   2.877  -0.163 -3.8806  1.3265  0.3265
  458MOL0     H61793  -0.453   2.995  -0.286  0.7529  1.3199  0.0286
  458MOL0     H61794  -0.830   3.217  -0.342  0.8797  0.4165  0.2697
  458MOL0     H61795  -0.978   3.322  -0.474  1.4501 -0.4729 -1.6589
  458MOL0     H61796  -1.211   3.713  -0.487 -0.9229 -1.6341  3.0374
  458MOL0     H61797  -1.085   3.767  -0.378 -0.7544  0.5309 -0.8328
  458MOL0     H61798  -1.058   3.909  -0.549  0.6229  0.8557  0.4935
  458MOL0     H61799  -0.924   3.798  -0.559 -0.5191  3.7513 -0.2622
  458MOL0     H61800  -1.012   3.679  -0.739  1.9255  0.5247 -0.5363
  458MOL0     H61801  -1.025   3.859  -0.777  0.6352  0.3104  1.2371
  458MOL0     H61802  -1.252   3.666  -0.689 -0.6752  0.9949  2.0385
  458MOL0     H61803  -1.279   3.837  -0.719 -0.9569 -0.1471 -0.5868
  458MOL0     H61804  -1.308   3.655  -0.911  0.7342 -1.8285  1.0353
  458MOL0     H61805  -1.150   3.661  -0.938  1.0565  3.0715 -2.8155
  458MOL0     H61806  -1.305   3.913  -0.921  1.1855  3.8176 -1.5508
  458MOL0     H61807  -1.146   3.889  -0.980 -0.1545  1.5143  1.8473
  458MOL0     H61808  -1.416   3.789  -1.090 -1.3269  5.5858  1.1679
  458MOL0     H61809  -1.261   3.728  -1.155  2.7483  2.1622 -0.8979
  458MOL0     H61810  -1.231   3.916  -1.271 -3.1017 -4.5946 -3.3989
  458MOL0     H61811  -1.330   4.023  -1.155 -4.6640 -1.3294  2.4601
  458MOL0     H61812  -0.880   3.712  -0.328 -0.5471 -0.5317  1.6211
  458MOL0     H61813  -0.722   3.602  -0.172 -0.9128 -2.6417  3.2688
  458MOL0     H61814  -0.638   3.288   0.092  1.9817  2.0540 -0.7187
  458MOL0     H61815  -0.545   3.185   0.288 -3.8711  1.6907 -0.7572
  458MOL0     H61816   1.497   3.198   0.571 -0.3729 -0.7319 -0.3944
  458MOL0     H61817   1.736   3.195   0.492 -0.4202  0.7943 -1.2414
  458MOL0     H61818   2.100   3.041   0.424  2.8560  2.0986 -0.6927
  458MOL0     H61819   2.332   2.990   0.408 -3.6573  3.1822  2.5497
  458MOL0     H61820   2.496   2.778   0.004 -0.3584  1.1625 -2.4789
  458MOL0     H61821   2.418   2.934   0.013 -0.3541  0.2023  0.6087
  458MOL0     H61822   2.645   3.035   0.110 -0.2833  0.2278 -2.0148
  458MOL0     H61823   2.647   2.978  -0.063  1.1001  2.4433 -0.4310
  458MOL0     H61824   2.761   2.774   0.014 -0.1295 -3.4460  2.4929
  458MOL0     H61825   2.704   2.786   0.178 -2.3979  2.6006  0.2427
  458MOL0     H61826   2.862   3.002   0.205  1.3494 -0.2381  1.6980
  458MOL0     H61827   2.945   2.947   0.061 -1.2635 -0.6473 -0.4530
  458MOL0     H61828   3.090   2.658   0.306 -0.2906  0.2007  1.0295
  458MOL0     H61829   2.273   2.724   0.085 -0.9052 -2.8311  2.2142
  458MOL0     H61830   2.019   2.766   0.103  2.1468 -2.1716 -0.4223
  459MOL0     O61831   9.468  11.222   1.664  0.4697 -0.2692 -0.5108
  459MOL0     C61832   9.474  11.329   1.719  0.1122 -0.7142 -0.3660
  459MOL0     O61833   9.447  11.451   1.653  0.0212 -0.6910 -0.2701
  459MOL0     C61834   9.412  11.455   1.517  0.0970 -0.3319  0.5386
  459MOL0     C61835   9.483  11.552   1.443  0.0350 -0.2267  0.3941
  459MOL0     C61836   9.452  11.584   1.307 -0.6594  1.0464 -0.1163
  459MOL0     C61837   9.355  11.508   1.239  0.3839 -0.0453 -0.6161
  459MOL0     O61838   9.308  11.546   1.119 -0.7770  0.3097  0.2149
  459MOL0     C61839   9.409  11.507   1.021 -0.7214 -0.1030 -0.2993
  459MOL0     C61840   9.376  11.544   0.882  0.7997  0.7008 -0.8245
  459MOL0     C61841   9.471  11.491   0.770 -0.5191 -0.5230  0.2750
  459MOL0     C61842   9.440  11.357   0.719  1.1346 -0.6777  0.5725
  459MOL0     C61843   9.510  11.310   0.592 -0.4518 -0.2946  0.0241
  459MOL0     C61844   9.665  11.286   0.625 -1.0485  0.1543  0.0642
  459MOL0     C61845   9.741  11.248   0.495 -0.0271 -0.3919 -0.1661
  459MOL0     C61846   9.827  11.370   0.449 -0.0900  0.2976 -0.0490
  459MOL0     N61847   9.748  11.471   0.375 -0.1423 -0.8265 -0.8281
  459MOL0     C61848   9.679  11.579   0.436 -1.2449  0.5940  0.3424
  459MOL0     C61849   9.632  11.640   0.326 -0.2390  0.2518 -0.0377
  459MOL0     C61850   9.556  11.771   0.337 -0.2716 -0.9685 -0.4916
  459MOL0     C61851   9.603  11.870   0.451  0.0976 -0.2910  0.3290
  459MOL0     C61852   9.747  11.936   0.435  0.6385 -0.5696  0.4211
  459MOL0     C61853   9.774  12.011   0.305  0.4011  0.0396  0.0830
  459MOL0     O61854   9.691  12.121   0.311 -0.4058 -0.9618 -0.2335
  459MOL0     C61855   9.725  12.224   0.403  0.4148 -0.2754  0.0823
  459MOL0     C61856   9.629  12.326   0.414 -0.2078  0.1032  0.1934
  459MOL0     C61857   9.663  12.449   0.475 -0.2762  0.9867  0.5948
  459MOL0     C61858   9.570  12.563   0.475  0.0918 -0.4503  1.6509
  459MOL0     C61859   9.794  12.459   0.548  1.2575  1.2269 -0.7703
  459MOL0     C61860   9.844  12.585   0.624  1.1933  0.6388 -0.5106
  459MOL0     O61861   9.780  12.711   0.604  0.2754  1.3577 -0.1123
  459MOL0     C61862   9.828  12.824   0.661  0.5533  0.3113 -0.6539
  459MOL0     C61863   9.806  12.847   0.802 -0.6034 -0.3677  0.7134
  459MOL0     C61864   9.851  12.962   0.863  0.3102  0.3548  0.2402
  459MOL0     C61865   9.918  13.067   0.791  0.6255  0.8120 -0.0701
  459MOL0     O61866   9.976  13.176   0.853 -0.2630 -0.5559 -0.0884
  459MOL0     C61867   9.980  13.183   0.990 -0.5827 -0.7137  0.1964
  459MOL0     C61868  10.089  13.081   1.043 -0.9209 -0.7973  1.0880
  459MOL0     C61869  10.243  13.107   1.023 -1.0329  0.2547  0.1150
  459MOL0     C61870  10.295  13.218   1.112  0.0950  0.6824 -0.2681
  459MOL0     C61871  10.443  13.254   1.087 -0.7473 -0.2350  0.0308
  459MOL0     C61872  10.453  13.406   1.061  0.1250  0.8660  0.0551
  459MOL0     C61873  10.598  13.438   1.032  0.7254 -0.5523  1.5060
  459MOL0     C61874  10.700  13.417   1.144 -1.1674 -0.1409 -0.2211
  459MOL0    Cl61875  10.646  13.512   1.280 -0.2937  0.2857  0.7481
  459MOL0     C61876   9.929  13.048   0.649  0.6985 -0.7775 -0.3011
  459MOL0     C61877   9.888  12.932   0.588  0.3566  0.5545  1.0080
  459MOL0     O61878   9.938  12.562   0.701 -0.2431  1.1026 -0.5121
  459MOL0     C61879   9.874  12.346   0.535 -0.8228 -0.2816 -0.4579
  459MOL0     C61880   9.843  12.234   0.471  0.1278  0.2436 -0.4188
  459MOL0     N61881   9.676  11.576   0.211 -0.0906  0.7639 -0.1587
  459MOL0     N61882   9.759  11.486   0.242  1.0648 -0.8565  0.2761
  459MOL0     C61883   9.287  11.404   1.309  0.6095  0.0183 -0.7872
  459MOL0     C61884   9.321  11.379   1.446 -0.2412  0.0266 -0.4290
  459MOL0     C61885   9.513  11.330   1.869 -0.4263 -0.5057  0.3119
  459MOL0     C61886   9.502  11.453   1.940  0.2231  0.2162  0.1720
  459MOL0     C61887   9.543  11.455   2.070 -0.9248  0.0210 -0.8926
  459MOL0     C61888   9.589  11.338   2.134  0.2867 -0.9287  0.1189
  459MOL0     O61889   9.619  11.321   2.266 -1.0978  0.4131  0.4452
  459MOL0     C61890   9.645  11.425   2.373 -0.2245 -0.3328  0.0243
  459MOL0     C61891   9.581  11.387   2.511 -0.3320  0.4424 -0.3792
  459MOL0     C61892   9.647  11.259   2.568 -0.3453  1.1958  0.0126
  459MOL0     C61893   9.608  11.243   2.717  0.0971 -1.2490 -0.1060
  459MOL0     C61894   9.662  11.336   2.818  0.2401 -0.7790 -0.0681
  459MOL0     C61895   9.704  11.409   2.900 -0.5279 -1.1844 -0.2862
  459MOL0     C61896   9.596  11.221   2.066  0.8406 -0.7185  0.1988
  459MOL0     C61897   9.565  11.222   1.930 -0.7834  0.2742  0.1110
  459MOL0     H61898   9.540  11.617   1.508  2.7261  0.7438 -2.6562
  459MOL0     H61899   9.505  11.667   1.260  0.1929  0.2926 -0.5165
  459MOL0     H61900   9.507  11.555   1.033  0.2564 -1.4130 -2.2823
  459MOL0     H61901   9.420  11.399   1.031 -1.9735 -0.0563  2.2784
  459MOL0     H61902   9.281  11.518   0.834  0.9813 -1.2176 -0.2304
  459MOL0     H61903   9.382  11.652   0.890 -0.6343  0.6517  2.4221
  459MOL0     H61904   9.464  11.570   0.695  0.5978 -1.1234 -0.5053
  459MOL0     H61905   9.577  11.489   0.798 -0.3547 -0.5847 -0.3372
  459MOL0     H61906   9.460  11.283   0.798 -0.0274 -0.4771  1.0785
  459MOL0     H61907   9.334  11.352   0.692  0.7577  0.6824  1.6821
  459MOL0     H61908   9.467  11.215   0.559 -1.2979  0.6511 -1.7038
  459MOL0     H61909   9.499  11.386   0.514 -1.8273 -0.7743 -0.2791
  459MOL0     H61910   9.706  11.379   0.665 -2.5465  1.2048 -0.7269
  459MOL0     H61911   9.671  11.212   0.706  0.7553  4.5544  4.4126
  459MOL0     H61912   9.813  11.168   0.514  0.4347  0.0033 -0.2280
  459MOL0     H61913   9.663  11.219   0.424  0.9050  1.0034 -1.8673
  459MOL0     H61914   9.899  11.326   0.380  1.5806  2.1174  0.4430
  459MOL0     H61915   9.880  11.410   0.536 -1.8267  1.0576  0.7198
  459MOL0     H61916   9.673  11.617   0.537 -1.9368  1.1245  0.1065
  459MOL0     H61917   9.552  11.817   0.238 -0.4920 -1.8271 -0.8946
  459MOL0     H61918   9.452  11.743   0.352 -0.6975  0.7408 -0.0720
  459MOL0     H61919   9.591  11.815   0.544  0.7986 -0.5698  0.2626
  459MOL0     H61920   9.546  11.964   0.450  2.4498  1.2829  2.4899
  459MOL0     H61921   9.828  11.863   0.434  0.5860 -0.6238 -0.0025
  459MOL0     H61922   9.766  11.988   0.530  0.3264  2.8662 -1.2457
  459MOL0     H61923   9.761  11.951   0.214  0.4007  1.1522 -0.6759
  459MOL0     H61924   9.881  12.030   0.295  0.3431  0.0068 -0.6512
  459MOL0     H61925   9.529  12.312   0.374  0.3542 -1.2776 -0.8301
  459MOL0     H61926   9.555  12.619   0.568 -2.5778  0.9611  0.4629
  459MOL0     H61927   9.613  12.636   0.406 -1.7338 -0.9106 -0.0503
  459MOL0     H61928   9.470  12.530   0.447 -0.4930 -0.0214  3.1341
  459MOL0     H61929   9.746  12.775   0.858  1.2020  0.5359  4.0449
  459MOL0     H61930   9.826  12.965   0.969 -0.4859  0.9232  0.0428
  459MOL0     H61931  10.020  13.282   1.013 -0.5075 -0.6381 -0.2578
  459MOL0     H61932   9.883  13.168   1.039 -0.0254 -1.7038  1.0389
  459MOL0     H61933  10.080  13.079   1.152 -2.1225  1.7321  1.1052
  459MOL0     H61934  10.062  12.985   0.999 -1.3194  0.7439 -2.4183
  459MOL0     H61935  10.262  13.142   0.921  2.6253 -1.6082  0.0083
  459MOL0     H61936  10.305  13.018   1.036 -1.6326 -0.1249  0.4432
  459MOL0     H61937  10.229  13.302   1.091  1.5370  1.2244 -3.1028
  459MOL0     H61938  10.284  13.192   1.218 -0.9323  1.4075 -0.1832
  459MOL0     H61939  10.475  13.208   0.993  1.2424  0.3814  0.3641
  459MOL0     H61940  10.508  13.218   1.167 -2.7347 -0.2577  1.7220
  459MOL0     H61941  10.396  13.430   0.971  1.1964  2.4275 -0.2494
  459MOL0     H61942  10.421  13.473   1.141  2.0127 -1.6007  3.1544
  459MOL0     H61943  10.594  13.544   1.005  0.9091 -0.1593  2.9585
  459MOL0     H61944  10.638  13.394   0.940  0.4517 -0.3670  1.2971
  459MOL0     H61945  10.795  13.464   1.118 -0.7784 -0.7073  0.1586
  459MOL0     H61946  10.727  13.316   1.176  0.2747  1.3122  3.7151
  459MOL0     H61947   9.977  13.120   0.583  0.9043  0.0889  0.7562
  459MOL0     H61948   9.915  12.909   0.485  2.3305  1.3281  1.3025
  459MOL0     H61949   9.972  12.362   0.580 -1.7267  1.5125  1.0100
  459MOL0     H61950   9.925  12.164   0.464 -0.6166 -0.9923  2.0207
  459MOL0     H61951   9.221  11.329   1.265  2.7721 -1.0863 -2.3452
  459MOL0     H61952   9.286  11.286   1.489  2.1141 -1.9324 -2.4431
  459MOL0     H61953   9.470  11.548   1.898 -0.4747 -0.8902 -1.9904
  459MOL0     H61954   9.560  11.550   2.121  0.0296 -0.2522 -0.6836
  459MOL0     H61955   9.753  11.442   2.379 -0.1393 -0.2138 -1.3975
  459MOL0     H61956   9.598  11.517   2.337  1.0806 -0.4023 -2.0038
  459MOL0     H61957   9.472  11.373   2.506 -0.5924  2.4962 -1.6563
  459MOL0     H61958   9.598  11.471   2.578  0.4549  1.9505 -2.3584
  459MOL0     H61959   9.757  11.255   2.563 -0.1659  2.7013  1.7618
  459MOL0     H61960   9.614  11.178   2.502 -1.6616  1.1721  0.6662
  459MOL0     H61961   9.649  11.148   2.752  2.9577  0.5414  1.8302
  459MOL0     H61962   9.500  11.232   2.726 -0.1451  1.4598  1.3160
  459MOL0     H61963   9.724  11.464   2.989 -2.4658  0.3225 -0.7134
  459MOL0     H61964   9.633  11.142   2.130 -0.5330 -0.6439  1.1323
  459MOL0     H61965   9.578  11.128   1.877 -0.3374  1.1100 -1.3339
  460MOL0     O61966   0.045  11.080   5.440 -0.5558 -0.0500  1.4951
  460MOL0     C61967   0.149  11.133   5.469  0.0011  0.4700 -0.1558
  460MOL0     O61968   0.252  11.068   5.512 -0.0239  0.6373  0.3458
  460MOL0     C61969   0.259  10.937   5.475  0.3941  0.0891  0.1674
  460MOL0     C61970   0.295  10.842   5.568  0.5126 -0.7598  0.3049
  460MOL0     C61971   0.286  10.701   5.537 -0.0937 -0.0494  0.5655
  460MOL0     C61972   0.262  10.664   5.402  1.4930  0.1405 -0.0208
  460MOL0     O61973   0.260  10.537   5.356 -0.0939 -0.2416 -0.1485
  460MOL0     C61974   0.337  10.432   5.423  0.7298 -0.0515  0.3987
  460MOL0     C61975   0.306  10.306   5.346  0.1067  0.3417 -0.2361
  460MOL0     C61976   0.384  10.179   5.386 -0.4824 -0.1953  1.1562
  460MOL0     C61977   0.305  10.055   5.357  0.8768 -0.8863 -0.5796
  460MOL0     C61978   0.354   9.934   5.428 -0.2680 -0.2947 -0.2716
  460MOL0     C61979   0.292   9.814   5.368 -0.4959  0.0978 -0.0296
  460MOL0     C61980   0.330   9.691   5.448  0.4441 -1.0408  0.2406
  460MOL0     C61981   0.268   9.566   5.378 -0.3156  0.2615  1.2155
  460MOL0     N61982   0.296   9.550   5.229 -0.1889  0.6545  0.4366
  460MOL0     C61983   0.194   9.571   5.135 -1.2017 -0.6586  0.5350
  460MOL0     C61984   0.256   9.550   5.011 -0.4222  0.1221 -0.1455
  460MOL0     C61985   0.203   9.530   4.879 -1.8347  0.3639 -0.9597
  460MOL0     C61986   0.052   9.583   4.874  0.7797 -1.0353 -0.5092
  460MOL0     C61987  -0.060   9.484   4.926 -0.7597  0.4982  0.4925
  460MOL0     C61988  -0.184   9.535   4.858  0.8284  1.2813 -0.4941
  460MOL0     O61989  -0.299   9.493   4.931 -0.5179  0.3705 -0.6796
  460MOL0     C61990  -0.424   9.503   4.889 -0.1600  0.5209  0.0879
  460MOL0     C61991  -0.467   9.563   4.762  0.6380 -0.0616  0.0534
  460MOL0     C61992  -0.603   9.555   4.727  0.0594 -0.6928 -0.9753
  460MOL0     C61993  -0.633   9.566   4.579 -0.7467  0.2961 -0.2939
  460MOL0     C61994  -0.705   9.516   4.817 -0.2061 -0.2389 -0.3383
  460MOL0     C61995  -0.852   9.527   4.789 -0.2272 -0.4096  0.1657
  460MOL0     O61996  -0.929   9.485   4.891  0.5129  0.6746  0.6720
  460MOL0     C61997  -1.067   9.477   4.878  0.3574 -0.5284  0.1582
  460MOL0     C61998  -1.152   9.578   4.822  0.0544  0.0187  0.1962
  460MOL0     C61999  -1.289   9.558   4.822 -0.1610 -0.0812  0.2194
  460MOL0     C62000  -1.346   9.445   4.876 -1.0710  0.0959 -0.0655
  460MOL0     O62001  -1.483   9.429   4.883 -0.1155 -0.0472  1.4206
  460MOL0     C62002  -1.541   9.501   4.993 -0.3726 -0.3685 -0.8530
  460MOL0     C62003  -1.521   9.430   5.125 -0.0875  0.4236  0.0569
  460MOL0     C62004  -1.613   9.470   5.240 -0.3609  0.4202  0.1681
  460MOL0     C62005  -1.660   9.617   5.247 -0.0847  0.3125 -0.0496
  460MOL0     C62006  -1.752   9.634   5.374  0.3340 -0.3178 -0.3474
  460MOL0     C62007  -1.785   9.780   5.398 -0.0187  0.5238  1.2414
  460MOL0     C62008  -1.878   9.791   5.518 -0.4676 -0.6801  0.3049
  460MOL0     C62009  -1.927   9.940   5.528 -0.7414  0.0213  0.8191
  460MOL0    Cl62010  -1.787  10.050   5.505  0.1245 -0.4376  0.4633
  460MOL0     C62011  -1.258   9.340   4.920  0.4753 -0.6723 -1.1260
  460MOL0     C62012  -1.124   9.357   4.915 -1.0641 -0.0926 -0.2172
  460MOL0     O62013  -0.894   9.575   4.682  0.0430 -0.7819  0.2935
  460MOL0     C62014  -0.660   9.457   4.937 -0.2013  0.6161  0.3618
  460MOL0     C62015  -0.522   9.462   4.980 -0.8411  0.7448  0.5792
  460MOL0     N62016   0.392   9.531   5.039 -0.2534 -0.5386  0.5139
  460MOL0     N62017   0.420   9.541   5.165 -0.6262  0.1048 -0.0233
  460MOL0     C62018   0.239  10.764   5.308  0.2480 -0.1510  0.7466
  460MOL0     C62019   0.244  10.896   5.341 -0.4345  1.2109 -0.8179
  460MOL0     C62020   0.168  11.275   5.440  0.7424 -0.4722  0.4273
  460MOL0     C62021   0.287  11.346   5.472 -0.8651  0.2457 -0.2297
  460MOL0     C62022   0.319  11.469   5.414 -0.3413  0.4520 -0.5722
  460MOL0     C62023   0.245  11.536   5.321  0.9708 -0.2778  0.1045
  460MOL0     O62024   0.277  11.668   5.282  0.2495 -0.4865  0.7214
  460MOL0     C62025   0.227  11.719   5.154  0.1585  0.7218  0.4433
  460MOL0     C62026   0.307  11.838   5.115 -0.2385  0.7940  0.5834
  460MOL0     C62027   0.227  11.967   5.113 -0.3060 -1.0676 -0.2692
  460MOL0     C62028   0.185  12.021   5.248  0.1642 -0.1648 -0.0410
  460MOL0     C62029   0.297  12.105   5.304 -0.2603 -0.1548 -0.6666
  460MOL0     C62030   0.390  12.173   5.337  0.4243 -0.1765 -0.0256
  460MOL0     C62031   0.128  11.465   5.287  0.4985  0.2898 -0.8146
  460MOL0     C62032   0.080  11.345   5.346 -0.8930  0.1632  0.5697
  460MOL0     H62033   0.314  10.862   5.673 -0.4180 -3.0567  0.9493
  460MOL0     H62034   0.311  10.627   5.613 -0.3454  0.5895  1.2919
  460MOL0     H62035   0.446  10.445   5.421  1.3899 -4.1647  1.0950
  460MOL0     H62036   0.312  10.430   5.529 -0.9943  2.2111  0.1114
  460MOL0     H62037   0.197  10.304   5.354 -0.1596  3.8951 -1.2553
  460MOL0     H62038   0.329  10.317   5.240 -0.7055 -1.5309 -0.6389
  460MOL0     H62039   0.477  10.189   5.329 -0.4572  0.5745  1.3121
  460MOL0     H62040   0.422  10.182   5.489  0.2638  1.7437  0.8811
  460MOL0     H62041   0.204  10.070   5.396  1.5260  0.0709  0.8546
  460MOL0     H62042   0.313  10.051   5.248 -0.1648 -0.4572 -0.6780
  460MOL0     H62043   0.462   9.915   5.426 -0.3725 -0.9038 -1.5645
  460MOL0     H62044   0.329   9.950   5.533 -1.5665  2.1228 -0.8689
  460MOL0     H62045   0.183   9.815   5.381 -0.6361  0.0611 -1.0747
  460MOL0     H62046   0.315   9.802   5.261 -0.9953 -2.7265  0.0940
  460MOL0     H62047   0.439   9.686   5.448  0.4026 -2.7000  1.6950
  460MOL0     H62048   0.298   9.693   5.553 -1.5983 -0.0590 -0.3449
  460MOL0     H62049   0.160   9.560   5.393 -0.6887 -0.9530 -1.3772
  460MOL0     H62050   0.315   9.477   5.419  1.1090  0.0085 -0.7904
  460MOL0     H62051   0.090   9.599   5.147 -0.6023  2.3009 -0.3142
  460MOL0     H62052   0.274   9.577   4.811 -0.1360 -0.6542  0.0374
  460MOL0     H62053   0.203   9.421   4.868  1.4956 -0.0984  1.8326
  460MOL0     H62054   0.035   9.617   4.771  2.1463  2.4392  0.2754
  460MOL0     H62055   0.039   9.669   4.941  1.7351 -2.3370  1.4283
  460MOL0     H62056  -0.078   9.478   5.034 -4.7932 -0.6359 -0.0640
  460MOL0     H62057  -0.044   9.387   4.878  1.0895  1.6265 -1.2923
  460MOL0     H62058  -0.190   9.494   4.757 -0.5058 -0.6351  0.3003
  460MOL0     H62059  -0.189   9.645   4.857 -0.1978  1.2392 -0.7465
  460MOL0     H62060  -0.407   9.611   4.686  0.3014  2.9241  1.5171
  460MOL0     H62061  -0.683   9.662   4.561  1.5377  1.8548  1.1142
  460MOL0     H62062  -0.538   9.568   4.525 -1.3427 -0.3241 -1.3972
  460MOL0     H62063  -0.683   9.474   4.548 -0.9094 -0.2108  1.3877
  460MOL0     H62064  -1.106   9.666   4.779  0.6795  0.1498  1.1147
  460MOL0     H62065  -1.358   9.625   4.772 -0.8467 -0.0387  1.1939
  460MOL0     H62066  -1.497   9.600   5.001 -0.4274 -0.2987 -1.3872
  460MOL0     H62067  -1.650   9.512   4.987 -0.2749  2.0584  0.4539
  460MOL0     H62068  -1.520   9.321   5.120 -1.5403  0.4006  0.0339
  460MOL0     H62069  -1.419   9.457   5.153  0.1270 -0.3289  0.0086
  460MOL0     H62070  -1.561   9.452   5.335 -0.9870  0.7900  0.5917
  460MOL0     H62071  -1.700   9.404   5.249  0.6931 -1.1504 -0.7854
  460MOL0     H62072  -1.570   9.678   5.236  0.0183 -0.1921 -2.3045
  460MOL0     H62073  -1.723   9.645   5.163  3.5557  1.0826 -2.7624
  460MOL0     H62074  -1.705   9.593   5.464  1.5268 -0.1279 -0.8702
  460MOL0     H62075  -1.844   9.577   5.363 -1.0874  1.5018  1.3657
  460MOL0     H62076  -1.689   9.831   5.410  2.3270 -3.3122  0.1886
  460MOL0     H62077  -1.834   9.796   5.301  0.9934 -5.1339 -0.5155
  460MOL0     H62078  -1.829   9.751   5.608 -2.4842 -0.3587  1.6021
  460MOL0     H62079  -1.972   9.738   5.503 -0.5475 -0.6889  0.8087
  460MOL0     H62080  -1.968   9.958   5.628 -1.1193  0.6131  0.5642
  460MOL0     H62081  -1.995   9.971   5.449  1.6200  0.5390 -1.1491
  460MOL0     H62082  -1.289   9.247   4.967 -1.0647 -0.1889 -1.1195
  460MOL0     H62083  -1.061   9.275   4.947 -0.9542 -1.0239 -2.6221
  460MOL0     H62084  -0.734   9.407   4.999 -2.7650  1.2449 -1.9744
  460MOL0     H62085  -0.498   9.400   5.066 -0.8304 -2.8668 -1.8417
  460MOL0     H62086   0.223  10.748   5.202  0.0259  0.8904  0.6136
  460MOL0     H62087   0.249  10.975   5.268  1.1437  3.1875  1.2640
  460MOL0     H62088   0.364  11.303   5.537 -1.9792  1.4195  1.9621
  460MOL0     H62089   0.405  11.528   5.443  0.2781 -0.6432 -0.1340
  460MOL0     H62090   0.229  11.640   5.078 -5.2969 -3.6301  4.0311
  460MOL0     H62091   0.121  11.734   5.178  0.4581  0.6302  1.8757
  460MOL0     H62092   0.336  11.822   5.011 -0.7714 -1.6250  0.7503
  460MOL0     H62093   0.396  11.848   5.177 -0.8842  0.6209  1.5623
  460MOL0     H62094   0.142  11.963   5.044  1.3542 -1.3374 -2.3916
  460MOL0     H62095   0.295  12.040   5.069  1.7470 -0.7802  3.0583
  460MOL0     H62096   0.146  11.946   5.317 -0.6480 -0.6895 -1.0393
  460MOL0     H62097   0.099  12.087   5.232  2.0160  2.0085 -1.7890
  460MOL0     H62098   0.470  12.233   5.376 -1.3223  1.6005  1.0311
  460MOL0     H62099   0.065  11.524   5.220 -1.9824 -1.4400 -0.1551
  460MOL0     H62100  -0.014  11.301   5.312 -1.1668  2.0475 -1.3375
  461MOL0     O62101   7.828   8.977   5.525 -0.2514  0.4803  0.0672
  461MOL0     C62102   7.892   9.083   5.512 -0.3083 -0.4186 -0.8216
  461MOL0     O62103   8.020   9.092   5.462  0.1659  0.8405 -1.1239
  461MOL0     C62104   8.076   8.976   5.413  0.1474 -0.3386  0.1816
  461MOL0     C62105   8.178   8.909   5.475  0.2538  0.5666 -0.2254
  461MOL0     C62106   8.257   8.806   5.416  0.4371 -0.3724  0.5775
  461MOL0     C62107   8.233   8.764   5.280 -0.4474  0.5613 -0.2309
  461MOL0     O62108   8.300   8.657   5.224  0.0117 -0.5055 -0.1300
  461MOL0     C62109   8.286   8.614   5.085  0.4205  0.1223  0.6473
  461MOL0     C62110   8.291   8.470   5.075  0.0442  0.0194 -0.5676
  461MOL0     C62111   8.425   8.415   5.095 -0.3755  0.8430 -1.1864
  461MOL0     C62112   8.426   8.260   5.103  0.0248 -1.3707 -0.3168
  461MOL0     C62113   8.578   8.217   5.087 -0.3708 -0.3058  0.1894
  461MOL0     C62114   8.589   8.058   5.068  0.1191  0.8812  0.1527
  461MOL0     C62115   8.576   7.987   5.203 -0.0361 -0.5348 -0.7736
  461MOL0     C62116   8.591   7.839   5.173 -0.4970 -0.5264  0.0437
  461MOL0     N62117   8.730   7.781   5.150 -0.1560  0.7112 -0.2079
  461MOL0     C62118   8.840   7.838   5.207  0.2233 -0.0031  0.7105
  461MOL0     C62119   8.941   7.767   5.151 -0.0315  1.0284  0.4922
  461MOL0     C62120   9.086   7.807   5.160  0.3224 -0.2941  0.4739
  461MOL0     C62121   9.103   7.941   5.069 -0.1214  0.9246  0.0637
  461MOL0     C62122   9.253   7.973   5.048 -0.7233 -1.1127  0.0424
  461MOL0     C62123   9.277   8.070   4.928  0.4065  0.2071  0.1079
  461MOL0     O62124   9.179   8.170   4.931  0.7032 -0.3928  0.6703
  461MOL0     C62125   9.176   8.241   4.810 -0.5220 -0.1045 -0.2846
  461MOL0     C62126   9.282   8.266   4.722 -0.7429  0.1077 -0.4384
  461MOL0     C62127   9.265   8.321   4.595  1.3007 -0.6077 -0.4236
  461MOL0     C62128   9.390   8.323   4.506 -0.9272 -0.3893  0.2508
  461MOL0     C62129   9.137   8.349   4.545  0.2252 -0.5775  0.5542
  461MOL0     C62130   9.103   8.407   4.403  0.2549  0.1556 -0.5088
  461MOL0     O62131   8.965   8.418   4.371  0.5354  0.0400 -0.0606
  461MOL0     C62132   8.940   8.450   4.244  0.2048  0.1097 -0.8264
  461MOL0     C62133   8.922   8.339   4.152  0.8859 -0.2870 -0.1548
  461MOL0     C62134   8.881   8.369   4.024  0.0576  0.1915 -0.0197
  461MOL0     C62135   8.855   8.501   3.976  0.6897 -0.7389 -0.1311
  461MOL0     O62136   8.794   8.512   3.845 -0.1299  0.0828  0.3024
  461MOL0     C62137   8.764   8.643   3.806  0.7096 -0.7130  0.8723
  461MOL0     C62138   8.705   8.669   3.667 -0.4099  0.2706 -0.3118
  461MOL0     C62139   8.551   8.659   3.645  0.1917  0.7994 -0.1337
  461MOL0     C62140   8.501   8.736   3.519  0.0852 -0.6624 -0.1183
  461MOL0     C62141   8.352   8.739   3.506  0.6066  0.1963  0.6655
  461MOL0     C62142   8.306   8.784   3.369  0.9947 -0.3684  0.7626
  461MOL0     C62143   8.150   8.793   3.350 -0.3399 -0.8879  0.6671
  461MOL0     C62144   8.073   8.671   3.376 -0.8372 -0.2776  1.1974
  461MOL0    Cl62145   8.154   8.528   3.296  0.6854 -0.4264 -0.4099
  461MOL0     C62146   8.880   8.598   4.072 -0.0661 -0.9382 -0.6760
  461MOL0     C62147   8.928   8.572   4.200  0.3024 -0.3785  0.0990
  461MOL0     O62148   9.198   8.431   4.329  1.0692 -0.3096 -0.3699
  461MOL0     C62149   9.039   8.335   4.637 -0.1797 -0.6866  0.0086
  461MOL0     C62150   9.050   8.289   4.770  1.3930  0.6557  0.0232
  461MOL0     N62151   8.895   7.681   5.053 -0.4481  0.9754 -0.1674
  461MOL0     N62152   8.767   7.695   5.053 -0.6470 -0.8808  0.5891
  461MOL0     C62153   8.130   8.830   5.220  0.8305 -0.5134  0.3803
  461MOL0     C62154   8.045   8.932   5.282 -0.3267 -0.0991 -0.4127
  461MOL0     C62155   7.827   9.200   5.583  0.3395  0.6267 -0.4619
  461MOL0     C62156   7.690   9.204   5.604  0.6990  0.1390 -0.0874
  461MOL0     C62157   7.618   9.316   5.652 -0.2921 -0.2532  0.8149
  461MOL0     C62158   7.703   9.432   5.664  0.1128  0.0451  0.5047
  461MOL0     O62159   7.636   9.536   5.720 -0.3177 -0.5501 -0.6524
  461MOL0     C62160   7.621   9.530   5.869  0.2465 -0.7167  0.6887
  461MOL0     C62161   7.736   9.623   5.945  0.5363  0.0389 -0.1156
  461MOL0     C62162   7.729   9.778   5.914 -0.5125  0.3623  0.2054
  461MOL0     C62163   7.868   9.833   5.951  0.4536 -0.8354  0.4790
  461MOL0     C62164   7.871   9.982   5.949 -1.3311  0.3144  0.8942
  461MOL0     C62165   7.891  10.106   5.934  0.3229  0.5255  1.2119
  461MOL0     C62166   7.842   9.436   5.640 -0.1906  0.3494  1.0933
  461MOL0     C62167   7.900   9.319   5.600 -0.7150 -0.3759 -0.6845
  461MOL0     H62168   8.213   8.940   5.572 -3.1963  3.2019  0.3726
  461MOL0     H62169   8.335   8.752   5.469 -0.9976 -0.8743  2.2527
  461MOL0     H62170   8.191   8.643   5.040  1.9691  1.2926 -2.1473
  461MOL0     H62171   8.361   8.659   5.020  0.5270 -3.3074 -1.8829
  461MOL0     H62172   8.225   8.433   5.154 -2.4993  2.6386 -1.3289
  461MOL0     H62173   8.250   8.437   4.979  2.8129  3.0454 -3.0083
  461MOL0     H62174   8.480   8.458   5.010  1.5454 -1.3152 -1.1458
  461MOL0     H62175   8.479   8.459   5.179 -0.0328  0.1350 -1.0279
  461MOL0     H62176   8.385   8.216   5.194  0.4172  0.6354  0.8988
  461MOL0     H62177   8.351   8.224   5.032 -3.1778  0.4679  1.8509
  461MOL0     H62178   8.621   8.266   5.000  1.4269 -1.0450  0.6297
  461MOL0     H62179   8.645   8.255   5.165 -0.3896  2.5135 -1.0554
  461MOL0     H62180   8.528   8.010   4.991  2.0538  0.8220 -1.4376
  461MOL0     H62181   8.688   8.040   5.025 -0.4592 -1.0540 -0.4517
  461MOL0     H62182   8.661   8.023   5.261  0.7358 -2.1099 -0.9001
  461MOL0     H62183   8.478   7.994   5.250  0.7309 -2.6337  1.2883
  461MOL0     H62184   8.540   7.805   5.083  3.0626 -3.2867 -1.1783
  461MOL0     H62185   8.555   7.799   5.269 -0.3908  0.6909  0.6116
  461MOL0     H62186   8.843   7.913   5.285  3.9556 -3.2371  4.1241
  461MOL0     H62187   9.117   7.821   5.264  0.5311 -0.4581  0.4352
  461MOL0     H62188   9.135   7.713   5.132 -0.1676 -0.1563 -0.9382
  461MOL0     H62189   9.049   8.019   5.124  2.2417  1.6150  1.5435
  461MOL0     H62190   9.047   7.923   4.976  1.3804 -0.5018 -0.6019
  461MOL0     H62191   9.306   7.879   5.033 -4.0267 -2.7919 -2.6568
  461MOL0     H62192   9.287   8.023   5.139 -1.1902 -0.1237 -0.3038
  461MOL0     H62193   9.269   8.012   4.836 -1.2086  2.1023 -1.0226
  461MOL0     H62194   9.378   8.107   4.947  2.7191 -4.0208 -2.2338
  461MOL0     H62195   9.375   8.215   4.744  0.7631  3.3755  1.6525
  461MOL0     H62196   9.365   8.267   4.415  2.7967 -0.9964 -0.5413
  461MOL0     H62197   9.420   8.427   4.494 -0.1984 -0.7721 -1.5446
  461MOL0     H62198   9.476   8.274   4.553 -0.0175  2.1480  1.3843
  461MOL0     H62199   8.912   8.236   4.183  0.0577  0.4813  2.4200
  461MOL0     H62200   8.872   8.283   3.958 -0.5132  0.2057  0.0421
  461MOL0     H62201   8.703   8.683   3.888 -1.5651 -1.0591 -0.5697
  461MOL0     H62202   8.860   8.695   3.800  0.6253 -0.5370  1.0367
  461MOL0     H62203   8.737   8.769   3.638  0.0591 -0.9889 -5.0497
  461MOL0     H62204   8.749   8.605   3.590  2.9290  0.3778  1.3640
  461MOL0     H62205   8.482   8.701   3.720 -1.7556  0.1749 -1.4915
  461MOL0     H62206   8.525   8.552   3.642  0.5602  0.6540 -4.8932
  461MOL0     H62207   8.533   8.840   3.518  1.7649 -0.9037  4.1775
  461MOL0     H62208   8.535   8.683   3.429 -1.6770 -2.4668  0.1860
  461MOL0     H62209   8.306   8.805   3.580 -2.0430 -2.0644  1.2112
  461MOL0     H62210   8.301   8.644   3.520 -0.7587  0.7103 -0.5248
  461MOL0     H62211   8.339   8.881   3.332  1.8574 -1.8188 -2.6719
  461MOL0     H62212   8.346   8.719   3.291  0.9040  0.0933  0.3247
  461MOL0     H62213   8.111   8.811   3.249  2.2830  1.1453 -0.1014
  461MOL0     H62214   8.113   8.878   3.408  0.9833  1.4708 -1.6966
  461MOL0     H62215   7.970   8.674   3.339  0.0656  1.9290 -1.4480
  461MOL0     H62216   8.066   8.662   3.485 -2.4539 -1.5936  1.0266
  461MOL0     H62217   8.862   8.704   4.053  3.2703 -0.0049  0.7358
  461MOL0     H62218   8.946   8.659   4.263  1.1950  0.6700 -1.5421
  461MOL0     H62219   8.939   8.371   4.614 -0.2078 -0.7853 -0.0230
  461MOL0     H62220   8.958   8.289   4.828  1.6071  1.9015  0.4036
  461MOL0     H62221   8.096   8.812   5.118 -1.7456  1.3035  0.8185
  461MOL0     H62222   7.966   8.974   5.222  0.6077  3.2783  0.4906
  461MOL0     H62223   7.630   9.121   5.568  0.9537 -0.4384  0.7859
  461MOL0     H62224   7.510   9.317   5.660 -1.0087 -1.2477 -4.4902
  461MOL0     H62225   7.522   9.568   5.899  0.4209 -1.9446  3.0538
  461MOL0     H62226   7.618   9.425   5.897 -2.5053 -1.1653 -0.9001
  461MOL0     H62227   7.838   9.591   5.919 -0.4104 -0.9780 -2.9529
  461MOL0     H62228   7.739   9.597   6.051  1.5373 -0.1095 -0.1652
  461MOL0     H62229   7.648   9.820   5.975 -0.9272 -1.5671  1.0710
  461MOL0     H62230   7.719   9.797   5.807  0.8221 -0.0770 -0.0106
  461MOL0     H62231   7.947   9.791   5.889  3.5383 -0.2517  3.6720
  461MOL0     H62232   7.880   9.799   6.054 -1.7753 -1.1467  0.6898
  461MOL0     H62233   7.889  10.205   5.892  0.0488  1.1595  2.6680
  461MOL0     H62234   7.894   9.531   5.645  2.8882 -1.0795 -0.5989
  461MOL0     H62235   8.006   9.318   5.579 -0.1521  2.7084  1.2983
  462MOL0     O62236   0.602   6.998   6.752  0.6268  0.1079  0.5933
  462MOL0     C62237   0.536   7.067   6.828 -0.2596  0.0659 -0.2193
  462MOL0     O62238   0.496   7.030   6.954  0.6767 -0.8567  0.7469
  462MOL0     C62239   0.536   6.906   7.009  0.7266  0.3583  0.4113
  462MOL0     C62240   0.557   6.884   7.145 -0.2189 -0.0833  1.0296
  462MOL0     C62241   0.574   6.762   7.213  0.4647  0.0232  0.2525
  462MOL0     C62242   0.598   6.645   7.141 -0.2800  0.1922  0.0724
  462MOL0     O62243   0.643   6.524   7.182 -0.1420 -0.1876  0.5156
  462MOL0     C62244   0.751   6.510   7.282 -0.3463  0.4521 -0.2193
  462MOL0     C62245   0.766   6.363   7.326  0.4264  1.1231  0.7364
  462MOL0     C62246   0.882   6.331   7.418 -0.0904  1.1209 -0.1015
  462MOL0     C62247   0.852   6.220   7.515 -0.4059  0.1864 -0.4189
  462MOL0     C62248   0.817   6.080   7.461 -0.4181 -0.0516 -0.2586
  462MOL0     C62249   0.740   6.008   7.577  0.2816  0.2860  0.2115
  462MOL0     C62250   0.709   5.863   7.546 -0.0820 -0.6664  0.3714
  462MOL0     C62251   0.831   5.768   7.522  0.1756 -0.5942 -0.9243
  462MOL0     N62252   0.797   5.630   7.557 -0.0854 -0.4417 -0.7225
  462MOL0     C62253   0.798   5.575   7.686  0.3301 -0.6756  0.4959
  462MOL0     C62254   0.734   5.453   7.676 -1.3029  0.0973  0.3890
  462MOL0     C62255   0.700   5.347   7.781  1.0427 -0.2492  0.3292
  462MOL0     C62256   0.560   5.379   7.841 -0.2656  0.5473 -0.3664
  462MOL0     C62257   0.547   5.313   7.979  1.5464  0.2697  0.7491
  462MOL0     C62258   0.396   5.291   8.023 -0.5769  0.3667  0.5500
  462MOL0     O62259   0.426   5.250   8.159  0.0681 -0.3485  1.0561
  462MOL0     C62260   0.325   5.190   8.230  0.2046 -0.2440  0.9351
  462MOL0     C62261   0.240   5.103   8.170 -0.0252  0.6264  0.1132
  462MOL0     C62262   0.138   5.054   8.247  0.4207 -0.0668 -0.1396
  462MOL0     C62263   0.032   4.969   8.182 -0.3986 -0.5770  0.3707
  462MOL0     C62264   0.126   5.084   8.386 -0.0047 -0.0514 -0.1939
  462MOL0     C62265   0.020   5.018   8.459  0.0860 -0.3758 -1.0054
  462MOL0     O62266  -0.078   5.091   8.510  0.0426  0.1923 -0.5597
  462MOL0     C62267  -0.167   5.034   8.599  0.3270  0.0465 -0.7311
  462MOL0     C62268  -0.301   5.038   8.557  0.6352 -0.6465 -0.2145
  462MOL0     C62269  -0.406   4.973   8.609 -0.5142  0.5766 -0.0282
  462MOL0     C62270  -0.387   4.898   8.720 -0.7960 -0.0903  0.4887
  462MOL0     O62271  -0.491   4.841   8.794 -0.2296  0.3712 -0.7402
  462MOL0     C62272  -0.533   4.923   8.894 -0.1241 -0.1677  0.5393
  462MOL0     C62273  -0.621   4.851   9.001  0.0631 -0.8121  0.7316
  462MOL0     C62274  -0.539   4.732   9.062 -0.5673 -0.3593 -0.8152
  462MOL0     C62275  -0.607   4.684   9.193  0.2984  0.0863  0.6656
  462MOL0     C62276  -0.581   4.764   9.316 -0.7690 -0.7460 -0.2113
  462MOL0     C62277  -0.700   4.783   9.407 -0.3319  0.1669 -0.6021
  462MOL0     C62278  -0.671   4.844   9.544  0.5281  0.6603  0.7192
  462MOL0     C62279  -0.618   4.738   9.648  0.8122  0.1839 -0.0624
  462MOL0    Cl62280  -0.446   4.716   9.651 -0.1716 -0.1052  0.0782
  462MOL0     C62281  -0.259   4.891   8.774 -0.0687 -0.3244  0.5012
  462MOL0     C62282  -0.143   4.951   8.713 -0.0290  0.4369 -0.9008
  462MOL0     O62283   0.040   4.901   8.482 -0.9820 -0.0045 -0.3882
  462MOL0     C62284   0.221   5.171   8.440  0.6116 -0.2135  0.0946
  462MOL0     C62285   0.317   5.234   8.362  0.0145 -0.1706  0.4860
  462MOL0     N62286   0.712   5.438   7.537  0.0000 -0.1005  0.1832
  462MOL0     N62287   0.736   5.546   7.470 -0.0673 -0.1469 -0.2036
  462MOL0     C62288   0.587   6.657   7.006  1.0561  1.1616 -0.1526
  462MOL0     C62289   0.555   6.783   6.942  0.1573  0.3685 -0.0916
  462MOL0     C62290   0.504   7.202   6.778 -1.0036  0.1802  1.7074
  462MOL0     C62291   0.478   7.302   6.868 -0.3278 -1.1834  0.0505
  462MOL0     C62292   0.480   7.432   6.827  1.1046 -0.2931  0.1302
  462MOL0     C62293   0.467   7.470   6.691 -0.9961 -0.5588  0.8310
  462MOL0     O62294   0.451   7.596   6.631  0.4390 -0.7270  0.4258
  462MOL0     C62295   0.455   7.706   6.723 -0.4025  0.0477  0.7052
  462MOL0     C62296   0.429   7.830   6.644 -0.1428 -0.8332  0.0587
  462MOL0     C62297   0.481   7.955   6.718  0.7447 -0.1211  0.3387
  462MOL0     C62298   0.634   7.953   6.715  0.1453 -0.8610 -0.5425
  462MOL0     C62299   0.702   7.939   6.590 -0.1221  0.2072  0.5410
  462MOL0     C62300   0.737   7.892   6.482 -0.9356  1.2001  0.2610
  462MOL0     C62301   0.467   7.367   6.594  0.8496 -0.1768  0.1091
  462MOL0     C62302   0.498   7.238   6.639 -0.3627  0.2484 -0.5790
  462MOL0     H62303   0.555   6.964   7.218 -2.4992 -1.2318  2.3363
  462MOL0     H62304   0.589   6.764   7.321  1.6746 -0.2154  0.1070
  462MOL0     H62305   0.834   6.568   7.241 -0.4716  2.3448  1.9623
  462MOL0     H62306   0.718   6.561   7.373 -1.3947 -1.0788  0.3037
  462MOL0     H62307   0.691   6.343   7.403  0.6791 -3.1760  0.1542
  462MOL0     H62308   0.758   6.291   7.243 -2.6741  0.7417  1.2342
  462MOL0     H62309   0.965   6.288   7.359  0.2275  2.4196 -0.6396
  462MOL0     H62310   0.912   6.420   7.473  0.4471 -0.2847  1.9848
  462MOL0     H62311   0.945   6.207   7.570 -1.9162  0.8877  2.4688
  462MOL0     H62312   0.777   6.258   7.585 -1.0311 -1.3723 -0.2121
  462MOL0     H62313   0.750   6.075   7.375 -1.7460  0.0889  0.7468
  462MOL0     H62314   0.904   6.017   7.439  0.4022  0.4610  1.3690
  462MOL0     H62315   0.802   6.002   7.667  3.9720 -3.4024 -2.1946
  462MOL0     H62316   0.649   6.062   7.605 -0.0202 -1.1853  2.2521
  462MOL0     H62317   0.639   5.819   7.617 -3.2229  0.8725 -1.5521
  462MOL0     H62318   0.660   5.864   7.448  1.8044 -2.2261 -0.6579
  462MOL0     H62319   0.916   5.805   7.581  0.1513 -0.5841 -0.8956
  462MOL0     H62320   0.864   5.777   7.418  1.3346  3.6046 -0.4048
  462MOL0     H62321   0.837   5.625   7.775 -0.5105 -0.8796  0.9850
  462MOL0     H62322   0.698   5.247   7.735 -0.5506 -0.1154  0.0439
  462MOL0     H62323   0.772   5.362   7.862 -0.5428  0.6868  1.6148
  462MOL0     H62324   0.494   5.340   7.763  1.2640 -0.5872 -1.1515
  462MOL0     H62325   0.541   5.486   7.853  4.8479  1.9244 -1.9728
  462MOL0     H62326   0.584   5.388   8.049 -1.1046  1.2481  1.1899
  462MOL0     H62327   0.610   5.224   7.968  0.6022 -0.4478  1.0008
  462MOL0     H62328   0.339   5.220   7.963 -1.2213  1.7468 -0.4974
  462MOL0     H62329   0.347   5.388   8.020  3.0820  2.3761 -0.6866
  462MOL0     H62330   0.248   5.066   8.068  0.5061 -2.2803  1.1246
  462MOL0     H62331   0.077   4.871   8.161 -1.2791 -1.0006  0.4060
  462MOL0     H62332  -0.061   4.966   8.240 -0.0365  1.9894  1.2166
  462MOL0     H62333  -0.002   5.030   8.098 -1.0238 -0.1916  0.8916
  462MOL0     H62334  -0.314   5.099   8.468  2.9605  0.5335  0.1645
  462MOL0     H62335  -0.505   4.982   8.564  0.1455  1.9793 -1.3052
  462MOL0     H62336  -0.440   4.963   8.936  1.0391 -2.2222  0.1025
  462MOL0     H62337  -0.597   4.998   8.847  0.4035  0.7384  1.2438
  462MOL0     H62338  -0.636   4.924   9.081 -0.6707 -1.0455  0.8151
  462MOL0     H62339  -0.721   4.827   8.963 -0.4145 -0.1723  1.5349
  462MOL0     H62340  -0.434   4.761   9.076 -0.1005 -1.1419 -2.4875
  462MOL0     H62341  -0.534   4.647   8.993 -0.3131 -1.6156  0.6875
  462MOL0     H62342  -0.712   4.667   9.168  0.5297 -3.1071  1.4307
  462MOL0     H62343  -0.567   4.583   9.205 -0.2616 -0.0817  1.1292
  462MOL0     H62344  -0.568   4.868   9.286 -1.3012 -0.7298 -0.4002
  462MOL0     H62345  -0.491   4.743   9.374 -1.3653 -1.4327  0.4875
  462MOL0     H62346  -0.782   4.842   9.364 -2.8542  1.2159  4.8160
  462MOL0     H62347  -0.744   4.685   9.428  0.2256  0.2516  1.1659
  462MOL0     H62348  -0.766   4.878   9.587  0.2138 -1.6187  1.9601
  462MOL0     H62349  -0.594   4.922   9.536 -0.0316  1.1497 -0.0191
  462MOL0     H62350  -0.674   4.645   9.647  1.4626 -0.2465 -2.0810
  462MOL0     H62351  -0.636   4.781   9.747  0.8275 -1.0672  0.5010
  462MOL0     H62352  -0.249   4.840   8.869  1.6180  0.6257  0.8709
  462MOL0     H62353  -0.042   4.942   8.753 -0.7813  0.7967  1.2310
  462MOL0     H62354   0.213   5.191   8.546  3.7023  0.7747  0.2439
  462MOL0     H62355   0.387   5.301   8.412  0.0657 -0.8674  1.3650
  462MOL0     H62356   0.609   6.568   6.947  1.9716 -1.6541  3.9573
  462MOL0     H62357   0.540   6.787   6.835  0.2278  2.9492 -0.0608
  462MOL0     H62358   0.466   7.298   6.976  1.8388  0.7442  0.4416
  462MOL0     H62359   0.489   7.505   6.907  2.4412  1.4225 -1.4822
  462MOL0     H62360   0.367   7.681   6.784 -0.4047  0.3236  0.8155
  462MOL0     H62361   0.552   7.713   6.773  1.8521  2.2306 -3.3904
  462MOL0     H62362   0.324   7.859   6.635  0.2002  0.7492  0.7317
  462MOL0     H62363   0.470   7.825   6.543  3.6887 -1.2524  1.4466
  462MOL0     H62364   0.451   7.949   6.823 -0.9231 -2.9471 -0.1884
  462MOL0     H62365   0.438   8.043   6.669 -2.7448  0.1630  3.4414
  462MOL0     H62366   0.684   7.889   6.789  0.8865  0.0272 -0.2557
  462MOL0     H62367   0.674   8.049   6.748  1.9171 -2.3912  2.1563
  462MOL0     H62368   0.768   7.851   6.388 -2.6090 -1.5946  0.8221
  462MOL0     H62369   0.447   7.387   6.489  3.8375 -0.2928 -0.5641
  462MOL0     H62370   0.519   7.164   6.562 -2.0649 -0.6540 -0.2201
  463MOL0     O62371   5.580   1.675  11.424 -0.7964 -0.0489 -0.2089
  463MOL0     C62372   5.550   1.781  11.481  0.1592 -0.1728  0.1178
  463MOL0     O62373   5.639   1.871  11.527  0.5538  0.2054  0.2735
  463MOL0     C62374   5.768   1.864  11.500 -0.0296 -0.0588 -0.4843
  463MOL0     C62375   5.843   1.822  11.602 -1.3681 -0.2694  0.5588
  463MOL0     C62376   5.979   1.807  11.571 -0.0941  0.5129 -0.7327
  463MOL0     C62377   6.030   1.828  11.442 -0.6197 -0.2050  0.0629
  463MOL0     O62378   6.165   1.807  11.417 -0.1444 -0.3551  1.0766
  463MOL0     C62379   6.249   1.914  11.439 -0.4074  0.3438  0.4163
  463MOL0     C62380   6.236   2.042  11.356 -0.6234 -0.0700  0.6183
  463MOL0     C62381   6.145   2.134  11.432  0.2844 -0.0785 -0.7071
  463MOL0     C62382   6.166   2.267  11.370  0.8633  0.7752 -0.2010
  463MOL0     C62383   6.085   2.294  11.249  0.4726  1.0168  0.3982
  463MOL0     C62384   6.059   2.447  11.228 -0.2819 -0.0091  0.3573
  463MOL0     C62385   6.191   2.519  11.188  0.3850  0.0246  0.6069
  463MOL0     C62386   6.155   2.660  11.131 -0.6917  0.7480  0.1764
  463MOL0     N62387   6.275   2.730  11.093 -0.2625  0.0640 -0.1171
  463MOL0     C62388   6.353   2.695  10.993  0.6614 -0.5931 -0.2915
  463MOL0     C62389   6.426   2.809  10.970  0.8500  0.4900 -0.1264
  463MOL0     C62390   6.512   2.827  10.843  0.5653 -1.1901 -0.0013
  463MOL0     C62391   6.615   2.935  10.849 -0.7378 -0.7070  0.6590
  463MOL0     C62392   6.707   2.930  10.730 -0.0708 -0.0925 -1.4781
  463MOL0     C62393   6.829   3.033  10.745 -0.5580  0.4624 -1.2493
  463MOL0     O62394   6.778   3.166  10.753  0.1400  0.2186 -1.2140
  463MOL0     C62395   6.783   3.247  10.641  0.1864  0.0561 -0.9971
  463MOL0     C62396   6.803   3.383  10.663  0.0853  0.6345 -0.6387
  463MOL0     C62397   6.801   3.476  10.555  0.0856  0.3399  0.5565
  463MOL0     C62398   6.824   3.621  10.587  0.6893 -0.5355 -0.5399
  463MOL0     C62399   6.774   3.428  10.422  0.0954 -0.1503 -0.5099
  463MOL0     C62400   6.775   3.498  10.286 -0.6781 -0.6534 -0.3563
  463MOL0     O62401   6.721   3.433  10.175  0.9572  0.0096  0.3410
  463MOL0     C62402   6.682   3.513  10.079 -1.1971 -0.1134 -0.9975
  463MOL0     C62403   6.553   3.566  10.071  0.3684 -0.9329  0.0037
  463MOL0     C62404   6.524   3.662   9.974  0.8908  0.0837  0.6619
  463MOL0     C62405   6.614   3.695   9.870  0.6377  0.0068 -0.4812
  463MOL0     O62406   6.581   3.777   9.769 -0.6042 -0.4862 -0.6292
  463MOL0     C62407   6.460   3.767   9.684 -0.3373  0.1348 -0.0661
  463MOL0     C62408   6.447   3.893   9.613  0.0674 -0.4239 -0.1884
  463MOL0     C62409   6.574   3.918   9.529  0.5266 -0.2305 -0.5311
  463MOL0     C62410   6.567   4.061   9.469  0.3582  0.3572 -0.1747
  463MOL0     C62411   6.531   4.075   9.323  0.0095  0.7210 -0.6372
  463MOL0     C62412   6.531   4.226   9.289 -0.1658  0.7307 -0.8635
  463MOL0     C62413   6.516   4.272   9.149 -0.7219 -0.5222 -0.6774
  463MOL0     C62414   6.376   4.234   9.109 -0.0189  0.1625  0.2647
  463MOL0    Cl62415   6.255   4.338   9.181  0.2588  0.2877 -0.1432
  463MOL0     C62416   6.724   3.615   9.862 -0.0724  0.2362  0.8279
  463MOL0     C62417   6.762   3.528   9.966 -1.1686  0.1667 -0.1808
  463MOL0     O62418   6.827   3.614  10.284  0.5795  0.4500  0.3257
  463MOL0     C62419   6.758   3.287  10.403  0.3216  0.1525  0.0715
  463MOL0     C62420   6.763   3.204  10.513 -0.3616 -0.2769  0.0271
  463MOL0     N62421   6.406   2.906  11.066 -0.9426 -0.1818  0.6951
  463MOL0     N62422   6.316   2.850  11.141  0.4262 -0.5510 -0.8656
  463MOL0     C62423   5.945   1.869  11.339 -0.0837 -0.3673 -0.1683
  463MOL0     C62424   5.809   1.897  11.368  0.8030 -0.7448  0.3896
  463MOL0     C62425   5.401   1.788  11.510 -0.0842  0.2151 -0.3074
  463MOL0     C62426   5.310   1.674  11.483 -0.1965 -0.7168  0.6582
  463MOL0     C62427   5.169   1.699  11.499 -1.0013 -0.4863  1.0576
  463MOL0     C62428   5.119   1.816  11.562 -0.4785  1.0321  0.0763
  463MOL0     O62429   4.995   1.812  11.608 -0.6629 -0.0011  0.9823
  463MOL0     C62430   4.908   1.902  11.537 -0.3697 -0.4094 -0.3805
  463MOL0     C62431   4.858   2.006  11.638 -0.2293  0.2532 -0.3215
  463MOL0     C62432   4.747   2.103  11.593 -0.4959 -0.2638  0.2626
  463MOL0     C62433   4.632   2.129  11.688 -0.8460 -0.0523  0.0647
  463MOL0     C62434   4.549   2.241  11.645  0.0910 -0.2518 -0.4937
  463MOL0     C62435   4.480   2.340  11.608 -0.6306 -0.7709  0.7592
  463MOL0     C62436   5.214   1.916  11.596  1.0385  0.6540 -0.1826
  463MOL0     C62437   5.349   1.908  11.563  0.2683  0.0904 -0.5210
  463MOL0     H62438   5.803   1.780  11.693  0.9387 -1.1851  1.2353
  463MOL0     H62439   6.046   1.773  11.650  0.6004 -2.2200 -2.3820
  463MOL0     H62440   6.251   1.944  11.544 -2.3448 -0.4355  0.7236
  463MOL0     H62441   6.350   1.881  11.410 -1.6787 -1.7664 -2.0565
  463MOL0     H62442   6.340   2.074  11.344 -0.5054 -0.4695  0.5492
  463MOL0     H62443   6.194   2.014  11.258 -0.5664  2.3611 -0.1732
  463MOL0     H62444   6.042   2.099  11.426 -0.4140  0.6319  3.7267
  463MOL0     H62445   6.167   2.141  11.539 -1.7073  2.4082 -0.3760
  463MOL0     H62446   6.127   2.344  11.437 -0.9469  1.1871 -1.6514
  463MOL0     H62447   6.267   2.296  11.339  1.3657  0.0692  0.7340
  463MOL0     H62448   6.143   2.253  11.165 -0.0054 -2.1140  1.4574
  463MOL0     H62449   5.992   2.237  11.254  1.9225 -1.5329  0.1713
  463MOL0     H62450   5.990   2.463  11.145  1.0323  0.9880 -0.5661
  463MOL0     H62451   6.017   2.499  11.315 -4.2466 -0.0704 -1.3041
  463MOL0     H62452   6.257   2.531  11.275  0.3963 -0.4866  0.6717
  463MOL0     H62453   6.240   2.461  11.109  2.1983 -0.1634  1.7909
  463MOL0     H62454   6.085   2.721  11.188 -0.6979  1.3279 -0.4439
  463MOL0     H62455   6.115   2.643  11.031  0.1293  0.3503 -0.1006
  463MOL0     H62456   6.355   2.612  10.922  1.9423  0.1266 -1.1411
  463MOL0     H62457   6.562   2.732  10.824 -2.0751 -3.1060  1.9124
  463MOL0     H62458   6.445   2.850  10.760  0.5738  0.5049  0.4302
  463MOL0     H62459   6.677   2.924  10.938  2.3352 -0.5020 -1.2976
  463MOL0     H62460   6.573   3.036  10.857 -1.7840 -1.1784  1.3588
  463MOL0     H62461   6.657   2.964  10.640  2.2006  0.2141 -2.6853
  463MOL0     H62462   6.740   2.827  10.711 -3.9366 -1.3694 -2.2284
  463MOL0     H62463   6.905   3.028  10.667  2.0368  3.5681  0.8112
  463MOL0     H62464   6.886   3.008  10.835 -0.7207  2.0130 -0.6808
  463MOL0     H62465   6.811   3.413  10.766  1.3274 -1.8965  0.0876
  463MOL0     H62466   6.786   3.640  10.687  0.2072 -1.2082 -0.5970
  463MOL0     H62467   6.933   3.628  10.602  0.5164  0.3395  0.4573
  463MOL0     H62468   6.773   3.697  10.526 -1.8272 -2.6729 -1.2453
  463MOL0     H62469   6.481   3.551  10.151 -0.7457  0.8850 -0.5853
  463MOL0     H62470   6.426   3.708   9.982  0.3397 -1.0659  0.6900
  463MOL0     H62471   6.465   3.683   9.615 -1.7904  1.2342 -1.5999
  463MOL0     H62472   6.380   3.734   9.752  0.0513 -1.6776 -0.4379
  463MOL0     H62473   6.346   3.900   9.572 -1.0341 -3.1919  1.7848
  463MOL0     H62474   6.437   3.963   9.695  0.9877 -0.2577 -0.1976
  463MOL0     H62475   6.590   3.841   9.453 -1.6803 -1.7991  0.4933
  463MOL0     H62476   6.668   3.902   9.583  1.4499  2.0367 -1.3468
  463MOL0     H62477   6.493   4.128   9.515  1.7464  1.8728 -0.0306
  463MOL0     H62478   6.660   4.111   9.499 -0.1277  0.8515  0.5596
  463MOL0     H62479   6.433   4.034   9.298 -1.8985  4.5258 -0.0590
  463MOL0     H62480   6.614   4.025   9.272 -0.0167 -1.7504  1.5214
  463MOL0     H62481   6.444   4.269   9.338 -0.0161  0.7639 -0.6271
  463MOL0     H62482   6.618   4.275   9.334 -1.7667  0.8367  2.3613
  463MOL0     H62483   6.597   4.233   9.088 -0.7704 -3.2481  0.8428
  463MOL0     H62484   6.537   4.379   9.143  1.3861 -0.8139  0.5731
  463MOL0     H62485   6.347   4.136   9.148  1.8439 -0.0944  1.1319
  463MOL0     H62486   6.364   4.232   9.000  1.8241  0.5661  0.0119
  463MOL0     H62487   6.797   3.631   9.784  2.8003  1.4493  3.5637
  463MOL0     H62488   6.864   3.490   9.963 -1.7667 -1.5163 -0.9778
  463MOL0     H62489   6.729   3.254  10.304 -1.8651  1.5433  0.1702
  463MOL0     H62490   6.750   3.099  10.487 -1.2850  0.4418 -2.8126
  463MOL0     H62491   5.984   1.881  11.238 -1.3550  0.1406 -0.6288
  463MOL0     H62492   5.736   1.939  11.300 -2.9750 -2.6370  2.9313
  463MOL0     H62493   5.349   1.579  11.450 -3.2073 -1.5346 -0.7874
  463MOL0     H62494   5.104   1.625  11.453 -1.0670  0.4649 -0.4537
  463MOL0     H62495   4.971   1.949  11.460 -0.0587  0.1551  0.2106
  463MOL0     H62496   4.822   1.848  11.495 -1.1854  0.9313 -0.4815
  463MOL0     H62497   4.945   2.068  11.660 -1.2455  2.2231 -1.6304
  463MOL0     H62498   4.831   1.958  11.732  0.6412 -0.4575 -0.4130
  463MOL0     H62499   4.712   2.057  11.501  0.9959  0.0683 -0.5051
  463MOL0     H62500   4.786   2.202  11.566 -3.0258  0.2797 -1.8680
  463MOL0     H62501   4.686   2.173  11.773 -2.2502  0.4859  0.6958
  463MOL0     H62502   4.567   2.043  11.703  1.5457 -1.9139  0.4365
  463MOL0     H62503   4.431   2.428  11.572 -0.0175 -0.7074  0.0604
  463MOL0     H62504   5.173   2.003  11.647  0.6311  0.3577 -0.0051
  463MOL0     H62505   5.410   1.991  11.600 -1.0883 -0.2581  2.8579
  464MOL0     O62506   4.754   5.464  11.227  0.6409 -0.2879  0.3505
  464MOL0     C62507   4.637   5.431  11.207  0.2277  0.4853 -1.0334
  464MOL0     O62508   4.597   5.315  11.138  1.0512 -0.1531  0.2063
  464MOL0     C62509   4.687   5.220  11.101  0.7874 -0.5708  0.3565
  464MOL0     C62510   4.666   5.101  11.166  0.5982  0.4127  0.8454
  464MOL0     C62511   4.757   4.996  11.150 -0.5721  0.4474  0.6609
  464MOL0     C62512   4.881   5.012  11.077  0.2907  1.2495 -1.5257
  464MOL0     O62513   4.965   4.902  11.067 -0.6621 -0.5117 -0.6466
  464MOL0     C62514   5.059   4.898  10.954  0.4391  0.8003 -0.1884
  464MOL0     C62515   4.995   4.840  10.829 -0.2823 -0.1924  0.2795
  464MOL0     C62516   5.062   4.870  10.698  0.4592 -0.4297  0.3106
  464MOL0     C62517   5.224   4.840  10.701 -0.4923  0.9445  0.7695
  464MOL0     C62518   5.293   4.883  10.565  1.0658  0.6119  0.2015
  464MOL0     C62519   5.442   4.849  10.560  0.1727  0.8512 -0.1159
  464MOL0     C62520   5.473   4.700  10.567  0.0009 -0.1989 -0.5694
  464MOL0     C62521   5.624   4.676  10.541 -0.1754  1.2763 -0.6458
  464MOL0     N62522   5.660   4.538  10.576 -0.0969 -0.0866  0.4486
  464MOL0     C62523   5.695   4.435  10.494 -0.4445 -0.1867  0.0531
  464MOL0     C62524   5.723   4.335  10.570 -0.0481  0.6246 -0.0205
  464MOL0     C62525   5.740   4.190  10.521 -0.0663  0.0270  0.2644
  464MOL0     C62526   5.603   4.134  10.467  0.5079 -0.9772 -0.3514
  464MOL0     C62527   5.482   4.156  10.561  0.4972 -0.0840 -0.1988
  464MOL0     C62528   5.336   4.122  10.519  0.3120 -0.0415 -1.0260
  464MOL0     O62529   5.318   3.983  10.521  0.5846 -0.5925 -0.0989
  464MOL0     C62530   5.197   3.936  10.544 -0.8572  0.7939  0.4439
  464MOL0     C62531   5.085   3.996  10.494 -0.6976  0.2358  0.3397
  464MOL0     C62532   4.955   3.940  10.506 -0.3042  0.4223  0.5634
  464MOL0     C62533   4.839   4.032  10.481  0.6216 -0.4148 -0.2306
  464MOL0     C62534   4.942   3.811  10.569 -1.1584  0.3200  0.1605
  464MOL0     C62535   4.826   3.725  10.578 -0.0030  0.6934  0.8315
  464MOL0     O62536   4.826   3.631  10.687 -0.2449 -0.2730  0.3632
  464MOL0     C62537   4.721   3.556  10.718 -0.8406  0.1186 -0.8212
  464MOL0     C62538   4.747   3.420  10.741 -0.3104  0.1752 -0.6188
  464MOL0     C62539   4.639   3.339  10.778  0.1544 -0.2884 -0.5992
  464MOL0     C62540   4.514   3.390  10.783 -0.0398  0.0869  0.9711
  464MOL0     O62541   4.392   3.321  10.797 -0.2468 -0.1414 -0.9970
  464MOL0     C62542   4.395   3.193  10.863 -0.3499 -1.1230  0.0433
  464MOL0     C62543   4.258   3.129  10.883  0.3977 -0.0224  0.4055
  464MOL0     C62544   4.186   3.111  10.751 -0.9347  0.6937  0.2554
  464MOL0     C62545   4.038   3.084  10.767  0.2934  0.5503 -0.6893
  464MOL0     C62546   4.012   2.933  10.814  0.3180  0.0970  0.0882
  464MOL0     C62547   3.854   2.913  10.820  0.9700  1.6371 -0.5128
  464MOL0     C62548   3.832   2.758  10.860  0.2019 -0.7739 -0.1329
  464MOL0     C62549   3.681   2.718  10.862  0.5213  0.7621 -0.5512
  464MOL0    Cl62550   3.579   2.800  10.978 -0.3367  0.7340 -0.2023
  464MOL0     C62551   4.493   3.530  10.775 -0.1477 -1.0015 -0.2234
  464MOL0     C62552   4.594   3.615  10.740  0.3555 -1.3763 -0.2091
  464MOL0     O62553   4.737   3.749  10.501  0.2997 -0.1450 -0.2331
  464MOL0     C62554   5.059   3.755  10.621 -0.3169  0.2967 -0.2389
  464MOL0     C62555   5.181   3.813  10.608 -0.9375 -0.5922 -0.4790
  464MOL0     N62556   5.728   4.383  10.696 -0.3297  0.0708 -0.2900
  464MOL0     N62557   5.692   4.503  10.698 -0.0472 -0.2400 -0.0741
  464MOL0     C62558   4.890   5.130  11.007 -0.1913 -0.6930  1.0393
  464MOL0     C62559   4.795   5.235  11.013  0.5295  0.4858 -0.1670
  464MOL0     C62560   4.526   5.525  11.247  0.9052  0.3987 -0.5750
  464MOL0     C62561   4.567   5.629  11.328  0.4748 -0.3461 -0.3204
  464MOL0     C62562   4.473   5.726  11.376 -0.0757  1.2152 -0.3872
  464MOL0     C62563   4.338   5.718  11.339 -0.3780 -0.0992  0.4063
  464MOL0     O62564   4.255   5.804  11.397  0.2787  1.1166 -0.4599
  464MOL0     C62565   4.126   5.835  11.338  0.8874 -0.3678  1.0127
  464MOL0     C62566   4.076   5.948  11.429  0.2158  0.2934  0.9645
  464MOL0     C62567   3.929   5.968  11.403 -0.6615  0.0866 -0.2783
  464MOL0     C62568   3.864   6.054  11.509  0.4022  0.0439  0.0494
  464MOL0     C62569   3.871   6.016  11.649 -0.1251 -0.2913  0.4061
  464MOL0     C62570   3.850   5.969  11.757  0.0640  0.8707 -0.0215
  464MOL0     C62571   4.291   5.606  11.259  1.1071 -0.1139 -0.6527
  464MOL0     C62572   4.384   5.506  11.219 -0.9838  0.0699  0.5426
  464MOL0     H62573   4.581   5.088  11.233  0.4174 -1.0817  0.3564
  464MOL0     H62574   4.743   4.897  11.192  2.7114  0.2341  1.5789
  464MOL0     H62575   5.109   4.995  10.944 -0.9948  1.9192  2.4014
  464MOL0     H62576   5.136   4.824  10.976  0.2519  1.1330  1.7686
  464MOL0     H62577   4.983   4.733  10.848 -3.1582 -0.0226 -0.1999
  464MOL0     H62578   4.897   4.888  10.826  0.6691  2.5595  4.1891
  464MOL0     H62579   5.018   4.790  10.637  4.1528 -1.4585 -1.2382
  464MOL0     H62580   5.035   4.971  10.664 -0.6680 -0.8086  0.0377
  464MOL0     H62581   5.280   4.882  10.785 -3.2140  3.7076  1.3807
  464MOL0     H62582   5.237   4.732  10.719  0.2167  1.0369  0.8318
  464MOL0     H62583   5.231   4.839  10.486 -0.2298 -1.6364  2.3457
  464MOL0     H62584   5.277   4.989  10.544 -0.7919  0.0954 -1.3665
  464MOL0     H62585   5.484   4.902  10.474 -0.2754  1.4008 -0.0020
  464MOL0     H62586   5.492   4.881  10.652  1.8699 -1.1514 -0.2712
  464MOL0     H62587   5.449   4.656  10.664  0.1813  2.9714  1.0569
  464MOL0     H62588   5.418   4.648  10.488 -0.0780 -1.2884  0.1784
  464MOL0     H62589   5.674   4.752  10.601  0.1779  1.1825 -0.8225
  464MOL0     H62590   5.644   4.692  10.435 -2.1170 -0.0576 -1.2831
  464MOL0     H62591   5.673   4.448  10.388  1.3559  0.2794 -0.2918
  464MOL0     H62592   5.811   4.189  10.438 -3.2576  1.6810 -2.7158
  464MOL0     H62593   5.773   4.131  10.607 -3.0481 -0.1446  1.4182
  464MOL0     H62594   5.603   4.026  10.452 -1.0723 -1.0595  0.0822
  464MOL0     H62595   5.581   4.187  10.374 -0.2723 -1.6216 -0.5517
  464MOL0     H62596   5.473   4.264  10.577 -0.1763 -0.1351 -0.2196
  464MOL0     H62597   5.499   4.104  10.656  1.2145  1.5868  0.6212
  464MOL0     H62598   5.320   4.162  10.419 -1.8178  1.2366 -0.2285
  464MOL0     H62599   5.265   4.172  10.585 -0.7967 -0.0975 -2.1470
  464MOL0     H62600   5.092   4.087  10.435 -4.1014 -0.9994 -2.3985
  464MOL0     H62601   4.809   4.090  10.569 -0.9475 -0.8723 -0.4258
  464MOL0     H62602   4.867   4.114  10.414  2.3602  1.9550  3.1046
  464MOL0     H62603   4.748   3.993  10.435 -1.3671  1.1181  2.0782
  464MOL0     H62604   4.852   3.396  10.725  0.3962  1.6599  1.3888
  464MOL0     H62605   4.650   3.240  10.822 -0.9906  1.1343  3.2948
  464MOL0     H62606   4.450   3.126  10.796  0.6289  1.6821 -2.1961
  464MOL0     H62607   4.447   3.195  10.959  0.7103  2.3420 -0.4572
  464MOL0     H62608   4.269   3.036  10.939 -1.6341 -0.0599  0.8068
  464MOL0     H62609   4.204   3.195  10.951  2.6341  2.3949 -0.0370
  464MOL0     H62610   4.237   3.038  10.687  2.8141  2.5132  0.8923
  464MOL0     H62611   4.190   3.206  10.697 -1.7061 -0.5496 -2.1798
  464MOL0     H62612   4.003   3.146  10.850  1.4565 -0.8137  0.9020
  464MOL0     H62613   3.990   3.115  10.674  2.6232 -0.6045 -2.3827
  464MOL0     H62614   4.054   2.917  10.914  0.2437 -2.1603 -0.1932
  464MOL0     H62615   4.049   2.861  10.741  2.7006 -0.6163  1.9049
  464MOL0     H62616   3.806   2.983  10.888  0.7853  0.6542  0.3903
  464MOL0     H62617   3.808   2.919  10.721 -2.1497  1.8555  0.8519
  464MOL0     H62618   3.887   2.744  10.953  1.1184  1.2225 -0.3393
  464MOL0     H62619   3.869   2.687  10.785  4.2786  3.3366 -2.5264
  464MOL0     H62620   3.671   2.612  10.887 -0.3299  0.1945 -3.0292
  464MOL0     H62621   3.644   2.734  10.761  0.9151  2.4646 -0.4707
  464MOL0     H62622   4.392   3.568  10.788  0.6015  1.2856 -0.6339
  464MOL0     H62623   4.587   3.721  10.719  0.0064 -0.5090  3.6514
  464MOL0     H62624   5.052   3.663  10.678  0.4556 -0.9030 -2.0018
  464MOL0     H62625   5.270   3.757  10.634 -0.6411 -1.5952 -3.2928
  464MOL0     H62626   4.975   5.155  10.944 -0.3463  0.0850  1.1205
  464MOL0     H62627   4.809   5.332  10.965  0.3474  1.8283  2.3106
  464MOL0     H62628   4.671   5.645  11.353  0.2173 -1.0754  1.3084
  464MOL0     H62629   4.499   5.809  11.440  0.5295  0.2309  0.6915
  464MOL0     H62630   4.132   5.862  11.232 -2.3802 -0.5618  0.6688
  464MOL0     H62631   4.057   5.751  11.344 -0.7247  0.6913 -0.9628
  464MOL0     H62632   4.124   6.043  11.406  2.3310 -0.9233  0.0448
  464MOL0     H62633   4.092   5.920  11.533  1.4897 -1.0336  0.4441
  464MOL0     H62634   3.878   5.871  11.399  0.9639 -0.8448  0.4218
  464MOL0     H62635   3.919   6.021  11.307  1.6352 -0.7215 -1.0568
  464MOL0     H62636   3.759   6.061  11.479  0.6703 -1.6676 -1.4586
  464MOL0     H62637   3.902   6.156  11.499  0.2389  0.1989  0.9200
  464MOL0     H62638   3.846   5.924  11.854 -0.4236 -2.0811 -1.3135
  464MOL0     H62639   4.193   5.570  11.231  1.5108 -0.3135 -1.8455
  464MOL0     H62640   4.351   5.423  11.158  1.4005  0.2323 -1.0641
  465MOL0     O62641   1.485   5.716   9.181  0.2396 -1.0345 -0.6786
  465MOL0     C62642   1.521   5.703   9.300  0.7067 -0.4087  0.0147
  465MOL0     O62643   1.645   5.657   9.348 -0.4024  0.0100  0.4448
  465MOL0     C62644   1.734   5.615   9.253 -0.2094 -0.7055 -0.1830
  465MOL0     C62645   1.867   5.660   9.247 -0.1860  0.3555 -0.9655
  465MOL0     C62646   1.959   5.614   9.152 -0.4910 -0.3533  0.3593
  465MOL0     C62647   1.916   5.520   9.060  0.4611  0.5408 -0.4659
  465MOL0     O62648   1.990   5.462   8.966  0.0373 -0.5600  0.2750
  465MOL0     C62649   2.132   5.511   8.958  0.1195  0.8235  0.5274
  465MOL0     C62650   2.199   5.430   8.859  0.3225 -0.7510 -0.3736
  465MOL0     C62651   2.351   5.431   8.880 -0.0615 -0.4239  0.4189
  465MOL0     C62652   2.445   5.368   8.774  1.2482 -0.4184  0.3353
  465MOL0     C62653   2.586   5.364   8.833 -0.8503 -0.9359 -0.0357
  465MOL0     C62654   2.683   5.345   8.720 -0.2357 -0.0621  0.6107
  465MOL0     C62655   2.837   5.328   8.761  0.6445  0.1454 -0.3421
  465MOL0     C62656   2.931   5.335   8.642 -0.2383  0.4260  0.7230
  465MOL0     N62657   2.941   5.212   8.555 -0.2004 -0.3787  0.8970
  465MOL0     C62658   2.842   5.172   8.472 -0.1113 -0.2975 -0.2064
  465MOL0     C62659   2.883   5.049   8.433  0.1493  0.2264 -0.1812
  465MOL0     C62660   2.805   4.960   8.340  0.1117  0.3742  1.2512
  465MOL0     C62661   2.749   4.837   8.409 -0.2156  0.5634 -0.3770
  465MOL0     C62662   2.638   4.869   8.507  0.3721 -1.3468  0.2846
  465MOL0     C62663   2.502   4.902   8.439 -0.4367 -1.2309  0.3877
  465MOL0     O62664   2.398   4.939   8.532 -0.6075  0.2522 -0.5659
  465MOL0     C62665   2.263   4.942   8.507 -0.8452  0.4053 -0.3763
  465MOL0     C62666   2.217   4.903   8.381  0.6969  0.0468 -0.5633
  465MOL0     C62667   2.078   4.882   8.353  0.7553  0.1811  0.0276
  465MOL0     C62668   2.032   4.821   8.221  0.4597 -0.1933  0.6261
  465MOL0     C62669   1.989   4.909   8.467 -0.1582 -0.8761  0.4782
  465MOL0     C62670   1.847   4.888   8.465  0.0635 -0.5623 -0.6614
  465MOL0     O62671   1.775   4.987   8.518 -0.3374  0.1172  0.0775
  465MOL0     C62672   1.642   4.964   8.525  0.3056  0.0850 -0.1931
  465MOL0     C62673   1.563   5.000   8.418  0.5891  0.3069 -0.1160
  465MOL0     C62674   1.428   4.969   8.406  0.1354 -0.0901  0.0070
  465MOL0     C62675   1.363   4.905   8.516 -0.1604  0.8659 -1.5557
  465MOL0     O62676   1.233   4.871   8.504 -0.7752 -0.5905 -0.2860
  465MOL0     C62677   1.154   4.850   8.613  0.8308  0.2605  0.3535
  465MOL0     C62678   1.006   4.867   8.561 -0.2598  0.2377 -0.1734
  465MOL0     C62679   0.939   4.763   8.473 -0.2629  0.2076  0.2963
  465MOL0     C62680   0.965   4.620   8.522 -0.1979 -0.2643  0.0376
  465MOL0     C62681   0.884   4.528   8.437  0.0662  0.6068  0.9093
  465MOL0     C62682   0.883   4.376   8.491  0.7637 -0.3129  0.2755
  465MOL0     C62683   0.816   4.278   8.382 -0.0427  0.1251 -0.4317
  465MOL0     C62684   0.691   4.206   8.431  0.5137 -0.2974  0.3339
  465MOL0    Cl62685   0.603   4.147   8.285 -0.3912 -0.1621 -0.4708
  465MOL0     C62686   1.443   4.863   8.623 -0.1374  0.8638 -0.0504
  465MOL0     C62687   1.582   4.893   8.633  0.0730 -0.5070 -0.0183
  465MOL0     O62688   1.806   4.791   8.402 -0.7367  0.1495 -0.5261
  465MOL0     C62689   2.037   4.974   8.582  0.3384  0.3843  0.2575
  465MOL0     C62690   2.173   4.981   8.603 -0.1322 -0.7057  0.5439
  465MOL0     N62691   3.010   5.024   8.481  0.7775  0.0425 -0.1762
  465MOL0     N62692   3.036   5.124   8.551 -0.0458 -1.2093  0.0331
  465MOL0     C62693   1.781   5.476   9.066 -0.1721 -0.1379 -0.5483
  465MOL0     C62694   1.694   5.517   9.161  0.3518  0.2339  0.5245
  465MOL0     C62695   1.406   5.744   9.393 -0.1132 -0.5047 -0.3836
  465MOL0     C62696   1.282   5.748   9.344 -0.4251 -0.7206 -0.4599
  465MOL0     C62697   1.179   5.803   9.421 -0.2351 -0.4077 -0.4358
  465MOL0     C62698   1.203   5.845   9.552 -0.4189 -0.4290 -0.4994
  465MOL0     O62699   1.100   5.895   9.621  0.1684  0.0446 -0.3689
  465MOL0     C62700   1.108   5.922   9.759 -0.4352 -0.0351  0.3732
  465MOL0     C62701   0.978   5.984   9.805  0.3390 -0.4877  0.4259
  465MOL0     C62702   0.839   5.905   9.787 -0.2212  0.1267  0.6742
  465MOL0     C62703   0.726   5.968   9.869  0.0944 -0.0118  0.4254
  465MOL0     C62704   0.635   5.864   9.905 -0.0016 -0.8440 -0.7280
  465MOL0     C62705   0.528   5.807   9.937  0.0595 -0.5166  0.5705
  465MOL0     C62706   1.334   5.835   9.610 -0.6492 -1.3412  0.7199
  465MOL0     C62707   1.436   5.791   9.525  0.5174 -0.0517 -0.0063
  465MOL0     H62708   1.897   5.738   9.316  2.6474  1.2870 -3.0799
  465MOL0     H62709   2.058   5.656   9.160 -0.3569 -0.2741 -1.2845
  465MOL0     H62710   2.137   5.615   8.924 -0.7553  0.4876 -0.6814
  465MOL0     H62711   2.184   5.493   9.053 -0.3418  1.2733  0.8669
  465MOL0     H62712   2.178   5.323   8.868  1.9508 -1.1174 -0.5526
  465MOL0     H62713   2.177   5.465   8.757  1.0673 -1.3368 -0.7518
  465MOL0     H62714   2.389   5.533   8.888 -0.7887  0.6101 -5.2840
  465MOL0     H62715   2.367   5.373   8.972 -0.8381  2.2154  2.3363
  465MOL0     H62716   2.406   5.267   8.759 -3.3157  1.2472 -0.4215
  465MOL0     H62717   2.434   5.416   8.677  0.4169 -0.7274  0.2728
  465MOL0     H62718   2.625   5.453   8.884 -0.1803 -1.0685 -0.2968
  465MOL0     H62719   2.592   5.280   8.903 -3.4494 -1.3835 -0.2537
  465MOL0     H62720   2.666   5.250   8.667 -0.7361 -0.4703  1.4657
  465MOL0     H62721   2.669   5.424   8.647  0.5590  0.9369  1.5134
  465MOL0     H62722   2.857   5.417   8.821  2.8955 -2.4839  3.2002
  465MOL0     H62723   2.850   5.238   8.822 -1.2923  0.4008  0.5123
  465MOL0     H62724   3.028   5.361   8.686  0.7539 -2.4670  0.4083
  465MOL0     H62725   2.906   5.419   8.576 -0.8655  0.0122  0.4234
  465MOL0     H62726   2.750   5.216   8.435  0.4997  0.1127 -1.2734
  465MOL0     H62727   2.722   5.013   8.292  1.7072  0.2815 -1.8480
  465MOL0     H62728   2.863   4.939   8.250  0.9334  1.9152  1.3803
  465MOL0     H62729   2.830   4.782   8.457 -1.5395 -1.1981 -0.0905
  465MOL0     H62730   2.720   4.773   8.326 -0.7903  1.7941 -1.1644
  465MOL0     H62731   2.665   4.958   8.564 -0.9762  0.5710 -1.8776
  465MOL0     H62732   2.617   4.790   8.579  2.0278  0.0277  2.3912
  465MOL0     H62733   2.471   4.810   8.389  1.7760 -0.3611 -2.9124
  465MOL0     H62734   2.518   4.979   8.363 -2.0660 -0.3535  0.8956
  465MOL0     H62735   2.287   4.875   8.303 -0.3032 -3.0377 -0.4563
  465MOL0     H62736   2.102   4.829   8.137  0.3209  1.8847  0.6472
  465MOL0     H62737   2.012   4.715   8.235 -1.6748 -0.1055 -1.3391
  465MOL0     H62738   1.941   4.866   8.180  0.7961  0.0754  0.1584
  465MOL0     H62739   1.609   5.061   8.341  0.9112 -0.0817 -0.2341
  465MOL0     H62740   1.377   5.010   8.320  0.9514  0.2643 -0.3139
  465MOL0     H62741   1.159   4.745   8.644  0.6964  0.2018  0.1767
  465MOL0     H62742   1.176   4.917   8.697  3.6147 -0.4595  0.2949
  465MOL0     H62743   0.940   4.869   8.649  0.4798  0.3106  0.3883
  465MOL0     H62744   1.003   4.971   8.528  1.8426  0.3528 -0.1251
  465MOL0     H62745   0.965   4.771   8.368  0.3289  0.4221  0.4538
  465MOL0     H62746   0.833   4.791   8.475 -0.4064 -0.3386  1.3590
  465MOL0     H62747   1.069   4.595   8.501  0.4215  3.1722 -1.6811
  465MOL0     H62748   0.952   4.601   8.629  2.7691 -1.7524  0.2124
  465MOL0     H62749   0.913   4.541   8.332 -2.5742 -1.3487 -0.1623
  465MOL0     H62750   0.782   4.568   8.436 -0.0871  0.2223 -0.0038
  465MOL0     H62751   0.986   4.347   8.514  1.7367  3.3795  1.2026
  465MOL0     H62752   0.846   4.370   8.594  0.7975 -0.7163  0.2668
  465MOL0     H62753   0.889   4.201   8.356 -0.1553  0.1571 -0.8405
  465MOL0     H62754   0.780   4.326   8.290 -1.5478 -1.1830 -0.5671
  465MOL0     H62755   0.630   4.277   8.488  2.7416  1.5062  0.6465
  465MOL0     H62756   0.724   4.121   8.491  0.7655 -0.3161  0.1714
  465MOL0     H62757   1.408   4.798   8.703 -2.0259  1.8385 -0.0099
  465MOL0     H62758   1.633   4.861   8.723 -3.1571 -1.4272  1.6255
  465MOL0     H62759   1.966   4.996   8.662  1.5006  0.1445  1.3995
  465MOL0     H62760   2.218   5.017   8.695 -0.6385  3.2275 -0.5554
  465MOL0     H62761   1.741   5.409   8.991 -1.7633 -0.0472  0.1966
  465MOL0     H62762   1.593   5.477   9.164 -0.0864  1.3531  1.0912
  465MOL0     H62763   1.260   5.711   9.244  1.1012 -0.7326 -0.8185
  465MOL0     H62764   1.081   5.836   9.391 -0.0125  3.4286  2.2910
  465MOL0     H62765   1.146   5.839   9.819  1.0102  1.6760  1.9376
  465MOL0     H62766   1.177   6.005   9.770  1.4200 -1.6006  1.0573
  465MOL0     H62767   0.966   6.080   9.753  2.2670 -0.0190  0.7559
  465MOL0     H62768   0.974   6.011   9.912 -5.3213  1.4431  0.0811
  465MOL0     H62769   0.861   5.806   9.829  0.4243  1.1032  2.8040
  465MOL0     H62770   0.807   5.900   9.683  1.7572 -2.0615  0.0929
  465MOL0     H62771   0.679   6.041   9.802 -0.5824 -0.3109  0.5687
  465MOL0     H62772   0.765   6.012   9.962  2.4388  0.4662 -0.6875
  465MOL0     H62773   0.429   5.766   9.943 -0.5420  0.2978 -2.3350
  465MOL0     H62774   1.342   5.884   9.707 -4.1561  0.5887  0.1895
  465MOL0     H62775   1.539   5.790   9.561 -0.0416  0.7400  1.7530
  466MOL0     O62776   1.977   5.311   8.248  0.3766  0.3772  0.2861
  466MOL0     C62777   2.026   5.299   8.361  0.0520 -1.0992  0.5368
  466MOL0     O62778   2.164   5.321   8.394 -0.0695 -0.0089  0.1026
  466MOL0     C62779   2.256   5.337   8.287  0.1642  0.5071  0.0025
  466MOL0     C62780   2.378   5.270   8.281  0.2006  0.4207 -0.9953
  466MOL0     C62781   2.471   5.313   8.173  1.1511 -0.2897  0.2045
  466MOL0     C62782   2.433   5.417   8.085 -0.1887  0.7341 -0.0247
  466MOL0     O62783   2.515   5.471   7.993  0.3329 -0.2375  0.3117
  466MOL0     C62784   2.621   5.395   7.926  0.8218 -1.2265  0.1961
  466MOL0     C62785   2.751   5.404   8.016 -0.0801  0.2054  0.1713
  466MOL0     C62786   2.851   5.294   7.983  0.5708 -0.0961 -0.3033
  466MOL0     C62787   2.924   5.296   7.843 -0.3241  0.3155  0.6765
  466MOL0     C62788   3.021   5.171   7.836 -0.3188 -0.1355  0.1626
  466MOL0     C62789   2.958   5.021   7.851 -0.0833 -0.4801  0.4805
  466MOL0     C62790   2.832   5.009   7.757  1.1744  0.5670 -0.3672
  466MOL0     C62791   2.871   5.019   7.608  1.4635  0.1940  0.9941
  466MOL0     N62792   2.809   5.136   7.531 -0.3199  0.8060 -0.5216
  466MOL0     C62793   2.678   5.158   7.501  0.1928  0.4123  0.4919
  466MOL0     C62794   2.668   5.284   7.447  0.9155  0.1727  0.7983
  466MOL0     C62795   2.549   5.365   7.410  0.0600 -0.0429  0.2143
  466MOL0     C62796   2.578   5.457   7.285 -0.0258 -0.2388  0.0639
  466MOL0     C62797   2.448   5.532   7.238  0.1518  0.5575 -0.2590
  466MOL0     C62798   2.476   5.635   7.134 -0.6104  0.6911  0.4988
  466MOL0     O62799   2.502   5.575   7.006 -0.1352  0.2574  0.7508
  466MOL0     C62800   2.603   5.615   6.925  0.1815 -0.0342 -0.3209
  466MOL0     C62801   2.591   5.596   6.788  0.0573  0.2197 -0.7634
  466MOL0     C62802   2.688   5.641   6.701  0.7798  0.4231 -0.0159
  466MOL0     C62803   2.662   5.597   6.555  0.0180 -0.3508 -0.4643
  466MOL0     C62804   2.810   5.695   6.746  1.0585 -0.7228  0.2382
  466MOL0     C62805   2.931   5.733   6.662  0.6975 -0.4252 -0.3304
  466MOL0     O62806   2.922   5.690   6.529  0.0478 -1.3904  0.3471
  466MOL0     C62807   3.020   5.724   6.432 -0.3717 -0.4260 -1.3571
  466MOL0     C62808   3.087   5.622   6.358  0.5398 -0.4569 -0.7921
  466MOL0     C62809   3.193   5.651   6.276  0.6020 -0.3535  0.9490
  466MOL0     C62810   3.238   5.785   6.257 -0.2880  0.1651 -0.5897
  466MOL0     O62811   3.337   5.835   6.176  0.1421  0.3519  0.2979
  466MOL0     C62812   3.469   5.814   6.227  0.2086 -0.3648 -0.3369
  466MOL0     C62813   3.563   5.815   6.109 -0.4541  1.0254  0.1531
  466MOL0     C62814   3.706   5.839   6.148  0.0543 -0.6313 -0.2497
  466MOL0     C62815   3.796   5.813   6.030  0.3329  0.3972  0.7545
  466MOL0     C62816   3.946   5.839   6.060  0.4701 -0.0613  0.3852
  466MOL0     C62817   3.969   5.992   6.079  0.6551  0.1363 -1.0292
  466MOL0     C62818   4.060   6.053   5.968 -1.1283  0.2349 -0.1684
  466MOL0     C62819   4.125   6.190   5.993  0.5016  0.1912 -0.2161
  466MOL0    Cl62820   4.208   6.247   5.847  0.2377 -0.0995  0.2252
  466MOL0     C62821   3.174   5.882   6.335  0.4583 -0.5790  0.1158
  466MOL0     C62822   3.069   5.852   6.422  0.7874  0.5288  0.1912
  466MOL0     O62823   3.020   5.795   6.717 -0.0329 -0.1559 -0.1851
  466MOL0     C62824   2.822   5.720   6.888 -0.1283 -0.1128 -0.1174
  466MOL0     C62825   2.721   5.671   6.975 -0.4999 -0.0930  0.4436
  466MOL0     N62826   2.798   5.331   7.439 -0.0377  0.0512  0.0541
  466MOL0     N62827   2.879   5.244   7.494 -0.4719  0.2461  0.0938
  466MOL0     C62828   2.303   5.476   8.099 -0.2189  0.1586  0.3674
  466MOL0     C62829   2.227   5.440   8.207 -0.2868 -0.9320  0.2594
  466MOL0     C62830   1.924   5.285   8.472  1.1108 -0.8056  0.3526
  466MOL0     C62831   1.965   5.286   8.606 -0.8819  0.3498  1.0593
  466MOL0     C62832   1.877   5.262   8.709  0.8034  0.8933  0.0078
  466MOL0     C62833   1.732   5.269   8.689  0.7857  0.3174  0.0037
  466MOL0     O62834   1.651   5.221   8.788 -0.0496 -0.1286  0.8582
  466MOL0     C62835   1.536   5.290   8.815  1.2791 -0.4434 -0.2720
  466MOL0     C62836   1.417   5.191   8.792 -0.1689  0.6784  0.3055
  466MOL0     C62837   1.282   5.250   8.841  0.2849 -0.8436  0.4404
  466MOL0     C62838   1.180   5.146   8.834 -0.1135 -0.5525  0.5287
  466MOL0     C62839   1.048   5.196   8.871 -0.6521  0.2793  0.4525
  466MOL0     C62840   0.937   5.231   8.911 -0.0972  0.2602 -0.3055
  466MOL0     C62841   1.693   5.301   8.555 -1.3233 -0.5154 -0.0988
  466MOL0     C62842   1.784   5.301   8.452 -0.3262  0.5498 -0.3755
  466MOL0     H62843   2.407   5.197   8.356 -0.7735  0.0357 -0.9788
  466MOL0     H62844   2.574   5.281   8.178  1.5323  0.9911  1.3950
  466MOL0     H62845   2.585   5.292   7.916 -0.3351 -0.9519  1.2112
  466MOL0     H62846   2.637   5.440   7.828 -2.3295  0.0290  0.1536
  466MOL0     H62847   2.793   5.505   8.008 -1.6883  0.9375  0.5843
  466MOL0     H62848   2.717   5.397   8.120  1.4368 -1.0905  0.6106
  466MOL0     H62849   2.922   5.308   8.065 -0.5221  0.3155  0.5959
  466MOL0     H62850   2.802   5.199   8.003  2.9837 -1.3456  0.0538
  466MOL0     H62851   2.846   5.297   7.766 -0.1558  3.9464  0.3628
  466MOL0     H62852   2.988   5.381   7.818  1.7414 -0.6566  2.2806
  466MOL0     H62853   3.079   5.185   7.745  0.7550  5.2884  1.3226
  466MOL0     H62854   3.100   5.170   7.912  0.2674 -2.2405 -0.3975
  466MOL0     H62855   3.038   4.950   7.829  0.8296  0.4184  0.8319
  466MOL0     H62856   2.918   5.007   7.952 -1.8248 -2.4585 -0.3957
  466MOL0     H62857   2.783   4.915   7.781  0.7403  0.0105 -3.1277
  466MOL0     H62858   2.758   5.088   7.773  1.7157  1.0795 -0.3770
  466MOL0     H62859   2.828   4.933   7.556 -0.3374  1.3281  0.5179
  466MOL0     H62860   2.980   5.018   7.596  1.4415  0.3200  0.7933
  466MOL0     H62861   2.590   5.095   7.514 -1.3259  2.4355  0.4041
  466MOL0     H62862   2.466   5.301   7.378 -0.0789  0.5843 -0.7392
  466MOL0     H62863   2.514   5.422   7.496  1.4207  2.4424 -0.7673
  466MOL0     H62864   2.610   5.401   7.197 -0.6511  1.1104 -1.0463
  466MOL0     H62865   2.651   5.526   7.329 -0.4833  1.8625 -2.3022
  466MOL0     H62866   2.408   5.590   7.322  0.6370 -3.3145  2.9537
  466MOL0     H62867   2.378   5.453   7.208  0.7028 -1.4313  3.1194
  466MOL0     H62868   2.555   5.707   7.158  0.9712 -1.3476  1.6387
  466MOL0     H62869   2.384   5.691   7.111 -1.6796 -1.5199 -0.9417
  466MOL0     H62870   2.497   5.560   6.748 -1.6693  1.6965  1.7260
  466MOL0     H62871   2.564   5.548   6.542  0.9231 -2.0607 -1.2043
  466MOL0     H62872   2.649   5.687   6.494  0.4423 -1.0776 -1.6608
  466MOL0     H62873   2.733   5.527   6.511 -0.1335 -1.5068  1.0365
  466MOL0     H62874   3.043   5.523   6.356 -2.5284  0.7756 -0.6592
  466MOL0     H62875   3.237   5.583   6.203 -0.9414  1.0867 -1.4726
  466MOL0     H62876   3.493   5.889   6.304 -0.5737 -1.4071  0.9701
  466MOL0     H62877   3.486   5.720   6.281  3.0873  0.8631  1.1486
  466MOL0     H62878   3.549   5.711   6.078 -3.8204  1.7349 -1.1283
  466MOL0     H62879   3.535   5.883   6.029 -1.7922  0.5300  0.1713
  466MOL0     H62880   3.734   5.772   6.230 -2.1002  0.1533  1.2096
  466MOL0     H62881   3.708   5.942   6.183 -1.6238 -0.9397  0.8735
  466MOL0     H62882   3.784   5.705   6.021 -1.1079  0.2756  3.0853
  466MOL0     H62883   3.768   5.869   5.941 -0.5722  1.4312  1.6603
  466MOL0     H62884   4.001   5.791   5.979 -2.4430 -3.3976  0.1479
  466MOL0     H62885   3.966   5.789   6.155 -6.8332 -1.5322  1.7094
  466MOL0     H62886   3.874   6.046   6.085 -1.1548 -2.9682  3.4027
  466MOL0     H62887   4.009   5.998   6.181  1.7809 -1.5304 -1.3271
  466MOL0     H62888   4.001   6.059   5.876  1.1561  2.2181 -1.6436
  466MOL0     H62889   4.134   5.974   5.953 -2.3120 -0.9721  0.1534
  466MOL0     H62890   4.191   6.175   6.079 -1.3414  0.1501  1.2570
  466MOL0     H62891   4.039   6.251   6.021 -2.0385 -1.8012 -2.9913
  466MOL0     H62892   3.215   5.982   6.332  2.4551 -1.3084  1.0217
  466MOL0     H62893   3.018   5.925   6.484 -0.8718  0.2154 -0.7592
  466MOL0     H62894   2.911   5.761   6.934  0.7483 -1.1536 -0.8512
  466MOL0     H62895   2.735   5.675   7.082  0.0774 -0.8090  0.4098
  466MOL0     H62896   2.263   5.560   8.044  1.4759  4.4693  4.9436
  466MOL0     H62897   2.137   5.497   8.222  0.3349  0.4764 -1.0728
  466MOL0     H62898   2.068   5.309   8.633 -0.9555  1.0698  0.7552
  466MOL0     H62899   1.907   5.268   8.813 -3.3362  2.7293  1.3387
  466MOL0     H62900   1.538   5.322   8.920 -2.2045  1.5917 -0.6663
  466MOL0     H62901   1.531   5.383   8.758  2.0610  0.0112  0.3847
  466MOL0     H62902   1.447   5.099   8.843 -1.0036 -0.1584 -0.6749
  466MOL0     H62903   1.421   5.157   8.688  2.1864 -1.3304  0.9702
  466MOL0     H62904   1.251   5.339   8.785 -0.4503 -1.4441 -0.1332
  466MOL0     H62905   1.288   5.277   8.947 -4.3238 -4.9118  2.1421
  466MOL0     H62906   1.204   5.057   8.892  1.3632 -1.8498 -1.9065
  466MOL0     H62907   1.188   5.128   8.726  3.0830  1.8224  0.2225
  466MOL0     H62908   0.847   5.266   8.955 -1.5422 -3.0085 -0.3295
  466MOL0     H62909   1.588   5.303   8.529 -1.1522  0.5484 -0.7570
  466MOL0     H62910   1.741   5.305   8.352  1.8213  0.7280 -1.3520
  467MOL0     O62911   1.588   9.741   0.023  0.5931  0.0799  0.3706
  467MOL0     C62912   1.589   9.860   0.004 -0.3222 -0.2422 -0.3219
  467MOL0     O62913   1.686   9.929  -0.060  0.3307 -0.4340  0.1724
  467MOL0     C62914   1.815   9.875  -0.064  0.1073 -0.0959  0.6323
  467MOL0     C62915   1.911   9.972  -0.048  0.2720 -0.8474  0.0222
  467MOL0     C62916   2.054   9.946  -0.048 -0.6372  0.4368 -0.0376
  467MOL0     C62917   2.088   9.814  -0.052 -0.1851  0.6307  0.0489
  467MOL0     O62918   2.223   9.790  -0.051  0.0851  0.2056 -0.6268
  467MOL0     C62919   2.297   9.720   0.053 -0.2309  0.4501 -0.1739
  467MOL0     C62920   2.278   9.566   0.041  1.1771  0.1707 -0.2002
  467MOL0     C62921   2.394   9.502   0.108  0.2079 -0.3743  0.7875
  467MOL0     C62922   2.437   9.359   0.081  0.5485  0.4245  0.6009
  467MOL0     C62923   2.371   9.245   0.152 -0.0562  1.3587  1.0411
  467MOL0     C62924   2.420   9.118   0.084 -0.7420 -0.1023 -0.6743
  467MOL0     C62925   2.547   9.072   0.144 -0.0195 -0.2467 -0.4208
  467MOL0     C62926   2.582   8.924   0.100 -0.2072 -0.1183  0.5917
  467MOL0     N62927   2.650   8.853   0.204  0.0980  0.4881 -0.3151
  467MOL0     C62928   2.766   8.886   0.267  0.0246 -0.5248 -0.3944
  467MOL0     C62929   2.794   8.779   0.343  0.7381  0.5476 -0.1086
  467MOL0     C62930   2.901   8.772   0.453 -0.1789  0.2506  0.4637
  467MOL0     C62931   2.989   8.659   0.423 -0.5699 -0.5558 -1.2622
  467MOL0     C62932   3.102   8.634   0.517  0.3125 -0.5378  0.4258
  467MOL0     C62933   3.150   8.493   0.526 -0.4872  0.9367  0.5173
  467MOL0     O62934   3.184   8.449   0.393  0.4287 -0.3635 -0.3554
  467MOL0     C62935   3.285   8.360   0.381 -0.7196  0.1674 -0.7199
  467MOL0     C62936   3.340   8.277   0.477  1.3578 -0.6959  0.4942
  467MOL0     C62937   3.459   8.200   0.458 -0.0656  0.0125  0.3751
  467MOL0     C62938   3.490   8.106   0.574  0.1343 -0.1895 -0.0355
  467MOL0     C62939   3.545   8.227   0.350  0.4504 -0.6507  1.2028
  467MOL0     C62940   3.671   8.160   0.323  0.4020 -0.3441 -0.5704
  467MOL0     O62941   3.707   8.133   0.199  0.4062 -0.0316  0.9624
  467MOL0     C62942   3.823   8.061   0.175  0.0199 -0.9431  0.0577
  467MOL0     C62943   3.877   8.086   0.050  0.8438 -0.1148 -0.0843
  467MOL0     C62944   3.993   8.022   0.006  0.6486 -1.0967 -0.2356
  467MOL0     C62945   4.067   7.939   0.093 -0.8026  0.0097  0.1636
  467MOL0     O62946   4.178   7.877   0.037 -0.4275  0.1907  0.0177
  467MOL0     C62947   4.204   7.742   0.080 -0.1900  0.0326 -0.2422
  467MOL0     C62948   4.335   7.693   0.004  1.0792 -0.8226 -0.0960
  467MOL0     C62949   4.454   7.760   0.055 -0.0363 -1.0088  0.1997
  467MOL0     C62950   4.579   7.688  -0.004 -0.0602 -0.2814 -0.2267
  467MOL0     C62951   4.701   7.757   0.056  0.4824 -0.1205  0.1014
  467MOL0     C62952   4.756   7.875  -0.034 -0.2207 -0.5892  0.7117
  467MOL0     C62953   4.872   7.833  -0.127  0.1432 -0.4535 -1.2153
  467MOL0     C62954   4.818   7.789  -0.266 -0.1590  0.4458  0.2699
  467MOL0    Cl62955   4.940   7.777  -0.384 -0.6461 -0.1688 -0.0753
  467MOL0     C62956   4.010   7.904   0.218  0.0140  0.2842 -0.3370
  467MOL0     C62957   3.894   7.971   0.261  0.8658 -0.3019 -0.0503
  467MOL0     O62958   3.736   8.134   0.419  0.3133 -0.5233 -0.8824
  467MOL0     C62959   3.487   8.309   0.248  0.3870 -0.3623  0.0861
  467MOL0     C62960   3.362   8.374   0.269 -1.5739 -0.0951  0.1266
  467MOL0     N62961   2.686   8.685   0.330 -0.2712 -0.6703 -0.2179
  467MOL0     N62962   2.605   8.727   0.244  0.5893 -0.5959  0.1738
  467MOL0     C62963   1.992   9.708  -0.083  0.0899  0.2910  0.4477
  467MOL0     C62964   1.851   9.742  -0.085 -0.3166  0.7348 -0.6052
  467MOL0     C62965   1.471   9.930   0.061 -0.4370 -0.2862 -0.4134
  467MOL0     C62966   1.358   9.856   0.109  0.6870  0.1535  1.5672
  467MOL0     C62967   1.257   9.921   0.186  0.0303  0.5357 -0.1588
  467MOL0     C62968   1.266  10.059   0.217  0.6912  0.5061  0.3218
  467MOL0     O62969   1.180  10.123   0.298  0.3601 -0.5101 -0.0383
  467MOL0     C62970   1.156  10.059   0.426 -0.2025 -0.1822 -0.0316
  467MOL0     C62971   1.142  10.145   0.542 -0.1056 -0.6707  0.3386
  467MOL0     C62972   1.255  10.199   0.627 -0.2592  1.1065 -0.3445
  467MOL0     C62973   1.350  10.304   0.553  0.2898 -0.5061  0.0188
  467MOL0     C62974   1.401  10.415   0.637  0.2320 -1.0562 -0.1616
  467MOL0     C62975   1.428  10.510   0.706  0.1078  0.1862  0.9112
  467MOL0     C62976   1.379  10.128   0.164 -0.2838 -0.0023 -0.3376
  467MOL0     C62977   1.477  10.069   0.083  0.0922 -0.7423 -0.1337
  467MOL0     H62978   1.889  10.077  -0.035 -3.6449 -1.8142  2.9019
  467MOL0     H62979   2.128  10.024  -0.041  1.6974 -1.6318 -0.4289
  467MOL0     H62980   2.398   9.755   0.030 -1.3436  2.8225 -1.8128
  467MOL0     H62981   2.265   9.760   0.150  0.7523  0.4404  0.1613
  467MOL0     H62982   2.183   9.535   0.087  1.4839 -0.5766 -0.0606
  467MOL0     H62983   2.275   9.535  -0.064  1.4712  0.0558 -0.1760
  467MOL0     H62984   2.478   9.563   0.073  0.5547  0.1345  2.3773
  467MOL0     H62985   2.380   9.530   0.213 -0.7772 -1.3450  0.9263
  467MOL0     H62986   2.410   9.335  -0.022  2.0825 -0.3364  0.3350
  467MOL0     H62987   2.545   9.359   0.101  0.6259  2.7758  0.4534
  467MOL0     H62988   2.388   9.250   0.260 -0.8941 -1.4064  1.3737
  467MOL0     H62989   2.263   9.255   0.136 -0.1317 -1.2351 -0.5848
  467MOL0     H62990   2.338   9.046   0.096  0.5045 -1.4537  0.0750
  467MOL0     H62991   2.435   9.137  -0.022 -0.0559  2.2281 -0.2283
  467MOL0     H62992   2.637   9.127   0.115  2.2918 -3.7212 -0.4614
  467MOL0     H62993   2.543   9.072   0.253 -3.6085 -2.7660 -0.3785
  467MOL0     H62994   2.633   8.917   0.003 -0.7086  3.6577 -0.0873
  467MOL0     H62995   2.482   8.880   0.096 -1.3538  2.3826  0.0546
  467MOL0     H62996   2.808   8.984   0.288  0.5728 -1.2732  2.3300
  467MOL0     H62997   2.952   8.869   0.449 -0.4261  0.3373 -1.4390
  467MOL0     H62998   2.843   8.759   0.546  0.1430  2.0255  0.9516
  467MOL0     H62999   3.022   8.683   0.322 -2.1883  0.2316 -1.6398
  467MOL0     H63000   2.928   8.569   0.434  1.1548 -1.4870  1.9176
  467MOL0     H63001   3.068   8.646   0.621 -0.9317  0.4801 -0.0763
  467MOL0     H63002   3.179   8.705   0.484  1.2887 -0.6113  2.3899
  467MOL0     H63003   3.070   8.432   0.568 -1.0881  1.2486 -0.1504
  467MOL0     H63004   3.239   8.496   0.591  0.7652 -0.5377 -1.0336
  467MOL0     H63005   3.277   8.253   0.562  1.1940  0.0955  0.6037
  467MOL0     H63006   3.578   8.134   0.634  1.2982 -2.0610 -0.7896
  467MOL0     H63007   3.405   8.113   0.642  0.2668 -0.5645  0.1724
  467MOL0     H63008   3.507   7.999   0.559 -0.3613 -1.0715  4.3353
  467MOL0     H63009   3.835   8.167  -0.009  2.8499 -1.1267 -3.1819
  467MOL0     H63010   4.022   8.039  -0.097 -0.6618 -1.6753 -0.7175
  467MOL0     H63011   4.230   7.748   0.187  1.8314  5.4991 -0.6803
  467MOL0     H63012   4.125   7.667   0.066 -0.7888  0.8528 -1.4520
  467MOL0     H63013   4.343   7.591   0.042  0.9022  0.3946  3.5841
  467MOL0     H63014   4.328   7.696  -0.105 -4.0511  1.6248  0.0025
  467MOL0     H63015   4.453   7.757   0.164 -1.0394  1.9409  0.3602
  467MOL0     H63016   4.441   7.868   0.042 -0.9940 -0.4696  4.2693
  467MOL0     H63017   4.578   7.580   0.010  1.6703  0.0835  3.9007
  467MOL0     H63018   4.573   7.705  -0.112 -2.8010 -0.7668 -0.2229
  467MOL0     H63019   4.779   7.681   0.071  1.0757 -0.2760 -3.0760
  467MOL0     H63020   4.679   7.804   0.152 -0.4172  1.1853 -0.7041
  467MOL0     H63021   4.675   7.921  -0.090  0.3649 -0.8859 -0.4004
  467MOL0     H63022   4.784   7.958   0.032  0.3525 -0.7870  0.7237
  467MOL0     H63023   4.942   7.759  -0.087 -0.3005  0.0625  0.5621
  467MOL0     H63024   4.921   7.928  -0.146  2.7498 -1.9329 -2.4502
  467MOL0     H63025   4.749   7.865  -0.302  1.8914  2.3308  0.1259
  467MOL0     H63026   4.769   7.692  -0.252  0.9686  0.2840  4.6805
  467MOL0     H63027   4.061   7.831   0.280 -2.5479  0.2104  1.8682
  467MOL0     H63028   3.854   7.945   0.359  2.4566  1.2601  1.0836
  467MOL0     H63029   3.531   8.327   0.150  1.8501 -2.7418  0.2215
  467MOL0     H63030   3.341   8.450   0.194  2.3020  2.2645  1.1344
  467MOL0     H63031   2.031   9.607  -0.096 -2.4229 -0.7418  0.2230
  467MOL0     H63032   1.790   9.654  -0.102  1.8595 -1.6228  2.6503
  467MOL0     H63033   1.332   9.757   0.075 -2.2241  1.1254  0.6652
  467MOL0     H63034   1.172   9.860   0.215  0.6139  0.2359  0.9946
  467MOL0     H63035   1.063  10.003   0.424  0.5485 -1.4718 -0.2830
  467MOL0     H63036   1.237   9.992   0.458 -2.0645 -1.2650  2.8068
  467MOL0     H63037   1.095  10.088   0.624  0.5771  1.3133  2.2128
  467MOL0     H63038   1.075  10.226   0.512  2.5151  0.4037 -3.2472
  467MOL0     H63039   1.314  10.109   0.646 -2.4299  0.0666  1.9758
  467MOL0     H63040   1.227  10.241   0.723 -0.2837 -2.8220  1.5607
  467MOL0     H63041   1.286  10.350   0.477  0.1745 -0.6372  0.0353
  467MOL0     H63042   1.438  10.256   0.510  0.7979  0.6393 -0.2542
  467MOL0     H63043   1.459  10.589   0.772  2.4571 -0.3742  0.5689
  467MOL0     H63044   1.399  10.233   0.182 -0.8281  0.6450 -3.0361
  467MOL0     H63045   1.556  10.138   0.056 -0.3684 -0.3931 -0.6019
  468MOL0     O63046   7.069   6.511   7.444 -0.0845  0.4813  0.7901
  468MOL0     C63047   6.981   6.479   7.533 -0.8259  0.8143  0.5845
  468MOL0     O63048   6.922   6.360   7.543  0.7626  0.4279  0.3849
  468MOL0     C63049   6.958   6.259   7.451 -0.9149 -0.8325  0.8014
  468MOL0     C63050   6.902   6.262   7.316  0.0943 -0.7198  0.2323
  468MOL0     C63051   6.950   6.165   7.222  0.0551 -0.3092  0.4351
  468MOL0     C63052   7.034   6.060   7.268 -0.3037 -0.7702  0.3295
  468MOL0     O63053   7.081   5.967   7.183 -0.3422  0.4373  0.9437
  468MOL0     C63054   7.149   6.000   7.056 -0.0479  0.3945  1.1144
  468MOL0     C63055   7.231   5.877   7.018 -0.2333 -0.3137 -0.0640
  468MOL0     C63056   7.326   5.811   7.126  0.0377 -0.0527  0.2399
  468MOL0     C63057   7.259   5.714   7.231  0.5997 -0.9298  1.2569
  468MOL0     C63058   7.374   5.623   7.268 -0.7896  0.4100  0.6620
  468MOL0     C63059   7.335   5.514   7.362  0.3001  0.4590  0.3444
  468MOL0     C63060   7.281   5.388   7.279 -0.4240 -0.5243 -0.0906
  468MOL0     C63061   7.235   5.287   7.366  0.1624 -0.0538 -0.1140
  468MOL0     N63062   7.193   5.160   7.293 -0.1564 -0.1872 -0.3054
  468MOL0     C63063   7.074   5.103   7.305 -0.1217  0.2114 -0.3121
  468MOL0     C63064   7.087   4.995   7.231  0.2728 -0.2448  0.8470
  468MOL0     C63065   6.977   4.890   7.223  0.8564 -0.1295  0.2795
  468MOL0     C63066   7.040   4.752   7.232 -0.5129  0.7181  0.8801
  468MOL0     C63067   6.926   4.640   7.244  0.9718  0.8309 -0.6973
  468MOL0     C63068   6.964   4.499   7.213 -0.0213  0.5533 -0.8237
  468MOL0     O63069   7.096   4.470   7.265 -0.0065 -0.4979  0.5813
  468MOL0     C63070   7.105   4.394   7.382 -0.2200  0.5282  0.1462
  468MOL0     C63071   7.169   4.430   7.493 -0.5774 -0.4751 -0.0253
  468MOL0     C63072   7.179   4.357   7.613 -0.0289  0.8638  0.1170
  468MOL0     C63073   7.247   4.415   7.735  0.9770 -0.1333  0.1972
  468MOL0     C63074   7.097   4.241   7.628  0.0920  0.2709  0.5505
  468MOL0     C63075   7.084   4.168   7.755  0.6138  0.7984 -0.3997
  468MOL0     O63076   6.961   4.106   7.776 -0.6686 -1.1038  0.2631
  468MOL0     C63077   6.947   4.024   7.887 -0.6845  0.3730 -0.5258
  468MOL0     C63078   6.891   3.900   7.860  1.1772  0.1294 -0.0197
  468MOL0     C63079   6.857   3.819   7.970 -0.2639 -0.7523 -0.3400
  468MOL0     C63080   6.870   3.859   8.101 -0.0447 -0.7156 -0.2305
  468MOL0     O63081   6.827   3.775   8.204 -0.2025  0.7500  0.3732
  468MOL0     C63082   6.861   3.814   8.339 -0.0439 -0.9814  0.0800
  468MOL0     C63083   6.850   3.685   8.419 -0.0832  0.3488  0.0357
  468MOL0     C63084   6.980   3.603   8.434 -0.9002  0.5605 -0.3637
  468MOL0     C63085   6.989   3.512   8.304  0.6451  0.4743 -0.7225
  468MOL0     C63086   7.089   3.403   8.328  0.6244  0.0738  0.1851
  468MOL0     C63087   7.230   3.444   8.380  0.2261  1.1016  1.0135
  468MOL0     C63088   7.308   3.321   8.438 -0.0645 -0.1471 -0.6860
  468MOL0     C63089   7.227   3.224   8.521  0.2484  0.9548 -0.1595
  468MOL0    Cl63090   7.151   3.102   8.411  0.2966 -0.1192 -0.3459
  468MOL0     C63091   6.915   3.984   8.125 -0.7582  0.4345 -0.7746
  468MOL0     C63092   6.960   4.064   8.021 -0.2448  0.4102  0.3279
  468MOL0     O63093   7.191   4.143   7.816 -0.6430 -0.0052  0.4285
  468MOL0     C63094   7.015   4.200   7.512 -0.3327  0.0249 -1.0829
  468MOL0     C63095   7.030   4.272   7.393 -0.1464 -0.1638  0.1671
  468MOL0     N63096   7.214   4.985   7.176  0.2181 -0.0440  0.4463
  468MOL0     N63097   7.279   5.085   7.231 -0.8455 -0.6825  0.2071
  468MOL0     C63098   7.077   6.064   7.400 -0.7970  0.2074 -0.0269
  468MOL0     C63099   7.043   6.160   7.490  0.3124  0.3505  0.1568
  468MOL0     C63100   6.966   6.577   7.651  0.7686 -0.6266  0.3121
  468MOL0     C63101   7.050   6.695   7.666  0.3318  0.2370 -0.6829
  468MOL0     C63102   7.038   6.780   7.772  0.1895 -0.1352 -0.8435
  468MOL0     C63103   6.959   6.754   7.888  0.2841  0.2902  0.9702
  468MOL0     O63104   6.974   6.852   7.973  0.6314  0.0680 -0.2777
  468MOL0     C63105   6.926   6.828   8.106 -0.1353  0.4676 -0.6503
  468MOL0     C63106   6.797   6.911   8.117  0.5212  0.6901  0.1576
  468MOL0     C63107   6.747   6.926   8.263 -0.6334  0.4313  0.2495
  468MOL0     C63108   6.756   6.807   8.358  1.2382  0.3032 -0.2565
  468MOL0     C63109   6.689   6.811   8.488  0.8544  0.8563 -0.1582
  468MOL0     C63110   6.637   6.786   8.591 -0.4906 -0.4950  0.6310
  468MOL0     C63111   6.876   6.638   7.881 -0.4300  0.2164 -0.4843
  468MOL0     C63112   6.881   6.552   7.768  0.2773  0.2256  0.3576
  468MOL0     H63113   6.831   6.337   7.282 -0.4359 -0.0346  2.6616
  468MOL0     H63114   6.913   6.168   7.120  2.6098  0.9518 -0.5374
  468MOL0     H63115   7.093   6.025   6.965  1.3082 -0.0153  0.1354
  468MOL0     H63116   7.216   6.084   7.078  0.1443  0.6788 -0.4524
  468MOL0     H63117   7.161   5.799   6.986  1.9433 -2.5367  0.2651
  468MOL0     H63118   7.293   5.902   6.931  0.4889  0.8089  0.7476
  468MOL0     H63119   7.406   5.763   7.069  0.1480  0.0492  0.3088
  468MOL0     H63120   7.399   5.879   7.170  1.5544 -1.6606  0.3614
  468MOL0     H63121   7.220   5.776   7.313  0.8477  0.4418  0.3653
  468MOL0     H63122   7.175   5.661   7.188  0.4762 -0.1263  0.4858
  468MOL0     H63123   7.425   5.589   7.178  1.5369 -3.0234  3.0160
  468MOL0     H63124   7.458   5.679   7.310 -0.1956 -0.7052  0.9933
  468MOL0     H63125   7.419   5.487   7.426 -2.7036 -1.2906  3.9620
  468MOL0     H63126   7.254   5.547   7.428  0.9988  0.2625  1.3192
  468MOL0     H63127   7.208   5.424   7.206 -1.0105  2.8372  1.9759
  468MOL0     H63128   7.363   5.360   7.212 -0.0069  1.9184 -0.6805
  468MOL0     H63129   7.144   5.314   7.421 -2.1078 -2.5742 -2.2907
  468MOL0     H63130   7.315   5.258   7.434 -1.4948 -2.2588  1.0296
  468MOL0     H63131   6.991   5.128   7.370 -0.5706 -2.8048  0.4019
  468MOL0     H63132   6.902   4.903   7.301 -2.0281 -2.6032 -1.8405
  468MOL0     H63133   6.928   4.892   7.125  3.8027 -1.0833 -1.3466
  468MOL0     H63134   7.122   4.746   7.304  2.0635 -3.1242 -1.9526
  468MOL0     H63135   7.101   4.733   7.143 -0.2814  0.0395  1.1760
  468MOL0     H63136   6.843   4.665   7.177  0.7257  3.1911  0.4139
  468MOL0     H63137   6.889   4.628   7.346  1.5710 -2.9893 -0.7684
  468MOL0     H63138   6.964   4.475   7.106 -0.8140 -0.8580 -0.5322
  468MOL0     H63139   6.887   4.435   7.257  0.0107  0.5673 -0.7486
  468MOL0     H63140   7.211   4.530   7.488 -1.1959 -0.1658  0.8075
  468MOL0     H63141   7.320   4.349   7.782  0.2234 -2.0869 -1.2491
  468MOL0     H63142   7.298   4.511   7.723  1.2316  0.2412  3.5236
  468MOL0     H63143   7.167   4.428   7.808  0.6751 -0.1666 -0.1223
  468MOL0     H63144   6.874   3.859   7.761  0.9702  1.9261 -0.7456
  468MOL0     H63145   6.820   3.717   7.959 -0.1307 -0.8886  0.4402
  468MOL0     H63146   6.960   3.855   8.363 -0.5534 -0.6189  1.6512
  468MOL0     H63147   6.789   3.890   8.370  1.3889  1.4243 -2.0574
  468MOL0     H63148   6.809   3.727   8.511 -1.6130  1.6682 -1.1942
  468MOL0     H63149   6.760   3.635   8.382 -0.5560 -0.6999  2.4186
  468MOL0     H63150   6.950   3.544   8.520  0.6428 -0.6212 -0.6022
  468MOL0     H63151   7.077   3.652   8.444  0.7724 -2.4283 -0.6862
  468MOL0     H63152   6.888   3.472   8.294 -1.1516  3.9739  1.2725
  468MOL0     H63153   7.007   3.574   8.216 -0.1198  0.7452 -0.7016
  468MOL0     H63154   7.105   3.331   8.247 -0.9421  0.3039 -0.3635
  468MOL0     H63155   7.038   3.350   8.410  0.9742 -2.4008 -1.0872
  468MOL0     H63156   7.284   3.482   8.293 -0.1199  1.1389  0.8150
  468MOL0     H63157   7.217   3.526   8.452 -2.7200  0.5561  1.2146
  468MOL0     H63158   7.383   3.360   8.507  2.0597 -0.6703 -2.5715
  468MOL0     H63159   7.369   3.275   8.360 -1.9787 -1.3573 -1.5611
  468MOL0     H63160   7.153   3.278   8.580  0.6909 -0.9295  2.2988
  468MOL0     H63161   7.295   3.169   8.588 -1.5043  1.5300  2.2249
  468MOL0     H63162   6.930   4.019   8.227 -0.9583 -2.5893  0.3746
  468MOL0     H63163   7.002   4.164   8.028  0.4298  0.4099 -2.4826
  468MOL0     H63164   6.940   4.122   7.520  0.1451 -0.2536  2.0239
  468MOL0     H63165   6.975   4.241   7.304  0.0042  0.2799 -0.0811
  468MOL0     H63166   7.149   5.990   7.434 -0.6069  0.7348  0.7382
  468MOL0     H63167   7.071   6.162   7.595  1.2766 -1.7218 -0.0079
  468MOL0     H63168   7.125   6.706   7.588 -0.2253 -2.0083 -1.6135
  468MOL0     H63169   7.099   6.869   7.757 -0.7769  0.0694 -4.5725
  468MOL0     H63170   6.902   6.724   8.128 -4.9965  1.2534 -0.9967
  468MOL0     H63171   6.997   6.873   8.176 -2.8133  5.7474 -0.7739
  468MOL0     H63172   6.725   6.872   8.044  1.0538  1.9855 -1.1029
  468MOL0     H63173   6.831   7.004   8.072  2.5525  0.2993  0.7726
  468MOL0     H63174   6.645   6.965   8.267 -0.9081 -0.3196  3.0885
  468MOL0     H63175   6.810   7.007   8.302 -1.2944  1.7446 -1.3012
  468MOL0     H63176   6.859   6.769   8.364  0.8526 -1.9873 -4.2361
  468MOL0     H63177   6.703   6.727   8.305 -0.5947 -0.2422  2.2516
  468MOL0     H63178   6.581   6.758   8.678 -2.4215  3.8121  1.0569
  468MOL0     H63179   6.812   6.608   7.963  0.7330 -1.2130 -0.0465
  468MOL0     H63180   6.833   6.456   7.783  1.8577 -0.6922 -0.3072
  469MOL0     O63181   7.879   8.734   4.236  0.0917  0.3296  0.2746
  469MOL0     C63182   7.944   8.787   4.154 -0.3392 -0.0854  0.1814
  469MOL0     O63183   8.003   8.909   4.162 -0.2298  0.5307 -0.5348
  469MOL0     C63184   7.987   8.991   4.272 -0.0931  0.5575 -0.9769
  469MOL0     C63185   8.104   9.030   4.335  0.2284 -0.2424 -0.2461
  469MOL0     C63186   8.099   9.118   4.448  0.5919  0.7594 -0.3727
  469MOL0     C63187   7.973   9.159   4.498  0.9350  0.3321  0.2172
  469MOL0     O63188   7.980   9.239   4.610 -0.7010 -0.0230  0.1231
  469MOL0     C63189   7.930   9.171   4.724 -0.0286  0.2349  0.0117
  469MOL0     C63190   8.052   9.129   4.809  0.4758  0.8308 -0.4786
  469MOL0     C63191   8.095   9.232   4.924  0.2656  0.5522  0.2238
  469MOL0     C63192   8.089   9.375   4.861 -0.5640  0.1879  0.1403
  469MOL0     C63193   8.130   9.481   4.957 -0.7318  0.4843  1.2602
  469MOL0     C63194   8.073   9.614   4.908  0.2357 -0.3124 -0.4195
  469MOL0     C63195   8.128   9.735   4.972 -0.5158  0.0886 -1.0332
  469MOL0     C63196   8.277   9.729   4.977 -0.5276  0.3738  0.5861
  469MOL0     N63197   8.342   9.837   5.041  0.4623 -0.2941  0.2985
  469MOL0     C63198   8.305   9.969   5.025  0.2263  0.3523  0.4633
  469MOL0     C63199   8.382  10.041   5.105 -0.5887  0.4780 -0.2245
  469MOL0     C63200   8.385  10.193   5.128  0.2486 -1.1497  0.4227
  469MOL0     C63201   8.519  10.237   5.183 -0.6597 -0.4540 -0.3426
  469MOL0     C63202   8.528  10.383   5.210  0.0567 -0.8475 -0.5860
  469MOL0     C63203   8.642  10.420   5.302 -0.3381 -0.7976 -0.9761
  469MOL0     O63204   8.598  10.534   5.382  1.1336 -0.0212  0.8625
  469MOL0     C63205   8.674  10.630   5.433 -0.5382 -0.1966  0.2338
  469MOL0     C63206   8.806  10.660   5.399 -0.9103  0.1813 -0.0460
  469MOL0     C63207   8.877  10.773   5.449 -0.5098  0.3121  0.0344
  469MOL0     C63208   9.018  10.804   5.392 -0.1993 -0.2936 -0.4224
  469MOL0     C63209   8.816  10.843   5.548 -0.1885 -0.3148  0.0283
  469MOL0     C63210   8.875  10.950   5.621  0.5067 -0.4022  0.4572
  469MOL0     O63211   8.845  10.946   5.757 -1.1130 -0.4184  0.0764
  469MOL0     C63212   8.863  11.068   5.825 -0.0259  0.5357  0.4454
  469MOL0     C63213   8.809  11.194   5.781  0.0310 -0.2634 -0.0253
  469MOL0     C63214   8.827  11.309   5.872  1.1828  0.0673  0.2602
  469MOL0     C63215   8.900  11.299   5.995 -0.5458 -0.1683 -0.3239
  469MOL0     O63216   8.925  11.411   6.072 -0.3206 -0.1591 -0.0613
  469MOL0     C63217   8.919  11.538   6.013  0.8712  0.1094  0.3550
  469MOL0     C63218   9.033  11.555   5.917 -0.0081  0.1125 -0.9808
  469MOL0     C63219   9.028  11.695   5.847 -0.5593 -0.4337 -0.5802
  469MOL0     C63220   9.164  11.719   5.779  1.6289  0.5700 -0.3098
  469MOL0     C63221   9.193  11.619   5.666  0.7878 -0.3365  0.2979
  469MOL0     C63222   9.085  11.589   5.553 -0.1257 -0.6485  0.2460
  469MOL0     C63223   9.041  11.439   5.541  0.3485 -0.2540 -0.6512
  469MOL0     C63224   9.159  11.350   5.496  0.2264 -0.5899 -1.4005
  469MOL0    Cl63225   9.223  11.389   5.339  0.1728  0.5121 -0.6006
  469MOL0     C63226   8.955  11.169   6.023 -1.3933 -0.1141  0.1741
  469MOL0     C63227   8.940  11.055   5.938 -0.0214 -0.3059  0.6226
  469MOL0     O63228   8.927  11.046   5.563  0.0228 -0.5900  0.5832
  469MOL0     C63229   8.681  10.815   5.582  0.8326  0.0435 -0.3464
  469MOL0     C63230   8.610  10.714   5.521 -0.0693 -0.4751 -0.0122
  469MOL0     N63231   8.463   9.945   5.183  0.0174  0.3159 -0.1616
  469MOL0     N63232   8.435   9.826   5.150  0.4930 -0.0206 -0.1461
  469MOL0     C63233   7.851   9.104   4.440  0.2666  0.6943 -0.1181
  469MOL0     C63234   7.858   9.024   4.322 -0.8607  0.6839 -0.1403
  469MOL0     C63235   7.970   8.724   4.032  0.0158  0.5303  1.0653
  469MOL0     C63236   8.069   8.775   3.940 -0.1824  0.4196 -0.0791
  469MOL0     C63237   8.104   8.704   3.829  0.6808  1.4670  0.3099
  469MOL0     C63238   8.036   8.587   3.793  0.2104 -0.7616 -0.1784
  469MOL0     O63239   8.091   8.522   3.685 -0.1351 -1.1276 -0.0414
  469MOL0     C63240   8.088   8.380   3.676 -0.4008  0.0015 -0.1027
  469MOL0     C63241   8.210   8.329   3.770  0.3897  0.0632  1.1921
  469MOL0     C63242   8.350   8.387   3.735  0.8251  0.0379  0.0941
  469MOL0     C63243   8.444   8.364   3.863  1.3394  1.1180  0.7700
  469MOL0     C63244   8.469   8.218   3.871 -0.7756  0.5481 -0.4756
  469MOL0     C63245   8.506   8.096   3.875 -0.6037  0.3076 -0.5667
  469MOL0     C63246   7.927   8.546   3.869 -0.3662  0.1057  0.2583
  469MOL0     C63247   7.895   8.619   3.980  0.7012  0.1145  0.1456
  469MOL0     H63248   8.190   8.986   4.286  1.1368 -0.7877  1.7414
  469MOL0     H63249   8.188   9.148   4.502  0.2309  2.4142 -0.6612
  469MOL0     H63250   7.861   9.237   4.777 -1.4556 -0.5295 -0.8332
  469MOL0     H63251   7.868   9.084   4.700 -1.6315  1.0146  1.0841
  469MOL0     H63252   8.032   9.028   4.847 -3.1613  1.7871  0.5361
  469MOL0     H63253   8.140   9.106   4.748  0.7004 -0.5738  0.3259
  469MOL0     H63254   8.031   9.215   5.011 -0.2867  0.9090 -0.1134
  469MOL0     H63255   8.199   9.210   4.952  0.2176 -2.6311 -1.5408
  469MOL0     H63256   8.145   9.390   4.769 -4.5530  3.9530 -2.0466
  469MOL0     H63257   7.984   9.402   4.844 -0.1571  3.1091  1.5003
  469MOL0     H63258   8.093   9.465   5.058 -1.1802 -0.0316  1.0131
  469MOL0     H63259   8.240   9.480   4.952 -0.7873 -0.1969 -0.3613
  469MOL0     H63260   8.104   9.624   4.803  0.8318  0.5158 -0.1635
  469MOL0     H63261   7.963   9.612   4.912  0.0728 -1.4955 -3.0587
  469MOL0     H63262   8.096   9.828   4.923 -2.0533  3.1356  4.7819
  469MOL0     H63263   8.098   9.761   5.074  4.1134  2.4290 -0.0022
  469MOL0     H63264   8.320   9.724   4.877  0.6887 -3.3474  1.1403
  469MOL0     H63265   8.311   9.644   5.037  2.0743  2.5993  2.5289
  469MOL0     H63266   8.240  10.012   4.950  0.0588  0.9831  0.9595
  469MOL0     H63267   8.362  10.259   5.044  0.6158  2.3551  2.8501
  469MOL0     H63268   8.307  10.208   5.204  1.9748 -1.9304  2.4574
  469MOL0     H63269   8.586  10.201   5.104 -2.5749 -0.9084 -1.8367
  469MOL0     H63270   8.550  10.199   5.281  1.1640  4.5161  1.2926
  469MOL0     H63271   8.436  10.414   5.260  0.1464 -1.8346  0.2259
  469MOL0     H63272   8.539  10.446   5.121 -0.3027 -0.1447 -0.1385
  469MOL0     H63273   8.726  10.454   5.240 -0.8777  2.2403 -0.1806
  469MOL0     H63274   8.680  10.339   5.364  0.2078  0.1471 -0.0510
  469MOL0     H63275   8.849  10.600   5.319 -1.6189 -2.3243  1.3301
  469MOL0     H63276   9.019  10.766   5.290 -2.1166 -1.1618 -0.1642
  469MOL0     H63277   9.031  10.912   5.405  0.3528 -0.4886  0.7264
  469MOL0     H63278   9.100  10.749   5.439  1.7942  3.6862  1.2124
  469MOL0     H63279   8.756  11.199   5.686  1.9392 -1.9647 -1.2765
  469MOL0     H63280   8.782  11.400   5.833 -0.0248 -0.7757 -0.3768
  469MOL0     H63281   8.829  11.560   5.955  1.1922  0.8618  0.1326
  469MOL0     H63282   8.915  11.613   6.093 -1.2141 -0.7424  1.1349
  469MOL0     H63283   9.130  11.549   5.968 -0.2892  1.0858 -0.2989
  469MOL0     H63284   9.043  11.469   5.850  1.0828 -1.5152  1.1583
  469MOL0     H63285   9.006  11.770   5.924  3.3515 -1.3930  1.7862
  469MOL0     H63286   8.960  11.702   5.762  0.3315  2.0272 -1.1736
  469MOL0     H63287   9.159  11.816   5.730  0.8386  0.0568 -1.2729
  469MOL0     H63288   9.242  11.708   5.855  2.8827 -2.4347 -1.8191
  469MOL0     H63289   9.224  11.527   5.717  2.4744  0.0331  0.0074
  469MOL0     H63290   9.281  11.653   5.611  1.5985  0.9485  2.2594
  469MOL0     H63291   9.000  11.658   5.557  0.1847 -0.0870 -1.8401
  469MOL0     H63292   9.128  11.615   5.456  1.2696 -0.2360  0.9510
  469MOL0     H63293   8.949  11.433   5.482 -1.7378  5.0499  1.4534
  469MOL0     H63294   9.005  11.399   5.636 -0.0799  2.4834  0.4364
  469MOL0     H63295   9.111  11.252   5.500 -2.1431  0.5247  0.9252
  469MOL0     H63296   9.233  11.356   5.576  0.3980  0.4849 -1.6133
  469MOL0     H63297   9.027  11.168   6.103  0.4178 -1.1422 -1.3842
  469MOL0     H63298   8.988  10.959   5.954 -0.8054 -0.7971  0.1322
  469MOL0     H63299   8.623  10.870   5.655 -2.0755 -2.7176 -0.3712
  469MOL0     H63300   8.505  10.693   5.542 -0.5144  0.7099 -0.9305
  469MOL0     H63301   7.754   9.124   4.485  0.8670  0.0212  1.5675
  469MOL0     H63302   7.765   8.981   4.284  0.2410 -2.7234  0.6620
  469MOL0     H63303   8.142   8.849   3.971  3.3820 -3.1855  1.0107
  469MOL0     H63304   8.189   8.719   3.764  1.5163  0.4819  1.1341
  469MOL0     H63305   7.995   8.343   3.718 -0.4624 -0.0388 -0.2771
  469MOL0     H63306   8.106   8.345   3.574  0.2929  3.0862 -1.1479
  469MOL0     H63307   8.215   8.219   3.769  0.7218  0.0782  0.3915
  469MOL0     H63308   8.182   8.361   3.870 -2.1853 -1.7764  1.1760
  469MOL0     H63309   8.334   8.494   3.718  1.2633  0.3266  1.3684
  469MOL0     H63310   8.380   8.333   3.645 -0.8878  1.0224 -1.1412
  469MOL0     H63311   8.405   8.410   3.954 -0.1328 -1.1681  1.3513
  469MOL0     H63312   8.546   8.403   3.851  1.9649 -0.9479 -1.3608
  469MOL0     H63313   8.527   7.995   3.848  1.5901  0.9959 -1.7073
  469MOL0     H63314   7.853   8.470   3.842 -2.2722  2.5493 -1.9115
  469MOL0     H63315   7.810   8.578   4.033 -0.6570  0.5253 -1.6073
  470MOL0     O63316   6.881   1.991   2.402  0.1487 -0.3502 -0.4497
  470MOL0     C63317   6.895   1.872   2.400 -0.1402  0.3216 -0.2730
  470MOL0     O63318   7.023   1.810   2.407 -0.1237  0.1999  0.4407
  470MOL0     C63319   7.118   1.900   2.435 -0.7879  0.3353 -1.0840
  470MOL0     C63320   7.222   1.939   2.348  0.3983 -1.0142 -0.2398
  470MOL0     C63321   7.306   2.056   2.377 -0.0946  0.0997  1.0172
  470MOL0     C63322   7.304   2.122   2.509  0.2757  0.5630 -0.1856
  470MOL0     O63323   7.379   2.229   2.536 -0.2053  0.1735 -0.5514
  470MOL0     C63324   7.421   2.314   2.426 -0.4463 -0.4487  0.1742
  470MOL0     C63325   7.584   2.311   2.420  0.4802 -0.1247  0.1310
  470MOL0     C63326   7.638   2.189   2.353 -0.1168 -0.4545  0.5996
  470MOL0     C63327   7.793   2.199   2.344  0.2320  0.9070 -0.3739
  470MOL0     C63328   7.854   2.069   2.323  0.5729 -0.5188  0.2365
  470MOL0     C63329   7.817   1.993   2.204  0.3576  0.3936 -0.3282
  470MOL0     C63330   7.937   1.902   2.176  0.1908 -0.2644  0.0163
  470MOL0     C63331   7.883   1.783   2.086  0.7224  0.5014 -0.2765
  470MOL0     N63332   7.873   1.811   1.945  0.4565 -0.1058  0.9633
  470MOL0     C63333   7.944   1.749   1.843 -0.6164 -0.0461  0.0847
  470MOL0     C63334   7.907   1.810   1.725  0.4878  0.3455 -0.1106
  470MOL0     C63335   7.961   1.783   1.588 -0.0110 -0.4078  0.2257
  470MOL0     C63336   7.889   1.664   1.516  0.3141  0.7268 -1.0731
  470MOL0     C63337   7.949   1.603   1.397  0.2948 -0.2181 -0.3787
  470MOL0     C63338   7.954   1.699   1.272 -0.4837  0.1581 -0.1946
  470MOL0     O63339   8.029   1.817   1.301 -0.5050  0.4258 -0.3480
  470MOL0     C63340   8.015   1.907   1.199  1.0149  0.4446  0.2922
  470MOL0     C63341   7.956   1.892   1.063  0.0914  0.3138 -1.0262
  470MOL0     C63342   7.931   2.006   0.978  0.5973  0.0624  0.1593
  470MOL0     C63343   7.860   1.982   0.852  0.9986  0.6637  0.1002
  470MOL0     C63344   7.969   2.132   1.028  0.0262  0.5651 -0.7260
  470MOL0     C63345   7.950   2.252   0.950  1.3949 -0.0054  0.2275
  470MOL0     O63346   8.010   2.256   0.829  0.5216 -0.8267  0.4035
  470MOL0     C63347   7.988   2.363   0.742  0.2581  0.4130 -0.3218
  470MOL0     C63348   8.072   2.366   0.628  0.2822  0.3007 -0.2139
  470MOL0     C63349   8.077   2.477   0.547 -0.0488  0.3239 -0.8504
  470MOL0     C63350   7.991   2.584   0.559 -0.5288  0.1566  0.0882
  470MOL0     O63351   8.012   2.698   0.474  0.2473  0.7401  0.7005
  470MOL0     C63352   7.936   2.820   0.494  0.2302 -0.0965  0.3438
  470MOL0     C63353   8.002   2.930   0.402 -0.1834 -0.6853  0.0893
  470MOL0     C63354   7.912   3.041   0.372 -0.1836 -0.2077 -0.8962
  470MOL0     C63355   7.980   3.175   0.344 -0.0239 -0.1784 -0.2320
  470MOL0     C63356   7.879   3.279   0.303 -0.4660  0.0452  0.5927
  470MOL0     C63357   7.863   3.293   0.146  0.2243  0.5374 -0.4070
  470MOL0     C63358   7.758   3.398   0.098 -0.5449  0.6204 -0.4576
  470MOL0     C63359   7.753   3.403  -0.052 -0.1027  0.5686 -0.3035
  470MOL0    Cl63360   7.689   3.239  -0.123 -0.1252  0.2894  0.1408
  470MOL0     C63361   7.890   2.567   0.658 -0.2637 -0.4365 -0.3391
  470MOL0     C63362   7.889   2.467   0.752 -0.1885  0.0145 -0.2746
  470MOL0     O63363   7.904   2.350   1.011  0.3590  0.3109 -0.1158
  470MOL0     C63364   8.023   2.146   1.156  0.1851  0.3941 -0.1412
  470MOL0     C63365   8.034   2.035   1.245 -0.5302  0.2725 -0.3519
  470MOL0     N63366   7.799   1.891   1.760  0.0910 -0.7965 -0.8741
  470MOL0     N63367   7.788   1.901   1.886 -0.0552  0.3523 -0.0048
  470MOL0     C63368   7.200   2.075   2.599 -0.1422 -0.1822 -0.3595
  470MOL0     C63369   7.116   1.966   2.566 -0.6443 -0.0084 -0.1481
  470MOL0     C63370   6.773   1.793   2.389  0.7865 -0.0544  0.7310
  470MOL0     C63371   6.774   1.668   2.323 -0.4402  0.0321 -0.5487
  470MOL0     C63372   6.665   1.603   2.282 -0.0411  0.1063  0.2901
  470MOL0     C63373   6.537   1.648   2.330 -0.0588  0.3648  0.7439
  470MOL0     O63374   6.412   1.587   2.291 -0.1789 -0.0390 -0.3199
  470MOL0     C63375   6.408   1.458   2.225  0.4231 -0.1917  0.2585
  470MOL0     C63376   6.445   1.458   2.078  0.8329  0.6552  0.0489
  470MOL0     C63377   6.339   1.510   1.992  0.0629  0.5443  0.0768
  470MOL0     C63378   6.366   1.491   1.845 -0.5005 -0.2854 -0.0961
  470MOL0     C63379   6.374   1.349   1.808 -0.6506  0.4104  0.1816
  470MOL0     C63380   6.383   1.225   1.804  0.0596 -1.0437 -0.3322
  470MOL0     C63381   6.532   1.777   2.390  0.3492  0.2497 -0.6573
  470MOL0     C63382   6.646   1.839   2.427  0.0477 -0.5588  0.4450
  470MOL0     H63383   7.247   1.876   2.263 -0.8042 -3.5922  1.2160
  470MOL0     H63384   7.372   2.097   2.302 -3.9180  0.3878 -2.5175
  470MOL0     H63385   7.383   2.294   2.325 -0.3818 -0.1848  0.0984
  470MOL0     H63386   7.398   2.419   2.443 -1.5859 -0.3253 -1.7825
  470MOL0     H63387   7.605   2.402   2.363 -4.2892  0.1394 -1.6308
  470MOL0     H63388   7.621   2.329   2.522  1.0428 -0.0925 -0.0746
  470MOL0     H63389   7.617   2.095   2.407 -1.1929 -1.9919 -2.2833
  470MOL0     H63390   7.596   2.178   2.253 -3.0089 -0.6549  1.7221
  470MOL0     H63391   7.827   2.279   2.277 -0.6423  0.5348 -1.2923
  470MOL0     H63392   7.821   2.234   2.443  3.1925  0.3620 -0.9062
  470MOL0     H63393   7.963   2.068   2.325  0.6355 -0.2793 -1.5805
  470MOL0     H63394   7.836   2.015   2.417 -1.5544 -0.6855 -0.2186
  470MOL0     H63395   7.718   1.949   2.223 -0.4793  1.7772 -1.2521
  470MOL0     H63396   7.816   2.055   2.114 -2.2358 -0.1871 -0.7915
  470MOL0     H63397   8.019   1.957   2.128  2.4704 -3.1335  0.3931
  470MOL0     H63398   7.981   1.852   2.262  0.6084 -1.0103 -0.6199
  470MOL0     H63399   7.781   1.751   2.112  1.5348 -2.4350 -0.2592
  470MOL0     H63400   7.946   1.694   2.099  2.6294  2.0110  1.1921
  470MOL0     H63401   8.033   1.688   1.853 -0.7830  0.0522  2.9805
  470MOL0     H63402   7.962   1.878   1.533  1.8045 -1.1480 -1.1112
  470MOL0     H63403   8.065   1.752   1.598 -1.1372 -4.4758  1.1627
  470MOL0     H63404   7.787   1.695   1.495  0.3975 -0.1545 -2.9710
  470MOL0     H63405   7.887   1.594   1.600 -1.7491 -0.3271 -1.9430
  470MOL0     H63406   7.884   1.521   1.365 -0.1644 -1.3110  2.9189
  470MOL0     H63407   8.045   1.562   1.431  0.7278 -0.8427 -2.2494
  470MOL0     H63408   7.850   1.722   1.245  1.0994  5.7714 -3.1105
  470MOL0     H63409   8.003   1.644   1.192 -0.2673  0.1561 -0.0593
  470MOL0     H63410   7.914   1.798   1.031  3.9946 -2.2655  0.6629
  470MOL0     H63411   7.884   1.889   0.800 -1.1643  0.1652 -0.1258
  470MOL0     H63412   7.755   1.969   0.879  1.4087 -2.3578  0.5833
  470MOL0     H63413   7.870   2.062   0.778  2.2410  1.1980  0.8268
  470MOL0     H63414   8.135   2.279   0.612 -1.3986 -1.0056 -0.0189
  470MOL0     H63415   8.160   2.475   0.477 -0.4385 -1.3859 -1.3021
  470MOL0     H63416   7.828   2.820   0.479 -0.8585 -1.6356  5.9473
  470MOL0     H63417   7.928   2.845   0.600  1.8730 -0.9417  0.6955
  470MOL0     H63418   8.087   2.969   0.459 -0.2969  2.0819 -1.4701
  470MOL0     H63419   8.035   2.885   0.307  0.4334 -0.7791  0.3448
  470MOL0     H63420   7.852   3.050   0.462  0.7104  2.7936 -0.4924
  470MOL0     H63421   7.848   3.027   0.284  3.5018 -2.4097 -3.5819
  470MOL0     H63422   8.024   3.216   0.435 -0.4484  0.4646 -0.3117
  470MOL0     H63423   8.062   3.155   0.274  1.2821  1.6337  0.7082
  470MOL0     H63424   7.922   3.373   0.339 -0.2470 -0.7619  2.5481
  470MOL0     H63425   7.790   3.259   0.363  2.7336 -2.7088  4.9751
  470MOL0     H63426   7.952   3.324   0.090 -0.2208 -0.6529 -1.8457
  470MOL0     H63427   7.829   3.199   0.102 -0.9573 -0.0851  1.7280
  470MOL0     H63428   7.779   3.499   0.133 -2.5746  0.4724  1.3899
  470MOL0     H63429   7.656   3.374   0.131 -1.2881 -0.5755 -3.2954
  470MOL0     H63430   7.852   3.415  -0.096  0.2421  1.3444  0.6346
  470MOL0     H63431   7.689   3.487  -0.082 -0.0293  0.0338 -2.0853
  470MOL0     H63432   7.815   2.646   0.668 -0.9885 -1.3715  2.8503
  470MOL0     H63433   7.811   2.470   0.828 -0.9994  1.1460 -1.1073
  470MOL0     H63434   8.035   2.244   1.201  1.2550  0.2111  0.0059
  470MOL0     H63435   8.047   2.061   1.350 -3.7244  1.2860 -0.1145
  470MOL0     H63436   7.197   2.118   2.699  1.6546 -1.1932  0.1755
  470MOL0     H63437   7.042   1.937   2.640  0.1045  1.1193  1.0882
  470MOL0     H63438   6.868   1.627   2.288  0.1062  1.0795 -0.3530
  470MOL0     H63439   6.681   1.510   2.229 -2.6199  0.8311 -2.0328
  470MOL0     H63440   6.486   1.400   2.274  3.0587  1.1539 -2.0502
  470MOL0     H63441   6.306   1.420   2.242  0.4191  0.7587  2.8636
  470MOL0     H63442   6.466   1.355   2.048 -0.5259  0.7959 -1.5325
  470MOL0     H63443   6.538   1.515   2.074  0.1978  1.8719  1.6345
  470MOL0     H63444   6.331   1.612   2.031 -2.5907 -0.7285  3.3213
  470MOL0     H63445   6.240   1.466   2.007  0.2273  0.1141 -0.0593
  470MOL0     H63446   6.462   1.537   1.822 -0.4822  1.3297  2.6956
  470MOL0     H63447   6.295   1.547   1.785  2.3178  1.4512 -2.0373
  470MOL0     H63448   6.396   1.122   1.777  3.1337 -0.5004 -1.2281
  470MOL0     H63449   6.430   1.808   2.409 -0.5440 -0.7458 -3.3517
  470MOL0     H63450   6.638   1.938   2.470  1.9898 -0.7295  1.2833
  471MOL0     O63451   3.767   7.373  11.150 -0.5116 -0.4564 -0.0187
  471MOL0     C63452   3.716   7.313  11.047 -0.3425 -0.0764 -0.8309
  471MOL0     O63453   3.582   7.304  11.025  0.1531 -0.1769  0.1417
  471MOL0     C63454   3.507   7.358  11.128 -0.3220  0.1430  0.1004
  471MOL0     C63455   3.452   7.272  11.220 -0.4531  0.2471 -0.0405
  471MOL0     C63456   3.393   7.314  11.343  0.4867 -0.8265 -0.0913
  471MOL0     C63457   3.391   7.448  11.366 -0.3769 -0.2207  0.4226
  471MOL0     O63458   3.323   7.505  11.473 -0.6882 -0.3503 -0.3336
  471MOL0     C63459   3.226   7.426  11.539 -0.0794 -0.2978 -0.1840
  471MOL0     C63460   3.173   7.504  11.657 -0.2582 -0.3390 -0.1933
  471MOL0     C63461   3.073   7.612  11.618 -0.2122 -0.0318  0.6198
  471MOL0     C63462   2.938   7.574  11.559 -0.5910 -0.4104  0.5951
  471MOL0     C63463   2.825   7.558  11.654  0.0956 -0.5814 -0.3000
  471MOL0     C63464   2.681   7.564  11.604  0.3656  0.2198  0.0403
  471MOL0     C63465   2.649   7.453  11.508  0.4634  0.4980  0.7563
  471MOL0     C63466   2.522   7.488  11.428 -0.2682  0.2294 -0.3510
  471MOL0     N63467   2.498   7.392  11.323  0.2105 -0.3056 -0.2766
  471MOL0     C63468   2.396   7.301  11.321  0.8836  1.2612 -0.5060
  471MOL0     C63469   2.404   7.241  11.202 -0.0019  0.2488 -1.1511
  471MOL0     C63470   2.313   7.124  11.171 -0.6381 -0.9450  0.3980
  471MOL0     C63471   2.238   7.153  11.038 -0.3957  0.1682  0.0012
  471MOL0     C63472   2.132   7.257  11.022  0.6983 -0.1429 -0.4477
  471MOL0     C63473   1.999   7.225  11.075  0.8868 -0.0653 -1.7590
  471MOL0     O63474   1.908   7.332  11.100 -0.2149  0.2080 -0.3601
  471MOL0     C63475   1.790   7.310  11.158  0.0525 -0.6351 -0.3346
  471MOL0     C63476   1.688   7.395  11.131  0.1188  0.3381 -0.9715
  471MOL0     C63477   1.554   7.386  11.171  0.5249 -0.6015  0.7456
  471MOL0     C63478   1.454   7.487  11.107 -0.2309  0.1581  0.5420
  471MOL0     C63479   1.517   7.267  11.239 -0.1652 -0.4410  1.0635
  471MOL0     C63480   1.377   7.242  11.273 -0.0689  0.6834 -0.2520
  471MOL0     O63481   1.361   7.120  11.338 -0.7990  0.1888  0.0576
  471MOL0     C63482   1.241   7.076  11.368  1.0991  0.1268  0.5586
  471MOL0     C63483   1.184   6.973  11.291 -0.0811  0.5795 -0.0673
  471MOL0     C63484   1.060   6.918  11.316  0.0045 -1.2099  0.9267
  471MOL0     C63485   0.977   6.983  11.405  0.2639  0.0397  0.0192
  471MOL0     O63486   0.853   6.952  11.432 -0.4304 -0.3945 -0.3610
  471MOL0     C63487   0.812   6.817  11.463  0.5257 -0.0270 -0.0360
  471MOL0     C63488   0.855   6.775  11.611  0.3043 -0.0354 -0.6918
  471MOL0     C63489   0.734   6.725  11.674 -0.4061  0.7666 -0.1459
  471MOL0     C63490   0.780   6.652  11.815  0.3495  0.3881 -0.2156
  471MOL0     C63491   0.663   6.578  11.883  0.6189  0.7367  0.4324
  471MOL0     C63492   0.532   6.673  11.882 -0.2355  0.3530  0.0857
  471MOL0     C63493   0.408   6.616  11.964  1.1313 -0.0341  0.3769
  471MOL0     C63494   0.341   6.508  11.885  0.6559  0.1301  0.1642
  471MOL0    Cl63495   0.171   6.504  11.953 -0.2261  0.2955 -0.0005
  471MOL0     C63496   1.022   7.100  11.478 -0.1274  0.4866  1.0170
  471MOL0     C63497   1.158   7.143  11.464  0.7003  0.4114 -0.3464
  471MOL0     O63498   1.289   7.324  11.256  0.0093 -0.1979 -0.9518
  471MOL0     C63499   1.625   7.174  11.282 -0.3557  0.0134 -0.2569
  471MOL0     C63500   1.756   7.194  11.241  0.1001 -0.1743 -0.3619
  471MOL0     N63501   2.521   7.281  11.147 -0.2980  0.2396  0.9881
  471MOL0     N63502   2.574   7.373  11.218  0.0569 -0.4948  0.7093
  471MOL0     C63503   3.432   7.537  11.269 -0.3310 -0.0750 -0.5129
  471MOL0     C63504   3.490   7.496  11.150 -0.4384 -0.2091 -0.4113
  471MOL0     C63505   3.822   7.257  10.948  0.5102 -0.6735 -0.7027
  471MOL0     C63506   3.965   7.251  10.971 -0.0578 -0.1887 -0.5337
  471MOL0     C63507   4.047   7.166  10.891  0.6014  0.1402 -0.4846
  471MOL0     C63508   3.989   7.102  10.782  0.6789 -0.1292 -0.0433
  471MOL0     O63509   4.053   7.033  10.685  0.3114  0.0731 -0.3460
  471MOL0     C63510   4.187   6.974  10.709  0.3933 -0.2432  0.1013
  471MOL0     C63511   4.193   6.845  10.632 -0.4362  0.3163  0.1708
  471MOL0     C63512   4.225   6.867  10.480 -0.2780 -0.7054 -0.1735
  471MOL0     C63513   4.300   6.762  10.412 -0.4634  0.0793  0.6223
  471MOL0     C63514   4.204   6.646  10.406  0.7826  0.0948 -0.2572
  471MOL0     C63515   4.122   6.555  10.408 -0.2239  0.5727  0.2544
  471MOL0     C63516   3.854   7.112  10.761 -0.3061  0.4778 -0.2220
  471MOL0     C63517   3.764   7.187  10.837  0.0598 -0.3888 -0.3476
  471MOL0     H63518   3.469   7.165  11.217  1.1941  0.4237  1.2448
  471MOL0     H63519   3.383   7.251  11.431  2.1357  0.3918  1.0533
  471MOL0     H63520   3.145   7.402  11.469 -0.9710  1.8542  0.0038
  471MOL0     H63521   3.260   7.330  11.576 -1.8413 -1.2723 -0.9554
  471MOL0     H63522   3.123   7.436  11.727 -2.0665  2.7959  1.8355
  471MOL0     H63523   3.254   7.554  11.710  0.2174  2.7172 -3.4561
  471MOL0     H63524   3.054   7.685  11.698 -3.8548 -0.5871  0.3899
  471MOL0     H63525   3.126   7.664  11.538  2.2323 -1.8653  0.9205
  471MOL0     H63526   2.904   7.654  11.493 -0.0974 -1.8127 -1.4558
  471MOL0     H63527   2.957   7.479  11.509  1.4340  0.3021 -0.0530
  471MOL0     H63528   2.852   7.461  11.697  1.8361 -0.4289 -0.9711
  471MOL0     H63529   2.835   7.637  11.729  4.0131 -1.2006  0.0332
  471MOL0     H63530   2.614   7.551  11.690 -0.6389 -1.7539 -0.9598
  471MOL0     H63531   2.667   7.667  11.570  1.4448  1.4199  2.9418
  471MOL0     H63532   2.730   7.450  11.435  0.5524 -3.3739  0.8004
  471MOL0     H63533   2.631   7.358  11.561  0.1881  0.3427  0.3895
  471MOL0     H63534   2.539   7.580  11.371 -0.1743 -0.6266 -1.7398
  471MOL0     H63535   2.435   7.502  11.494  1.1446  2.4057  1.1886
  471MOL0     H63536   2.318   7.296  11.395 -1.2849 -1.2205 -2.7854
  471MOL0     H63537   2.379   7.037  11.177  1.0059  0.1585 -0.9362
  471MOL0     H63538   2.242   7.110  11.254 -2.3886  0.9586 -0.6935
  471MOL0     H63539   2.200   7.057  11.002 -2.4644  1.4232 -1.3918
  471MOL0     H63540   2.307   7.181  10.959 -2.0302 -0.5096 -1.7443
  471MOL0     H63541   2.107   7.260  10.916  0.4684 -2.0914 -0.4798
  471MOL0     H63542   2.176   7.349  11.063  0.2102 -0.5939  1.1443
  471MOL0     H63543   2.025   7.166  11.163  0.3768  0.8647 -0.9589
  471MOL0     H63544   1.937   7.157  11.016  0.2050  0.2498 -1.4137
  471MOL0     H63545   1.729   7.480  11.079  3.0047  0.5535  1.4098
  471MOL0     H63546   1.397   7.547  11.179 -1.4610  1.2031 -1.2286
  471MOL0     H63547   1.508   7.558  11.043 -1.2817  0.6945  0.2393
  471MOL0     H63548   1.378   7.433  11.051 -0.2224 -0.0071  0.6897
  471MOL0     H63549   1.247   6.919  11.220  0.1425  1.4983 -0.5936
  471MOL0     H63550   1.024   6.834  11.257  3.0248 -0.8901 -1.6142
  471MOL0     H63551   0.702   6.819  11.457  0.5852 -0.5645 -1.8577
  471MOL0     H63552   0.844   6.743  11.389  1.4239  0.0713  0.2475
  471MOL0     H63553   0.927   6.693  11.620 -1.0566 -1.0310  3.0625
  471MOL0     H63554   0.895   6.860  11.668  2.9099 -1.9484  0.5853
  471MOL0     H63555   0.675   6.659  11.611  2.1178 -1.8393  0.0186
  471MOL0     H63556   0.686   6.822  11.695  2.4190  2.4707 -1.0587
  471MOL0     H63557   0.868   6.587  11.810 -1.2521 -2.6457  4.1441
  471MOL0     H63558   0.805   6.733  11.884  0.7984  1.3445 -1.4531
  471MOL0     H63559   0.692   6.561  11.987 -1.5690  1.5542  1.2287
  471MOL0     H63560   0.657   6.487  11.822  3.1871  1.2280 -0.6737
  471MOL0     H63561   0.560   6.756  11.948 -1.2708 -0.1125  1.1479
  471MOL0     H63562   0.501   6.702  11.781 -1.8453 -1.2920  0.0633
  471MOL0     H63563   0.338   6.699  11.972 -2.2059 -2.6355  0.1738
  471MOL0     H63564   0.441   6.581  12.062  1.4068 -1.6510 -0.2517
  471MOL0     H63565   0.393   6.411  11.886 -2.0945 -1.4769 -0.7153
  471MOL0     H63566   0.323   6.545  11.784 -3.0367  2.5270  1.5028
  471MOL0     H63567   0.964   7.152  11.555 -0.2691  2.8077 -0.5361
  471MOL0     H63568   1.201   7.220  11.528 -1.8579  1.6250  0.0086
  471MOL0     H63569   1.600   7.087  11.342  1.1072  0.5347  1.1676
  471MOL0     H63570   1.829   7.115  11.255 -0.1364 -0.1610  1.1706
  471MOL0     H63571   3.430   7.644  11.287  0.4733  0.0514 -1.0864
  471MOL0     H63572   3.532   7.565  11.078 -0.0830 -0.3773 -0.3642
  471MOL0     H63573   3.991   7.295  11.067 -4.3843 -0.3633  0.9727
  471MOL0     H63574   4.152   7.164  10.919  0.4472 -1.6166  0.0585
  471MOL0     H63575   4.256   7.053  10.678 -2.1288  1.1960 -2.2503
  471MOL0     H63576   4.226   6.939  10.804  1.8941 -1.9703 -1.0938
  471MOL0     H63577   4.100   6.790  10.650  2.2673 -4.4096  1.5735
  471MOL0     H63578   4.281   6.794  10.675  0.9603  2.2283 -0.3140
  471MOL0     H63579   4.283   6.957  10.462 -0.9852 -0.3308 -0.6247
  471MOL0     H63580   4.129   6.896  10.436 -0.0107 -0.6187 -0.7097
  471MOL0     H63581   4.389   6.739  10.471  0.5062 -3.8660 -1.9590
  471MOL0     H63582   4.324   6.794  10.310  2.5347 -1.8391  0.5998
  471MOL0     H63583   4.041   6.486  10.404 -1.0198  1.5490 -1.0877
  471MOL0     H63584   3.797   7.064  10.683 -2.4658  1.2019  0.8214
  471MOL0     H63585   3.658   7.201  10.815  0.3499  2.4359 -0.3354
  472MOL0     O63586   0.164   0.196  10.768  0.2527  0.5235  0.6938
  472MOL0     C63587   0.076   0.242  10.693  0.1943 -0.6328 -0.5856
  472MOL0     O63588   0.047   0.373  10.683  0.7005 -0.0674  0.8290
  472MOL0     C63589   0.115   0.474  10.747  1.0771 -0.2783  0.4945
  472MOL0     C63590   0.044   0.599  10.737  0.4293  0.4150 -0.3504
  472MOL0     C63591   0.087   0.709  10.816  0.3024  0.0521 -0.6412
  472MOL0     C63592   0.197   0.706  10.908  0.2529  0.4265  0.1658
  472MOL0     O63593   0.225   0.812  10.996  0.3901 -0.3426 -0.5870
  472MOL0     C63594   0.157   0.944  10.977  0.1484  0.4566 -0.3689
  472MOL0     C63595   0.184   1.039  10.854 -0.6912  0.9760  0.4496
  472MOL0     C63596   0.323   1.079  10.838 -0.8580  0.5617 -0.1336
  472MOL0     C63597   0.350   1.216  10.771 -0.2470 -0.1063 -0.6147
  472MOL0     C63598   0.367   1.200  10.617 -0.0389 -0.6146 -0.0591
  472MOL0     C63599   0.374   1.332  10.549  0.7929 -0.3072  0.0148
  472MOL0     C63600   0.358   1.341  10.396 -0.3028 -0.0042 -1.1883
  472MOL0     C63601   0.492   1.341  10.314 -0.0141  0.4671  0.0316
  472MOL0     N63602   0.559   1.479  10.311  0.2501 -0.0742 -0.0161
  472MOL0     C63603   0.696   1.496  10.334 -0.0404  0.3118 -0.4888
  472MOL0     C63604   0.721   1.626  10.329  0.3258 -1.0184  0.2825
  472MOL0     C63605   0.859   1.696  10.344  0.2336  0.7050 -0.2291
  472MOL0     C63606   0.942   1.700  10.214  0.5468  0.2202  0.1603
  472MOL0     C63607   1.090   1.723  10.238  0.7896 -0.3571  0.4869
  472MOL0     C63608   1.176   1.733  10.109 -0.2887  0.3525  0.1375
  472MOL0     O63609   1.156   1.617  10.025 -0.7991 -0.1237 -0.2058
  472MOL0     C63610   1.247   1.587   9.918  0.3933  0.1302  0.1105
  472MOL0     C63611   1.256   1.452   9.875 -0.7755  0.0372 -0.2762
  472MOL0     C63612   1.319   1.422   9.755  0.2562 -0.3199 -0.2386
  472MOL0     C63613   1.318   1.278   9.718  0.5706 -0.1642  1.1693
  472MOL0     C63614   1.411   1.522   9.705  1.1790  0.0856  0.1775
  472MOL0     C63615   1.499   1.486   9.590 -0.4196  0.1880 -0.4011
  472MOL0     O63616   1.626   1.538   9.595 -0.8384  0.4630 -0.1180
  472MOL0     C63617   1.718   1.528   9.498  0.7393 -0.3989  0.4731
  472MOL0     C63618   1.699   1.483   9.366 -0.3103 -0.8861  0.1884
  472MOL0     C63619   1.805   1.461   9.268 -0.3518 -0.7161 -0.7615
  472MOL0     C63620   1.937   1.486   9.306 -0.3216 -0.6745  0.7755
  472MOL0     O63621   2.030   1.461   9.211  0.5479 -0.0541 -0.4077
  472MOL0     C63622   2.160   1.509   9.267  1.0878  0.6768  1.1895
  472MOL0     C63623   2.272   1.465   9.167  0.2874  0.7203  0.0104
  472MOL0     C63624   2.267   1.312   9.145 -0.5104 -0.2008  0.7525
  472MOL0     C63625   2.334   1.265   9.014 -0.4406  0.5335  0.3979
  472MOL0     C63626   2.322   1.112   9.008  0.2588 -0.0968  0.4531
  472MOL0     C63627   2.437   1.050   8.924  0.3336 -0.8119  0.0285
  472MOL0     C63628   2.428   0.906   8.895  0.6936  0.1024 -0.2733
  472MOL0     C63629   2.546   0.850   8.822 -0.5621 -0.9440  0.2651
  472MOL0    Cl63630   2.711   0.850   8.907  0.6115 -0.0129  0.2430
  472MOL0     C63631   1.962   1.544   9.440 -0.3106 -1.1610 -0.6430
  472MOL0     C63632   1.854   1.550   9.529 -0.6863  0.3649 -0.2192
  472MOL0     O63633   1.442   1.434   9.493 -0.1094  0.6978  0.2678
  472MOL0     C63634   1.418   1.657   9.754  0.3991 -0.3933  0.8120
  472MOL0     C63635   1.329   1.689   9.857 -1.2177  0.4736 -0.3192
  472MOL0     N63636   0.603   1.688  10.290  0.1205 -0.3417 -0.4916
  472MOL0     N63637   0.501   1.599  10.280  0.3906 -0.5406  0.0561
  472MOL0     C63638   0.268   0.588  10.902 -0.8541 -0.4612 -0.1982
  472MOL0     C63639   0.232   0.474  10.825  0.1969 -0.0778  0.1440
  472MOL0     C63640  -0.020   0.146  10.644 -0.1157 -0.6013 -0.2589
  472MOL0     C63641  -0.025   0.005  10.687 -0.1349  0.2677 -0.0081
  472MOL0     C63642  -0.130  -0.071  10.633  1.1084  0.0065  0.1047
  472MOL0     C63643  -0.229  -0.031  10.545 -0.3781  0.3805 -0.6199
  472MOL0     O63644  -0.315  -0.132  10.513 -0.3050 -0.4825 -0.3221
  472MOL0     C63645  -0.388  -0.123  10.396 -0.2261  1.2234 -0.9820
  472MOL0     C63646  -0.293  -0.188  10.293 -0.0487 -0.4682 -0.2419
  472MOL0     C63647  -0.356  -0.182  10.149 -0.1940  0.8089 -0.8544
  472MOL0     C63648  -0.279  -0.246  10.046 -0.0977 -0.7663  0.1612
  472MOL0     C63649  -0.251  -0.393  10.077  0.1480 -0.0178 -0.2321
  472MOL0     C63650  -0.223  -0.511  10.088  0.4315 -0.0175  0.0793
  472MOL0     C63651  -0.226   0.105  10.513  0.2210 -0.1626  0.3507
  472MOL0     C63652  -0.126   0.194  10.562 -0.0301  0.9263 -0.9142
  472MOL0     H63653  -0.031   0.611  10.660 -0.6461 -1.2637  0.3844
  472MOL0     H63654   0.025   0.798  10.808 -0.4255 -0.4357 -0.6046
  472MOL0     H63655   0.050   0.919  10.980  0.4202 -1.1632 -2.4228
  472MOL0     H63656   0.173   0.998  11.071 -2.0880 -1.9867  1.5958
  472MOL0     H63657   0.157   0.995  10.757 -0.0248  1.2005  0.1518
  472MOL0     H63658   0.127   1.129  10.879 -0.2097  0.6579  2.9779
  472MOL0     H63659   0.362   1.087  10.941 -1.8200  2.4430  0.1280
  472MOL0     H63660   0.383   1.009  10.780 -1.5466 -0.3743  0.2633
  472MOL0     H63661   0.268   1.286  10.786  0.7461  1.7957 -3.2712
  472MOL0     H63662   0.438   1.266  10.812  0.0436 -0.5139 -0.7216
  472MOL0     H63663   0.453   1.137  10.592  1.5009  1.1430  0.5589
  472MOL0     H63664   0.277   1.152  10.577  0.2994 -0.2268 -1.3138
  472MOL0     H63665   0.289   1.393  10.581  2.9031  2.6828  0.2539
  472MOL0     H63666   0.454   1.396  10.587 -0.0185  0.1287  1.0531
  472MOL0     H63667   0.320   1.242  10.368 -0.2327 -0.3004 -0.2777
  472MOL0     H63668   0.292   1.420  10.360 -1.3537 -1.0133 -1.5440
  472MOL0     H63669   0.482   1.302  10.213  0.4101  0.3560  0.0264
  472MOL0     H63670   0.568   1.280  10.364  0.8563  1.7662  0.3505
  472MOL0     H63671   0.760   1.414  10.365 -2.4572 -1.1886  0.8123
  472MOL0     H63672   0.847   1.793  10.394 -2.5590  0.7135 -0.7542
  472MOL0     H63673   0.919   1.634  10.411  0.4290  2.8227  1.6661
  472MOL0     H63674   0.911   1.782  10.148 -1.1921 -0.2205  0.3840
  472MOL0     H63675   0.935   1.605  10.161  1.9117 -0.7202  1.5976
  472MOL0     H63676   1.119   1.635  10.296 -1.0472 -1.8321 -0.7130
  472MOL0     H63677   1.087   1.824  10.279  1.0462 -0.6593  1.2594
  472MOL0     H63678   1.281   1.749  10.134 -0.0803  0.8114 -0.9731
  472MOL0     H63679   1.154   1.820  10.045 -2.1527  1.2736  1.9002
  472MOL0     H63680   1.193   1.379   9.925 -2.1688  0.2340 -1.6735
  472MOL0     H63681   1.230   1.215   9.738 -2.9054  2.9424 -2.5139
  472MOL0     H63682   1.324   1.270   9.609  0.6983 -0.0469  1.1681
  472MOL0     H63683   1.415   1.240   9.750  0.5443  0.1698  1.6547
  472MOL0     H63684   1.600   1.481   9.322 -1.5804 -1.9027  2.8835
  472MOL0     H63685   1.793   1.446   9.161 -0.9694  0.4232 -0.8627
  472MOL0     H63686   2.149   1.618   9.274 -0.6063  0.6888 -0.5968
  472MOL0     H63687   2.179   1.456   9.360  0.6596  0.4869  1.1705
  472MOL0     H63688   2.271   1.515   9.070  2.8341  0.2228 -0.3540
  472MOL0     H63689   2.368   1.488   9.214  0.5413 -1.7575  0.8856
  472MOL0     H63690   2.162   1.281   9.141 -0.5239 -0.3200 -4.5249
  472MOL0     H63691   2.321   1.270   9.231  1.5323 -1.0644 -0.8629
  472MOL0     H63692   2.299   1.318   8.925  0.4683  0.7865  0.1743
  472MOL0     H63693   2.437   1.301   9.018  0.3792 -1.7403  1.5115
  472MOL0     H63694   2.226   1.092   8.960  0.1328  1.4609  0.0003
  472MOL0     H63695   2.323   1.077   9.111  0.2353  1.0275  0.8472
  472MOL0     H63696   2.431   1.097   8.825  0.3384 -0.7502  0.0576
  472MOL0     H63697   2.535   1.070   8.967  0.1588  1.2041 -0.4445
  472MOL0     H63698   2.351   0.887   8.819 -0.3840  1.3319  0.4703
  472MOL0     H63699   2.395   0.863   8.990 -0.9137  0.8992 -0.4269
  472MOL0     H63700   2.580   0.916   8.741  5.2337  1.4065  3.9590
  472MOL0     H63701   2.524   0.749   8.787 -0.6525 -0.9985  0.4783
  472MOL0     H63702   2.057   1.566   9.488 -0.3111 -0.3468 -0.9906
  472MOL0     H63703   1.885   1.580   9.629 -0.4538 -1.1006  0.1778
  472MOL0     H63704   1.492   1.729   9.720 -0.2152 -0.0763  0.0937
  472MOL0     H63705   1.324   1.791   9.895 -3.4495 -0.0955  1.0704
  472MOL0     H63706   0.362   0.588  10.957 -0.3164 -3.0737 -0.9926
  472MOL0     H63707   0.291   0.383  10.832 -1.4302 -1.1516  0.6207
  472MOL0     H63708   0.056  -0.050  10.732 -0.9898 -3.2963 -2.4086
  472MOL0     H63709  -0.141  -0.177  10.652  1.2042  0.3701  2.5686
  472MOL0     H63710  -0.479  -0.183  10.399  1.5361 -1.5565 -0.0050
  472MOL0     H63711  -0.417  -0.024  10.358 -1.7054  1.7599  1.3318
  472MOL0     H63712  -0.269  -0.292  10.317  0.5374 -0.1222  0.7494
  472MOL0     H63713  -0.198  -0.134  10.303 -0.2678 -0.3121  1.4521
  472MOL0     H63714  -0.396  -0.084  10.122 -0.6434  0.7068 -0.5761
  472MOL0     H63715  -0.449  -0.239  10.161 -0.2823  1.1506  0.1667
  472MOL0     H63716  -0.181  -0.197  10.044 -0.2519 -0.4233  0.8125
  472MOL0     H63717  -0.331  -0.235   9.950 -1.7077  0.0245  1.0828
  472MOL0     H63718  -0.209  -0.614  10.112 -0.6207 -0.2643 -0.3302
  472MOL0     H63719  -0.297   0.146  10.443 -0.3539  0.3414  1.2128
  472MOL0     H63720  -0.148   0.296  10.533  0.9420  1.9602  1.7144
  473MOL0     O63721  11.334   7.019   6.392  0.6861  0.2666 -0.3891
  473MOL0     C63722  11.421   7.068   6.323  0.6015  0.6903  0.7831
  473MOL0     O63723  11.548   7.063   6.352  0.1166  0.8363  0.0530
  473MOL0     C63724  11.605   6.959   6.427  0.6401 -0.1180 -0.0110
  473MOL0     C63725  11.551   6.836   6.468  0.5572  0.2010 -0.9413
  473MOL0     C63726  11.626   6.744   6.535  0.1357 -0.1549  0.3134
  473MOL0     C63727  11.765   6.759   6.552 -0.2112 -0.4499 -0.1680
  473MOL0     O63728  11.852   6.664   6.598 -0.2387  0.1019  0.1180
  473MOL0     C63729  11.818   6.524   6.582  0.9573  0.4099  0.2332
  473MOL0     C63730  11.946   6.446   6.622  1.6804  0.7242  0.1702
  473MOL0     C63731  11.935   6.295   6.610  0.0433  0.6223 -0.5760
  473MOL0     C63732  12.050   6.222   6.684 -0.1683 -0.0370 -0.4242
  473MOL0     C63733  12.044   6.070   6.681 -0.0882  0.0448 -0.3996
  473MOL0     C63734  12.097   6.023   6.549 -1.2547  0.9414 -0.1310
  473MOL0     C63735  12.071   5.864   6.554 -1.4317 -0.7866 -0.0936
  473MOL0     C63736  11.929   5.823   6.528 -0.0196  0.1891  0.9815
  473MOL0     N63737  11.855   5.922   6.446 -0.0104  0.4708 -0.2862
  473MOL0     C63738  11.731   5.981   6.475  0.9761  0.5895  0.3013
  473MOL0     C63739  11.691   6.051   6.362 -1.1732 -0.8208  0.3159
  473MOL0     C63740  11.565   6.126   6.343  0.4296  0.3223 -0.3045
  473MOL0     C63741  11.457   6.053   6.264 -0.0392  0.0683  0.0653
  473MOL0     C63742  11.381   5.944   6.345  0.8319  0.0563 -0.5685
  473MOL0     C63743  11.243   5.893   6.289  0.5037  0.7293 -0.8751
  473MOL0     O63744  11.149   6.003   6.275  0.1859  0.4977 -0.1978
  473MOL0     C63745  11.015   5.978   6.270 -0.1007 -0.3770 -0.5714
  473MOL0     C63746  10.958   5.852   6.272  0.4536 -0.8383 -0.4798
  473MOL0     C63747  10.819   5.838   6.292 -0.0025 -0.4622  0.5718
  473MOL0     C63748  10.767   5.698   6.289  0.1476  0.6259 -0.7602
  473MOL0     C63749  10.736   5.946   6.283 -0.7194  0.5995 -0.7272
  473MOL0     C63750  10.590   5.934   6.303  0.8949 -0.3116  1.0010
  473MOL0     O63751  10.530   6.039   6.359 -0.2933 -1.0600  0.4127
  473MOL0     C63752  10.389   6.032   6.378 -0.0298  0.5107 -0.7418
  473MOL0     C63753  10.318   5.921   6.407 -1.2794  0.3045  0.1507
  473MOL0     C63754  10.179   5.928   6.431 -0.0214  0.0950  0.2936
  473MOL0     C63755  10.111   6.046   6.414  0.5623  1.0265  0.0641
  473MOL0     O63756   9.972   6.041   6.410  0.3806  0.5688 -0.3800
  473MOL0     C63757   9.919   5.934   6.319  0.8458  1.5523 -0.0112
  473MOL0     C63758   9.770   5.953   6.266  0.0558  0.6703 -1.0630
  473MOL0     C63759   9.762   6.095   6.198 -0.5689 -0.1820  0.0906
  473MOL0     C63760   9.618   6.103   6.142 -0.6855 -0.6050 -1.4078
  473MOL0     C63761   9.593   6.243   6.094 -0.1310 -0.1076 -0.3264
  473MOL0     C63762   9.449   6.242   6.038 -0.4058 -0.8227 -0.4372
  473MOL0     C63763   9.437   6.384   5.966 -0.8747  0.1501 -0.4707
  473MOL0     C63764   9.296   6.436   5.958 -0.5016  0.2654 -0.5208
  473MOL0    Cl63765   9.226   6.427   6.120  0.2155  0.3038 -0.3977
  473MOL0     C63766  10.187   6.163   6.400 -0.8647  0.5858 -0.4461
  473MOL0     C63767  10.326   6.163   6.384 -0.2391  0.2707 -0.3493
  473MOL0     O63768  10.534   5.837   6.258 -0.2648  0.5198  0.6009
  473MOL0     C63769  10.795   6.074   6.272 -0.2519 -0.3482  0.7314
  473MOL0     C63770  10.934   6.091   6.269  1.1989  0.0147  0.5303
  473MOL0     N63771  11.779   6.017   6.267 -0.5316  0.6029 -0.4139
  473MOL0     N63772  11.875   5.937   6.311  0.6711  0.6163  0.1274
  473MOL0     C63773  11.818   6.886   6.529  0.2611  0.0527  0.5665
  473MOL0     C63774  11.743   6.978   6.451 -0.1451  0.3987  0.0667
  473MOL0     C63775  11.369   7.149   6.210  0.0766 -0.9797 -0.8888
  473MOL0     C63776  11.226   7.170   6.190 -0.6852 -0.2199  0.9865
  473MOL0     C63777  11.185   7.262   6.086 -0.2047  0.2626 -0.6125
  473MOL0     C63778  11.284   7.334   6.014 -0.6175 -0.5073  0.3081
  473MOL0     O63779  11.261   7.425   5.915  0.0671 -1.1513  0.0219
  473MOL0     C63780  11.169   7.518   5.955  0.7119 -0.5813  0.2391
  473MOL0     C63781  11.239   7.663   5.950  0.1215 -0.0065  0.7942
  473MOL0     C63782  11.337   7.677   5.831 -0.4908 -0.3478  0.2430
  473MOL0     C63783  11.388   7.826   5.827  0.1904  0.5280  0.3172
  473MOL0     C63784  11.295   7.919   5.769  0.7051  0.1686  0.1834
  473MOL0     C63785  11.222   8.013   5.727  0.1097 -0.6465 -0.0565
  473MOL0     C63786  11.423   7.291   6.023  1.0069  0.3951 -0.2218
  473MOL0     C63787  11.456   7.195   6.119  0.2415 -0.2219  1.0075
  473MOL0     H63788  11.444   6.826   6.455  0.6856 -0.2795 -1.7300
  473MOL0     H63789  11.589   6.653   6.582  0.0812  0.8427  2.3129
  473MOL0     H63790  11.736   6.486   6.645  0.2930  2.8321  0.9195
  473MOL0     H63791  11.782   6.509   6.480  3.4196 -0.2303 -0.6125
  473MOL0     H63792  12.034   6.487   6.572  1.9336  0.4158  0.3594
  473MOL0     H63793  11.969   6.464   6.727 -1.0508  0.2982  0.9063
  473MOL0     H63794  11.843   6.265   6.662 -1.3136  2.4641 -1.7984
  473MOL0     H63795  11.921   6.263   6.506  1.9095 -0.5589 -0.5062
  473MOL0     H63796  12.152   6.249   6.655  0.5353 -0.4194  1.5242
  473MOL0     H63797  12.053   6.240   6.792  3.1325 -1.0980 -0.2278
  473MOL0     H63798  12.108   6.032   6.761  0.7588  4.4993  1.3414
  473MOL0     H63799  11.939   6.047   6.701 -0.4427  0.1769 -1.9770
  473MOL0     H63800  12.074   6.068   6.452  0.9551  0.9239 -0.7030
  473MOL0     H63801  12.206   6.032   6.549 -0.0460 -6.7370 -1.0139
  473MOL0     H63802  12.142   5.821   6.483  2.1699  1.4018  1.9032
  473MOL0     H63803  12.105   5.831   6.653  0.2251  1.5428  0.1775
  473MOL0     H63804  11.869   5.819   6.620 -0.4845  0.3497  0.6876
  473MOL0     H63805  11.935   5.726   6.477  0.8354  1.5796 -1.7311
  473MOL0     H63806  11.680   5.964   6.570 -0.5048  0.5842 -0.4593
  473MOL0     H63807  11.523   6.155   6.440  1.4317  0.1627  0.1976
  473MOL0     H63808  11.597   6.217   6.292  3.8845  0.2278  1.4315
  473MOL0     H63809  11.485   6.028   6.161 -1.1554  2.9370 -1.0621
  473MOL0     H63810  11.380   6.131   6.252  0.8577  0.8602 -0.7658
  473MOL0     H63811  11.353   5.979   6.444 -1.9111  3.5523 -2.3381
  473MOL0     H63812  11.454   5.862   6.338  0.2468 -0.4571 -0.6666
  473MOL0     H63813  11.199   5.821   6.359  1.7312 -0.1863 -1.0045
  473MOL0     H63814  11.259   5.847   6.191  2.3632 -1.4904  0.3683
  473MOL0     H63815  11.017   5.761   6.265 -1.2456 -2.3621  2.8388
  473MOL0     H63816  10.840   5.617   6.290 -2.8073 -2.2620  0.0141
  473MOL0     H63817  10.702   5.697   6.378  0.1654  2.2059 -0.7119
  473MOL0     H63818  10.703   5.666   6.206  0.1299  0.5368 -0.7129
  473MOL0     H63819  10.365   5.824   6.402 -0.9425  0.5184 -2.5973
  473MOL0     H63820  10.136   5.829   6.431 -0.7230  0.3970  0.3900
  473MOL0     H63821   9.982   5.921   6.230 -0.5437  1.0311 -0.9500
  473MOL0     H63822   9.930   5.842   6.376  0.3480  2.0174  0.8614
  473MOL0     H63823   9.746   5.873   6.195  0.1716  1.8267 -2.4435
  473MOL0     H63824   9.708   5.949   6.357  1.5549  2.0856  0.0731
  473MOL0     H63825   9.829   6.111   6.113 -1.7704  1.9231 -0.5419
  473MOL0     H63826   9.767   6.173   6.275 -0.4583 -1.1803  1.1163
  473MOL0     H63827   9.605   6.023   6.069 -2.3787 -0.1540 -1.6574
  473MOL0     H63828   9.550   6.077   6.224  1.2031 -4.8126 -0.9393
  473MOL0     H63829   9.668   6.277   6.022 -1.9909  0.7557 -1.9519
  473MOL0     H63830   9.599   6.306   6.183 -0.1534  3.3556 -2.5999
  473MOL0     H63831   9.448   6.169   5.956 -0.6251  0.6203 -1.7597
  473MOL0     H63832   9.383   6.217   6.121 -1.9709  2.5090 -0.5366
  473MOL0     H63833   9.497   6.402   5.876 -0.1488  1.0526  0.1722
  473MOL0     H63834   9.481   6.457   6.034 -1.3274 -0.6010  0.6609
  473MOL0     H63835   9.242   6.369   5.889 -0.6334 -1.5240  1.2407
  473MOL0     H63836   9.283   6.535   5.913  1.3001  0.2263 -1.1952
  473MOL0     H63837  10.142   6.260   6.379  2.5295  2.2211 -0.8280
  473MOL0     H63838  10.379   6.257   6.377 -0.9016  0.5493 -2.3968
  473MOL0     H63839  10.726   6.155   6.250  0.1017 -0.0223  0.8101
  473MOL0     H63840  10.984   6.186   6.258 -0.5563  0.9834  0.5286
  473MOL0     H63841  11.922   6.894   6.558 -0.2152 -0.7883  2.7577
  473MOL0     H63842  11.791   7.062   6.402 -3.2596  0.8660 -2.5020
  473MOL0     H63843  11.151   7.118   6.249  1.2986 -1.7535  2.2678
  473MOL0     H63844  11.079   7.279   6.077 -0.1207  2.6011  1.9328
  473MOL0     H63845  11.096   7.526   5.874  1.3565 -1.4952 -0.4622
  473MOL0     H63846  11.124   7.499   6.053  1.0197 -0.1364  0.4713
  473MOL0     H63847  11.296   7.674   6.043 -1.6194  2.2343  1.7145
  473MOL0     H63848  11.165   7.743   5.942 -1.7942 -1.7753 -0.0897
  473MOL0     H63849  11.300   7.645   5.733 -0.7147  1.2672 -0.2322
  473MOL0     H63850  11.434   7.627   5.842  1.6093  3.1338 -0.8785
  473MOL0     H63851  11.478   7.824   5.765  0.8541  0.1158  1.2570
  473MOL0     H63852  11.417   7.848   5.930  2.4938 -0.7305  0.0148
  473MOL0     H63853  11.158   8.088   5.684  0.1028 -1.1016 -0.8519
  473MOL0     H63854  11.513   7.337   5.985  0.9647 -0.3179 -1.2092
  473MOL0     H63855  11.558   7.162   6.105  0.7805  1.5663  0.4087
  474MOL0     O63856   7.483   0.520   1.189  0.2339 -0.1045  0.5369
  474MOL0     C63857   7.557   0.475   1.104 -0.1075 -0.1227  0.6680
  474MOL0     O63858   7.517   0.410   0.982  0.2476 -0.0881  0.0196
  474MOL0     C63859   7.380   0.408   0.961  0.0725 -0.4735  0.5276
  474MOL0     C63860   7.298   0.335   1.037  0.7558  0.9771  0.0935
  474MOL0     C63861   7.159   0.328   1.008  0.4154  0.0836  0.5663
  474MOL0     C63862   7.103   0.402   0.906 -0.0555  0.1229 -0.1857
  474MOL0     O63863   6.968   0.388   0.881 -0.1290 -0.3043 -0.7279
  474MOL0     C63864   6.910   0.443   0.756 -0.0819 -0.3434  0.9413
  474MOL0     C63865   6.773   0.370   0.735 -1.0429 -1.1083 -0.4673
  474MOL0     C63866   6.717   0.406   0.594 -0.2246  0.4028 -1.0933
  474MOL0     C63867   6.602   0.317   0.553 -0.6340 -0.2340  0.9815
  474MOL0     C63868   6.464   0.378   0.581  0.0563 -0.0936  0.0537
  474MOL0     C63869   6.354   0.309   0.490  0.0836 -0.5080 -0.5823
  474MOL0     C63870   6.300   0.165   0.534 -0.9948 -0.6634 -0.4645
  474MOL0     C63871   6.335   0.056   0.435 -0.8289 -0.2290 -0.2214
  474MOL0     N63872   6.255   0.060   0.323  0.4389  0.0921 -0.4767
  474MOL0     C63873   6.111   0.031   0.316  0.4409  1.0680 -0.1469
  474MOL0     C63874   6.061   0.082   0.201 -0.7546  0.1075  0.4327
  474MOL0     C63875   5.922   0.093   0.149  0.4813 -0.3578 -0.0425
  474MOL0     C63876   5.877  -0.001   0.038  0.3008 -0.5393 -0.4034
  474MOL0     C63877   5.933   0.053  -0.088 -0.1372  0.3389  0.8347
  474MOL0     C63878   5.876   0.190  -0.145 -0.1718 -0.0977 -0.2279
  474MOL0     O63879   5.740   0.168  -0.184  0.2057  0.0278  0.5682
  474MOL0     C63880   5.673   0.274  -0.236 -0.0892 -0.7390 -0.0304
  474MOL0     C63881   5.718   0.401  -0.244 -0.6203  0.0706 -0.7474
  474MOL0     C63882   5.639   0.519  -0.261  0.0770 -0.2586  0.0562
  474MOL0     C63883   5.712   0.654  -0.238 -0.3844 -0.5742  0.2973
  474MOL0     C63884   5.499   0.502  -0.285  0.0839  0.4967  0.1087
  474MOL0     C63885   5.417   0.610  -0.349  0.7440  0.0084 -0.1496
  474MOL0     O63886   5.479   0.711  -0.422  0.1935  0.7676  0.2940
  474MOL0     C63887   5.394   0.810  -0.454  0.4142 -0.2319  0.7472
  474MOL0     C63888   5.398   0.934  -0.387 -0.3111 -0.5740  0.4544
  474MOL0     C63889   5.302   1.027  -0.421 -0.1207 -0.1714  0.2076
  474MOL0     C63890   5.195   0.999  -0.507 -0.0017 -0.3386  0.1509
  474MOL0     O63891   5.098   1.092  -0.528  0.1021  0.0086 -0.2160
  474MOL0     C63892   5.136   1.187  -0.626 -0.7558 -0.1693  0.1765
  474MOL0     C63893   5.029   1.253  -0.718  0.8356  0.6319 -0.6556
  474MOL0     C63894   4.903   1.283  -0.640  0.7340  0.0872  0.3518
  474MOL0     C63895   4.796   1.372  -0.708 -0.4429 -0.1180  0.1207
  474MOL0     C63896   4.676   1.393  -0.617  0.0891  0.6783  0.4907
  474MOL0     C63897   4.586   1.493  -0.672  0.1308  0.7024  0.7297
  474MOL0     C63898   4.635   1.637  -0.638  0.1784 -0.6888 -0.7547
  474MOL0     C63899   4.554   1.753  -0.699 -0.6903  0.1351  0.2691
  474MOL0    Cl63900   4.589   1.765  -0.879 -0.4546  0.2116  0.0924
  474MOL0     C63901   5.192   0.890  -0.591 -0.7762  0.6624 -0.3896
  474MOL0     C63902   5.290   0.798  -0.563 -0.8208  0.9613 -0.0421
  474MOL0     O63903   5.294   0.590  -0.359  0.2355  0.7275  0.5452
  474MOL0     C63904   5.445   0.367  -0.280  1.1215  0.0630 -1.1865
  474MOL0     C63905   5.530   0.257  -0.249 -0.4567  1.1730 -0.2004
  474MOL0     N63906   6.166   0.156   0.139 -0.1076 -0.0102 -0.6172
  474MOL0     N63907   6.276   0.141   0.210 -0.7818 -0.9405 -0.2099
  474MOL0     C63908   7.188   0.470   0.825  0.2959 -0.5443  0.0453
  474MOL0     C63909   7.327   0.476   0.856  0.7145 -0.2835  0.0332
  474MOL0     C63910   7.707   0.470   1.133 -0.3877  0.5201  0.1027
  474MOL0     C63911   7.747   0.524   1.251 -0.8335 -0.5589  0.1242
  474MOL0     C63912   7.880   0.527   1.295 -0.0753  0.2428 -0.3802
  474MOL0     C63913   7.979   0.470   1.213 -0.2153 -0.4587 -0.9814
  474MOL0     O63914   8.114   0.497   1.245  0.9944 -0.5746 -0.7797
  474MOL0     C63915   8.220   0.419   1.187 -0.2104 -0.3283  0.8176
  474MOL0     C63916   8.348   0.500   1.173  0.0945 -0.0547  0.8798
  474MOL0     C63917   8.413   0.529   1.301  0.2002 -0.0209  0.4233
  474MOL0     C63918   8.556   0.590   1.298  0.4953  0.5496  0.5985
  474MOL0     C63919   8.600   0.595   1.438  0.2128 -0.3046 -0.0060
  474MOL0     C63920   8.648   0.608   1.552  0.1231 -1.0044  0.2269
  474MOL0     C63921   7.936   0.416   1.086  0.1209 -0.5209 -0.5590
  474MOL0     C63922   7.800   0.413   1.051 -1.2029 -0.2427  0.7972
  474MOL0     H63923   7.359   0.293   1.116  1.2843 -0.0572 -0.8405
  474MOL0     H63924   7.106   0.247   1.057 -0.0615 -2.7766 -4.1158
  474MOL0     H63925   6.907   0.552   0.765  0.4098 -0.0152 -1.9203
  474MOL0     H63926   6.975   0.418   0.671 -1.9184  2.6199 -1.5463
  474MOL0     H63927   6.780   0.262   0.751 -0.6690 -0.7478  2.4348
  474MOL0     H63928   6.708   0.417   0.809  0.8091  0.1157  0.4852
  474MOL0     H63929   6.683   0.510   0.593  0.0692  0.5045 -0.5757
  474MOL0     H63930   6.788   0.407   0.510  2.3238  4.2699  0.8268
  474MOL0     H63931   6.611   0.313   0.444  1.6417 -1.8180  1.1664
  474MOL0     H63932   6.607   0.219   0.601 -3.2135 -1.4472 -0.9722
  474MOL0     H63933   6.446   0.372   0.689  2.7861  4.5673  1.0556
  474MOL0     H63934   6.460   0.482   0.548 -1.2879 -0.0390  0.3098
  474MOL0     H63935   6.281   0.389   0.502  0.8786 -0.1736  3.7377
  474MOL0     H63936   6.387   0.308   0.385 -0.7803  1.0003 -0.8896
  474MOL0     H63937   6.359   0.134   0.621 -0.4531 -2.0061 -1.2804
  474MOL0     H63938   6.195   0.171   0.564 -0.9245  0.1706 -0.3779
  474MOL0     H63939   6.342  -0.039   0.488  1.2355  0.0014 -0.0031
  474MOL0     H63940   6.435   0.078   0.395 -1.9461 -0.4388 -3.3925
  474MOL0     H63941   6.051  -0.011   0.396  1.2052 -1.1661 -0.6725
  474MOL0     H63942   5.859   0.070   0.235 -1.8897  0.2533 -1.5407
  474MOL0     H63943   5.904   0.197   0.120  2.2578 -0.4563 -1.7589
  474MOL0     H63944   5.769  -0.013   0.033  0.4656 -1.7167 -1.8385
  474MOL0     H63945   5.918  -0.103   0.046 -0.8284 -1.3117 -3.3138
  474MOL0     H63946   5.916  -0.014  -0.173  0.1131  2.1361 -0.7072
  474MOL0     H63947   6.040   0.059  -0.064 -0.0435 -0.7588  0.7384
  474MOL0     H63948   5.923   0.227  -0.237  1.6994  2.8707  1.7779
  474MOL0     H63949   5.865   0.279  -0.082 -2.3441 -1.1444  0.9902
  474MOL0     H63950   5.819   0.415  -0.207 -1.4786 -1.6583  2.6758
  474MOL0     H63951   5.638   0.720  -0.193  1.3856  0.9865  1.0309
  474MOL0     H63952   5.790   0.651  -0.161  0.1063 -1.7305 -0.2240
  474MOL0     H63953   5.763   0.696  -0.325  2.0612  1.5845  2.6163
  474MOL0     H63954   5.475   0.961  -0.315  0.1010  0.0256 -0.2069
  474MOL0     H63955   5.305   1.127  -0.378  2.2938  0.3695 -0.9888
  474MOL0     H63956   5.185   1.269  -0.572 -1.2879  1.0108 -1.0867
  474MOL0     H63957   5.219   1.140  -0.679  1.8492  1.6552  2.3621
  474MOL0     H63958   5.083   1.334  -0.769 -0.9185  1.4058 -1.3703
  474MOL0     H63959   5.002   1.182  -0.797 -0.0858 -1.2590  1.2841
  474MOL0     H63960   4.929   1.349  -0.557  2.5292  0.3637 -0.3834
  474MOL0     H63961   4.860   1.186  -0.614  1.0750 -0.5533 -1.3127
  474MOL0     H63962   4.844   1.470  -0.723  2.8179 -1.4358  1.0254
  474MOL0     H63963   4.770   1.333  -0.806 -1.7155  0.0704  0.3676
  474MOL0     H63964   4.703   1.419  -0.514  0.9973 -0.0579  0.4457
  474MOL0     H63965   4.620   1.300  -0.601  1.8152 -0.4666  0.1564
  474MOL0     H63966   4.576   1.479  -0.780  0.6421  1.1723  0.6171
  474MOL0     H63967   4.481   1.472  -0.652 -0.5241  3.9093  1.3328
  474MOL0     H63968   4.740   1.653  -0.665  0.3835 -0.3846  0.1948
  474MOL0     H63969   4.623   1.646  -0.530  3.4219 -2.1971 -0.1661
  474MOL0     H63970   4.574   1.850  -0.653 -1.8588 -0.1376  1.4165
  474MOL0     H63971   4.454   1.718  -0.673 -0.0033 -1.3403  1.0609
  474MOL0     H63972   5.102   0.871  -0.649 -1.5691 -0.3084  1.0885
  474MOL0     H63973   5.278   0.700  -0.608  2.4827 -0.7905  2.4511
  474MOL0     H63974   5.339   0.353  -0.301  1.0466 -0.5349 -0.4726
  474MOL0     H63975   5.475   0.164  -0.241  2.6602 -0.6751  1.7858
  474MOL0     H63976   7.144   0.524   0.741 -0.3240  0.8178  1.2038
  474MOL0     H63977   7.381   0.540   0.787  0.7353  0.5382  0.7963
  474MOL0     H63978   7.674   0.570   1.318 -1.9211 -3.5148  1.1132
  474MOL0     H63979   7.909   0.567   1.392  0.9803 -0.7694 -0.2634
  474MOL0     H63980   8.224   0.316   1.223 -0.9013 -0.7329 -0.2259
  474MOL0     H63981   8.194   0.406   1.082  0.6831  1.8742  0.2754
  474MOL0     H63982   8.316   0.590   1.119  1.5986 -0.6735 -1.1706
  474MOL0     H63983   8.418   0.447   1.108  0.9011 -1.7154  2.9954
  474MOL0     H63984   8.417   0.439   1.363  2.8184  0.7075  1.4424
  474MOL0     H63985   8.346   0.599   1.350  0.2291 -0.4635  1.1012
  474MOL0     H63986   8.556   0.689   1.252 -3.0429  0.3707 -0.1097
  474MOL0     H63987   8.624   0.524   1.242  2.2132  1.6361  1.3152
  474MOL0     H63988   8.690   0.596   1.650 -1.2635  0.3134  1.0395
  474MOL0     H63989   7.995   0.362   1.012 -1.5610 -1.2630 -1.3989
  474MOL0     H63990   7.779   0.385   0.948  1.9754  6.4604 -2.3300
  475MOL0     O63991  11.298   5.767   3.497  0.7493 -0.1839 -0.6736
  475MOL0     C63992  11.267   5.875   3.546  0.7490  0.8175  0.5472
  475MOL0     O63993  11.346   5.944   3.629  0.1775 -0.1729  0.2567
  475MOL0     C63994  11.470   5.890   3.672  0.2032  0.7240  0.2930
  475MOL0     C63995  11.496   5.756   3.699  0.4888  0.2495 -0.4692
  475MOL0     C63996  11.626   5.714   3.723 -0.6181 -0.2675 -0.0422
  475MOL0     C63997  11.732   5.810   3.733 -0.1081 -0.3270  0.0789
  475MOL0     O63998  11.862   5.770   3.740  0.4284  0.1120  0.1401
  475MOL0     C63999  11.898   5.639   3.766 -0.1750 -0.3897 -0.9135
  475MOL0     C64000  12.052   5.638   3.745  0.7471  0.6958 -0.2024
  475MOL0     C64001  12.104   5.494   3.739 -0.0002  0.1777 -0.5349
  475MOL0     C64002  12.104   5.440   3.603  0.8544  0.0782  0.4422
  475MOL0     C64003  12.191   5.310   3.596 -0.0937  0.5393  0.5537
  475MOL0     C64004  12.200   5.254   3.454  1.2250  0.5976 -1.0253
  475MOL0     C64005  12.260   5.333   3.348 -0.0998  0.6889 -0.8218
  475MOL0     C64006  12.383   5.263   3.275  0.4446  0.6175  0.0667
  475MOL0     N64007  12.436   5.333   3.163  0.6743  0.0368  0.5240
  475MOL0     C64008  12.419   5.459   3.126 -0.7844  1.5837  0.3831
  475MOL0     C64009  12.443   5.456   2.993  0.1314 -0.1270  0.8304
  475MOL0     C64010  12.416   5.574   2.907  0.4676 -0.8522  0.3678
  475MOL0     C64011  12.541   5.623   2.831 -0.5730  0.5419 -0.1140
  475MOL0     C64012  12.511   5.687   2.697  0.0493  0.9230  0.1406
  475MOL0     C64013  12.560   5.610   2.584  0.2550  0.4726  0.8162
  475MOL0     O64014  12.540   5.671   2.447  0.0954  0.1869 -0.7318
  475MOL0     C64015  12.424   5.671   2.385 -0.5507 -0.5800 -0.3951
  475MOL0     C64016  12.306   5.603   2.424  0.0182 -0.7514 -0.0706
  475MOL0     C64017  12.183   5.614   2.360 -0.1676 -0.2107  0.6364
  475MOL0     C64018  12.071   5.551   2.436 -0.4899 -0.3065 -0.5961
  475MOL0     C64019  12.165   5.705   2.247  0.1321  0.2362  0.8621
  475MOL0     C64020  12.032   5.715   2.174 -0.1708 -1.1064 -0.0358
  475MOL0     O64021  12.033   5.797   2.066  0.2707 -0.2086  1.1896
  475MOL0     C64022  11.922   5.831   1.992 -0.3495  0.2282  0.7723
  475MOL0     C64023  11.925   5.949   1.923 -0.1876  0.5739 -0.4310
  475MOL0     C64024  11.814   5.989   1.841  0.2147 -0.2501 -0.7112
  475MOL0     C64025  11.701   5.903   1.836  0.1995 -0.9995 -0.5505
  475MOL0     O64026  11.584   5.911   1.772 -0.8220 -0.1369 -0.7652
  475MOL0     C64027  11.574   5.988   1.654  0.0130 -0.7043 -0.8487
  475MOL0     C64028  11.520   6.124   1.693 -0.5252 -0.1024  0.3976
  475MOL0     C64029  11.601   6.239   1.618  0.8073 -0.7358  0.0074
  475MOL0     C64030  11.550   6.379   1.647 -0.6076  0.1531  0.2570
  475MOL0     C64031  11.616   6.501   1.574  0.4409 -0.4641  0.4929
  475MOL0     C64032  11.757   6.521   1.621 -0.1004 -1.3193 -0.5269
  475MOL0     C64033  11.847   6.617   1.535  0.0313  0.7851  0.2199
  475MOL0     C64034  11.858   6.600   1.386 -1.1942 -0.7435  0.3521
  475MOL0    Cl64035  11.912   6.755   1.322  0.7074  0.3269  0.3588
  475MOL0     C64036  11.705   5.784   1.906  0.3312  0.6316 -0.2868
  475MOL0     C64037  11.807   5.748   1.986 -0.1401  0.5005  0.4099
  475MOL0     O64038  11.931   5.658   2.214 -0.1184 -0.0098 -0.6511
  475MOL0     C64039  12.285   5.763   2.198 -0.2361 -0.0363  0.7660
  475MOL0     C64040  12.412   5.744   2.265 -0.1779 -0.0204 -0.2070
  475MOL0     N64041  12.478   5.331   2.956  0.0234  0.0533 -0.6261
  475MOL0     N64042  12.484   5.260   3.062 -0.6390  0.1209  0.3415
  475MOL0     C64043  11.709   5.942   3.728 -0.0648 -0.0924 -0.2416
  475MOL0     C64044  11.577   5.979   3.686 -0.0121  0.1887  0.0157
  475MOL0     C64045  11.134   5.925   3.508 -0.2799 -0.8333 -0.4963
  475MOL0     C64046  11.081   6.042   3.561 -0.4176  0.0298  0.2629
  475MOL0     C64047  10.941   6.084   3.548 -0.6661 -0.2759  0.0583
  475MOL0     C64048  10.848   6.002   3.473  0.1578 -0.4618 -0.4477
  475MOL0     O64049  10.714   6.033   3.456 -0.0052 -0.0509  0.0860
  475MOL0     C64050  10.664   6.165   3.496 -0.0844 -0.0602  1.2913
  475MOL0     C64051  10.510   6.165   3.491  0.4502  0.2520 -0.1337
  475MOL0     C64052  10.443   6.047   3.580  0.2097 -0.4637  0.5094
  475MOL0     C64053  10.449   6.072   3.726 -0.5351 -0.6584  0.0729
  475MOL0     C64054  10.333   6.161   3.758  0.3721 -0.5325  0.3781
  475MOL0     C64055  10.252   6.242   3.802  0.3805 -0.0689 -0.2034
  475MOL0     C64056  10.900   5.888   3.420  0.5869 -0.3814  0.0858
  475MOL0     C64057  11.037   5.856   3.431  0.2560 -0.1038  0.9383
  475MOL0     H64058  11.425   5.674   3.694  1.6017 -0.9512  1.7892
  475MOL0     H64059  11.645   5.607   3.724  0.6678 -0.0707 -0.9648
  475MOL0     H64060  11.894   5.619   3.873  2.1376  3.7098  0.1739
  475MOL0     H64061  11.849   5.563   3.705  0.2458  0.1718 -1.9961
  475MOL0     H64062  12.061   5.685   3.647  1.5976 -0.3658 -0.6565
  475MOL0     H64063  12.109   5.700   3.816 -2.3143  3.4357  0.1165
  475MOL0     H64064  12.196   5.498   3.798 -1.2238 -1.4781  1.6333
  475MOL0     H64065  12.044   5.423   3.796  2.0215  0.4018  2.0750
  475MOL0     H64066  12.001   5.420   3.574  0.3397  2.5229  0.3542
  475MOL0     H64067  12.121   5.511   3.521  1.3227 -1.4535 -0.8235
  475MOL0     H64068  12.293   5.335   3.629  0.3752 -2.2496  1.5400
  475MOL0     H64069  12.151   5.232   3.661  0.0109  0.6419  0.7431
  475MOL0     H64070  12.254   5.159   3.446  1.0534  0.4235 -0.1603
  475MOL0     H64071  12.098   5.224   3.426  0.2108  2.5200  0.3987
  475MOL0     H64072  12.178   5.362   3.281 -1.2499  1.8810  0.9981
  475MOL0     H64073  12.293   5.422   3.402 -4.2392  1.4887  0.7872
  475MOL0     H64074  12.360   5.162   3.239 -0.4571  1.7721 -2.9291
  475MOL0     H64075  12.464   5.252   3.348 -0.9015 -1.8888  1.3300
  475MOL0     H64076  12.399   5.539   3.196 -0.3818  1.5040  0.5913
  475MOL0     H64077  12.336   5.552   2.836  1.0675 -1.8545 -0.0135
  475MOL0     H64078  12.379   5.648   2.978 -3.3311 -3.8210  1.8917
  475MOL0     H64079  12.619   5.547   2.819 -1.2132 -0.9007  3.6102
  475MOL0     H64080  12.586   5.701   2.893  0.8013 -0.6134  0.4047
  475MOL0     H64081  12.564   5.782   2.694 -0.9008  1.7453  4.0906
  475MOL0     H64082  12.403   5.700   2.684 -0.7360 -3.4419  0.6831
  475MOL0     H64083  12.507   5.515   2.595  1.5993 -0.6888 -1.8403
  475MOL0     H64084  12.668   5.595   2.594  0.0428 -0.0394  2.7954
  475MOL0     H64085  12.296   5.552   2.519 -3.8053 -1.4776 -0.7024
  475MOL0     H64086  12.016   5.632   2.486 -0.8222 -1.6934  1.3810
  475MOL0     H64087  11.990   5.499   2.383 -2.4470 -1.3961  3.0949
  475MOL0     H64088  12.109   5.489   2.518  2.2129  2.7526  0.7003
  475MOL0     H64089  12.012   6.013   1.914 -0.2432  0.4122 -2.4164
  475MOL0     H64090  11.824   6.073   1.773 -2.4801 -2.2176 -3.8440
  475MOL0     H64091  11.663   5.988   1.590 -1.5398 -0.6167 -3.1324
  475MOL0     H64092  11.507   5.950   1.577 -0.4379 -1.4041 -0.1348
  475MOL0     H64093  11.414   6.135   1.665 -0.1536 -0.6720 -1.4083
  475MOL0     H64094  11.533   6.130   1.801  0.6303 -3.0828  0.5290
  475MOL0     H64095  11.594   6.214   1.511  3.7721 -1.3413 -0.1384
  475MOL0     H64096  11.699   6.235   1.666 -0.3087 -2.9744  2.3052
  475MOL0     H64097  11.441   6.381   1.635 -0.9133  0.2926  2.5119
  475MOL0     H64098  11.567   6.392   1.754 -4.4868 -2.7722  1.4415
  475MOL0     H64099  11.557   6.593   1.578 -1.3963 -1.6337  3.5233
  475MOL0     H64100  11.616   6.476   1.467 -1.2999  2.0707 -0.1922
  475MOL0     H64101  11.760   6.552   1.726  0.0069 -0.4824 -0.7669
  475MOL0     H64102  11.805   6.425   1.641  3.0026  0.6044  2.5274
  475MOL0     H64103  11.944   6.602   1.585 -0.7000  0.9279  1.7400
  475MOL0     H64104  11.825   6.723   1.552  0.3981  1.8279 -4.3724
  475MOL0     H64105  11.757   6.588   1.346 -0.9841 -0.6657 -0.2085
  475MOL0     H64106  11.917   6.516   1.350  0.4791  0.7340 -0.4693
  475MOL0     H64107  11.617   5.723   1.893  0.9359  0.1544 -2.8303
  475MOL0     H64108  11.802   5.648   2.027 -0.7632  1.5113  3.0176
  475MOL0     H64109  12.275   5.815   2.103 -1.4899  1.3472  1.6134
  475MOL0     H64110  12.499   5.802   2.236  0.5425  0.5665  2.7911
  475MOL0     H64111  11.788   6.013   3.750 -0.2320  0.0470 -0.0973
  475MOL0     H64112  11.556   6.084   3.664 -1.0130  0.0756  0.3842
  475MOL0     H64113  11.134   6.114   3.623  0.5202 -2.9175  3.1288
  475MOL0     H64114  10.914   6.178   3.597  2.7980  0.6956  0.3721
  475MOL0     H64115  10.696   6.178   3.600  2.0984 -1.0197  0.7899
  475MOL0     H64116  10.712   6.240   3.433 -0.4189  1.0250  2.2883
  475MOL0     H64117  10.458   6.173   3.395 -0.9862 -0.0457  0.5941
  475MOL0     H64118  10.477   6.259   3.537  1.7815  0.7502 -0.1554
  475MOL0     H64119  10.498   5.956   3.555  1.3409  0.1393  0.7176
  475MOL0     H64120  10.341   6.022   3.553  0.6830 -1.1385 -0.7456
  475MOL0     H64121  10.543   6.119   3.757 -0.8908 -1.1441  2.0345
  475MOL0     H64122  10.436   5.978   3.781  2.0146 -1.3025 -0.2942
  475MOL0     H64123  10.183   6.321   3.823  0.7065 -0.1052  1.0423
  475MOL0     H64124  10.817   5.834   3.377 -2.3790  2.4016  1.8753
  475MOL0     H64125  11.069   5.759   3.395 -1.5694 -0.0049 -1.1177
  476MOL0     O64126   7.516   3.833   2.229 -0.0607 -0.3389  0.3024
  476MOL0     C64127   7.411   3.776   2.258 -1.0657  0.2313 -0.3022
  476MOL0     O64128   7.292   3.779   2.183 -0.2732  0.3605  0.3689
  476MOL0     C64129   7.290   3.862   2.077 -0.4161 -0.1205  0.1824
  476MOL0     C64130   7.318   3.816   1.948  0.3179  0.7305  0.8209
  476MOL0     C64131   7.326   3.897   1.835  0.4451 -0.1944 -1.0454
  476MOL0     C64132   7.302   4.033   1.844  0.6145  1.3824 -0.3976
  476MOL0     O64133   7.324   4.128   1.750  0.1942 -0.1373  0.0183
  476MOL0     C64134   7.262   4.099   1.619  1.0985 -0.5469 -1.4004
  476MOL0     C64135   7.114   4.132   1.608 -0.3079  0.4232  1.1154
  476MOL0     C64136   7.091   4.277   1.668  0.7811  0.0693 -0.3636
  476MOL0     C64137   7.182   4.375   1.592 -0.1745 -0.1668  0.5382
  476MOL0     C64138   7.158   4.516   1.631  0.3468 -0.4217  0.5795
  476MOL0     C64139   7.263   4.596   1.565  0.9801  0.9633 -1.0968
  476MOL0     C64140   7.245   4.737   1.626 -0.4999  0.6259 -0.5546
  476MOL0     C64141   7.323   4.761   1.760  0.3267  1.4766 -0.8266
  476MOL0     N64142   7.473   4.726   1.768  0.6991 -0.5271  0.4379
  476MOL0     C64143   7.557   4.812   1.705 -0.1407 -0.3155  0.1110
  476MOL0     C64144   7.676   4.752   1.733 -0.3815 -1.0128  0.7666
  476MOL0     C64145   7.814   4.802   1.693  1.4157 -0.2656  0.5813
  476MOL0     C64146   7.905   4.842   1.810 -0.2133  0.4393 -0.1908
  476MOL0     C64147   8.035   4.891   1.751 -0.4671  0.0677  0.3663
  476MOL0     C64148   8.145   4.929   1.854 -0.2680  0.8613 -0.2699
  476MOL0     O64149   8.090   5.037   1.940 -0.8892 -0.2325 -0.1531
  476MOL0     C64150   8.179   5.139   1.965 -0.1165 -0.2972  1.5071
  476MOL0     C64151   8.311   5.119   2.014 -0.1642 -0.5007 -0.1654
  476MOL0     C64152   8.399   5.233   2.057  0.4253 -0.1685  0.1842
  476MOL0     C64153   8.537   5.214   2.114  0.4012 -0.9661  0.4475
  476MOL0     C64154   8.350   5.362   2.037 -0.9634 -0.3880 -0.1690
  476MOL0     C64155   8.434   5.485   2.065 -0.3384 -0.4710  0.9629
  476MOL0     O64156   8.444   5.574   1.954  0.5010  0.0482  0.3251
  476MOL0     C64157   8.472   5.707   1.965  0.2271 -0.5917  1.1250
  476MOL0     C64158   8.450   5.773   1.845 -0.4834  0.0477 -0.2656
  476MOL0     C64159   8.498   5.908   1.819  0.0883  0.5136 -1.5164
  476MOL0     C64160   8.553   5.974   1.921 -0.5862  0.1421  0.1848
  476MOL0     O64161   8.578   6.107   1.891 -0.6500 -0.4492 -0.0567
  476MOL0     C64162   8.673   6.178   1.977  0.8178  0.6261 -0.3323
  476MOL0     C64163   8.703   6.311   1.915  0.4551 -0.0055 -0.6476
  476MOL0     C64164   8.831   6.363   1.970 -0.5224 -0.5185 -0.7450
  476MOL0     C64165   8.858   6.504   1.910  0.3642 -0.0760 -0.2357
  476MOL0     C64166   8.782   6.624   1.985 -0.1692  0.1790  0.0904
  476MOL0     C64167   8.723   6.594   2.123  0.7487  0.4533  0.0735
  476MOL0     C64168   8.650   6.713   2.176 -0.1586 -0.2553 -0.2949
  476MOL0     C64169   8.620   6.713   2.329  0.3368  1.0384 -0.4162
  476MOL0    Cl64170   8.537   6.857   2.361  0.1285 -0.1796 -0.0115
  476MOL0     C64171   8.573   5.910   2.054  0.9183 -0.1513 -0.3132
  476MOL0     C64172   8.522   5.776   2.076 -0.9299 -0.2490 -0.6336
  476MOL0     O64173   8.468   5.503   2.179  0.4280  0.0291  0.4878
  476MOL0     C64174   8.218   5.384   1.999  0.2209  0.4353 -0.3345
  476MOL0     C64175   8.138   5.277   1.961  0.5456 -0.2855  0.1137
  476MOL0     N64176   7.658   4.643   1.815 -0.9519 -0.6153  0.9255
  476MOL0     N64177   7.535   4.623   1.830 -0.6008 -0.4194  0.2105
  476MOL0     C64178   7.280   4.086   1.974  1.2141  0.2126  0.9605
  476MOL0     C64179   7.280   4.005   2.086  0.8274  0.0342 -0.4948
  476MOL0     C64180   7.403   3.706   2.387 -0.6834  0.0034  0.3749
  476MOL0     C64181   7.286   3.645   2.435  0.1460  0.6165 -0.3052
  476MOL0     C64182   7.288   3.588   2.562  0.1211 -0.2175  1.0106
  476MOL0     C64183   7.398   3.585   2.649  0.8890 -0.1455  1.0672
  476MOL0     O64184   7.401   3.535   2.770 -0.0857  0.1634  0.1952
  476MOL0     C64185   7.301   3.434   2.803 -0.1816 -0.2149 -1.2517
  476MOL0     C64186   7.197   3.521   2.869 -0.7486 -1.0250  0.1051
  476MOL0     C64187   7.072   3.450   2.904  0.2061  0.2999 -0.2897
  476MOL0     C64188   6.963   3.560   2.944 -0.7182  0.1384 -0.2934
  476MOL0     C64189   6.832   3.490   2.962  0.8294 -0.7573 -0.5538
  476MOL0     C64190   6.722   3.448   2.971  0.0809 -0.3829  0.0358
  476MOL0     C64191   7.515   3.635   2.597  0.0481  0.3436 -0.1968
  476MOL0     C64192   7.519   3.695   2.471  0.2371 -0.7333  0.5118
  476MOL0     H64193   7.335   3.711   1.924  2.7016  1.2567  0.0209
  476MOL0     H64194   7.356   3.849   1.742 -1.7126 -3.1578 -0.3713
  476MOL0     H64195   7.307   4.151   1.534  1.9934  0.3834 -0.3892
  476MOL0     H64196   7.275   3.992   1.601  1.4667 -1.2782  2.3932
  476MOL0     H64197   7.086   4.126   1.503  1.1168 -0.1045  0.7455
  476MOL0     H64198   7.057   4.059   1.666  0.7572 -0.2512  1.3455
  476MOL0     H64199   6.986   4.306   1.660  1.1340  2.0733  1.3337
  476MOL0     H64200   7.114   4.271   1.774  2.8021 -0.4007 -0.7873
  476MOL0     H64201   7.282   4.342   1.622 -1.4842 -2.8506  2.3813
  476MOL0     H64202   7.171   4.353   1.485  1.7612 -1.9483  0.6339
  476MOL0     H64203   7.057   4.552   1.609 -0.7670 -3.8482 -0.6058
  476MOL0     H64204   7.173   4.528   1.739  0.1487  0.2920  0.5344
  476MOL0     H64205   7.365   4.558   1.577 -0.3858 -2.5789  0.7223
  476MOL0     H64206   7.238   4.596   1.459  1.1985 -0.9151 -1.1831
  476MOL0     H64207   7.302   4.805   1.561  3.1327 -2.0929 -0.5428
  476MOL0     H64208   7.138   4.758   1.635 -1.5077 -2.7588 -2.8621
  476MOL0     H64209   7.273   4.715   1.846  0.5826 -2.5860 -2.6223
  476MOL0     H64210   7.304   4.863   1.794  0.4202  0.2953  3.2999
  476MOL0     H64211   7.537   4.900   1.645 -0.2372  0.2146  0.9172
  476MOL0     H64212   7.840   4.710   1.641 -2.3379 -2.0188  1.4763
  476MOL0     H64213   7.812   4.890   1.628 -1.4346  1.7901  3.1154
  476MOL0     H64214   7.911   4.750   1.869 -0.2887  0.0873 -0.7237
  476MOL0     H64215   7.870   4.920   1.878  1.6145  0.0835  1.2313
  476MOL0     H64216   8.023   4.974   1.680  4.3844  0.3265 -0.4889
  476MOL0     H64217   8.071   4.804   1.696 -2.9976 -0.7823 -0.0375
  476MOL0     H64218   8.229   4.961   1.791 -1.5613 -0.7923 -3.0518
  476MOL0     H64219   8.168   4.840   1.914 -2.2745  1.2792  1.2053
  476MOL0     H64220   8.364   5.025   2.013  1.1001  0.0188 -4.4496
  476MOL0     H64221   8.612   5.289   2.086 -1.8992  0.4793 -2.4910
  476MOL0     H64222   8.518   5.227   2.221  0.3710 -0.6435  0.4059
  476MOL0     H64223   8.586   5.120   2.089 -0.3916 -1.4936  0.8546
  476MOL0     H64224   8.395   5.713   1.774  1.6880 -2.5446  0.0612
  476MOL0     H64225   8.485   5.948   1.719  1.9580 -0.6787 -2.2996
  476MOL0     H64226   8.652   6.187   2.084  1.6297  1.3861 -0.2236
  476MOL0     H64227   8.771   6.131   1.967  0.2196 -0.4746 -1.1738
  476MOL0     H64228   8.724   6.307   1.808 -0.5523  2.5668 -1.0159
  476MOL0     H64229   8.616   6.374   1.935 -0.3080  0.0603 -3.6976
  476MOL0     H64230   8.910   6.290   1.953  0.4397 -0.3871  2.5109
  476MOL0     H64231   8.830   6.360   2.079  2.8632 -1.6766 -0.6374
  476MOL0     H64232   8.965   6.527   1.905  0.7551 -1.9671 -3.3600
  476MOL0     H64233   8.815   6.505   1.809 -0.7628 -1.2399  0.1971
  476MOL0     H64234   8.706   6.649   1.910  0.5366 -0.9313 -1.0262
  476MOL0     H64235   8.843   6.713   2.004 -1.9719  1.0968  2.1081
  476MOL0     H64236   8.650   6.512   2.119  3.2196 -1.8688 -2.4354
  476MOL0     H64237   8.806   6.553   2.181  0.4812  0.8039  0.7097
  476MOL0     H64238   8.560   6.728   2.116  1.2096 -0.8722 -2.6094
  476MOL0     H64239   8.713   6.802   2.165  0.2714 -0.5398 -0.1335
  476MOL0     H64240   8.719   6.714   2.376 -0.2074 -0.3825  0.8589
  476MOL0     H64241   8.561   6.625   2.356 -0.4661  1.8094  0.4301
  476MOL0     H64242   8.617   5.954   2.143 -0.4650 -2.3676  1.5800
  476MOL0     H64243   8.531   5.727   2.173 -2.4002  1.9299  0.7000
  476MOL0     H64244   8.166   5.479   1.989 -2.8579 -1.2113 -1.2567
  476MOL0     H64245   8.036   5.293   1.930  0.5170 -2.2354 -0.9193
  476MOL0     H64246   7.261   4.193   1.983 -0.5747  0.2158 -1.6849
  476MOL0     H64247   7.263   4.059   2.179  0.3484  0.0856 -0.6107
  476MOL0     H64248   7.198   3.641   2.372 -0.6447  4.0174  0.3731
  476MOL0     H64249   7.190   3.561   2.600  0.5051 -3.3367  0.0604
  476MOL0     H64250   7.248   3.378   2.725 -1.7434  1.2631 -1.3125
  476MOL0     H64251   7.347   3.360   2.868 -1.4634 -0.2384 -0.3429
  476MOL0     H64252   7.173   3.602   2.799 -1.5515 -1.4842 -0.1692
  476MOL0     H64253   7.238   3.562   2.961 -0.7922 -0.8181  0.0319
  476MOL0     H64254   7.092   3.380   2.985  0.0990  0.3527 -0.2174
  476MOL0     H64255   7.023   3.391   2.826  2.3558 -2.1924  0.1164
  476MOL0     H64256   6.959   3.634   2.863  0.9076  0.0233 -0.5226
  476MOL0     H64257   6.981   3.624   3.031 -2.2318  0.1383  0.0412
  476MOL0     H64258   6.622   3.410   2.984  0.0855 -0.4866 -0.2172
  476MOL0     H64259   7.607   3.627   2.655 -1.0533  1.8997  1.8727
  476MOL0     H64260   7.615   3.730   2.435 -1.1225  0.8192 -1.9630
  477MOL0     O64261   6.921   8.738   7.900  1.1424 -0.8481 -0.4725
  477MOL0     C64262   7.027   8.714   7.955  0.7415  0.6991  0.8712
  477MOL0     O64263   7.071   8.740   8.083 -0.8939 -1.0835  0.4116
  477MOL0     C64264   6.979   8.794   8.166  0.7721  0.0046 -0.8430
  477MOL0     C64265   6.859   8.735   8.187  0.2522  0.6694 -0.5262
  477MOL0     C64266   6.756   8.796   8.261  0.9973 -0.3157 -0.1284
  477MOL0     C64267   6.777   8.926   8.313  0.0687 -0.2511 -0.6879
  477MOL0     O64268   6.687   9.011   8.368  0.1506 -0.3804 -0.1429
  477MOL0     C64269   6.547   8.971   8.372 -0.2032  0.2043 -0.3102
  477MOL0     C64270   6.458   9.099   8.406 -0.3577  0.1906  0.6567
  477MOL0     C64271   6.317   9.062   8.384 -0.6818  0.5517  0.7875
  477MOL0     C64272   6.220   9.159   8.450  1.4480  0.6422 -0.7477
  477MOL0     C64273   6.086   9.092   8.475 -1.3239  0.2786 -1.3557
  477MOL0     C64274   5.976   9.197   8.508 -1.5742 -0.9525  0.7292
  477MOL0     C64275   5.838   9.131   8.557  0.2690 -0.3197  0.4129
  477MOL0     C64276   5.758   9.068   8.445  1.1018  0.0068  0.2520
  477MOL0     N64277   5.680   8.953   8.484 -0.0658 -0.3607 -0.3935
  477MOL0     C64278   5.737   8.834   8.531  0.9522  0.0188  0.0764
  477MOL0     C64279   5.624   8.757   8.552 -0.3730  0.3532  0.6882
  477MOL0     C64280   5.645   8.609   8.593 -0.6599  1.3528  1.5289
  477MOL0     C64281   5.566   8.514   8.498  0.4231  1.4265  1.0267
  477MOL0     C64282   5.410   8.522   8.501 -0.7188  0.2339 -0.0754
  477MOL0     C64283   5.345   8.555   8.636 -0.5572  1.2870  0.0025
  477MOL0     O64284   5.208   8.544   8.625  0.9721 -0.1544  0.0434
  477MOL0     C64285   5.133   8.653   8.621  1.3249 -0.6974 -0.9267
  477MOL0     C64286   5.011   8.627   8.559 -0.4072  0.4521  0.0602
  477MOL0     C64287   4.919   8.720   8.532  0.0997 -0.2040  0.3143
  477MOL0     C64288   4.792   8.659   8.464 -1.0949 -0.6120 -0.1603
  477MOL0     C64289   4.946   8.855   8.560  0.6226 -0.7819 -0.6041
  477MOL0     C64290   4.847   8.965   8.538  0.3564  0.6065 -0.1320
  477MOL0     O64291   4.764   8.963   8.430 -0.5143  0.1550 -0.4410
  477MOL0     C64292   4.691   9.071   8.395  0.8506  0.1648 -0.8864
  477MOL0     C64293   4.768   9.180   8.356  0.7863 -0.6222 -0.6107
  477MOL0     C64294   4.699   9.295   8.310  0.1712  0.1490  0.0945
  477MOL0     C64295   4.563   9.296   8.288 -0.3307  0.0322  0.1465
  477MOL0     O64296   4.486   9.385   8.220 -0.5660  0.1502  0.4906
  477MOL0     C64297   4.544   9.497   8.161 -0.3541  0.6776  0.6498
  477MOL0     C64298   4.456   9.620   8.140  0.4097  0.4349  0.6720
  477MOL0     C64299   4.312   9.578   8.111 -0.9650  0.8114  0.2957
  477MOL0     C64300   4.222   9.704   8.096  0.7605 -0.2930 -0.0738
  477MOL0     C64301   4.074   9.669   8.103  0.4793 -0.2742 -0.3978
  477MOL0     C64302   3.971   9.782   8.058  0.8159 -0.0896  0.2881
  477MOL0     C64303   3.981   9.822   7.903  0.5077 -0.1981 -1.0286
  477MOL0     C64304   3.875   9.919   7.856  0.1294  0.2931 -0.1193
  477MOL0    Cl64305   3.896  10.080   7.928  0.3851 -0.1543  0.5394
  477MOL0     C64306   4.490   9.188   8.332  0.3646 -0.4454 -0.1751
  477MOL0     C64307   4.553   9.074   8.388  0.5871 -0.0573  0.1344
  477MOL0     O64308   4.847   9.056   8.624  0.7870  0.1139  0.2073
  477MOL0     C64309   5.065   8.882   8.623  0.4446  0.0272 -1.1951
  477MOL0     C64310   5.157   8.784   8.652 -0.0235  0.4325  0.5082
  477MOL0     N64311   5.510   8.821   8.520 -0.4562 -0.2625  0.0770
  477MOL0     N64312   5.547   8.942   8.489  0.5154  0.0211  0.2190
  477MOL0     C64313   6.900   8.985   8.281  0.1758 -1.0603 -0.8390
  477MOL0     C64314   7.007   8.914   8.213  0.5757 -0.2152 -0.2254
  477MOL0     C64315   7.126   8.637   7.874  0.9675 -0.3814  0.1532
  477MOL0     C64316   7.083   8.547   7.774 -0.1967 -1.1202 -0.7866
  477MOL0     C64317   7.186   8.474   7.709  0.6450  0.2278  0.7684
  477MOL0     C64318   7.320   8.491   7.735 -0.3650  0.0573  1.2407
  477MOL0     O64319   7.420   8.431   7.660  0.1607  0.2131 -0.2268
  477MOL0     C64320   7.387   8.321   7.574  0.7433 -0.1519  0.5833
  477MOL0     C64321   7.361   8.187   7.657 -0.0079  1.0515  0.4765
  477MOL0     C64322   7.336   8.077   7.556  0.0248 -0.1585  0.1195
  477MOL0     C64323   7.338   7.933   7.607 -0.4324 -0.0288 -0.0289
  477MOL0     C64324   7.334   7.841   7.491  1.0096 -0.6378 -0.0859
  477MOL0     C64325   7.331   7.768   7.402 -0.2049 -0.1091 -0.6729
  477MOL0     C64326   7.358   8.589   7.821  1.0669 -0.0102 -0.3980
  477MOL0     C64327   7.262   8.662   7.891 -0.1584  1.2281  0.0267
  477MOL0     H64328   6.834   8.634   8.158  1.2890  0.4006 -0.5248
  477MOL0     H64329   6.660   8.749   8.279  1.0214 -1.8272 -3.3333
  477MOL0     H64330   6.515   8.932   8.275  0.1300  2.5176 -1.4302
  477MOL0     H64331   6.524   8.900   8.452 -1.9386  3.3702  2.2410
  477MOL0     H64332   6.477   9.118   8.512  1.1552  1.4622  0.1944
  477MOL0     H64333   6.473   9.194   8.353 -0.8731 -0.1717 -0.1642
  477MOL0     H64334   6.309   9.064   8.275  0.6637  1.1825  0.6698
  477MOL0     H64335   6.307   8.964   8.430 -1.4882  0.4205  0.3380
  477MOL0     H64336   6.267   9.198   8.541  0.4369 -1.8225  0.9458
  477MOL0     H64337   6.200   9.242   8.382  0.1283  0.9835  0.0211
  477MOL0     H64338   6.050   9.028   8.394 -2.9839 -1.8540  0.9112
  477MOL0     H64339   6.110   9.029   8.560  1.9051  2.5805 -0.3879
  477MOL0     H64340   6.008   9.249   8.599 -2.7283 -1.5127  1.4875
  477MOL0     H64341   5.972   9.265   8.422 -0.1039 -3.3771 -1.4003
  477MOL0     H64342   5.853   9.057   8.637 -1.6510 -0.5265  0.6254
  477MOL0     H64343   5.775   9.212   8.594 -1.0435 -0.1534 -1.9617
  477MOL0     H64344   5.827   9.031   8.368  0.3003 -3.3250  1.0033
  477MOL0     H64345   5.693   9.149   8.409 -1.0011 -1.6003  0.2395
  477MOL0     H64346   5.844   8.818   8.532  1.2452  1.5624 -1.5943
  477MOL0     H64347   5.749   8.578   8.608  0.3159  4.0959  1.0318
  477MOL0     H64348   5.595   8.598   8.690 -0.1762 -2.7130  1.5052
  477MOL0     H64349   5.600   8.412   8.519 -1.3252  0.4799 -0.5376
  477MOL0     H64350   5.602   8.517   8.395 -2.3137 -0.3822 -0.0825
  477MOL0     H64351   5.371   8.425   8.468 -1.1466  0.5876 -0.6230
  477MOL0     H64352   5.391   8.606   8.434  0.9504  1.6512  1.1538
  477MOL0     H64353   5.380   8.655   8.663  1.9944  0.1959  1.0604
  477MOL0     H64354   5.388   8.488   8.711 -1.3240  0.4462 -0.2893
  477MOL0     H64355   4.986   8.524   8.533 -0.6240  0.5272 -0.0237
  477MOL0     H64356   4.775   8.554   8.490 -1.3405  0.0849  2.8965
  477MOL0     H64357   4.710   8.724   8.497  0.1432  0.5007  0.8120
  477MOL0     H64358   4.804   8.661   8.355  2.1070  1.7941  0.1166
  477MOL0     H64359   4.876   9.177   8.358  0.8888 -0.0472  3.6068
  477MOL0     H64360   4.757   9.382   8.280 -0.4495  0.7936  0.7322
  477MOL0     H64361   4.636   9.531   8.210  1.1274  0.5849 -1.9039
  477MOL0     H64362   4.579   9.456   8.066  1.7273 -0.8120  1.9722
  477MOL0     H64363   4.449   9.675   8.234 -0.2797 -1.4289  1.7682
  477MOL0     H64364   4.502   9.682   8.063 -0.1007 -2.1878 -1.9020
  477MOL0     H64365   4.274   9.509   8.186  1.1892 -2.5084 -1.4463
  477MOL0     H64366   4.302   9.524   8.016  3.3946 -0.1248  0.1749
  477MOL0     H64367   4.252   9.746   8.193  0.2080 -1.2876  0.5406
  477MOL0     H64368   4.239   9.769   8.009 -1.4397  2.9892  1.7131
  477MOL0     H64369   4.041   9.642   8.203 -0.9051  1.1726 -0.4342
  477MOL0     H64370   4.060   9.579   8.042  2.2909  0.8094 -2.5544
  477MOL0     H64371   3.864   9.762   8.074  0.5050  0.9083 -0.4032
  477MOL0     H64372   3.999   9.865   8.124  3.1696 -1.4209  1.0724
  477MOL0     H64373   3.962   9.724   7.856  0.7208 -2.1827  2.6368
  477MOL0     H64374   4.076   9.867   7.874  0.8336  2.0324  2.8662
  477MOL0     H64375   3.778   9.871   7.866  1.4812 -2.5619  0.4242
  477MOL0     H64376   3.891   9.937   7.749 -0.7117 -0.9399 -0.4674
  477MOL0     H64377   4.385   9.180   8.305  0.3627 -3.4199  0.3684
  477MOL0     H64378   4.491   8.990   8.417 -1.0211  0.4893 -1.5345
  477MOL0     H64379   5.089   8.988   8.633 -2.9579  0.8365 -0.2486
  477MOL0     H64380   5.250   8.801   8.706  1.6624 -1.9571 -1.4255
  477MOL0     H64381   6.922   9.085   8.314 -0.2701 -1.3143  0.2553
  477MOL0     H64382   7.103   8.951   8.177  0.6336  0.7301  0.8398
  477MOL0     H64383   6.976   8.546   7.759 -0.4157  0.2095  0.4785
  477MOL0     H64384   7.162   8.422   7.616  0.7579  0.2945  0.7021
  477MOL0     H64385   7.301   8.339   7.508 -0.0553  0.5638  1.7847
  477MOL0     H64386   7.478   8.307   7.515  0.7267  0.0019  0.5201
  477MOL0     H64387   7.270   8.191   7.718  0.7168 -1.6144  1.8694
  477MOL0     H64388   7.451   8.169   7.717  1.6777  1.9184 -1.6884
  477MOL0     H64389   7.414   8.081   7.480 -1.6603  1.7809 -1.6214
  477MOL0     H64390   7.240   8.091   7.505 -1.1259  2.8193  2.7562
  477MOL0     H64391   7.255   7.917   7.677 -0.6141 -2.6803 -0.7253
  477MOL0     H64392   7.436   7.921   7.655  0.6725 -1.1318 -2.4195
  477MOL0     H64393   7.345   7.703   7.318  3.4774 -0.5308  0.1101
  477MOL0     H64394   7.465   8.604   7.837  1.1926 -1.6114  0.4970
  477MOL0     H64395   7.303   8.737   7.959 -0.8972  3.1842 -1.5957
  478MOL0     O64396   8.118  10.596   9.924 -0.4895 -0.0031 -0.3002
  478MOL0     C64397   8.032  10.541   9.982  0.6009 -0.2309  0.0898
  478MOL0     O64398   7.901  10.589   9.984 -0.2914  0.5529 -0.2897
  478MOL0     C64399   7.869  10.684   9.886 -1.1939  0.2940 -0.3510
  478MOL0     C64400   7.774  10.783   9.921  0.3756  0.2920  0.0657
  478MOL0     C64401   7.736  10.874   9.814  0.3943 -0.9350 -0.9048
  478MOL0     C64402   7.782  10.862   9.682 -0.2861 -0.4385 -1.0590
  478MOL0     O64403   7.736  10.925   9.573  0.1790  0.0624 -0.3200
  478MOL0     C64404   7.647  11.038   9.597 -0.7887  0.9898 -0.7294
  478MOL0     C64405   7.600  11.073   9.456 -0.1984  0.2684  0.5064
  478MOL0     C64406   7.482  11.170   9.478 -0.1051  0.0415  0.9229
  478MOL0     C64407   7.437  11.230   9.351  0.0260 -0.2186 -0.6492
  478MOL0     C64408   7.299  11.299   9.369 -1.0473 -0.1217  0.0410
  478MOL0     C64409   7.318  11.447   9.431  0.6080  0.2869 -0.9803
  478MOL0     C64410   7.181  11.524   9.446 -0.8002 -0.3392  0.7118
  478MOL0     C64411   7.175  11.668   9.496  1.4128  1.0450  1.1689
  478MOL0     N64412   7.259  11.760   9.415  0.5851  0.5977 -0.9737
  478MOL0     C64413   7.248  11.785   9.279 -0.5536  1.6134  0.6083
  478MOL0     C64414   7.341  11.877   9.252 -0.1855 -0.2776 -0.3917
  478MOL0     C64415   7.370  11.942   9.121  0.7428 -0.8233  0.2555
  478MOL0     C64416   7.241  11.997   9.069  0.0756 -0.2111 -0.0368
  478MOL0     C64417   7.161  12.097   9.166 -0.4967 -0.1876 -0.1679
  478MOL0     C64418   7.041  12.157   9.085  0.4633  0.1741 -0.1762
  478MOL0     O64419   6.969  12.234   9.180  0.0781 -0.4356 -0.4897
  478MOL0     C64420   6.901  12.346   9.136 -0.5020 -0.6880 -0.4233
  478MOL0     C64421   6.943  12.477   9.175 -0.2816  0.4547 -0.4195
  478MOL0     C64422   6.871  12.595   9.146  0.0220  1.0880  0.0887
  478MOL0     C64423   6.888  12.716   9.229  0.2930  0.2909  0.6643
  478MOL0     C64424   6.779  12.588   9.034  0.3461 -0.0457  0.1866
  478MOL0     C64425   6.698  12.697   8.978  0.2878 -0.7208 -0.1734
  478MOL0     O64426   6.580  12.671   8.918  0.0229 -0.1603 -0.0591
  478MOL0     C64427   6.484  12.772   8.906 -0.8623  0.3985 -0.1863
  478MOL0     C64428   6.505  12.864   8.800  0.4024  0.4359 -1.4660
  478MOL0     C64429   6.401  12.962   8.772  0.0489  0.8741 -0.8153
  478MOL0     C64430   6.279  12.958   8.834 -0.7160 -0.8754 -0.0785
  478MOL0     O64431   6.189  13.064   8.831  0.0032 -0.7339 -0.4153
  478MOL0     C64432   6.136  13.090   8.702  0.9355 -0.3360  0.4777
  478MOL0     C64433   6.044  13.221   8.708  0.3970 -0.5853  0.2524
  478MOL0     C64434   5.949  13.250   8.580 -0.2726  0.6374  0.2195
  478MOL0     C64435   6.026  13.247   8.445  0.2129 -0.5887 -0.5551
  478MOL0     C64436   5.944  13.270   8.319 -1.2031 -0.4354  0.1500
  478MOL0     C64437   5.834  13.167   8.282 -0.3208 -0.3942  0.3094
  478MOL0     C64438   5.889  13.030   8.235  0.3417 -0.1796 -0.2059
  478MOL0     C64439   5.790  12.991   8.121 -0.9658 -0.6631  0.8386
  478MOL0    Cl64440   5.786  12.816   8.104 -0.1991 -0.1073 -0.3076
  478MOL0     C64441   6.277  12.874   8.939 -0.2869 -0.3563 -0.0918
  478MOL0     C64442   6.368  12.781   8.983 -0.5723  0.4358  0.4773
  478MOL0     O64443   6.738  12.807   8.988 -0.0831 -0.4489 -0.6733
  478MOL0     C64444   6.761  12.463   8.972 -0.5536  0.3054  0.5186
  478MOL0     C64445   6.812  12.343   9.022  0.2809 -0.4141 -0.3280
  478MOL0     N64446   7.405  11.901   9.374  0.2881  0.4090  0.2711
  478MOL0     N64447   7.353  11.830   9.472 -0.6621 -0.0949  0.2807
  478MOL0     C64448   7.869  10.760   9.659  0.6706  1.4239  0.0443
  478MOL0     C64449   7.921  10.671   9.752 -0.6066  0.0284 -0.0783
  478MOL0     C64450   8.073  10.427  10.070 -0.5391 -0.1628 -0.2001
  478MOL0     C64451   8.189  10.349  10.031 -0.0816 -0.6510 -0.4254
  478MOL0     C64452   8.241  10.245  10.106  0.0810  0.4460 -0.3416
  478MOL0     C64453   8.166  10.195  10.213 -0.1093 -0.8749  1.0520
  478MOL0     O64454   8.193  10.082  10.274  0.2695  0.5212 -0.2669
  478MOL0     C64455   8.258   9.967  10.217  0.4010 -0.0037 -0.2077
  478MOL0     C64456   8.169   9.898  10.107 -0.5482 -0.2210 -0.3232
  478MOL0     C64457   8.022   9.859  10.140 -0.9212 -0.4820 -0.1980
  478MOL0     C64458   7.974   9.750  10.035  0.4859  1.2614 -0.4646
  478MOL0     C64459   7.836   9.695  10.051 -0.3827  1.0164 -0.2894
  478MOL0     C64460   7.730   9.640  10.054  1.4653  0.4940  0.5929
  478MOL0     C64461   8.041  10.261  10.248  0.8460 -0.2938 -0.0311
  478MOL0     C64462   7.996  10.370  10.176 -0.6913 -0.4619 -0.2779
  478MOL0     H64463   7.715  10.792  10.012 -1.9687 -1.5857 -1.1233
  478MOL0     H64464   7.666  10.952   9.842  2.3484  0.6549 -0.2380
  478MOL0     H64465   7.565  10.999   9.659 -0.1552  0.0442 -0.4647
  478MOL0     H64466   7.692  11.123   9.650 -0.5562 -0.5771  1.7397
  478MOL0     H64467   7.682  11.118   9.400 -0.4583 -1.7551 -1.6595
  478MOL0     H64468   7.568  10.984   9.401  0.2274  0.4883 -0.1044
  478MOL0     H64469   7.405  11.110   9.527 -1.0637 -0.1317 -0.7416
  478MOL0     H64470   7.499  11.249   9.553 -6.8990  0.9483  2.1815
  478MOL0     H64471   7.511  11.308   9.329  2.0143 -1.6710  0.4955
  478MOL0     H64472   7.436  11.147   9.280  3.4092 -0.5162 -0.5506
  478MOL0     H64473   7.265  11.298   9.266 -0.1819 -3.6966 -0.3582
  478MOL0     H64474   7.226  11.233   9.418 -1.6277  1.3403  1.2099
  478MOL0     H64475   7.353  11.433   9.534 -2.5411  1.8735  0.4415
  478MOL0     H64476   7.393  11.498   9.371  2.0129 -1.2657 -0.6159
  478MOL0     H64477   7.114  11.521   9.359  0.1982 -1.4589 -0.0683
  478MOL0     H64478   7.125  11.471   9.523  0.8989 -1.6305  1.1060
  478MOL0     H64479   7.184  11.672   9.605 -2.2313 -1.3581  1.7274
  478MOL0     H64480   7.075  11.700   9.468  1.3127  0.7136  1.1444
  478MOL0     H64481   7.179  11.728   9.218  1.4163  1.4526 -1.6197
  478MOL0     H64482   7.438  12.026   9.136 -2.5852  2.0563  0.6889
  478MOL0     H64483   7.395  11.856   9.058 -3.7043 -2.3460  0.1672
  478MOL0     H64484   7.168  11.917   9.054  0.8540 -0.8476 -0.5117
  478MOL0     H64485   7.263  12.055   8.979 -0.6773  3.6730  2.0394
  478MOL0     H64486   7.217  12.187   9.190 -0.5688  0.0984 -1.0356
  478MOL0     H64487   7.134  12.053   9.263 -3.8005  3.5820  0.9318
  478MOL0     H64488   6.976  12.074   9.058  0.5277  0.3368 -0.8361
  478MOL0     H64489   7.075  12.210   8.996 -0.5110  0.6338 -0.2824
  478MOL0     H64490   7.005  12.498   9.262 -0.7294 -2.4910  0.7270
  478MOL0     H64491   6.933  12.681   9.322 -1.0431 -1.6738  0.6366
  478MOL0     H64492   6.956  12.774   9.166 -0.8818 -2.3167 -3.3664
  478MOL0     H64493   6.797  12.778   9.236  0.9312  1.1660  1.4692
  478MOL0     H64494   6.591  12.859   8.734  2.0856 -3.5800  0.6894
  478MOL0     H64495   6.418  13.037   8.695 -0.7228  0.7119 -1.1561
  478MOL0     H64496   6.213  13.116   8.629  0.2635  0.4154  0.0269
  478MOL0     H64497   6.087  13.005   8.654 -0.7344  1.0544 -0.4014
  478MOL0     H64498   5.979  13.200   8.794  2.2231  0.3407  1.9414
  478MOL0     H64499   6.109  13.306   8.731  0.0959 -0.7808  1.9790
  478MOL0     H64500   5.896  13.344   8.602  1.6959  0.8388  5.5974
  478MOL0     H64501   5.887  13.161   8.594  3.5059 -2.1615  0.7066
  478MOL0     H64502   6.103  13.325   8.441  0.8260 -1.0846  0.8137
  478MOL0     H64503   6.076  13.151   8.433  0.2897 -0.9270  1.9045
  478MOL0     H64504   6.011  13.284   8.234  0.2143  2.8697  1.6321
  478MOL0     H64505   5.898  13.366   8.344  0.6257  0.5627 -0.1789
  478MOL0     H64506   5.751  13.159   8.353  0.8880 -0.8330  1.7166
  478MOL0     H64507   5.782  13.212   8.197  0.1186 -1.5910 -0.6254
  478MOL0     H64508   5.886  12.965   8.323 -1.2689 -1.5800 -1.2321
  478MOL0     H64509   5.990  13.046   8.197 -0.5780  1.6220 -2.0803
  478MOL0     H64510   5.799  13.049   8.029  0.3111  0.4713  1.6430
  478MOL0     H64511   5.690  13.010   8.160 -0.8435 -2.0450  1.8975
  478MOL0     H64512   6.190  12.884   9.003 -0.7550 -0.0230 -0.7787
  478MOL0     H64513   6.356  12.718   9.071  3.4021 -0.7256  0.3904
  478MOL0     H64514   6.694  12.461   8.887  0.9693  1.9202 -0.8198
  478MOL0     H64515   6.784  12.248   8.977 -0.4857 -1.2392  1.7722
  478MOL0     H64516   7.893  10.731   9.558 -2.6189  2.0062 -1.0278
  478MOL0     H64517   7.973  10.582   9.719 -0.0171  0.3333  0.0187
  478MOL0     H64518   8.247  10.376   9.943  2.6616  0.5601  1.6087
  478MOL0     H64519   8.334  10.195  10.085 -0.9590 -0.5625 -2.8932
  478MOL0     H64520   8.347   9.987  10.157 -1.0498 -0.9589 -2.8353
  478MOL0     H64521   8.290   9.899  10.296 -0.4883  0.9767  1.0359
  478MOL0     H64522   8.222   9.805  10.083  4.1975  1.4380  2.2358
  478MOL0     H64523   8.171   9.957  10.016 -0.8940  1.9437  1.0065
  478MOL0     H64524   7.947   9.936  10.120 -1.3686 -0.9703 -0.4210
  478MOL0     H64525   8.015   9.823  10.243 -1.3887  1.6244  0.5546
  478MOL0     H64526   8.036   9.664  10.061 -0.0904  2.0556  4.5117
  478MOL0     H64527   7.978   9.801   9.939 -2.5649  1.0835 -0.7838
  478MOL0     H64528   7.637   9.588  10.043  0.1555  2.5632  1.2408
  478MOL0     H64529   7.988  10.211  10.329 -2.1749  0.4417 -1.4154
  478MOL0     H64530   7.903  10.423  10.196 -1.5364 -0.9454 -2.5965
  479MOL0     O64531   1.286   4.839   0.372 -0.4003 -0.2356  0.6270
  479MOL0     C64532   1.252   4.722   0.351 -0.1849 -0.5334  0.2522
  479MOL0     O64533   1.271   4.653   0.234  0.5133  0.3760  0.2376
  479MOL0     C64534   1.324   4.719   0.122  0.3048  0.5898  0.0197
  479MOL0     C64535   1.282   4.842   0.073 -0.4337  0.2200 -0.0586
  479MOL0     C64536   1.342   4.899  -0.043 -0.7016  0.6873  0.1755
  479MOL0     C64537   1.454   4.833  -0.107  0.9051 -0.7057  0.0723
  479MOL0     O64538   1.501   4.871  -0.230 -0.5566 -1.0337 -0.7277
  479MOL0     C64539   1.635   4.936  -0.220  0.4463 -0.2086 -0.7312
  479MOL0     C64540   1.659   4.989  -0.366  0.0769 -0.2511  0.2879
  479MOL0     C64541   1.763   5.106  -0.365  0.7184  0.5055 -0.4094
  479MOL0     C64542   1.691   5.230  -0.308 -0.2309 -0.0766 -0.1797
  479MOL0     C64543   1.780   5.362  -0.305 -0.5116 -0.2976  0.2207
  479MOL0     C64544   1.779   5.413  -0.449  0.1466  0.4187  0.6427
  479MOL0     C64545   1.867   5.540  -0.475  0.2521  0.4313 -0.5011
  479MOL0     C64546   2.015   5.527  -0.444 -0.3190 -0.5892  0.2772
  479MOL0     N64547   2.112   5.555  -0.555  0.9398  0.6145  0.3911
  479MOL0     C64548   2.142   5.472  -0.655  0.9119 -0.3824 -1.3096
  479MOL0     C64549   2.228   5.536  -0.729 -0.4797 -0.1973 -0.3133
  479MOL0     C64550   2.280   5.492  -0.866 -0.0268  0.0886  0.2129
  479MOL0     C64551   2.423   5.442  -0.852  0.5567  0.1890 -0.3667
  479MOL0     C64552   2.517   5.522  -0.768 -0.2501  0.8131  0.2789
  479MOL0     C64553   2.660   5.454  -0.767 -0.0176  0.8482 -0.7804
  479MOL0     O64554   2.739   5.506  -0.873  0.5906 -0.7395 -0.3441
  479MOL0     C64555   2.826   5.603  -0.825 -0.1491  0.6991  0.4715
  479MOL0     C64556   2.791   5.733  -0.805  0.0771 -0.1807 -0.5118
  479MOL0     C64557   2.887   5.808  -0.740 -0.0402  0.5725 -0.6592
  479MOL0     C64558   2.859   5.951  -0.696  0.1919  0.3307 -0.8031
  479MOL0     C64559   3.011   5.747  -0.694 -0.3867 -0.1460 -0.7137
  479MOL0     C64560   3.108   5.816  -0.600  0.8504 -0.7846  0.4153
  479MOL0     O64561   3.106   5.764  -0.480 -0.1926 -0.0130  0.2143
  479MOL0     C64562   3.202   5.798  -0.378  0.1930  0.3268  0.0066
  479MOL0     C64563   3.257   5.922  -0.357  0.5178 -0.7555  0.6265
  479MOL0     C64564   3.335   5.948  -0.242  0.5719  0.7189  0.3973
  479MOL0     C64565   3.353   5.852  -0.139  0.3406 -0.3138  0.4870
  479MOL0     O64566   3.441   5.889  -0.036 -0.4071 -0.0762  0.1333
  479MOL0     C64567   3.453   5.792   0.077  0.5975 -0.3325  0.0101
  479MOL0     C64568   3.477   5.878   0.210  0.3927  0.0372 -0.0633
  479MOL0     C64569   3.360   5.958   0.264 -0.1777 -0.2112  0.4443
  479MOL0     C64570   3.231   5.869   0.295 -0.7618 -0.1418 -0.1485
  479MOL0     C64571   3.151   5.935   0.405  0.6811  0.2354  0.3708
  479MOL0     C64572   3.054   5.835   0.464 -0.1646  0.2282  0.5890
  479MOL0     C64573   3.004   5.860   0.603 -0.3616  0.8020 -0.4439
  479MOL0     C64574   2.921   5.996   0.610  0.1145  0.7063  0.5007
  479MOL0    Cl64575   2.801   6.007   0.476 -0.2711 -0.1983  0.4415
  479MOL0     C64576   3.297   5.732  -0.165  1.0851  0.3840  0.4001
  479MOL0     C64577   3.221   5.706  -0.281 -1.3662  0.5023  0.2030
  479MOL0     O64578   3.178   5.905  -0.641  0.1873  0.0124  0.3421
  479MOL0     C64579   3.040   5.619  -0.730 -0.0324  1.0773  0.7848
  479MOL0     C64580   2.947   5.543  -0.797 -0.4429  0.3111 -0.1531
  479MOL0     N64581   2.254   5.660  -0.679  0.4064  1.2078 -0.0617
  479MOL0     N64582   2.182   5.671  -0.572 -0.0231 -0.3290 -0.0212
  479MOL0     C64583   1.496   4.714  -0.047 -0.4755  0.6285 -0.3780
  479MOL0     C64584   1.426   4.652   0.058  0.1700 -0.4838 -0.6843
  479MOL0     C64585   1.187   4.648   0.458  0.3017 -1.4315  0.7748
  479MOL0     C64586   1.103   4.718   0.549 -0.2827 -0.0311  0.5844
  479MOL0     C64587   1.060   4.665   0.667 -0.1641  0.3782  0.4078
  479MOL0     C64588   1.110   4.538   0.703 -0.0537  0.3290 -0.5695
  479MOL0     O64589   1.073   4.482   0.820  0.0496 -0.3578 -1.0151
  479MOL0     C64590   0.933   4.468   0.842 -0.3714  0.1286  1.0888
  479MOL0     C64591   0.886   4.364   0.746  0.6649  0.5011 -0.7721
  479MOL0     C64592   0.743   4.310   0.793 -0.1815 -0.4356 -0.1883
  479MOL0     C64593   0.633   4.404   0.811  0.0166 -0.4514  0.5293
  479MOL0     C64594   0.607   4.505   0.706  0.9856  0.5227 -0.1766
  479MOL0     C64595   0.610   4.583   0.619  0.0962 -0.8393 -0.1777
  479MOL0     C64596   1.203   4.467   0.618 -0.9478 -0.7712 -0.7405
  479MOL0     C64597   1.235   4.527   0.494  0.5206 -0.3510  0.1651
  479MOL0     H64598   1.205   4.901   0.121  0.5239  4.3874 -3.0811
  479MOL0     H64599   1.307   4.991  -0.087 -0.8850  0.0181 -1.1268
  479MOL0     H64600   1.627   5.019  -0.150  0.9373  1.9209 -3.0264
  479MOL0     H64601   1.721   4.877  -0.184 -0.2399 -1.2811 -0.7987
  479MOL0     H64602   1.694   4.906  -0.428 -2.0439 -1.3326  0.4463
  479MOL0     H64603   1.561   5.015  -0.407 -0.9976 -2.1986  1.4481
  479MOL0     H64604   1.862   5.086  -0.322  0.0131 -1.9187  0.2530
  479MOL0     H64605   1.790   5.127  -0.469  0.1119 -0.9126 -0.8781
  479MOL0     H64606   1.601   5.249  -0.368  1.9981 -1.1852 -4.2481
  479MOL0     H64607   1.663   5.206  -0.205 -1.5224 -2.3936 -0.9918
  479MOL0     H64608   1.717   5.423  -0.239 -2.5656 -2.6097  0.5570
  479MOL0     H64609   1.878   5.347  -0.259 -0.0674  1.0989 -0.2225
  479MOL0     H64610   1.803   5.333  -0.519  1.6322 -0.3069  1.9164
  479MOL0     H64611   1.675   5.435  -0.476 -0.5523 -3.4489 -0.3955
  479MOL0     H64612   1.859   5.578  -0.577 -0.3169  1.1328 -0.2018
  479MOL0     H64613   1.822   5.620  -0.414 -0.1197 -0.8817  1.0244
  479MOL0     H64614   2.033   5.425  -0.410  2.4767  1.2399  5.3620
  479MOL0     H64615   2.028   5.609  -0.373  1.1168  0.3023 -0.9550
  479MOL0     H64616   2.089   5.378  -0.672 -1.9586  1.0434 -0.9356
  479MOL0     H64617   2.223   5.406  -0.903  1.0149 -0.5093 -0.0598
  479MOL0     H64618   2.270   5.575  -0.936 -1.3663  1.7350  2.2360
  479MOL0     H64619   2.456   5.420  -0.954 -1.7406 -0.9752 -0.9305
  479MOL0     H64620   2.417   5.345  -0.801  1.8039  0.1601 -0.2465
  479MOL0     H64621   2.478   5.520  -0.666  0.2545  0.4337  0.4674
  479MOL0     H64622   2.522   5.630  -0.787  3.7670  0.9908  1.4090
  479MOL0     H64623   2.639   5.347  -0.777  2.0686  0.2284  0.8360
  479MOL0     H64624   2.715   5.470  -0.674  0.7421 -1.2497 -0.8212
  479MOL0     H64625   2.692   5.767  -0.833 -0.1758 -0.9817 -0.6194
  479MOL0     H64626   2.937   6.022  -0.723  0.7645  0.3529  0.7855
  479MOL0     H64627   2.772   5.980  -0.756 -0.0799  2.2105  0.4150
  479MOL0     H64628   2.843   5.961  -0.588  3.6971  2.8712 -0.3421
  479MOL0     H64629   3.241   5.997  -0.435  0.4034 -3.3242 -2.0050
  479MOL0     H64630   3.378   6.047  -0.244 -2.1403  2.0106 -1.1544
  479MOL0     H64631   3.359   5.738   0.093  1.0607 -0.7962  1.3241
  479MOL0     H64632   3.540   5.727   0.064  0.8601 -0.9885  3.7349
  479MOL0     H64633   3.510   5.809   0.287  1.3726  0.8663  0.2684
  479MOL0     H64634   3.558   5.947   0.186  0.5091 -0.2130 -0.4136
  479MOL0     H64635   3.327   6.029   0.188  2.3852 -0.0384 -0.5804
  479MOL0     H64636   3.400   6.008   0.353  3.1691  1.2638 -1.7174
  479MOL0     H64637   3.158   5.842   0.217 -0.4025  3.2137 -1.8470
  479MOL0     H64638   3.285   5.782   0.334  2.7832  0.5794 -2.8769
  479MOL0     H64639   3.100   6.025   0.370 -0.2155  0.5867  2.4348
  479MOL0     H64640   3.218   5.968   0.484 -1.8609 -0.3286  2.9289
  479MOL0     H64641   2.973   5.828   0.391  0.5619 -1.3489 -0.0969
  479MOL0     H64642   3.107   5.740   0.474 -1.8422 -1.3585 -3.4728
  479MOL0     H64643   3.085   5.853   0.675 -2.7096  0.2614  2.3359
  479MOL0     H64644   2.933   5.781   0.629  0.4383 -0.3733 -1.6856
  479MOL0     H64645   2.989   6.082   0.603 -0.0259  0.9710  2.1559
  479MOL0     H64646   2.881   6.004   0.711  0.8668  0.7795  0.8021
  479MOL0     H64647   3.293   5.650  -0.094  1.3037  0.0820  0.0685
  479MOL0     H64648   3.174   5.609  -0.294  0.1247 -0.2639  0.2383
  479MOL0     H64649   3.131   5.569  -0.697  0.3899 -0.8048 -2.7067
  479MOL0     H64650   2.968   5.437  -0.811 -0.4721 -0.1344  2.6518
  479MOL0     H64651   1.583   4.677  -0.101  0.2120  0.5792  0.7281
  479MOL0     H64652   1.468   4.558   0.093  1.2656  0.9275  2.0839
  479MOL0     H64653   1.079   4.821   0.524  1.2965  0.5228  1.2175
  479MOL0     H64654   0.987   4.720   0.726 -4.0061 -1.4943 -2.2024
  479MOL0     H64655   0.906   4.440   0.944  2.8178 -4.6031  0.9698
  479MOL0     H64656   0.888   4.564   0.814  2.9244  0.5848 -4.0160
  479MOL0     H64657   0.952   4.277   0.732  0.3689  0.3860 -1.5006
  479MOL0     H64658   0.880   4.405   0.645 -1.1894  2.8878  0.2061
  479MOL0     H64659   0.759   4.261   0.889  0.4134  1.3032  0.6443
  479MOL0     H64660   0.728   4.236   0.714  3.0358 -0.3985 -0.9759
  479MOL0     H64661   0.641   4.457   0.906  0.2804 -3.6310  2.4180
  479MOL0     H64662   0.537   4.351   0.819  0.6223 -1.4640  1.2174
  479MOL0     H64663   0.620   4.663   0.548  2.5111  0.8921  1.9431
  479MOL0     H64664   1.253   4.379   0.656  1.1407 -0.0323 -1.5722
  479MOL0     H64665   1.313   4.478   0.436  1.6049 -2.0777  2.8745
  480MOL0     O64666  11.208   2.507   6.579  0.0368  0.0468  0.4123
  480MOL0     C64667  11.234   2.507   6.464  0.1908  0.1237  0.1911
  480MOL0     O64668  11.331   2.432   6.400  0.3303  0.6321  0.2272
  480MOL0     C64669  11.387   2.331   6.467  0.8426  0.4750 -0.5726
  480MOL0     C64670  11.325   2.259   6.572  0.2218  1.3309  0.2423
  480MOL0     C64671  11.386   2.154   6.637  0.4676 -0.8779  0.2084
  480MOL0     C64672  11.522   2.117   6.598  0.0005  0.3651  0.3123
  480MOL0     O64673  11.583   2.009   6.667 -0.2543  0.3049  0.4500
  480MOL0     C64674  11.667   2.043   6.778 -0.7481 -0.8479 -0.1423
  480MOL0     C64675  11.746   1.931   6.829 -0.4570  0.3633 -0.6682
  480MOL0     C64676  11.652   1.817   6.876 -0.9937 -0.3509  0.0902
  480MOL0     C64677  11.734   1.691   6.901  0.1239 -0.6286  0.0427
  480MOL0     C64678  11.675   1.601   7.003  0.5238  0.5884 -0.5495
  480MOL0     C64679  11.778   1.478   7.032 -0.4179 -0.3632  0.5300
  480MOL0     C64680  11.712   1.381   7.127  0.2193 -0.7324  0.1454
  480MOL0     C64681  11.666   1.427   7.264  0.4987 -0.0855  0.3302
  480MOL0     N64682  11.589   1.316   7.318 -0.1547  0.5744  0.8718
  480MOL0     C64683  11.525   1.329   7.436  0.9624  0.1045 -1.0895
  480MOL0     C64684  11.476   1.206   7.475  0.1304 -0.1834  0.5229
  480MOL0     C64685  11.399   1.185   7.599  0.6875  1.0717 -0.0336
  480MOL0     C64686  11.249   1.245   7.591  0.1623 -0.0746  0.6797
  480MOL0     C64687  11.181   1.223   7.719  0.3802 -0.8522 -0.1511
  480MOL0     C64688  11.060   1.305   7.746 -0.3841  0.7212  0.0753
  480MOL0     O64689  11.035   1.286   7.889  0.5806 -0.4692  1.0104
  480MOL0     C64690  10.936   1.211   7.935 -0.0080  1.7002  1.2296
  480MOL0     C64691  10.916   1.220   8.066  0.2610 -0.1007  0.3689
  480MOL0     C64692  10.808   1.141   8.134 -0.5207 -0.0248  0.0331
  480MOL0     C64693  10.822   1.160   8.295  0.4482 -0.3437 -0.3404
  480MOL0     C64694  10.727   1.055   8.055  0.8510  0.1350  0.8013
  480MOL0     C64695  10.623   0.966   8.113  0.6953  0.2019  0.2450
  480MOL0     O64696  10.567   0.869   8.040 -0.5362  0.2935  0.6746
  480MOL0     C64697  10.440   0.843   8.052 -0.1929 -0.8248 -0.8503
  480MOL0     C64698  10.374   0.804   8.180  0.5639 -0.2783 -0.0234
  480MOL0     C64699  10.233   0.781   8.189 -0.0011 -0.1488 -0.1793
  480MOL0     C64700  10.157   0.795   8.069 -0.2497  0.9501 -0.2321
  480MOL0     O64701  10.021   0.781   8.059  0.2506  0.8645 -0.1454
  480MOL0     C64702   9.950   0.727   8.170 -0.4894 -0.8477  1.2760
  480MOL0     C64703   9.819   0.666   8.114  0.4892  0.4998  0.0123
  480MOL0     C64704   9.763   0.569   8.218 -0.8903 -0.6108 -1.4911
  480MOL0     C64705   9.789   0.421   8.189  0.4581 -0.8131  0.2374
  480MOL0     C64706   9.693   0.350   8.091 -0.7421  0.0907 -0.8581
  480MOL0     C64707   9.734   0.204   8.098 -0.0586  0.1397  0.5455
  480MOL0     C64708   9.667   0.115   7.995  0.6617  0.1917  0.4483
  480MOL0     C64709   9.702  -0.031   8.003 -0.3917 -0.2292  0.6862
  480MOL0    Cl64710   9.677  -0.116   8.157 -0.1587 -0.3606  0.2889
  480MOL0     C64711  10.223   0.842   7.955  0.5983  0.2800  0.3696
  480MOL0     C64712  10.357   0.866   7.951 -0.5846 -0.0230  0.3940
  480MOL0     O64713  10.601   0.980   8.232  0.0824 -0.5137 -0.2337
  480MOL0     C64714  10.745   1.059   7.920  0.4288 -0.7402  0.4125
  480MOL0     C64715  10.847   1.138   7.854  0.2412 -0.5069 -0.1169
  480MOL0     N64716  11.510   1.125   7.369 -0.0446  0.0974  0.1058
  480MOL0     N64717  11.579   1.190   7.284  0.6799 -0.7451 -0.7339
  480MOL0     C64718  11.582   2.176   6.482  0.0803  0.8333 -0.6991
  480MOL0     C64719  11.513   2.290   6.427  0.4915 -0.0404  0.2828
  480MOL0     C64720  11.176   2.617   6.378 -1.3522  0.0014 -0.8600
  480MOL0     C64721  11.242   2.661   6.263 -0.6150  0.2265 -0.0305
  480MOL0     C64722  11.191   2.769   6.195 -0.1758  1.5439  0.6160
  480MOL0     C64723  11.064   2.817   6.223  0.9817 -0.8852  0.0063
  480MOL0     O64724  11.004   2.930   6.165 -0.4576 -0.1512 -0.3812
  480MOL0     C64725  11.070   2.977   6.040  0.4132  0.7562  0.5255
  480MOL0     C64726  11.005   2.900   5.922 -0.3038 -0.0886 -0.3076
  480MOL0     C64727  11.094   2.896   5.797  0.7961 -0.0040  0.5895
  480MOL0     C64728  11.073   2.778   5.711  1.4930  0.2913 -0.2072
  480MOL0     C64729  11.163   2.799   5.599 -0.5629 -0.5683 -0.4064
  480MOL0     C64730  11.241   2.799   5.510  0.1862 -0.6353  0.0804
  480MOL0     C64731  11.006   2.777   6.343  0.2926  0.0900  0.5011
  480MOL0     C64732  11.055   2.670   6.414  0.5121  0.4853 -0.6343
  480MOL0     H64733  11.221   2.283   6.591 -0.0930  2.1634 -2.1353
  480MOL0     H64734  11.330   2.104   6.715 -1.2302 -2.1606 -1.7265
  480MOL0     H64735  11.739   2.120   6.748  0.3776 -1.7621  0.1602
  480MOL0     H64736  11.596   2.091   6.846  1.4452  3.3035 -0.4136
  480MOL0     H64737  11.810   1.889   6.751  0.6453 -1.5842  1.1652
  480MOL0     H64738  11.801   1.974   6.913 -4.3920  5.4801 -0.2150
  480MOL0     H64739  11.590   1.854   6.958 -0.8827  1.6852 -0.6771
  480MOL0     H64740  11.581   1.785   6.799 -0.0774 -0.0236 -0.9019
  480MOL0     H64741  11.734   1.639   6.805 -3.1860  0.4425 -0.6518
  480MOL0     H64742  11.832   1.722   6.938 -0.8487  1.5938  0.9452
  480MOL0     H64743  11.665   1.660   7.094 -0.3278  0.4920 -0.5742
  480MOL0     H64744  11.577   1.562   6.973 -0.8606  0.1574  3.7759
  480MOL0     H64745  11.809   1.425   6.942  0.1283 -4.2918  2.8076
  480MOL0     H64746  11.863   1.533   7.073 -2.1988  1.6653  1.7778
  480MOL0     H64747  11.630   1.336   7.070 -1.0195  0.8806  0.5774
  480MOL0     H64748  11.788   1.303   7.139  1.1241 -0.4472 -2.8714
  480MOL0     H64749  11.602   1.515   7.253  0.7383 -0.2080 -3.0671
  480MOL0     H64750  11.752   1.438   7.330  0.7474 -2.7253  0.5438
  480MOL0     H64751  11.513   1.421   7.493 -1.6458 -1.8910  1.9265
  480MOL0     H64752  11.387   1.077   7.614  4.1228  0.4371 -1.0342
  480MOL0     H64753  11.459   1.209   7.687 -0.0669  1.2531  0.4443
  480MOL0     H64754  11.203   1.194   7.506  0.6028  1.9624 -0.8722
  480MOL0     H64755  11.270   1.350   7.566 -0.6818  0.3459  1.6750
  480MOL0     H64756  11.249   1.241   7.802  0.5922 -0.4178 -0.4132
  480MOL0     H64757  11.142   1.121   7.723 -2.6033  0.2020 -0.2615
  480MOL0     H64758  10.982   1.281   7.673  2.3833  0.0027 -2.8619
  480MOL0     H64759  11.096   1.407   7.733  2.8222 -0.0740  1.6310
  480MOL0     H64760  10.972   1.295   8.121  0.0196 -0.3384  0.9517
  480MOL0     H64761  10.894   1.241   8.312 -0.3140  0.2525  0.1064
  480MOL0     H64762  10.722   1.189   8.328  0.7764 -0.5326  0.8833
  480MOL0     H64763  10.844   1.073   8.357 -2.3387 -1.9137 -1.3782
  480MOL0     H64764  10.439   0.789   8.265  1.9783 -1.1953 -1.2183
  480MOL0     H64765  10.181   0.746   8.277 -0.1940  0.5010 -0.0262
  480MOL0     H64766  10.013   0.650   8.217  0.2317  0.0343  1.7949
  480MOL0     H64767   9.925   0.796   8.251 -4.6168  3.0519 -2.7580
  480MOL0     H64768   9.743   0.743   8.101  1.2745  1.3267  0.1514
  480MOL0     H64769   9.825   0.616   8.017 -0.6799  2.2913 -1.0343
  480MOL0     H64770   9.656   0.589   8.224 -0.6703  0.8353 -2.0948
  480MOL0     H64771   9.806   0.587   8.317  2.7976  2.5639 -3.3878
  480MOL0     H64772   9.892   0.397   8.161 -0.1614 -1.5776 -1.5143
  480MOL0     H64773   9.769   0.366   8.282  0.3085 -0.2711  0.5317
  480MOL0     H64774   9.698   0.385   7.988  2.1159 -0.1212 -0.8646
  480MOL0     H64775   9.586   0.363   8.112 -0.5022  0.8085  0.0124
  480MOL0     H64776   9.843   0.196   8.093 -0.0536  0.1561 -4.0750
  480MOL0     H64777   9.686   0.170   8.190 -1.2582 -2.7967 -1.0143
  480MOL0     H64778   9.682   0.150   7.893 -1.6998 -2.8580 -1.0953
  480MOL0     H64779   9.561   0.128   8.019  0.4258  1.3066 -1.0440
  480MOL0     H64780   9.804  -0.032   7.964 -0.5741 -0.8823  0.2075
  480MOL0     H64781   9.643  -0.084   7.927  0.1968 -0.7075  0.5549
  480MOL0     H64782  10.179   0.880   7.863  1.7179  1.3269  0.2496
  480MOL0     H64783  10.417   0.893   7.865  0.3199  3.4517  1.9281
  480MOL0     H64784  10.673   1.013   7.853 -2.4760 -0.1156  2.8875
  480MOL0     H64785  10.849   1.122   7.747 -0.7734 -0.4324 -0.1649
  480MOL0     H64786  11.676   2.139   6.441 -1.2573 -2.3998 -1.1396
  480MOL0     H64787  11.561   2.354   6.353  2.1806  2.6456  3.4295
  480MOL0     H64788  11.331   2.612   6.223  0.5819  1.4582  1.0516
  480MOL0     H64789  11.247   2.802   6.108 -0.9219 -3.5958 -2.2651
  480MOL0     H64790  11.053   3.085   6.032 -2.8797  0.4194  1.5710
  480MOL0     H64791  11.177   2.969   6.022  0.7271  0.8367  2.1943
  480MOL0     H64792  10.912   2.953   5.898 -1.4237 -1.6553  0.3478
  480MOL0     H64793  10.992   2.793   5.941  2.0422 -0.6559 -1.5268
  480MOL0     H64794  11.200   2.905   5.825  1.2894  1.3826 -1.4969
  480MOL0     H64795  11.077   2.979   5.728 -1.5743 -0.6445  0.3394
  480MOL0     H64796  10.968   2.758   5.685  1.3993  1.4230 -0.7503
  480MOL0     H64797  11.109   2.695   5.773 -1.0486  2.1558  4.2059
  480MOL0     H64798  11.306   2.796   5.425 -0.1848  3.0455 -0.4674
  480MOL0     H64799  10.917   2.818   6.390 -1.5511 -5.2414  2.3880
  480MOL0     H64800  10.991   2.632   6.493  1.1149 -2.7561 -1.5797
  481MOL0     O64801  10.305   7.344   1.951 -0.8956  0.2639 -0.0806
  481MOL0     C64802  10.238   7.341   1.853  0.2284 -0.2386 -0.1479
  481MOL0     O64803  10.138   7.433   1.817  0.1714 -0.1921  0.5458
  481MOL0     C64804  10.162   7.557   1.860  1.4488 -0.4633  0.2255
  481MOL0     C64805  10.223   7.649   1.777  0.1678  0.4006 -0.1007
  481MOL0     C64806  10.244   7.781   1.818 -0.4144  0.2434  0.4130
  481MOL0     C64807  10.207   7.818   1.945 -0.3318 -0.6945 -0.4933
  481MOL0     O64808  10.204   7.943   1.999 -0.1505 -0.6213 -0.0056
  481MOL0     C64809  10.236   8.051   1.911 -0.6061 -0.0416 -0.1774
  481MOL0     C64810  10.185   8.182   1.983  0.2209  0.2326  0.2679
  481MOL0     C64811  10.033   8.172   1.974 -0.1596  1.0281  0.2944
  481MOL0     C64812   9.968   8.296   2.038  0.2591 -0.5435  0.0203
  481MOL0     C64813   9.818   8.299   2.005 -0.6174  0.1330 -0.6728
  481MOL0     C64814   9.736   8.183   2.058  0.0429  0.0992 -0.0445
  481MOL0     C64815   9.578   8.196   2.038 -0.1718  0.7063  0.2099
  481MOL0     C64816   9.490   8.155   2.162 -1.4782  0.6292 -0.4073
  481MOL0     N64817   9.366   8.098   2.120 -0.8828 -0.4316  0.6818
  481MOL0     C64818   9.269   8.173   2.055  0.0518  0.1771 -0.3899
  481MOL0     C64819   9.173   8.075   2.018  0.0498 -0.4414 -0.6056
  481MOL0     C64820   9.038   8.102   1.943  0.4790  1.0124  0.8611
  481MOL0     C64821   8.971   8.244   1.979 -0.2515  0.9246  0.0960
  481MOL0     C64822   8.830   8.247   1.936 -0.7607  0.1465  0.1136
  481MOL0     C64823   8.758   8.373   1.994 -0.1279  0.0824 -0.4473
  481MOL0     O64824   8.634   8.386   1.919 -0.8429 -0.5301 -0.3596
  481MOL0     C64825   8.603   8.490   1.835 -0.0037 -0.3842 -0.6243
  481MOL0     C64826   8.571   8.462   1.708  0.1505  0.7863  0.4952
  481MOL0     C64827   8.539   8.555   1.620  0.2780 -0.5621  0.2340
  481MOL0     C64828   8.552   8.527   1.476  0.4087  0.0122  0.8321
  481MOL0     C64829   8.521   8.688   1.654 -0.4189 -0.5405  0.3992
  481MOL0     C64830   8.446   8.790   1.573 -0.2161 -0.3484  0.3162
  481MOL0     O64831   8.330   8.737   1.519  0.0778  0.1831 -0.5812
  481MOL0     C64832   8.248   8.820   1.454 -0.4974 -1.1228 -0.1468
  481MOL0     C64833   8.279   8.905   1.346 -0.3410 -0.4716  0.1337
  481MOL0     C64834   8.192   8.984   1.279  0.8825  0.1485  0.4334
  481MOL0     C64835   8.056   8.986   1.324 -0.2289  0.1154 -0.1522
  481MOL0     O64836   7.951   9.044   1.257  0.4457  0.0654 -0.2076
  481MOL0     C64837   7.963   9.086   1.123 -0.3738  0.2618  1.0562
  481MOL0     C64838   7.981   8.968   1.024  0.4880 -0.2764  0.5709
  481MOL0     C64839   7.947   8.995   0.878  0.4550 -0.3133  0.0288
  481MOL0     C64840   7.908   8.864   0.812 -0.7038 -1.0035 -0.4915
  481MOL0     C64841   7.869   8.883   0.661 -0.2209 -0.5218 -0.1970
  481MOL0     C64842   7.941   8.778   0.571  0.0199 -0.4021 -0.7014
  481MOL0     C64843   7.899   8.770   0.430  0.2094  0.5042 -0.5600
  481MOL0     C64844   7.740   8.744   0.414 -0.0345  0.0299 -0.2396
  481MOL0    Cl64845   7.710   8.653   0.258 -0.5331 -0.6000  0.5868
  481MOL0     C64846   8.021   8.892   1.431 -0.0444 -0.6735  0.1385
  481MOL0     C64847   8.120   8.821   1.502 -0.1281  0.2690 -0.1133
  481MOL0     O64848   8.491   8.900   1.558 -0.1688 -0.2365  0.7694
  481MOL0     C64849   8.538   8.729   1.787 -0.2820  0.4632  0.1919
  481MOL0     C64850   8.593   8.631   1.875  0.7858 -0.6895  0.5722
  481MOL0     N64851   9.211   7.956   2.061 -0.4039 -0.4052 -0.2790
  481MOL0     N64852   9.321   7.971   2.125 -0.3283 -0.1626  0.2843
  481MOL0     C64853  10.160   7.725   2.033 -0.3550  0.4097 -0.2803
  481MOL0     C64854  10.128   7.594   1.989  0.7499 -0.7568 -0.4431
  481MOL0     C64855  10.246   7.219   1.774  0.2866 -0.2485 -0.6664
  481MOL0     C64856  10.341   7.114   1.792 -0.6805 -0.2011 -0.1523
  481MOL0     C64857  10.346   7.004   1.709 -1.1365  1.8097 -0.1194
  481MOL0     C64858  10.256   6.989   1.602 -0.2457 -0.0752 -0.9406
  481MOL0     O64859  10.285   6.891   1.525  0.0804  0.0207  0.2263
  481MOL0     C64860  10.188   6.851   1.425 -0.1842  0.3700 -1.2095
  481MOL0     C64861  10.228   6.932   1.301 -0.8453 -0.7282 -0.4900
  481MOL0     C64862  10.368   6.908   1.257  0.7011 -0.4524  0.8856
  481MOL0     C64863  10.416   7.005   1.144  0.4277  0.2815  0.8815
  481MOL0     C64864  10.343   6.986   1.020  1.2345 -0.8659  0.6858
  481MOL0     C64865  10.266   6.982   0.926 -0.1034  0.1989  0.5978
  481MOL0     C64866  10.158   7.080   1.586  0.3646 -1.0379  0.3492
  481MOL0     C64867  10.151   7.197   1.667 -0.1582 -1.2327  0.3298
  481MOL0     H64868  10.230   7.628   1.671  0.0313  0.6244 -0.1548
  481MOL0     H64869  10.272   7.854   1.743 -4.0056 -1.3781 -2.8617
  481MOL0     H64870  10.340   8.060   1.881 -0.5517 -1.4118 -0.4866
  481MOL0     H64871  10.182   8.036   1.817  0.6800 -0.1532 -0.9154
  481MOL0     H64872  10.213   8.197   2.088  1.5058  3.4202 -0.4409
  481MOL0     H64873  10.235   8.263   1.931  0.7770 -1.0782 -1.3336
  481MOL0     H64874  10.007   8.159   1.869  0.0652 -0.3501  0.3809
  481MOL0     H64875   9.986   8.090   2.031 -0.5094  0.6466 -0.5269
  481MOL0     H64876   9.991   8.304   2.144  3.0164  1.1725 -0.5970
  481MOL0     H64877  10.018   8.385   1.999 -2.5413 -0.3487 -3.7371
  481MOL0     H64878   9.780   8.397   2.037  0.6762  0.0269  1.4021
  481MOL0     H64879   9.799   8.286   1.898  0.0632  0.8800 -0.8936
  481MOL0     H64880   9.762   8.094   1.999  1.7004 -0.2815  1.1886
  481MOL0     H64881   9.758   8.165   2.163 -0.4462 -0.8788 -0.0950
  481MOL0     H64882   9.542   8.290   1.997 -1.8780  0.1533  0.3429
  481MOL0     H64883   9.555   8.117   1.967 -3.0962  0.9619  0.7653
  481MOL0     H64884   9.471   8.240   2.228 -0.6265 -1.9128  3.3940
  481MOL0     H64885   9.516   8.073   2.228 -1.0650  1.9519  1.1251
  481MOL0     H64886   9.262   8.280   2.037  1.1566  0.1114 -1.2982
  481MOL0     H64887   9.042   8.095   1.834 -3.3464 -0.1493  0.6371
  481MOL0     H64888   8.967   8.021   1.967  1.7909  0.3152  2.6177
  481MOL0     H64889   9.037   8.321   1.938  0.8203 -0.3160 -0.6107
  481MOL0     H64890   8.974   8.256   2.088 -1.8332 -0.0878  0.2741
  481MOL0     H64891   8.776   8.154   1.954  0.4310 -0.3836  1.0907
  481MOL0     H64892   8.843   8.271   1.830 -0.0378 -1.5868 -0.2222
  481MOL0     H64893   8.814   8.465   1.975 -0.6316  0.3110 -0.8787
  481MOL0     H64894   8.747   8.371   2.102 -0.5422 -1.3993 -0.4914
  481MOL0     H64895   8.585   8.356   1.686 -1.1572  0.6549  0.2081
  481MOL0     H64896   8.646   8.473   1.458  0.3249 -1.0989  3.3001
  481MOL0     H64897   8.470   8.460   1.451  1.3749 -1.6800  1.9941
  481MOL0     H64898   8.540   8.620   1.420 -4.0292 -0.0099  1.3828
  481MOL0     H64899   8.380   8.911   1.306  0.3226 -0.0382  1.7874
  481MOL0     H64900   8.226   9.044   1.195 -0.6903 -0.3092 -0.5636
  481MOL0     H64901   7.877   9.145   1.090  0.9081 -0.0960 -3.5922
  481MOL0     H64902   8.041   9.161   1.112 -0.0324 -0.1546  0.5859
  481MOL0     H64903   8.083   8.930   1.033  0.0141 -1.9681 -0.7314
  481MOL0     H64904   7.908   8.896   1.061 -4.2997  0.2627 -5.9038
  481MOL0     H64905   8.029   9.037   0.819 -1.6122 -0.9781 -3.6053
  481MOL0     H64906   7.860   9.060   0.868  0.6361 -0.2529 -1.3557
  481MOL0     H64907   7.983   8.784   0.821  2.2137  1.4835 -1.0258
  481MOL0     H64908   7.819   8.830   0.866  0.3349  1.4323  3.1239
  481MOL0     H64909   7.901   8.983   0.630  0.7883 -0.1215  1.9233
  481MOL0     H64910   7.760   8.881   0.651 -0.3047  1.0279  0.1109
  481MOL0     H64911   8.050   8.776   0.578 -0.0520 -1.6565  0.2995
  481MOL0     H64912   7.918   8.689   0.630  3.4967  1.4538  4.1319
  481MOL0     H64913   7.945   8.688   0.374  0.7091 -1.3070  2.3355
  481MOL0     H64914   7.924   8.857   0.369  3.0973 -0.2867 -0.6367
  481MOL0     H64915   7.672   8.830   0.419 -2.0022 -1.4475 -0.1107
  481MOL0     H64916   7.704   8.685   0.499  1.9712  0.2549  0.8158
  481MOL0     H64917   7.919   8.868   1.458 -0.4118 -1.6195 -1.8866
  481MOL0     H64918   8.101   8.756   1.587  1.0612  1.3413  1.0194
  481MOL0     H64919   8.520   8.833   1.810 -2.0826  0.2174  0.0589
  481MOL0     H64920   8.612   8.682   1.969 -2.3972  1.6323  0.1361
  481MOL0     H64921  10.135   7.764   2.131  2.5047 -0.3839  0.8527
  481MOL0     H64922  10.083   7.525   2.060  1.1893 -1.3714 -0.7558
  481MOL0     H64923  10.418   7.134   1.865  0.5075 -1.7807 -0.9201
  481MOL0     H64924  10.425   6.933   1.730 -2.0267  0.1178 -2.1522
  481MOL0     H64925  10.217   6.747   1.410 -0.6468 -0.5178  2.8749
  481MOL0     H64926  10.083   6.858   1.454  0.2258  0.5508  0.2970
  481MOL0     H64927  10.228   7.037   1.332  0.8548 -1.1351  1.0509
  481MOL0     H64928  10.157   6.904   1.223  1.2748  0.6832 -3.0849
  481MOL0     H64929  10.384   6.808   1.214 -1.5233 -1.0041  1.2345
  481MOL0     H64930  10.438   6.927   1.339  2.0457 -0.2524 -0.2624
  481MOL0     H64931  10.515   6.976   1.106  0.1279 -0.4489  0.6335
  481MOL0     H64932  10.439   7.110   1.164  2.1266  0.0745  0.1718
  481MOL0     H64933  10.194   6.969   0.849  1.1648  1.7381 -0.9302
  481MOL0     H64934  10.094   7.081   1.499  1.8998 -3.0231 -0.8820
  481MOL0     H64935  10.084   7.277   1.639 -1.2088 -1.5190  1.8897
  482MOL0     O64936  10.488   0.965   3.746  0.4311  0.9274 -0.7033
  482MOL0     C64937  10.545   1.017   3.847  0.3379  0.4835  0.1262
  482MOL0     O64938  10.663   0.976   3.908 -0.4608 -0.2455  0.8604
  482MOL0     C64939  10.722   0.869   3.846 -0.2784 -0.2983 -0.4377
  482MOL0     C64940  10.667   0.739   3.891  0.2680 -0.4930 -0.3121
  482MOL0     C64941  10.712   0.619   3.833  0.8496 -0.3253 -0.5863
  482MOL0     C64942  10.812   0.619   3.727  0.7935 -0.1138  1.4612
  482MOL0     O64943  10.854   0.516   3.642  0.4272  0.5006 -0.6146
  482MOL0     C64944  10.803   0.386   3.659  1.0248 -0.8581 -0.9114
  482MOL0     C64945  10.850   0.305   3.543 -0.4690  0.5229  0.8115
  482MOL0     C64946  10.806   0.348   3.400 -0.0019 -0.3504 -1.5003
  482MOL0     C64947  10.875   0.269   3.289  0.3805 -0.6778 -0.3632
  482MOL0     C64948  10.816   0.278   3.140 -0.5237  0.7281  0.0533
  482MOL0     C64949  10.823   0.134   3.072 -0.2544 -0.2102  0.0828
  482MOL0     C64950  10.814   0.131   2.909 -0.2997 -1.2326 -0.2822
  482MOL0     C64951  10.953   0.189   2.851 -0.1071 -0.1022 -1.4661
  482MOL0     N64952  10.955   0.214   2.710  0.3009 -0.6098 -0.0551
  482MOL0     C64953  10.941   0.107   2.625  0.0567  0.0847  0.2611
  482MOL0     C64954  10.936   0.165   2.508 -0.2188  1.2368  1.1498
  482MOL0     C64955  10.936   0.095   2.366  0.0142 -0.4836  0.8487
  482MOL0     C64956  10.853   0.168   2.258  0.1682  0.1646 -0.3851
  482MOL0     C64957  10.722   0.089   2.215 -0.5380 -0.0212  0.9484
  482MOL0     C64958  10.637   0.202   2.159 -0.4227  0.6748  0.0802
  482MOL0     O64959  10.518   0.141   2.112  0.2735 -0.0884 -0.1995
  482MOL0     C64960  10.422   0.219   2.048  0.8242  0.2526 -0.2914
  482MOL0     C64961  10.425   0.362   2.035  0.5672  0.2731  0.3563
  482MOL0     C64962  10.340   0.431   1.945  0.6308  0.2487 -0.0612
  482MOL0     C64963  10.354   0.579   1.936 -0.2397 -0.0355 -0.3915
  482MOL0     C64964  10.252   0.360   1.864  0.6266 -0.0627  0.2892
  482MOL0     C64965  10.174   0.413   1.742  0.1932  0.2697 -1.4512
  482MOL0     O64966  10.138   0.318   1.644 -0.4292 -0.5837  0.1802
  482MOL0     C64967  10.013   0.325   1.585 -0.2697 -0.0590 -0.0895
  482MOL0     C64968  10.005   0.399   1.468  0.3769  0.5548  0.2127
  482MOL0     C64969   9.881   0.405   1.400 -0.0546  0.0252  0.4083
  482MOL0     C64970   9.771   0.330   1.440  0.1946 -0.2818 -0.1794
  482MOL0     O64971   9.649   0.336   1.372 -0.2535 -0.3345 -0.2148
  482MOL0     C64972   9.599   0.468   1.357 -0.9857  0.1948  0.9351
  482MOL0     C64973   9.488   0.486   1.452  0.4770 -0.0960  0.4213
  482MOL0     C64974   9.398   0.600   1.409 -0.1524 -1.3127 -0.0747
  482MOL0     C64975   9.274   0.622   1.506 -0.2966 -0.6394 -0.0432
  482MOL0     C64976   9.149   0.682   1.431 -0.8260  0.2536 -1.4239
  482MOL0     C64977   9.081   0.568   1.355  0.7424  0.7203 -0.2996
  482MOL0     C64978   9.011   0.475   1.455 -0.0665 -0.5823  0.2412
  482MOL0     C64979   9.009   0.344   1.384 -0.2528 -0.1333 -0.2921
  482MOL0    Cl64980   8.914   0.361   1.232  0.3382  0.2217  0.4700
  482MOL0     C64981   9.782   0.242   1.551  0.0659 -0.3954  0.0921
  482MOL0     C64982   9.903   0.244   1.623  0.1822 -0.2356  0.0118
  482MOL0     O64983  10.130   0.525   1.763 -0.1998 -0.0538  0.2612
  482MOL0     C64984  10.244   0.214   1.885  0.3958  0.9701 -0.5882
  482MOL0     C64985  10.328   0.142   1.976 -0.1907 -1.1106  0.6368
  482MOL0     N64986  10.955   0.300   2.526 -0.7011  0.9537  0.4556
  482MOL0     N64987  10.951   0.331   2.645 -0.4128 -0.3886 -0.4042
  482MOL0     C64988  10.863   0.751   3.680  0.2976  0.0444  0.3596
  482MOL0     C64989  10.814   0.871   3.739  0.0197  0.5070  0.3125
  482MOL0     C64990  10.472   1.141   3.898 -1.2304 -0.4959  0.0652
  482MOL0     C64991  10.383   1.215   3.823 -0.2222  0.1679 -0.8088
  482MOL0     C64992  10.322   1.336   3.869 -0.7083  0.4525 -0.5547
  482MOL0     C64993  10.337   1.364   4.009 -0.3432 -0.0527  0.2214
  482MOL0     O64994  10.258   1.466   4.057 -0.1163 -0.1985 -0.0316
  482MOL0     C64995  10.283   1.513   4.194  0.1030 -0.2248  0.0850
  482MOL0     C64996  10.197   1.637   4.226  0.2876 -0.2648  0.7967
  482MOL0     C64997  10.178   1.652   4.377  0.9439  0.3886 -0.7327
  482MOL0     C64998  10.244   1.771   4.444 -0.6268 -0.3275 -0.7593
  482MOL0     C64999  10.186   1.813   4.573  0.8253 -0.0057  0.2175
  482MOL0     C65000  10.150   1.842   4.678  0.6274 -0.3835  0.5542
  482MOL0     C65001  10.437   1.290   4.079  0.7419 -0.7626  0.2458
  482MOL0     C65002  10.495   1.183   4.027  0.5111  0.2947 -0.2043
  482MOL0     H65003  10.591   0.740   3.969  0.7924  1.3643  0.2386
  482MOL0     H65004  10.669   0.533   3.882 -0.6046  1.8026  2.1697
  482MOL0     H65005  10.841   0.338   3.750  0.3149 -1.5764 -0.9889
  482MOL0     H65006  10.694   0.390   3.658  1.0558  1.2512 -0.4088
  482MOL0     H65007  10.959   0.313   3.549 -0.4094 -0.7845  1.8412
  482MOL0     H65008  10.837   0.197   3.556  1.3027  0.3237  1.1914
  482MOL0     H65009  10.697   0.338   3.397 -0.0007 -1.5117  0.5196
  482MOL0     H65010  10.831   0.452   3.378  0.5497  0.1019  0.9560
  482MOL0     H65011  10.982   0.286   3.276  0.1420 -0.6820 -3.0113
  482MOL0     H65012  10.867   0.162   3.313  2.1191 -1.1138 -1.5049
  482MOL0     H65013  10.712   0.310   3.141 -0.4140  1.2608 -1.7009
  482MOL0     H65014  10.869   0.361   3.092  1.4144  0.1567  1.1065
  482MOL0     H65015  10.915   0.086   3.106 -0.4349 -0.2424  0.5317
  482MOL0     H65016  10.741   0.079   3.120 -0.2951 -0.9707 -0.8288
  482MOL0     H65017  10.818   0.030   2.869  0.5197 -1.1854 -0.3314
  482MOL0     H65018  10.742   0.201   2.866  3.2777  3.6275  0.6830
  482MOL0     H65019  11.042   0.130   2.872  0.0796  0.8495  0.7470
  482MOL0     H65020  10.978   0.280   2.907  0.1553 -0.5930 -0.7554
  482MOL0     H65021  10.923   0.001   2.641 -1.6270  0.0475 -1.5041
  482MOL0     H65022  11.040   0.083   2.334 -0.4555 -1.4999 -0.3676
  482MOL0     H65023  10.895  -0.005   2.379  0.6803 -1.0844 -1.2074
  482MOL0     H65024  10.909   0.189   2.166 -1.9813  2.0622 -1.3498
  482MOL0     H65025  10.827   0.268   2.295 -0.3104 -0.3295  0.6482
  482MOL0     H65026  10.679   0.057   2.310  0.1372 -0.1534  1.2172
  482MOL0     H65027  10.744   0.002   2.153  0.7220 -2.0712  4.0548
  482MOL0     H65028  10.691   0.254   2.079 -1.2094  1.6367  0.1560
  482MOL0     H65029  10.603   0.272   2.236 -0.0802  1.2320 -0.2702
  482MOL0     H65030  10.492   0.431   2.085  1.2454  1.3383 -1.8567
  482MOL0     H65031  10.254   0.622   1.948  0.7101  1.8808  1.2289
  482MOL0     H65032  10.413   0.616   2.019 -1.8256  0.5973  0.5016
  482MOL0     H65033  10.390   0.620   1.842  1.4124 -0.0984  0.1928
  482MOL0     H65034  10.098   0.443   1.432  0.3018  1.3859  0.9943
  482MOL0     H65035   9.866   0.445   1.300 -0.7345 -0.9647  0.0944
  482MOL0     H65036   9.674   0.545   1.377  3.1579 -3.0792 -0.4005
  482MOL0     H65037   9.569   0.483   1.253  5.4009  0.3850 -1.3515
  482MOL0     H65038   9.431   0.392   1.451 -0.8816  0.6854 -1.1182
  482MOL0     H65039   9.518   0.508   1.554 -0.6349  4.4437 -0.0025
  482MOL0     H65040   9.371   0.593   1.304  1.0762  2.5671 -0.8182
  482MOL0     H65041   9.444   0.699   1.413 -1.3227 -0.7236 -0.6909
  482MOL0     H65042   9.255   0.527   1.556  0.5398  0.3750  2.3446
  482MOL0     H65043   9.289   0.690   1.590  1.1604  0.8967 -1.4718
  482MOL0     H65044   9.183   0.749   1.352  1.1166  2.2596  0.9295
  482MOL0     H65045   9.090   0.741   1.502  2.4509  0.2519  1.5832
  482MOL0     H65046   9.012   0.622   1.290 -1.3329  1.4163  2.3226
  482MOL0     H65047   9.160   0.517   1.299  1.6594  2.0188 -0.2616
  482MOL0     H65048   8.913   0.517   1.478  1.5209  1.8874  3.3931
  482MOL0     H65049   9.055   0.469   1.555 -0.9694 -0.8990  0.6324
  482MOL0     H65050   8.968   0.269   1.452 -3.9917  1.5058 -0.5117
  482MOL0     H65051   9.108   0.311   1.350 -0.0612 -1.5047  1.4299
  482MOL0     H65052   9.700   0.174   1.575 -0.8195  0.5243 -0.2258
  482MOL0     H65053   9.902   0.182   1.712  1.6462 -0.2719  0.0352
  482MOL0     H65054  10.169   0.158   1.829  1.2724 -1.0252  0.1648
  482MOL0     H65055  10.319   0.035   1.993  0.4518 -0.7359  4.0745
  482MOL0     H65056  10.920   0.742   3.588 -1.2623 -2.1549 -0.4793
  482MOL0     H65057  10.844   0.963   3.690 -0.5284  0.6585  0.2586
  482MOL0     H65058  10.360   1.191   3.719 -4.4273  0.9449 -0.2669
  482MOL0     H65059  10.256   1.396   3.808  0.6263  1.5249 -1.0105
  482MOL0     H65060  10.268   1.435   4.269  2.1462  0.1160  0.9208
  482MOL0     H65061  10.387   1.545   4.210 -0.7452  2.5596  0.5683
  482MOL0     H65062  10.096   1.619   4.187  0.9283 -0.6806 -0.7584
  482MOL0     H65063  10.239   1.727   4.181 -0.9429  0.9463  1.9969
  482MOL0     H65064  10.191   1.563   4.439 -1.4504  1.2049  1.1158
  482MOL0     H65065  10.071   1.672   4.391  0.2221 -2.3153 -1.7450
  482MOL0     H65066  10.247   1.857   4.377  3.1936  0.2478 -0.0472
  482MOL0     H65067  10.347   1.737   4.461 -1.3836 -2.9122 -0.9258
  482MOL0     H65068  10.134   1.872   4.779 -1.5224  2.4683 -0.4981
  482MOL0     H65069  10.459   1.311   4.183 -0.6033 -0.6483  0.5356
  482MOL0     H65070  10.567   1.135   4.093 -1.0198  2.2011  3.1327
  483MOL0     O65071   6.241   4.175  11.471  0.2498  1.0444  0.0359
  483MOL0     C65072   6.164   4.164  11.368 -1.0003  1.2565 -0.1645
  483MOL0     O65073   6.053   4.077  11.351  0.7694 -0.1489  0.1180
  483MOL0     C65074   6.001   3.997  11.446 -0.7373  0.4124 -0.4002
  483MOL0     C65075   5.987   3.861  11.410  0.1850  0.4697 -0.2980
  483MOL0     C65076   5.923   3.777  11.497 -0.1580 -0.3177 -0.4124
  483MOL0     C65077   5.857   3.821  11.611 -0.0014 -0.6595  0.0860
  483MOL0     O65078   5.790   3.742  11.703 -0.4105 -0.6570  0.0256
  483MOL0     C65079   5.666   3.667  11.671 -0.1685 -0.0066  1.2487
  483MOL0     C65080   5.634   3.579  11.785  0.5184  0.0004 -0.7482
  483MOL0     C65081   5.565   3.658  11.894 -0.0807  0.5726  0.5516
  483MOL0     C65082   5.530   3.582  12.026 -0.8705 -0.6133  0.1935
  483MOL0     C65083   5.464   3.683  12.125 -0.6163 -1.0460 -0.3151
  483MOL0     C65084   5.329   3.747  12.076 -0.0457 -0.5757  0.0854
  483MOL0     C65085   5.214   3.646  12.056 -0.3145 -0.0784  0.2208
  483MOL0     C65086   5.072   3.691  12.022  0.2055 -0.9735 -0.4392
  483MOL0     N65087   4.976   3.580  12.015 -0.0484 -0.0766 -0.6616
  483MOL0     C65088   4.990   3.471  11.936  0.2233  1.3004 -0.4719
  483MOL0     C65089   4.878   3.403  11.936 -0.3725  0.3435 -0.3123
  483MOL0     C65090   4.847   3.291  11.843  0.4125  0.0636  0.2513
  483MOL0     C65091   4.698   3.300  11.800 -0.5827  0.1020  0.2958
  483MOL0     C65092   4.648   3.185  11.709  0.1619  0.9748 -0.7345
  483MOL0     C65093   4.496   3.182  11.685 -1.0024 -0.0346  0.5471
  483MOL0     O65094   4.501   3.116  11.560 -0.7664  0.7444 -0.0535
  483MOL0     C65095   4.385   3.115  11.487  0.1232  0.1190  0.2925
  483MOL0     C65096   4.254   3.147  11.531 -0.2887  0.4288  0.1999
  483MOL0     C65097   4.140   3.144  11.446  0.2449 -0.1023  0.6686
  483MOL0     C65098   4.010   3.170  11.520  0.3772 -0.2570 -0.4870
  483MOL0     C65099   4.154   3.123  11.310  0.1848  0.3283 -0.3409
  483MOL0     C65100   4.033   3.120  11.225 -0.3360 -0.5173 -0.0767
  483MOL0     O65101   3.940   3.222  11.242 -0.2575 -0.0233 -0.7314
  483MOL0     C65102   3.825   3.231  11.176 -0.6099 -0.5460  0.2667
  483MOL0     C65103   3.786   3.346  11.102  0.0394 -0.2446 -0.5181
  483MOL0     C65104   3.653   3.341  11.051  0.7977 -0.3672  0.4306
  483MOL0     C65105   3.573   3.228  11.056  0.3695  0.9763 -0.2959
  483MOL0     O65106   3.446   3.229  11.026  0.1562  0.2461  0.5864
  483MOL0     C65107   3.408   3.327  10.931  0.1774  1.3736  0.3529
  483MOL0     C65108   3.263   3.327  10.910  0.1654 -0.3001 -0.0763
  483MOL0     C65109   3.186   3.386  11.034  1.1912  0.8621  0.1136
  483MOL0     C65110   3.034   3.389  11.005  0.6196 -0.3970 -0.3162
  483MOL0     C65111   2.941   3.452  11.111 -0.4581 -0.3999  0.3365
  483MOL0     C65112   2.789   3.429  11.090 -0.5904  0.3924  0.0395
  483MOL0     C65113   2.710   3.515  11.188  0.2337  0.7906  0.0722
  483MOL0     C65114   2.590   3.582  11.129  0.5288 -0.0147 -0.6815
  483MOL0    Cl65115   2.443   3.461  11.117 -0.2917 -0.3126  0.0281
  483MOL0     C65116   3.617   3.114  11.134 -0.0988  0.2539  0.5133
  483MOL0     C65117   3.748   3.121  11.175  0.1389  0.5545 -0.7802
  483MOL0     O65118   4.036   3.034  11.137 -0.3119 -0.4914  0.0052
  483MOL0     C65119   4.281   3.078  11.270 -0.6244  0.3155  0.3722
  483MOL0     C65120   4.393   3.078  11.356 -0.3320  1.9777  0.0996
  483MOL0     N65121   4.795   3.471  12.028  0.1105 -1.0219  0.0579
  483MOL0     N65122   4.853   3.574  12.073 -0.2688 -0.2996 -0.2246
  483MOL0     C65123   5.866   3.955  11.641  0.1580 -0.8810  0.2114
  483MOL0     C65124   5.940   4.042  11.562  0.0079 -0.1420 -0.1275
  483MOL0     C65125   6.198   4.257  11.257  0.7485  0.3250  1.1432
  483MOL0     C65126   6.274   4.367  11.267  0.4319  0.0737 -0.6578
  483MOL0     C65127   6.284   4.452  11.158 -0.1916  0.0312  0.0852
  483MOL0     C65128   6.234   4.425  11.035  0.7006 -0.0656 -0.5848
  483MOL0     O65129   6.264   4.518  10.938 -0.1808 -0.2983  0.1315
  483MOL0     C65130   6.184   4.510  10.816  0.4021 -0.2165  0.1808
  483MOL0     C65131   6.211   4.631  10.731  0.3296  0.4834 -1.2918
  483MOL0     C65132   6.113   4.753  10.755 -1.4267  1.3732 -0.0685
  483MOL0     C65133   6.169   4.888  10.709 -0.1100  1.1080  0.1981
  483MOL0     C65134   6.178   4.881  10.562 -0.1305 -0.1194  0.6299
  483MOL0     C65135   6.184   4.871  10.440 -1.2459  0.2664 -0.2070
  483MOL0     C65136   6.150   4.312  11.023  0.2798  0.6471  0.7816
  483MOL0     C65137   6.144   4.221  11.127  0.0609 -0.5326 -0.5424
  483MOL0     H65138   6.038   3.826  11.321 -1.9104 -0.1231 -1.3145
  483MOL0     H65139   5.929   3.673  11.467  2.3097 -0.2054 -0.5645
  483MOL0     H65140   5.589   3.738  11.641 -1.4107 -1.7093  0.2192
  483MOL0     H65141   5.687   3.607  11.582 -0.5679  3.0457 -1.0811
  483MOL0     H65142   5.557   3.509  11.750 -2.1249  0.5357  3.3075
  483MOL0     H65143   5.721   3.524  11.824 -2.5836 -3.6451  1.8257
  483MOL0     H65144   5.615   3.753  11.915  0.5375 -0.2927  3.3203
  483MOL0     H65145   5.464   3.687  11.861  0.3016  1.4324  0.0942
  483MOL0     H65146   5.465   3.498  12.000  0.8005 -1.4980 -1.4249
  483MOL0     H65147   5.624   3.537  12.061 -1.0688 -2.4906 -1.4777
  483MOL0     H65148   5.439   3.638  12.221 -1.5971  1.3182  0.6221
  483MOL0     H65149   5.532   3.765  12.148  0.0819 -1.6069 -0.3592
  483MOL0     H65150   5.312   3.816  12.159 -2.6539 -0.3209 -0.5936
  483MOL0     H65151   5.345   3.808  11.986  1.7402 -1.9722 -0.6305
  483MOL0     H65152   5.240   3.576  11.977  3.4005  1.9973 -0.6251
  483MOL0     H65153   5.203   3.592  12.151 -0.3947  1.0001  0.8371
  483MOL0     H65154   5.071   3.748  11.928 -0.9039 -1.9057 -1.0082
  483MOL0     H65155   5.033   3.757  12.100  0.2449 -0.6879 -0.6586
  483MOL0     H65156   5.067   3.460  11.861  1.3354  2.9720  0.3722
  483MOL0     H65157   4.904   3.297  11.750  1.5796  1.7423  1.0241
  483MOL0     H65158   4.872   3.200  11.898  2.8766  1.4006  1.5181
  483MOL0     H65159   4.689   3.399  11.755  2.6132  1.6529  2.6672
  483MOL0     H65160   4.639   3.297  11.892 -0.1981  0.3196  0.5508
  483MOL0     H65161   4.669   3.094  11.767 -1.1378  0.5406 -0.9326
  483MOL0     H65162   4.706   3.193  11.617  0.4926 -0.1622 -0.6496
  483MOL0     H65163   4.462   3.285  11.672 -1.7239 -0.4533 -1.0702
  483MOL0     H65164   4.432   3.116  11.744 -1.9164  0.7351  0.4370
  483MOL0     H65165   4.236   3.159  11.637  1.6664  2.2048  0.4003
  483MOL0     H65166   4.016   3.273  11.557 -0.4917  1.1066 -3.7758
  483MOL0     H65167   3.915   3.174  11.466  0.9836  0.3056 -1.5329
  483MOL0     H65168   4.001   3.101  11.605  2.7517 -0.7226 -0.5614
  483MOL0     H65169   3.850   3.434  11.104  2.0701 -1.6751 -0.1839
  483MOL0     H65170   3.623   3.437  11.010 -0.6728 -1.3139 -0.7821
  483MOL0     H65171   3.447   3.429  10.940  2.3521  0.8605 -1.9785
  483MOL0     H65172   3.466   3.308  10.840  2.8899  1.8303  1.9014
  483MOL0     H65173   3.239   3.380  10.818 -2.3775 -3.3408 -1.3298
  483MOL0     H65174   3.227   3.224  10.899  0.9382 -0.5456 -0.3690
  483MOL0     H65175   3.223   3.488  11.048  2.5564  0.4747 -0.4830
  483MOL0     H65176   3.211   3.333  11.127 -2.3245 -0.9479  0.1942
  483MOL0     H65177   3.019   3.452  10.917 -1.0211 -0.2745  0.0192
  483MOL0     H65178   3.010   3.287  10.976  0.6308  0.2763 -2.9391
  483MOL0     H65179   2.979   3.555  11.114  0.9532 -0.8180 -1.3010
  483MOL0     H65180   2.965   3.396  11.202 -0.9661 -0.2519  0.5619
  483MOL0     H65181   2.766   3.472  10.992 -1.3915  2.6161  1.1467
  483MOL0     H65182   2.777   3.320  11.085  0.3516 -0.0070  3.5205
  483MOL0     H65183   2.776   3.597  11.218 -3.0059  3.7362 -0.2779
  483MOL0     H65184   2.688   3.456  11.278 -1.7178  0.3550 -0.6539
  483MOL0     H65185   2.610   3.625  11.030  0.7702  0.0399 -0.6094
  483MOL0     H65186   2.554   3.651  11.206 -0.2818 -1.9683  0.7972
  483MOL0     H65187   3.553   3.027  11.137  1.5836 -1.2013 -1.9283
  483MOL0     H65188   3.778   3.036  11.236 -1.6376  0.5446  0.1539
  483MOL0     H65189   4.290   3.016  11.182 -1.8343 -2.4830  2.0909
  483MOL0     H65190   4.482   3.032  11.314 -1.7192 -1.3599  0.4749
  483MOL0     H65191   5.831   4.002  11.732  0.3961  3.7538 -1.7883
  483MOL0     H65192   5.927   4.148  11.577  0.0515 -0.1647  0.0758
  483MOL0     H65193   6.325   4.404  11.354 -0.2671  0.4519 -0.3984
  483MOL0     H65194   6.345   4.542  11.156 -1.5025  0.9532 -2.5555
  483MOL0     H65195   6.215   4.422  10.758 -2.4443 -1.5740  0.5760
  483MOL0     H65196   6.077   4.501  10.833  0.4208 -0.7684  0.0445
  483MOL0     H65197   6.179   4.602  10.630 -1.6721 -0.1993 -0.5082
  483MOL0     H65198   6.318   4.653  10.743  0.4876  0.3030 -2.2452
  483MOL0     H65199   6.101   4.755  10.864 -5.3520  2.2679 -0.3539
  483MOL0     H65200   6.021   4.718  10.708 -1.9623  1.6085  0.7686
  483MOL0     H65201   6.273   4.897  10.742  0.4237 -1.9256 -0.3439
  483MOL0     H65202   6.109   4.974  10.739 -2.6745  0.1250 -1.6908
  483MOL0     H65203   6.192   4.871  10.333  2.0250 -1.7856 -0.0847
  483MOL0     H65204   6.109   4.280  10.928  0.4839 -1.4930  1.3580
  483MOL0     H65205   6.087   4.129  11.120  0.2015 -0.6013 -0.7855
  484MOL0     O65206  10.344   9.878   3.341 -0.1122 -0.7107  0.0529
  484MOL0     C65207  10.353   9.766   3.297 -0.3296 -0.5814  0.1102
  484MOL0     O65208  10.252   9.675   3.306  0.3379  0.8211 -0.6029
  484MOL0     C65209  10.137   9.727   3.354  1.1263  1.5104  0.1678
  484MOL0     C65210  10.110   9.726   3.493 -0.3551 -0.2268  0.5528
  484MOL0     C65211   9.992   9.774   3.552  0.0698 -0.6635  0.0673
  484MOL0     C65212   9.886   9.819   3.467 -0.1278  1.1499 -0.4389
  484MOL0     O65213   9.764   9.874   3.507  0.4160  0.1565  0.2681
  484MOL0     C65214   9.753   9.887   3.657 -0.2141 -0.0003  0.5563
  484MOL0     C65215   9.643   9.990   3.670  0.0386  0.0015 -1.2024
  484MOL0     C65216   9.513   9.960   3.592 -0.3667  0.3932 -0.5281
  484MOL0     C65217   9.391  10.028   3.657  0.6702 -0.3040 -0.4848
  484MOL0     C65218   9.276  10.002   3.563  0.0192  0.7854 -0.5047
  484MOL0     C65219   9.150  10.034   3.639  0.3375 -0.7608  1.0077
  484MOL0     C65220   9.013  10.036   3.563 -0.0075 -1.0692 -0.4561
  484MOL0     C65221   9.001  10.152   3.460 -0.2568  0.4839 -0.8252
  484MOL0     N65222   8.859  10.188   3.438  0.0516 -0.2210 -0.3094
  484MOL0     C65223   8.764  10.109   3.368  0.3567 -0.9721  0.2774
  484MOL0     C65224   8.680  10.204   3.319 -1.2200 -0.3149  0.5822
  484MOL0     C65225   8.557  10.177   3.243 -0.4270  1.3348  1.0311
  484MOL0     C65226   8.441  10.175   3.332 -0.5815 -0.1243 -0.8453
  484MOL0     C65227   8.314  10.159   3.250 -0.4665 -1.0357  0.0479
  484MOL0     C65228   8.197  10.127   3.338 -0.1501 -0.5196 -0.1686
  484MOL0     O65229   8.093  10.102   3.240 -0.2742  0.1281  0.0587
  484MOL0     C65230   7.993  10.014   3.279  0.2811 -0.1235  0.1928
  484MOL0     C65231   7.976   9.978   3.414  0.3237  1.0772  0.3196
  484MOL0     C65232   7.906   9.865   3.454 -0.1468 -0.3042 -1.1375
  484MOL0     C65233   7.901   9.816   3.595 -0.8545  0.4200 -0.7549
  484MOL0     C65234   7.825   9.809   3.353 -0.1193  0.7228  0.6178
  484MOL0     C65235   7.731   9.701   3.373 -1.2819 -0.0747 -1.1863
  484MOL0     O65236   7.591   9.707   3.331 -0.3118 -0.5093 -0.4224
  484MOL0     C65237   7.524   9.596   3.359 -0.6071 -0.7941  0.3028
  484MOL0     C65238   7.445   9.540   3.253 -0.7795 -0.1468  0.3307
  484MOL0     C65239   7.366   9.430   3.273 -0.3151  1.3057  0.3327
  484MOL0     C65240   7.356   9.363   3.391 -0.7312 -0.3317  0.3278
  484MOL0     O65241   7.268   9.260   3.436 -1.2930 -0.9426 -0.3330
  484MOL0     C65242   7.141   9.252   3.371  0.0240 -0.9258 -0.3575
  484MOL0     C65243   7.055   9.153   3.451  0.1711 -1.0312  0.6584
  484MOL0     C65244   7.119   9.016   3.453  1.2056  1.0064 -0.4365
  484MOL0     C65245   7.121   8.954   3.316  0.1270  0.1558  0.2229
  484MOL0     C65246   7.183   8.816   3.309 -0.2937 -0.3624  0.4522
  484MOL0     C65247   7.167   8.745   3.169 -0.9275  0.5696 -0.3304
  484MOL0     C65248   7.222   8.610   3.185 -0.6805 -0.3127 -0.0550
  484MOL0     C65249   7.247   8.544   3.051 -0.0776 -0.0133  0.0900
  484MOL0    Cl65250   7.104   8.575   2.945 -0.1379 -0.1974  0.3830
  484MOL0     C65251   7.440   9.414   3.489 -0.9785  1.0641  0.7545
  484MOL0     C65252   7.526   9.528   3.475 -0.2511  0.1057  0.6578
  484MOL0     O65253   7.779   9.604   3.426 -0.3795 -0.3603 -0.5169
  484MOL0     C65254   7.825   9.855   3.218  0.3262 -0.3989  0.1961
  484MOL0     C65255   7.906   9.960   3.180 -1.1775  0.2322  0.2518
  484MOL0     N65256   8.714  10.329   3.356 -1.2764  0.3047  0.0284
  484MOL0     N65257   8.822  10.320   3.423 -0.1591 -0.0148  0.9369
  484MOL0     C65258   9.907   9.810   3.325 -0.1195 -0.5581  0.2698
  484MOL0     C65259  10.028   9.757   3.275  0.1171 -0.4752  0.9085
  484MOL0     C65260  10.491   9.717   3.243 -0.2506 -0.1746 -0.7830
  484MOL0     C65261  10.520   9.578   3.244  0.4496 -0.2230  0.2185
  484MOL0     C65262  10.644   9.530   3.202 -0.3478  0.5513 -0.3370
  484MOL0     C65263  10.747   9.628   3.167 -0.4947  0.6915  0.0016
  484MOL0     O65264  10.871   9.583   3.128 -0.9027 -0.2234  0.5866
  484MOL0     C65265  10.916   9.443   3.115  0.0840 -0.6486 -0.1230
  484MOL0     C65266  11.028   9.438   3.006  0.2235  0.5109  0.0315
  484MOL0     C65267  11.116   9.318   2.996 -0.2807  0.1735 -0.7296
  484MOL0     C65268  11.064   9.179   2.952 -0.5422  0.4562 -0.0822
  484MOL0     C65269  10.982   9.111   3.053 -0.0045 -0.0899 -0.2619
  484MOL0     C65270  10.899   9.068   3.123  0.0182 -0.7089 -0.1226
  484MOL0     C65271  10.718   9.768   3.160 -0.2847 -0.2413 -0.5014
  484MOL0     C65272  10.585   9.811   3.192 -0.5479  0.2129 -0.3816
  484MOL0     H65273  10.199   9.708   3.553 -0.1442 -1.8527 -0.1955
  484MOL0     H65274   9.992   9.775   3.660 -0.2876  0.7164  0.0739
  484MOL0     H65275   9.716   9.799   3.711 -0.9082 -1.4338 -2.1218
  484MOL0     H65276   9.842   9.923   3.709  0.4837 -0.7818 -0.0881
  484MOL0     H65277   9.619  10.011   3.775  4.1859  5.5445 -0.8676
  484MOL0     H65278   9.675  10.091   3.642 -1.9008  1.0571  0.0978
  484MOL0     H65279   9.526   9.993   3.489 -1.5272 -0.1020 -0.8502
  484MOL0     H65280   9.502   9.851   3.591  3.6853 -0.1513 -1.7221
  484MOL0     H65281   9.369   9.988   3.757 -0.4743  0.7491 -0.2919
  484MOL0     H65282   9.392  10.137   3.646  0.8485  0.0673  2.4607
  484MOL0     H65283   9.300  10.068   3.480 -0.4293  0.0057 -1.2676
  484MOL0     H65284   9.274   9.898   3.528  2.7476 -0.0221  1.3793
  484MOL0     H65285   9.135   9.970   3.726  0.4751 -0.4307  1.2763
  484MOL0     H65286   9.158  10.133   3.685 -2.6065  0.7036 -1.3092
  484MOL0     H65287   8.990   9.942   3.512 -1.6543 -2.0887  2.0251
  484MOL0     H65288   8.931  10.047   3.635 -2.7814  2.3131 -3.6722
  484MOL0     H65289   9.069  10.139   3.376 -1.7648  1.8449 -2.3353
  484MOL0     H65290   9.021  10.236   3.527  2.1537 -2.3494  2.3075
  484MOL0     H65291   8.754  10.002   3.353  0.1888 -0.8042 -0.9310
  484MOL0     H65292   8.554  10.267   3.179  1.4563  1.3786  0.9488
  484MOL0     H65293   8.550  10.092   3.175 -2.6228  3.5310 -1.8012
  484MOL0     H65294   8.442  10.263   3.397 -0.6309 -0.9075  0.2408
  484MOL0     H65295   8.457  10.082   3.388  0.0663  0.1552 -0.5597
  484MOL0     H65296   8.319  10.086   3.169  0.6290  1.8517 -2.6878
  484MOL0     H65297   8.306  10.263   3.216  0.4186 -1.4710 -1.5686
  484MOL0     H65298   8.175  10.207   3.409  1.3481  0.5088 -0.8159
  484MOL0     H65299   8.218  10.039   3.399  0.4221 -0.3468 -0.1033
  484MOL0     H65300   8.017  10.037   3.495 -1.7505 -0.2588  2.4585
  484MOL0     H65301   7.943   9.715   3.591  1.3064  1.3167 -1.5695
  484MOL0     H65302   7.972   9.874   3.654 -0.0995 -0.2552 -0.9799
  484MOL0     H65303   7.803   9.813   3.645 -0.1949 -2.2222  0.5731
  484MOL0     H65304   7.436   9.599   3.162 -2.6581  4.2300  3.0245
  484MOL0     H65305   7.312   9.392   3.186  0.6345 -1.1226  0.7113
  484MOL0     H65306   7.090   9.348   3.380  0.4643 -0.7906  1.0737
  484MOL0     H65307   7.167   9.226   3.268  0.1537 -1.6114 -0.1629
  484MOL0     H65308   7.057   9.193   3.553 -2.6068  1.4477 -0.1169
  484MOL0     H65309   6.958   9.158   3.402  1.2845  2.3796 -1.6166
  484MOL0     H65310   7.055   8.952   3.515  0.7482  0.8993 -1.0145
  484MOL0     H65311   7.226   9.016   3.474  2.4101  1.0256 -5.3042
  484MOL0     H65312   7.020   8.942   3.277  1.0821  0.4323 -2.5575
  484MOL0     H65313   7.179   9.023   3.254 -2.6911  2.4221 -0.0890
  484MOL0     H65314   7.133   8.762   3.390 -3.6581  4.0165  1.6671
  484MOL0     H65315   7.286   8.820   3.346 -0.7115 -1.4493  1.8538
  484MOL0     H65316   7.066   8.761   3.130 -1.5932 -2.4918 -0.0957
  484MOL0     H65317   7.227   8.792   3.091 -0.9220 -0.6317 -1.0720
  484MOL0     H65318   7.139   8.561   3.238 -0.8638 -1.2866 -1.1956
  484MOL0     H65319   7.315   8.612   3.243  1.4936 -0.7037 -3.2437
  484MOL0     H65320   7.282   8.441   3.062  0.2297  0.2619  2.2713
  484MOL0     H65321   7.335   8.599   3.017  1.4914 -2.8745 -0.7809
  484MOL0     H65322   7.454   9.353   3.577  2.1630  1.3818  0.5720
  484MOL0     H65323   7.577   9.566   3.563  0.8460  0.6420 -0.1837
  484MOL0     H65324   7.765   9.803   3.144  0.2063 -2.8926  1.9002
  484MOL0     H65325   7.909   9.997   3.078 -0.7925  0.1015  0.2140
  484MOL0     H65326   9.824   9.836   3.259  0.8811  0.9907 -0.4207
  484MOL0     H65327  10.043   9.737   3.169 -0.3182  1.3652  0.4688
  484MOL0     H65328  10.450   9.509   3.289  0.2352 -0.1560 -0.0136
  484MOL0     H65329  10.658   9.422   3.197 -2.2333  0.1658  1.3614
  484MOL0     H65330  10.967   9.408   3.205 -1.3830  0.8001  1.3706
  484MOL0     H65331  10.832   9.376   3.097 -1.8287  1.2196  1.2604
  484MOL0     H65332  11.088   9.526   3.030 -0.0423 -0.3929  5.0404
  484MOL0     H65333  10.967   9.445   2.915 -0.4577 -0.5237  0.3799
  484MOL0     H65334  11.166   9.306   3.092 -0.6545  1.8271 -0.2981
  484MOL0     H65335  11.200   9.349   2.933 -0.4343 -0.8445 -1.4607
  484MOL0     H65336  11.147   9.109   2.938 -0.7244  0.2146  0.0346
  484MOL0     H65337  11.015   9.198   2.856 -3.1124 -2.9592  0.3850
  484MOL0     H65338  10.816   9.027   3.179  0.0470 -1.7870 -0.8336
  484MOL0     H65339  10.787   9.839   3.116 -1.4241 -0.0961 -2.1774
  484MOL0     H65340  10.574   9.919   3.195 -0.4278  0.2909 -1.9146
  485MOL0     O65341   5.041   0.256   0.824 -0.8958  0.4860  0.0086
  485MOL0     C65342   5.006   0.150   0.770  0.5160 -0.2395 -0.1751
  485MOL0     O65343   4.883   0.138   0.711 -0.1719  0.2554  0.5579
  485MOL0     C65344   4.794   0.236   0.715  0.1744  0.8952 -0.1133
  485MOL0     C65345   4.726   0.277   0.595  0.1050  0.2165  0.7364
  485MOL0     C65346   4.620   0.369   0.584  0.2527  0.2443 -1.2617
  485MOL0     C65347   4.587   0.437   0.702  1.1643  0.5595 -0.0669
  485MOL0     O65348   4.489   0.535   0.712  0.2961  0.7251  0.9676
  485MOL0     C65349   4.350   0.504   0.680  0.7078 -0.2314  0.3644
  485MOL0     C65350   4.289   0.471   0.809  0.3419 -0.9323  0.8080
  485MOL0     C65351   4.332   0.338   0.863 -0.6402 -0.1372  0.7010
  485MOL0     C65352   4.225   0.277   0.958  0.5671 -0.5352 -0.5120
  485MOL0     C65353   4.267   0.121   0.977 -0.2052 -0.9196  0.0800
  485MOL0     C65354   4.146   0.043   1.007  0.5059 -0.2977 -0.8436
  485MOL0     C65355   4.174  -0.107   1.043  0.2572  0.2500 -0.5097
  485MOL0     C65356   4.055  -0.205   1.047  0.0346  0.1330  0.8434
  485MOL0     N65357   4.015  -0.227   0.906  0.3895  0.2497 -0.5688
  485MOL0     C65358   4.067  -0.318   0.817  1.4923 -0.9041  0.2128
  485MOL0     C65359   3.984  -0.308   0.709  1.0895 -0.8893  0.1478
  485MOL0     C65360   4.030  -0.382   0.586 -0.7074 -0.0675  0.6575
  485MOL0     C65361   3.904  -0.441   0.523 -0.4280  0.9166 -0.6223
  485MOL0     C65362   3.932  -0.546   0.412  0.8444 -1.1950  0.3515
  485MOL0     C65363   3.802  -0.616   0.362  0.2446 -0.7375 -0.4974
  485MOL0     O65364   3.700  -0.528   0.325  0.5024 -0.2829  0.6599
  485MOL0     C65365   3.573  -0.560   0.285 -0.2012 -0.0931  0.9156
  485MOL0     C65366   3.497  -0.457   0.246 -0.2448  0.7953  0.6059
  485MOL0     C65367   3.365  -0.477   0.220  0.3934  0.5231  0.9738
  485MOL0     C65368   3.283  -0.349   0.181  0.1222  0.7080 -0.1089
  485MOL0     C65369   3.305  -0.605   0.225 -0.2184 -0.4834 -0.6071
  485MOL0     C65370   3.165  -0.646   0.193 -0.4551  0.0245 -0.6334
  485MOL0     O65371   3.070  -0.561   0.135 -0.2490  0.1027 -0.0192
  485MOL0     C65372   2.954  -0.613   0.082 -1.0647  0.5924 -0.0813
  485MOL0     C65373   2.839  -0.605   0.171 -0.3480  1.4053 -0.0275
  485MOL0     C65374   2.713  -0.667   0.131 -0.7177  0.4441  0.9012
  485MOL0     C65375   2.703  -0.733   0.001 -0.0250 -0.7537 -0.0635
  485MOL0     O65376   2.580  -0.773  -0.061 -0.8660  0.8444  0.1437
  485MOL0     C65377   2.477  -0.796   0.033  0.3971  0.1222  1.0114
  485MOL0     C65378   2.374  -0.891  -0.042  0.0139  0.6179  0.3135
  485MOL0     C65379   2.304  -0.828  -0.167 -0.0457 -0.9726  0.4377
  485MOL0     C65380   2.229  -0.932  -0.245 -0.0452 -0.0787 -0.0903
  485MOL0     C65381   2.110  -0.855  -0.308  0.5805 -0.6615  0.3130
  485MOL0     C65382   2.028  -0.944  -0.415  0.0259  0.0992  0.1858
  485MOL0     C65383   1.912  -0.864  -0.487  0.2021 -0.3831 -0.3003
  485MOL0     C65384   1.857  -0.959  -0.590  0.6642 -0.2211 -0.5028
  485MOL0    Cl65385   1.750  -0.868  -0.705  0.0108 -0.2509  0.0552
  485MOL0     C65386   2.813  -0.733  -0.077 -0.0919  0.5237 -0.3490
  485MOL0     C65387   2.937  -0.677  -0.041 -0.5532 -0.4003  0.7289
  485MOL0     O65388   3.139  -0.764   0.218 -0.0574  1.6816 -0.3196
  485MOL0     C65389   3.404  -0.713   0.241  0.4807  0.0712  0.8019
  485MOL0     C65390   3.535  -0.689   0.286  0.5980  0.4726 -0.6606
  485MOL0     N65391   3.885  -0.212   0.736 -0.3422  0.3678  0.4290
  485MOL0     N65392   3.902  -0.171   0.858  0.0481 -0.8582 -0.5968
  485MOL0     C65393   4.665   0.413   0.814  0.5417  0.3596 -0.8077
  485MOL0     C65394   4.772   0.318   0.823 -0.3234 -0.3491  0.0782
  485MOL0     C65395   5.101   0.041   0.761  0.1340 -0.0253 -0.5098
  485MOL0     C65396   5.062  -0.092   0.738  0.5289 -0.3864  0.0495
  485MOL0     C65397   5.159  -0.196   0.732 -0.5064  1.1805 -0.8474
  485MOL0     C65398   5.295  -0.176   0.743  0.0161  1.0233  0.4905
  485MOL0     O65399   5.368  -0.288   0.711 -0.3632  0.0526 -0.6999
  485MOL0     C65400   5.470  -0.321   0.799 -0.3287 -0.5300  0.0040
  485MOL0     C65401   5.525  -0.453   0.753 -0.5666 -0.3387 -0.1100
  485MOL0     C65402   5.438  -0.575   0.772  0.1019  0.8229 -0.4304
  485MOL0     C65403   5.335  -0.570   0.895  0.6678 -0.1559  0.1903
  485MOL0     C65404   5.256  -0.691   0.889  0.1852 -1.0250  0.0148
  485MOL0     C65405   5.187  -0.787   0.870 -0.3410  0.4270 -0.0308
  485MOL0     C65406   5.337  -0.047   0.761 -0.3699 -0.3870  0.4850
  485MOL0     C65407   5.245   0.061   0.768  0.0592 -0.7438 -1.3105
  485MOL0     H65408   4.750   0.212   0.512 -1.4513 -0.7828  1.0197
  485MOL0     H65409   4.576   0.396   0.489 -0.0490  3.6523 -0.3000
  485MOL0     H65410   4.302   0.594   0.641 -1.3275  0.7157  4.5400
  485MOL0     H65411   4.350   0.424   0.605  2.2645 -0.5506  0.6717
  485MOL0     H65412   4.310   0.542   0.889 -0.3518 -1.5260  1.5336
  485MOL0     H65413   4.180   0.464   0.803  0.3689 -2.5504  1.5488
  485MOL0     H65414   4.337   0.272   0.775 -0.6697 -0.9111  1.2721
  485MOL0     H65415   4.431   0.328   0.907 -0.6594 -2.6543  0.3209
  485MOL0     H65416   4.227   0.322   1.058  2.4435 -2.1971  0.2603
  485MOL0     H65417   4.126   0.265   0.914  0.8210 -2.0848 -0.7255
  485MOL0     H65418   4.317   0.082   0.888  1.3540  2.2252 -0.5948
  485MOL0     H65419   4.346   0.119   1.053 -0.0453  1.3862  0.0691
  485MOL0     H65420   4.083   0.088   1.085 -1.9101  0.5564 -3.1342
  485MOL0     H65421   4.086   0.046   0.916  1.3552  1.2822 -1.3888
  485MOL0     H65422   4.244  -0.151   0.973 -2.1451 -4.3749 -0.3652
  485MOL0     H65423   4.225  -0.102   1.140 -0.5351 -0.4477 -0.0437
  485MOL0     H65424   3.975  -0.163   1.109 -3.7521  2.0144 -4.6328
  485MOL0     H65425   4.086  -0.302   1.087  0.7593  1.1455  2.8638
  485MOL0     H65426   4.161  -0.371   0.828  3.7115  1.4373 -4.7729
  485MOL0     H65427   4.077  -0.313   0.517 -1.3964 -1.6087 -1.4479
  485MOL0     H65428   4.106  -0.458   0.608 -0.2107 -0.0188 -0.8016
  485MOL0     H65429   3.859  -0.352   0.479 -0.6662  0.3738 -1.4984
  485MOL0     H65430   3.838  -0.484   0.599  0.2244 -0.6529 -0.8992
  485MOL0     H65431   3.998  -0.625   0.448  2.1054 -0.6602 -0.6949
  485MOL0     H65432   3.973  -0.503   0.320  1.2677 -0.4868  0.8616
  485MOL0     H65433   3.748  -0.679   0.434 -5.0338  0.7448 -2.6591
  485MOL0     H65434   3.837  -0.683   0.283  2.8447  1.5880 -1.4756
  485MOL0     H65435   3.540  -0.361   0.220 -2.6140  1.2222 -2.2771
  485MOL0     H65436   3.343  -0.270   0.135  0.2156  0.6870 -0.0196
  485MOL0     H65437   3.215  -0.381   0.100  2.4075  0.8330 -2.2032
  485MOL0     H65438   3.230  -0.320   0.272 -1.8504 -2.9279  0.1171
  485MOL0     H65439   2.852  -0.561   0.269  2.6845  1.8311 -0.5325
  485MOL0     H65440   2.619  -0.662   0.185 -1.7326 -1.2396 -0.6027
  485MOL0     H65441   2.514  -0.853   0.119  0.3622  0.2777  1.1289
  485MOL0     H65442   2.436  -0.702   0.071  0.9354 -0.3039  2.6974
  485MOL0     H65443   2.437  -0.973  -0.077 -0.3493 -0.3113  1.7603
  485MOL0     H65444   2.303  -0.940   0.025 -1.7240  3.3931  0.6610
  485MOL0     H65445   2.377  -0.790  -0.240  2.8227  0.5401  3.7923
  485MOL0     H65446   2.238  -0.745  -0.141  0.9556  1.0795 -2.9380
  485MOL0     H65447   2.291  -0.980  -0.321  0.2716  0.2358 -0.0320
  485MOL0     H65448   2.183  -1.011  -0.185 -1.7133  0.1995 -0.9270
  485MOL0     H65449   2.144  -0.760  -0.349 -0.3217 -0.6560 -0.4537
  485MOL0     H65450   2.035  -0.818  -0.238 -1.1100  0.5628 -2.0029
  485MOL0     H65451   2.097  -0.981  -0.491 -1.1069 -1.2354 -0.2280
  485MOL0     H65452   1.974  -1.022  -0.362 -2.3283  3.4324  3.1977
  485MOL0     H65453   1.959  -0.772  -0.525 -0.5656  0.3411  0.4676
  485MOL0     H65454   1.829  -0.838  -0.421 -1.8543 -1.1025 -2.4428
  485MOL0     H65455   1.800  -1.038  -0.539 -1.2552  1.9687  0.9256
  485MOL0     H65456   1.934  -1.011  -0.648 -1.0200 -1.1277 -2.0528
  485MOL0     H65457   2.795  -0.776  -0.175 -0.0445  0.0332 -0.1445
  485MOL0     H65458   3.028  -0.688  -0.099 -0.2979  3.1336  0.2609
  485MOL0     H65459   3.372  -0.815   0.220  0.1883  0.2222  0.4980
  485MOL0     H65460   3.589  -0.782   0.298 -1.5285 -0.5282  2.3340
  485MOL0     H65461   4.641   0.471   0.902  0.7265  0.9458 -1.1405
  485MOL0     H65462   4.842   0.303   0.904 -2.1831  0.3276  1.8908
  485MOL0     H65463   4.960  -0.129   0.733 -0.0463  1.1759 -0.3395
  485MOL0     H65464   5.133  -0.300   0.714 -0.9333  0.2096  4.0872
  485MOL0     H65465   5.548  -0.245   0.796 -0.9304  0.0806 -1.5969
  485MOL0     H65466   5.436  -0.325   0.903  2.3498 -2.4845  0.8955
  485MOL0     H65467   5.621  -0.477   0.799  0.3242  0.4013 -1.5355
  485MOL0     H65468   5.550  -0.443   0.647 -0.8165 -1.5536 -0.3083
  485MOL0     H65469   5.502  -0.662   0.790 -0.4778  0.1698 -1.4155
  485MOL0     H65470   5.388  -0.597   0.677  3.4655  1.1190 -2.4231
  485MOL0     H65471   5.274  -0.481   0.876 -0.0964 -0.7509 -0.1890
  485MOL0     H65472   5.384  -0.565   0.993  0.2570 -2.0033  0.5201
  485MOL0     H65473   5.124  -0.868   0.840  1.2611 -1.0437  0.3643
  485MOL0     H65474   5.443  -0.033   0.778 -0.6671 -1.7672  4.3050
  485MOL0     H65475   5.287   0.158   0.792  2.5520 -1.4232 -2.6159
  486MOL0     O65476   6.051   5.980   7.470 -0.0314 -0.7791  0.2415
  486MOL0     C65477   5.980   5.894   7.528 -0.0590 -0.2404 -0.5263
  486MOL0     O65478   5.905   5.796   7.465 -0.0183  0.1188 -0.6232
  486MOL0     C65479   5.918   5.792   7.327  0.0774 -0.0510 -0.9482
  486MOL0     C65480   5.878   5.890   7.243 -0.5425 -0.2766  0.7029
  486MOL0     C65481   5.873   5.875   7.106 -0.6634  0.1914  0.0814
  486MOL0     C65482   5.924   5.752   7.050 -0.2457 -0.6341 -0.2854
  486MOL0     O65483   5.910   5.746   6.911 -0.0979 -0.1506 -0.5735
  486MOL0     C65484   5.959   5.633   6.831  0.7489 -0.5299 -0.2808
  486MOL0     C65485   5.941   5.644   6.693  0.0674 -0.0815 -0.4197
  486MOL0     C65486   6.023   5.767   6.654 -0.0856 -0.5386 -0.5698
  486MOL0     C65487   6.031   5.784   6.504  0.5329  0.3910 -0.5134
  486MOL0     C65488   5.892   5.811   6.437 -0.2098  0.5525  0.0245
  486MOL0     C65489   5.907   5.863   6.292  0.3109  0.5824 -0.2133
  486MOL0     C65490   5.772   5.880   6.224 -1.1696 -1.5992 -0.0611
  486MOL0     C65491   5.728   6.028   6.220 -0.6025  0.0454 -0.1859
  486MOL0     N65492   5.615   6.046   6.318 -0.3464 -0.7451 -1.3038
  486MOL0     C65493   5.573   5.971   6.428 -0.9809  1.3296 -0.8388
  486MOL0     C65494   5.473   6.044   6.480 -0.2513 -0.5851 -0.5937
  486MOL0     C65495   5.403   6.003   6.608 -0.1828 -0.0609 -0.8006
  486MOL0     C65496   5.354   5.854   6.610 -0.2907 -1.3024  0.4234
  486MOL0     C65497   5.252   5.823   6.495  0.8783  0.0546 -1.1396
  486MOL0     C65498   5.109   5.890   6.511 -0.0537 -0.9918 -0.5798
  486MOL0     O65499   5.029   5.874   6.396 -0.2364 -0.0454 -0.1247
  486MOL0     C65500   5.078   5.942   6.290  0.8610  0.0380  0.1594
  486MOL0     C65501   5.151   6.065   6.281  1.0496  0.0665  1.2400
  486MOL0     C65502   5.181   6.125   6.157  0.6381 -0.6195 -0.9818
  486MOL0     C65503   5.264   6.250   6.145  0.6571  1.0419  0.0323
  486MOL0     C65504   5.157   6.055   6.033 -0.9295 -0.0363 -0.6976
  486MOL0     C65505   5.216   6.089   5.906 -0.4811 -0.4109 -0.0863
  486MOL0     O65506   5.110   6.100   5.813  0.2071 -0.6164 -0.6278
  486MOL0     C65507   5.123   6.156   5.685  0.4359  0.1229  0.0959
  486MOL0     C65508   5.008   6.146   5.611  0.6619 -0.2093  0.8331
  486MOL0     C65509   5.011   6.208   5.485  0.0782 -0.7415 -0.5620
  486MOL0     C65510   5.130   6.267   5.426 -0.2037  0.1159  0.3439
  486MOL0     O65511   5.138   6.333   5.303  0.1894  0.4778 -0.4604
  486MOL0     C65512   5.023   6.414   5.261  0.1590 -0.0048  0.7375
  486MOL0     C65513   4.945   6.350   5.144 -0.9283  0.4809  0.6658
  486MOL0     C65514   4.872   6.465   5.065  0.0685 -0.0361  0.1764
  486MOL0     C65515   4.747   6.418   4.985 -0.7723 -0.0520  0.2751
  486MOL0     C65516   4.778   6.344   4.850  0.8433 -0.5477  0.2002
  486MOL0     C65517   4.646   6.286   4.807  0.9749 -0.4175 -0.1842
  486MOL0     C65518   4.552   6.391   4.757 -0.0708  0.2002 -0.0333
  486MOL0     C65519   4.430   6.334   4.684 -0.2514 -0.0832 -0.3586
  486MOL0    Cl65520   4.479   6.276   4.527 -0.5383 -0.4540  0.3185
  486MOL0     C65521   5.246   6.260   5.506  0.2774  0.5319  0.5055
  486MOL0     C65522   5.236   6.206   5.635 -0.3871  0.3438  0.0392
  486MOL0     O65523   5.339   6.093   5.879  0.4800  0.0758 -0.5349
  486MOL0     C65524   5.086   5.930   6.037  0.0102  0.0811  0.0976
  486MOL0     C65525   5.046   5.883   6.161 -0.3330 -0.2067 -0.0024
  486MOL0     N65526   5.461   6.163   6.419  0.3183 -0.4708  0.1107
  486MOL0     N65527   5.541   6.155   6.320  0.0522 -0.7190  0.6045
  486MOL0     C65528   5.972   5.652   7.133  0.3345 -0.6032  1.4548
  486MOL0     C65529   5.960   5.666   7.270  0.3193 -0.0255 -0.9666
  486MOL0     C65530   5.935   5.908   7.671  0.3372 -0.8391  0.2694
  486MOL0     C65531   5.860   5.812   7.741 -0.2790 -1.2774 -0.0936
  486MOL0     C65532   5.814   5.840   7.868 -0.5527  0.5270 -0.4219
  486MOL0     C65533   5.853   5.953   7.934  0.6116  1.0727  0.3470
  486MOL0     O65534   5.805   5.982   8.065  0.0341  0.1645  0.0031
  486MOL0     C65535   5.703   5.901   8.132  0.0692 -0.9185  1.0598
  486MOL0     C65536   5.685   5.958   8.270  0.1335 -0.0804  0.6786
  486MOL0     C65537   5.774   5.890   8.366 -0.4510  0.7050  0.9548
  486MOL0     C65538   5.786   5.987   8.491  0.0625  0.6883  0.2637
  486MOL0     C65539   5.890   5.934   8.581  0.8303 -0.0500 -0.9480
  486MOL0     C65540   5.985   5.890   8.639 -0.0167 -0.0046 -0.1780
  486MOL0     C65541   5.938   6.042   7.867 -0.2985  0.2551  0.2789
  486MOL0     C65542   5.958   6.026   7.735 -0.1116 -0.3580  0.1919
  486MOL0     H65543   5.854   5.986   7.289  2.0548  1.5585 -1.4158
  486MOL0     H65544   5.849   5.961   7.045  1.3129 -0.1243 -1.2469
  486MOL0     H65545   6.062   5.604   6.855 -0.3849 -3.4910  1.5612
  486MOL0     H65546   5.899   5.549   6.867  0.4590 -0.1488  0.1408
  486MOL0     H65547   5.988   5.557   6.645  0.7314 -0.5887  1.0962
  486MOL0     H65548   5.836   5.655   6.664  0.1343  2.5998  0.1265
  486MOL0     H65549   5.969   5.854   6.693  0.7115  0.4975 -1.6718
  486MOL0     H65550   6.122   5.765   6.701  0.3445 -1.9265 -1.4735
  486MOL0     H65551   6.097   5.871   6.502 -3.0237  3.3180 -0.2993
  486MOL0     H65552   6.074   5.694   6.458 -0.6979  0.0157 -0.9641
  486MOL0     H65553   5.843   5.715   6.456 -0.7272  0.8587  0.2412
  486MOL0     H65554   5.829   5.884   6.488 -2.0833  1.5921 -3.4826
  486MOL0     H65555   5.966   5.956   6.298  3.7172 -1.4598  1.1008
  486MOL0     H65556   5.958   5.784   6.237 -1.4309 -1.7664  1.3998
  486MOL0     H65557   5.791   5.847   6.121  0.2174 -0.3199 -0.2640
  486MOL0     H65558   5.687   5.824   6.262  0.1745 -2.6181  1.5958
  486MOL0     H65559   5.710   6.062   6.117  1.2352  3.6354  0.5162
  486MOL0     H65560   5.809   6.096   6.247 -2.0404  2.0524 -0.6420
  486MOL0     H65561   5.617   5.879   6.466 -1.4899  1.6259  0.5312
  486MOL0     H65562   5.478   6.032   6.683  1.2609  4.1442 -3.4590
  486MOL0     H65563   5.320   6.073   6.622 -0.9744 -1.2067  0.4745
  486MOL0     H65564   5.303   5.840   6.705  0.1385 -1.3073  0.6552
  486MOL0     H65565   5.446   5.798   6.592 -0.1895 -0.8457 -0.5766
  486MOL0     H65566   5.229   5.716   6.490  0.5597 -0.0289  1.2538
  486MOL0     H65567   5.300   5.868   6.407 -1.9947  4.1256 -0.8969
  486MOL0     H65568   5.113   5.997   6.531  2.0465 -1.1411  0.0351
  486MOL0     H65569   5.063   5.834   6.593 -1.8207 -1.1794 -1.6475
  486MOL0     H65570   5.171   6.107   6.379 -2.1082  0.4782  1.8215
  486MOL0     H65571   5.367   6.212   6.144 -0.2820 -1.7535  0.1299
  486MOL0     H65572   5.245   6.302   6.051  1.4247  0.6054 -0.3724
  486MOL0     H65573   5.248   6.314   6.232  0.7233  1.4175 -0.2320
  486MOL0     H65574   4.918   6.105   5.656  0.3687 -0.3898  0.0829
  486MOL0     H65575   4.923   6.203   5.422 -0.9247 -1.8788  0.8878
  486MOL0     H65576   4.959   6.427   5.349 -2.3565  3.2569 -1.3187
  486MOL0     H65577   5.050   6.519   5.247 -1.0268  0.0090 -2.2118
  486MOL0     H65578   5.015   6.289   5.086 -1.3593  1.0940 -0.5147
  486MOL0     H65579   4.871   6.279   5.184 -4.3100  2.7165 -1.1265
  486MOL0     H65580   4.941   6.525   5.007  0.3499 -0.4439  0.0827
  486MOL0     H65581   4.815   6.528   5.135  0.4880  0.2734  0.2400
  486MOL0     H65582   4.686   6.354   5.050  0.0868 -1.5541 -0.3371
  486MOL0     H65583   4.686   6.500   4.947 -2.3428 -2.6600 -3.3323
  486MOL0     H65584   4.852   6.265   4.867  1.7026 -0.1315 -1.3920
  486MOL0     H65585   4.815   6.415   4.775  0.3935  0.5984  1.0295
  486MOL0     H65586   4.662   6.222   4.720  0.7093 -0.7319 -0.0016
  486MOL0     H65587   4.597   6.219   4.878 -3.4381  0.1365 -2.4037
  486MOL0     H65588   4.596   6.466   4.691  0.3405  1.0437  1.1812
  486MOL0     H65589   4.511   6.449   4.840  1.0397  1.0989 -0.1024
  486MOL0     H65590   4.347   6.405   4.677 -0.3229  0.1662  2.1102
  486MOL0     H65591   4.393   6.251   4.746  0.0352  0.1959  0.1896
  486MOL0     H65592   5.331   6.309   5.459  1.6921 -0.3511  2.0355
  486MOL0     H65593   5.327   6.224   5.691  1.0967 -1.6438 -1.5975
  486MOL0     H65594   5.062   5.872   5.949 -0.5116 -1.1690  1.0416
  486MOL0     H65595   4.994   5.789   6.177 -0.8911  0.2005  0.6600
  486MOL0     H65596   6.007   5.562   7.083  3.3240  1.8114 -1.2859
  486MOL0     H65597   5.966   5.593   7.350 -2.6783  1.6441  0.9822
  486MOL0     H65598   5.827   5.722   7.691  0.6032 -1.9936  0.5844
  486MOL0     H65599   5.745   5.764   7.902 -0.3302  0.9599  1.0315
  486MOL0     H65600   5.609   5.895   8.077  0.5496 -5.1083  0.3624
  486MOL0     H65601   5.746   5.801   8.137 -1.5398 -1.6790  0.4550
  486MOL0     H65602   5.579   5.947   8.295 -1.2999  4.4058 -2.2607
  486MOL0     H65603   5.705   6.065   8.271 -0.7477  0.0960  0.1567
  486MOL0     H65604   5.877   5.889   8.331  0.1978 -0.2128  2.7338
  486MOL0     H65605   5.733   5.790   8.384 -0.1685  0.2780 -0.6374
  486MOL0     H65606   5.691   5.985   8.545 -0.1875  1.7476 -0.1047
  486MOL0     H65607   5.820   6.089   8.470  1.1364  0.5279  1.1300
  486MOL0     H65608   6.074   5.873   8.696  0.1314 -1.4689 -0.8055
  486MOL0     H65609   5.968   6.133   7.919  1.3387 -1.0273  1.6795
  486MOL0     H65610   6.003   6.108   7.680 -0.8579 -0.7806 -1.0910
  487MOL0     O65611   1.349   7.805   7.123  0.6849  0.4143 -0.3574
  487MOL0     C65612   1.466   7.775   7.121 -0.1095 -0.9514 -1.6043
  487MOL0     O65613   1.531   7.681   7.050 -0.4382  0.2193 -0.0061
  487MOL0     C65614   1.455   7.579   6.991  0.6809  1.3566 -0.4841
  487MOL0     C65615   1.349   7.520   7.053  0.9791  0.7715 -0.1700
  487MOL0     C65616   1.271   7.431   6.977 -0.9218  0.2178  0.6868
  487MOL0     C65617   1.316   7.389   6.846 -0.2488  0.4668 -0.6201
  487MOL0     O65618   1.264   7.271   6.813  0.1739 -0.0390  0.4669
  487MOL0     C65619   1.350   7.159   6.791 -0.0899  1.0131 -0.5178
  487MOL0     C65620   1.282   7.043   6.720 -0.9206  0.1350  1.2608
  487MOL0     C65621   1.238   7.074   6.574 -0.0453  0.6253 -0.5089
  487MOL0     C65622   1.350   7.035   6.473  0.2301 -0.3254 -0.6376
  487MOL0     C65623   1.314   7.086   6.335  0.4203 -1.1412  0.1446
  487MOL0     C65624   1.197   7.023   6.261 -0.1053 -0.4483  0.0953
  487MOL0     C65625   1.219   6.882   6.200 -0.6773  0.3789  0.7787
  487MOL0     C65626   1.315   6.891   6.084  0.5589  1.3692  0.1533
  487MOL0     N65627   1.274   6.979   5.974 -0.2657 -0.0347  0.4667
  487MOL0     C65628   1.151   7.024   5.924  0.1583 -0.3431  0.1890
  487MOL0     C65629   1.168   7.110   5.826 -0.1125 -0.0368  0.0989
  487MOL0     C65630   1.065   7.195   5.757 -0.0154 -0.1955 -0.1492
  487MOL0     C65631   0.944   7.103   5.728  0.2831 -0.3983 -0.4718
  487MOL0     C65632   0.985   6.971   5.642 -0.1063 -0.3531 -0.2249
  487MOL0     C65633   0.859   6.906   5.577  0.5630  0.6036 -1.1196
  487MOL0     O65634   0.804   6.811   5.664  0.1143  0.1451 -0.0135
  487MOL0     C65635   0.698   6.740   5.632  0.3503  0.3698  0.0811
  487MOL0     C65636   0.665   6.704   5.506  0.4462  1.2509  0.0351
  487MOL0     C65637   0.553   6.611   5.483  0.6424  0.5542  0.0302
  487MOL0     C65638   0.534   6.562   5.346  0.1628 -0.1315 -0.0781
  487MOL0     C65639   0.466   6.574   5.590 -0.7848 -0.6340  0.6117
  487MOL0     C65640   0.355   6.474   5.582 -0.3738  0.6410 -1.1339
  487MOL0     O65641   0.380   6.370   5.500 -0.0163 -0.1226 -0.1193
  487MOL0     C65642   0.277   6.286   5.468 -0.9227  0.8585  0.3953
  487MOL0     C65643   0.142   6.316   5.468 -0.3301 -0.0239 -0.1983
  487MOL0     C65644   0.050   6.219   5.449 -0.3789 -0.6419 -0.0152
  487MOL0     C65645   0.083   6.096   5.394 -0.8263 -0.3102  0.2481
  487MOL0     O65646  -0.014   6.006   5.375 -1.2848 -0.7519  0.0378
  487MOL0     C65647  -0.018   5.900   5.469 -0.2921 -0.4385  0.1663
  487MOL0     C65648  -0.049   5.926   5.613 -0.5599 -0.4597  0.0590
  487MOL0     C65649  -0.145   6.034   5.659 -0.9999  0.2549 -0.3150
  487MOL0     C65650  -0.118   6.070   5.813 -0.4168 -0.8478 -0.8426
  487MOL0     C65651  -0.241   6.122   5.871 -1.3127  0.0606  0.5053
  487MOL0     C65652  -0.346   6.017   5.910 -0.3927 -1.0609 -0.5635
  487MOL0     C65653  -0.425   5.940   5.808 -0.1170 -0.1533  0.7300
  487MOL0     C65654  -0.559   5.885   5.856 -0.9866  0.4106  0.0462
  487MOL0    Cl65655  -0.532   5.744   5.962 -0.1219  0.1503  0.1428
  487MOL0     C65656   0.220   6.066   5.395 -0.4176  0.7742  0.5795
  487MOL0     C65657   0.321   6.151   5.437 -0.0726 -1.0088  0.1570
  487MOL0     O65658   0.254   6.500   5.652 -0.0369 -0.2747 -0.6931
  487MOL0     C65659   0.495   6.627   5.712 -0.8019 -0.8401 -0.4639
  487MOL0     C65660   0.615   6.700   5.738  0.4441 -1.1502 -0.1480
  487MOL0     N65661   1.305   7.122   5.806  0.3208  0.3563  0.2918
  487MOL0     N65662   1.362   7.054   5.901  0.7154  0.8284 -0.7872
  487MOL0     C65663   1.436   7.432   6.803  0.5577 -0.0093 -0.8059
  487MOL0     C65664   1.496   7.542   6.865 -0.0538 -0.0997 -0.4732
  487MOL0     C65665   1.557   7.846   7.213  0.8006  0.7376 -0.1288
  487MOL0     C65666   1.685   7.789   7.242  0.4331  0.0572 -0.8028
  487MOL0     C65667   1.760   7.843   7.340  0.2282  0.0191  0.4054
  487MOL0     C65668   1.723   7.957   7.407  0.3693 -0.1198  1.3151
  487MOL0     O65669   1.789   7.996   7.518  0.8971 -0.1671 -0.1915
  487MOL0     C65670   1.933   8.004   7.510  0.3490 -0.7447 -0.6852
  487MOL0     C65671   1.991   8.092   7.398  0.9615 -0.2679 -0.1670
  487MOL0     C65672   1.940   8.236   7.370 -0.2448  0.3361 -0.1931
  487MOL0     C65673   1.932   8.318   7.500  0.3402 -0.1459  0.8187
  487MOL0     C65674   1.908   8.452   7.453 -0.0624  0.7670  0.1223
  487MOL0     C65675   1.904   8.555   7.404 -0.0723 -0.6966 -0.4673
  487MOL0     C65676   1.599   8.029   7.365 -0.4194 -0.0930  0.6845
  487MOL0     C65677   1.517   7.965   7.272  0.4637  0.3228 -0.6791
  487MOL0     H65678   1.321   7.541   7.156  3.7976 -2.9279  1.5591
  487MOL0     H65679   1.180   7.391   7.021 -1.0004 -2.4408 -1.6026
  487MOL0     H65680   1.436   7.187   6.729 -0.6067  1.9464 -0.8365
  487MOL0     H65681   1.385   7.125   6.889  4.9939  4.9606 -0.5281
  487MOL0     H65682   1.357   6.964   6.712 -0.9618  0.2003  0.0092
  487MOL0     H65683   1.196   7.003   6.775 -1.1797 -1.7317 -0.3857
  487MOL0     H65684   1.143   7.023   6.555  0.2151 -0.5012  1.0284
  487MOL0     H65685   1.209   7.179   6.564 -3.9620 -0.1051  1.2726
  487MOL0     H65686   1.445   7.084   6.495  0.9865 -1.9416 -0.1306
  487MOL0     H65687   1.364   6.927   6.482  3.5917  0.1074  0.7982
  487MOL0     H65688   1.292   7.193   6.346  2.1521 -0.7538  0.0791
  487MOL0     H65689   1.401   7.092   6.269  0.3115 -2.9571 -0.1915
  487MOL0     H65690   1.133   6.998   6.347  1.4409 -4.9761  0.2030
  487MOL0     H65691   1.159   7.094   6.187 -0.6034 -1.9360 -1.1092
  487MOL0     H65692   1.264   6.815   6.273 -2.2335 -0.4373  1.0500
  487MOL0     H65693   1.133   6.827   6.161 -0.6076  1.4786 -1.0483
  487MOL0     H65694   1.338   6.788   6.055 -0.1499  1.2938 -0.1730
  487MOL0     H65695   1.415   6.925   6.112  1.3025 -1.4701  1.2976
  487MOL0     H65696   1.055   6.992   5.963  0.3409 -0.2679  0.7065
  487MOL0     H65697   1.035   7.266   5.834 -0.4896 -0.0018 -0.5100
  487MOL0     H65698   1.091   7.246   5.664  1.2586 -0.7181 -0.1083
  487MOL0     H65699   0.860   7.154   5.680 -1.4197 -1.6917  1.0364
  487MOL0     H65700   0.902   7.067   5.821 -0.2030  1.9718  0.3054
  487MOL0     H65701   1.028   6.900   5.713  0.9124 -1.9028 -2.2859
  487MOL0     H65702   1.058   6.987   5.562  0.8770  0.8796  0.8792
  487MOL0     H65703   0.877   6.870   5.475  0.0982  1.2056 -1.4210
  487MOL0     H65704   0.775   6.974   5.564 -0.4499 -0.8148 -2.2535
  487MOL0     H65705   0.727   6.735   5.422  1.3100  0.3330  0.3208
  487MOL0     H65706   0.520   6.454   5.340  3.9936 -0.7921  0.5204
  487MOL0     H65707   0.452   6.615   5.297 -0.2077  0.0365  0.7032
  487MOL0     H65708   0.630   6.579   5.295  2.2180 -0.7224  3.2807
  487MOL0     H65709   0.101   6.410   5.502 -3.6871 -0.8524 -1.5733
  487MOL0     H65710  -0.052   6.238   5.480 -0.2433 -1.8038  1.2790
  487MOL0     H65711  -0.099   5.835   5.435  0.5713 -1.6146  0.3151
  487MOL0     H65712   0.076   5.844   5.457  0.7916  1.0852  1.1444
  487MOL0     H65713  -0.086   5.834   5.658 -1.3978  0.3900  1.1344
  487MOL0     H65714   0.047   5.946   5.661 -1.3821  3.0243  0.5315
  487MOL0     H65715  -0.248   6.003   5.642 -0.8068 -1.6379  1.5604
  487MOL0     H65716  -0.130   6.135   5.619  1.0827  1.3260  2.7783
  487MOL0     H65717  -0.087   5.985   5.874  0.8828  1.0150  1.2223
  487MOL0     H65718  -0.042   6.147   5.829 -2.3721  0.8102  1.0475
  487MOL0     H65719  -0.276   6.205   5.808 -0.1890  0.2915  0.1743
  487MOL0     H65720  -0.218   6.160   5.971  0.8717  1.9925 -0.6321
  487MOL0     H65721  -0.291   5.944   5.970  0.6827 -0.3846 -0.6959
  487MOL0     H65722  -0.419   6.063   5.977  1.2039  1.4488 -0.3820
  487MOL0     H65723  -0.357   5.866   5.764  0.2311  0.1008  0.8333
  487MOL0     H65724  -0.459   6.006   5.728 -1.0416 -0.3796  0.9218
  487MOL0     H65725  -0.611   5.851   5.765  0.6360  1.3261 -1.2836
  487MOL0     H65726  -0.615   5.966   5.904 -2.6363  0.1299 -1.2827
  487MOL0     H65727   0.254   5.965   5.375  0.3769  0.8799  1.3133
  487MOL0     H65728   0.420   6.115   5.461 -0.1962 -1.3502  0.1679
  487MOL0     H65729   0.431   6.604   5.797  0.8008  0.4031  1.1590
  487MOL0     H65730   0.646   6.724   5.839  1.4910  2.2743 -1.1515
  487MOL0     H65731   1.486   7.378   6.723 -2.5169 -0.2214 -2.7189
  487MOL0     H65732   1.591   7.587   6.839  0.1675 -1.0977 -1.4904
  487MOL0     H65733   1.716   7.693   7.202  2.1725  0.2931 -0.0959
  487MOL0     H65734   1.857   7.801   7.365  0.9772  1.6297  0.3265
  487MOL0     H65735   1.962   8.049   7.606 -1.5043 -1.1588  0.1098
  487MOL0     H65736   1.979   7.905   7.510 -0.7735 -1.3035  0.3942
  487MOL0     H65737   1.994   8.038   7.303  4.6197 -1.1151  0.2665
  487MOL0     H65738   2.098   8.086   7.423  1.7296  0.2579 -3.0094
  487MOL0     H65739   1.847   8.229   7.313  0.7240  3.7997 -2.4881
  487MOL0     H65740   2.010   8.279   7.298 -1.7085  0.5559 -1.5138
  487MOL0     H65741   2.028   8.320   7.553  1.5205 -2.4560 -1.0680
  487MOL0     H65742   1.843   8.273   7.545 -1.7109  1.2578 -1.5691
  487MOL0     H65743   1.892   8.650   7.356  0.4349 -2.6116 -4.8864
  487MOL0     H65744   1.568   8.124   7.407 -1.8214 -1.4928  2.9500
  487MOL0     H65745   1.419   7.998   7.237  1.2574  2.1152 -1.3202
  488MOL0     O65746   7.369   4.245   2.787 -0.1801  0.2225  0.3278
  488MOL0     C65747   7.469   4.178   2.767 -0.1719  0.6913  0.0736
  488MOL0     O65748   7.459   4.051   2.718 -0.4803  0.2386 -0.7113
  488MOL0     C65749   7.330   4.000   2.692 -0.5350 -0.9818 -0.1805
  488MOL0     C65750   7.244   3.965   2.797  0.4193 -0.6480  0.6082
  488MOL0     C65751   7.113   3.929   2.765 -0.4036  0.8698 -0.3990
  488MOL0     C65752   7.068   3.910   2.628  0.5104  0.4815 -0.2822
  488MOL0     O65753   6.951   3.845   2.615  0.0472 -0.3573  0.0499
  488MOL0     C65754   6.904   3.834   2.476  0.1397  0.5329 -0.6771
  488MOL0     C65755   6.754   3.784   2.482 -0.1083 -0.4435 -0.7142
  488MOL0     C65756   6.684   3.824   2.362  0.1858 -0.5397 -0.7686
  488MOL0     C65757   6.739   3.757   2.243 -0.0331 -0.1543  0.5269
  488MOL0     C65758   6.659   3.787   2.113 -0.7337 -0.8801  0.6300
  488MOL0     C65759   6.600   3.661   2.066 -0.1748  0.4971  0.9655
  488MOL0     C65760   6.522   3.660   1.935 -0.4234  0.4542  0.6129
  488MOL0     C65761   6.591   3.607   1.808  0.6560 -0.2314 -1.1709
  488MOL0     N65762   6.710   3.698   1.789  0.2324  0.1570  0.0940
  488MOL0     C65763   6.839   3.660   1.761  0.8382  0.9689 -0.0127
  488MOL0     C65764   6.895   3.772   1.705  0.2251  0.9203 -0.0726
  488MOL0     C65765   7.028   3.765   1.636  0.4904  0.1341 -0.3555
  488MOL0     C65766   7.069   3.634   1.568 -0.1444 -0.0449  0.1711
  488MOL0     C65767   7.191   3.671   1.486 -0.3236 -0.0893  0.4371
  488MOL0     C65768   7.244   3.562   1.399 -0.6904  0.5095  0.6862
  488MOL0     O65769   7.148   3.506   1.308 -0.7759  0.0326  0.1028
  488MOL0     C65770   7.128   3.536   1.174 -0.0277  0.8723  0.0136
  488MOL0     C65771   7.176   3.653   1.119 -0.1539 -0.6240 -0.8182
  488MOL0     C65772   7.167   3.675   0.983  0.4718 -0.7933  0.2972
  488MOL0     C65773   7.250   3.791   0.926 -0.9419 -0.3981 -0.4522
  488MOL0     C65774   7.097   3.584   0.899  0.2184 -0.0673 -0.2543
  488MOL0     C65775   7.088   3.589   0.749  0.8279 -0.0967  0.6062
  488MOL0     O65776   7.015   3.488   0.695 -1.0537 -0.2626 -0.0301
  488MOL0     C65777   6.981   3.516   0.563 -0.0932 -0.5721  1.1558
  488MOL0     C65778   6.918   3.622   0.499  0.0929 -0.0336  0.8090
  488MOL0     C65779   6.912   3.631   0.358  0.2773 -0.5204  0.0087
  488MOL0     C65780   6.943   3.519   0.279 -0.1795  0.8285  0.8327
  488MOL0     O65781   6.906   3.540   0.153 -0.9711  0.2766  0.4488
  488MOL0     C65782   6.926   3.438   0.058 -0.2871  0.5588  0.2710
  488MOL0     C65783   6.831   3.452  -0.063 -0.7753 -0.1384  0.1171
  488MOL0     C65784   6.910   3.487  -0.194 -0.5091  0.2023  0.2765
  488MOL0     C65785   7.000   3.360  -0.228  0.7814 -0.0277 -0.4393
  488MOL0     C65786   7.064   3.378  -0.368 -0.3311 -0.2336  0.3595
  488MOL0     C65787   7.134   3.241  -0.400 -0.4219 -0.3403 -0.5771
  488MOL0     C65788   7.201   3.245  -0.544  0.2939  0.8016 -0.2985
  488MOL0     C65789   7.332   3.325  -0.547  0.7092  1.2776  0.0566
  488MOL0    Cl65790   7.288   3.486  -0.613 -0.0635 -0.2493 -0.3174
  488MOL0     C65791   7.022   3.419   0.344  0.0433  0.1058  0.6758
  488MOL0     C65792   7.027   3.412   0.482 -0.6100 -0.3836 -0.4531
  488MOL0     O65793   7.145   3.681   0.691 -0.9248 -0.0626  0.4477
  488MOL0     C65794   7.044   3.476   0.964  0.9168  0.0763 -0.0426
  488MOL0     C65795   7.047   3.448   1.095 -0.9191  0.2176  0.2259
  488MOL0     N65796   6.808   3.875   1.707  0.0538  0.8160 -1.0153
  488MOL0     N65797   6.702   3.832   1.754 -0.2174 -0.7254 -0.5324
  488MOL0     C65798   7.160   3.950   2.519  0.4897  0.0748  0.4221
  488MOL0     C65799   7.288   3.991   2.556 -0.2653  0.5110 -0.1560
  488MOL0     C65800   7.608   4.224   2.813  0.8395  0.0080  0.2351
  488MOL0     C65801   7.620   4.321   2.904  0.4990  0.4258 -0.0719
  488MOL0     C65802   7.740   4.374   2.940  0.4383  0.2276  0.1623
  488MOL0     C65803   7.857   4.307   2.913  1.3678  1.3174  0.4355
  488MOL0     O65804   7.963   4.373   2.969 -0.2066  0.1383 -0.1016
  488MOL0     C65805   8.064   4.287   3.021 -0.8528  0.3362 -0.1638
  488MOL0     C65806   8.026   4.242   3.161  1.0681  0.3909 -0.0432
  488MOL0     C65807   7.996   4.375   3.235  0.4722  1.3367 -0.0329
  488MOL0     C65808   7.962   4.332   3.380 -0.6904  0.4532  0.3601
  488MOL0     C65809   7.947   4.463   3.453  0.5584  0.9075 -0.1668
  488MOL0     C65810   7.937   4.572   3.508  0.2946 -0.1419  0.1579
  488MOL0     C65811   7.849   4.200   2.815  0.2985  0.3040 -0.0666
  488MOL0     C65812   7.718   4.156   2.766  0.1806  0.4251 -0.5471
  488MOL0     H65813   7.280   3.977   2.899 -0.5457  1.2627  0.7702
  488MOL0     H65814   7.051   3.903   2.851 -0.2808 -0.2539 -0.6325
  488MOL0     H65815   6.921   3.927   2.422  2.7937 -1.1210 -2.9139
  488MOL0     H65816   6.967   3.759   2.428  2.5502 -0.3774  3.4105
  488MOL0     H65817   6.735   3.676   2.489  1.6915 -0.7196  0.4671
  488MOL0     H65818   6.709   3.833   2.569  1.1799  2.7743 -1.7107
  488MOL0     H65819   6.581   3.794   2.387  0.4445 -0.7965  0.0324
  488MOL0     H65820   6.692   3.932   2.346  3.3622 -0.5192  0.2888
  488MOL0     H65821   6.842   3.786   2.220 -0.0846 -1.6825 -2.0979
  488MOL0     H65822   6.735   3.650   2.265  0.3955 -0.2611  0.1023
  488MOL0     H65823   6.586   3.867   2.126  0.5289  0.5516 -0.7088
  488MOL0     H65824   6.739   3.817   2.045  2.7649 -0.1494  4.7198
  488MOL0     H65825   6.689   3.598   2.076 -0.9430 -1.1554 -1.6962
  488MOL0     H65826   6.538   3.630   2.151 -1.7098  2.2207  0.5339
  488MOL0     H65827   6.434   3.598   1.954 -0.0858  0.4403  2.2121
  488MOL0     H65828   6.476   3.756   1.907 -1.3428 -0.7298 -2.3653
  488MOL0     H65829   6.522   3.610   1.724  2.3193 -1.3543 -2.6538
  488MOL0     H65830   6.632   3.506   1.824  3.3757  0.6654 -1.8622
  488MOL0     H65831   6.882   3.562   1.778  0.7432  0.1656 -3.7307
  488MOL0     H65832   7.012   3.842   1.561 -1.6216  2.6884  2.4430
  488MOL0     H65833   7.111   3.806   1.694 -1.0876  0.0892  2.0625
  488MOL0     H65834   6.987   3.601   1.504 -0.3057 -0.8675  0.7843
  488MOL0     H65835   7.089   3.549   1.634 -1.0477 -2.5312 -2.4942
  488MOL0     H65836   7.273   3.717   1.543 -1.4669  4.3748 -1.1029
  488MOL0     H65837   7.168   3.751   1.415 -1.8596 -0.9465 -0.0672
  488MOL0     H65838   7.277   3.489   1.474 -0.8087  1.8708  2.1169
  488MOL0     H65839   7.326   3.599   1.337 -1.8586  2.6966  0.3353
  488MOL0     H65840   7.225   3.728   1.180 -3.5749  2.7798 -1.8518
  488MOL0     H65841   7.189   3.860   0.867 -1.2121 -1.3508 -1.3133
  488MOL0     H65842   7.288   3.845   1.013  1.5639 -2.6857  0.0071
  488MOL0     H65843   7.342   3.757   0.878  0.1439  2.6181 -0.7406
  488MOL0     H65844   6.884   3.697   0.569  2.4168  1.4637  0.4449
  488MOL0     H65845   6.865   3.723   0.327  0.1072  0.1926  2.1754
  488MOL0     H65846   7.033   3.441   0.033 -0.7153 -0.7667 -1.9296
  488MOL0     H65847   6.901   3.342   0.103 -1.6070  0.5672 -0.4014
  488MOL0     H65848   6.769   3.362  -0.070 -0.6937 -0.3152  1.4903
  488MOL0     H65849   6.766   3.538  -0.046 -0.7054 -0.4521  2.2093
  488MOL0     H65850   6.974   3.575  -0.183 -2.2868  1.5635  0.2599
  488MOL0     H65851   6.843   3.512  -0.277  1.3876  1.5352 -0.9195
  488MOL0     H65852   7.082   3.346  -0.157 -0.0716 -0.4145  0.4973
  488MOL0     H65853   6.941   3.269  -0.211 -1.2563  1.3103  0.1289
  488MOL0     H65854   7.143   3.454  -0.364 -0.1800 -0.3140 -0.6465
  488MOL0     H65855   6.983   3.395  -0.440 -1.2315 -0.1461  1.3828
  488MOL0     H65856   7.210   3.239  -0.321 -2.6971  2.6270  1.9142
  488MOL0     H65857   7.063   3.158  -0.389 -2.9898  1.4275 -2.7145
  488MOL0     H65858   7.140   3.299  -0.617  0.6834 -0.0733 -1.3009
  488MOL0     H65859   7.233   3.142  -0.565 -0.7386  0.9331 -2.9263
  488MOL0     H65860   7.409   3.272  -0.605 -1.0366 -0.9288 -0.3908
  488MOL0     H65861   7.358   3.337  -0.441  1.0106 -0.7701  0.2600
  488MOL0     H65862   7.075   3.351   0.279 -1.3392 -0.1311 -0.2322
  488MOL0     H65863   7.091   3.334   0.524  0.3161  1.0752  0.9660
  488MOL0     H65864   6.992   3.398   0.909  0.6827  0.4422 -0.3497
  488MOL0     H65865   6.985   3.364   1.126  0.4959 -0.9450  0.0375
  488MOL0     H65866   7.130   3.946   2.415 -1.5916 -2.4332  0.9950
  488MOL0     H65867   7.352   4.033   2.479  0.9601  2.1906  1.6792
  488MOL0     H65868   7.537   4.376   2.946 -1.4237 -2.7040  0.5396
  488MOL0     H65869   7.750   4.459   3.006 -0.3493  1.1135 -0.8438
  488MOL0     H65870   8.097   4.208   2.952  1.5991  0.0493  1.2042
  488MOL0     H65871   8.156   4.343   3.038 -0.1816 -0.5292 -0.8024
  488MOL0     H65872   8.121   4.206   3.201  1.6953  1.2489 -0.7171
  488MOL0     H65873   7.955   4.160   3.170  1.1062  0.4499  0.8923
  488MOL0     H65874   7.908   4.427   3.198  0.3487  0.1552 -1.5128
  488MOL0     H65875   8.088   4.434   3.230  2.0446 -1.0751 -2.3561
  488MOL0     H65876   8.037   4.272   3.432  0.0382 -2.4964 -3.5904
  488MOL0     H65877   7.870   4.273   3.381 -0.3664 -0.1101  2.6449
  488MOL0     H65878   7.946   4.669   3.552 -0.3230  0.1177 -0.2679
  488MOL0     H65879   7.932   4.132   2.796  2.0940  1.3400  3.2633
  488MOL0     H65880   7.708   4.077   2.692  0.1424  1.4849 -1.7263
  489MOL0     O65881   9.717   2.781   2.147 -0.1559  0.2810 -0.4159
  489MOL0     C65882   9.718   2.867   2.060 -0.1314 -0.7107  0.0011
  489MOL0     O65883   9.821   2.950   2.035 -0.1416 -0.4562  0.1790
  489MOL0     C65884   9.931   2.940   2.112  0.0027  0.1633 -1.0109
  489MOL0     C65885   9.940   2.959   2.249  0.2671 -0.0360 -0.1702
  489MOL0     C65886  10.056   2.968   2.323  0.1544  0.3017  0.2307
  489MOL0     C65887  10.169   2.944   2.252  0.4061 -0.3996  0.5768
  489MOL0     O65888  10.290   2.973   2.303 -0.3860 -0.2749  0.7088
  489MOL0     C65889  10.320   3.097   2.369  0.3669  0.0762 -0.0254
  489MOL0     C65890  10.454   3.133   2.323 -0.8048 -0.6291 -0.4757
  489MOL0     C65891  10.448   3.163   2.171  1.4987  0.3453  0.1191
  489MOL0     C65892  10.589   3.180   2.123 -1.0219 -0.2411  0.0156
  489MOL0     C65893  10.666   3.043   2.123  0.0008 -0.6101  0.8638
  489MOL0     C65894  10.768   3.060   2.015 -0.2345 -0.4673  1.0404
  489MOL0     C65895  10.848   2.930   2.010 -0.3120  0.5467 -0.3046
  489MOL0     C65896  10.938   2.912   1.887  0.2583 -0.9648 -0.1348
  489MOL0     N65897  11.052   2.816   1.925  0.6545 -0.1687  0.0215
  489MOL0     C65898  11.140   2.846   2.024  0.0084  0.3291  0.0193
  489MOL0     C65899  11.220   2.737   2.033 -0.4550  0.2224 -0.1402
  489MOL0     C65900  11.326   2.708   2.136  0.9422 -0.3970  0.1341
  489MOL0     C65901  11.416   2.837   2.150 -0.7493 -0.0392  0.6461
  489MOL0     C65902  11.550   2.794   2.225  0.7330 -0.7729 -0.1962
  489MOL0     C65903  11.640   2.912   2.269 -1.0254  0.5234  0.1332
  489MOL0     O65904  11.691   2.968   2.150 -0.0923 -0.1748  0.1904
  489MOL0     C65905  11.823   3.004   2.150 -0.0857 -0.2984 -0.1903
  489MOL0     C65906  11.859   3.123   2.222  0.0338  0.6281 -0.0475
  489MOL0     C65907  11.993   3.151   2.248  0.2243  0.2000  0.0677
  489MOL0     C65908  12.025   3.269   2.330  0.1429  0.2386 -0.1823
  489MOL0     C65909  12.092   3.077   2.182 -0.2185 -0.3424 -0.2223
  489MOL0     C65910  12.237   3.105   2.186 -0.4224 -0.5452 -0.6337
  489MOL0     O65911  12.261   3.242   2.196  0.8170  0.1926  0.0843
  489MOL0     C65912  12.394   3.283   2.207 -1.0242 -0.7250 -0.2024
  489MOL0     C65913  12.486   3.291   2.100 -0.6200  0.0616  0.3463
  489MOL0     C65914  12.619   3.298   2.124 -0.5712  0.0904  0.1748
  489MOL0     C65915  12.658   3.346   2.245 -0.0419 -0.4454 -0.1031
  489MOL0     O65916  12.792   3.356   2.285  0.0261  0.0045  0.0233
  489MOL0     C65917  12.865   3.235   2.252  0.0466  0.5964  0.0212
  489MOL0     C65918  13.014   3.267   2.273  0.0067  0.6087 -0.5390
  489MOL0     C65919  13.104   3.146   2.263  0.0153  0.7610 -0.7785
  489MOL0     C65920  13.048   3.025   2.350 -0.7791 -0.6175  0.3428
  489MOL0     C65921  13.157   2.935   2.413  0.1190 -0.1552 -1.1054
  489MOL0     C65922  13.110   2.811   2.485  0.0642  0.2122  0.4081
  489MOL0     C65923  13.214   2.713   2.497 -0.3185  0.1247  0.9782
  489MOL0     C65924  13.172   2.568   2.550  0.0399  0.2772 -0.3553
  489MOL0    Cl65925  13.319   2.475   2.605  0.2374  0.1612  0.3382
  489MOL0     C65926  12.570   3.354   2.353 -0.9331  0.6505  0.4645
  489MOL0     C65927  12.439   3.312   2.331 -0.7512 -1.0907  0.1796
  489MOL0     O65928  12.316   3.019   2.173  0.5730  0.6249 -1.0978
  489MOL0     C65929  12.057   2.964   2.109  1.0322  0.4474  0.0301
  489MOL0     C65930  11.923   2.922   2.088  0.9078  0.5586 -0.4380
  489MOL0     N65931  11.176   2.647   1.938  0.2328 -0.0146  0.0103
  489MOL0     N65932  11.080   2.697   1.874  0.2398 -0.6444  0.7558
  489MOL0     C65933  10.169   2.899   2.120  0.2130  1.1523 -0.2595
  489MOL0     C65934  10.049   2.908   2.054 -0.5829 -0.5601  0.6506
  489MOL0     C65935   9.608   2.884   1.964  1.0367  0.9807  0.0075
  489MOL0     C65936   9.535   2.775   1.931  0.3141 -0.2572  0.4271
  489MOL0     C65937   9.429   2.775   1.840  0.7674  0.3119 -0.5922
  489MOL0     C65938   9.392   2.906   1.794  0.7549 -0.0384  0.2402
  489MOL0     O65939   9.294   2.931   1.703 -0.3109 -0.8223 -0.2986
  489MOL0     C65940   9.227   2.834   1.631  0.8118 -0.2716 -1.2583
  489MOL0     C65941   9.120   2.779   1.728  0.3227 -0.9536  0.5879
  489MOL0     C65942   8.988   2.875   1.748 -0.3005 -0.3388  0.0233
  489MOL0     C65943   8.893   2.814   1.853 -0.4763 -0.4766  0.0093
  489MOL0     C65944   8.922   2.883   1.981 -0.4360 -1.0836  0.0845
  489MOL0     C65945   8.952   2.935   2.083  1.0030 -0.0667 -1.0848
  489MOL0     C65946   9.467   3.020   1.828  0.0555 -0.7428 -0.0115
  489MOL0     C65947   9.577   3.010   1.905 -0.0814 -0.5211  0.7176
  489MOL0     H65948   9.852   2.983   2.308  0.4004  3.4855 -1.1703
  489MOL0     H65949  10.061   2.989   2.430  1.7855  0.7311  0.0940
  489MOL0     H65950  10.237   3.167   2.358 -1.8109 -2.0685  1.8128
  489MOL0     H65951  10.339   3.082   2.475  1.1944  1.0110 -0.0134
  489MOL0     H65952  10.488   3.222   2.377 -1.7119 -1.0604  0.8469
  489MOL0     H65953  10.525   3.051   2.339 -1.7033 -0.8243  4.0339
  489MOL0     H65954  10.395   3.079   2.125 -0.1324  0.2235  2.0650
  489MOL0     H65955  10.388   3.253   2.164 -0.3761 -0.7761  1.0483
  489MOL0     H65956  10.589   3.234   2.028  0.9074  1.3172  0.8203
  489MOL0     H65957  10.636   3.264   2.175 -1.6279  1.6803 -2.3589
  489MOL0     H65958  10.712   3.039   2.222  1.0755  1.1123  0.4879
  489MOL0     H65959  10.610   2.951   2.103 -3.6826  1.9973 -2.3807
  489MOL0     H65960  10.719   3.066   1.917  2.7792  2.9828 -0.4722
  489MOL0     H65961  10.818   3.156   2.025 -1.8627  0.5841 -0.2348
  489MOL0     H65962  10.914   2.943   2.096 -0.2417 -0.8784 -0.1312
  489MOL0     H65963  10.787   2.840   2.017  0.5056 -0.1551 -1.7256
  489MOL0     H65964  10.978   3.012   1.869  1.5039 -0.7122  3.3187
  489MOL0     H65965  10.878   2.874   1.803  0.3334  1.0771 -1.1809
  489MOL0     H65966  11.147   2.939   2.079  3.0796  1.9060 -2.6596
  489MOL0     H65967  11.274   2.672   2.225  1.5035  1.3100  1.2072
  489MOL0     H65968  11.401   2.632   2.111  1.9557  0.7761 -0.5291
  489MOL0     H65969  11.369   2.921   2.201  0.8116  0.3717  1.4732
  489MOL0     H65970  11.446   2.872   2.051 -0.8177  0.4539  0.7980
  489MOL0     H65971  11.616   2.722   2.177  1.2664 -1.0589  0.9463
  489MOL0     H65972  11.506   2.747   2.313 -0.5818 -0.7010 -0.7831
  489MOL0     H65973  11.722   2.876   2.331 -0.1628  0.2855 -1.1061
  489MOL0     H65974  11.577   2.990   2.312 -2.3804  0.9307 -2.3841
  489MOL0     H65975  11.789   3.194   2.265 -2.3069 -2.8085  2.3027
  489MOL0     H65976  12.095   3.253   2.413  0.3151 -1.9237 -0.6739
  489MOL0     H65977  12.069   3.352   2.274  0.2353  1.8390  2.0834
  489MOL0     H65978  11.944   3.315   2.386  0.6215  2.5073 -1.2302
  489MOL0     H65979  12.451   3.270   1.999  1.2592  1.3255 -0.6332
  489MOL0     H65980  12.694   3.294   2.045 -0.2780  3.2216  0.1624
  489MOL0     H65981  12.826   3.146   2.303  0.9069  0.2663  0.1238
  489MOL0     H65982  12.849   3.218   2.146 -3.6404  1.3055  0.3335
  489MOL0     H65983  13.034   3.337   2.191  0.3074  2.0719  0.7437
  489MOL0     H65984  13.032   3.323   2.365  0.7838  1.1467 -1.0019
  489MOL0     H65985  13.203   3.181   2.294 -1.6249  3.1152  2.4549
  489MOL0     H65986  13.102   3.103   2.163 -1.8455 -1.2405  0.0298
  489MOL0     H65987  12.984   3.062   2.431 -1.1419 -2.2770  0.8667
  489MOL0     H65988  12.982   2.968   2.283 -1.3485  1.3484 -0.8503
  489MOL0     H65989  13.210   2.996   2.487  2.6452 -1.4553 -1.7541
  489MOL0     H65990  13.218   2.911   2.326 -0.4391 -1.6186 -1.1196
  489MOL0     H65991  13.081   2.842   2.586 -0.6313  2.3883 -0.3902
  489MOL0     H65992  13.023   2.770   2.433 -1.1190  3.5820 -0.5368
  489MOL0     H65993  13.294   2.760   2.555  0.6200  1.4184 -1.2231
  489MOL0     H65994  13.266   2.692   2.403  0.6353 -0.0583  1.5374
  489MOL0     H65995  13.108   2.514   2.479  1.0703 -2.0177  0.3480
  489MOL0     H65996  13.106   2.579   2.637  1.5006 -2.0833  1.1830
  489MOL0     H65997  12.605   3.400   2.445  0.2432  0.2152  0.2480
  489MOL0     H65998  12.369   3.317   2.413 -1.5959 -4.0546 -0.2719
  489MOL0     H65999  12.141   2.912   2.063  0.7278  0.3871 -0.4640
  489MOL0     H66000  11.902   2.844   2.015  1.1254  0.8219 -0.7885
  489MOL0     H66001  10.255   2.850   2.074 -0.8007  1.2725 -2.3902
  489MOL0     H66002  10.054   2.894   1.947  0.0614 -0.1604  0.6202
  489MOL0     H66003   9.558   2.682   1.983  1.0894  0.4362  1.3633
  489MOL0     H66004   9.373   2.688   1.808 -0.6477  1.4960 -1.4265
  489MOL0     H66005   9.172   2.876   1.547 -1.2924  2.1006  1.1280
  489MOL0     H66006   9.291   2.750   1.602  0.6667 -1.3449  1.2658
  489MOL0     H66007   9.156   2.757   1.829  0.0126 -2.8045  0.3241
  489MOL0     H66008   9.083   2.687   1.681 -0.1884  0.0057 -0.9735
  489MOL0     H66009   8.935   2.879   1.652  0.8993  4.0120 -0.6944
  489MOL0     H66010   9.012   2.980   1.769 -0.1613 -0.9175  3.1722
  489MOL0     H66011   8.884   2.705   1.862 -3.1661 -1.0008 -5.1922
  489MOL0     H66012   8.796   2.857   1.829  0.0819 -0.5716 -2.6323
  489MOL0     H66013   9.005   2.987   2.161 -0.0927  0.6758 -0.8224
  489MOL0     H66014   9.419   3.113   1.800 -2.4723 -0.4512  4.3895
  489MOL0     H66015   9.640   3.096   1.925  0.3015 -0.0387 -2.1265
  490MOL0     O66016   1.073   2.363   9.619 -0.5544 -0.7392  0.1447
  490MOL0     C66017   1.140   2.265   9.627  0.1057  0.1548 -0.5312
  490MOL0     O66018   1.094   2.142   9.641 -0.5305  0.0368 -0.4272
  490MOL0     C66019   0.961   2.116   9.655 -0.3825 -0.1561  1.4161
  490MOL0     C66020   0.920   2.073   9.782 -0.1691  1.5096 -0.2504
  490MOL0     C66021   0.785   2.043   9.799  0.1414 -0.3672  0.5290
  490MOL0     C66022   0.697   2.074   9.699  0.2692  0.2235 -0.1388
  490MOL0     O66023   0.561   2.058   9.687  0.6326  0.0997 -0.8206
  490MOL0     C66024   0.499   2.039   9.816 -0.0459 -0.3309  0.1519
  490MOL0     C66025   0.349   2.006   9.786  0.6972  0.0817  0.4374
  490MOL0     C66026   0.261   2.085   9.890  0.2497 -0.3878 -0.6066
  490MOL0     C66027   0.118   2.023   9.905  0.3166 -0.1388  0.9249
  490MOL0     C66028   0.048   2.110  10.021 -0.1375 -1.3129 -0.2774
  490MOL0     C66029  -0.104   2.067  10.062  0.5223  0.5985 -0.5067
  490MOL0     C66030  -0.198   2.162  10.002 -0.5811 -0.0662 -1.2218
  490MOL0     C66031  -0.341   2.103   9.992 -0.5179 -1.1713 -0.4920
  490MOL0     N66032  -0.372   2.045  10.123 -0.1898  0.5188 -0.2387
  490MOL0     C66033  -0.392   2.119  10.238  0.5264  0.0163  0.3395
  490MOL0     C66034  -0.416   2.028  10.339 -0.9560  0.1058  0.2920
  490MOL0     C66035  -0.436   2.055  10.489 -0.0298  0.2417  1.0576
  490MOL0     C66036  -0.302   2.017  10.559  0.2756 -0.1366 -0.1531
  490MOL0     C66037  -0.324   1.972  10.705  0.6302 -0.9413 -0.5403
  490MOL0     C66038  -0.313   2.091  10.806  0.5581 -0.3903 -0.2975
  490MOL0     O66039  -0.425   2.189  10.795  0.1191 -0.5617  0.0704
  490MOL0     C66040  -0.522   2.200  10.896 -0.5285 -0.8948 -0.9057
  490MOL0     C66041  -0.609   2.298  10.860  0.3631  0.1566  0.2963
  490MOL0     C66042  -0.720   2.339  10.927 -0.4600  1.1643 -0.4237
  490MOL0     C66043  -0.821   2.430  10.864 -0.2645 -0.9097 -0.6828
  490MOL0     C66044  -0.736   2.277  11.059  0.9850 -0.1288 -0.0282
  490MOL0     C66045  -0.853   2.295  11.150  0.5334 -1.2775 -0.6111
  490MOL0     O66046  -0.845   2.240  11.275  0.0554  0.2137 -0.6555
  490MOL0     C66047  -0.923   2.275  11.382  0.1354 -0.2513  0.6688
  490MOL0     C66048  -1.043   2.216  11.392  0.9747  0.6642  0.3132
  490MOL0     C66049  -1.125   2.233  11.509 -0.8676 -0.8504 -0.3158
  490MOL0     C66050  -1.084   2.317  11.613  0.0911 -0.2043  0.1990
  490MOL0     O66051  -1.168   2.320  11.728  0.6229 -0.1943  0.2671
  490MOL0     C66052  -1.316   2.323  11.717  0.4341  0.4441 -0.0117
  490MOL0     C66053  -1.377   2.388  11.837  0.2717 -0.6254  0.0487
  490MOL0     C66054  -1.522   2.429  11.798 -0.9933 -0.4106 -0.6504
  490MOL0     C66055  -1.589   2.499  11.922 -0.1342  0.1842  0.1132
  490MOL0     C66056  -1.731   2.550  11.895 -0.3244  0.0802 -0.6713
  490MOL0     C66057  -1.826   2.431  11.906  0.7818 -0.6116  0.2560
  490MOL0     C66058  -1.973   2.477  11.904 -0.3084 -0.2527 -0.0205
  490MOL0     C66059  -2.076   2.370  11.939 -0.1533  0.0191  0.2981
  490MOL0    Cl66060  -2.248   2.407  11.891  0.2560  0.1905  0.2557
  490MOL0     C66061  -0.960   2.386  11.598 -0.3074  0.4072 -0.0040
  490MOL0     C66062  -0.885   2.365  11.482  0.5026 -0.4565 -0.3270
  490MOL0     O66063  -0.958   2.354  11.107 -0.3459 -0.2183 -0.1268
  490MOL0     C66064  -0.642   2.180  11.101  0.5953 -0.6578  0.0407
  490MOL0     C66065  -0.541   2.142  11.022 -0.5303  0.1201  0.5398
  490MOL0     N66066  -0.399   1.903  10.281 -0.1885  0.6323  0.4085
  490MOL0     N66067  -0.372   1.910  10.153 -0.4083 -0.3060 -0.6242
  490MOL0     C66068   0.737   2.104   9.572  0.0441  0.0396  0.6384
  490MOL0     C66069   0.868   2.134   9.549  0.1717 -0.3112 -1.0735
  490MOL0     C66070   1.286   2.292   9.599  0.2436  0.3069  0.2014
  490MOL0     C66071   1.324   2.421   9.547 -0.2987 -0.4380 -0.2160
  490MOL0     C66072   1.458   2.445   9.510 -1.0086 -0.8329  0.5813
  490MOL0     C66073   1.566   2.359   9.541 -0.4582  0.0133 -0.5221
  490MOL0     O66074   1.693   2.378   9.499 -0.4966  0.1945 -0.1455
  490MOL0     C66075   1.723   2.308   9.377 -0.4150  0.0877 -0.0514
  490MOL0     C66076   1.614   2.332   9.264  0.1829 -0.3867  0.7230
  490MOL0     C66077   1.649   2.262   9.125  0.5778  0.2631 -0.4292
  490MOL0     C66078   1.539   2.299   9.017 -0.1770  0.0144  0.5815
  490MOL0     C66079   1.521   2.194   8.921  0.4266  0.6357  0.0558
  490MOL0     C66080   1.519   2.140   8.810 -0.1249 -1.2983 -0.0379
  490MOL0     C66081   1.534   2.232   9.596  1.0948  0.0955 -0.5208
  490MOL0     C66082   1.397   2.199   9.624  1.6953 -1.0877  0.7649
  490MOL0     H66083   0.998   2.054   9.856 -2.1941 -1.1953  1.3953
  490MOL0     H66084   0.754   1.996   9.892 -1.3371  2.3537  1.5183
  490MOL0     H66085   0.541   1.953   9.868 -0.2276 -2.4297 -2.9369
  490MOL0     H66086   0.514   2.135   9.867 -0.8012 -0.0041 -0.2147
  490MOL0     H66087   0.330   2.039   9.684  1.6937  0.4544  0.3689
  490MOL0     H66088   0.337   1.897   9.794 -2.4174  0.1344 -1.7251
  490MOL0     H66089   0.306   2.079   9.990 -1.4187 -0.4769  0.1796
  490MOL0     H66090   0.245   2.188   9.859 -3.7275 -0.4969  0.4490
  490MOL0     H66091   0.066   2.040   9.810  3.4237  1.5601 -0.6456
  490MOL0     H66092   0.120   1.919   9.938  0.7440 -0.1975  0.7265
  490MOL0     H66093   0.109   2.111  10.112  0.9091 -4.2008 -0.8570
  490MOL0     H66094   0.050   2.214   9.986 -1.2121 -1.1046  0.2245
  490MOL0     H66095  -0.111   1.966  10.021  0.6054 -0.2591  1.5023
  490MOL0     H66096  -0.113   2.070  10.171 -1.9175 -2.1009 -0.5167
  490MOL0     H66097  -0.192   2.252  10.064 -2.9283  0.7293 -2.0134
  490MOL0     H66098  -0.154   2.187   9.905  0.4654 -1.0241 -1.0043
  490MOL0     H66099  -0.359   2.033   9.909 -0.8336  0.7284 -2.0930
  490MOL0     H66100  -0.395   2.195   9.969  3.4551  1.6024  0.1067
  490MOL0     H66101  -0.383   2.227  10.245  0.8457 -0.0934  2.7079
  490MOL0     H66102  -0.461   2.161  10.502  0.0343  0.5009 -0.6834
  490MOL0     H66103  -0.519   1.993  10.521  2.3796 -4.1557 -0.4016
  490MOL0     H66104  -0.234   2.097  10.530 -1.6220  0.6678 -2.6838
  490MOL0     H66105  -0.267   1.926  10.510 -0.4489 -1.2507  1.3002
  490MOL0     H66106  -0.245   1.900  10.729  0.7560 -1.0612 -1.2864
  490MOL0     H66107  -0.418   1.918  10.724 -0.1731  0.6342  0.1545
  490MOL0     H66108  -0.212   2.125  10.781  0.5261 -0.5533 -0.6631
  490MOL0     H66109  -0.308   2.041  10.903  0.8057 -0.8602 -0.5436
  490MOL0     H66110  -0.580   2.362  10.777  0.0725 -2.0080 -1.5919
  490MOL0     H66111  -0.902   2.367  10.826  0.8275 -2.7093 -0.1379
  490MOL0     H66112  -0.864   2.509  10.927  4.3257  1.5391 -0.1975
  490MOL0     H66113  -0.780   2.493  10.785 -0.0084  0.5992  0.5991
  490MOL0     H66114  -1.080   2.156  11.310  2.3045  2.6667 -1.9007
  490MOL0     H66115  -1.207   2.163  11.516  0.1709 -2.0116  0.9212
  490MOL0     H66116  -1.349   2.374  11.625 -1.7258 -0.6325  0.1188
  490MOL0     H66117  -1.353   2.221  11.721  2.4751 -0.3334  0.4835
  490MOL0     H66118  -1.371   2.321  11.922 -2.4732 -3.2980 -1.6477
  490MOL0     H66119  -1.321   2.479  11.860  0.9977 -1.1505  0.4182
  490MOL0     H66120  -1.581   2.344  11.761 -1.4767  0.2035 -1.3140
  490MOL0     H66121  -1.511   2.508  11.724 -0.2277  0.8748  0.7837
  490MOL0     H66122  -1.592   2.425  12.002  0.1742 -2.6717 -2.3661
  490MOL0     H66123  -1.528   2.579  11.965 -0.9186  0.6283  0.4208
  490MOL0     H66124  -1.726   2.601  11.798 -1.3354  0.4036 -0.5571
  490MOL0     H66125  -1.761   2.619  11.975  0.7266  0.5759 -0.6837
  490MOL0     H66126  -1.812   2.362  11.823 -2.2697  0.9751 -1.7514
  490MOL0     H66127  -1.812   2.368  11.995  0.1883  0.9367  1.4954
  490MOL0     H66128  -1.981   2.504  11.798 -0.6598 -1.1864 -0.2374
  490MOL0     H66129  -1.994   2.563  11.969  0.6531 -0.5482  0.6940
  490MOL0     H66130  -2.090   2.374  12.048 -4.9900 -0.5461 -0.0877
  490MOL0     H66131  -2.048   2.269  11.909 -0.7316 -0.2824  0.7562
  490MOL0     H66132  -0.936   2.469  11.664 -0.3036  2.2135 -2.1683
  490MOL0     H66133  -0.787   2.413  11.484  2.0746 -3.4066  1.5993
  490MOL0     H66134  -0.654   2.129  11.196  0.3447  0.2745  0.5195
  490MOL0     H66135  -0.482   2.057  11.055  2.4481  1.4819 -0.9405
  490MOL0     H66136   0.661   2.118   9.495  1.0352  2.6964  0.0347
  490MOL0     H66137   0.911   2.148   9.450 -0.2216 -4.0246 -1.9288
  490MOL0     H66138   1.254   2.503   9.535  0.1259  0.5616  3.0338
  490MOL0     H66139   1.474   2.539   9.459  3.7020 -1.4006  0.5662
  490MOL0     H66140   1.816   2.348   9.337 -0.7243  1.4481  0.5448
  490MOL0     H66141   1.730   2.199   9.387  2.6853  0.3194  1.1748
  490MOL0     H66142   1.601   2.440   9.251  0.6409 -0.2579  1.2734
  490MOL0     H66143   1.519   2.286   9.292 -0.4943 -0.1265 -1.0317
  490MOL0     H66144   1.662   2.154   9.139  0.2831  0.1626 -0.8947
  490MOL0     H66145   1.745   2.295   9.084  1.2165 -1.7722 -0.6764
  490MOL0     H66146   1.574   2.386   8.961  2.9935  0.6696  3.2242
  490MOL0     H66147   1.439   2.317   9.057 -1.0297 -0.4977 -1.2183
  490MOL0     H66148   1.505   2.089   8.717  0.8030  1.2360 -1.6634
  490MOL0     H66149   1.606   2.152   9.604 -1.2552 -1.9702  1.1910
  490MOL0     H66150   1.382   2.097   9.658 -0.2945 -1.2164 -0.3376
  491MOL0     O66151   8.152   4.009   8.121  0.3696 -0.4213 -1.6060
  491MOL0     C66152   8.060   4.024   8.041  0.1816 -0.1438  0.2509
  491MOL0     O66153   8.043   4.126   7.958 -0.0194  0.3584  0.3566
  491MOL0     C66154   8.128   4.222   7.942  0.8297  1.4292 -0.3957
  491MOL0     C66155   8.238   4.203   7.863 -0.0891  0.2725  0.0086
  491MOL0     C66156   8.330   4.310   7.850  0.5707  0.1073  0.9983
  491MOL0     C66157   8.324   4.423   7.929  0.4097 -0.0224  0.1786
  491MOL0     O66158   8.431   4.512   7.934  0.2541 -0.5516 -0.5065
  491MOL0     C66159   8.420   4.622   7.845  0.4424  0.4965 -0.1482
  491MOL0     C66160   8.499   4.609   7.714 -0.8926 -0.2014  0.5598
  491MOL0     C66161   8.646   4.567   7.746  0.1376  0.2395 -0.4578
  491MOL0     C66162   8.721   4.654   7.861  0.1465 -0.3910 -0.4950
  491MOL0     C66163   8.865   4.591   7.880 -0.4133  0.5782  0.2667
  491MOL0     C66164   8.969   4.695   7.920 -0.2448 -0.1240  0.8645
  491MOL0     C66165   9.108   4.632   7.942 -0.2721 -0.1331  0.3642
  491MOL0     C66166   9.219   4.746   7.967 -0.2661 -0.3261 -0.8364
  491MOL0     N66167   9.262   4.774   8.109  0.1460 -0.5158  0.6194
  491MOL0     C66168   9.332   4.694   8.217 -0.1667  0.1450  0.3326
  491MOL0     C66169   9.336   4.776   8.330  0.4371 -0.4440  1.1410
  491MOL0     C66170   9.419   4.738   8.453  0.0572 -0.2311 -0.1635
  491MOL0     C66171   9.564   4.769   8.413 -0.6460 -0.4819 -0.4283
  491MOL0     C66172   9.653   4.723   8.535  0.2334  0.3792  0.2612
  491MOL0     C66173   9.786   4.798   8.554 -0.1937 -0.1669  0.4724
  491MOL0     O66174   9.854   4.777   8.677  0.6428  0.5168 -0.0442
  491MOL0     C66175   9.976   4.831   8.702  0.0109 -0.3377 -0.5055
  491MOL0     C66176  10.021   4.793   8.826  0.0508  0.2741 -0.4505
  491MOL0     C66177  10.148   4.841   8.874  0.2208  0.9045  0.2828
  491MOL0     C66178  10.194   4.773   9.003 -0.2884  0.6368  0.2760
  491MOL0     C66179  10.212   4.952   8.807  0.1924  0.2596 -0.1402
  491MOL0     C66180  10.333   5.024   8.862  0.3163 -0.3094 -0.4015
  491MOL0     O66181  10.425   5.083   8.771  0.8706 -0.0978  0.4772
  491MOL0     C66182  10.537   5.144   8.805 -0.2656 -0.5319 -0.4256
  491MOL0     C66183  10.592   5.228   8.708  0.5236 -0.7320 -0.8314
  491MOL0     C66184  10.719   5.287   8.721  0.3710  0.8228 -0.6170
  491MOL0     C66185  10.797   5.249   8.833  0.1738 -0.4396 -0.4717
  491MOL0     O66186  10.921   5.305   8.854 -0.0374 -0.5353 -0.5607
  491MOL0     C66187  10.981   5.385   8.743  0.2409 -0.0224  0.1349
  491MOL0     C66188  11.107   5.456   8.788  0.4283 -0.8886  0.8482
  491MOL0     C66189  11.093   5.559   8.909 -0.2438  0.5131  0.6651
  491MOL0     C66190  11.230   5.577   8.980 -0.0353  0.8822  0.8890
  491MOL0     C66191  11.237   5.668   9.107  0.6051 -0.4592 -0.0877
  491MOL0     C66192  11.235   5.824   9.085  0.0918 -1.0754 -1.2218
  491MOL0     C66193  11.275   5.904   9.217  0.2272 -0.5387 -0.7789
  491MOL0     C66194  11.264   6.053   9.182  0.5389  0.3351 -0.0739
  491MOL0    Cl66195  11.357   6.102   9.033 -1.1316 -0.1956  0.5488
  491MOL0     C66196  10.747   5.166   8.932 -0.1756 -1.3396 -1.2307
  491MOL0     C66197  10.621   5.109   8.914 -0.3482 -0.0290  0.5004
  491MOL0     O66198  10.357   5.019   8.984 -0.1351  0.5741 -0.3526
  491MOL0     C66199  10.165   4.985   8.679  0.1197 -0.0619  0.0622
  491MOL0     C66200  10.047   4.929   8.628  0.3524  0.6844  0.5741
  491MOL0     N66201   9.259   4.889   8.299 -0.6632 -0.1000 -1.8772
  491MOL0     N66202   9.222   4.890   8.170 -0.1289 -0.3402 -0.4398
  491MOL0     C66203   8.212   4.443   8.004 -0.8931 -0.2435  0.3668
  491MOL0     C66204   8.108   4.351   8.001  0.7131 -0.7328 -0.5002
  491MOL0     C66205   7.944   3.931   8.045 -0.7372 -1.3269 -1.2935
  491MOL0     C66206   7.934   3.852   8.166 -0.0935  0.1931 -0.0613
  491MOL0     C66207   7.817   3.776   8.185  0.8803  1.6900  0.2452
  491MOL0     C66208   7.723   3.767   8.084  1.2870  0.0950 -0.4516
  491MOL0     O66209   7.612   3.691   8.072  0.2749 -0.8380 -0.3021
  491MOL0     C66210   7.586   3.587   8.172  0.0442 -0.4868  0.5396
  491MOL0     C66211   7.687   3.474   8.149 -0.3369  0.6922  0.2960
  491MOL0     C66212   7.669   3.356   8.235 -0.0707  0.8567  0.3338
  491MOL0     C66213   7.768   3.348   8.353 -0.6165  0.3453  0.5964
  491MOL0     C66214   7.770   3.464   8.443 -0.1594  0.2285 -0.0024
  491MOL0     C66215   7.764   3.553   8.524 -0.5763 -1.2307  0.3391
  491MOL0     C66216   7.745   3.845   7.968 -0.1998  0.2658 -0.0393
  491MOL0     C66217   7.848   3.932   7.946 -0.1121 -0.3332  0.7868
  491MOL0     H66218   8.253   4.116   7.799 -1.3824  0.9958 -1.3499
  491MOL0     H66219   8.406   4.303   7.773 -0.2864 -1.3586  0.2266
  491MOL0     H66220   8.316   4.635   7.815  0.3226  2.1047  0.8994
  491MOL0     H66221   8.441   4.709   7.907  0.3284  1.2823 -1.1857
  491MOL0     H66222   8.452   4.529   7.656 -0.9693  0.0365  0.2968
  491MOL0     H66223   8.486   4.703   7.660 -2.1831 -0.6440  0.0568
  491MOL0     H66224   8.652   4.464   7.783  1.0504  1.1625  2.1798
  491MOL0     H66225   8.714   4.571   7.660  1.8937  1.3403  0.9079
  491MOL0     H66226   8.716   4.758   7.827  1.7693 -0.4095 -0.8671
  491MOL0     H66227   8.671   4.645   7.958 -1.3920 -0.7745 -1.2962
  491MOL0     H66228   8.858   4.506   7.948 -1.0855 -0.8419 -1.5093
  491MOL0     H66229   8.897   4.550   7.784  0.4064 -3.3671  2.0324
  491MOL0     H66230   8.976   4.783   7.855 -0.9863  0.9086  2.1289
  491MOL0     H66231   8.947   4.742   8.017  2.7993 -0.0743  1.6489
  491MOL0     H66232   9.111   4.550   8.015  3.1258 -2.0276 -1.5881
  491MOL0     H66233   9.140   4.586   7.848 -0.0584 -3.5742  1.9735
  491MOL0     H66234   9.182   4.837   7.917 -2.7007 -0.5483  0.4030
  491MOL0     H66235   9.307   4.700   7.922 -0.8698 -0.7302 -1.6252
  491MOL0     H66236   9.366   4.591   8.209  0.4736  0.5138 -3.5236
  491MOL0     H66237   9.376   4.795   8.536  0.8198  1.2270 -0.7344
  491MOL0     H66238   9.410   4.631   8.477  0.3387 -0.0203  0.9601
  491MOL0     H66239   9.586   4.874   8.393  3.2784 -0.6920  1.8951
  491MOL0     H66240   9.596   4.709   8.328  1.2705 -1.7426  1.1029
  491MOL0     H66241   9.662   4.614   8.529  1.0789  0.3157  2.0686
  491MOL0     H66242   9.592   4.742   8.623  0.5343  2.1860  0.1231
  491MOL0     H66243   9.761   4.903   8.532  0.4781  0.2744  1.6908
  491MOL0     H66244   9.854   4.768   8.473  1.7727 -5.5168  3.6489
  491MOL0     H66245   9.962   4.717   8.877  1.4147 -0.0558  0.6817
  491MOL0     H66246  10.190   4.843   9.086 -0.7141 -1.1658  1.8468
  491MOL0     H66247  10.119   4.698   9.031 -0.7010  0.0450 -2.1953
  491MOL0     H66248  10.294   4.731   8.993 -0.3564  0.5160  0.0844
  491MOL0     H66249  10.537   5.259   8.620  2.1863  0.3900 -1.5294
  491MOL0     H66250  10.754   5.351   8.641  2.4513  3.3344  2.0636
  491MOL0     H66251  10.993   5.333   8.648  0.3581  1.5533 -0.7432
  491MOL0     H66252  10.911   5.468   8.735 -1.0425 -0.6840  3.1217
  491MOL0     H66253  11.185   5.382   8.808  1.1740 -0.2438  0.3638
  491MOL0     H66254  11.144   5.512   8.702  1.2538 -1.4845  0.8021
  491MOL0     H66255  11.026   5.517   8.984 -0.5981 -0.4301 -0.1667
  491MOL0     H66256  11.038   5.650   8.884 -2.2841 -1.1940 -1.5421
  491MOL0     H66257  11.245   5.478   9.023 -1.2176 -0.0727 -0.8079
  491MOL0     H66258  11.312   5.602   8.912  0.0088 -1.2287  0.0902
  491MOL0     H66259  11.328   5.646   9.164  0.4681  2.7565  1.6095
  491MOL0     H66260  11.159   5.653   9.182 -0.2309  2.5508 -0.2435
  491MOL0     H66261  11.312   5.844   9.009  2.1379 -2.3314  0.4143
  491MOL0     H66262  11.135   5.850   9.049  0.7738  3.1342 -0.6534
  491MOL0     H66263  11.379   5.877   9.238 -0.4197  0.0283  4.7957
  491MOL0     H66264  11.221   5.892   9.311  0.4300 -3.0399 -0.9159
  491MOL0     H66265  11.286   6.117   9.267  0.5739 -0.8093  0.7957
  491MOL0     H66266  11.163   6.083   9.153  0.2220  0.6541  1.3020
  491MOL0     H66267  10.820   5.134   9.006 -1.3108 -1.2349 -0.0388
  491MOL0     H66268  10.585   5.034   8.984 -3.5239 -0.3179 -1.2269
  491MOL0     H66269  10.211   5.063   8.619  0.0095 -0.6186 -0.7633
  491MOL0     H66270  10.008   4.961   8.532  2.2985 -2.0174 -1.2727
  491MOL0     H66271   8.210   4.535   8.062  1.3446  0.5482 -0.6817
  491MOL0     H66272   8.025   4.390   8.059  2.8922  1.7207  1.1695
  491MOL0     H66273   7.995   3.850   8.255 -0.6891 -1.4069  0.3462
  491MOL0     H66274   7.814   3.720   8.278 -1.4371  2.0271  0.4384
  491MOL0     H66275   7.605   3.640   8.266  1.1068 -0.3363  0.2515
  491MOL0     H66276   7.480   3.562   8.165  0.6928 -3.1630 -1.3070
  491MOL0     H66277   7.791   3.507   8.164  0.2306 -1.1101  0.5502
  491MOL0     H66278   7.673   3.443   8.045  0.3926 -2.4051  1.0390
  491MOL0     H66279   7.686   3.266   8.174  1.8803  1.0142  0.6026
  491MOL0     H66280   7.564   3.345   8.266  0.4719 -0.1661  1.9140
  491MOL0     H66281   7.873   3.347   8.320 -0.4222 -1.8446  1.1603
  491MOL0     H66282   7.756   3.259   8.416 -0.7084 -0.0740 -0.0085
  491MOL0     H66283   7.749   3.631   8.596  0.6824 -1.8391  1.2987
  491MOL0     H66284   7.666   3.826   7.895 -0.4052  0.2882  0.1751
  491MOL0     H66285   7.852   3.998   7.860  0.8985 -2.5066 -0.9071
  492MOL0     O66286   8.542  10.981  10.826 -0.2069  0.1534  0.1607
  492MOL0     C66287   8.486  10.874  10.840  0.3320  0.0515 -0.4905
  492MOL0     O66288   8.371  10.840  10.772 -0.5875 -0.1041  0.4709
  492MOL0     C66289   8.332  10.922  10.672  1.0977  0.4974  0.7370
  492MOL0     C66290   8.357  10.905  10.538  0.1993 -1.0110 -0.4865
  492MOL0     C66291   8.341  11.011  10.446  0.4502  0.3764 -0.4511
  492MOL0     C66292   8.274  11.130  10.479 -1.2137 -0.6438 -0.3897
  492MOL0     O66293   8.268  11.227  10.386  0.3226 -0.1157  0.5363
  492MOL0     C66294   8.243  11.358  10.425  1.1799 -0.1082 -1.1969
  492MOL0     C66295   8.268  11.454  10.306  0.0836  0.4375 -0.0389
  492MOL0     C66296   8.242  11.597  10.339  0.4664  0.5004  0.1863
  492MOL0     C66297   8.102  11.620  10.408 -0.1078  0.8298  0.1733
  492MOL0     C66298   8.046  11.748  10.371  0.2195 -1.4030 -0.9305
  492MOL0     C66299   7.894  11.762  10.407  0.8717 -0.0424 -0.4133
  492MOL0     C66300   7.848  11.894  10.346  0.5346  0.0334 -0.2098
  492MOL0     C66301   7.713  11.962  10.371  1.3857  0.1645 -0.3635
  492MOL0     N66302   7.712  11.997  10.511 -0.1975  0.2995  0.6347
  492MOL0     C66303   7.602  11.968  10.581  0.8209 -0.2725 -1.7551
  492MOL0     C66304   7.633  11.995  10.703 -0.8703  0.5867  0.0526
  492MOL0     C66305   7.549  11.978  10.832  0.0981  0.1859  0.3424
  492MOL0     C66306   7.461  11.850  10.845  0.5016  0.7113 -0.0157
  492MOL0     C66307   7.552  11.723  10.859  0.3363 -0.5574 -0.2186
  492MOL0     C66308   7.468  11.596  10.896  0.2264  0.6178 -0.1778
  492MOL0     O66309   7.536  11.484  10.861 -1.0563  0.5138  0.1324
  492MOL0     C66310   7.495  11.360  10.909 -0.5351 -0.0653 -0.6887
  492MOL0     C66311   7.379  11.347  10.993 -0.2942  1.0212 -0.6027
  492MOL0     C66312   7.325  11.215  11.025  0.8037  0.2253  0.2093
  492MOL0     C66313   7.185  11.219  11.067  0.7272 -0.7459 -0.1374
  492MOL0     C66314   7.398  11.095  10.987 -0.4191  0.5965  0.9525
  492MOL0     C66315   7.348  10.957  11.023 -0.8893  0.4700 -0.5828
  492MOL0     O66316   7.431  10.848  10.973  0.0450  0.2946  0.1153
  492MOL0     C66317   7.421  10.715  11.007 -0.3237 -0.6964 -1.1301
  492MOL0     C66318   7.523  10.620  10.975 -0.2377  0.4036 -0.0765
  492MOL0     C66319   7.512  10.479  10.997 -0.2899  0.4421 -0.5526
  492MOL0     C66320   7.386  10.431  11.041 -0.0505 -0.2317 -0.1096
  492MOL0     O66321   7.371  10.296  11.060  0.1722  0.5132 -0.2211
  492MOL0     C66322   7.250  10.230  11.028 -0.7527  0.7794 -0.1823
  492MOL0     C66323   7.259  10.087  11.089  0.4730 -0.0842 -0.0587
  492MOL0     C66324   7.140   9.990  11.050 -1.5627  0.3727 -0.0409
  492MOL0     C66325   7.146   9.858  11.127  0.5855 -0.4283  0.1640
  492MOL0     C66326   7.272   9.776  11.105  0.0854 -0.5636 -1.2790
  492MOL0     C66327   7.260   9.683  10.984  0.2597  0.5358  0.0873
  492MOL0     C66328   7.399   9.624  10.937 -0.4407 -0.7780  0.1204
  492MOL0     C66329   7.385   9.555  10.803 -0.9733 -0.6521 -0.3949
  492MOL0    Cl66330   7.295   9.401  10.821 -0.0471  0.0068 -0.1200
  492MOL0     C66331   7.283  10.519  11.068 -0.0603  0.7314 -0.4608
  492MOL0     C66332   7.296  10.662  11.047 -0.4161  0.1202  1.0300
  492MOL0     O66333   7.265  10.951  11.110  0.4416  0.7185 -0.0506
  492MOL0     C66334   7.518  11.106  10.914  0.3591  0.2040  1.0557
  492MOL0     C66335   7.558  11.237  10.870  0.4503 -0.1412  0.0304
  492MOL0     N66336   7.766  12.029  10.706 -1.0548  0.6252  0.3769
  492MOL0     N66337   7.808  12.039  10.594 -0.3171  0.5669  0.1049
  492MOL0     C66338   8.227  11.145  10.613 -1.1636 -0.0886  0.2342
  492MOL0     C66339   8.258  11.036  10.703  0.2317 -0.6504  0.8198
  492MOL0     C66340   8.546  10.791  10.945 -0.0206  0.1719  0.7273
  492MOL0     C66341   8.490  10.671  10.988 -0.6973 -0.1074 -0.1646
  492MOL0     C66342   8.552  10.601  11.096  0.7891  0.4218  0.3215
  492MOL0     C66343   8.674  10.649  11.154  0.3196 -0.3067 -0.2827
  492MOL0     O66344   8.733  10.572  11.251  0.2385  0.5831 -0.3755
  492MOL0     C66345   8.849  10.625  11.318  0.9251 -0.8589  0.8398
  492MOL0     C66346   8.898  10.551  11.441 -0.7240  0.1674 -0.7508
  492MOL0     C66347   8.820  10.586  11.567  0.6436 -0.1905 -0.1154
  492MOL0     C66348   8.670  10.554  11.577  0.9616 -0.1204 -0.3311
  492MOL0     C66349   8.623  10.421  11.524 -0.4456 -1.3590  0.1812
  492MOL0     C66350   8.582  10.319  11.480  0.8499  0.3706 -0.3126
  492MOL0     C66351   8.721  10.775  11.115 -0.5749  0.2037 -1.1059
  492MOL0     C66352   8.668  10.838  11.002 -0.3401  0.2256 -0.9711
  492MOL0     H66353   8.410  10.823  10.491  1.8462 -0.0047 -0.4789
  492MOL0     H66354   8.372  10.991  10.344  0.2430  0.9620 -0.6353
  492MOL0     H66355   8.142  11.373  10.466  1.8387 -0.8747  0.8035
  492MOL0     H66356   8.314  11.380  10.505  1.5009  1.2104 -1.8128
  492MOL0     H66357   8.371  11.458  10.268  0.3375  0.2547  0.6077
  492MOL0     H66358   8.204  11.417  10.226  0.5156  1.5813 -0.9455
  492MOL0     H66359   8.324  11.637  10.400  0.2579  0.1917  0.6780
  492MOL0     H66360   8.252  11.653  10.246 -0.5567 -1.6172 -1.2817
  492MOL0     H66361   8.042  11.537  10.370  2.9814 -1.3543 -0.3003
  492MOL0     H66362   8.102  11.623  10.518  1.1440  1.2063  0.1834
  492MOL0     H66363   8.099  11.837  10.406 -1.3530 -1.0737  0.7885
  492MOL0     H66364   8.052  11.756  10.262  0.1915  1.5653 -0.7941
  492MOL0     H66365   7.842  11.678  10.361  1.8167  0.5708 -2.7218
  492MOL0     H66366   7.885  11.764  10.516  3.5086  2.9153 -0.1125
  492MOL0     H66367   7.920  11.975  10.363  0.3453  0.3949 -1.1027
  492MOL0     H66368   7.835  11.882  10.238  0.8451  0.5994 -0.3097
  492MOL0     H66369   7.631  11.895  10.343 -0.3727  1.8094  0.5966
  492MOL0     H66370   7.688  12.052  10.312 -4.1727  0.6713  2.0906
  492MOL0     H66371   7.507  11.928  10.546  2.4563 -3.5145 -2.9282
  492MOL0     H66372   7.625  11.985  10.910  2.4001  0.8001 -1.8178
  492MOL0     H66373   7.476  12.058  10.847 -1.1411 -0.9015  0.3377
  492MOL0     H66374   7.394  11.825  10.762  0.8982  0.7254 -0.3448
  492MOL0     H66375   7.394  11.868  10.929  2.1162  0.6057  1.3450
  492MOL0     H66376   7.640  11.741  10.921  1.0596  0.8067 -1.5866
  492MOL0     H66377   7.579  11.703  10.755  0.5035  1.1817 -0.5435
  492MOL0     H66378   7.379  11.600  10.832 -0.7927 -1.1941  1.0283
  492MOL0     H66379   7.441  11.601  11.002  1.0902 -1.5227  0.2034
  492MOL0     H66380   7.321  11.437  11.010  0.4648  1.6684 -1.3512
  492MOL0     H66381   7.137  11.317  11.063  2.0836 -0.0640 -0.2605
  492MOL0     H66382   7.120  11.168  10.995 -1.9354  1.1941  0.7418
  492MOL0     H66383   7.180  11.170  11.165  3.0841 -1.8295 -0.4771
  492MOL0     H66384   7.616  10.656  10.932 -0.4115 -0.1526 -0.9368
  492MOL0     H66385   7.590  10.405  10.985  0.3018  0.7111  1.3179
  492MOL0     H66386   7.164  10.292  11.057 -0.5882  2.0376 -2.1593
  492MOL0     H66387   7.235  10.214  10.920  1.2203 -0.8017 -0.2869
  492MOL0     H66388   7.355  10.047  11.057 -0.3431 -0.5319 -2.1155
  492MOL0     H66389   7.255  10.092  11.199 -2.1450 -0.8646 -0.0465
  492MOL0     H66390   7.150   9.966  10.944 -0.8618 -3.0179  0.7030
  492MOL0     H66391   7.045  10.044  11.060 -1.6868  0.2916 -0.7611
  492MOL0     H66392   7.131   9.881  11.233 -0.5091 -0.9922  0.1444
  492MOL0     H66393   7.061   9.800  11.090 -0.0292  0.1486  0.6649
  492MOL0     H66394   7.281   9.713  11.195 -2.0858  2.6039  1.3798
  492MOL0     H66395   7.363   9.837  11.099  0.7158 -1.1875  0.8946
  492MOL0     H66396   7.187   9.604  11.007 -0.1506 -0.6087 -4.1687
  492MOL0     H66397   7.215   9.737  10.900  0.3517  0.7093  0.1529
  492MOL0     H66398   7.432   9.554  11.014 -2.8774  0.0669  2.0421
  492MOL0     H66399   7.472   9.705  10.928  0.8797 -1.3367  3.9392
  492MOL0     H66400   7.482   9.534  10.756 -0.5201  1.1269 -0.3284
  492MOL0     H66401   7.336   9.628  10.738 -0.2565  2.0197  1.8307
  492MOL0     H66402   7.190  10.479  11.106  0.2027 -1.6266 -2.0882
  492MOL0     H66403   7.199  10.711  11.053 -1.9871 -2.9067  2.7313
  492MOL0     H66404   7.580  11.020  10.890  0.7950 -0.2728  3.6144
  492MOL0     H66405   7.647  11.248  10.809 -1.2123 -0.4790 -2.6431
  492MOL0     H66406   8.169  11.231  10.643  1.9485  1.3337  2.6941
  492MOL0     H66407   8.224  11.047  10.806 -0.1060  3.5973  0.4381
  492MOL0     H66408   8.390  10.643  10.959 -1.0054 -0.0353  0.8063
  492MOL0     H66409   8.512  10.505  11.128 -0.9791  0.7138 -0.8673
  492MOL0     H66410   8.936  10.646  11.255  0.6783 -0.8936  0.4831
  492MOL0     H66411   8.828  10.721  11.365 -0.0255 -2.0121  2.9346
  492MOL0     H66412   9.004  10.563  11.466  0.1463  0.1141 -3.9474
  492MOL0     H66413   8.890  10.442  11.431 -0.5852  0.0747  0.0881
  492MOL0     H66414   8.834  10.694  11.581  1.0396 -0.2028 -0.4077
  492MOL0     H66415   8.864  10.534  11.653 -0.2599 -0.9905 -0.1168
  492MOL0     H66416   8.607  10.631  11.533  0.6228  1.9458  3.3697
  492MOL0     H66417   8.651  10.543  11.684  2.1851 -0.8300 -0.1609
  492MOL0     H66418   8.536  10.237  11.429  1.0406  0.9022 -1.3705
  492MOL0     H66419   8.810  10.822  11.155 -1.1300  3.0181 -2.9371
  492MOL0     H66420   8.728  10.925  10.975  1.1315  0.7522  3.2717
  493MOL0     O66421   9.069   5.903   4.652 -0.6939 -0.3721  0.7227
  493MOL0     C66422   9.152   5.899   4.565 -0.3917  0.7803 -0.3267
  493MOL0     O66423   9.150   5.811   4.462  0.1737  0.7461  0.1484
  493MOL0     C66424   9.057   5.704   4.471  0.1488  0.0503 -0.6046
  493MOL0     C66425   8.981   5.670   4.351 -0.6597  0.5850 -0.7607
  493MOL0     C66426   8.894   5.563   4.359 -0.3062 -1.0895  0.1292
  493MOL0     C66427   8.862   5.501   4.477  0.0713  0.2658 -0.7297
  493MOL0     O66428   8.776   5.399   4.508  0.1745 -0.5428  0.0549
  493MOL0     C66429   8.671   5.354   4.413  0.1540  0.2777  0.5510
  493MOL0     C66430   8.621   5.216   4.457  0.0607  0.1964  0.0048
  493MOL0     C66431   8.747   5.126   4.474 -0.9342  0.2937 -0.3806
  493MOL0     C66432   8.689   4.979   4.484 -0.1013  0.0668  0.1829
  493MOL0     C66433   8.795   4.878   4.464  0.3538 -1.0026 -0.5167
  493MOL0     C66434   8.795   4.821   4.320 -0.0630 -0.3887 -0.7193
  493MOL0     C66435   8.930   4.750   4.288  0.6006  0.4444 -0.7160
  493MOL0     C66436   8.938   4.696   4.151 -0.1781  0.5683  1.2311
  493MOL0     N66437   8.979   4.800   4.049  0.4209  0.2992  0.3796
  493MOL0     C66438   9.113   4.816   4.016 -0.4164 -0.1204 -1.2079
  493MOL0     C66439   9.128   4.942   3.956 -0.1951  0.3703  0.0969
  493MOL0     C66440   9.262   4.991   3.905  1.0879  0.4987  2.0232
  493MOL0     C66441   9.244   5.059   3.771 -0.4699  0.0322  0.2339
  493MOL0     C66442   9.382   5.094   3.701 -0.2890 -0.5047 -1.0215
  493MOL0     C66443   9.393   5.079   3.551  0.6856 -0.5933 -0.6747
  493MOL0     O66444   9.385   4.950   3.510  0.0090 -0.1275  0.3406
  493MOL0     C66445   9.381   4.902   3.380  0.6835 -0.7442  0.3719
  493MOL0     C66446   9.423   4.976   3.264  0.7295 -0.2758 -0.0915
  493MOL0     C66447   9.442   4.913   3.140  0.6944  1.0433  0.2902
  493MOL0     C66448   9.512   4.990   3.021  0.4649  0.5113 -0.0273
  493MOL0     C66449   9.401   4.783   3.124  0.0783 -0.4222  0.8304
  493MOL0     C66450   9.432   4.701   2.999  0.2022 -0.1399 -0.9191
  493MOL0     O66451   9.333   4.625   2.952  0.2317 -0.2736 -0.6588
  493MOL0     C66452   9.350   4.515   2.873  0.0819 -0.0501  0.3691
  493MOL0     C66453   9.425   4.407   2.933 -0.0476  0.0099  0.4558
  493MOL0     C66454   9.440   4.290   2.854  0.5398  0.0545 -0.2374
  493MOL0     C66455   9.400   4.278   2.721 -1.1755 -0.0170  0.2877
  493MOL0     O66456   9.424   4.163   2.652  0.0924  0.3479 -0.1669
  493MOL0     C66457   9.439   4.040   2.718  0.1030 -0.5523 -1.3786
  493MOL0     C66458   9.426   3.920   2.622  0.0846 -0.4348 -0.0342
  493MOL0     C66459   9.508   3.798   2.675  0.4486 -0.1654 -0.7189
  493MOL0     C66460   9.494   3.768   2.820 -0.3130 -0.4649 -0.4041
  493MOL0     C66461   9.564   3.633   2.872 -0.9694 -0.7278  0.0632
  493MOL0     C66462   9.715   3.635   2.878  0.7902 -0.1411 -0.4335
  493MOL0     C66463   9.768   3.513   2.952 -0.6495 -0.1201 -0.3683
  493MOL0     C66464   9.920   3.497   2.946  0.0130  0.1543 -0.3796
  493MOL0    Cl66465   9.968   3.384   3.078  0.2741 -0.4403 -0.0174
  493MOL0     C66466   9.334   4.388   2.663  0.4312 -0.0702 -0.3432
  493MOL0     C66467   9.315   4.509   2.740 -0.4370 -1.0757  0.3915
  493MOL0     O66468   9.544   4.705   2.957  0.4499 -0.2025 -0.1523
  493MOL0     C66469   9.341   4.710   3.224  0.1111  1.1550  0.2665
  493MOL0     C66470   9.341   4.768   3.359  0.3442 -0.4083  0.6200
  493MOL0     N66471   8.998   4.995   3.955  0.6683 -2.0435  0.3681
  493MOL0     N66472   8.912   4.909   4.010 -0.2770 -0.8090  0.1942
  493MOL0     C66473   8.941   5.533   4.591  0.9857 -0.2146  0.6335
  493MOL0     C66474   9.035   5.632   4.592 -0.3875 -0.3301  0.7692
  493MOL0     C66475   9.247   6.008   4.539 -0.4630  0.0619 -0.1559
  493MOL0     C66476   9.199   6.136   4.507  0.7274 -0.6822  0.3469
  493MOL0     C66477   9.282   6.249   4.491 -0.2151  0.4954  0.5771
  493MOL0     C66478   9.415   6.232   4.526  0.6004  0.0567 -0.8328
  493MOL0     O66479   9.482   6.344   4.496  0.2910 -0.0909  0.1250
  493MOL0     C66480   9.619   6.323   4.473 -0.0161 -0.5646  0.2421
  493MOL0     C66481   9.683   6.462   4.420  0.8468  0.6462  1.0672
  493MOL0     C66482   9.657   6.576   4.516  0.0061  0.3608  0.9684
  493MOL0     C66483   9.748   6.697   4.501 -0.7582 -0.2699  0.3081
  493MOL0     C66484   9.696   6.782   4.391  0.4216  0.2593 -1.1234
  493MOL0     C66485   9.645   6.857   4.314 -1.1868  0.3641 -0.1749
  493MOL0     C66486   9.467   6.105   4.574 -0.4972  0.3895 -0.0988
  493MOL0     C66487   9.381   6.001   4.573 -0.4509  0.5331 -0.5543
  493MOL0     H66488   9.014   5.728   4.266  0.9650 -0.5297 -0.9428
  493MOL0     H66489   8.826   5.530   4.280  1.1120 -0.1601 -1.5510
  493MOL0     H66490   8.591   5.428   4.416  0.8577  1.0477  0.8294
  493MOL0     H66491   8.710   5.361   4.311 -1.2401 -0.5924 -0.0721
  493MOL0     H66492   8.559   5.221   4.546  1.7479  3.3326  1.1811
  493MOL0     H66493   8.553   5.178   4.380 -0.2537  3.5491 -1.5735
  493MOL0     H66494   8.802   5.134   4.380 -4.1357 -1.2452 -2.5852
  493MOL0     H66495   8.808   5.143   4.562  0.4564 -3.0404 -0.5301
  493MOL0     H66496   8.645   4.960   4.583 -0.0642 -0.6385  0.0667
  493MOL0     H66497   8.611   4.959   4.410  1.8116 -0.7936 -1.6861
  493MOL0     H66498   8.891   4.928   4.473  0.2092 -0.8992  0.5707
  493MOL0     H66499   8.785   4.796   4.536  1.9065 -1.7286 -1.0884
  493MOL0     H66500   8.707   4.757   4.312 -1.4916  1.0477  2.0158
  493MOL0     H66501   8.781   4.904   4.250 -1.6769  1.8976  2.0689
  493MOL0     H66502   9.016   4.814   4.309  0.7034  0.1553 -0.2439
  493MOL0     H66503   8.933   4.658   4.346  0.8106 -0.6621 -2.4011
  493MOL0     H66504   8.841   4.660   4.114  0.4038 -0.1380  0.3562
  493MOL0     H66505   9.011   4.615   4.147  3.1128  3.2973  1.3970
  493MOL0     H66506   9.193   4.750   4.050 -1.6504 -0.5629  1.0874
  493MOL0     H66507   9.313   5.064   3.968  2.7980  0.3710  0.8613
  493MOL0     H66508   9.316   4.899   3.879  1.5911  1.2522  0.2999
  493MOL0     H66509   9.190   5.151   3.794  0.7551  0.3386  2.0958
  493MOL0     H66510   9.187   4.992   3.705  0.9210  0.1342 -1.1237
  493MOL0     H66511   9.459   5.031   3.747 -0.4523  0.2694  0.3897
  493MOL0     H66512   9.407   5.198   3.725  1.0331 -1.2049  0.8637
  493MOL0     H66513   9.487   5.127   3.523  0.3972  0.6223  0.3858
  493MOL0     H66514   9.322   5.150   3.508  1.2581  0.3791 -0.0354
  493MOL0     H66515   9.443   5.083   3.264 -0.6797  0.0114  0.2292
  493MOL0     H66516   9.607   4.954   2.982  1.0434  2.9329 -1.0797
  493MOL0     H66517   9.439   4.996   2.939 -0.4850  2.7551  0.8910
  493MOL0     H66518   9.535   5.091   3.055 -0.7844  1.9600 -3.0438
  493MOL0     H66519   9.464   4.417   3.034  0.2316 -2.0751  0.5923
  493MOL0     H66520   9.489   4.217   2.917 -1.6186  0.7395  2.4587
  493MOL0     H66521   9.539   4.030   2.762  0.3433  0.8981 -1.5577
  493MOL0     H66522   9.362   4.033   2.795 -1.0289  0.2127 -2.3985
  493MOL0     H66523   9.323   3.888   2.604  0.1195  0.2758 -1.6797
  493MOL0     H66524   9.476   3.947   2.529  1.1748  0.1025  0.6833
  493MOL0     H66525   9.612   3.809   2.643  1.7713 -0.9209  2.8638
  493MOL0     H66526   9.474   3.706   2.626  1.2747 -2.3980  2.5253
  493MOL0     H66527   9.521   3.849   2.887  1.3409 -1.4774  0.2039
  493MOL0     H66528   9.385   3.762   2.822 -0.5487  1.8415 -1.8772
  493MOL0     H66529   9.532   3.551   2.806 -2.3509 -0.2599  0.1273
  493MOL0     H66530   9.536   3.614   2.976  2.4412  1.6148  1.6122
  493MOL0     H66531   9.758   3.645   2.778  0.6440 -0.7444 -0.5607
  493MOL0     H66532   9.759   3.721   2.931 -0.3913 -1.3665  2.8378
  493MOL0     H66533   9.741   3.416   2.911  2.1707 -1.5808  0.9305
  493MOL0     H66534   9.737   3.521   3.057 -1.3876 -2.2471 -0.3829
  493MOL0     H66535   9.961   3.597   2.963 -1.3179  1.1302 -2.4456
  493MOL0     H66536   9.947   3.460   2.847 -0.2657 -0.8901 -0.0751
  493MOL0     H66537   9.298   4.386   2.560  0.9003 -1.1454 -0.5081
  493MOL0     H66538   9.251   4.583   2.693  1.9517 -0.0155 -1.3621
  493MOL0     H66539   9.299   4.613   3.201  0.0190  0.8281  1.7342
  493MOL0     H66540   9.297   4.718   3.444  1.1776 -1.4875  0.4328
  493MOL0     H66541   8.911   5.478   4.680  2.6117 -0.7729  0.8656
  493MOL0     H66542   9.086   5.659   4.684  0.0584  1.3237  0.0752
  493MOL0     H66543   9.094   6.157   4.495  1.7347  3.7570 -4.1755
  493MOL0     H66544   9.240   6.342   4.453  1.6294  0.4848 -1.7138
  493MOL0     H66545   9.671   6.286   4.563  1.7919 -1.2336 -1.0137
  493MOL0     H66546   9.642   6.246   4.398 -0.3365  0.0133 -0.4529
  493MOL0     H66547   9.644   6.474   4.319 -2.3473  0.0396  2.1246
  493MOL0     H66548   9.792   6.455   4.410  0.7318 -0.6137  0.4769
  493MOL0     H66549   9.688   6.532   4.611  2.2698 -1.7258 -0.5861
  493MOL0     H66550   9.553   6.608   4.517 -0.7530 -1.8966  1.7721
  493MOL0     H66551   9.850   6.663   4.476 -0.2987  1.2802 -0.0390
  493MOL0     H66552   9.746   6.755   4.593  1.6882 -2.3644  1.8128
  493MOL0     H66553   9.596   6.926   4.249 -0.3082  3.4583  2.2042
  493MOL0     H66554   9.574   6.094   4.590 -0.6060 -0.0583  0.3229
  493MOL0     H66555   9.427   5.908   4.607  3.2112  1.0083 -3.5945
  494MOL0     O66556  11.016   4.447   5.064  0.6946  0.2433 -0.7230
  494MOL0     C66557  10.911   4.413   5.007  0.7189  0.3645 -0.1502
  494MOL0     O66558  10.787   4.471   5.008  0.3787  0.3167 -0.0184
  494MOL0     C66559  10.741   4.584   5.073 -0.3054 -0.1617 -0.5131
  494MOL0     C66560  10.822   4.687   5.130  0.5138  0.5572 -0.0194
  494MOL0     C66561  10.775   4.801   5.195 -0.4329 -0.3455  0.2186
  494MOL0     C66562  10.639   4.809   5.214  0.6494 -0.1546 -1.0563
  494MOL0     O66563  10.581   4.922   5.271  0.2738 -0.0585  0.2163
  494MOL0     C66564  10.594   4.963   5.407  0.5343  0.7114  0.4739
  494MOL0     C66565  10.461   5.020   5.460  0.2699  0.3104  0.0070
  494MOL0     C66566  10.350   4.916   5.454  0.1135  0.2408 -0.1998
  494MOL0     C66567  10.227   4.964   5.539 -0.5404 -0.0417 -0.0197
  494MOL0     C66568  10.110   4.869   5.528 -0.3917  0.0227  0.2975
  494MOL0     C66569  10.031   4.895   5.404  0.0357  0.3551 -0.1639
  494MOL0     C66570   9.944   4.776   5.378 -0.4233  0.4341  0.0206
  494MOL0     C66571   9.885   4.781   5.240 -0.3604  0.1714 -0.6844
  494MOL0     N66572   9.982   4.761   5.124 -0.2841 -0.0456 -0.4860
  494MOL0     C66573  10.042   4.863   5.050 -0.4658 -0.1769 -0.1268
  494MOL0     C66574  10.152   4.810   4.987  0.3876  0.0712 -0.7842
  494MOL0     C66575  10.243   4.889   4.900 -0.1089  0.3326 -0.2606
  494MOL0     C66576  10.214   4.849   4.751  0.1217 -0.3375 -0.5597
  494MOL0     C66577  10.300   4.917   4.647  0.6604 -0.7995  0.2014
  494MOL0     C66578  10.247   4.941   4.507  0.6306 -0.4122  1.9265
  494MOL0     O66579  10.147   5.043   4.522  0.1052 -0.3172  0.2058
  494MOL0     C66580  10.171   5.169   4.464 -0.4984 -0.2644 -0.1664
  494MOL0     C66581  10.298   5.210   4.428  0.4002  0.5188  0.2170
  494MOL0     C66582  10.333   5.334   4.367 -0.7139  0.6001  0.9105
  494MOL0     C66583  10.487   5.363   4.349  0.3219 -0.3387 -0.1606
  494MOL0     C66584  10.224   5.425   4.345 -0.1519 -0.3692  0.5186
  494MOL0     C66585  10.235   5.548   4.265 -0.0324  0.0778  0.0378
  494MOL0     O66586  10.122   5.633   4.256 -0.1052 -0.2047 -0.5784
  494MOL0     C66587  10.142   5.765   4.214 -0.1935 -0.7893 -0.6019
  494MOL0     C66588  10.065   5.820   4.112  0.7876  0.7934  0.7049
  494MOL0     C66589  10.069   5.961   4.082  0.8055 -0.5314 -0.1745
  494MOL0     C66590  10.156   6.044   4.164  0.6673  0.9754  0.2655
  494MOL0     O66591  10.165   6.186   4.157 -0.6967 -0.3565  0.6975
  494MOL0     C66592  10.038   6.253   4.125  0.1586 -0.3704  0.1395
  494MOL0     C66593  10.042   6.397   4.176 -0.1796 -0.4009 -0.2063
  494MOL0     C66594  10.131   6.492   4.102  0.3249 -0.3771  0.2649
  494MOL0     C66595  10.124   6.633   4.168 -0.1508 -0.1486 -0.7534
  494MOL0     C66596  10.254   6.705   4.128 -0.0831  0.0884 -0.3198
  494MOL0     C66597  10.354   6.663   4.223 -0.5647 -0.1582  0.5563
  494MOL0     C66598  10.482   6.753   4.211  0.3396  1.0751  0.2544
  494MOL0     C66599  10.586   6.700   4.302  0.4242 -0.5333  0.0557
  494MOL0    Cl66600  10.706   6.830   4.296 -0.5310 -0.2819  0.1103
  494MOL0     C66601  10.236   5.983   4.258  0.4508 -0.4120 -0.2822
  494MOL0     C66602  10.226   5.849   4.288  0.0928  0.5124 -0.1257
  494MOL0     O66603  10.348   5.584   4.225 -0.5120  0.3586 -0.3938
  494MOL0     C66604  10.093   5.386   4.384 -0.0653 -0.0049  0.6161
  494MOL0     C66605  10.070   5.255   4.441 -0.7074 -0.6161 -0.4884
  494MOL0     N66606  10.150   4.676   5.026 -0.6075  0.2604 -0.0411
  494MOL0     N66607  10.049   4.651   5.108 -0.0797  0.3158  0.4186
  494MOL0     C66608  10.558   4.714   5.158 -0.1693 -0.6619 -0.1914
  494MOL0     C66609  10.603   4.603   5.088  0.2658  0.0920 -0.2928
  494MOL0     C66610  10.920   4.290   4.929  0.0682  0.0905 -0.1907
  494MOL0     C66611  11.046   4.220   4.924  1.0304  0.0652 -0.2123
  494MOL0     C66612  11.056   4.106   4.835  0.1746  0.3580  0.0221
  494MOL0     C66613  10.939   4.050   4.779 -1.0110  0.1389  0.6174
  494MOL0     O66614  10.958   3.947   4.686  0.8636 -0.9993 -0.6088
  494MOL0     C66615  11.027   3.958   4.550  0.4124 -0.1942 -0.3513
  494MOL0     C66616  10.960   4.044   4.453  0.4196 -0.1368  0.0826
  494MOL0     C66617  10.862   3.945   4.376 -0.2242 -0.9056  0.7555
  494MOL0     C66618  10.798   4.042   4.276 -1.1069 -0.7446  0.3008
  494MOL0     C66619  10.680   3.981   4.217 -0.0317  0.1152 -0.1967
  494MOL0     C66620  10.580   3.935   4.158 -0.0101  0.2487 -0.1492
  494MOL0     C66621  10.817   4.126   4.780  0.6199  0.2091 -0.3641
  494MOL0     C66622  10.812   4.247   4.844  0.2065 -0.2299  0.7215
  494MOL0     H66623  10.929   4.686   5.114  0.2752  0.3457 -1.8636
  494MOL0     H66624  10.845   4.873   5.236  2.0199 -1.8594 -1.0835
  494MOL0     H66625  10.610   4.875   5.470  0.8384 -0.2013 -0.8358
  494MOL0     H66626  10.678   5.032   5.422  0.2106  0.8808  1.6050
  494MOL0     H66627  10.475   5.057   5.561  2.3352  0.1435 -0.1713
  494MOL0     H66628  10.429   5.102   5.395  1.4861  0.7399 -0.0562
  494MOL0     H66629  10.336   4.903   5.346  2.4434  2.2008 -0.8325
  494MOL0     H66630  10.386   4.820   5.493 -0.7377  0.8352  2.1776
  494MOL0     H66631  10.268   4.959   5.641 -1.2438 -1.6521  0.2071
  494MOL0     H66632  10.203   5.067   5.510  2.5060  0.0968 -2.5859
  494MOL0     H66633  10.153   4.769   5.534  2.7931  1.0637 -2.2160
  494MOL0     H66634  10.048   4.896   5.615 -1.4941  3.0660 -1.2537
  494MOL0     H66635   9.961   4.978   5.416  2.1985  2.3494 -0.4371
  494MOL0     H66636  10.093   4.932   5.322  2.4684  2.1183  2.2933
  494MOL0     H66637   9.999   4.682   5.389 -0.1219 -0.1672 -4.4895
  494MOL0     H66638   9.860   4.781   5.447  2.9390 -1.6579  4.8027
  494MOL0     H66639   9.841   4.880   5.235  1.1285  1.0670  2.0758
  494MOL0     H66640   9.810   4.702   5.229  0.9595 -1.6772  2.1917
  494MOL0     H66641  10.007   4.966   5.055  1.8334  0.6392  0.6298
  494MOL0     H66642  10.228   4.997   4.911 -2.3680  0.1890 -1.3879
  494MOL0     H66643  10.347   4.862   4.919 -0.8281 -1.0346  2.2118
  494MOL0     H66644  10.111   4.880   4.730 -0.0741  0.6860  1.6069
  494MOL0     H66645  10.211   4.740   4.747  1.5831 -0.4174  0.0738
  494MOL0     H66646  10.385   4.849   4.637  1.5165 -0.2414  2.8252
  494MOL0     H66647  10.340   5.014   4.680 -0.7501 -0.9329  2.4968
  494MOL0     H66648  10.198   4.852   4.465 -0.8782  2.9113 -4.8221
  494MOL0     H66649  10.330   4.966   4.441 -0.0539 -0.7413  0.9137
  494MOL0     H66650  10.387   5.162   4.467  1.3557  1.0530 -1.2251
  494MOL0     H66651  10.505   5.403   4.248 -0.0935  1.8486  0.5794
  494MOL0     H66652  10.529   5.418   4.433 -1.4841 -1.4238  1.5267
  494MOL0     H66653  10.546   5.271   4.357  0.6464 -0.0038  1.5439
  494MOL0     H66654  10.002   5.763   4.044 -0.7145  3.0540  0.1016
  494MOL0     H66655  10.018   6.012   4.002  2.5926  1.1826 -0.2720
  494MOL0     H66656  10.007   6.238   4.021 -0.3440  0.1083  0.2143
  494MOL0     H66657   9.957   6.209   4.184 -0.4138  0.2213 -0.1784
  494MOL0     H66658   9.944   6.446   4.175  1.4417  3.2539  1.4537
  494MOL0     H66659  10.062   6.397   4.284 -0.0308 -3.7980 -0.1232
  494MOL0     H66660  10.104   6.497   3.996  2.2028  0.0930 -0.2290
  494MOL0     H66661  10.233   6.454   4.098  0.4589 -0.2951  2.0794
  494MOL0     H66662  10.045   6.690   4.119  1.4490  4.8289  1.7205
  494MOL0     H66663  10.106   6.619   4.276 -1.4818 -0.9073 -1.0472
  494MOL0     H66664  10.241   6.813   4.140  1.4971  0.4917 -1.7555
  494MOL0     H66665  10.287   6.695   4.024  0.9260  0.6115 -0.0689
  494MOL0     H66666  10.322   6.671   4.327 -0.1579  1.4631  0.5949
  494MOL0     H66667  10.383   6.560   4.200 -0.6904 -0.5733  2.1046
  494MOL0     H66668  10.457   6.857   4.232  0.1171  0.7535  1.6625
  494MOL0     H66669  10.513   6.763   4.106 -0.0500 -1.7492 -0.2310
  494MOL0     H66670  10.616   6.601   4.265  0.8192 -0.0859 -0.8560
  494MOL0     H66671  10.562   6.679   4.406 -1.3880 -6.1183 -1.1607
  494MOL0     H66672  10.311   6.048   4.302  0.0550  1.7126 -2.4955
  494MOL0     H66673  10.281   5.822   4.378  0.0599  0.0118 -0.2565
  494MOL0     H66674  10.001   5.441   4.370 -0.0565 -0.2101 -0.2806
  494MOL0     H66675   9.969   5.227   4.467 -1.3272 -0.7357 -2.8571
  494MOL0     H66676  10.451   4.731   5.155 -0.3504 -1.7419 -0.5335
  494MOL0     H66677  10.524   4.545   5.041 -2.1806  1.6729  1.6105
  494MOL0     H66678  11.137   4.267   4.961 -0.0904  2.4890 -0.3286
  494MOL0     H66679  11.150   4.055   4.813 -0.6457 -0.3825 -1.9114
  494MOL0     H66680  11.118   4.008   4.582 -0.1735  0.2331  0.6634
  494MOL0     H66681  11.047   3.854   4.519  3.1070 -0.4628  1.9373
  494MOL0     H66682  11.039   4.088   4.391  0.6685  4.0591  2.9308
  494MOL0     H66683  10.909   4.133   4.492  3.4127  2.8726 -2.2423
  494MOL0     H66684  10.786   3.911   4.447 -0.1286  1.7448  2.2313
  494MOL0     H66685  10.918   3.866   4.325 -1.0374 -2.3222  1.9830
  494MOL0     H66686  10.867   4.056   4.193  0.1553 -1.9038  1.1181
  494MOL0     H66687  10.770   4.140   4.316 -1.6497 -0.0135 -1.7477
  494MOL0     H66688  10.494   3.894   4.110  1.4971 -1.8174 -1.2514
  494MOL0     H66689  10.732   4.092   4.721 -0.8328  0.5322  1.4614
  494MOL0     H66690  10.722   4.308   4.844  0.5663  0.4414 -2.3903
  495MOL0     O66691   8.227   1.746   2.108  1.1697 -0.0122  0.1915
  495MOL0     C66692   8.244   1.667   2.196  0.5283 -0.3289  0.9248
  495MOL0     O66693   8.187   1.543   2.191  0.4217  0.5361  0.5940
  495MOL0     C66694   8.154   1.483   2.073  0.6865  0.3138 -0.4549
  495MOL0     C66695   8.217   1.504   1.955  0.1404  0.4237 -0.1708
  495MOL0     C66696   8.188   1.452   1.832 -0.0995  0.8013 -0.8535
  495MOL0     C66697   8.078   1.365   1.830  0.5745  0.0789  0.0953
  495MOL0     O66698   8.056   1.306   1.712  0.6475  0.0975  0.4147
  495MOL0     C66699   7.950   1.211   1.694  1.0325 -0.4953  0.1671
  495MOL0     C66700   7.972   1.161   1.562  0.0479  0.5910 -0.2094
  495MOL0     C66701   7.867   1.052   1.518 -0.5591 -0.2110 -0.3456
  495MOL0     C66702   7.918   0.952   1.417 -0.1914  0.0221 -0.2893
  495MOL0     C66703   7.800   0.877   1.362  0.0745 -0.2826  0.0851
  495MOL0     C66704   7.712   0.953   1.260  0.6970  0.0739  0.3634
  495MOL0     C66705   7.597   0.866   1.213  0.8479  0.2678  0.3813
  495MOL0     C66706   7.487   0.954   1.139 -0.4365  0.7739  0.5442
  495MOL0     N66707   7.349   0.927   1.187 -0.0992  0.4340  0.0193
  495MOL0     C66708   7.265   0.818   1.174 -0.2273  0.0318  0.2028
  495MOL0     C66709   7.141   0.856   1.228  0.1832  0.2954 -0.2730
  495MOL0     C66710   7.017   0.772   1.235  0.5806  1.3965  1.1614
  495MOL0     C66711   7.046   0.619   1.235 -0.4381 -0.1598 -0.1162
  495MOL0     C66712   7.041   0.553   1.378 -0.3519  0.5244  0.3925
  495MOL0     C66713   7.147   0.621   1.471 -0.5022 -0.4699  0.1325
  495MOL0     O66714   7.286   0.600   1.425  0.2172  0.3755 -0.2484
  495MOL0     C66715   7.379   0.639   1.523  0.1710 -0.5869  1.3210
  495MOL0     C66716   7.472   0.545   1.566  0.0772 -0.0853 -1.4894
  495MOL0     C66717   7.561   0.580   1.666  0.2274 -0.7718  0.6251
  495MOL0     C66718   7.657   0.481   1.715  0.1060  0.1041  0.2439
  495MOL0     C66719   7.553   0.708   1.719 -0.2115 -0.7057  0.4487
  495MOL0     C66720   7.639   0.759   1.835  0.2788  0.2340  0.5326
  495MOL0     O66721   7.713   0.878   1.818  0.6958 -0.4644  0.2171
  495MOL0     C66722   7.753   0.939   1.936  0.4044  0.2832  1.4500
  495MOL0     C66723   7.667   1.013   2.014 -0.5109  0.2060 -0.9231
  495MOL0     C66724   7.721   1.084   2.118 -0.1062  0.1104  0.1254
  495MOL0     C66725   7.854   1.069   2.153 -0.8072  0.1793 -0.9795
  495MOL0     O66726   7.895   1.138   2.264  0.2490 -0.0635 -0.6275
  495MOL0     C66727   8.032   1.134   2.316  1.1928 -0.2163 -0.3012
  495MOL0     C66728   8.036   1.265   2.407  0.8845  0.1020  1.7661
  495MOL0     C66729   8.123   1.223   2.524 -0.1831  0.2697 -0.3410
  495MOL0     C66730   8.162   1.348   2.607 -0.6504 -0.2246  0.3784
  495MOL0     C66731   8.256   1.313   2.718 -0.5063  0.9740 -0.3545
  495MOL0     C66732   8.291   1.432   2.816  0.1706 -0.7521 -0.4503
  495MOL0     C66733   8.432   1.419   2.874  0.1344  0.5393 -0.2529
  495MOL0     C66734   8.446   1.523   2.985  0.1260  0.0576 -0.1720
  495MOL0    Cl66735   8.594   1.464   3.062 -0.0007  0.1820 -0.1192
  495MOL0     C66736   7.937   0.987   2.074 -0.2761 -0.4623 -0.3609
  495MOL0     C66737   7.889   0.933   1.962 -0.4196  0.3153 -0.2397
  495MOL0     O66738   7.642   0.684   1.932 -0.7707 -0.6742  0.2697
  495MOL0     C66739   7.470   0.800   1.670  0.5527 -1.1026  0.2045
  495MOL0     C66740   7.379   0.765   1.577  0.4463 -1.1704  0.2494
  495MOL0     N66741   7.151   0.985   1.270 -1.1142  0.6507  0.6710
  495MOL0     N66742   7.277   1.026   1.256  0.5774  0.0652  1.1183
  495MOL0     C66743   7.997   1.349   1.948 -0.5946  0.4447 -1.0897
  495MOL0     C66744   8.033   1.414   2.067  1.1281 -0.8032 -0.2656
  495MOL0     C66745   8.304   1.709   2.325  0.6865 -0.7302 -0.3604
  495MOL0     C66746   8.352   1.611   2.421  0.2293  0.8241  0.3136
  495MOL0     C66747   8.409   1.662   2.539 -0.5271 -0.1480  0.5724
  495MOL0     C66748   8.408   1.798   2.567  0.5619 -0.3031  0.4850
  495MOL0     O66749   8.474   1.830   2.680  0.0871 -1.1043  0.2344
  495MOL0     C66750   8.506   1.972   2.702  0.0506  0.6581  0.6028
  495MOL0     C66751   8.582   1.993   2.837  0.2280  0.0367  0.7774
  495MOL0     C66752   8.510   1.927   2.960  0.5094 -0.7223  0.1130
  495MOL0     C66753   8.617   1.938   3.072  0.7680 -0.3949  0.5473
  495MOL0     C66754   8.714   1.831   3.067 -1.4038  0.0040  0.0444
  495MOL0     C66755   8.809   1.750   3.070  0.2601 -0.5468  0.1773
  495MOL0     C66756   8.341   1.890   2.486 -0.9221 -0.0645 -0.3058
  495MOL0     C66757   8.292   1.846   2.364  0.7071  0.8627  0.2850
  495MOL0     H66758   8.305   1.568   1.953  0.9736 -0.6196 -3.6704
  495MOL0     H66759   8.248   1.483   1.748 -1.7359  0.6696 -2.1186
  495MOL0     H66760   7.958   1.133   1.771 -1.5307  0.3800  1.4350
  495MOL0     H66761   7.850   1.255   1.703  1.1619  0.4447 -2.3751
  495MOL0     H66762   7.961   1.244   1.491  0.2494 -0.6796 -1.7792
  495MOL0     H66763   8.070   1.113   1.560 -0.5416 -0.6384 -1.8763
  495MOL0     H66764   7.843   0.988   1.603 -0.9142 -1.6787 -1.5222
  495MOL0     H66765   7.780   1.100   1.472  0.1317  2.2830  0.7890
  495MOL0     H66766   7.968   1.007   1.336  1.1753 -0.3595  0.2708
  495MOL0     H66767   8.000   0.888   1.452 -1.0229 -0.0994  1.4903
  495MOL0     H66768   7.848   0.792   1.312  1.1897  0.2702  0.2062
  495MOL0     H66769   7.736   0.854   1.448 -0.0867  2.6594  0.8572
  495MOL0     H66770   7.655   1.040   1.293 -2.4123  0.3122 -4.6711
  495MOL0     H66771   7.766   0.994   1.174  2.0272 -0.0082  1.1257
  495MOL0     H66772   7.633   0.791   1.142 -0.3930  1.4214 -1.5762
  495MOL0     H66773   7.561   0.819   1.305 -1.3755 -1.7571 -1.3875
  495MOL0     H66774   7.483   0.939   1.030  0.6719  0.4766  0.5345
  495MOL0     H66775   7.507   1.061   1.150 -1.3368  1.2007 -1.5135
  495MOL0     H66776   7.292   0.724   1.127  2.3604  0.8722 -0.1407
  495MOL0     H66777   6.946   0.806   1.311  1.4895 -0.4615  2.9413
  495MOL0     H66778   6.960   0.791   1.144  2.1190 -2.5168 -0.8569
  495MOL0     H66779   7.138   0.597   1.180 -0.0942  1.0229 -0.0338
  495MOL0     H66780   6.961   0.582   1.176  0.5422 -0.0780 -1.6217
  495MOL0     H66781   7.066   0.446   1.376  1.6261  0.8995  1.8432
  495MOL0     H66782   6.943   0.570   1.423  0.0481  0.3803  1.3281
  495MOL0     H66783   7.134   0.563   1.562 -0.2425 -1.9400 -0.7366
  495MOL0     H66784   7.130   0.728   1.485  0.5742 -0.0429 -1.4142
  495MOL0     H66785   7.460   0.446   1.524 -1.3506 -0.1824 -0.9075
  495MOL0     H66786   7.603   0.422   1.790  0.8148 -0.2518  0.4845
  495MOL0     H66787   7.688   0.410   1.638 -0.1222  0.3141 -0.0430
  495MOL0     H66788   7.749   0.521   1.757  0.3913  0.9841 -1.1804
  495MOL0     H66789   7.563   1.026   1.985 -0.6821  1.6560  0.2036
  495MOL0     H66790   7.651   1.132   2.186  0.1394 -2.4362  2.3467
  495MOL0     H66791   8.036   1.039   2.370  0.8952 -0.0123  0.0907
  495MOL0     H66792   8.096   1.141   2.228 -3.8015  0.9298 -4.3165
  495MOL0     H66793   8.083   1.356   2.369 -3.1551  2.0206  0.7895
  495MOL0     H66794   7.935   1.297   2.435 -0.6184 -3.0287  0.3768
  495MOL0     H66795   8.218   1.178   2.493 -0.4570 -0.4802 -0.1330
  495MOL0     H66796   8.071   1.146   2.583  2.7541  0.7231  3.2574
  495MOL0     H66797   8.205   1.414   2.531  0.2485  1.4839  2.2906
  495MOL0     H66798   8.076   1.395   2.655 -0.4287 -1.2413  1.8572
  495MOL0     H66799   8.351   1.293   2.669  0.4224  3.5168  0.2908
  495MOL0     H66800   8.226   1.224   2.775  1.6081 -0.6893 -1.6987
  495MOL0     H66801   8.272   1.523   2.759 -2.3354 -0.3582  0.8633
  495MOL0     H66802   8.216   1.449   2.894 -0.9068  1.0817 -1.8051
  495MOL0     H66803   8.512   1.444   2.803 -0.7554  4.6505 -0.0151
  495MOL0     H66804   8.449   1.322   2.923 -0.0514 -0.0927 -1.4084
  495MOL0     H66805   8.366   1.524   3.060  1.2419  1.0903  1.0604
  495MOL0     H66806   8.467   1.626   2.952 -0.1289 -0.1235 -0.9203
  495MOL0     H66807   8.040   0.973   2.106  0.5056  2.4807 -1.3360
  495MOL0     H66808   7.942   0.864   1.896 -1.2559  0.3106 -0.9275
  495MOL0     H66809   7.487   0.905   1.695  0.7703 -1.0842 -0.0224
  495MOL0     H66810   7.304   0.836   1.544 -1.4902 -3.0055  0.4846
  495MOL0     H66811   7.899   1.302   1.954 -2.2159  3.6997  1.2446
  495MOL0     H66812   7.976   1.411   2.160 -2.4934 -0.5863 -2.2864
  495MOL0     H66813   8.348   1.508   2.386 -2.3803  1.1541 -0.5562
  495MOL0     H66814   8.470   1.597   2.602  1.9637 -0.1860 -1.6955
  495MOL0     H66815   8.568   2.018   2.625  0.4852  0.8386  1.0532
  495MOL0     H66816   8.412   2.028   2.708 -0.2544  0.0994  1.2366
  495MOL0     H66817   8.587   2.102   2.841  0.9528  0.1097 -1.0579
  495MOL0     H66818   8.682   1.952   2.825  0.4105  0.7772 -0.4379
  495MOL0     H66819   8.479   1.825   2.935  0.9616 -0.7623 -0.2888
  495MOL0     H66820   8.420   1.986   2.980  1.4919  0.6324  0.6373
  495MOL0     H66821   8.561   1.939   3.166  0.8776  0.6791  0.6086
  495MOL0     H66822   8.665   2.036   3.065 -0.9385  0.3628 -2.9125
  495MOL0     H66823   8.889   1.679   3.067  0.3392 -0.4592 -2.6119
  495MOL0     H66824   8.354   1.994   2.514  0.2181 -0.1428 -0.4778
  495MOL0     H66825   8.263   1.911   2.282 -1.0581 -0.3158 -0.0898
  496MOL0     O66826   0.869   3.678   8.234 -0.1658 -0.0242  0.2832
  496MOL0     C66827   0.917   3.724   8.131 -0.8062 -1.1861  0.4668
  496MOL0     O66828   0.997   3.653   8.042  0.0729 -0.5755 -0.1048
  496MOL0     C66829   1.020   3.528   8.081 -0.6318  0.0887  1.1358
  496MOL0     C66830   1.151   3.501   8.123  0.7463 -0.8161 -0.0525
  496MOL0     C66831   1.183   3.385   8.187  0.0176 -0.0114  1.1532
  496MOL0     C66832   1.081   3.288   8.201  1.4714 -0.0749  0.5465
  496MOL0     O66833   1.090   3.171   8.264  0.2038 -0.5059 -0.0929
  496MOL0     C66834   1.204   3.089   8.233  1.3390  0.9478  0.0754
  496MOL0     C66835   1.249   3.002   8.349  0.7967  0.1119  0.4284
  496MOL0     C66836   1.372   2.928   8.317  0.3458 -0.6586  0.4722
  496MOL0     C66837   1.416   2.834   8.432  0.1498 -0.3572 -0.8836
  496MOL0     C66838   1.551   2.765   8.400 -0.2234 -0.0260  1.2991
  496MOL0     C66839   1.661   2.868   8.360  0.6290  0.4466 -0.5749
  496MOL0     C66840   1.792   2.804   8.320 -0.1381 -0.9477 -0.1595
  496MOL0     C66841   1.866   2.730   8.435 -0.5564  0.5819 -0.2849
  496MOL0     N66842   1.870   2.579   8.410  0.2560  0.3471  1.4264
  496MOL0     C66843   1.763   2.496   8.399 -0.6262  0.3058 -0.8920
  496MOL0     C66844   1.817   2.370   8.426 -0.8304 -0.0995 -0.3252
  496MOL0     C66845   1.741   2.245   8.425 -0.8703  1.3552 -0.3831
  496MOL0     C66846   1.624   2.257   8.322  0.7060  0.4618 -0.2607
  496MOL0     C66847   1.647   2.282   8.170 -0.7833 -0.3869  0.4243
  496MOL0     C66848   1.514   2.313   8.088 -0.3351  0.1064 -0.2498
  496MOL0     O66849   1.442   2.422   8.158 -0.0808  1.1852 -0.2273
  496MOL0     C66850   1.329   2.487   8.107 -0.2865 -0.3097 -1.7399
  496MOL0     C66851   1.297   2.492   7.967  0.7059 -0.5333 -0.3117
  496MOL0     C66852   1.190   2.571   7.922 -0.3516  0.7632 -0.0546
  496MOL0     C66853   1.162   2.561   7.772 -0.3571  1.1635  0.3959
  496MOL0     C66854   1.118   2.661   8.021 -0.1259 -0.9009  0.9480
  496MOL0     C66855   0.989   2.724   7.994 -0.3312  0.4498 -0.1016
  496MOL0     O66856   0.957   2.840   8.051  0.2393 -0.0535  0.7893
  496MOL0     C66857   0.843   2.903   8.001 -0.8727 -0.1651  0.5395
  496MOL0     C66858   0.824   2.927   7.863 -0.3997  0.4833  1.0519
  496MOL0     C66859   0.718   2.999   7.806  0.1673  0.7353  0.1085
  496MOL0     C66860   0.616   3.048   7.889 -0.2439  0.3147 -0.5463
  496MOL0     O66861   0.502   3.120   7.848  0.1487  0.0785  0.8592
  496MOL0     C66862   0.498   3.123   7.706 -0.1540  0.2975 -0.6027
  496MOL0     C66863   0.377   3.199   7.669 -0.3357 -0.3775  0.4276
  496MOL0     C66864   0.366   3.205   7.516  1.0543 -0.3629  0.5414
  496MOL0     C66865   0.281   3.317   7.462 -0.0668 -0.1573 -0.1044
  496MOL0     C66866   0.316   3.352   7.310  0.3154 -0.3565 -0.0949
  496MOL0     C66867   0.353   3.501   7.306  0.3724  1.0366 -0.1838
  496MOL0     C66868   0.387   3.535   7.162  0.0576 -1.2039  0.1165
  496MOL0     C66869   0.462   3.679   7.154 -0.0882  0.2709  0.9373
  496MOL0    Cl66870   0.624   3.663   7.200 -0.1800  0.1641 -0.7066
  496MOL0     C66871   0.637   3.034   8.020 -0.8089  0.1030  0.1973
  496MOL0     C66872   0.755   2.971   8.084  1.7729  0.0986 -0.7758
  496MOL0     O66873   0.918   2.657   7.923  0.4390  0.2633 -0.3699
  496MOL0     C66874   1.169   2.672   8.147 -0.5279  0.3619  0.2336
  496MOL0     C66875   1.265   2.573   8.195  1.3433 -1.3955  0.6575
  496MOL0     N66876   1.950   2.374   8.441 -0.6284  0.0831 -0.2977
  496MOL0     N66877   1.977   2.501   8.441 -0.6749 -0.3495 -0.0039
  496MOL0     C66878   0.954   3.310   8.146 -0.0255 -0.7872  0.0936
  496MOL0     C66879   0.928   3.432   8.087  0.4534  0.1886 -0.4509
  496MOL0     C66880   0.886   3.863   8.088  0.4338  0.6520 -0.3264
  496MOL0     C66881   0.997   3.931   8.041 -0.0771 -0.4295  0.3468
  496MOL0     C66882   0.974   4.058   7.989 -0.2999  0.2617  0.0826
  496MOL0     C66883   0.847   4.108   7.961 -0.7569 -0.3843 -0.0056
  496MOL0     O66884   0.835   4.230   7.896 -0.9630  0.3101 -0.0180
  496MOL0     C66885   0.786   4.340   7.966 -0.1831 -0.9247  0.3924
  496MOL0     C66886   0.758   4.456   7.882  0.3031  0.0402  0.4419
  496MOL0     C66887   0.888   4.514   7.831 -0.4037  1.4229  0.0665
  496MOL0     C66888   0.870   4.619   7.718 -0.2897  0.2459 -0.1447
  496MOL0     C66889   0.857   4.754   7.781  0.4841  0.1323  0.3872
  496MOL0     C66890   0.838   4.860   7.826  0.5334 -0.2922  0.1890
  496MOL0     C66891   0.736   4.041   8.015 -0.6041  0.8794  0.2475
  496MOL0     C66892   0.748   3.916   8.079 -0.4439 -0.1478  0.1865
  496MOL0     H66893   1.221   3.583   8.134  1.0901 -1.1675  0.4112
  496MOL0     H66894   1.286   3.379   8.219  0.1764  0.7690  0.8176
  496MOL0     H66895   1.183   3.025   8.147 -0.2289  1.2406  0.2010
  496MOL0     H66896   1.291   3.140   8.191  0.7381 -1.5504 -5.0481
  496MOL0     H66897   1.279   3.072   8.427 -1.1641  2.8331 -1.0659
  496MOL0     H66898   1.167   2.941   8.388 -1.4695  2.0522 -0.9893
  496MOL0     H66899   1.350   2.868   8.228 -3.5907  5.0748 -3.1087
  496MOL0     H66900   1.448   3.003   8.295 -0.9592  0.0649 -1.9069
  496MOL0     H66901   1.433   2.896   8.520 -0.8082 -1.3522  0.0364
  496MOL0     H66902   1.348   2.754   8.462 -0.2944  0.0362 -0.8165
  496MOL0     H66903   1.594   2.699   8.475  0.4411  2.0891  2.8761
  496MOL0     H66904   1.522   2.695   8.322  2.4738 -1.9835  1.9088
  496MOL0     H66905   1.631   2.940   8.283 -1.8025 -0.4817 -0.5958
  496MOL0     H66906   1.673   2.921   8.455  0.2210  2.1624 -1.4313
  496MOL0     H66907   1.789   2.745   8.228  1.5234 -1.4995  0.1114
  496MOL0     H66908   1.860   2.876   8.273 -1.6099 -0.4547 -1.6443
  496MOL0     H66909   1.825   2.762   8.532  3.1458  2.8248  0.7368
  496MOL0     H66910   1.967   2.767   8.451 -1.4119  2.0940  2.2418
  496MOL0     H66911   1.661   2.530   8.383 -0.8964 -0.6547 -1.3022
  496MOL0     H66912   1.790   2.152   8.393 -4.3875 -0.3340 -1.3878
  496MOL0     H66913   1.709   2.229   8.529 -1.5812 -0.0487 -0.7848
  496MOL0     H66914   1.544   2.319   8.365 -0.9501 -1.3565 -0.6208
  496MOL0     H66915   1.573   2.161   8.317 -0.1379  0.8789  0.1038
  496MOL0     H66916   1.688   2.192   8.122  0.0506  0.8084 -1.2300
  496MOL0     H66917   1.721   2.359   8.146  0.8098 -1.4267  1.8019
  496MOL0     H66918   1.450   2.224   8.088  1.2590 -1.1501  2.0096
  496MOL0     H66919   1.530   2.349   7.986 -0.5292 -1.8625 -1.0198
  496MOL0     H66920   1.369   2.443   7.902  4.5049  3.5852  0.3107
  496MOL0     H66921   1.180   2.664   7.738  1.8685  0.8671  0.5024
  496MOL0     H66922   1.226   2.495   7.713 -0.8159  1.7512 -0.8080
  496MOL0     H66923   1.059   2.540   7.744 -0.4582  3.1051 -0.8579
  496MOL0     H66924   0.915   2.901   7.809  0.6949  2.6779  1.6954
  496MOL0     H66925   0.743   3.019   7.702 -0.8894 -1.5661 -0.6652
  496MOL0     H66926   0.590   3.168   7.667  0.3550  1.8219  2.1224
  496MOL0     H66927   0.487   3.024   7.661  0.4413 -0.4490  0.8473
  496MOL0     H66928   0.289   3.151   7.713 -0.9487 -1.6710 -2.0543
  496MOL0     H66929   0.382   3.302   7.705 -2.3612 -0.5627  1.3808
  496MOL0     H66930   0.336   3.107   7.477  0.3964  0.0611 -0.0428
  496MOL0     H66931   0.461   3.227   7.466  0.0179 -3.0946 -3.0325
  496MOL0     H66932   0.174   3.298   7.460 -1.0281  4.3057  0.1902
  496MOL0     H66933   0.294   3.411   7.516 -0.9439 -1.5088  2.6299
  496MOL0     H66934   0.227   3.343   7.247  1.3310 -0.7670 -1.5269
  496MOL0     H66935   0.399   3.297   7.265  1.5904  0.6137  1.0115
  496MOL0     H66936   0.268   3.561   7.341 -0.3466 -1.5017  2.8162
  496MOL0     H66937   0.443   3.511   7.367  1.3821  0.7824 -1.5905
  496MOL0     H66938   0.299   3.544   7.099  2.1284 -0.3137 -2.8842
  496MOL0     H66939   0.450   3.461   7.111  0.0475 -0.5911 -0.7933
  496MOL0     H66940   0.424   3.771   7.200 -0.1250  1.3597 -1.1299
  496MOL0     H66941   0.453   3.701   7.047 -2.6461 -0.2066  0.9981
  496MOL0     H66942   0.554   3.058   8.085  0.1610 -0.3133  1.6581
  496MOL0     H66943   0.758   2.962   8.192  4.1801 -0.7602 -0.8545
  496MOL0     H66944   1.125   2.732   8.226  2.3160 -1.3867  3.4233
  496MOL0     H66945   1.279   2.574   8.302  4.5389  1.8397  0.3851
  496MOL0     H66946   0.885   3.227   8.137 -2.6734  1.5010 -4.3691
  496MOL0     H66947   0.832   3.468   8.051  1.7662  2.8578 -1.6029
  496MOL0     H66948   1.100   3.903   8.062  0.1239  0.9919  1.3832
  496MOL0     H66949   1.054   4.121   7.951 -0.1449  0.4854  0.7586
  496MOL0     H66950   0.688   4.303   7.997 -0.6002  0.1660  0.4291
  496MOL0     H66951   0.848   4.362   8.053  1.0097 -0.8104 -0.4657
  496MOL0     H66952   0.710   4.536   7.939  1.9122  1.8785 -0.6249
  496MOL0     H66953   0.694   4.419   7.801 -0.2830  0.2867  0.7780
  496MOL0     H66954   0.952   4.435   7.790 -1.3060  1.6554 -1.9114
  496MOL0     H66955   0.949   4.557   7.911  1.2171 -0.0581 -0.3178
  496MOL0     H66956   0.777   4.601   7.665  0.0223 -0.9357 -0.3215
  496MOL0     H66957   0.959   4.616   7.655 -0.0910 -2.9570  0.1133
  496MOL0     H66958   0.823   4.962   7.856  1.1887  0.0468 -0.6053
  496MOL0     H66959   0.639   4.088   8.002 -1.3583 -0.3135  1.3876
  496MOL0     H66960   0.660   3.871   8.124  0.8657 -0.7093  2.2902
  497MOL0     O66961   8.029   7.082   4.795 -0.1033  0.3569  0.3124
  497MOL0     C66962   8.078   7.047   4.905 -0.6842 -0.5749 -0.2942
  497MOL0     O66963   8.059   7.114   5.022 -0.2040  0.0216 -0.4951
  497MOL0     C66964   8.023   7.246   5.026  0.6968  0.3207  0.5868
  497MOL0     C66965   7.903   7.275   5.085  0.3442 -0.8937 -0.2194
  497MOL0     C66966   7.849   7.406   5.095  0.3428 -0.2221 -0.0495
  497MOL0     C66967   7.916   7.508   5.038  1.3140 -0.4448  0.6346
  497MOL0     O66968   7.860   7.634   5.045  0.1502  0.6027 -0.2032
  497MOL0     C66969   7.952   7.734   5.080 -0.4459 -0.9410  0.0559
  497MOL0     C66970   7.879   7.876   5.107 -0.1714 -0.7184  0.2159
  497MOL0     C66971   7.823   7.860   5.253 -0.7539 -0.0221  0.1267
  497MOL0     C66972   7.735   7.980   5.290 -0.2557 -0.1660  0.6583
  497MOL0     C66973   7.662   7.965   5.420 -0.3927 -0.4012 -0.3199
  497MOL0     C66974   7.578   8.092   5.446  0.3988  0.5777  0.1253
  497MOL0     C66975   7.506   8.087   5.578 -0.3166 -0.0892 -1.0423
  497MOL0     C66976   7.397   8.188   5.592 -1.3903 -0.1097  1.2834
  497MOL0     N66977   7.332   8.183   5.722  0.0891  0.2360 -0.5116
  497MOL0     C66978   7.261   8.295   5.770  0.1438 -0.3157  0.3800
  497MOL0     C66979   7.229   8.271   5.905 -0.4860 -0.4868  0.2390
  497MOL0     C66980   7.149   8.375   5.993 -0.6392 -0.3573 -0.0794
  497MOL0     C66981   7.249   8.480   6.056  0.1497  0.6946 -0.0903
  497MOL0     C66982   7.256   8.452   6.213 -0.1169 -0.1531 -1.1263
  497MOL0     C66983   7.284   8.312   6.258 -0.4242  0.0228  0.4229
  497MOL0     O66984   7.325   8.288   6.393  0.2079  0.1368 -0.3650
  497MOL0     C66985   7.444   8.333   6.435 -0.0425 -0.0194  0.2213
  497MOL0     C66986   7.459   8.321   6.567  0.2264 -0.0858  0.9038
  497MOL0     C66987   7.582   8.362   6.624  0.2033  0.3270 -0.4703
  497MOL0     C66988   7.587   8.358   6.778  0.0653  0.6234 -0.0063
  497MOL0     C66989   7.690   8.405   6.548  0.9632 -0.3015  0.1721
  497MOL0     C66990   7.829   8.435   6.599  0.4912 -0.8655  0.0237
  497MOL0     O66991   7.885   8.393   6.719 -0.4737 -0.3432 -0.1685
  497MOL0     C66992   8.016   8.387   6.748 -0.2202  0.6009 -0.5155
  497MOL0     C66993   8.048   8.393   6.881 -0.6152  0.0558 -1.6809
  497MOL0     C66994   8.181   8.381   6.921 -0.1927 -0.7646 -0.1203
  497MOL0     C66995   8.282   8.360   6.824  0.0391 -0.5041 -0.1911
  497MOL0     O66996   8.406   8.347   6.867  0.3170  0.7055 -0.5174
  497MOL0     C66997   8.450   8.216   6.907  0.7712 -0.5494  0.2738
  497MOL0     C66998   8.417   8.185   7.052 -0.0458 -0.5915  0.7512
  497MOL0     C66999   8.467   8.295   7.142  0.6357  0.7381 -0.1382
  497MOL0     C67000   8.411   8.296   7.282 -0.0726  0.0181  0.0223
  497MOL0     C67001   8.452   8.434   7.346 -0.6696  0.7706  0.3269
  497MOL0     C67002   8.395   8.444   7.482 -0.3197 -0.4599  0.3705
  497MOL0     C67003   8.478   8.539   7.567 -0.2040 -0.7787  1.3808
  497MOL0     C67004   8.385   8.556   7.689 -0.7780 -0.8394 -0.0417
  497MOL0    Cl67005   8.486   8.599   7.833 -0.7966  0.2179 -0.2975
  497MOL0     C67006   8.251   8.346   6.692 -0.1862 -0.4835  0.2465
  497MOL0     C67007   8.126   8.372   6.655 -0.1079 -0.1555 -0.1363
  497MOL0     O67008   7.891   8.484   6.517  0.2448 -0.7338 -0.5583
  497MOL0     C67009   7.669   8.408   6.409 -0.2943  0.4267  0.1055
  497MOL0     C67010   7.549   8.372   6.348 -0.0438 -0.0630 -0.8435
  497MOL0     N67011   7.290   8.141   5.934  0.3156  0.2879  0.4756
  497MOL0     N67012   7.343   8.094   5.823  0.6690  0.5904  0.4510
  497MOL0     C67013   8.045   7.487   4.974  1.0271  0.5297 -0.1125
  497MOL0     C67014   8.094   7.352   4.963  0.5493  0.3676 -0.3835
  497MOL0     C67015   8.175   6.930   4.895 -0.1657 -1.0635 -0.5671
  497MOL0     C67016   8.207   6.875   4.772 -0.2338 -0.4469 -0.1432
  497MOL0     C67017   8.278   6.757   4.757 -0.7559  1.1067  0.6708
  497MOL0     C67018   8.346   6.711   4.870 -0.4761 -0.1268 -0.8471
  497MOL0     O67019   8.439   6.606   4.860 -0.0150 -0.0188 -0.5685
  497MOL0     C67020   8.428   6.501   4.962  0.8433 -1.4651  0.0105
  497MOL0     C67021   8.446   6.366   4.913 -0.7465  0.8388 -0.2775
  497MOL0     C67022   8.356   6.326   4.792 -0.6383 -0.5107  0.2882
  497MOL0     C67023   8.396   6.376   4.655 -0.6065  0.0038  0.1585
  497MOL0     C67024   8.330   6.313   4.542 -0.8558  0.5153  0.2625
  497MOL0     C67025   8.267   6.255   4.458  0.1411  0.7966  1.0353
  497MOL0     C67026   8.334   6.781   4.992 -0.4661  0.9155 -0.3409
  497MOL0     C67027   8.240   6.880   5.010  0.1744  0.1862 -0.1970
  497MOL0     H67028   7.831   7.197   5.107 -1.8863  1.0454 -0.2540
  497MOL0     H67029   7.756   7.429   5.145  0.1028 -2.2354  0.5079
  497MOL0     H67030   7.997   7.707   5.176 -1.6074  4.3562  2.4833
  497MOL0     H67031   8.029   7.739   5.002  0.0071 -2.3393  0.3777
  497MOL0     H67032   7.962   7.947   5.102  1.2345 -2.2258  0.8660
  497MOL0     H67033   7.800   7.901   5.036  3.0095  1.9305 -2.7707
  497MOL0     H67034   7.782   7.758   5.257  1.2187 -0.8383  1.3699
  497MOL0     H67035   7.903   7.859   5.327 -0.2355 -2.6737 -0.3457
  497MOL0     H67036   7.802   8.066   5.292 -0.1156 -0.2830  1.3071
  497MOL0     H67037   7.663   7.993   5.208 -0.3888 -1.2794  0.5797
  497MOL0     H67038   7.593   7.882   5.406 -0.8354  0.2555 -2.3016
  497MOL0     H67039   7.740   7.963   5.498 -1.5053  2.1335  0.9919
  497MOL0     H67040   7.642   8.180   5.431  1.2651  0.4713  2.6452
  497MOL0     H67041   7.501   8.096   5.369 -3.1509  1.0804  3.3756
  497MOL0     H67042   7.468   7.986   5.598  1.0885 -0.2356  1.3751
  497MOL0     H67043   7.571   8.097   5.666 -1.9392  1.2277  0.0672
  497MOL0     H67044   7.319   8.174   5.518 -2.0388 -1.0542  2.1194
  497MOL0     H67045   7.440   8.288   5.579 -0.1628 -0.8563 -0.8763
  497MOL0     H67046   7.221   8.380   5.714 -0.0051  0.4878  1.6611
  497MOL0     H67047   7.085   8.429   5.922 -1.3586  0.7088  1.3285
  497MOL0     H67048   7.086   8.322   6.066  0.2475 -0.7381  0.4184
  497MOL0     H67049   7.215   8.580   6.031 -0.9421  0.3649  0.0217
  497MOL0     H67050   7.353   8.470   6.023 -0.0569 -1.7231 -0.2330
  497MOL0     H67051   7.164   8.492   6.257 -0.8967 -3.6159  0.7389
  497MOL0     H67052   7.336   8.514   6.253  1.1845 -2.0321 -0.7253
  497MOL0     H67053   7.348   8.267   6.181 -1.0999  1.9543 -1.3756
  497MOL0     H67054   7.196   8.250   6.240 -2.7432  2.6779  1.8980
  497MOL0     H67055   7.393   8.261   6.628 -0.1772  2.8564  3.6778
  497MOL0     H67056   7.493   8.319   6.817  1.7615 -2.2069  1.5396
  497MOL0     H67057   7.663   8.285   6.807 -0.9020 -0.4167 -0.0246
  497MOL0     H67058   7.612   8.455   6.823 -2.1243  1.9266 -1.3976
  497MOL0     H67059   7.965   8.425   6.943  0.8791 -0.1964  0.5373
  497MOL0     H67060   8.214   8.403   7.022 -0.6231  0.1157 -0.1633
  497MOL0     H67061   8.399   8.140   6.846 -3.0228  1.2824  0.8345
  497MOL0     H67062   8.558   8.224   6.896  0.9783 -0.9056  1.8160
  497MOL0     H67063   8.308   8.172   7.054  0.1776 -3.4907 -0.2422
  497MOL0     H67064   8.453   8.083   7.072  2.6243 -0.5261 -2.7267
  497MOL0     H67065   8.446   8.391   7.092 -1.2218 -1.0253 -3.0996
  497MOL0     H67066   8.576   8.298   7.129  0.6684 -1.7426 -0.8508
  497MOL0     H67067   8.302   8.301   7.281 -0.0519  2.3127 -1.9251
  497MOL0     H67068   8.456   8.207   7.327 -1.0053  0.0548  1.0370
  497MOL0     H67069   8.411   8.513   7.282  0.2061 -0.3994 -1.8058
  497MOL0     H67070   8.560   8.448   7.348 -0.4338  0.0605 -2.4950
  497MOL0     H67071   8.295   8.487   7.475  0.1294  0.7749  1.0101
  497MOL0     H67072   8.390   8.345   7.528  1.0213 -0.2884  0.9320
  497MOL0     H67073   8.489   8.633   7.512  1.4516 -2.5626 -1.6405
  497MOL0     H67074   8.565   8.479   7.596 -1.6428 -0.9612  6.0473
  497MOL0     H67075   8.330   8.463   7.707 -0.7286 -1.4888 -2.7992
  497MOL0     H67076   8.306   8.628   7.664  0.0456 -0.3959 -1.4776
  497MOL0     H67077   8.322   8.330   6.612 -2.1217  1.7249 -2.1151
  497MOL0     H67078   8.111   8.354   6.549 -0.5580 -2.7098  0.2960
  497MOL0     H67079   7.751   8.424   6.340  0.5258 -1.2530  0.6366
  497MOL0     H67080   7.537   8.382   6.241  2.3124 -0.4897 -1.2048
  497MOL0     H67081   8.120   7.557   4.939 -0.1465  0.7348 -2.4493
  497MOL0     H67082   8.193   7.329   4.923  0.1694 -0.4611 -0.8595
  497MOL0     H67083   8.159   6.903   4.679  0.7735 -2.6243 -1.4056
  497MOL0     H67084   8.280   6.691   4.672 -4.0147  1.1643  0.3943
  497MOL0     H67085   8.502   6.523   5.040 -0.7065  5.0697  0.2589
  497MOL0     H67086   8.331   6.517   5.010  0.1201  0.7186 -2.0035
  497MOL0     H67087   8.427   6.292   4.991  2.4785 -0.5555 -0.6467
  497MOL0     H67088   8.551   6.353   4.885 -0.7342  1.4892 -0.5531
  497MOL0     H67089   8.251   6.348   4.811 -0.4513 -0.2685  1.0956
  497MOL0     H67090   8.370   6.218   4.800  2.6270 -0.3500 -1.4105
  497MOL0     H67091   8.505   6.363   4.655 -0.4539  1.0748  1.0908
  497MOL0     H67092   8.382   6.484   4.657  0.2295  0.1814  3.6675
  497MOL0     H67093   8.197   6.195   4.403 -1.2890  0.4115  3.1452
  497MOL0     H67094   8.379   6.735   5.080  0.2154  1.4392 -0.4113
  497MOL0     H67095   8.216   6.927   5.104  2.4043  1.3119 -0.1270
  498MOL0     O67096  10.430   1.917   0.348  0.0023 -0.1612 -0.3314
  498MOL0     C67097  10.453   1.944   0.467 -0.7813 -0.8861 -0.0003
  498MOL0     O67098  10.369   1.923   0.568  0.5760 -0.3713 -0.7984
  498MOL0     C67099  10.232   1.940   0.552  0.1719  0.0439  0.4714
  498MOL0     C67100  10.136   1.877   0.638  0.3956  0.4061  1.3943
  498MOL0     C67101   9.995   1.898   0.621  0.0485 -0.4520 -0.2863
  498MOL0     C67102   9.940   1.963   0.515  0.8328 -0.9677 -0.7921
  498MOL0     O67103   9.810   1.982   0.488  0.4592 -0.6334 -0.2315
  498MOL0     C67104   9.710   1.941   0.577 -0.1288 -0.5779 -0.6016
  498MOL0     C67105   9.695   2.029   0.702 -0.9500 -0.7286  0.3238
  498MOL0     C67106   9.620   1.951   0.821 -0.7984  0.4914 -0.5051
  498MOL0     C67107   9.661   2.022   0.960 -0.0251  0.3460  0.1984
  498MOL0     C67108   9.582   1.957   1.076 -0.1382 -0.7994  0.7264
  498MOL0     C67109   9.431   1.973   1.060  0.0079  0.4491  0.3604
  498MOL0     C67110   9.351   1.918   1.180  0.8541  0.4836  0.2858
  498MOL0     C67111   9.320   2.017   1.297  1.1670 -0.0223  0.9865
  498MOL0     N67112   9.214   1.956   1.381 -0.3852 -0.5869  0.7902
  498MOL0     C67113   9.093   1.909   1.340 -0.9501 -0.4532 -0.0101
  498MOL0     C67114   9.044   1.853   1.450  0.6313 -1.2843 -0.4413
  498MOL0     C67115   8.905   1.773   1.446 -0.1001 -0.6740 -0.3473
  498MOL0     C67116   8.921   1.630   1.479 -0.4559  0.7731  0.2006
  498MOL0     C67117   8.993   1.547   1.373  0.6253 -0.4555 -0.9275
  498MOL0     C67118   9.146   1.541   1.392 -0.1310 -0.1036  0.7023
  498MOL0     O67119   9.208   1.419   1.367 -1.0331 -0.2038 -1.1263
  498MOL0     C67120   9.349   1.426   1.361 -0.3188 -0.0777  0.2596
  498MOL0     C67121   9.433   1.537   1.403  0.8622  0.0819  0.2632
  498MOL0     C67122   9.573   1.535   1.378 -0.2358 -0.1508  0.0984
  498MOL0     C67123   9.650   1.649   1.429 -0.4953 -0.0770 -0.5565
  498MOL0     C67124   9.625   1.416   1.328  0.1180  0.6231  0.5182
  498MOL0     C67125   9.765   1.392   1.285  0.7873 -0.7490  0.0665
  498MOL0     O67126   9.802   1.264   1.270 -0.7006 -0.0878  0.1621
  498MOL0     C67127   9.927   1.237   1.218  0.5402 -0.1819 -0.1549
  498MOL0     C67128   9.938   1.166   1.102 -0.1498  0.2634  1.0794
  498MOL0     C67129  10.068   1.151   1.043 -0.3430 -0.3976  0.8176
  498MOL0     C67130  10.179   1.205   1.109  0.0006  0.8630 -0.3004
  498MOL0     O67131  10.299   1.195   1.048 -0.3143 -0.6308  0.6111
  498MOL0     C67132  10.322   1.133   0.924  0.1025 -0.5112 -0.6322
  498MOL0     C67133  10.343   0.983   0.942 -0.5382 -0.9189  0.4546
  498MOL0     C67134  10.388   0.915   0.816  0.5842  0.9188 -0.4766
  498MOL0     C67135  10.487   0.802   0.837  0.3873  0.5331  0.5356
  498MOL0     C67136  10.582   0.750   0.723 -0.9141 -0.0337  0.2802
  498MOL0     C67137  10.686   0.866   0.680  0.3619  1.0099  0.0668
  498MOL0     C67138  10.797   0.802   0.596  0.6663 -0.2980 -0.1532
  498MOL0     C67139  10.884   0.918   0.539  0.0089  0.2072 -0.4396
  498MOL0    Cl67140  10.800   1.044   0.428 -0.5846  0.4081  0.1269
  498MOL0     C67141  10.170   1.265   1.242 -0.3304  0.5399  0.5611
  498MOL0     C67142  10.042   1.277   1.297 -0.0329  0.1809  0.5797
  498MOL0     O67143   9.830   1.496   1.264 -0.5800 -0.2063  0.2379
  498MOL0     C67144   9.536   1.309   1.291 -0.7580  0.7005 -0.4053
  498MOL0     C67145   9.405   1.310   1.301 -1.1828 -0.0905 -0.8421
  498MOL0     N67146   9.128   1.854   1.553 -0.7006 -0.5373  0.6159
  498MOL0     N67147   9.227   1.921   1.509  0.0489 -0.3431  0.4322
  498MOL0     C67148  10.026   2.026   0.429 -0.1875 -0.4974  0.4884
  498MOL0     C67149  10.168   2.017   0.446  0.1541  0.2167 -1.3916
  498MOL0     C67150  10.593   1.988   0.502 -0.0572  0.3852 -0.2984
  498MOL0     C67151  10.604   2.009   0.643 -0.1300  0.0327 -0.3441
  498MOL0     C67152  10.733   2.034   0.692 -0.6029 -0.3668  0.6768
  498MOL0     C67153  10.843   2.024   0.618 -0.4069  0.0086  0.8664
  498MOL0     O67154  10.965   2.056   0.676  0.4008 -0.5200  0.0507
  498MOL0     C67155  11.003   2.018   0.812  0.0518  0.4338  1.5552
  498MOL0     C67156  11.151   1.987   0.811 -0.4139 -0.4416 -0.9280
  498MOL0     C67157  11.192   1.864   0.725 -0.1430 -1.1144  0.9889
  498MOL0     C67158  11.233   1.908   0.577  0.7502 -0.3725 -0.3312
  498MOL0     C67159  11.320   1.811   0.526  0.6089  0.6803 -0.2806
  498MOL0     C67160  11.384   1.722   0.477 -0.2209  0.1575  0.9644
  498MOL0     C67161  10.832   2.003   0.476 -0.3764  0.6725  0.9074
  498MOL0     C67162  10.704   1.981   0.422  0.3508 -0.4840  0.2613
  498MOL0     H67163  10.171   1.807   0.713 -1.5512 -1.5990  0.5285
  498MOL0     H67164   9.930   1.836   0.682  0.4211 -0.8654 -0.3014
  498MOL0     H67165   9.614   1.931   0.525  0.9424 -1.6304 -2.4561
  498MOL0     H67166   9.735   1.846   0.626 -0.6751 -1.8582 -2.6809
  498MOL0     H67167   9.798   2.052   0.731 -0.8780  0.6009 -0.8869
  498MOL0     H67168   9.635   2.114   0.668 -2.1980 -1.5208  0.4657
  498MOL0     H67169   9.515   1.951   0.793 -1.3172 -1.1344  1.2130
  498MOL0     H67170   9.652   1.847   0.833  1.9760  0.9486 -2.7944
  498MOL0     H67171   9.765   1.992   0.972 -0.1051 -0.3296 -0.6597
  498MOL0     H67172   9.648   2.130   0.961 -0.8765  0.2640  1.7812
  498MOL0     H67173   9.613   1.853   1.068  3.3784  0.2357 -1.0984
  498MOL0     H67174   9.613   2.009   1.168  2.6753 -2.6930  0.9797
  498MOL0     H67175   9.402   2.078   1.050  1.9767  0.9669 -0.4107
  498MOL0     H67176   9.407   1.917   0.969 -2.5953  0.0514  1.2231
  498MOL0     H67177   9.254   1.881   1.144  1.5572 -1.3347  0.1629
  498MOL0     H67178   9.411   1.833   1.213 -0.4806  0.1665  2.0805
  498MOL0     H67179   9.293   2.111   1.248  0.6035 -0.5862  0.1871
  498MOL0     H67180   9.407   2.041   1.359  0.9043  0.9899  0.9772
  498MOL0     H67181   9.050   1.913   1.241  1.8979 -1.5081 -1.4220
  498MOL0     H67182   8.843   1.816   1.526  2.9738  0.5725  1.5143
  498MOL0     H67183   8.848   1.797   1.355 -0.8374  0.0867  0.2866
  498MOL0     H67184   8.826   1.578   1.495  1.7933 -2.5782  5.0502
  498MOL0     H67185   8.981   1.629   1.570  2.6210  1.8373 -1.6973
  498MOL0     H67186   8.956   1.592   1.280 -1.9180  0.7466  0.5488
  498MOL0     H67187   8.957   1.444   1.387 -0.1738  0.0753  1.3220
  498MOL0     H67188   9.175   1.563   1.496 -3.2115 -0.5282  1.7497
  498MOL0     H67189   9.198   1.614   1.330  2.6218 -0.2384  2.6479
  498MOL0     H67190   9.387   1.628   1.441  1.1143  0.7661 -1.0153
  498MOL0     H67191   9.665   1.734   1.362 -0.7491  1.5794  1.3765
  498MOL0     H67192   9.610   1.701   1.517  0.3690 -1.2869  0.6018
  498MOL0     H67193   9.749   1.624   1.470 -0.7241  1.5939  1.1790
  498MOL0     H67194   9.858   1.121   1.044 -0.7250 -0.4083  2.3517
  498MOL0     H67195  10.081   1.111   0.943  2.7591  3.7935 -0.7797
  498MOL0     H67196  10.240   1.140   0.852 -0.0873 -0.9892 -0.4587
  498MOL0     H67197  10.412   1.174   0.876  0.7275 -2.7773 -1.5143
  498MOL0     H67198  10.408   0.970   1.030  2.5696  2.2260 -1.1577
  498MOL0     H67199  10.249   0.933   0.970 -1.0584 -0.3040 -0.1797
  498MOL0     H67200  10.428   0.992   0.749  1.1625  2.1364  1.2053
  498MOL0     H67201  10.300   0.877   0.764  1.1596  0.0389 -0.8226
  498MOL0     H67202  10.550   0.829   0.922  1.9806  1.3479 -0.8398
  498MOL0     H67203  10.421   0.728   0.883 -2.7421  2.7285 -0.0584
  498MOL0     H67204  10.536   0.720   0.629 -2.6980  3.2049 -0.0582
  498MOL0     H67205  10.640   0.665   0.761  1.2155  1.2923  0.1830
  498MOL0     H67206  10.637   0.945   0.622 -1.9345 -0.1563  0.2974
  498MOL0     H67207  10.725   0.909   0.772  2.0754 -3.0725  1.4914
  498MOL0     H67208  10.731   0.769   0.515  0.9013  0.0814 -0.4989
  498MOL0     H67209  10.852   0.715   0.635 -0.7284 -0.9334  0.4494
  498MOL0     H67210  10.954   0.866   0.473 -2.4947 -3.3467 -0.5355
  498MOL0     H67211  10.935   0.959   0.627  1.9780 -3.0237  0.0638
  498MOL0     H67212  10.265   1.288   1.288 -0.7268 -0.5753  2.0006
  498MOL0     H67213  10.016   1.314   1.396  0.1639 -0.2319  0.7874
  498MOL0     H67214   9.583   1.219   1.252 -0.9035  0.4889 -0.0987
  498MOL0     H67215   9.365   1.211   1.283  1.9714 -1.5437 -0.5912
  498MOL0     H67216   9.984   2.094   0.356  0.9986 -2.1068 -1.8167
  498MOL0     H67217  10.242   2.045   0.372  2.8330 -1.9764  0.2583
  498MOL0     H67218  10.520   2.008   0.712 -1.1201  1.5657 -1.4421
  498MOL0     H67219  10.728   2.057   0.798  1.2261 -0.4835  0.8147
  498MOL0     H67220  10.987   2.094   0.888  1.0275  1.9438  0.3130
  498MOL0     H67221  10.931   1.937   0.829 -1.0449  1.2818  1.1322
  498MOL0     H67222  11.166   1.951   0.913  0.1612  1.9852 -0.0996
  498MOL0     H67223  11.217   2.074   0.808 -0.5217 -0.2928  0.2594
  498MOL0     H67224  11.121   1.781   0.726 -0.5251 -0.8121  0.1079
  498MOL0     H67225  11.289   1.826   0.759  0.5434 -0.3952 -0.1029
  498MOL0     H67226  11.274   2.009   0.569  0.9673 -0.2961  1.4580
  498MOL0     H67227  11.140   1.917   0.518 -0.3790  0.4780  1.4759
  498MOL0     H67228  11.420   1.636   0.424 -1.4660 -1.0440  1.9752
  498MOL0     H67229  10.914   2.033   0.412 -2.4587  3.4102 -0.7258
  498MOL0     H67230  10.710   1.977   0.313  2.8054  0.5852  0.2842
  499MOL0     O67231   5.754   1.097   6.064  0.5433 -0.6970  0.0572
  499MOL0     C67232   5.737   0.981   6.088  0.0348 -0.1139 -0.2868
  499MOL0     O67233   5.718   0.880   5.999 -0.2154 -0.1324  0.6254
  499MOL0     C67234   5.704   0.906   5.858  0.1968  0.3427  0.3907
  499MOL0     C67235   5.727   0.802   5.764  0.8099  0.5083 -0.1843
  499MOL0     C67236   5.710   0.820   5.625 -0.3031 -0.2188  0.1556
  499MOL0     C67237   5.693   0.948   5.573 -0.3383 -0.4871  0.0705
  499MOL0     O67238   5.687   0.944   5.433 -0.5147  0.5265  0.5581
  499MOL0     C67239   5.770   1.037   5.358 -0.3229  0.1283 -0.2984
  499MOL0     C67240   5.778   0.998   5.209  0.3848 -0.4639  0.1365
  499MOL0     C67241   5.649   1.001   5.121  0.4156  0.8717  0.0628
  499MOL0     C67242   5.685   1.012   4.971  0.3583 -0.0046  0.7648
  499MOL0     C67243   5.566   1.013   4.879 -0.4664 -0.3782  0.1619
  499MOL0     C67244   5.618   0.979   4.736  0.4466  0.4762  0.3275
  499MOL0     C67245   5.636   0.834   4.710  0.1568  0.0085  0.8727
  499MOL0     C67246   5.640   0.796   4.562 -0.4341 -0.8158  0.5490
  499MOL0     N67247   5.517   0.732   4.516  0.6787 -0.1870 -0.4054
  499MOL0     C67248   5.392   0.801   4.498 -0.0282  0.8890 -0.1782
  499MOL0     C67249   5.316   0.706   4.447  0.7691 -0.9059  0.6736
  499MOL0     C67250   5.170   0.727   4.394 -0.5788 -0.2338 -0.9775
  499MOL0     C67251   5.113   0.602   4.309  0.3105 -0.2744 -0.3529
  499MOL0     C67252   4.968   0.622   4.283  0.8682  0.0288  0.3427
  499MOL0     C67253   4.896   0.492   4.225  0.5897  0.0994  0.0626
  499MOL0     O67254   4.962   0.443   4.097  0.1615 -0.2500 -1.1867
  499MOL0     C67255   4.880   0.344   4.044 -0.4414  1.6948  0.1656
  499MOL0     C67256   4.883   0.327   3.904 -0.2156  0.6788 -0.0182
  499MOL0     C67257   4.827   0.223   3.835  0.6445 -0.0065 -0.8744
  499MOL0     C67258   4.803   0.250   3.683 -0.3477 -0.8796 -0.0543
  499MOL0     C67259   4.767   0.111   3.909 -0.0130 -0.5033  0.3077
  499MOL0     C67260   4.722  -0.012   3.849  0.2122  0.4651 -0.5938
  499MOL0     O67261   4.609  -0.058   3.909  0.1969  0.2460  0.2476
  499MOL0     C67262   4.537  -0.157   3.848 -0.8181  0.0296 -0.9575
  499MOL0     C67263   4.415  -0.114   3.784 -0.4329  0.4419 -0.1055
  499MOL0     C67264   4.335  -0.213   3.714 -0.2677  0.1634  0.3116
  499MOL0     C67265   4.380  -0.343   3.721 -0.0645  0.5439 -0.2332
  499MOL0     O67266   4.295  -0.421   3.657  0.3833  0.2188 -0.6133
  499MOL0     C67267   4.333  -0.564   3.635 -0.2289  1.1477 -0.0776
  499MOL0     C67268   4.236  -0.623   3.529 -1.1281  0.3915  0.5337
  499MOL0     C67269   4.273  -0.766   3.474  0.9790 -0.3765 -0.3020
  499MOL0     C67270   4.178  -0.788   3.366 -0.5135  0.0265  0.4275
  499MOL0     C67271   4.191  -0.924   3.287 -0.3874 -0.2458  0.8484
  499MOL0     C67272   4.055  -0.970   3.240  0.0724 -0.3090 -0.2857
  499MOL0     C67273   4.073  -1.091   3.157 -0.1153  0.2747 -0.9847
  499MOL0     C67274   4.119  -1.213   3.228 -0.0761 -0.1285 -0.0835
  499MOL0    Cl67275   4.111  -1.351   3.122  0.0600  0.3596  0.3788
  499MOL0     C67276   4.496  -0.383   3.787  0.0143  0.0947  0.1148
  499MOL0     C67277   4.575  -0.290   3.853  0.6558 -0.0255  0.9996
  499MOL0     O67278   4.785  -0.077   3.768  0.2008 -0.5272 -0.0569
  499MOL0     C67279   4.773   0.126   4.048 -0.9232  0.8016 -0.6974
  499MOL0     C67280   4.831   0.242   4.114 -0.1672  0.1220  0.4555
  499MOL0     N67281   5.379   0.581   4.442 -0.0187 -0.3143 -0.9771
  499MOL0     N67282   5.500   0.598   4.493 -0.0268 -0.6168  0.0745
  499MOL0     C67283   5.661   1.054   5.663  0.1124  0.0056 -0.1397
  499MOL0     C67284   5.670   1.029   5.797 -0.8816  1.3863 -0.2713
  499MOL0     C67285   5.722   0.950   6.234 -0.6133  0.7043  0.7456
  499MOL0     C67286   5.657   0.834   6.269 -0.5057  0.7443 -0.2184
  499MOL0     C67287   5.637   0.806   6.405 -0.0243 -0.7608  0.2409
  499MOL0     C67288   5.691   0.891   6.506 -0.2580 -0.1970  0.0913
  499MOL0     O67289   5.686   0.896   6.642 -1.0490 -0.3606  0.7013
  499MOL0     C67290   5.604   0.797   6.698  0.4887 -0.8196 -0.3948
  499MOL0     C67291   5.667   0.655   6.709  0.2155 -0.2477  0.9176
  499MOL0     C67292   5.787   0.653   6.806  0.7896  0.1036  1.1116
  499MOL0     C67293   5.868   0.513   6.821 -0.4657 -1.3153 -0.4645
  499MOL0     C67294   5.988   0.550   6.905  0.4312 -0.7153 -0.6888
  499MOL0     C67295   6.082   0.583   6.972 -0.7821 -0.3411  0.2073
  499MOL0     C67296   5.760   1.005   6.463  0.6215  0.5805  1.1536
  499MOL0     C67297   5.761   1.042   6.333  0.2562  1.1686 -0.0628
  499MOL0     H67298   5.743   0.705   5.809  1.9407  0.6071 -0.3407
  499MOL0     H67299   5.711   0.741   5.550 -2.3552  0.7069 -0.9390
  499MOL0     H67300   5.729   1.138   5.361  1.0275  0.7083 -0.5017
  499MOL0     H67301   5.867   1.035   5.409 -0.2521  0.1285 -0.4333
  499MOL0     H67302   5.836   1.079   5.165 -2.6677  1.9137  0.1993
  499MOL0     H67303   5.822   0.900   5.184 -0.8069 -0.5435 -1.8727
  499MOL0     H67304   5.594   0.908   5.138 -0.6120  1.1932 -1.3697
  499MOL0     H67305   5.597   1.095   5.141 -2.3348 -0.6049  0.3527
  499MOL0     H67306   5.745   1.100   4.945  0.2090 -0.4574 -1.2660
  499MOL0     H67307   5.741   0.920   4.951 -0.3349 -0.1358 -0.6516
  499MOL0     H67308   5.496   0.950   4.934 -0.4217 -0.3430  0.2597
  499MOL0     H67309   5.527   1.115   4.874  1.8587  0.5054 -1.8820
  499MOL0     H67310   5.541   1.013   4.666  0.1898 -3.1935 -1.4423
  499MOL0     H67311   5.714   1.029   4.721  1.6145 -0.0374  4.7495
  499MOL0     H67312   5.730   0.800   4.755  0.9942  0.5854 -0.3713
  499MOL0     H67313   5.555   0.780   4.759 -0.0255 -1.6282 -1.1074
  499MOL0     H67314   5.716   0.718   4.555  1.2600  0.7734  0.4872
  499MOL0     H67315   5.671   0.873   4.490 -3.1062 -0.0858  0.0502
  499MOL0     H67316   5.376   0.907   4.515 -0.8327  1.0727 -1.8212
  499MOL0     H67317   5.098   0.744   4.475  0.5176 -2.6651  0.6267
  499MOL0     H67318   5.169   0.822   4.340 -0.5133  1.9312  2.5375
  499MOL0     H67319   5.132   0.508   4.362 -0.8794 -0.3819 -0.0810
  499MOL0     H67320   5.156   0.595   4.209 -0.8385 -2.0561 -0.7726
  499MOL0     H67321   4.950   0.707   4.216  0.9374 -0.7542 -0.6874
  499MOL0     H67322   4.917   0.637   4.379 -0.3104  0.5765 -0.3572
  499MOL0     H67323   4.795   0.520   4.192  1.6647  2.4187 -1.4402
  499MOL0     H67324   4.885   0.419   4.306  4.0565  0.1990  0.7546
  499MOL0     H67325   4.929   0.400   3.838 -0.4206 -1.2287 -2.4456
  499MOL0     H67326   4.892   0.280   3.627  0.0700 -1.3756  0.3362
  499MOL0     H67327   4.771   0.159   3.631 -3.9950  0.4398 -0.4236
  499MOL0     H67328   4.724   0.325   3.673 -1.4358 -2.1848 -2.1537
  499MOL0     H67329   4.400  -0.007   3.785  3.9033  1.2359  2.0024
  499MOL0     H67330   4.254  -0.183   3.648  1.9061 -0.7162 -3.0333
  499MOL0     H67331   4.433  -0.566   3.591  1.1196 -2.2254  2.6580
  499MOL0     H67332   4.343  -0.623   3.727 -3.5506 -2.0613 -1.4727
  499MOL0     H67333   4.131  -0.625   3.559 -1.5947  2.8061 -0.6450
  499MOL0     H67334   4.233  -0.555   3.444  0.7700  2.5610  2.0513
  499MOL0     H67335   4.275  -0.840   3.554  1.3671 -0.6604 -0.5724
  499MOL0     H67336   4.367  -0.769   3.419  0.7649 -1.1295 -0.6437
  499MOL0     H67337   4.077  -0.784   3.408 -0.1469  0.4532  1.2982
  499MOL0     H67338   4.178  -0.715   3.284 -0.5593 -2.2918 -1.7498
  499MOL0     H67339   4.226  -0.999   3.360 -1.3672  1.4986  3.2505
  499MOL0     H67340   4.257  -0.912   3.201  1.0324  0.1906  1.9458
  499MOL0     H67341   3.988  -0.986   3.326  0.3627  0.9195  0.1954
  499MOL0     H67342   4.006  -0.891   3.183 -1.4363  0.3433  1.7693
  499MOL0     H67343   4.133  -1.073   3.067  1.3993  1.7887  0.2665
  499MOL0     H67344   3.971  -1.109   3.121 -2.1089  2.0536  3.0613
  499MOL0     H67345   4.057  -1.229   3.316  1.5711  1.0350  1.3494
  499MOL0     H67346   4.220  -1.196   3.266 -0.9930 -0.3514  2.6415
  499MOL0     H67347   4.530  -0.486   3.784 -4.8933 -1.7839 -0.0080
  499MOL0     H67348   4.675  -0.314   3.887  0.8518 -0.0938  0.3894
  499MOL0     H67349   4.738   0.039   4.102 -0.1030 -0.1624 -1.6460
  499MOL0     H67350   4.844   0.242   4.222  2.9094 -1.6895  0.2073
  499MOL0     H67351   5.620   1.143   5.615 -0.4083 -0.3961 -0.4602
  499MOL0     H67352   5.648   1.120   5.852  1.4142  0.2200  2.9133
  499MOL0     H67353   5.615   0.773   6.190  1.7002  0.5090 -1.3007
  499MOL0     H67354   5.600   0.707   6.431 -0.2943 -1.7999 -3.5351
  499MOL0     H67355   5.574   0.830   6.798 -1.1520 -0.0783 -1.0854
  499MOL0     H67356   5.515   0.791   6.635 -0.4934 -1.1260  0.9731
  499MOL0     H67357   5.700   0.646   6.605  0.5243  1.9632  0.7782
  499MOL0     H67358   5.594   0.577   6.733 -0.3559 -1.0978 -2.8791
  499MOL0     H67359   5.753   0.687   6.904 -4.1891 -0.6723 -0.1042
  499MOL0     H67360   5.865   0.719   6.765  3.2449 -3.1277  0.1378
  499MOL0     H67361   5.904   0.462   6.730 -0.3912 -1.7476 -0.1976
  499MOL0     H67362   5.790   0.453   6.870 -0.9575  0.0611  0.4746
  499MOL0     H67363   6.178   0.612   7.011 -1.1444  0.3413  0.5993
  499MOL0     H67364   5.817   1.065   6.533  1.4128 -0.1692  1.1602
  499MOL0     H67365   5.819   1.131   6.312  3.2453 -0.4660  0.7014
  500MOL0     O67366   2.300   7.558  10.879 -0.2555 -0.0488  0.2307
  500MOL0     C67367   2.352   7.530  10.770  0.5298 -0.7013 -1.0253
  500MOL0     O67368   2.289   7.516  10.654  0.2778 -0.2662 -1.5333
  500MOL0     C67369   2.148   7.492  10.660  0.0368  0.0378 -0.8941
  500MOL0     C67370   2.047   7.569  10.721  0.2314 -0.4621  0.5975
  500MOL0     C67371   1.909   7.521  10.723 -0.2299  0.5318 -0.4154
  500MOL0     C67372   1.859   7.411  10.639 -1.1294  0.2254 -0.0676
  500MOL0     O67373   1.728   7.363  10.628  0.6633 -0.4465 -0.5176
  500MOL0     C67374   1.659   7.349  10.751 -0.0203 -0.4916  0.6545
  500MOL0     C67375   1.565   7.235  10.753  1.0952 -0.7378  0.2274
  500MOL0     C67376   1.447   7.254  10.850 -0.1552  0.1693  0.0852
  500MOL0     C67377   1.341   7.134  10.864  0.4008 -0.4433  0.9248
  500MOL0     C67378   1.208   7.158  10.933 -0.8126  0.0625 -0.2947
  500MOL0     C67379   1.106   7.055  10.889 -0.5569  0.7484  0.4757
  500MOL0     C67380   0.966   7.090  10.914 -0.4378 -0.1013 -0.0398
  500MOL0     C67381   0.887   7.005  10.828  1.3246 -0.0161 -0.2014
  500MOL0     N67382   0.745   7.040  10.860 -0.9913  0.0821  0.0155
  500MOL0     C67383   0.661   7.132  10.801  0.3504 -0.5745  1.1758
  500MOL0     C67384   0.562   7.148  10.891 -0.1426  0.5604 -0.0412
  500MOL0     C67385   0.451   7.248  10.877 -0.4824  0.2182  0.2498
  500MOL0     C67386   0.346   7.176  10.800  0.2178 -0.8286  0.6768
  500MOL0     C67387   0.221   7.271  10.774  1.0375 -0.7746 -0.7131
  500MOL0     C67388   0.257   7.410  10.706  0.1786 -0.8570 -0.1571
  500MOL0     O67389   0.296   7.421  10.571 -0.7516  0.2328  0.5031
  500MOL0     C67390   0.216   7.364  10.474  0.1205 -0.9996 -0.9480
  500MOL0     C67391   0.086   7.323  10.502  0.0745 -0.2800 -0.1970
  500MOL0     C67392   0.008   7.269  10.397  0.3629  1.0249  0.0568
  500MOL0     C67393  -0.131   7.244  10.434 -0.3505 -0.3549  0.4603
  500MOL0     C67394   0.067   7.244  10.270 -0.3714  0.6690 -0.6378
  500MOL0     C67395   0.014   7.166  10.168 -0.2759 -0.0117  0.3771
  500MOL0     O67396  -0.107   7.206  10.119  0.2283 -0.0224 -0.3156
  500MOL0     C67397  -0.182   7.137  10.033 -0.4561 -0.2678  0.5881
  500MOL0     C67398  -0.291   7.059  10.076 -0.0414 -0.6399 -0.3692
  500MOL0     C67399  -0.371   6.992   9.993 -0.0003  1.0679  0.4589
  500MOL0     C67400  -0.352   6.991   9.856 -0.3325  0.1460  0.4121
  500MOL0     O67401  -0.417   6.915   9.773  0.5234  1.0963 -0.2585
  500MOL0     C67402  -0.343   6.819   9.688  0.3803 -0.5723  0.4650
  500MOL0     C67403  -0.437   6.749   9.592  1.0079 -0.1458 -0.0308
  500MOL0     C67404  -0.378   6.634   9.515  0.7625 -0.0561  0.1273
  500MOL0     C67405  -0.497   6.543   9.489  0.1210  0.3955 -0.5306
  500MOL0     C67406  -0.445   6.425   9.412  0.0468  0.1109 -1.7727
  500MOL0     C67407  -0.385   6.447   9.273  0.6330 -0.0512 -0.7997
  500MOL0     C67408  -0.474   6.527   9.170 -0.5620  0.3221 -0.4465
  500MOL0     C67409  -0.578   6.431   9.118 -1.0179 -0.6072 -0.1691
  500MOL0    Cl67410  -0.681   6.542   9.009  0.4541 -0.0050 -0.0533
  500MOL0     C67411  -0.246   7.068   9.811 -0.7403 -0.2603  0.3466
  500MOL0     C67412  -0.161   7.142   9.896 -0.0179 -0.2517 -0.2888
  500MOL0     O67413   0.070   7.056  10.136 -0.1472 -0.5796 -0.8686
  500MOL0     C67414   0.206   7.282  10.252  0.1566  0.2840  0.4916
  500MOL0     C67415   0.280   7.339  10.353  0.3151 -1.1501  0.4960
  500MOL0     N67416   0.581   7.067  10.997  0.1023  0.2627 -1.0451
  500MOL0     N67417   0.691   7.007  10.981 -0.1199 -0.1398 -0.5625
  500MOL0     C67418   1.966   7.337  10.583 -0.0060 -0.3268 -0.3254
  500MOL0     C67419   2.102   7.376  10.588  0.0717 -0.8088 -0.6810
  500MOL0     C67420   2.501   7.546  10.761  0.8713 -0.1486  0.2738
  500MOL0     C67421   2.572   7.511  10.874  0.7419 -0.5512  0.4736
  500MOL0     C67422   2.712   7.530  10.873  0.7547 -0.3140 -0.9596
  500MOL0     C67423   2.781   7.568  10.756 -0.6782  0.5009  0.0641
  500MOL0     O67424   2.913   7.595  10.747 -0.4937 -0.0335 -0.4627
  500MOL0     C67425   2.998   7.536  10.845  0.0727 -0.2840  0.6672
  500MOL0     C67426   3.142   7.568  10.829 -1.3231  0.0778  0.0105
  500MOL0     C67427   3.226   7.507  10.939 -0.4661 -0.3963  1.1841
  500MOL0     C67428   3.261   7.363  10.902  0.5451 -0.3271  0.2383
  500MOL0     C67429   3.353   7.359  10.793  0.3208 -0.6505  0.8923
  500MOL0     C67430   3.442   7.352  10.712 -0.3136  0.8340  0.3330
  500MOL0     C67431   2.701   7.590  10.640 -0.2178  0.8356 -0.8341
  500MOL0     C67432   2.563   7.570  10.641 -0.0414 -0.2297  0.0560
  500MOL0     H67433   2.084   7.651  10.781  0.8800  1.2387 -1.9599
  500MOL0     H67434   1.836   7.587  10.769  2.1543  1.9177  1.6516
  500MOL0     H67435   1.728   7.334  10.834 -0.7881  0.5954  1.5234
  500MOL0     H67436   1.615   7.446  10.776 -0.0617  0.0611 -1.4317
  500MOL0     H67437   1.524   7.239  10.652 -3.2490  1.6169  1.8025
  500MOL0     H67438   1.612   7.140  10.779 -2.2994 -2.2903  1.1593
  500MOL0     H67439   1.483   7.261  10.953 -0.7215 -3.7591  0.6870
  500MOL0     H67440   1.401   7.347  10.816 -0.4571 -1.1236 -3.4704
  500MOL0     H67441   1.313   7.100  10.763 -0.0417 -1.8710  1.5091
  500MOL0     H67442   1.395   7.048  10.904  2.4960 -1.1158 -2.8156
  500MOL0     H67443   1.222   7.151  11.041  6.5534 -0.9164 -0.7951
  500MOL0     H67444   1.168   7.254  10.900  1.4474  1.1673 -0.0030
  500MOL0     H67445   1.108   7.047  10.780  0.1198  1.5841  0.4094
  500MOL0     H67446   1.125   6.960  10.940  2.9534  0.8118 -0.4281
  500MOL0     H67447   0.939   7.097  11.020 -2.8950  0.6579 -0.6395
  500MOL0     H67448   0.963   7.193  10.876  2.7279  0.1707  0.1906
  500MOL0     H67449   0.902   6.897  10.821 -3.4507 -0.7822 -2.8284
  500MOL0     H67450   0.899   7.030  10.722 -2.4620 -1.3696 -1.1034
  500MOL0     H67451   0.685   7.191  10.714  0.2463 -1.6604  0.3951
  500MOL0     H67452   0.413   7.293  10.969  0.4120 -1.0592  1.2642
  500MOL0     H67453   0.490   7.331  10.817 -0.3412 -2.1493 -3.2568
  500MOL0     H67454   0.315   7.097  10.869  0.1980 -1.1516  0.3064
  500MOL0     H67455   0.393   7.145  10.706  0.5508 -0.0664  0.5918
  500MOL0     H67456   0.187   7.299  10.874  4.1027  0.1569  0.1941
  500MOL0     H67457   0.153   7.206  10.718 -0.4903  0.0136  0.1726
  500MOL0     H67458   0.329   7.458  10.773 -0.7673  1.6320 -0.8067
  500MOL0     H67459   0.175   7.481  10.720  2.7063  2.2144  0.1396
  500MOL0     H67460   0.052   7.333  10.604  1.0825 -1.1184  0.2483
  500MOL0     H67461  -0.188   7.308  10.366  2.4059  1.5225 -0.2292
  500MOL0     H67462  -0.149   7.138  10.413 -0.8021 -1.1368  4.0873
  500MOL0     H67463  -0.146   7.268  10.540 -1.7807  1.6069 -0.1271
  500MOL0     H67464  -0.294   7.037  10.182 -1.0013 -0.4518 -0.3535
  500MOL0     H67465  -0.445   6.927  10.038  0.8637  0.8430  1.6184
  500MOL0     H67466  -0.274   6.874   9.624  0.0065  0.7280  1.1562
  500MOL0     H67467  -0.285   6.743   9.742  3.0128 -0.6071 -2.1133
  500MOL0     H67468  -0.514   6.710   9.659 -2.0651  1.6897 -2.2686
  500MOL0     H67469  -0.495   6.817   9.530 -2.5351 -0.6886  2.3998
  500MOL0     H67470  -0.312   6.573   9.577 -0.4418 -1.0226  0.5125
  500MOL0     H67471  -0.324   6.669   9.426  2.8625  0.6560  1.5981
  500MOL0     H67472  -0.527   6.511   9.589  2.0183 -0.5858 -0.2209
  500MOL0     H67473  -0.581   6.602   9.451  0.9055  1.4324 -0.7289
  500MOL0     H67474  -0.536   6.370   9.387 -1.4196  0.5178  2.0519
  500MOL0     H67475  -0.384   6.359   9.475 -0.8880  2.1247  1.4788
  500MOL0     H67476  -0.290   6.499   9.275 -0.0707  1.2896 -1.0840
  500MOL0     H67477  -0.361   6.351   9.226  0.3714  1.6023 -4.7813
  500MOL0     H67478  -0.399   6.563   9.099  3.4613 -0.7662  2.8662
  500MOL0     H67479  -0.529   6.611   9.214  3.2332  3.5676 -1.3343
  500MOL0     H67480  -0.638   6.379   9.194  1.5560 -2.8788  0.4745
  500MOL0     H67481  -0.540   6.351   9.054 -1.7275 -1.6846  0.7225
  500MOL0     H67482  -0.223   7.076   9.705 -3.2478  0.8190 -0.1762
  500MOL0     H67483  -0.075   7.201   9.866  1.1082 -0.7142  1.8572
  500MOL0     H67484   0.241   7.258  10.153 -4.2990  1.2104 -1.5749
  500MOL0     H67485   0.377   7.382  10.331 -1.5299  1.7741 -2.9448
  500MOL0     H67486   1.937   7.250  10.523 -1.5474  0.4729 -0.7886
  500MOL0     H67487   2.168   7.316  10.526 -2.2252 -1.4458 -2.6973
  500MOL0     H67488   2.515   7.468  10.956 -0.8493 -1.8584 -1.2384
  500MOL0     H67489   2.761   7.518  10.970  2.2655  0.7596 -1.5606
  500MOL0     H67490   2.974   7.593  10.936  0.3068  3.1118 -1.2159
  500MOL0     H67491   2.979   7.431  10.866  3.9149 -0.8872  1.8996
  500MOL0     H67492   3.156   7.676  10.820  4.1656 -0.4912 -2.0986
  500MOL0     H67493   3.193   7.534  10.738  2.3975  0.7527  1.6462
  500MOL0     H67494   3.170   7.517  11.033 -0.3909  1.1119  1.0992
  500MOL0     H67495   3.321   7.557  10.956  0.6786 -2.1245  0.1449
  500MOL0     H67496   3.169   7.306  10.883  0.8927 -0.9520  0.3841
  500MOL0     H67497   3.309   7.323  10.992  1.5400  6.0679  3.0584
  500MOL0     H67498   3.515   7.323  10.639 -1.3355 -0.0704 -0.3708
  500MOL0     H67499   2.758   7.629  10.557 -0.3205 -0.1312 -1.3806
  500MOL0     H67500   2.504   7.594  10.553  0.8881 -1.3688 -0.9198
  501MOL0     O67501   2.945   2.111  11.341 -0.7579  0.5733 -0.5625
  501MOL0     C67502   2.855   2.027  11.306  0.7471  0.4050 -1.3458
  501MOL0     O67503   2.877   1.898  11.277  0.3927 -0.5253  0.0934
  501MOL0     C67504   3.003   1.850  11.279 -0.7621  1.5221  0.3284
  501MOL0     C67505   3.098   1.905  11.192  0.2479  1.5503  0.5243
  501MOL0     C67506   3.234   1.865  11.196  0.2225  0.0822  0.1436
  501MOL0     C67507   3.278   1.773  11.293 -0.4767  0.6823 -0.5711
  501MOL0     O67508   3.407   1.742  11.303  0.0489 -0.0204 -0.6665
  501MOL0     C67509   3.468   1.806  11.417  0.5244 -1.0785  0.4944
  501MOL0     C67510   3.580   1.730  11.493  0.2440  0.0966  0.3149
  501MOL0     C67511   3.545   1.599  11.552  0.4289 -0.2836 -0.2324
  501MOL0     C67512   3.524   1.503  11.437  0.1120 -0.2188 -0.8449
  501MOL0     C67513   3.546   1.363  11.475 -0.7011  0.7126  1.3547
  501MOL0     C67514   3.425   1.292  11.524 -0.7678  0.1706  0.0462
  501MOL0     C67515   3.406   1.309  11.671 -0.5502  0.8354  0.3790
  501MOL0     C67516   3.518   1.254  11.768 -0.1669 -0.0489  0.4473
  501MOL0     N67517   3.540   1.108  11.771 -0.1963  0.1588 -0.2477
  501MOL0     C67518   3.434   1.019  11.787 -0.1683 -0.5491  0.2478
  501MOL0     C67519   3.494   0.898  11.762 -0.9232  0.8304 -0.9213
  501MOL0     C67520   3.433   0.761  11.766  1.1818 -0.7213  0.2815
  501MOL0     C67521   3.460   0.657  11.885  0.4909  0.0476  0.2434
  501MOL0     C67522   3.415   0.512  11.881 -0.3938 -0.2709  0.1269
  501MOL0     C67523   3.263   0.506  11.876  0.7663 -0.1959  0.0247
  501MOL0     O67524   3.232   0.534  11.743  0.0399 -0.9007  0.0660
  501MOL0     C67525   3.108   0.507  11.692  0.8579  0.2950 -0.1950
  501MOL0     C67526   2.999   0.473  11.772 -0.0064  0.2564  0.5145
  501MOL0     C67527   2.874   0.451  11.712 -0.0143  0.1259 -0.2683
  501MOL0     C67528   2.762   0.415  11.811 -0.4557  0.0658  0.6361
  501MOL0     C67529   2.835   0.476  11.573 -0.6489  0.0363  0.1193
  501MOL0     C67530   2.708   0.475  11.505  0.3407 -0.5090  0.2324
  501MOL0     O67531   2.701   0.580  11.410 -0.1974  0.5357  0.0050
  501MOL0     C67532   2.596   0.571  11.315 -0.1467  0.4548  0.1543
  501MOL0     C67533   2.623   0.569  11.183  0.0434  1.1086 -0.2385
  501MOL0     C67534   2.525   0.563  11.082 -0.1129  0.2912 -0.3480
  501MOL0     C67535   2.387   0.563  11.117 -0.2883 -0.1657 -0.3301
  501MOL0     O67536   2.285   0.549  11.023 -0.0127 -0.8684 -0.2934
  501MOL0     C67537   2.297   0.610  10.895 -0.7755  0.5370  1.3209
  501MOL0     C67538   2.163   0.617  10.822  1.1812  0.2008  0.5505
  501MOL0     C67539   2.140   0.744  10.735 -0.3650  0.5357  0.0572
  501MOL0     C67540   2.260   0.766  10.637  0.0355 -0.9826 -0.3627
  501MOL0     C67541   2.248   0.882  10.534 -0.5051 -0.7047  0.0389
  501MOL0     C67542   2.354   0.890  10.423  0.3087  0.4506  0.0139
  501MOL0     C67543   2.369   0.758  10.339 -0.5009 -0.0133 -0.1708
  501MOL0     C67544   2.253   0.735  10.247 -0.1564  0.0944  1.4043
  501MOL0    Cl67545   2.294   0.608  10.129 -0.0476  0.4067 -0.1781
  501MOL0     C67546   2.352   0.560  11.254  0.1691 -0.0145  0.1175
  501MOL0     C67547   2.460   0.562  11.345  0.3189 -0.8219  0.0753
  501MOL0     O67548   2.623   0.386  11.527 -0.1098  0.5548  0.3936
  501MOL0     C67549   2.955   0.524  11.497  0.2922  0.1852 -0.1246
  501MOL0     C67550   3.081   0.533  11.550  0.4083 -0.0160 -1.3595
  501MOL0     N67551   3.618   0.913  11.731  0.6884  0.1967  0.7538
  501MOL0     N67552   3.659   1.035  11.752 -0.0104  0.0917 -0.2417
  501MOL0     C67553   3.186   1.728  11.392 -0.2763 -0.0849  0.4187
  501MOL0     C67554   3.047   1.764  11.379 -0.3932  0.6835 -0.0228
  501MOL0     C67555   2.710   2.068  11.304  0.1194 -0.1968  0.4195
  501MOL0     C67556   2.662   2.192  11.355 -0.3479 -0.1128  0.1925
  501MOL0     C67557   2.524   2.232  11.342  0.0532  1.0122  0.6111
  501MOL0     C67558   2.439   2.136  11.292  0.3920  0.5704 -0.0103
  501MOL0     O67559   2.302   2.166  11.289  0.3804  0.7209 -0.1326
  501MOL0     C67560   2.218   2.103  11.392  0.5079  0.4243  0.0272
  501MOL0     C67561   2.151   1.964  11.363 -0.0369 -0.6418  0.1020
  501MOL0     C67562   2.047   1.972  11.254 -0.2733 -0.5114  0.8517
  501MOL0     C67563   2.001   1.833  11.217 -0.2957  0.7786  0.1364
  501MOL0     C67564   2.106   1.739  11.168 -0.4705 -0.3819  0.0747
  501MOL0     C67565   2.208   1.683  11.125  0.4679  0.3249 -0.7712
  501MOL0     C67566   2.484   2.015  11.240 -0.4934  0.0303  0.7674
  501MOL0     C67567   2.618   1.988  11.245  0.2303 -0.1351  1.6385
  501MOL0     H67568   3.072   1.977  11.116  1.7692 -1.4123 -3.1330
  501MOL0     H67569   3.299   1.918  11.127 -1.9458  2.6012 -0.1254
  501MOL0     H67570   3.512   1.899  11.380 -1.1103  0.0170  1.1622
  501MOL0     H67571   3.393   1.836  11.491  2.4027  2.2134  1.2831
  501MOL0     H67572   3.668   1.712  11.430  0.3654 -0.9464  0.7586
  501MOL0     H67573   3.617   1.800  11.568 -0.6762  2.9897 -1.7323
  501MOL0     H67574   3.624   1.569  11.621  3.0611  1.1298 -2.4380
  501MOL0     H67575   3.451   1.604  11.608  1.6536  3.4978  1.8354
  501MOL0     H67576   3.422   1.523  11.402  0.7742  2.6238 -1.3513
  501MOL0     H67577   3.593   1.533  11.358 -0.1204  0.4288 -0.8120
  501MOL0     H67578   3.587   1.300  11.396  0.1206  0.4662  1.9571
  501MOL0     H67579   3.635   1.362  11.540 -0.0960  0.7843  0.5451
  501MOL0     H67580   3.336   1.331  11.473 -0.3073  2.2364  0.7438
  501MOL0     H67581   3.451   1.189  11.496  0.6230  0.9434 -1.7043
  501MOL0     H67582   3.391   1.417  11.677 -3.3791  0.7474 -2.3338
  501MOL0     H67583   3.309   1.261  11.687 -1.5015  2.4385 -0.3536
  501MOL0     H67584   3.523   1.299  11.867 -1.7400  2.2119 -0.4302
  501MOL0     H67585   3.615   1.286  11.729 -0.8935  0.4879 -0.9773
  501MOL0     H67586   3.330   1.040  11.813  0.4513  2.0676  0.8722
  501MOL0     H67587   3.327   0.784  11.750  2.0776  1.5937 -3.4671
  501MOL0     H67588   3.465   0.699  11.682  0.3654 -2.5556  1.2424
  501MOL0     H67589   3.414   0.710  11.969  1.6233  0.8428  0.3734
  501MOL0     H67590   3.567   0.659  11.906  0.6274  1.5200 -0.4668
  501MOL0     H67591   3.454   0.455  11.966  0.1802 -0.8364 -0.4938
  501MOL0     H67592   3.454   0.476  11.785 -3.0685  0.2614 -1.2384
  501MOL0     H67593   3.212   0.586  11.930 -2.1012  0.6126 -3.4415
  501MOL0     H67594   3.231   0.405  11.903 -1.5683  0.0064 -1.6209
  501MOL0     H67595   3.015   0.439  11.874  0.2585 -0.2634  0.3054
  501MOL0     H67596   2.668   0.460  11.778  0.2820  1.7020  0.6785
  501MOL0     H67597   2.748   0.308  11.796  0.9794  0.2561 -3.0108
  501MOL0     H67598   2.786   0.451  11.912 -0.8066 -0.0104  0.7484
  501MOL0     H67599   2.726   0.570  11.147 -0.2552 -0.0914 -1.1591
  501MOL0     H67600   2.533   0.558  10.974 -0.9714  0.8697 -0.4483
  501MOL0     H67601   2.349   0.705  10.907  0.7721  0.4915 -3.2597
  501MOL0     H67602   2.351   0.542  10.829 -0.9345  0.8748  0.8383
  501MOL0     H67603   2.149   0.535  10.752 -0.1991  0.9968 -0.1494
  501MOL0     H67604   2.091   0.601  10.903 -2.4955 -0.3445 -2.5837
  501MOL0     H67605   2.146   0.834  10.798  2.8254  1.5158 -1.4300
  501MOL0     H67606   2.047   0.736  10.678  0.0035 -1.4541 -0.3242
  501MOL0     H67607   2.349   0.792  10.696 -0.5939  1.7404 -0.5236
  501MOL0     H67608   2.277   0.671  10.585  1.4727  0.5922 -2.9829
  501MOL0     H67609   2.245   0.968  10.601  0.0382 -2.2092  2.0969
  501MOL0     H67610   2.152   0.879  10.482 -0.5052 -2.2860  0.0675
  501MOL0     H67611   2.315   0.963  10.353 -1.4973 -1.9523 -1.6374
  501MOL0     H67612   2.447   0.923  10.470 -0.8055  1.4790  1.6051
  501MOL0     H67613   2.381   0.673  10.406 -2.7457 -1.1428 -1.1182
  501MOL0     H67614   2.461   0.772  10.281  2.1037 -2.7913  2.8953
  501MOL0     H67615   2.229   0.822  10.185 -1.0752 -0.9264  0.2848
  501MOL0     H67616   2.164   0.704  10.303  0.4717 -0.1075  2.3024
  501MOL0     H67617   2.253   0.569  11.297 -1.9938 -1.0583 -4.1227
  501MOL0     H67618   2.438   0.541  11.449 -2.8116 -0.1593 -0.3512
  501MOL0     H67619   2.940   0.547  11.392 -2.3236 -2.5903 -0.4864
  501MOL0     H67620   3.165   0.567  11.491  0.0053  3.0952 -0.2934
  501MOL0     H67621   3.189   1.664  11.479 -2.5188 -0.2687  0.4354
  501MOL0     H67622   2.970   1.740  11.452  0.2384  2.9862  1.5064
  501MOL0     H67623   2.739   2.251  11.403 -0.4843  0.2260  0.0010
  501MOL0     H67624   2.490   2.330  11.375  2.7969  3.1237 -2.1978
  501MOL0     H67625   2.278   2.085  11.481 -0.2285 -1.3544  0.1969
  501MOL0     H67626   2.131   2.164  11.419 -3.3413 -4.5380  0.1454
  501MOL0     H67627   2.124   1.913  11.455  0.2645 -0.9011  0.0488
  501MOL0     H67628   2.239   1.903  11.342 -0.1604 -1.3024  1.4210
  501MOL0     H67629   2.072   2.028  11.163 -1.9481 -1.0659 -0.0025
  501MOL0     H67630   1.957   2.023  11.289 -0.2480  0.1688 -0.0356
  501MOL0     H67631   1.929   1.844  11.135 -1.0456  1.4358  0.8598
  501MOL0     H67632   1.970   1.786  11.310  0.2190 -2.2460 -1.0972
  501MOL0     H67633   2.288   1.623  11.087  0.0127  0.6815 -2.3719
  501MOL0     H67634   2.430   1.928  11.204 -2.3984  1.9737 -1.4471
  501MOL0     H67635   2.641   1.892  11.199 -0.3167  0.6708 -0.4336
  502MOL0     O67636   2.555   1.540  10.900  0.0740  0.2895  0.4762
  502MOL0     C67637   2.613   1.444  10.950  0.3454  0.3726  0.6545
  502MOL0     O67638   2.636   1.323  10.883  0.3903  0.2665 -0.2805
  502MOL0     C67639   2.633   1.340  10.748 -0.7303  0.0558 -0.4113
  502MOL0     C67640   2.575   1.228  10.686 -0.3410  0.4812 -0.3768
  502MOL0     C67641   2.551   1.210  10.551  0.1456  0.6227  0.1162
  502MOL0     C67642   2.582   1.313  10.465 -0.0735 -0.3758  0.4523
  502MOL0     O67643   2.563   1.305  10.334 -0.7302  0.4065  0.1825
  502MOL0     C67644   2.517   1.188  10.269  1.3179  0.0925  0.0689
  502MOL0     C67645   2.514   1.191  10.123 -0.2944  0.0769  0.4192
  502MOL0     C67646   2.438   1.073  10.062 -0.0576  0.4925 -0.1250
  502MOL0     C67647   2.458   1.053   9.914 -0.5901  0.1021  0.1787
  502MOL0     C67648   2.414   0.917   9.867 -0.4349 -0.0110  0.0785
  502MOL0     C67649   2.270   0.902   9.855  0.1192 -0.4436 -0.4883
  502MOL0     C67650   2.223   0.769   9.782 -0.6783 -0.0391 -0.7675
  502MOL0     C67651   2.085   0.802   9.723  1.1292 -0.3748  0.0512
  502MOL0     N67652   2.019   0.682   9.682  0.1523 -0.2066  0.9984
  502MOL0     C67653   2.006   0.634   9.555  0.5047 -0.8056  0.0384
  502MOL0     C67654   1.918   0.535   9.576  0.1062  0.7413  0.3636
  502MOL0     C67655   1.878   0.445   9.466  0.4127  0.7444 -0.2589
  502MOL0     C67656   1.739   0.482   9.398  0.2687  0.6691 -0.4954
  502MOL0     C67657   1.683   0.353   9.327  0.5744  0.1836 -0.9088
  502MOL0     C67658   1.782   0.286   9.229  0.0879  0.8537  0.3108
  502MOL0     O67659   1.722   0.167   9.183 -0.1924  0.6372  0.1642
  502MOL0     C67660   1.721   0.050   9.247  0.9191  1.2496 -0.0434
  502MOL0     C67661   1.654  -0.055   9.183  0.3397 -0.5291  0.3340
  502MOL0     C67662   1.642  -0.178   9.241  0.1530  0.2265  0.0000
  502MOL0     C67663   1.584  -0.292   9.156 -0.3798  0.8481 -0.1539
  502MOL0     C67664   1.685  -0.201   9.372 -0.6293 -0.4372  0.1814
  502MOL0     C67665   1.689  -0.330   9.451  1.0062 -0.3105 -0.0388
  502MOL0     O67666   1.757  -0.326   9.564  0.4251  0.0120 -0.1910
  502MOL0     C67667   1.784  -0.443   9.632 -0.5399 -0.4574  0.1947
  502MOL0     C67668   1.850  -0.553   9.569  0.4096  0.1811 -0.3293
  502MOL0     C67669   1.864  -0.669   9.637  0.9448  0.6706 -0.2301
  502MOL0     C67670   1.838  -0.676   9.772 -0.1441  0.1640 -0.7090
  502MOL0     O67671   1.877  -0.792   9.842  0.1114  0.2401 -0.1009
  502MOL0     C67672   2.014  -0.795   9.877 -0.9857 -0.8126  0.0861
  502MOL0     C67673   2.022  -0.825  10.038 -0.0295 -0.4181  0.3495
  502MOL0     C67674   1.946  -0.727  10.119  0.2697 -0.4921  0.4015
  502MOL0     C67675   1.969  -0.754  10.271  0.6775 -1.0218 -0.3858
  502MOL0     C67676   1.888  -0.655  10.358  0.6965 -0.0406 -0.1584
  502MOL0     C67677   1.946  -0.654  10.500  0.1840  0.4525 -0.7448
  502MOL0     C67678   1.847  -0.567  10.579  0.0147  0.2670 -1.0071
  502MOL0     C67679   1.922  -0.497  10.695 -0.5918  0.4898  0.0250
  502MOL0    Cl67680   1.805  -0.401  10.780  0.1988  0.5127  0.3414
  502MOL0     C67681   1.776  -0.568   9.835  1.0131  0.5767  0.7626
  502MOL0     C67682   1.749  -0.455   9.768 -0.4190 -0.0573  0.0075
  502MOL0     O67683   1.638  -0.429   9.404  0.2530 -0.6491 -0.4534
  502MOL0     C67684   1.747  -0.090   9.431 -0.4134 -0.9254 -0.3210
  502MOL0     C67685   1.770   0.029   9.372  0.6157 -0.8671  0.3799
  502MOL0     N67686   1.880   0.518   9.709 -0.3900  0.2686 -0.3583
  502MOL0     N67687   1.948   0.610   9.769 -0.1957  0.0723 -0.2519
  502MOL0     C67688   2.637   1.426  10.522  0.4577  0.4732 -0.4599
  502MOL0     C67689   2.669   1.437  10.660 -0.0078 -0.7081  0.0047
  502MOL0     C67690   2.622   1.449  11.095 -0.3843 -0.0710  0.1149
  502MOL0     C67691   2.619   1.330  11.169  0.1610  0.1176  0.6501
  502MOL0     C67692   2.622   1.331  11.307  1.0218  0.2841 -1.3628
  502MOL0     C67693   2.629   1.454  11.378 -0.1334  0.1539 -0.0790
  502MOL0     O67694   2.634   1.469  11.513 -0.0364 -0.3476  1.1961
  502MOL0     C67695   2.671   1.347  11.581  0.8147 -0.6567 -0.3511
  502MOL0     C67696   2.739   1.397  11.715 -0.3092  0.6147  0.5128
  502MOL0     C67697   2.884   1.346  11.730 -0.2860 -0.1186 -0.4267
  502MOL0     C67698   2.981   1.433  11.648  0.1629  0.2963 -0.0038
  502MOL0     C67699   2.974   1.392  11.506  1.0056  0.4833 -0.6253
  502MOL0     C67700   2.977   1.347  11.397 -0.2175 -0.3319  1.1887
  502MOL0     C67701   2.653   1.568  11.306  0.4473  0.2933 -0.1228
  502MOL0     C67702   2.645   1.567  11.162 -0.2430  0.4409 -0.9916
  502MOL0     H67703   2.550   1.147  10.754  1.2115  2.0368  2.2227
  502MOL0     H67704   2.501   1.118  10.523 -4.1252  1.8273  2.8074
  502MOL0     H67705   2.566   1.099  10.309  1.4662 -0.0264 -0.3790
  502MOL0     H67706   2.412   1.188  10.301  1.1966 -0.9467 -0.3178
  502MOL0     H67707   2.457   1.279  10.092  1.2129  0.8262 -0.3234
  502MOL0     H67708   2.616   1.189  10.082 -0.5984  0.4025 -0.3890
  502MOL0     H67709   2.454   0.978  10.113  0.0046 -0.5313 -1.9380
  502MOL0     H67710   2.331   1.086  10.081 -0.5710 -1.4271 -1.4411
  502MOL0     H67711   2.403   1.136   9.868  1.8314  1.2367 -0.8261
  502MOL0     H67712   2.562   1.054   9.881 -1.2155  1.0507 -1.9283
  502MOL0     H67713   2.455   0.909   9.766 -2.5859 -1.3409 -0.7602
  502MOL0     H67714   2.466   0.840   9.925  1.4232  0.3766 -1.0143
  502MOL0     H67715   2.223   0.914   9.953  0.3668 -2.5779 -0.0469
  502MOL0     H67716   2.239   0.987   9.793  1.0583 -0.3998 -0.9146
  502MOL0     H67717   2.297   0.747   9.705  1.7203 -2.7742  2.0603
  502MOL0     H67718   2.217   0.689   9.855 -2.5351  0.9534  0.2390
  502MOL0     H67719   2.096   0.866   9.634  1.2433 -1.1136 -0.4721
  502MOL0     H67720   2.023   0.860   9.791  1.3948  1.4155 -1.1392
  502MOL0     H67721   2.060   0.664   9.466  1.7230  0.1824  1.0702
  502MOL0     H67722   1.951   0.457   9.386  0.7907  0.4938  0.0440
  502MOL0     H67723   1.893   0.346   9.511  0.3285  1.6008  1.8058
  502MOL0     H67724   1.751   0.571   9.335  2.5329 -2.2181 -4.5924
  502MOL0     H67725   1.675   0.512   9.481  0.9125 -0.0600  0.2921
  502MOL0     H67726   1.595   0.382   9.269 -0.1084 -1.8097 -0.9304
  502MOL0     H67727   1.651   0.282   9.404 -2.6988  0.9393 -1.4527
  502MOL0     H67728   1.881   0.272   9.273  0.6826 -2.0206 -1.6181
  502MOL0     H67729   1.789   0.355   9.145  1.0869  1.7639  1.1233
  502MOL0     H67730   1.629  -0.041   9.078  1.6367  0.7265  0.1613
  502MOL0     H67731   1.555  -0.269   9.053 -2.2084 -0.5862 -0.0056
  502MOL0     H67732   1.658  -0.373   9.155 -1.7531 -0.5010  1.1809
  502MOL0     H67733   1.492  -0.326   9.205  1.5333 -0.2468  3.0299
  502MOL0     H67734   1.889  -0.544   9.468  0.2770 -0.8599 -0.4850
  502MOL0     H67735   1.910  -0.757   9.594  0.5038 -0.9872  2.4141
  502MOL0     H67736   2.083  -0.865   9.830  0.2868  0.8481 -0.6197
  502MOL0     H67737   2.059  -0.699   9.848 -0.1852 -2.5212 -5.5456
  502MOL0     H67738   1.982  -0.926  10.049  1.1392 -1.1749 -1.6526
  502MOL0     H67739   2.127  -0.834  10.067 -0.2936 -0.4145  1.3344
  502MOL0     H67740   1.842  -0.736  10.087  0.2890  0.5789  0.0027
  502MOL0     H67741   1.975  -0.623  10.098 -1.3318  0.5798  3.0705
  502MOL0     H67742   1.921  -0.853  10.274 -2.3997  0.2461 -2.5234
  502MOL0     H67743   2.075  -0.765  10.297  0.5734 -0.9386  0.0845
  502MOL0     H67744   1.784  -0.688  10.350  0.2973  0.9792  0.6446
  502MOL0     H67745   1.903  -0.559  10.309  2.8090 -1.4229 -2.5086
  502MOL0     H67746   1.943  -0.754  10.544 -2.0892  0.6379 -0.3734
  502MOL0     H67747   2.049  -0.618  10.510  0.3799 -0.7021  2.3422
  502MOL0     H67748   1.780  -0.635  10.631  2.9220 -1.9639  0.1018
  502MOL0     H67749   1.784  -0.510  10.511 -0.3635  1.4555  0.2760
  502MOL0     H67750   2.013  -0.445  10.664  0.5683 -1.5309 -0.1716
  502MOL0     H67751   1.931  -0.569  10.777 -3.9110 -0.3904 -0.2482
  502MOL0     H67752   1.752  -0.570   9.941  0.2723 -1.5789  0.6005
  502MOL0     H67753   1.699  -0.373   9.819 -5.2112 -2.9207  0.4512
  502MOL0     H67754   1.790  -0.088   9.531 -2.6412  4.7611  0.9055
  502MOL0     H67755   1.812   0.119   9.418 -2.5034  1.5410 -1.1318
  502MOL0     H67756   2.662   1.514  10.462  2.1032  0.1522 -0.3040
  502MOL0     H67757   2.712   1.535  10.676  0.1755 -0.2452 -2.7410
  502MOL0     H67758   2.619   1.237  11.114  5.0167 -0.3620  1.0342
  502MOL0     H67759   2.593   1.241  11.359 -4.0841  0.8455 -2.6693
  502MOL0     H67760   2.576   1.294  11.593  0.0909  0.6947  0.1595
  502MOL0     H67761   2.736   1.291  11.513 -1.0738 -0.4130 -2.4665
  502MOL0     H67762   2.677   1.355  11.796  1.0912 -1.8680  0.4051
  502MOL0     H67763   2.745   1.504  11.734  0.5047  0.7982 -0.6617
  502MOL0     H67764   2.883   1.237  11.720  0.1169 -0.5843  3.1138
  502MOL0     H67765   2.921   1.358  11.832 -1.4021 -1.0277  0.1070
  502MOL0     H67766   3.085   1.415  11.676  0.5398 -0.9101 -2.0077
  502MOL0     H67767   2.947   1.535  11.664 -2.3767 -0.1063 -2.0462
  502MOL0     H67768   2.985   1.307  11.298  3.0976  0.7479  0.9036
  502MOL0     H67769   2.673   1.671  11.333  2.7634  0.1679 -1.1611
  502MOL0     H67770   2.641   1.659  11.104 -1.3534  0.0185 -1.6057
  503MOL0     O67771   1.154   1.398   8.455 -0.1368 -1.0654  0.2959
  503MOL0     C67772   1.057   1.465   8.483 -0.0516  0.2074 -0.1811
  503MOL0     O67773   0.971   1.439   8.593 -0.5807  0.4648 -0.5659
  503MOL0     C67774   1.011   1.321   8.660 -0.3819 -0.6420 -0.6128
  503MOL0     C67775   1.084   1.333   8.775 -0.3817 -0.2056 -0.7799
  503MOL0     C67776   1.121   1.216   8.840 -0.6956  0.7420  0.6185
  503MOL0     C67777   1.072   1.087   8.800 -0.3496 -0.4887  0.5903
  503MOL0     O67778   1.124   0.980   8.859 -0.1472  0.0109  0.8176
  503MOL0     C67779   1.031   0.900   8.930 -0.1198 -0.1398  0.4907
  503MOL0     C67780   1.093   0.787   9.010  0.3373  0.1347  0.5074
  503MOL0     C67781   1.177   0.828   9.126  0.4324  0.6599  0.2193
  503MOL0     C67782   1.211   0.697   9.205  0.5483  0.1078 -0.0663
  503MOL0     C67783   1.300   0.716   9.324  0.7848 -0.3163  0.3985
  503MOL0     C67784   1.290   0.607   9.430 -0.7781 -0.5671 -0.3364
  503MOL0     C67785   1.391   0.615   9.541 -0.4704 -0.3897  0.0963
  503MOL0     C67786   1.377   0.741   9.617 -0.3037 -0.3674 -0.7525
  503MOL0     N67787   1.435   0.728   9.752 -0.7154  0.6994 -0.5325
  503MOL0     C67788   1.568   0.700   9.792 -0.1832 -0.1775 -0.2923
  503MOL0     C67789   1.554   0.669   9.923 -0.1540 -0.1226 -0.4166
  503MOL0     C67790   1.668   0.619  10.002  0.7190  0.3864 -0.3271
  503MOL0     C67791   1.702   0.465   9.975 -0.0438  0.0756 -0.7301
  503MOL0     C67792   1.714   0.383  10.108  0.4978  0.7877  0.1853
  503MOL0     C67793   1.867   0.380  10.142 -0.0537 -0.7412  0.0079
  503MOL0     O67794   1.883   0.261  10.227 -0.1324 -0.4917  0.4493
  503MOL0     C67795   1.822   0.240  10.347 -0.2430  0.3215 -0.2521
  503MOL0     C67796   1.819   0.111  10.396  0.0391  0.5822  0.1619
  503MOL0     C67797   1.773   0.071  10.523 -0.1444 -0.3265 -0.3804
  503MOL0     C67798   1.780  -0.073  10.557 -0.4772  0.5124  0.9986
  503MOL0     C67799   1.713   0.171  10.613  0.1621  0.0979  1.0663
  503MOL0     C67800   1.649   0.146  10.743 -0.1279 -0.6172  0.3390
  503MOL0     O67801   1.579   0.262  10.789  1.1128  0.5799  0.0392
  503MOL0     C67802   1.523   0.253  10.913 -0.7246 -0.2880  0.4296
  503MOL0     C67803   1.538   0.168  11.025 -0.7288  0.2099  0.0449
  503MOL0     C67804   1.463   0.195  11.145 -0.5535  0.2413  0.2692
  503MOL0     C67805   1.424   0.326  11.172  1.0737 -0.5060 -0.8564
  503MOL0     O67806   1.377   0.368  11.298 -0.2913 -0.2223  0.3209
  503MOL0     C67807   1.331   0.277  11.391  0.4244 -0.4310 -0.0643
  503MOL0     C67808   1.262   0.353  11.507  0.1213  0.8575  1.5354
  503MOL0     C67809   1.214   0.258  11.624 -0.8766 -0.5858 -0.2129
  503MOL0     C67810   1.057   0.221  11.621 -0.3586  0.3306  0.2204
  503MOL0     C67811   1.010   0.153  11.746  0.4296 -0.0670  0.0023
  503MOL0     C67812   0.869   0.201  11.776  0.1878 -0.9871 -0.1320
  503MOL0     C67813   0.830   0.160  11.912 -0.8625 -0.0528  0.1802
  503MOL0     C67814   0.815   0.280  12.006  1.0966 -0.1527 -0.1325
  503MOL0    Cl67815   0.659   0.377  11.989  0.3450  1.0082 -0.4815
  503MOL0     C67816   1.438   0.423  11.068 -0.4756  0.4920 -0.6676
  503MOL0     C67817   1.473   0.379  10.942 -0.8520 -1.1159  0.3896
  503MOL0     O67818   1.664   0.038  10.798  0.6356 -0.0767 -0.0534
  503MOL0     C67819   1.703   0.304  10.554  0.2041  0.4028  0.3591
  503MOL0     C67820   1.757   0.336  10.422  0.2702  0.1888 -0.0658
  503MOL0     N67821   1.419   0.659   9.953  0.1600 -0.8831 -0.7800
  503MOL0     N67822   1.354   0.720   9.856 -0.1668 -0.1319 -0.5390
  503MOL0     C67823   0.997   1.075   8.681  0.4115 -0.0014  0.1346
  503MOL0     C67824   0.964   1.197   8.617 -0.2387  0.5283 -0.4482
  503MOL0     C67825   1.030   1.595   8.424  0.3290 -0.0467  0.7890
  503MOL0     C67826   1.092   1.627   8.298 -0.3901  0.0925  0.4512
  503MOL0     C67827   1.067   1.747   8.232  0.4165 -0.2710  0.5147
  503MOL0     C67828   0.984   1.842   8.292  0.2987  0.0048  0.2404
  503MOL0     O67829   0.975   1.970   8.237  0.3232 -0.0292 -0.5548
  503MOL0     C67830   0.890   1.982   8.123  0.9460 -0.0693  0.8889
  503MOL0     C67831   0.964   1.984   7.983 -0.1343  0.0532 -0.1832
  503MOL0     C67832   1.093   2.064   7.987 -0.9440  0.2521 -0.5716
  503MOL0     C67833   1.085   2.206   8.050  0.2168 -0.0199  0.9094
  503MOL0     C67834   1.003   2.288   7.953  0.4656  0.9079  0.1637
  503MOL0     C67835   0.928   2.352   7.879 -1.0835 -0.4596 -0.2504
  503MOL0     C67836   0.925   1.812   8.414 -0.1343  0.0648  0.3093
  503MOL0     C67837   0.946   1.691   8.482 -0.7357  0.3538 -0.6437
  503MOL0     H67838   1.117   1.431   8.807 -2.5437  0.0125  0.9855
  503MOL0     H67839   1.193   1.220   8.922  0.4080  4.2075 -0.3441
  503MOL0     H67840   0.976   0.966   8.999 -0.3848  3.3643 -2.7228
  503MOL0     H67841   0.963   0.869   8.850  4.1233  1.4503 -4.2695
  503MOL0     H67842   1.013   0.727   9.054  0.7915  0.9298  2.5084
  503MOL0     H67843   1.149   0.726   8.938 -3.1988 -3.2858  0.3143
  503MOL0     H67844   1.273   0.863   9.087 -0.9721  1.6745 -2.5669
  503MOL0     H67845   1.131   0.911   9.182  2.2759  2.9635 -1.4515
  503MOL0     H67846   1.118   0.649   9.236  0.5297 -0.7401 -1.3583
  503MOL0     H67847   1.253   0.629   9.130  1.3148  0.5067 -0.0128
  503MOL0     H67848   1.400   0.728   9.281  0.4804 -3.8768 -1.6977
  503MOL0     H67849   1.278   0.812   9.372  0.2756 -0.3113  0.1551
  503MOL0     H67850   1.189   0.590   9.468 -1.5119 -1.9759 -2.6920
  503MOL0     H67851   1.310   0.513   9.377  1.8678 -1.4708  2.0089
  503MOL0     H67852   1.377   0.524   9.600  1.5886 -0.7122  0.1750
  503MOL0     H67853   1.487   0.619   9.487 -1.1983  0.3347 -1.1807
  503MOL0     H67854   1.268   0.749   9.614 -0.3647 -1.3705 -1.5397
  503MOL0     H67855   1.426   0.821   9.560 -2.4480 -0.1884 -2.4624
  503MOL0     H67856   1.660   0.691   9.735 -0.1845 -0.1023 -0.3061
  503MOL0     H67857   1.764   0.668   9.984  1.4032 -0.8760 -0.2650
  503MOL0     H67858   1.640   0.637  10.106 -3.3345 -3.1467 -0.5141
  503MOL0     H67859   1.800   0.466   9.927  1.1414 -2.0351  1.3999
  503MOL0     H67860   1.627   0.416   9.912 -0.1612 -2.5890  1.2780
  503MOL0     H67861   1.673   0.283  10.094  1.3381  0.2006  1.7102
  503MOL0     H67862   1.661   0.444  10.183  2.1900  0.9338  1.3148
  503MOL0     H67863   1.895   0.470  10.197  2.8842 -0.5623 -1.5772
  503MOL0     H67864   1.926   0.374  10.049 -3.4716 -1.4911 -2.3048
  503MOL0     H67865   1.871   0.026  10.353 -1.9667 -0.0253 -1.1607
  503MOL0     H67866   1.778  -0.147  10.476 -4.0087 -2.0066  3.1058
  503MOL0     H67867   1.873  -0.091  10.612 -0.5114  0.4463  1.0364
  503MOL0     H67868   1.694  -0.108  10.616 -0.1911  0.2167  1.2487
  503MOL0     H67869   1.587   0.072  11.018 -1.3584 -0.3749  2.5927
  503MOL0     H67870   1.461   0.118  11.222 -0.0752  0.4490  0.4985
  503MOL0     H67871   1.260   0.206  11.348  2.1859 -1.5864 -1.2057
  503MOL0     H67872   1.415   0.214  11.423 -0.0824 -1.5411 -0.8407
  503MOL0     H67873   1.346   0.407  11.550  0.8376 -0.3083  1.6273
  503MOL0     H67874   1.182   0.419  11.470 -2.4950 -2.2081  1.2997
  503MOL0     H67875   1.235   0.307  11.719  2.0881 -1.6175 -0.2476
  503MOL0     H67876   1.266   0.162  11.619 -0.9548 -0.6211 -0.3676
  503MOL0     H67877   0.998   0.313  11.619 -0.7645  0.0660 -0.2493
  503MOL0     H67878   1.034   0.152  11.539  1.2081  0.8385 -0.6800
  503MOL0     H67879   1.063   0.183  11.837 -1.5644  0.5767  1.0024
  503MOL0     H67880   1.025   0.044  11.745 -0.1007 -0.1404 -1.4222
  503MOL0     H67881   0.840   0.302  11.748 -2.6297 -1.1186  1.8854
  503MOL0     H67882   0.805   0.141  11.712 -0.3593 -0.0082 -0.5151
  503MOL0     H67883   0.894   0.083  11.955 -0.1169 -0.2656 -1.2374
  503MOL0     H67884   0.736   0.105  11.909  0.4698 -2.5166  0.7324
  503MOL0     H67885   0.900   0.348  12.003  2.8094 -2.2063 -0.1836
  503MOL0     H67886   0.823   0.236  12.106 -1.0750 -1.2573 -0.3902
  503MOL0     H67887   1.414   0.528  11.084  1.1286  1.1394 -2.1950
  503MOL0     H67888   1.466   0.446  10.858 -0.1769 -0.8671  0.5290
  503MOL0     H67889   1.660   0.389  10.605 -0.5291 -0.7056  1.6860
  503MOL0     H67890   1.743   0.433  10.376 -2.5605 -0.7123 -1.3070
  503MOL0     H67891   0.961   0.980   8.643 -1.0932  1.8960 -3.7642
  503MOL0     H67892   0.914   1.175   8.523 -2.4280  0.4451  0.6823
  503MOL0     H67893   1.182   1.574   8.268 -1.0427 -0.2207 -1.0422
  503MOL0     H67894   1.126   1.764   8.142  1.1951  0.7377  1.1985
  503MOL0     H67895   0.817   1.902   8.140  1.2360 -0.7427 -0.8849
  503MOL0     H67896   0.831   2.074   8.127  1.1465  0.0807  0.4612
  503MOL0     H67897   0.905   2.030   7.903  2.3930  2.4177 -0.8033
  503MOL0     H67898   0.986   1.880   7.958  0.1770  0.4800 -1.7603
  503MOL0     H67899   1.126   2.081   7.884  2.0270 -2.1064 -0.1553
  503MOL0     H67900   1.167   1.997   8.031 -0.1310  0.1017 -2.1277
  503MOL0     H67901   1.189   2.241   8.058  1.1706 -0.9664 -4.0825
  503MOL0     H67902   1.035   2.218   8.147  0.5132 -3.2253  1.5495
  503MOL0     H67903   0.871   2.418   7.817 -1.1056  1.4813  1.7054
  503MOL0     H67904   0.865   1.893   8.455  0.9088 -0.1978  2.5286
  503MOL0     H67905   0.883   1.681   8.570 -2.4564  1.0986 -1.7339
  504MOL0     O67906   8.604   2.895  10.491 -0.3996 -0.5265  0.1975
  504MOL0     C67907   8.565   2.871  10.381 -0.0514 -0.8209 -0.1746
  504MOL0     O67908   8.554   2.744  10.345 -0.2184  0.4526  0.5533
  504MOL0     C67909   8.494   2.656  10.430  0.2765  0.2000 -0.2724
  504MOL0     C67910   8.515   2.529  10.392  0.6616  0.2783 -0.6754
  504MOL0     C67911   8.437   2.430  10.453 -0.0529  0.2557 -0.5219
  504MOL0     C67912   8.368   2.453  10.571 -0.2658  0.4120 -0.5599
  504MOL0     O67913   8.303   2.357  10.650  0.0390  0.8920  0.0326
  504MOL0     C67914   8.258   2.228  10.604  0.3410  0.5096  0.2557
  504MOL0     C67915   8.124   2.199  10.670 -0.5331  0.2136  0.0229
  504MOL0     C67916   8.050   2.078  10.610 -0.1672 -0.2397  0.9743
  504MOL0     C67917   7.987   2.082  10.479  0.4806  0.0936  0.7714
  504MOL0     C67918   7.936   1.950  10.423 -0.3672  0.0310 -0.6490
  504MOL0     C67919   7.811   1.905  10.499 -0.2428 -0.4440  0.3573
  504MOL0     C67920   7.671   1.932  10.427  1.1545  0.3028  0.7828
  504MOL0     C67921   7.627   2.082  10.386 -0.2436  0.8778  1.0227
  504MOL0     N67922   7.588   2.151  10.508 -0.0363  0.0664 -0.0626
  504MOL0     C67923   7.465   2.130  10.563 -1.0065  1.1217 -0.1040
  504MOL0     C67924   7.452   2.219  10.667 -0.0402 -0.2252 -0.1237
  504MOL0     C67925   7.338   2.225  10.769  0.3910 -0.1823 -0.4612
  504MOL0     C67926   7.305   2.364  10.806  0.9661  0.0680  0.6319
  504MOL0     C67927   7.214   2.372  10.940 -0.4152  1.1882 -0.2119
  504MOL0     C67928   7.061   2.339  10.934  0.3810 -0.0830 -0.6340
  504MOL0     O67929   7.007   2.424  10.841  0.7362 -0.5542  0.3771
  504MOL0     C67930   6.882   2.413  10.784  0.2833  0.4900 -0.4327
  504MOL0     C67931   6.832   2.503  10.692  0.0472  0.8895  0.1271
  504MOL0     C67932   6.710   2.493  10.625  1.3951 -0.0859  0.1066
  504MOL0     C67933   6.675   2.607  10.523 -0.0355  0.8271 -0.2603
  504MOL0     C67934   6.625   2.378  10.663 -0.7222 -0.5881  0.0974
  504MOL0     C67935   6.487   2.356  10.610 -0.4017  0.3668 -0.0037
  504MOL0     O67936   6.439   2.230  10.605  1.0480 -0.6105 -0.1867
  504MOL0     C67937   6.328   2.203  10.521  0.2141  0.5090 -0.2733
  504MOL0     C67938   6.254   2.080  10.557  0.7611 -0.3323 -0.5439
  504MOL0     C67939   6.135   2.041  10.490  0.1974 -0.0501  0.0943
  504MOL0     C67940   6.091   2.115  10.378  0.6359 -0.7688 -0.3566
  504MOL0     O67941   5.981   2.084  10.314  0.0255  0.4120 -0.2643
  504MOL0     C67942   5.973   1.961  10.242 -0.3579  0.3101  0.4383
  504MOL0     C67943   5.834   1.939  10.208 -0.3578 -0.6347  0.0761
  504MOL0     C67944   5.775   2.028  10.103 -0.0124  0.3771 -0.3079
  504MOL0     C67945   5.628   1.995  10.087  0.0422 -0.1349 -0.5791
  504MOL0     C67946   5.576   2.076   9.965 -0.3902  0.2900  0.3162
  504MOL0     C67947   5.433   2.034   9.919  0.9723 -1.2499 -0.2040
  504MOL0     C67948   5.394   1.883   9.930 -1.5926  0.4044  0.1018
  504MOL0     C67949   5.358   1.820  10.070  0.2301  0.4358  0.4058
  504MOL0    Cl67950   5.185   1.859  10.106  0.2292 -0.4030 -0.4198
  504MOL0     C67951   6.174   2.232  10.337  0.5383 -0.1629 -2.2594
  504MOL0     C67952   6.284   2.271  10.411 -0.1574  0.0164  0.1344
  504MOL0     O67953   6.418   2.457  10.595 -0.0631 -0.2657  0.0771
  504MOL0     C67954   6.670   2.292  10.763  0.1010 -0.4782 -0.0755
  504MOL0     C67955   6.798   2.304  10.819 -0.0287 -0.1841 -0.5777
  504MOL0     N67956   7.564   2.302  10.657 -0.5067 -0.1989 -0.1578
  504MOL0     N67957   7.647   2.256  10.563 -0.0277 -0.0384 -0.5513
  504MOL0     C67958   8.346   2.594  10.608 -0.7145 -0.3829  0.4621
  504MOL0     C67959   8.412   2.693  10.537  0.6340 -0.7636 -0.3213
  504MOL0     C67960   8.543   2.974  10.281  0.6836 -0.2494 -0.1823
  504MOL0     C67961   8.570   3.109  10.312 -0.9943  0.0460 -0.6396
  504MOL0     C67962   8.574   3.212  10.216 -0.4758 -1.2086 -0.5369
  504MOL0     C67963   8.547   3.180  10.085  0.6884 -0.7335 -0.4967
  504MOL0     O67964   8.576   3.279   9.992  0.4958 -0.7222 -0.1086
  504MOL0     C67965   8.491   3.280   9.872  0.1863  0.0177  0.6736
  504MOL0     C67966   8.551   3.207   9.751 -0.3472 -0.2530 -0.4668
  504MOL0     C67967   8.484   3.235   9.607 -0.2541 -0.1393  0.3735
  504MOL0     C67968   8.562   3.161   9.497  0.0345 -1.0411 -0.0520
  504MOL0     C67969   8.702   3.183   9.510  1.2473  0.0451 -1.0678
  504MOL0     C67970   8.822   3.192   9.511 -0.0726  0.1008 -0.4053
  504MOL0     C67971   8.512   3.047  10.049 -0.7747 -0.3729 -0.3049
  504MOL0     C67972   8.509   2.946  10.152  0.0155 -0.2353  0.2505
  504MOL0     H67973   8.577   2.515  10.304  1.0700  1.3362 -0.5689
  504MOL0     H67974   8.445   2.332  10.408 -1.3079  1.2559 -3.1282
  504MOL0     H67975   8.222   2.237  10.501 -1.3738  0.9491  0.8642
  504MOL0     H67976   8.339   2.155  10.597 -0.4754 -0.2347 -3.4882
  504MOL0     H67977   8.141   2.199  10.778 -0.6164 -0.1242  0.0342
  504MOL0     H67978   8.056   2.284  10.652 -0.0903  0.5457 -0.1139
  504MOL0     H67979   8.118   1.993  10.622  0.3283  0.0530  0.2668
  504MOL0     H67980   7.977   2.051  10.688 -1.4940 -1.2502 -0.5412
  504MOL0     H67981   7.916   2.166  10.478  2.0677  1.4914  0.3678
  504MOL0     H67982   8.062   2.115  10.406 -3.0711 -0.1413 -3.4443
  504MOL0     H67983   7.911   1.955  10.317 -1.2511 -0.7632 -0.4969
  504MOL0     H67984   8.011   1.872  10.437 -0.4501  0.3516  2.5631
  504MOL0     H67985   7.831   1.798  10.507  0.0039 -0.8347 -3.5366
  504MOL0     H67986   7.813   1.956  10.596 -2.2773  3.3441 -1.3497
  504MOL0     H67987   7.680   1.880  10.331  1.0425  0.8092  0.4918
  504MOL0     H67988   7.589   1.890  10.486 -1.7029  3.4515 -0.6300
  504MOL0     H67989   7.544   2.065  10.317 -0.2703 -1.5335  1.5299
  504MOL0     H67990   7.708   2.124  10.327 -1.5158  0.5716 -1.0480
  504MOL0     H67991   7.391   2.051  10.557 -0.5222  0.6809 -0.3093
  504MOL0     H67992   7.248   2.182  10.724  0.5560  2.0545 -3.2182
  504MOL0     H67993   7.375   2.174  10.858  0.1754 -0.0182 -0.2775
  504MOL0     H67994   7.249   2.420  10.731  0.3191  1.1047  1.8460
  504MOL0     H67995   7.387   2.434  10.827  0.0063  1.2727  0.4671
  504MOL0     H67996   7.209   2.478  10.965 -1.6166  0.3243  4.0375
  504MOL0     H67997   7.263   2.315  11.020  0.4171 -0.1124 -1.6079
  504MOL0     H67998   7.023   2.351  11.036 -1.4163 -1.2709 -1.1147
  504MOL0     H67999   7.035   2.237  10.904 -4.0185  1.2834 -2.3710
  504MOL0     H68000   6.873   2.603  10.683  1.9625  0.0150 -1.7128
  504MOL0     H68001   6.611   2.580  10.438 -1.3064  1.4999  0.4459
  504MOL0     H68002   6.621   2.692  10.566  2.6968  2.0374  1.0247
  504MOL0     H68003   6.774   2.635  10.489  0.6342 -2.1628 -1.0751
  504MOL0     H68004   6.297   2.029  10.643  1.7775  0.8189 -0.3282
  504MOL0     H68005   6.077   1.955  10.524 -1.4100  1.2541  0.7882
  504MOL0     H68006   6.044   1.961  10.159 -0.2621  0.8239  0.5199
  504MOL0     H68007   6.009   1.888  10.316  1.6645  5.7068  5.5905
  504MOL0     H68008   5.825   1.841  10.160 -0.2151 -1.6766  2.0814
  504MOL0     H68009   5.767   1.919  10.292  0.3196 -2.6143  0.1920
  504MOL0     H68010   5.831   2.033  10.009 -2.2168  0.6846 -1.7068
  504MOL0     H68011   5.773   2.129  10.146 -0.9817  0.6536 -0.9464
  504MOL0     H68012   5.604   1.890  10.066 -0.8240 -0.0519 -0.0769
  504MOL0     H68013   5.571   2.024  10.176  0.1976  3.4023 -1.5158
  504MOL0     H68014   5.636   2.050   9.877 -1.8031 -2.6222  0.1131
  504MOL0     H68015   5.575   2.184   9.982 -3.0887  0.4421 -0.3692
  504MOL0     H68016   5.357   2.086   9.978  1.4407  0.4147 -0.9985
  504MOL0     H68017   5.423   2.068   9.815  1.1950  1.3041  0.5527
  504MOL0     H68018   5.477   1.827   9.886 -1.0545  0.9780  0.3773
  504MOL0     H68019   5.301   1.874   9.873 -1.4215  0.7003 -0.2308
  504MOL0     H68020   5.416   1.865  10.151  1.8481 -1.2623  0.2493
  504MOL0     H68021   5.370   1.711  10.066  1.4802  0.5724 -0.0880
  504MOL0     H68022   6.146   2.265  10.237 -3.7159 -1.8454 -1.8315
  504MOL0     H68023   6.352   2.349  10.377  1.9871 -2.9808 -3.0575
  504MOL0     H68024   6.602   2.210  10.784 -0.1039 -1.2035 -3.1282
  504MOL0     H68025   6.824   2.234  10.897 -1.3056 -0.6158 -0.5193
  504MOL0     H68026   8.281   2.621  10.690  1.6656  3.4388  1.3116
  504MOL0     H68027   8.390   2.797  10.556 -1.1103 -0.7923 -1.9332
  504MOL0     H68028   8.587   3.124  10.418  1.1313 -0.2471 -0.8927
  504MOL0     H68029   8.603   3.315  10.234 -0.3682 -1.1015 -1.2852
  504MOL0     H68030   8.397   3.230   9.895 -1.9384  2.7906 -1.2836
  504MOL0     H68031   8.462   3.383   9.848 -2.7391 -1.1498 -1.3562
  504MOL0     H68032   8.549   3.099   9.769 -4.1585 -0.4005 -0.9673
  504MOL0     H68033   8.653   3.243   9.763 -0.3579 -0.8460  2.2181
  504MOL0     H68034   8.468   3.340   9.578 -0.4648 -0.9467 -2.7290
  504MOL0     H68035   8.379   3.204   9.599 -0.2416  0.1289 -0.9322
  504MOL0     H68036   8.536   3.203   9.400 -0.6778  1.9180  1.3032
  504MOL0     H68037   8.531   3.056   9.495 -2.0098 -0.5205  1.2957
  504MOL0     H68038   8.927   3.199   9.495  0.1521  1.0593  1.2211
  504MOL0     H68039   8.482   3.023   9.947 -0.1298 -0.0496 -0.5743
  504MOL0     H68040   8.483   2.843  10.131  1.6311 -0.3016 -1.6785
  505MOL0     O68041   0.790   7.616   1.663 -0.5235 -0.0351  0.7903
  505MOL0     C68042   0.727   7.509   1.668 -0.6206  0.5159 -0.0456
  505MOL0     O68043   0.623   7.477   1.582 -0.4482 -0.5623 -0.8747
  505MOL0     C68044   0.593   7.558   1.473 -0.1668 -0.3207 -1.4541
  505MOL0     C68045   0.551   7.694   1.478 -0.0300 -0.6468 -0.4858
  505MOL0     C68046   0.520   7.772   1.362 -0.3267  0.2316 -0.2058
  505MOL0     C68047   0.529   7.713   1.238 -0.1599  1.1827 -0.2724
  505MOL0     O68048   0.498   7.780   1.123  0.3301  0.3191 -0.6136
  505MOL0     C68049   0.580   7.771   1.001 -0.3947 -0.3083 -0.1367
  505MOL0     C68050   0.736   7.800   1.019 -0.4209  0.1089 -0.1860
  505MOL0     C68051   0.763   7.950   1.021 -0.0607 -0.0657  0.8745
  505MOL0     C68052   0.911   7.983   1.050  0.5873  1.1824  1.0437
  505MOL0     C68053   0.941   8.131   1.054 -0.0406 -0.0553  0.3044
  505MOL0     C68054   1.097   8.160   1.082 -0.1591 -0.5328 -0.2881
  505MOL0     C68055   1.123   8.315   1.089  0.3764  0.5039  0.0245
  505MOL0     C68056   1.275   8.336   1.078 -0.4620 -0.5572 -0.9356
  505MOL0     N68057   1.330   8.322   1.218  0.2422  0.0921 -0.8288
  505MOL0     C68058   1.374   8.208   1.278  0.1989 -0.6321 -0.2100
  505MOL0     C68059   1.394   8.242   1.407 -0.2425 -0.0724  0.3698
  505MOL0     C68060   1.439   8.147   1.516 -0.1866 -0.6989 -0.1177
  505MOL0     C68061   1.504   8.009   1.481  0.6177  0.7802  0.1726
  505MOL0     C68062   1.634   8.006   1.389 -0.7819  0.5664 -1.0010
  505MOL0     C68063   1.741   8.115   1.421  0.3494 -0.7306 -0.1151
  505MOL0     O68064   1.858   8.085   1.343 -0.3221 -0.4602 -0.3773
  505MOL0     C68065   1.982   8.094   1.399  0.8487  0.1303 -0.4464
  505MOL0     C68066   2.015   8.102   1.532  0.3917 -0.1479  0.8335
  505MOL0     C68067   2.146   8.105   1.578 -0.2840 -1.0659  0.2284
  505MOL0     C68068   2.173   8.123   1.730  0.7358 -0.5578 -0.2657
  505MOL0     C68069   2.257   8.097   1.487 -0.4382 -0.5935  1.1410
  505MOL0     C68070   2.395   8.077   1.529  0.2309 -0.5318  0.5616
  505MOL0     O68071   2.445   8.155   1.619  0.0194 -0.1471 -0.2612
  505MOL0     C68072   2.517   8.111   1.726 -0.2453  0.2545 -0.3032
  505MOL0     C68073   2.488   8.144   1.857 -0.3064  0.1613 -0.3005
  505MOL0     C68074   2.570   8.105   1.965  0.2816 -0.2174 -0.5695
  505MOL0     C68075   2.691   8.043   1.947 -0.1801  0.7499 -0.3583
  505MOL0     O68076   2.774   8.026   2.052 -0.2380  0.1969  0.5724
  505MOL0     C68077   2.816   7.890   2.053  0.0365  0.5042 -0.1783
  505MOL0     C68078   2.961   7.869   1.994 -0.2709  0.5020  0.6899
  505MOL0     C68079   3.049   7.771   2.073  0.1500  0.3583 -0.4830
  505MOL0     C68080   3.004   7.625   2.087 -0.1638  0.2047 -0.6734
  505MOL0     C68081   3.049   7.557   2.216  0.8783  1.0034  0.4183
  505MOL0     C68082   3.201   7.530   2.232 -0.1255  0.5597 -0.4873
  505MOL0     C68083   3.259   7.429   2.130 -0.4125 -0.2348 -0.2010
  505MOL0     C68084   3.404   7.404   2.165 -0.1388 -1.0863  0.0707
  505MOL0    Cl68085   3.404   7.261   2.283 -0.2883 -0.5491  0.3117
  505MOL0     C68086   2.711   7.993   1.816  0.4600 -0.3326  0.3668
  505MOL0     C68087   2.630   8.031   1.712  0.5444 -0.1113 -0.2625
  505MOL0     O68088   2.458   7.991   1.475 -0.3375  0.2465  0.1440
  505MOL0     C68089   2.227   8.100   1.350  0.3392  0.3263 -0.8877
  505MOL0     C68090   2.092   8.091   1.314  0.1605  0.1508 -0.0730
  505MOL0     N68091   1.370   8.373   1.423 -0.7597 -0.3665  0.3208
  505MOL0     N68092   1.317   8.421   1.311  0.1550  0.6597  0.2291
  505MOL0     C68093   0.564   7.576   1.229  0.1250  0.4253 -0.2487
  505MOL0     C68094   0.591   7.500   1.342 -0.8313 -0.5465 -0.1399
  505MOL0     C68095   0.767   7.398   1.748 -0.7533  0.5396 -0.3477
  505MOL0     C68096   0.684   7.280   1.755  0.4370 -0.1215 -0.2670
  505MOL0     C68097   0.713   7.179   1.852 -0.4839 -0.3063  0.5360
  505MOL0     C68098   0.828   7.192   1.934 -0.7405  0.2190 -0.6441
  505MOL0     O68099   0.859   7.076   2.010  0.1495 -0.2215 -0.1520
  505MOL0     C68100   0.977   7.072   2.100 -0.3053 -0.4881 -0.5666
  505MOL0     C68101   0.959   6.958   2.195 -0.2399  0.3681 -0.8207
  505MOL0     C68102   1.020   6.831   2.146 -0.4055  0.1412  0.1356
  505MOL0     C68103   0.997   6.723   2.253 -0.3189 -0.0148 -0.6001
  505MOL0     C68104   1.073   6.591   2.219 -0.8458  0.2216 -1.1299
  505MOL0     C68105   1.146   6.494   2.196  0.3252 -0.2775  0.6310
  505MOL0     C68106   0.916   7.296   1.914 -0.0165 -0.0475 -0.5575
  505MOL0     C68107   0.883   7.409   1.832 -0.5062  0.3724 -0.4525
  505MOL0     H68108   0.543   7.755   1.568 -0.1814 -1.8160  0.3184
  505MOL0     H68109   0.494   7.877   1.371 -2.1437 -0.1735 -0.2966
  505MOL0     H68110   0.579   7.670   0.960  2.2352  0.9386 -3.6892
  505MOL0     H68111   0.526   7.833   0.929 -3.3037 -2.0503  0.3659
  505MOL0     H68112   0.768   7.747   1.109 -1.0844 -0.1718 -0.1024
  505MOL0     H68113   0.800   7.753   0.944  0.3485 -1.4315  1.3745
  505MOL0     H68114   0.740   7.979   0.918  0.2822 -2.9068 -0.0711
  505MOL0     H68115   0.694   7.997   1.092 -0.8255 -2.0582  1.5089
  505MOL0     H68116   0.944   7.940   1.145  1.2003 -0.6350  0.0470
  505MOL0     H68117   0.968   7.951   0.962  1.9750  0.0263  2.3197
  505MOL0     H68118   0.899   8.186   0.969 -1.2570  0.0190  0.9360
  505MOL0     H68119   0.887   8.169   1.141 -1.2402  0.7399 -0.7367
  505MOL0     H68120   1.134   8.110   1.172 -0.6626  1.2036  0.9446
  505MOL0     H68121   1.136   8.132   0.984  0.5098  1.2453 -0.5643
  505MOL0     H68122   1.092   8.363   0.996  4.0439 -0.5227 -1.9233
  505MOL0     H68123   1.079   8.355   1.181  5.0976 -1.0120  3.3013
  505MOL0     H68124   1.294   8.433   1.032  0.8543 -0.5870 -0.4996
  505MOL0     H68125   1.326   8.276   1.003  0.1164  1.8525 -2.5889
  505MOL0     H68126   1.387   8.107   1.241 -1.7649 -1.9698  2.4510
  505MOL0     H68127   1.507   8.205   1.579 -1.5557 -0.9867  1.7242
  505MOL0     H68128   1.349   8.125   1.575 -0.3694  0.5186  0.0711
  505MOL0     H68129   1.440   7.936   1.430 -1.0105  2.6674 -0.6282
  505MOL0     H68130   1.537   7.973   1.579  2.5545  2.2655  0.1256
  505MOL0     H68131   1.602   8.034   1.288  0.4306 -0.8028 -1.8059
  505MOL0     H68132   1.688   7.911   1.381  1.0644  1.4053  0.8239
  505MOL0     H68133   1.746   8.133   1.528 -3.3991 -3.0166  0.6254
  505MOL0     H68134   1.712   8.210   1.374  0.0547 -0.8064 -0.0821
  505MOL0     H68135   1.944   8.115   1.613 -0.0498 -2.5788  0.8851
  505MOL0     H68136   2.083   8.150   1.786  1.8594 -0.1013  1.4077
  505MOL0     H68137   2.221   8.036   1.774 -2.0552 -1.3088  1.5791
  505MOL0     H68138   2.227   8.217   1.746 -3.0421  1.7040  0.3477
  505MOL0     H68139   2.406   8.213   1.878 -0.7263 -0.7633  1.2499
  505MOL0     H68140   2.531   8.131   2.064  1.5803  0.4238 -0.2092
  505MOL0     H68141   2.837   7.884   2.160  1.7285  1.1116 -0.4420
  505MOL0     H68142   2.739   7.816   2.030  0.3472  0.2826 -0.5214
  505MOL0     H68143   2.960   7.833   1.890  1.7448  1.3489  0.3178
  505MOL0     H68144   3.010   7.967   1.995 -1.7756  1.3421 -1.1076
  505MOL0     H68145   3.067   7.810   2.173  1.7385 -0.1052 -0.5704
  505MOL0     H68146   3.147   7.752   2.028  2.8668  0.8986  4.5514
  505MOL0     H68147   2.899   7.601   2.067 -0.1344 -1.9562  1.3178
  505MOL0     H68148   3.049   7.565   2.008  0.2886 -2.0740  1.1917
  505MOL0     H68149   3.007   7.456   2.218 -0.7734  1.6415  0.1165
  505MOL0     H68150   3.007   7.608   2.303 -0.6695 -0.0160  0.3194
  505MOL0     H68151   3.251   7.627   2.240 -3.2715  2.4572 -1.7344
  505MOL0     H68152   3.213   7.479   2.328 -1.9602  0.4189 -0.2965
  505MOL0     H68153   3.249   7.483   2.036 -1.8385  0.0062  0.0724
  505MOL0     H68154   3.209   7.333   2.118 -0.4740  0.0475 -2.6755
  505MOL0     H68155   3.445   7.492   2.217  0.8658 -1.9192  0.7202
  505MOL0     H68156   3.458   7.375   2.074 -2.0582 -3.9864 -0.2507
  505MOL0     H68157   2.789   7.921   1.794 -2.4338 -3.6131  0.1231
  505MOL0     H68158   2.674   7.995   1.620  1.5116 -0.9967  0.5180
  505MOL0     H68159   2.296   8.085   1.268 -1.5791 -1.8051 -2.2673
  505MOL0     H68160   2.078   8.103   1.207  0.5093 -1.1604 -0.2891
  505MOL0     H68161   0.570   7.521   1.135  1.6831  1.1849 -0.6254
  505MOL0     H68162   0.618   7.397   1.325 -1.6908 -0.6428 -1.0430
  505MOL0     H68163   0.591   7.255   1.705  1.1798 -1.1264 -1.2102
  505MOL0     H68164   0.664   7.083   1.866  1.0107 -1.0011  1.2067
  505MOL0     H68165   1.073   7.067   2.049 -0.6444 -3.6309 -1.1437
  505MOL0     H68166   0.977   7.160   2.165 -1.6717  0.0585 -1.2673
  505MOL0     H68167   0.856   6.931   2.222  0.3036  0.5054  1.6222
  505MOL0     H68168   1.015   6.977   2.288 -1.6658  1.2766 -0.1025
  505MOL0     H68169   1.126   6.843   2.122 -0.3876  2.0740  1.0128
  505MOL0     H68170   0.963   6.810   2.055 -2.3898 -1.1460  1.6113
  505MOL0     H68171   0.891   6.695   2.258 -1.0662  2.6276  3.5329
  505MOL0     H68172   1.019   6.754   2.356 -1.8731  2.1609 -0.8646
  505MOL0     H68173   1.206   6.408   2.176 -0.1820 -0.1743 -1.5012
  505MOL0     H68174   1.009   7.290   1.969 -0.1047 -0.6099 -0.4612
  505MOL0     H68175   0.949   7.494   1.816  1.1742 -1.2793 -2.8640
  506MOL0     O68176   9.500   6.700   7.811  0.4184 -0.0719 -0.0457
  506MOL0     C68177   9.562   6.642   7.720 -0.7212  0.1310 -0.9665
  506MOL0     O68178   9.677   6.688   7.676  0.4153  0.0005  0.0432
  506MOL0     C68179   9.724   6.805   7.737  0.0954 -0.2914 -0.1424
  506MOL0     C68180   9.855   6.788   7.781  0.7590 -0.1744 -0.1666
  506MOL0     C68181   9.923   6.891   7.856 -0.2540 -0.0645  0.3707
  506MOL0     C68182   9.854   7.009   7.889  0.1016 -0.3646  0.4910
  506MOL0     O68183   9.894   7.120   7.958  0.1592 -0.1151 -0.7027
  506MOL0     C68184   9.975   7.096   8.069  0.1847  0.0867 -0.4031
  506MOL0     C68185   9.891   7.010   8.170 -0.1262 -0.6381  0.0479
  506MOL0     C68186   9.782   7.103   8.219 -1.4870  0.4959 -0.0378
  506MOL0     C68187   9.693   7.006   8.302 -1.0942 -0.2504 -0.0280
  506MOL0     C68188   9.588   7.078   8.381 -0.0973 -0.9296  0.7409
  506MOL0     C68189   9.482   7.141   8.289  0.1617  0.4579  0.4831
  506MOL0     C68190   9.369   7.185   8.382  0.3024 -0.4650  0.5324
  506MOL0     C68191   9.423   7.296   8.478 -0.5076  0.0981  0.2302
  506MOL0     N68192   9.319   7.360   8.561 -0.1183  0.5962 -0.1452
  506MOL0     C68193   9.208   7.434   8.516  0.0881 -0.5708  0.4733
  506MOL0     C68194   9.152   7.476   8.626  0.8329  0.5791 -0.6423
  506MOL0     C68195   9.037   7.584   8.635  0.1230  0.2078  0.4247
  506MOL0     C68196   8.909   7.558   8.546 -0.7286 -1.0720 -0.8358
  506MOL0     C68197   8.802   7.659   8.545  0.4108 -0.8230 -0.4425
  506MOL0     C68198   8.784   7.743   8.667 -0.4558 -0.0506 -0.7207
  506MOL0     O68199   8.758   7.648   8.771 -0.6697 -1.0224  0.1295
  506MOL0     C68200   8.712   7.686   8.895  0.0911 -1.4164  0.1312
  506MOL0     C68201   8.701   7.593   8.984 -0.1491 -0.4402  0.5838
  506MOL0     C68202   8.655   7.603   9.110 -0.3834 -0.0104 -0.5282
  506MOL0     C68203   8.638   7.481   9.202 -0.8348  0.1667 -0.4925
  506MOL0     C68204   8.613   7.728   9.152  0.2963 -0.6465 -0.9612
  506MOL0     C68205   8.571   7.752   9.290 -0.1041 -0.4502 -1.0135
  506MOL0     O68206   8.463   7.836   9.298  0.1830 -0.0172  0.5217
  506MOL0     C68207   8.389   7.837   9.411  0.2434 -0.6836  0.6428
  506MOL0     C68208   8.279   7.922   9.389 -0.5617  0.3522 -0.4108
  506MOL0     C68209   8.191   7.950   9.490  0.2778  0.0497 -1.0029
  506MOL0     C68210   8.209   7.891   9.621  1.1526  0.5330 -0.7378
  506MOL0     O68211   8.111   7.916   9.717 -0.4363 -0.4028  0.6141
  506MOL0     C68212   8.155   8.021   9.804  0.1009 -0.7382 -0.1084
  506MOL0     C68213   8.053   8.136   9.806 -0.0336 -0.8942 -0.1869
  506MOL0     C68214   8.077   8.222   9.937 -0.2185 -0.3424 -0.2166
  506MOL0     C68215   8.034   8.373   9.937 -0.3895 -0.6369  0.3811
  506MOL0     C68216   8.079   8.450  10.063 -0.4131  0.3252  0.1619
  506MOL0     C68217   8.025   8.386  10.190  0.7897 -0.3431 -0.5427
  506MOL0     C68218   7.977   8.480  10.300  0.5556 -0.3516  0.0508
  506MOL0     C68219   8.086   8.556  10.370 -0.0274 -0.9912  0.5179
  506MOL0    Cl68220   8.024   8.714  10.450 -0.5065 -0.0080  0.2000
  506MOL0     C68221   8.302   7.798   9.639 -0.8033 -0.2493  0.0999
  506MOL0     C68222   8.393   7.763   9.532 -0.3735 -0.3632 -0.1303
  506MOL0     O68223   8.643   7.709   9.384 -0.5848 -0.1435  0.2860
  506MOL0     C68224   8.616   7.835   9.055  0.2384 -0.2368 -0.3365
  506MOL0     C68225   8.667   7.820   8.928 -0.0727 -0.2713 -0.1536
  506MOL0     N68226   9.220   7.416   8.731 -0.6884 -0.4449 -0.2773
  506MOL0     N68227   9.324   7.353   8.692  0.2307  0.2498 -0.4249
  506MOL0     C68228   9.721   7.024   7.831 -0.2570 -0.5640  0.8421
  506MOL0     C68229   9.661   6.926   7.754  0.3611 -0.3269  0.1610
  506MOL0     C68230   9.502   6.514   7.676  1.1908 -0.7683  0.2819
  506MOL0     C68231   9.566   6.428   7.592 -0.0970 -1.1612  0.5114
  506MOL0     C68232   9.515   6.309   7.548 -0.3957 -1.0218  0.5978
  506MOL0     C68233   9.382   6.287   7.572 -0.8187 -0.2835 -0.1286
  506MOL0     O68234   9.341   6.165   7.528 -0.1047 -0.4433 -0.5518
  506MOL0     C68235   9.197   6.126   7.523 -0.6383 -0.9705 -0.2005
  506MOL0     C68236   9.159   5.995   7.443 -0.0035  0.6789  0.3432
  506MOL0     C68237   9.162   5.872   7.529 -0.1417 -0.7075  0.0810
  506MOL0     C68238   9.297   5.808   7.561 -0.6316 -0.1817  0.2759
  506MOL0     C68239   9.321   5.683   7.488  1.1164  0.5403  0.5702
  506MOL0     C68240   9.346   5.574   7.438 -0.5807 -0.1570 -0.0333
  506MOL0     C68241   9.300   6.381   7.640 -1.0543 -0.9220 -0.0530
  506MOL0     C68242   9.357   6.497   7.701 -0.4897  0.3951 -0.7194
  506MOL0     H68243   9.917   6.702   7.760  0.3053 -0.2444 -1.2626
  506MOL0     H68244  10.014   6.870   7.911 -0.9032 -0.6578  1.2340
  506MOL0     H68245  10.067   7.041   8.049  0.7961  1.3712 -1.2733
  506MOL0     H68246  10.005   7.190   8.117  0.3648 -0.1882  0.0231
  506MOL0     H68247   9.847   6.921   8.125 -0.5250 -1.6854  2.3318
  506MOL0     H68248   9.954   6.981   8.255 -1.1469  0.2905  1.1642
  506MOL0     H68249   9.836   7.175   8.281 -1.1051 -1.0222  1.4528
  506MOL0     H68250   9.729   7.145   8.133  0.8032 -0.6078 -2.1044
  506MOL0     H68251   9.660   6.931   8.229  2.1304  0.9087 -2.9166
  506MOL0     H68252   9.751   6.940   8.367 -3.5838 -1.6524  0.9635
  506MOL0     H68253   9.535   7.006   8.443  0.7141 -2.4612 -0.2710
  506MOL0     H68254   9.630   7.164   8.435 -0.4128 -0.3440  0.0840
  506MOL0     H68255   9.527   7.223   8.232  1.7041  0.0487  1.0762
  506MOL0     H68256   9.441   7.068   8.218  1.5881  1.4292 -1.4583
  506MOL0     H68257   9.285   7.214   8.319  0.6558  0.3434  0.4191
  506MOL0     H68258   9.340   7.103   8.448  0.2945 -3.0043 -2.4423
  506MOL0     H68259   9.478   7.370   8.420  1.1672 -2.0296 -1.0733
  506MOL0     H68260   9.496   7.257   8.549 -1.6168  0.5925  1.6965
  506MOL0     H68261   9.183   7.451   8.412  0.3789 -2.4177  0.0619
  506MOL0     H68262   9.010   7.588   8.741  0.2119 -1.0003  0.5136
  506MOL0     H68263   9.081   7.680   8.609 -0.4142  1.1397  2.7616
  506MOL0     H68264   8.881   7.478   8.615  1.7530 -0.8016  0.6184
  506MOL0     H68265   8.943   7.528   8.447 -1.8947 -2.9152 -0.7219
  506MOL0     H68266   8.701   7.622   8.524 -0.8015  0.7604  2.0511
  506MOL0     H68267   8.837   7.728   8.467  0.1288 -1.2117 -0.9205
  506MOL0     H68268   8.705   7.819   8.661  0.5547  1.0667 -0.2943
  506MOL0     H68269   8.881   7.790   8.689 -1.5666  1.0538  2.2353
  506MOL0     H68270   8.730   7.503   8.931  0.8155 -0.4602  1.1301
  506MOL0     H68271   8.615   7.390   9.145 -0.4746  0.5231 -1.2234
  506MOL0     H68272   8.735   7.466   9.250 -0.9322 -3.0317 -1.0262
  506MOL0     H68273   8.567   7.487   9.284  1.4797  3.7634  1.5007
  506MOL0     H68274   8.261   7.948   9.285  0.1098 -4.0210 -1.8302
  506MOL0     H68275   8.122   8.033   9.480 -0.9924 -0.8285  0.0288
  506MOL0     H68276   8.186   7.989   9.904  3.8942 -0.8802 -1.1767
  506MOL0     H68277   8.250   8.067   9.776 -0.6455  2.0768  1.5904
  506MOL0     H68278   8.053   8.185   9.709 -3.9883  2.1054  1.0709
  506MOL0     H68279   7.964   8.074   9.817  0.3299 -1.2922  0.6452
  506MOL0     H68280   8.182   8.223   9.966 -0.0687  1.2545 -0.7049
  506MOL0     H68281   8.009   8.168  10.005 -0.6016  0.0112 -0.3142
  506MOL0     H68282   8.092   8.421   9.858 -0.5012  5.7905  3.5902
  506MOL0     H68283   7.927   8.388   9.921  0.0113  2.8861  0.2041
  506MOL0     H68284   8.059   8.557  10.053 -1.6507 -0.0258 -1.7611
  506MOL0     H68285   8.187   8.432  10.061 -0.6218 -1.3955  1.7059
  506MOL0     H68286   7.945   8.319  10.158  1.2457 -1.3687  0.3882
  506MOL0     H68287   8.106   8.332  10.239 -0.1826 -1.4005 -0.0352
  506MOL0     H68288   7.906   8.440  10.373  1.1516  0.5476  1.1665
  506MOL0     H68289   7.912   8.557  10.257  3.6161  2.6786  0.3979
  506MOL0     H68290   8.166   8.580  10.299 -0.9196  1.1546  0.1603
  506MOL0     H68291   8.133   8.494  10.447  0.2433 -0.7838  0.5255
  506MOL0     H68292   8.312   7.752   9.737  0.8852  0.4156  0.2776
  506MOL0     H68293   8.466   7.689   9.562 -3.3253 -3.8191 -0.7377
  506MOL0     H68294   8.594   7.937   9.085  2.8065  0.2610  0.0378
  506MOL0     H68295   8.674   7.904   8.859  3.0529 -0.6308 -0.4267
  506MOL0     H68296   9.681   7.123   7.850  0.3233 -0.7697  3.5310
  506MOL0     H68297   9.563   6.943   7.710 -1.0914  4.2086  4.1815
  506MOL0     H68298   9.671   6.451   7.582 -0.0226 -0.9869  1.6317
  506MOL0     H68299   9.575   6.243   7.486  1.1064 -0.0661  0.9671
  506MOL0     H68300   9.170   6.101   7.626 -0.6612  1.1541  0.3631
  506MOL0     H68301   9.140   6.212   7.487  1.5197  1.0984  1.0205
  506MOL0     H68302   9.220   5.983   7.353  2.6157 -0.9728  2.1779
  506MOL0     H68303   9.058   6.000   7.403 -0.4247 -1.0349  1.0836
  506MOL0     H68304   9.109   5.800   7.465 -0.5932  2.6947 -3.8207
  506MOL0     H68305   9.099   5.885   7.617 -0.9108 -2.4261 -0.1692
  506MOL0     H68306   9.317   5.796   7.668  1.1308  1.0646  0.1286
  506MOL0     H68307   9.378   5.873   7.527 -0.3259 -0.7496 -0.0897
  506MOL0     H68308   9.378   5.483   7.391 -1.3831  1.4805 -4.1695
  506MOL0     H68309   9.197   6.349   7.653 -1.5768 -1.2052 -3.8332
  506MOL0     H68310   9.298   6.549   7.776 -0.8836 -2.2216  0.8749
  507MOL0     O68311   7.133  11.474  11.248 -0.1599 -0.1536 -0.5181
  507MOL0     C68312   7.212  11.444  11.329  0.0093  0.2853 -0.2869
  507MOL0     O68313   7.315  11.513  11.371 -0.4034 -0.9753  0.4201
  507MOL0     C68314   7.344  11.637  11.318 -0.1903  1.2392 -0.5882
  507MOL0     C68315   7.256  11.743  11.313  0.1552  0.2739  0.8212
  507MOL0     C68316   7.286  11.862  11.259  0.0370 -0.2772  0.9965
  507MOL0     C68317   7.411  11.889  11.207  0.5650 -0.4449  0.0768
  507MOL0     O68318   7.452  12.002  11.142  0.2558 -0.4386 -0.0890
  507MOL0     C68319   7.369  12.113  11.156  1.2107 -0.3375 -0.5616
  507MOL0     C68320   7.425  12.248  11.100  0.0364 -0.7451  0.1154
  507MOL0     C68321   7.327  12.364  11.130  0.5661 -0.0417 -0.3775
  507MOL0     C68322   7.389  12.496  11.086  0.5106  0.7068 -0.1877
  507MOL0     C68323   7.306  12.623  11.113 -0.2856  0.0080  0.7403
  507MOL0     C68324   7.292  12.667  11.261 -0.0188  0.4442  0.4563
  507MOL0     C68325   7.214  12.798  11.278 -0.0221 -0.6450  0.2007
  507MOL0     C68326   7.302  12.903  11.346 -0.2205 -0.3838 -0.5198
  507MOL0     N68327   7.248  13.032  11.361  0.3369 -0.5513  0.5614
  507MOL0     C68328   7.133  13.075  11.418  0.8150  0.0288 -0.3114
  507MOL0     C68329   7.125  13.208  11.397  0.0152 -0.8388  0.6087
  507MOL0     C68330   7.027  13.313  11.433 -0.6449  0.5110 -0.5653
  507MOL0     C68331   6.915  13.258  11.526  0.2965  0.7161 -0.2252
  507MOL0     C68332   6.860  13.368  11.617  0.5155 -0.8975 -0.4652
  507MOL0     C68333   6.783  13.311  11.740  0.2349 -0.8387 -0.5304
  507MOL0     O68334   6.714  13.199  11.701  0.5277  0.2193 -0.7910
  507MOL0     C68335   6.598  13.184  11.770 -0.3739  0.3314 -1.0787
  507MOL0     C68336   6.604  13.159  11.909 -0.6658  0.0298 -0.4876
  507MOL0     C68337   6.481  13.131  11.979  0.1263  0.0369  0.0097
  507MOL0     C68338   6.491  13.109  12.127  0.7746 -0.1573 -0.5315
  507MOL0     C68339   6.358  13.131  11.909  0.4395  0.0062 -0.1417
  507MOL0     C68340   6.232  13.106  11.975  0.4251  0.5035 -0.2359
  507MOL0     O68341   6.223  13.002  12.066  0.0247  1.5689 -0.0057
  507MOL0     C68342   6.096  12.958  12.098 -0.5571 -1.1317 -0.2904
  507MOL0     C68343   6.021  13.008  12.205 -0.2585  0.2108 -0.6185
  507MOL0     C68344   5.890  12.971  12.221 -0.5087 -0.5107  0.0515
  507MOL0     C68345   5.835  12.876  12.133  0.2561  0.3494  0.7632
  507MOL0     O68346   5.713  12.817  12.147  0.7799  0.0001  0.1083
  507MOL0     C68347   5.678  12.791  12.283 -0.4575  0.1927 -0.6313
  507MOL0     C68348   5.561  12.687  12.279 -0.7901 -0.0702  0.6997
  507MOL0     C68349   5.520  12.652  12.427 -1.0667 -0.9353  0.3163
  507MOL0     C68350   5.398  12.573  12.427  0.5039 -0.0362  0.7876
  507MOL0     C68351   5.360  12.544  12.562  0.6200  0.5576 -0.5847
  507MOL0     C68352   5.240  12.446  12.580  0.0940  0.7368 -0.3774
  507MOL0     C68353   5.192  12.467  12.731 -1.0804 -0.5915 -0.4014
  507MOL0     C68354   5.075  12.366  12.750  0.1372  0.3260  0.0626
  507MOL0    Cl68355   5.015  12.363  12.915  0.1972  0.9271 -0.0463
  507MOL0     C68356   5.907  12.838  12.021  0.2747  0.1030  0.5950
  507MOL0     C68357   6.040  12.871  12.009 -0.4517  0.0910  0.0933
  507MOL0     O68358   6.128  13.175  11.935 -0.0019 -0.6279  0.6451
  507MOL0     C68359   6.361  13.153  11.771  0.4262  0.1092 -0.3895
  507MOL0     C68360   6.481  13.176  11.705  0.6442 -0.1808  0.8263
  507MOL0     N68361   7.236  13.242  11.327  0.8136  0.5001 -0.0887
  507MOL0     N68362   7.305  13.136  11.303  0.6065 -0.7224  0.2739
  507MOL0     C68363   7.501  11.785  11.217 -0.6662  0.5855  1.2352
  507MOL0     C68364   7.481  11.655  11.272  0.6909  0.2066  0.2512
  507MOL0     C68365   7.173  11.333  11.417  0.1557  0.8041 -0.0341
  507MOL0     C68366   7.047  11.264  11.402 -0.5360  0.1791  0.1945
  507MOL0     C68367   7.012  11.160  11.486 -0.2991 -0.3015  0.5014
  507MOL0     C68368   7.077  11.139  11.603 -0.2660 -0.4810 -0.4262
  507MOL0     O68369   7.026  11.030  11.665  0.3284  0.5299 -0.5248
  507MOL0     C68370   7.088  10.998  11.793  0.0014 -0.4041  0.0051
  507MOL0     C68371   7.203  10.900  11.777 -0.0227  0.5502 -0.0215
  507MOL0     C68372   7.157  10.761  11.750 -0.0147 -0.6668  0.7643
  507MOL0     C68373   7.282  10.669  11.705 -0.3230  0.0345 -0.5454
  507MOL0     C68374   7.362  10.623  11.822  0.7424 -0.1804  0.4307
  507MOL0     C68375   7.424  10.607  11.922 -0.1584 -0.1254 -0.3423
  507MOL0     C68376   7.203  11.214  11.632  1.4198 -0.5133  1.2463
  507MOL0     C68377   7.250  11.299  11.535 -0.0700  0.1639  0.5081
  507MOL0     H68378   7.152  11.717  11.334  0.2581 -1.3676 -0.5205
  507MOL0     H68379   7.213  11.942  11.256 -2.2706 -2.2677  0.1970
  507MOL0     H68380   7.276  12.097  11.101 -0.1594 -0.6781  1.7493
  507MOL0     H68381   7.345  12.130  11.261  3.2318  1.9194 -0.3515
  507MOL0     H68382   7.520  12.264  11.152 -1.1672  1.7219  1.7388
  507MOL0     H68383   7.459  12.242  10.996  1.1179  3.6188  0.0161
  507MOL0     H68384   7.230  12.351  11.080  1.4930  0.8036 -2.5371
  507MOL0     H68385   7.296  12.373  11.234 -1.4777  0.2180 -0.9605
  507MOL0     H68386   7.490  12.504  11.127  0.1038 -1.1138  1.3155
  507MOL0     H68387   7.390  12.487  10.976 -4.7564 -0.4906 -0.4284
  507MOL0     H68388   7.365  12.700  11.061  2.0211 -2.5760 -0.7355
  507MOL0     H68389   7.206  12.615  11.070 -0.1717  3.9943 -0.6859
  507MOL0     H68390   7.236  12.591  11.316 -1.2583 -0.4106 -1.8493
  507MOL0     H68391   7.395  12.670  11.299  0.8337  0.7084 -1.6859
  507MOL0     H68392   7.186  12.840  11.181  0.9094  1.5616  0.8248
  507MOL0     H68393   7.127  12.773  11.339 -1.5051  2.5660 -0.4002
  507MOL0     H68394   7.402  12.904  11.301  0.4082 -0.4062  0.8332
  507MOL0     H68395   7.301  12.864  11.448  0.1817 -0.5028 -0.5617
  507MOL0     H68396   7.068  13.002  11.465  2.6434 -1.5772 -0.1691
  507MOL0     H68397   7.072  13.406  11.469 -1.3137  0.7105 -0.2428
  507MOL0     H68398   6.973  13.339  11.342 -4.0400 -1.6586  0.6481
  507MOL0     H68399   6.965  13.183  11.587  0.0466  2.0255  1.6734
  507MOL0     H68400   6.842  13.207  11.463 -1.6979  0.5385  2.1050
  507MOL0     H68401   6.785  13.434  11.573  0.2930 -0.3422  0.6941
  507MOL0     H68402   6.933  13.443  11.650 -3.6209  3.5664 -0.3853
  507MOL0     H68403   6.712  13.392  11.759  1.3829  0.9182 -3.1391
  507MOL0     H68404   6.844  13.294  11.829  0.2345  1.9161  0.0892
  507MOL0     H68405   6.702  13.164  11.954  1.2370  2.3162 -4.3834
  507MOL0     H68406   6.404  13.150  12.180 -0.1477 -1.2958 -1.1101
  507MOL0     H68407   6.484  13.001  12.146 -2.7994 -0.0092 -0.2896
  507MOL0     H68408   6.590  13.141  12.163  0.3608  1.7852 -1.0220
  507MOL0     H68409   6.051  13.080  12.281 -1.7015 -0.5059  0.6990
  507MOL0     H68410   5.836  13.008  12.307 -2.2458  0.8282 -1.5375
  507MOL0     H68411   5.763  12.756  12.342 -2.7755  0.4343  3.2041
  507MOL0     H68412   5.634  12.883  12.322 -1.5832 -2.0071  4.0188
  507MOL0     H68413   5.481  12.742  12.230 -1.3236  0.0242  1.6497
  507MOL0     H68414   5.589  12.600  12.219  0.6006  0.5164  0.4577
  507MOL0     H68415   5.488  12.745  12.475  0.0205  0.7152 -1.9910
  507MOL0     H68416   5.603  12.604  12.479 -0.1338 -1.8157 -1.8536
  507MOL0     H68417   5.321  12.632  12.377  0.2841  0.6961  1.9683
  507MOL0     H68418   5.404  12.481  12.366 -0.0122  0.8369 -0.6234
  507MOL0     H68419   5.334  12.643  12.601 -0.6915 -0.6484  1.8221
  507MOL0     H68420   5.442  12.506  12.624 -1.6733  0.3368  2.5648
  507MOL0     H68421   5.158  12.469  12.511  0.3156 -2.6469 -1.9790
  507MOL0     H68422   5.256  12.341  12.551 -2.1205 -0.0395  0.9167
  507MOL0     H68423   5.158  12.571  12.739  1.2025  0.1390  0.7866
  507MOL0     H68424   5.271  12.457  12.806  0.6178 -2.2949 -2.3275
  507MOL0     H68425   5.118  12.267  12.730  2.2855  1.1987  0.0607
  507MOL0     H68426   5.002  12.387  12.672 -1.0388  1.0479  1.3154
  507MOL0     H68427   5.844  12.781  11.953 -3.5323  4.2808  0.1589
  507MOL0     H68428   6.098  12.856  11.919  1.7562 -0.6182  1.5634
  507MOL0     H68429   6.267  13.172  11.720  2.0293  4.4348 -2.2260
  507MOL0     H68430   6.487  13.172  11.597 -0.2068 -2.1082  0.8250
  507MOL0     H68431   7.595  11.822  11.177 -1.1505 -0.3264 -0.8861
  507MOL0     H68432   7.564  11.588  11.288  0.4313 -0.8527 -2.2596
  507MOL0     H68433   6.974  11.282  11.324  1.1494 -2.4747 -2.1654
  507MOL0     H68434   6.924  11.101  11.465  1.8841 -3.1934 -1.1561
  507MOL0     H68435   7.119  11.093  11.836 -0.7711  0.6662 -1.6804
  507MOL0     H68436   7.007  10.950  11.850  0.0223  1.0994  1.3347
  507MOL0     H68437   7.263  10.899  11.868  0.2931 -0.0483 -0.2307
  507MOL0     H68438   7.260  10.938  11.692 -0.7730 -1.7796 -1.6632
  507MOL0     H68439   7.090  10.756  11.664  2.2789  3.2996 -1.5553
  507MOL0     H68440   7.121  10.721  11.846 -1.4155  0.3947  0.7020
  507MOL0     H68441   7.357  10.712  11.637  1.6911 -2.9550 -0.4009
  507MOL0     H68442   7.237  10.586  11.651  2.4331 -0.3891 -2.3758
  507MOL0     H68443   7.471  10.583  12.015 -2.9251 -2.2366  0.6511
  507MOL0     H68444   7.252  11.191  11.726  0.5841 -0.6637  1.6563
  507MOL0     H68445   7.346  11.343  11.560 -0.2240 -0.0509  1.4971
  508MOL0     O68446   6.588   4.265  10.254  0.4978  0.3033  0.6056
  508MOL0     C68447   6.549   4.155  10.202 -0.7480  0.5583 -0.2845
  508MOL0     O68448   6.601   4.032  10.231 -0.6310 -0.2717 -0.5724
  508MOL0     C68449   6.694   4.014  10.333  0.0217  0.2637 -0.1802
  508MOL0     C68450   6.686   4.091  10.449 -0.6401 -0.6336 -0.4256
  508MOL0     C68451   6.791   4.092  10.545  0.7197  0.4758 -0.7755
  508MOL0     C68452   6.895   4.000  10.538  0.5029  0.0070  0.5733
  508MOL0     O68453   7.006   4.011  10.623  0.0278  0.3653 -0.5013
  508MOL0     C68454   7.097   3.897  10.633 -0.6646  0.4649  0.0589
  508MOL0     C68455   7.200   3.925  10.737 -0.3674 -0.1957  0.6404
  508MOL0     C68456   7.298   3.804  10.768 -0.3713 -0.1635 -1.2946
  508MOL0     C68457   7.407   3.778  10.662 -0.0667 -0.5244  0.7398
  508MOL0     C68458   7.515   3.678  10.720  0.7126  0.4353  1.6167
  508MOL0     C68459   7.607   3.656  10.601  0.6935 -0.2693  0.3525
  508MOL0     C68460   7.719   3.551  10.634  0.0174  0.3894  0.4741
  508MOL0     C68461   7.810   3.512  10.506 -0.4962 -0.4559  0.1556
  508MOL0     N68462   7.754   3.409  10.419  0.3179 -0.1421 -0.1345
  508MOL0     C68463   7.667   3.424  10.309 -0.8289 -0.1751 -0.6139
  508MOL0     C68464   7.645   3.298  10.269 -0.3806  0.0322 -0.2419
  508MOL0     C68465   7.567   3.253  10.155 -0.2044 -0.3639  0.1558
  508MOL0     C68466   7.659   3.219  10.039 -0.5186  0.1924  0.1566
  508MOL0     C68467   7.576   3.179   9.921 -0.2278  1.2713  0.4906
  508MOL0     C68468   7.646   3.131   9.793 -0.9210  0.2246  0.9955
  508MOL0     O68469   7.605   3.000   9.740 -0.2956  0.2833 -0.8875
  508MOL0     C68470   7.646   2.938   9.625 -0.3443  0.5241  0.2135
  508MOL0     C68471   7.607   2.806   9.610 -0.1384 -1.0969  0.0390
  508MOL0     C68472   7.632   2.733   9.491  0.4232  0.5732 -0.8125
  508MOL0     C68473   7.565   2.604   9.483 -0.3662 -0.0548 -0.2373
  508MOL0     C68474   7.689   2.797   9.381 -0.7715 -0.0543  0.3700
  508MOL0     C68475   7.687   2.743   9.240  0.2848 -0.5479  0.4678
  508MOL0     O68476   7.805   2.766   9.173 -0.1142 -0.3572 -0.2933
  508MOL0     C68477   7.841   2.729   9.050 -0.7689 -0.3705  0.4138
  508MOL0     C68478   7.751   2.726   8.940 -0.0041  0.0128 -0.0282
  508MOL0     C68479   7.790   2.702   8.809 -0.0174  0.0821 -0.1554
  508MOL0     C68480   7.920   2.674   8.787 -0.2517 -0.2408  0.8662
  508MOL0     O68481   7.968   2.662   8.657  0.4219  0.3840 -0.2500
  508MOL0     C68482   8.080   2.575   8.632 -0.6339  0.3492  0.1920
  508MOL0     C68483   8.078   2.556   8.479  0.0951  0.6699  0.4059
  508MOL0     C68484   8.074   2.407   8.449  0.6104 -0.0477 -0.5713
  508MOL0     C68485   8.196   2.323   8.504 -0.1940  1.2628  0.0811
  508MOL0     C68486   8.194   2.177   8.430 -0.2016 -0.8991  0.0757
  508MOL0     C68487   8.321   2.158   8.349 -0.1996  1.3727 -0.3186
  508MOL0     C68488   8.321   2.031   8.249 -0.1724 -0.1503 -0.3930
  508MOL0     C68489   8.368   2.065   8.103  0.5041  0.5487 -0.2252
  508MOL0    Cl68490   8.535   2.133   8.085  0.1116  0.1638  0.3054
  508MOL0     C68491   8.011   2.666   8.894  0.1257 -0.2160 -0.1578
  508MOL0     C68492   7.975   2.701   9.026 -0.0502 -0.5282 -0.1232
  508MOL0     O68493   7.588   2.703   9.189  0.2106 -0.2113  0.1289
  508MOL0     C68494   7.744   2.921   9.401  0.2081 -0.0025  1.4362
  508MOL0     C68495   7.727   2.992   9.519  0.8134 -0.9437  1.1798
  508MOL0     N68496   7.701   3.208  10.362  1.1395  0.2264 -0.1776
  508MOL0     N68497   7.775   3.278  10.442 -0.2502  0.0681 -0.6084
  508MOL0     C68498   6.896   3.910  10.431 -0.1311  0.4889  0.2331
  508MOL0     C68499   6.792   3.910  10.337 -0.4711 -0.5793 -0.2880
  508MOL0     C68500   6.449   4.151  10.100  0.3560 -0.0079  0.6625
  508MOL0     C68501   6.436   4.247  10.001 -0.0957 -0.2548  0.4030
  508MOL0     C68502   6.328   4.245   9.914  0.0596  0.1617  0.3206
  508MOL0     C68503   6.227   4.150   9.913  0.7156 -1.5596 -0.0305
  508MOL0     O68504   6.129   4.169   9.826  0.2747  0.7373 -0.7144
  508MOL0     C68505   6.030   4.077   9.797 -0.5309 -0.2370 -0.3036
  508MOL0     C68506   6.069   4.002   9.677  1.3462 -0.1757 -0.7301
  508MOL0     C68507   5.955   3.910   9.625  0.8129  0.8218  0.0209
  508MOL0     C68508   6.010   3.812   9.517 -0.4821 -0.2055  0.6778
  508MOL0     C68509   6.061   3.895   9.406 -0.4981 -0.0576  0.1002
  508MOL0     C68510   6.107   3.950   9.305  0.1574 -0.4753  0.4759
  508MOL0     C68511   6.243   4.050  10.015 -0.2359 -0.0448  0.2661
  508MOL0     C68512   6.354   4.046  10.101 -0.6377  0.1953  0.0022
  508MOL0     H68513   6.593   4.146  10.457  0.3379  0.9904  0.2122
  508MOL0     H68514   6.785   4.160  10.629  1.3579  1.2538 -1.3453
  508MOL0     H68515   7.049   3.804  10.663  0.7037  0.0361  1.0136
  508MOL0     H68516   7.138   3.864  10.537 -3.2197 -0.0318 -0.9368
  508MOL0     H68517   7.259   4.013  10.711 -1.3178  0.4002  0.4539
  508MOL0     H68518   7.143   3.943  10.829  0.5717  0.5184  1.0940
  508MOL0     H68519   7.345   3.830  10.863 -1.1011  0.9773 -1.2342
  508MOL0     H68520   7.232   3.716  10.769 -1.3855  0.5053 -3.6393
  508MOL0     H68521   7.359   3.744  10.570  2.2697 -2.2035  0.0513
  508MOL0     H68522   7.444   3.876  10.630 -1.4802  0.4137  1.8824
  508MOL0     H68523   7.557   3.718  10.813 -0.8955  0.3522  2.4248
  508MOL0     H68524   7.455   3.590  10.747 -1.8776  2.0518  1.5220
  508MOL0     H68525   7.550   3.623  10.514  3.2213 -1.8813 -0.8145
  508MOL0     H68526   7.646   3.757  10.586 -0.1610  1.2486  5.9335
  508MOL0     H68527   7.789   3.602  10.701  0.0203  0.2246  0.5974
  508MOL0     H68528   7.680   3.466  10.690  0.2543  1.9012  3.1155
  508MOL0     H68529   7.905   3.475  10.547 -0.5209  0.9660  1.6067
  508MOL0     H68530   7.828   3.607  10.455 -1.2003 -0.6078 -0.3938
  508MOL0     H68531   7.632   3.514  10.260 -1.6269 -0.0700  0.1280
  508MOL0     H68532   7.515   3.159  10.175 -0.7353  0.1375  1.2119
  508MOL0     H68533   7.508   3.341  10.128 -0.8694 -0.4092  1.3962
  508MOL0     H68534   7.731   3.140  10.065  1.2117  2.2421  1.9089
  508MOL0     H68535   7.716   3.307  10.009 -2.5240  2.1744  1.8718
  508MOL0     H68536   7.516   3.268   9.898 -1.5183  0.5932  1.1513
  508MOL0     H68537   7.500   3.110   9.959 -1.4256  2.1006 -0.3035
  508MOL0     H68538   7.753   3.130   9.814  0.0967  1.1993 -3.3173
  508MOL0     H68539   7.632   3.195   9.705  0.1253  0.1141  0.7443
  508MOL0     H68540   7.544   2.761   9.686 -2.1070  2.3267  0.6597
  508MOL0     H68541   7.622   2.522   9.528 -0.0577  1.0909  1.5320
  508MOL0     H68542   7.472   2.603   9.541  0.4195 -1.5762  1.0600
  508MOL0     H68543   7.551   2.571   9.379  0.1463  0.1211 -0.3684
  508MOL0     H68544   7.645   2.745   8.949  0.0725 -0.0000  0.9516
  508MOL0     H68545   7.716   2.706   8.729  0.0818  3.8330 -0.2146
  508MOL0     H68546   8.178   2.615   8.662  0.6357 -2.7049  0.4459
  508MOL0     H68547   8.091   2.486   8.694  1.8089 -0.4456 -1.2201
  508MOL0     H68548   7.982   2.598   8.447 -0.6747 -0.2992  1.3715
  508MOL0     H68549   8.158   2.609   8.427  0.7529  0.9667  1.6710
  508MOL0     H68550   8.081   2.398   8.340  1.9318 -0.8110 -0.4407
  508MOL0     H68551   7.981   2.364   8.488 -0.4653 -0.2822 -3.2129
  508MOL0     H68552   8.287   2.382   8.497  0.3134  0.7050  1.5047
  508MOL0     H68553   8.185   2.324   8.613  2.9995  2.0545  0.4851
  508MOL0     H68554   8.103   2.154   8.374 -0.3339 -2.5580  0.9068
  508MOL0     H68555   8.204   2.097   8.503  0.9291 -2.4200 -1.6703
  508MOL0     H68556   8.349   2.251   8.298  0.9234  1.6700  0.7856
  508MOL0     H68557   8.404   2.137   8.417 -1.2021 -1.1513  0.2423
  508MOL0     H68558   8.220   1.991   8.236 -0.9887  2.1293 -1.5775
  508MOL0     H68559   8.381   1.948   8.287 -1.4613  0.1054  2.3859
  508MOL0     H68560   8.287   2.127   8.065 -0.2189 -0.4015 -0.2558
  508MOL0     H68561   8.371   1.971   8.047  2.5164  1.0463 -1.0808
  508MOL0     H68562   8.117   2.648   8.876 -0.0334 -0.1668 -1.1990
  508MOL0     H68563   8.043   2.704   9.111 -0.5548  0.0912  0.2661
  508MOL0     H68564   7.781   2.977   9.316 -2.4302 -0.8450 -0.3947
  508MOL0     H68565   7.757   3.096   9.513  0.1645 -0.8277 -2.8554
  508MOL0     H68566   6.982   3.846  10.418  1.0872  1.9610  0.7936
  508MOL0     H68567   6.792   3.851  10.245 -2.1081  1.3079 -1.5824
  508MOL0     H68568   6.507   4.328   9.992  0.4989 -0.8631 -0.5162
  508MOL0     H68569   6.328   4.320   9.835 -1.6333  0.2658  0.3772
  508MOL0     H68570   6.005   4.011   9.880  2.0026 -0.1056  0.6426
  508MOL0     H68571   5.947   4.143   9.770 -1.5225  0.5311  3.8878
  508MOL0     H68572   6.167   3.955   9.693  0.7590 -1.6604 -1.2483
  508MOL0     H68573   6.092   4.079   9.603 -0.7296  1.7629  0.5456
  508MOL0     H68574   5.873   3.965   9.576 -1.5174 -1.8802  0.5925
  508MOL0     H68575   5.911   3.848   9.703  0.7642  1.0817  0.2017
  508MOL0     H68576   5.938   3.740   9.480 -0.2180  0.7941 -2.0136
  508MOL0     H68577   6.096   3.761   9.562 -0.9289  1.3838  3.6123
  508MOL0     H68578   6.154   3.990   9.217  0.5439 -4.1222 -1.1407
  508MOL0     H68579   6.163   3.979  10.031  1.5898 -2.5061 -0.8387
  508MOL0     H68580   6.361   3.957  10.162  0.0835 -0.6610 -1.2676
  509MOL0     O68581   1.561   3.415   4.146 -0.0300  0.1367 -0.3906
  509MOL0     C68582   1.651   3.481   4.197  0.1988  0.9424 -0.5888
  509MOL0     O68583   1.771   3.441   4.251 -0.3583  0.2199 -0.0325
  509MOL0     C68584   1.780   3.319   4.301 -0.4065  0.0928 -0.2757
  509MOL0     C68585   1.897   3.246   4.277 -0.1740 -0.0707 -0.1162
  509MOL0     C68586   1.919   3.126   4.345  0.1899 -0.5637 -0.1431
  509MOL0     C68587   1.816   3.076   4.422 -0.0348  1.1348 -0.7126
  509MOL0     O68588   1.829   2.947   4.475 -0.6566  0.1948 -0.3615
  509MOL0     C68589   1.708   2.870   4.482  0.5676 -0.6736 -0.7689
  509MOL0     C68590   1.751   2.721   4.477  0.1203 -0.3879 -0.8861
  509MOL0     C68591   1.824   2.691   4.348 -0.0985 -0.4094  0.3908
  509MOL0     C68592   1.868   2.541   4.347  0.2331  0.0232  0.3239
  509MOL0     C68593   1.984   2.523   4.237  0.4390 -0.2151 -0.3755
  509MOL0     C68594   2.013   2.379   4.222 -1.0513 -0.1031 -0.2357
  509MOL0     C68595   2.167   2.352   4.198  0.0153 -0.1516 -0.8553
  509MOL0     C68596   2.206   2.210   4.244 -0.9683 -0.1990 -0.2972
  509MOL0     N68597   2.350   2.192   4.209 -1.0042  0.3684 -0.0545
  509MOL0     C68598   2.408   2.175   4.088  0.4063 -0.0094  0.3755
  509MOL0     C68599   2.542   2.168   4.102 -0.1096 -0.2763 -1.2580
  509MOL0     C68600   2.649   2.144   3.995  0.1278  0.4674  0.0062
  509MOL0     C68601   2.795   2.161   4.039  0.4050  0.2412  0.0203
  509MOL0     C68602   2.894   2.173   3.927  0.9791  0.0347  0.3396
  509MOL0     C68603   3.025   2.246   3.949  0.0679 -0.1918 -0.6986
  509MOL0     O68604   3.082   2.208   4.070  0.1415 -0.6228 -0.4130
  509MOL0     C68605   3.218   2.219   4.088  0.8493  0.9687  0.6504
  509MOL0     C68606   3.276   2.142   4.185  0.2894 -0.1749 -0.1561
  509MOL0     C68607   3.419   2.147   4.223  0.4672  0.0895 -0.4009
  509MOL0     C68608   3.455   2.065   4.337  0.2041  0.8171 -0.9349
  509MOL0     C68609   3.503   2.239   4.157  0.9640  0.8959 -0.1487
  509MOL0     C68610   3.638   2.276   4.193 -0.1524 -0.1432 -0.5475
  509MOL0     O68611   3.712   2.197   4.282 -0.2545 -0.5800 -0.6963
  509MOL0     C68612   3.837   2.237   4.316 -0.3071 -0.9036 -0.6362
  509MOL0     C68613   3.858   2.321   4.418  0.5823  0.3839 -0.8921
  509MOL0     C68614   3.988   2.369   4.454  0.6725 -0.5364 -0.0818
  509MOL0     C68615   4.100   2.331   4.383  0.4508  0.7341  0.3725
  509MOL0     O68616   4.222   2.371   4.427 -0.1461 -0.9601 -0.5459
  509MOL0     C68617   4.344   2.349   4.364 -0.7439  0.4884  1.1735
  509MOL0     C68618   4.438   2.456   4.417 -0.1423 -0.0836  0.0716
  509MOL0     C68619   4.573   2.459   4.342 -0.8822  0.7861 -0.8399
  509MOL0     C68620   4.681   2.555   4.387  0.4015 -0.6457  0.1346
  509MOL0     C68621   4.811   2.543   4.305 -0.9713 -0.2548  0.0964
  509MOL0     C68622   4.936   2.558   4.385 -0.0813 -0.9081  0.0896
  509MOL0     C68623   5.061   2.517   4.311 -0.2692  0.4730  0.5280
  509MOL0     C68624   5.177   2.465   4.397 -1.3739 -1.2815 -0.5593
  509MOL0    Cl68625   5.245   2.619   4.472  0.3381  0.3347  0.2340
  509MOL0     C68626   4.080   2.239   4.279  0.2244  0.3224  0.1483
  509MOL0     C68627   3.952   2.197   4.247 -0.5220 -0.1554  0.7921
  509MOL0     O68628   3.682   2.378   4.132 -0.1267 -0.0061 -0.0187
  509MOL0     C68629   3.435   2.324   4.058  0.0964 -0.1561  0.2107
  509MOL0     C68630   3.303   2.304   4.016  0.0455 -0.0464  0.4726
  509MOL0     N68631   2.565   2.178   4.236 -0.6280  0.0177  0.2857
  509MOL0     N68632   2.454   2.175   4.299  0.1419 -0.0668  0.2766
  509MOL0     C68633   1.698   3.143   4.442  0.5174  0.3751 -0.1959
  509MOL0     C68634   1.680   3.270   4.381  0.3212  0.7137 -0.9344
  509MOL0     C68635   1.624   3.625   4.204  0.3136 -1.0339 -0.1652
  509MOL0     C68636   1.504   3.686   4.147  0.4578  0.1958  0.6996
  509MOL0     C68637   1.485   3.824   4.146  0.4041 -0.7998 -0.5642
  509MOL0     C68638   1.585   3.915   4.188  0.4595  0.0025 -0.3319
  509MOL0     O68639   1.563   4.049   4.169 -1.0398 -0.5599 -0.2992
  509MOL0     C68640   1.675   4.156   4.187  0.7616 -0.1747  0.0325
  509MOL0     C68641   1.606   4.282   4.131  0.3965 -0.7695  0.0413
  509MOL0     C68642   1.708   4.395   4.141  0.3416 -0.3770 -0.3150
  509MOL0     C68643   1.650   4.525   4.093  0.1957  0.6024  0.0262
  509MOL0     C68644   1.591   4.604   4.198  0.4830 -0.1125 -0.4871
  509MOL0     C68645   1.562   4.677   4.288  0.3832  0.2089 -0.3621
  509MOL0     C68646   1.704   3.860   4.237  0.3398 -0.0865 -0.1480
  509MOL0     C68647   1.720   3.717   4.247  0.5432  0.2392  0.1996
  509MOL0     H68648   1.978   3.285   4.216  1.0866  2.0535  2.6472
  509MOL0     H68649   2.014   3.074   4.336  1.4506  1.7101 -0.8831
  509MOL0     H68650   1.652   2.891   4.573  2.5732 -1.5259  0.7606
  509MOL0     H68651   1.654   2.899   4.392 -0.1192  2.2339  0.4902
  509MOL0     H68652   1.812   2.693   4.564 -2.0788 -2.1648  0.1867
  509MOL0     H68653   1.661   2.663   4.500 -0.3159 -0.3017 -2.2662
  509MOL0     H68654   1.751   2.705   4.267  0.4261 -1.2629 -0.2493
  509MOL0     H68655   1.916   2.751   4.344  0.5989 -1.5101 -1.2735
  509MOL0     H68656   1.907   2.514   4.445  0.7729  0.8414  0.3410
  509MOL0     H68657   1.785   2.474   4.321 -0.5329  0.1312  2.3580
  509MOL0     H68658   1.961   2.559   4.136 -3.3069 -0.4065  0.2948
  509MOL0     H68659   2.065   2.590   4.269 -1.2817  0.4471  2.9122
  509MOL0     H68660   1.998   2.340   4.324  1.3644 -2.2294 -0.5818
  509MOL0     H68661   1.951   2.331   4.146 -1.0832 -0.4900  0.0322
  509MOL0     H68662   2.186   2.373   4.092  1.9690  1.3578 -0.2521
  509MOL0     H68663   2.220   2.436   4.244 -1.5913  0.2488  0.3380
  509MOL0     H68664   2.144   2.134   4.195  0.0342  0.3536 -2.6023
  509MOL0     H68665   2.201   2.184   4.350  0.3484  2.1451  0.4273
  509MOL0     H68666   2.354   2.168   3.995 -0.9009  1.0739  1.0145
  509MOL0     H68667   2.627   2.044   3.955  0.5260  0.4231 -0.1068
  509MOL0     H68668   2.638   2.218   3.915  1.7359 -4.0715 -4.9744
  509MOL0     H68669   2.826   2.076   4.100 -1.2814  0.1599  0.8061
  509MOL0     H68670   2.813   2.247   4.104  0.5502 -0.5450  1.0451
  509MOL0     H68671   2.854   2.227   3.840 -0.1438  0.7363  1.2708
  509MOL0     H68672   2.906   2.072   3.886  0.6080  0.5505 -1.1309
  509MOL0     H68673   3.011   2.353   3.932  2.4580  0.2505 -0.2393
  509MOL0     H68674   3.081   2.204   3.866 -2.7920 -0.0430 -2.8453
  509MOL0     H68675   3.201   2.072   4.221 -0.3586 -0.2474 -1.5800
  509MOL0     H68676   3.505   2.122   4.417  3.0726 -3.5375  0.7200
  509MOL0     H68677   3.366   2.027   4.387  1.8122  1.0425  2.3644
  509MOL0     H68678   3.532   1.988   4.325 -1.3911 -1.7668  3.2006
  509MOL0     H68679   3.775   2.344   4.484  0.1855 -0.5895 -1.0438
  509MOL0     H68680   4.004   2.448   4.527  1.8303 -2.3941  1.7686
  509MOL0     H68681   4.372   2.245   4.382 -2.9517 -0.7087 -1.4813
  509MOL0     H68682   4.335   2.372   4.258  1.2285 -1.5680  0.4851
  509MOL0     H68683   4.379   2.548   4.411  0.9367  0.5373 -3.3325
  509MOL0     H68684   4.474   2.431   4.517  0.4866 -2.2121 -0.6323
  509MOL0     H68685   4.555   2.509   4.246 -0.6118  0.4821 -1.0504
  509MOL0     H68686   4.604   2.355   4.334 -0.2185  0.4382  3.7820
  509MOL0     H68687   4.639   2.656   4.387 -0.1902 -0.8750  0.9931
  509MOL0     H68688   4.692   2.529   4.493 -1.7223  3.1532  1.5038
  509MOL0     H68689   4.809   2.592   4.207  0.2856 -3.3754 -1.6279
  509MOL0     H68690   4.820   2.440   4.270  2.1963  0.7613 -2.6357
  509MOL0     H68691   4.954   2.659   4.424  1.6840 -2.1844  2.9137
  509MOL0     H68692   4.943   2.503   4.479  2.0793  0.4909  0.8132
  509MOL0     H68693   5.102   2.596   4.247  1.6469  0.5029  1.7393
  509MOL0     H68694   5.036   2.433   4.245  1.6166 -0.6207  1.1261
  509MOL0     H68695   5.244   2.408   4.332 -1.4291  0.3808 -2.1680
  509MOL0     H68696   5.144   2.392   4.471  1.4947 -1.5839  0.5374
  509MOL0     H68697   4.170   2.210   4.225 -0.0800  3.3425 -2.2514
  509MOL0     H68698   3.939   2.130   4.162  2.5863  2.6384 -2.1824
  509MOL0     H68699   3.483   2.412   4.016  1.1687  0.1859  2.0735
  509MOL0     H68700   3.266   2.369   3.936 -2.7832  0.0788  1.7483
  509MOL0     H68701   1.617   3.107   4.505  0.0028  0.2184 -0.9387
  509MOL0     H68702   1.583   3.315   4.397 -0.1545 -0.6665  0.3334
  509MOL0     H68703   1.447   3.620   4.082  3.3787 -1.6567 -0.1906
  509MOL0     H68704   1.387   3.853   4.108  0.0819 -1.5697 -0.3402
  509MOL0     H68705   1.713   4.169   4.290 -1.1329  2.0783  0.5365
  509MOL0     H68706   1.761   4.134   4.122 -0.8989 -2.0497 -1.6469
  509MOL0     H68707   1.527   4.304   4.204 -0.2986 -0.4040 -0.8068
  509MOL0     H68708   1.567   4.272   4.029 -0.4073  0.4775  0.1953
  509MOL0     H68709   1.786   4.365   4.070  1.4658 -2.1397  1.5542
  509MOL0     H68710   1.755   4.403   4.240 -0.7623  0.6717  0.1521
  509MOL0     H68711   1.583   4.503   4.009  3.3333  3.2016 -3.5018
  509MOL0     H68712   1.730   4.581   4.044 -0.7732  3.2229  1.2910
  509MOL0     H68713   1.531   4.734   4.374 -0.1190  0.5030 -0.7294
  509MOL0     H68714   1.790   3.921   4.264 -1.0809  1.7098  0.5669
  509MOL0     H68715   1.814   3.677   4.285 -0.0772 -1.5648 -0.0389
  510MOL0     O68716   6.165   3.732  10.210  0.3096  0.7922 -0.8715
  510MOL0     C68717   6.092   3.676  10.295  0.3844 -0.1076  0.3134
  510MOL0     O68718   5.956   3.703  10.312 -0.3892 -0.7802  0.2736
  510MOL0     C68719   5.907   3.780  10.214 -0.3357  0.2280 -0.3332
  510MOL0     C68720   5.835   3.732  10.107 -0.2465 -0.1527 -0.3765
  510MOL0     C68721   5.783   3.819  10.003 -0.6605  0.6497 -0.6496
  510MOL0     C68722   5.804   3.958  10.016 -1.3976 -0.0061 -0.7869
  510MOL0     O68723   5.749   4.038   9.923 -0.0153 -0.3787 -0.2139
  510MOL0     C68724   5.607   4.028   9.887  0.1663  0.7712  0.1553
  510MOL0     C68725   5.564   4.155   9.816  0.3506 -0.5376  0.4533
  510MOL0     C68726   5.407   4.174   9.796 -0.1312  0.1759  0.1324
  510MOL0     C68727   5.353   4.105   9.666 -1.1432 -0.9018 -1.9282
  510MOL0     C68728   5.206   4.152   9.660  0.2260 -0.3269  0.3010
  510MOL0     C68729   5.130   4.063   9.558 -0.2729  0.2348  0.7990
  510MOL0     C68730   4.980   4.066   9.572  0.4435 -0.7769 -0.6974
  510MOL0     C68731   4.909   3.943   9.508  0.1267  0.2762  1.0382
  510MOL0     N68732   4.912   3.942   9.358  0.8484  0.8259  0.2039
  510MOL0     C68733   4.845   4.016   9.266 -0.5374 -0.4851  0.8898
  510MOL0     C68734   4.905   3.987   9.142  0.0724  0.8179  0.2191
  510MOL0     C68735   4.875   4.049   9.011 -0.4731 -0.1534  0.8482
  510MOL0     C68736   4.739   4.129   9.004  0.3458  0.1472 -0.6640
  510MOL0     C68737   4.731   4.217   8.876  0.1686  0.3066  0.0807
  510MOL0     C68738   4.585   4.279   8.860 -0.1891  0.1813  0.0014
  510MOL0     O68739   4.572   4.327   8.730 -0.3411 -0.0038  0.1612
  510MOL0     C68740   4.447   4.375   8.677 -0.0053  0.3834  0.2805
  510MOL0     C68741   4.343   4.396   8.766 -0.9642  0.0481  0.3061
  510MOL0     C68742   4.224   4.461   8.732 -0.4010  0.7126  0.4845
  510MOL0     C68743   4.121   4.466   8.836 -0.4095  0.4133  0.1702
  510MOL0     C68744   4.213   4.516   8.600  0.5159 -0.4032 -0.0738
  510MOL0     C68745   4.093   4.577   8.544 -0.6420 -0.0305 -0.0958
  510MOL0     O68746   3.977   4.543   8.604 -0.4573 -1.1445 -1.1287
  510MOL0     C68747   3.869   4.625   8.584  0.0834  0.2304  0.6342
  510MOL0     C68748   3.874   4.762   8.576 -0.7037 -0.3312 -0.5122
  510MOL0     C68749   3.775   4.849   8.534 -0.4586 -0.0524 -0.0539
  510MOL0     C68750   3.645   4.801   8.491  0.6665  0.2692 -0.0676
  510MOL0     O68751   3.555   4.879   8.425 -0.5840  0.0360 -0.3022
  510MOL0     C68752   3.422   4.831   8.429 -0.2764  0.0065 -0.4404
  510MOL0     C68753   3.329   4.941   8.361  0.9497  0.0931  0.1237
  510MOL0     C68754   3.337   4.990   8.215  0.3642  0.6201  1.0139
  510MOL0     C68755   3.220   5.083   8.188 -0.1193 -0.7024  0.3878
  510MOL0     C68756   3.220   5.205   8.284 -0.8958  0.3332 -0.2008
  510MOL0     C68757   3.119   5.318   8.243  0.1274  0.2622 -0.6282
  510MOL0     C68758   3.145   5.443   8.338  0.1399  0.1300  0.9713
  510MOL0     C68759   3.048   5.547   8.297 -0.3716 -0.9611  0.0766
  510MOL0    Cl68760   2.875   5.502   8.315  0.2247  0.2420  0.0577
  510MOL0     C68761   3.634   4.656   8.499 -0.4943 -0.2677 -0.1863
  510MOL0     C68762   3.741   4.573   8.540 -1.0565 -0.1455 -0.6653
  510MOL0     O68763   4.103   4.636   8.434  0.5613  0.3118  0.1415
  510MOL0     C68764   4.325   4.498   8.513  0.4763 -0.2841 -0.1109
  510MOL0     C68765   4.440   4.430   8.553 -0.8091 -0.5361 -0.3024
  510MOL0     N68766   5.002   3.893   9.164 -0.3616 -0.0133  0.4296
  510MOL0     N68767   5.005   3.870   9.291  0.7280 -0.4740  0.3663
  510MOL0     C68768   5.875   4.008  10.131 -0.1770 -0.4463  0.1650
  510MOL0     C68769   5.922   3.917  10.229  0.3402 -0.3101  0.7319
  510MOL0     C68770   6.168   3.597  10.405 -1.1219  0.1588 -0.0782
  510MOL0     C68771   6.095   3.533  10.507  0.2422  0.1845  0.2546
  510MOL0     C68772   6.159   3.485  10.619  0.0338 -0.3959  0.2902
  510MOL0     C68773   6.305   3.488  10.624 -0.7069  0.2712 -0.4713
  510MOL0     O68774   6.380   3.434  10.726 -0.4107  0.9231 -0.3828
  510MOL0     C68775   6.348   3.297  10.764 -0.1219  0.1067 -0.2809
  510MOL0     C68776   6.346   3.281  10.918  0.4185 -0.2299 -0.0978
  510MOL0     C68777   6.222   3.331  10.990 -0.2165  1.4200  0.0403
  510MOL0     C68778   6.213   3.249  11.117 -0.2990  0.0418 -0.1741
  510MOL0     C68779   6.076   3.201  11.138 -0.5485  0.6790  0.4640
  510MOL0     C68780   5.956   3.184  11.143 -0.5860  0.5280  0.0419
  510MOL0     C68781   6.377   3.542  10.518  0.3899  0.6437 -0.4253
  510MOL0     C68782   6.310   3.591  10.406  0.3969 -0.0721 -0.4349
  510MOL0     H68783   5.816   3.626  10.096  1.2762 -0.7486  2.0368
  510MOL0     H68784   5.728   3.776   9.921  3.1354  0.6673 -3.4976
  510MOL0     H68785   5.592   3.933   9.835  0.3241  1.3406 -0.9548
  510MOL0     H68786   5.550   4.024   9.981  0.0908  1.8591  0.1726
  510MOL0     H68787   5.603   4.241   9.871 -0.3500 -0.1203  0.3219
  510MOL0     H68788   5.607   4.154   9.716  2.4387 -0.5861  1.3045
  510MOL0     H68789   5.345   4.124   9.871  0.4152  1.4618  1.4856
  510MOL0     H68790   5.377   4.279   9.804 -3.9504 -0.5763 -1.9213
  510MOL0     H68791   5.408   4.134   9.576 -0.7430 -1.0843 -1.7473
  510MOL0     H68792   5.352   3.996   9.677  3.7015 -0.9467  1.0776
  510MOL0     H68793   5.149   4.145   9.753 -2.8039 -2.3708 -1.5128
  510MOL0     H68794   5.210   4.256   9.626  0.1836 -0.6941 -0.8904
  510MOL0     H68795   5.161   4.095   9.458 -3.8563 -1.3737 -0.9954
  510MOL0     H68796   5.157   3.957   9.569 -1.9026 -0.4015 -0.9415
  510MOL0     H68797   4.959   4.067   9.679 -3.7734  0.1238 -1.3874
  510MOL0     H68798   4.954   4.160   9.523 -0.3845  0.9529  2.7575
  510MOL0     H68799   4.802   3.951   9.533  0.2822 -1.4979  2.4896
  510MOL0     H68800   4.940   3.848   9.552 -2.3567 -0.6675  0.9409
  510MOL0     H68801   4.773   4.098   9.276  0.4169  0.5784 -0.6326
  510MOL0     H68802   4.959   4.113   8.983 -1.2266  1.0166  1.1975
  510MOL0     H68803   4.886   3.965   8.941  3.6777  1.5421 -0.8581
  510MOL0     H68804   4.734   4.197   9.089  3.4544  1.2683 -1.2769
  510MOL0     H68805   4.664   4.049   9.004  0.8700 -0.3677 -1.7577
  510MOL0     H68806   4.754   4.148   8.795  1.5985  2.1038 -1.1141
  510MOL0     H68807   4.798   4.303   8.870 -0.1166  1.0798  4.5995
  510MOL0     H68808   4.560   4.363   8.927  0.2940  0.6997 -0.4606
  510MOL0     H68809   4.508   4.202   8.869  0.5275 -1.2244 -4.2101
  510MOL0     H68810   4.358   4.359   8.867  0.5595  0.8482  0.4149
  510MOL0     H68811   4.036   4.405   8.805 -1.2366  2.7203 -2.5799
  510MOL0     H68812   4.148   4.424   8.933 -0.1082 -0.7069 -0.3797
  510MOL0     H68813   4.078   4.566   8.845  2.2706  1.7203 -0.4672
  510MOL0     H68814   3.967   4.813   8.597 -0.9058 -0.5665  1.0601
  510MOL0     H68815   3.784   4.958   8.535 -3.4439  0.2899 -0.0211
  510MOL0     H68816   3.406   4.736   8.377 -3.6149 -0.3304  0.9378
  510MOL0     H68817   3.384   4.811   8.530  0.3353  0.8881 -0.0283
  510MOL0     H68818   3.226   4.913   8.386  1.0294  0.4698  0.9109
  510MOL0     H68819   3.344   5.030   8.423  1.7810  0.0013  0.0552
  510MOL0     H68820   3.331   4.902   8.151 -1.6186 -0.0922  2.0943
  510MOL0     H68821   3.437   5.033   8.201  0.2684  0.2262 -1.3400
  510MOL0     H68822   3.223   5.125   8.087 -1.3118 -2.1587 -0.3000
  510MOL0     H68823   3.133   5.017   8.202 -0.1133 -0.8203 -0.0965
  510MOL0     H68824   3.328   5.227   8.280  0.5309 -4.9576  1.1211
  510MOL0     H68825   3.211   5.162   8.384 -0.6657 -1.3676 -0.8733
  510MOL0     H68826   3.136   5.332   8.136  0.9064 -1.3689 -0.7604
  510MOL0     H68827   3.016   5.282   8.250 -0.0055  0.8822  0.9709
  510MOL0     H68828   3.248   5.480   8.335  1.2406 -2.6413  0.9838
  510MOL0     H68829   3.125   5.399   8.436 -0.3409 -1.9150  0.0203
  510MOL0     H68830   3.070   5.585   8.197 -3.4649 -0.3281 -0.4533
  510MOL0     H68831   3.064   5.629   8.368 -2.3808  1.0007 -1.5903
  510MOL0     H68832   3.556   4.593   8.459  1.3213 -2.6702 -0.1593
  510MOL0     H68833   3.729   4.468   8.514 -0.9923 -0.3441  0.0931
  510MOL0     H68834   4.327   4.559   8.423 -1.8978  2.9611  1.8272
  510MOL0     H68835   4.533   4.430   8.497  0.3083 -0.7671  1.4894
  510MOL0     H68836   5.902   4.113  10.137  0.8599 -0.6916 -0.0448
  510MOL0     H68837   5.972   3.970  10.309 -1.2989 -0.1680  1.7208
  510MOL0     H68838   5.988   3.517  10.495  0.3463 -0.0417 -0.4330
  510MOL0     H68839   6.106   3.442  10.703 -0.6973 -1.5570 -0.7367
  510MOL0     H68840   6.250   3.256  10.737  0.5332 -2.5739  1.0508
  510MOL0     H68841   6.419   3.237  10.708 -0.6946  0.5827 -1.5532
  510MOL0     H68842   6.436   3.332  10.953  0.1822 -1.0118  1.8174
  510MOL0     H68843   6.359   3.175  10.946 -2.0585 -0.4080  0.6327
  510MOL0     H68844   6.132   3.317  10.929  0.2985  1.8200 -0.8343
  510MOL0     H68845   6.229   3.438  11.009  1.4270  0.9366  2.5760
  510MOL0     H68846   6.242   3.318  11.196  2.0758  2.4043 -2.8818
  510MOL0     H68847   6.280   3.162  11.124 -1.1054 -0.4932  1.1168
  510MOL0     H68848   5.850   3.187  11.127 -1.0844 -4.0943  0.9250
  510MOL0     H68849   6.484   3.556  10.519  0.4452  0.6445 -2.3186
  510MOL0     H68850   6.358   3.643  10.324  0.2018 -1.7507 -1.6701
  511MOL0     O68851   4.474  10.930   7.320 -0.1652 -0.3559  0.3531
  511MOL0     C68852   4.562  10.846   7.304  0.6281  0.5433  0.3492
  511MOL0     O68853   4.567  10.721   7.364 -0.6711 -0.6472 -1.5645
  511MOL0     C68854   4.491  10.691   7.473 -0.8808 -0.6367  0.7134
  511MOL0     C68855   4.427  10.782   7.565 -0.0944 -0.4638 -0.2226
  511MOL0     C68856   4.364  10.724   7.674 -0.3739  0.0496  0.0599
  511MOL0     C68857   4.362  10.583   7.701 -0.0574 -0.7056  0.1240
  511MOL0     O68858   4.301  10.532   7.819  0.6891  0.1330 -0.5735
  511MOL0     C68859   4.210  10.610   7.894  0.0780  0.0149  0.4471
  511MOL0     C68860   4.160  10.531   8.014 -0.0832  0.2692 -0.8151
  511MOL0     C68861   4.042  10.442   7.989  0.0439  0.6002  0.1966
  511MOL0     C68862   3.912  10.522   7.978  0.3488 -0.4680  0.6688
  511MOL0     C68863   3.791  10.431   7.997 -0.8425 -0.1273  0.2480
  511MOL0     C68864   3.664  10.508   8.021  0.4383 -0.4519 -0.2398
  511MOL0     C68865   3.531  10.443   7.996 -0.4822 -0.7133 -0.6248
  511MOL0     C68866   3.519  10.305   8.039  0.7852 -0.9601 -0.0763
  511MOL0     N68867   3.387  10.247   8.002  0.3425 -0.4598  0.5579
  511MOL0     C68868   3.270  10.275   8.066 -0.1647 -0.2322 -0.2204
  511MOL0     C68869   3.168  10.224   7.988  0.4969  0.9841  0.3035
  511MOL0     C68870   3.028  10.233   8.017 -0.0694  0.6110  0.7684
  511MOL0     C68871   2.994  10.117   8.104  0.4770  0.0072 -0.1952
  511MOL0     C68872   3.054  10.129   8.243  0.6404 -1.5144 -0.5731
  511MOL0     C68873   2.977  10.051   8.351  0.4897 -0.0607 -0.5693
  511MOL0     O68874   2.844  10.093   8.380  0.3234  0.5673  0.1691
  511MOL0     C68875   2.830  10.213   8.442  0.1914 -1.2693  0.6103
  511MOL0     C68876   2.836  10.336   8.375 -0.1335  0.5441  0.1457
  511MOL0     C68877   2.801  10.461   8.428  1.0309 -0.1337  0.4498
  511MOL0     C68878   2.789  10.581   8.336  0.0884  0.6134  0.2819
  511MOL0     C68879   2.751  10.465   8.561  0.5007  0.2950 -0.1700
  511MOL0     C68880   2.724  10.593   8.631  0.2186 -0.1162  0.5180
  511MOL0     O68881   2.825  10.696   8.606 -0.1885  0.2075 -0.1853
  511MOL0     C68882   2.822  10.808   8.687 -0.5012 -0.2249 -0.2480
  511MOL0     C68883   2.850  10.804   8.826  0.2440 -0.3409 -0.2941
  511MOL0     C68884   2.820  10.914   8.907 -0.0699 -0.0501  0.4314
  511MOL0     C68885   2.791  11.041   8.849 -0.5366  0.0108 -0.8773
  511MOL0     O68886   2.778  11.148   8.937 -0.2495 -0.2232 -0.4696
  511MOL0     C68887   2.683  11.245   8.890 -0.3440 -0.2102  0.4114
  511MOL0     C68888   2.649  11.360   8.990  0.0389 -0.0450  0.3149
  511MOL0     C68889   2.630  11.313   9.133  1.0933  0.4239  0.3678
  511MOL0     C68890   2.578  11.446   9.211  0.0479  0.2026 -0.8573
  511MOL0     C68891   2.639  11.430   9.360 -0.2283  0.4818  0.2035
  511MOL0     C68892   2.573  11.316   9.446 -0.5427  0.8194  0.0392
  511MOL0     C68893   2.444  11.380   9.514  0.4724  0.7041  0.2532
  511MOL0     C68894   2.476  11.379   9.663  0.9185 -1.0778 -1.0378
  511MOL0    Cl68895   2.571  11.520   9.695 -0.1044  0.0940  0.0429
  511MOL0     C68896   2.791  11.057   8.710  1.0364  0.7522  1.0276
  511MOL0     C68897   2.797  10.936   8.627 -0.2822 -0.2336 -0.5808
  511MOL0     O68898   2.635  10.597   8.713  0.4491  0.5652  0.6557
  511MOL0     C68899   2.722  10.342   8.626  0.3232  0.2004 -0.8548
  511MOL0     C68900   2.767  10.225   8.572  0.1488  0.2395  0.7068
  511MOL0     N68901   3.226  10.171   7.875  0.2921  0.1259 -0.2264
  511MOL0     N68902   3.349  10.187   7.889  0.0517  0.2651 -0.2975
  511MOL0     C68903   4.418  10.507   7.600  0.1035  0.2228  0.6828
  511MOL0     C68904   4.482  10.558   7.498 -0.4463  0.1119  0.2107
  511MOL0     C68905   4.676  10.878   7.215  0.7450 -0.1960  0.0011
  511MOL0     C68906   4.790  10.809   7.203  0.1163 -0.2482 -0.2316
  511MOL0     C68907   4.901  10.840   7.134  0.3562 -0.0120 -0.2948
  511MOL0     C68908   4.906  10.969   7.072  0.1579  0.4515  0.0207
  511MOL0     O68909   5.009  11.022   6.998 -0.3959  0.7842 -0.3479
  511MOL0     C68910   5.139  10.949   7.001  0.1838  0.1647 -0.8419
  511MOL0     C68911   5.240  11.014   6.918 -0.6772 -0.1578 -0.2300
  511MOL0     C68912   5.196  11.021   6.765  0.2463 -0.2579  0.1997
  511MOL0     C68913   5.309  11.074   6.674 -0.6803  0.1022 -0.5418
  511MOL0     C68914   5.433  10.990   6.680  0.1997 -0.3200  0.9149
  511MOL0     C68915   5.539  10.924   6.673  0.3298  0.0377  0.7553
  511MOL0     C68916   4.788  11.048   7.076 -0.3395 -0.2004  0.0353
  511MOL0     C68917   4.676  11.010   7.154 -0.3294  0.5455  0.4881
  511MOL0     H68918   4.437  10.889   7.575  2.3277 -0.5141 -1.2976
  511MOL0     H68919   4.334  10.788   7.756  2.2538  1.7417 -0.1929
  511MOL0     H68920   4.269  10.692   7.934  3.8043 -2.0985 -0.2734
  511MOL0     H68921   4.122  10.642   7.838 -1.1013 -0.7155  1.7860
  511MOL0     H68922   4.247  10.472   8.043 -1.2029  0.2749  3.2038
  511MOL0     H68923   4.138  10.595   8.101  0.7300 -2.1822  1.3243
  511MOL0     H68924   4.065  10.387   7.897 -2.2751  0.3029 -0.2570
  511MOL0     H68925   4.035  10.381   8.080  2.6652 -1.7705 -1.0397
  511MOL0     H68926   3.908  10.597   8.058 -2.9926  0.5138 -0.2519
  511MOL0     H68927   3.892  10.559   7.877  1.5741 -0.7227  0.3151
  511MOL0     H68928   3.776  10.361   7.915 -1.8025 -2.2345  2.1341
  511MOL0     H68929   3.810  10.381   8.093  2.0783  4.7354  2.6501
  511MOL0     H68930   3.672  10.546   8.124  4.2864  0.3502 -0.6813
  511MOL0     H68931   3.660  10.594   7.953 -5.0435 -2.6412 -3.2784
  511MOL0     H68932   3.455  10.502   8.048 -1.0921 -1.7333 -0.3397
  511MOL0     H68933   3.509  10.451   7.890  0.4809  5.5304 -0.7372
  511MOL0     H68934   3.505  10.311   8.147 -1.1190 -1.5348 -0.2582
  511MOL0     H68935   3.600  10.237   8.013 -0.7006 -3.1020  0.6352
  511MOL0     H68936   3.262  10.316   8.167 -1.5515  0.1850 -0.4843
  511MOL0     H68937   3.010  10.329   8.066 -4.0825  0.4969 -0.1278
  511MOL0     H68938   2.968  10.226   7.926  1.4669 -2.3950 -0.1451
  511MOL0     H68939   3.014  10.019   8.059  1.3478 -1.5955  3.2955
  511MOL0     H68940   2.887  10.134   8.118  0.1776  0.4900 -2.6703
  511MOL0     H68941   3.067  10.237   8.260  0.3054 -1.3890 -1.1134
  511MOL0     H68942   3.158  10.095   8.238  1.5471  0.3435  2.4141
  511MOL0     H68943   3.021  10.054   8.451 -1.7001  1.1098  0.4056
  511MOL0     H68944   2.969   9.945   8.325 -2.4807  0.1464 -0.7755
  511MOL0     H68945   2.867  10.338   8.271  0.2012  2.3752  0.2496
  511MOL0     H68946   2.808  10.541   8.236 -5.9859 -3.3400  0.2242
  511MOL0     H68947   2.683  10.606   8.346  0.8669  5.4004 -0.8671
  511MOL0     H68948   2.849  10.670   8.360 -0.5755  1.4238 -0.9437
  511MOL0     H68949   2.891  10.707   8.853 -1.3891 -2.0647 -3.4155
  511MOL0     H68950   2.830  10.900   9.014  0.4579 -0.8372  0.2868
  511MOL0     H68951   2.725  11.287   8.798 -1.4257 -0.3250 -0.1571
  511MOL0     H68952   2.594  11.182   8.876  0.0772 -0.5895 -0.6552
  511MOL0     H68953   2.730  11.433   8.984  1.5099 -1.7435 -1.8500
  511MOL0     H68954   2.557  11.407   8.953 -1.8612 -2.3051  1.8304
  511MOL0     H68955   2.726  11.271   9.165  1.8830  0.5033 -1.7416
  511MOL0     H68956   2.561  11.228   9.139  0.7403  0.7063  0.3372
  511MOL0     H68957   2.620  11.538   9.168  2.5912  0.0634  1.0926
  511MOL0     H68958   2.470  11.464   9.210  0.4151  2.9812  0.4771
  511MOL0     H68959   2.627  11.524   9.413  0.4274  1.7742 -1.8209
  511MOL0     H68960   2.749  11.423   9.357 -0.2836 -1.8404  1.1896
  511MOL0     H68961   2.542  11.223   9.396 -1.4069  0.6373  0.8727
  511MOL0     H68962   2.642  11.285   9.526  1.3450 -2.1701 -2.5024
  511MOL0     H68963   2.350  11.333   9.484 -0.4260  2.1496  0.6696
  511MOL0     H68964   2.420  11.482   9.483 -0.6664  1.2827  2.7669
  511MOL0     H68965   2.530  11.288   9.692  1.9922  0.5896  2.9032
  511MOL0     H68966   2.389  11.386   9.729  1.2195 -0.3512 -0.7066
  511MOL0     H68967   2.767  11.148   8.657  0.5850 -0.9160 -1.8180
  511MOL0     H68968   2.792  10.933   8.519  0.7282 -1.0176 -0.6305
  511MOL0     H68969   2.692  10.329   8.729  1.7855 -0.5044 -0.4872
  511MOL0     H68970   2.753  10.131   8.625  0.8980  1.9277  4.1822
  511MOL0     H68971   4.410  10.399   7.600 -2.7084  0.3380 -1.0630
  511MOL0     H68972   4.531  10.495   7.424 -1.2578  1.3346 -1.4580
  511MOL0     H68973   4.786  10.714   7.256 -1.6725  0.0831  0.2935
  511MOL0     H68974   4.989  10.778   7.150 -0.1824 -1.1231 -1.4565
  511MOL0     H68975   5.184  10.945   7.101  1.7024  0.3824 -1.4924
  511MOL0     H68976   5.121  10.848   6.964 -1.8833 -0.0818  0.6389
  511MOL0     H68977   5.336  10.963   6.934  1.7045  2.9151 -3.1644
  511MOL0     H68978   5.245  11.110   6.970  1.5174 -0.5528  0.3879
  511MOL0     H68979   5.101  11.073   6.747  0.6249  0.7984  1.1603
  511MOL0     H68980   5.174  10.924   6.719 -2.4004  0.4408 -0.1775
  511MOL0     H68981   5.339  11.177   6.699  2.7418 -0.8503 -0.2211
  511MOL0     H68982   5.269  11.081   6.572  1.4813  2.5869 -1.3366
  511MOL0     H68983   5.630  10.874   6.647  0.8712  2.3654 -2.4124
  511MOL0     H68984   4.784  11.149   7.036 -2.2459  0.4351  1.7132
  511MOL0     H68985   4.589  11.075   7.166  0.4055  1.7772 -0.6058
  512MOL0     O68986  11.191   4.496   2.949 -1.0590  1.4244 -0.4128
  512MOL0     C68987  11.145   4.531   3.057  0.3736  0.6945  0.0927
  512MOL0     O68988  11.018   4.514   3.100 -0.0009  0.0408  0.0094
  512MOL0     C68989  10.929   4.467   3.005 -0.4108 -0.1261  0.0383
  512MOL0     C68990  10.806   4.529   2.990 -0.2383 -0.3623  0.3159
  512MOL0     C68991  10.706   4.481   2.902 -0.5308  0.2656 -1.0800
  512MOL0     C68992  10.720   4.364   2.826 -0.5114  0.2416  0.5170
  512MOL0     O68993  10.625   4.311   2.741  0.0670 -0.1937  0.1458
  512MOL0     C68994  10.511   4.393   2.705 -0.2138 -0.6652 -0.0308
  512MOL0     C68995  10.393   4.368   2.803 -0.1605 -0.8089 -0.0101
  512MOL0     C68996  10.274   4.457   2.750 -0.2406 -0.1644 -0.6422
  512MOL0     C68997  10.195   4.395   2.637  0.4344  0.1015  0.3368
  512MOL0     C68998  10.067   4.479   2.609 -0.0982  1.0023 -1.0352
  512MOL0     C68999   9.950   4.465   2.710  0.2687  0.8105  0.3680
  512MOL0     C69000   9.871   4.339   2.685  1.2069  0.4598 -0.5869
  512MOL0     C69001   9.741   4.334   2.774  0.2622  0.4804  0.3482
  512MOL0     N69002   9.757   4.340   2.918  0.3029 -0.2514  0.1407
  512MOL0     C69003   9.759   4.465   2.986  0.3912 -0.3239 -0.0991
  512MOL0     C69004   9.722   4.422   3.111 -0.3800  0.2679  0.4337
  512MOL0     C69005   9.691   4.524   3.220  1.3964 -0.3403  0.1708
  512MOL0     C69006   9.815   4.549   3.312 -0.5789  0.1333  0.6476
  512MOL0     C69007   9.801   4.681   3.389 -0.4904  0.6108  0.3644
  512MOL0     C69008   9.683   4.679   3.481 -0.1943 -0.4209  1.0440
  512MOL0     O69009   9.703   4.577   3.590  0.3485  0.5638  0.6554
  512MOL0     C69010   9.596   4.550   3.677  1.3967  0.3855  0.0636
  512MOL0     C69011   9.466   4.612   3.668 -0.1754 -0.3120  0.4515
  512MOL0     C69012   9.361   4.566   3.746 -0.1637  0.3934  0.5812
  512MOL0     C69013   9.228   4.633   3.720 -0.6351 -0.0666 -0.0167
  512MOL0     C69014   9.380   4.454   3.823 -0.6934  0.2774 -0.5732
  512MOL0     C69015   9.274   4.396   3.917 -0.1166  0.8659  0.0999
  512MOL0     O69016   9.264   4.254   3.933 -0.8950 -0.2978 -0.1034
  512MOL0     C69017   9.133   4.200   3.956 -0.4729  0.3669 -0.5926
  512MOL0     C69018   9.011   4.265   3.920 -0.9238  0.5103 -0.8457
  512MOL0     C69019   8.894   4.203   3.960  0.3808  0.2952  0.3412
  512MOL0     C69020   8.888   4.074   4.013 -0.3275 -0.8269 -0.1816
  512MOL0     O69021   8.766   4.027   4.037  0.0436 -0.4827  0.1782
  512MOL0     C69022   8.743   3.889   4.050 -0.1807  0.7069 -0.1680
  512MOL0     C69023   8.595   3.856   4.040 -0.0548 -0.4312 -0.6627
  512MOL0     C69024   8.510   3.941   4.135 -0.6276  1.2586  0.5367
  512MOL0     C69025   8.370   3.929   4.081  0.3993  0.2761  0.2577
  512MOL0     C69026   8.270   4.011   4.159 -0.3174 -0.0487 -0.0484
  512MOL0     C69027   8.125   3.967   4.135  0.0979  0.1257  0.8778
  512MOL0     C69028   8.056   4.026   4.005  0.5672  0.4017 -0.5668
  512MOL0     C69029   8.106   3.966   3.877  0.2029  0.3871  0.8238
  512MOL0    Cl69030   7.996   4.025   3.746  0.3409 -0.2733  0.0439
  512MOL0     C69031   9.008   4.008   4.038  0.0386 -0.4974  0.1756
  512MOL0     C69032   9.133   4.065   4.012 -0.2184 -0.2421 -0.6401
  512MOL0     O69033   9.208   4.477   3.988  0.2309  0.1178  0.2649
  512MOL0     C69034   9.507   4.389   3.828 -0.4601  0.1592  0.5722
  512MOL0     C69035   9.613   4.436   3.759 -0.7072  0.0649  0.3538
  512MOL0     N69036   9.698   4.279   3.110  0.3647  0.1879  0.2394
  512MOL0     N69037   9.714   4.234   2.990 -0.1693  0.0115 -0.8912
  512MOL0     C69038  10.840   4.298   2.843 -0.2226  0.5318 -0.7853
  512MOL0     C69039  10.942   4.344   2.938  0.1221  0.5694  0.4888
  512MOL0     C69040  11.224   4.625   3.130 -0.4868  0.1263  0.0301
  512MOL0     C69041  11.182   4.705   3.230  0.1046 -0.0114 -0.1303
  512MOL0     C69042  11.271   4.775   3.305 -0.4183 -0.8195  0.1867
  512MOL0     C69043  11.413   4.778   3.279 -0.4121  0.1381  0.9133
  512MOL0     O69044  11.496   4.864   3.356 -0.2880  0.9393  0.2016
  512MOL0     C69045  11.643   4.845   3.370 -0.4683  0.4967  0.3804
  512MOL0     C69046  11.698   4.950   3.468  0.3168 -0.0592 -0.5579
  512MOL0     C69047  11.707   5.093   3.407 -0.0708 -0.2654  0.0333
  512MOL0     C69048  11.749   5.192   3.526  0.0594  0.6535  0.0567
  512MOL0     C69049  11.631   5.265   3.568  0.5061  0.5197  0.1837
  512MOL0     C69050  11.530   5.317   3.596  0.3364  1.1046 -0.5250
  512MOL0     C69051  11.455   4.712   3.167 -0.4093  0.6024 -0.0915
  512MOL0     C69052  11.359   4.642   3.085  0.2844  0.1669  0.1572
  512MOL0     H69053  10.797   4.620   3.047  0.8128 -0.8206  1.2468
  512MOL0     H69054  10.617   4.542   2.892  0.1600  1.3513 -0.8203
  512MOL0     H69055  10.549   4.495   2.699  0.4964 -0.9452 -0.4639
  512MOL0     H69056  10.490   4.371   2.600 -0.9030  3.1625 -0.8521
  512MOL0     H69057  10.369   4.261   2.797  0.0919 -0.8134 -1.0553
  512MOL0     H69058  10.422   4.388   2.907 -0.6169 -3.6040  0.7333
  512MOL0     H69059  10.200   4.476   2.828  3.3743 -1.9929  3.6749
  512MOL0     H69060  10.304   4.558   2.721 -2.7508  0.6057 -0.7521
  512MOL0     H69061  10.249   4.398   2.541 -1.3104  0.6055 -0.6706
  512MOL0     H69062  10.173   4.291   2.659  0.9789 -0.3040 -0.9006
  512MOL0     H69063  10.097   4.584   2.610 -1.1069  1.3078 -1.4074
  512MOL0     H69064  10.025   4.439   2.516 -2.4968 -1.8021  1.0549
  512MOL0     H69065   9.979   4.467   2.815 -1.5355 -1.1913  0.9926
  512MOL0     H69066   9.877   4.544   2.690 -1.1545 -0.6590 -0.5680
  512MOL0     H69067   9.845   4.310   2.583  0.0015 -0.7237  0.0345
  512MOL0     H69068   9.935   4.255   2.717  0.4396  0.9077  2.4429
  512MOL0     H69069   9.713   4.229   2.759 -1.3886  0.4869  2.8230
  512MOL0     H69070   9.667   4.406   2.739 -0.5548 -0.8466 -0.7695
  512MOL0     H69071   9.775   4.565   2.947 -1.0203  0.0100  0.1517
  512MOL0     H69072   9.650   4.617   3.179  0.3178 -1.5391 -1.6800
  512MOL0     H69073   9.607   4.480   3.274 -1.2976  1.7945 -1.9678
  512MOL0     H69074   9.903   4.553   3.248 -0.1491 -0.4121  1.1978
  512MOL0     H69075   9.841   4.465   3.377 -1.5530  0.3160  1.2981
  512MOL0     H69076   9.807   4.773   3.331  0.8557  0.9435  0.9859
  512MOL0     H69077   9.894   4.679   3.447 -0.4329  0.5742  0.2747
  512MOL0     H69078   9.591   4.663   3.423 -1.6232  1.6095  2.6233
  512MOL0     H69079   9.675   4.775   3.532  1.0262  0.3818 -0.2013
  512MOL0     H69080   9.452   4.694   3.599  3.8694  0.8447  0.8050
  512MOL0     H69081   9.152   4.570   3.673 -1.2312  1.3954 -1.1308
  512MOL0     H69082   9.174   4.666   3.810 -2.1655 -1.5075 -0.3473
  512MOL0     H69083   9.236   4.716   3.649  2.9717 -0.8713 -0.7341
  512MOL0     H69084   9.009   4.365   3.879 -1.4949  0.8799  0.0510
  512MOL0     H69085   8.802   4.261   3.961  1.1909  1.6253  1.5527
  512MOL0     H69086   8.798   3.834   3.973 -2.2213 -0.6823 -0.7188
  512MOL0     H69087   8.787   3.868   4.148  2.6169  0.9198 -1.2726
  512MOL0     H69088   8.577   3.884   3.936 -0.6250 -1.5789 -0.8947
  512MOL0     H69089   8.583   3.749   4.060  0.8695 -0.6239 -1.0982
  512MOL0     H69090   8.536   4.045   4.114 -0.6727  0.8758 -1.6753
  512MOL0     H69091   8.536   3.896   4.232 -1.5095 -2.3870 -0.7513
  512MOL0     H69092   8.367   3.952   3.974 -0.5150 -2.3448 -0.3520
  512MOL0     H69093   8.333   3.826   4.087  0.6260  0.0453 -1.6875
  512MOL0     H69094   8.290   4.112   4.121 -0.0915 -1.0823 -2.9259
  512MOL0     H69095   8.293   4.014   4.266  4.5190  0.1808 -0.8777
  512MOL0     H69096   8.129   3.860   4.113  1.3420  0.0358  1.4189
  512MOL0     H69097   8.068   3.978   4.228  0.2597  0.3700  0.9503
  512MOL0     H69098   8.057   4.136   4.012 -4.0441  0.5760  3.6854
  512MOL0     H69099   7.951   3.997   4.008  1.3859 -2.9016  0.1717
  512MOL0     H69100   8.106   3.856   3.872  0.3319  0.4313 -2.8994
  512MOL0     H69101   8.206   4.007   3.861 -0.7002  1.6116 -2.5505
  512MOL0     H69102   9.007   3.909   4.083  1.2137  0.0196  1.4176
  512MOL0     H69103   9.227   4.013   4.030 -0.8477 -0.9978  0.5947
  512MOL0     H69104   9.517   4.302   3.891  2.1967  1.7824  2.6123
  512MOL0     H69105   9.708   4.384   3.754 -0.5604  0.4139 -0.7700
  512MOL0     H69106  10.846   4.205   2.788 -2.1426 -0.4516  0.5310
  512MOL0     H69107  11.042   4.303   2.939  1.3838  3.3876 -0.1210
  512MOL0     H69108  11.075   4.702   3.249 -0.3584  2.2537 -1.9693
  512MOL0     H69109  11.243   4.836   3.390 -1.7239  1.3659 -1.6779
  512MOL0     H69110  11.671   4.745   3.406 -1.2228  0.0415 -0.2609
  512MOL0     H69111  11.694   4.843   3.273  1.3814  1.4152  1.2847
  512MOL0     H69112  11.797   4.908   3.491  0.8119 -0.2966 -2.8336
  512MOL0     H69113  11.638   4.957   3.559  1.2198  1.9177 -0.0656
  512MOL0     H69114  11.614   5.118   3.356 -0.2225 -1.8906 -0.5309
  512MOL0     H69115  11.777   5.100   3.324 -2.7973 -2.4477 -2.6722
  512MOL0     H69116  11.821   5.268   3.494 -0.3359  2.7773  3.6213
  512MOL0     H69117  11.791   5.139   3.612  0.1669  0.1234 -0.3201
  512MOL0     H69118  11.439   5.370   3.619 -0.0344 -0.5634  2.3127
  512MOL0     H69119  11.553   4.718   3.120 -0.4325  0.5780 -0.1444
  512MOL0     H69120  11.409   4.592   3.002  0.4920 -1.0975  1.0125
  513MOL0     O69121   5.481   7.335   1.363 -0.1397  0.2757  0.4121
  513MOL0     C69122   5.524   7.268   1.269 -0.6233 -0.5721  0.6279
  513MOL0     O69123   5.570   7.320   1.142  0.6872 -0.9370 -0.4128
  513MOL0     C69124   5.540   7.464   1.119 -0.5978  0.1492 -0.6706
  513MOL0     C69125   5.413   7.512   1.129 -0.1153  0.8189  0.4079
  513MOL0     C69126   5.389   7.647   1.109 -0.2644 -0.7481  0.4097
  513MOL0     C69127   5.490   7.737   1.068 -0.4788 -0.4254  0.2823
  513MOL0     O69128   5.473   7.872   1.039  0.2593 -0.3893  0.0515
  513MOL0     C69129   5.345   7.925   1.043 -0.2482 -0.6174  0.7718
  513MOL0     C69130   5.357   8.073   0.986  0.5400  0.2551  0.2660
  513MOL0     C69131   5.224   8.146   0.977 -0.3162 -0.0921 -0.9146
  513MOL0     C69132   5.227   8.282   0.916 -0.8661 -1.0412  0.3064
  513MOL0     C69133   5.092   8.350   0.943 -0.3585 -0.7325 -0.4258
  513MOL0     C69134   5.089   8.491   0.878 -0.1923 -0.6437  0.2409
  513MOL0     C69135   5.075   8.499   0.731 -0.8940 -0.6757  0.1135
  513MOL0     C69136   5.113   8.641   0.682 -0.4946 -0.3266 -0.0227
  513MOL0     N69137   4.993   8.738   0.700 -0.0425  0.6375  0.0002
  513MOL0     C69138   4.975   8.823   0.806  0.4054 -0.0249  0.5904
  513MOL0     C69139   4.864   8.897   0.767 -0.6520  0.3128  0.0777
  513MOL0     C69140   4.809   9.026   0.836 -0.1708 -0.5461 -0.0005
  513MOL0     C69141   4.752   9.133   0.750 -0.0055 -0.8587  1.3302
  513MOL0     C69142   4.849   9.222   0.674 -0.4508 -0.1196  0.1716
  513MOL0     C69143   4.965   9.157   0.607 -1.0388  0.7165  0.7755
  513MOL0     O69144   5.036   9.249   0.525  0.3802 -0.7258 -0.0599
  513MOL0     C69145   5.155   9.220   0.474 -0.5210  0.4158 -0.7558
  513MOL0     C69146   5.226   9.101   0.480  0.0332 -0.9567 -0.2479
  513MOL0     C69147   5.350   9.081   0.423 -0.3385 -0.1601 -0.1474
  513MOL0     C69148   5.410   8.946   0.433  0.9877 -0.4090  0.5161
  513MOL0     C69149   5.404   9.193   0.352  1.4802  0.5172 -0.4774
  513MOL0     C69150   5.538   9.188   0.295 -1.0645 -0.2289  0.0856
  513MOL0     O69151   5.577   9.311   0.237  0.1215  0.0115 -0.0342
  513MOL0     C69152   5.698   9.323   0.176 -0.5762 -0.4329 -0.1293
  513MOL0     C69153   5.780   9.429   0.210  1.1396  0.3970  0.2090
  513MOL0     C69154   5.899   9.454   0.134  0.7359 -0.0204 -0.0810
  513MOL0     C69155   5.919   9.387   0.027 -0.2365  0.4995  0.2033
  513MOL0     O69156   6.014   9.446  -0.044  0.0210  0.4234  0.3096
  513MOL0     C69157   6.047   9.391  -0.173 -0.2880 -0.9170 -0.6246
  513MOL0     C69158   6.179   9.452  -0.217  0.7006  0.9174  0.2988
  513MOL0     C69159   6.297   9.451  -0.111  0.2484  0.2435  0.4493
  513MOL0     C69160   6.324   9.320  -0.040 -0.5010  0.0434  0.3798
  513MOL0     C69161   6.468   9.329   0.024 -0.3227 -0.6341  0.4947
  513MOL0     C69162   6.519   9.205   0.106 -0.6317  0.1854  0.9694
  513MOL0     C69163   6.522   9.074   0.016 -0.4336 -0.6672 -0.1328
  513MOL0     C69164   6.557   8.953   0.100 -0.3541  0.2076 -0.5660
  513MOL0    Cl69165   6.596   8.815  -0.015 -0.8783  0.0426  0.0984
  513MOL0     C69166   5.854   9.268  -0.002  0.1934  0.7736 -0.3461
  513MOL0     C69167   5.741   9.237   0.076 -0.1422 -0.4874  0.1124
  513MOL0     O69168   5.615   9.089   0.307 -0.1627 -0.1544 -0.8643
  513MOL0     C69169   5.327   9.307   0.333  0.0059  0.8618 -0.1053
  513MOL0     C69170   5.209   9.320   0.402  0.7094 -0.0566  0.2297
  513MOL0     N69171   4.806   8.851   0.652  0.8014  0.6097 -0.3648
  513MOL0     N69172   4.879   8.747   0.614 -0.7670 -0.0938 -0.4901
  513MOL0     C69173   5.621   7.682   1.054  0.1683  0.0722  0.3416
  513MOL0     C69174   5.644   7.552   1.089  0.9219  1.0953 -0.7878
  513MOL0     C69175   5.536   7.127   1.304  0.3224  0.0126  0.8677
  513MOL0     C69176   5.463   7.072   1.410  0.1439 -0.0689 -0.2856
  513MOL0     C69177   5.476   6.933   1.452  0.1236  0.2917  1.1961
  513MOL0     C69178   5.563   6.850   1.381  0.5633  0.6052  0.8759
  513MOL0     O69179   5.584   6.716   1.402  0.0895  0.5000  0.2651
  513MOL0     C69180   5.500   6.622   1.473  0.3342 -0.1330 -0.2199
  513MOL0     C69181   5.499   6.624   1.625  0.0045 -0.2137  0.9565
  513MOL0     C69182   5.639   6.617   1.686  0.0828 -0.0802  0.3377
  513MOL0     C69183   5.723   6.745   1.685  0.2974 -0.2134  0.3001
  513MOL0     C69184   5.704   6.828   1.806 -0.8328  0.4174 -0.1880
  513MOL0     C69185   5.690   6.910   1.893 -0.6283 -0.0628  0.2429
  513MOL0     C69186   5.637   6.905   1.277  0.0662 -0.2402 -0.4961
  513MOL0     C69187   5.622   7.039   1.239 -0.0102  0.7118 -0.1788
  513MOL0     H69188   5.331   7.444   1.150 -1.0567  2.9818  4.6882
  513MOL0     H69189   5.289   7.688   1.108  0.0124  0.0926 -2.1779
  513MOL0     H69190   5.265   7.878   0.984 -0.0522 -2.9350  2.2590
  513MOL0     H69191   5.303   7.927   1.144 -2.6630  0.7192 -0.1548
  513MOL0     H69192   5.419   8.125   1.059  1.4497 -0.5453  0.0816
  513MOL0     H69193   5.405   8.073   0.888  1.4326  1.1178  0.6957
  513MOL0     H69194   5.149   8.077   0.936 -0.0877 -0.7490 -0.2473
  513MOL0     H69195   5.184   8.160   1.077 -2.7530  0.3375 -1.8793
  513MOL0     H69196   5.310   8.343   0.952 -0.3318 -1.8578  0.4775
  513MOL0     H69197   5.247   8.267   0.809  3.0923 -2.2032  1.0426
  513MOL0     H69198   5.008   8.290   0.904 -0.3960 -0.5594 -0.6189
  513MOL0     H69199   5.078   8.371   1.049 -0.5163  1.2891 -0.8115
  513MOL0     H69200   5.006   8.552   0.917 -0.5149  1.0765 -2.8624
  513MOL0     H69201   5.178   8.551   0.897 -2.1271  3.0303 -1.3049
  513MOL0     H69202   5.130   8.420   0.679  1.0590  1.9489 -2.1113
  513MOL0     H69203   4.976   8.474   0.693 -1.0362  1.1641 -0.8342
  513MOL0     H69204   5.135   8.639   0.575  2.6805  0.5804  0.4986
  513MOL0     H69205   5.206   8.676   0.729 -0.6765 -0.7732  0.6840
  513MOL0     H69206   5.036   8.843   0.893 -0.2471 -1.2025  1.3554
  513MOL0     H69207   4.735   8.981   0.902  0.1105 -0.0331  0.6669
  513MOL0     H69208   4.888   9.067   0.899  0.7520  1.8527 -2.4972
  513MOL0     H69209   4.699   9.207   0.811 -0.5155 -0.4999  0.4736
  513MOL0     H69210   4.680   9.099   0.675 -1.3605  2.2661  1.0221
  513MOL0     H69211   4.896   9.280   0.754  0.8968 -1.1793  0.1776
  513MOL0     H69212   4.790   9.289   0.611  1.6485  3.0930  1.3118
  513MOL0     H69213   4.930   9.080   0.537  3.4486  0.0751 -1.0614
  513MOL0     H69214   5.024   9.116   0.689 -4.9699 -0.0334  3.5228
  513MOL0     H69215   5.175   9.010   0.511  0.3817 -3.0336 -4.9263
  513MOL0     H69216   5.503   8.951   0.491  2.5672 -5.5446 -1.0506
  513MOL0     H69217   5.336   8.880   0.479 -1.5489  1.3070 -0.8674
  513MOL0     H69218   5.443   8.908   0.336  1.0162 -0.3336  0.4960
  513MOL0     H69219   5.756   9.483   0.300 -0.5222  1.1181 -0.6244
  513MOL0     H69220   5.974   9.525   0.167  0.0836  0.7325 -0.1858
  513MOL0     H69221   6.070   9.286  -0.158  0.0425 -0.7803 -0.1671
  513MOL0     H69222   5.970   9.416  -0.247  0.9016  3.2721 -0.7013
  513MOL0     H69223   6.214   9.390  -0.300 -0.3246 -3.4155  2.7897
  513MOL0     H69224   6.154   9.554  -0.248 -1.0294 -0.2511 -2.5026
  513MOL0     H69225   6.263   9.533  -0.047 -0.2566  1.8826 -1.7972
  513MOL0     H69226   6.381   9.500  -0.161 -2.0025  1.6758 -2.2105
  513MOL0     H69227   6.244   9.314   0.034 -1.4518  0.3015 -0.5974
  513MOL0     H69228   6.315   9.229  -0.101 -4.1622 -1.7721  3.2441
  513MOL0     H69229   6.456   9.420   0.085 -0.0028 -0.0266 -0.3297
  513MOL0     H69230   6.536   9.351  -0.059 -1.7445 -0.4648 -0.6812
  513MOL0     H69231   6.616   9.222   0.154  0.2138 -1.5811 -0.0122
  513MOL0     H69232   6.443   9.187   0.183 -1.3058  1.5713  0.6705
  513MOL0     H69233   6.593   9.092  -0.066  1.5587  2.6668  2.0632
  513MOL0     H69234   6.432   9.051  -0.042 -0.0209 -0.5072 -0.8477
  513MOL0     H69235   6.462   8.926   0.147  0.5790  1.7476  2.4881
  513MOL0     H69236   6.628   8.960   0.184  0.1225  0.8998 -1.0181
  513MOL0     H69237   5.870   9.207  -0.091  0.1242 -0.9301  0.7716
  513MOL0     H69238   5.660   9.171   0.047 -3.5784  3.4588 -0.3246
  513MOL0     H69239   5.360   9.385   0.266 -0.7416  0.6731 -0.7102
  513MOL0     H69240   5.151   9.412   0.411 -0.1641 -0.2805 -2.1971
  513MOL0     H69241   5.703   7.747   1.023 -1.1480  1.2468 -0.7935
  513MOL0     H69242   5.749   7.525   1.084  0.7793 -0.7926  2.8946
  513MOL0     H69243   5.398   7.133   1.472  0.0896  0.8274 -1.2024
  513MOL0     H69244   5.426   6.883   1.534  1.2463 -2.8738  0.1153
  513MOL0     H69245   5.401   6.643   1.431  0.8916  1.3721 -0.8739
  513MOL0     H69246   5.526   6.519   1.447  1.2055 -0.1875  0.7795
  513MOL0     H69247   5.437   6.539   1.657 -0.9333  0.5711  1.2854
  513MOL0     H69248   5.457   6.720   1.657  1.3211  0.2833  1.2722
  513MOL0     H69249   5.682   6.534   1.628 -0.9343 -0.9521  0.8067
  513MOL0     H69250   5.628   6.585   1.790  0.6176 -1.3947  0.0048
  513MOL0     H69251   5.709   6.805   1.594  2.5008 -1.2931 -0.8464
  513MOL0     H69252   5.828   6.724   1.664  0.1905  0.6255 -1.2896
  513MOL0     H69253   5.693   6.998   1.954 -0.9950  1.3934 -1.7477
  513MOL0     H69254   5.708   6.838   1.228  2.0212  1.2776  0.1307
  513MOL0     H69255   5.690   7.085   1.168 -0.0389 -0.5452 -1.0734
  514MOL0     O69256   6.117   2.429   8.824  0.2162  0.7000 -0.1863
  514MOL0     C69257   6.000   2.459   8.824  0.7808  0.0936  0.0489
  514MOL0     O69258   5.897   2.371   8.799  0.1110 -0.4488 -0.1660
  514MOL0     C69259   5.901   2.239   8.830 -0.7608  0.3331  0.0011
  514MOL0     C69260   5.798   2.202   8.912  0.5547  0.4365 -0.4754
  514MOL0     C69261   5.799   2.075   8.971  0.9042  0.2635  1.3648
  514MOL0     C69262   5.894   1.982   8.926  0.2860  0.4111 -0.7314
  514MOL0     O69263   5.890   1.855   8.976 -0.1273 -0.6809  0.4994
  514MOL0     C69264   5.997   1.836   9.065  0.2291 -0.4114 -0.2936
  514MOL0     C69265   5.969   1.714   9.145 -0.6258  0.0087  0.1388
  514MOL0     C69266   5.886   1.752   9.266  0.8196  0.0253  0.2592
  514MOL0     C69267   5.949   1.834   9.390  0.9384  0.9956  0.9518
  514MOL0     C69268   5.849   1.889   9.490 -0.7300 -0.2890 -0.3882
  514MOL0     C69269   5.743   1.990   9.431  1.2299 -0.1637 -0.5126
  514MOL0     C69270   5.679   2.079   9.537  0.7509 -0.3950  0.6968
  514MOL0     C69271   5.564   2.165   9.476  0.1427 -0.7274  0.4076
  514MOL0     N69272   5.607   2.263   9.373  0.2139  0.6213  0.1510
  514MOL0     C69273   5.725   2.327   9.370  0.2383 -0.1619  0.1850
  514MOL0     C69274   5.746   2.363   9.237 -0.6777  0.1955  0.4913
  514MOL0     C69275   5.872   2.404   9.160 -0.1923  0.0524 -0.7898
  514MOL0     C69276   5.934   2.505   9.252 -0.7724 -0.3153  0.6138
  514MOL0     C69277   6.057   2.561   9.192 -0.2003 -0.1573 -1.2050
  514MOL0     C69278   6.128   2.648   9.296  1.1045 -0.8415  0.6652
  514MOL0     O69279   6.192   2.771   9.251 -0.4620  0.4485  0.3012
  514MOL0     C69280   6.319   2.770   9.204  0.2700  0.6148 -0.7264
  514MOL0     C69281   6.381   2.663   9.132  0.5370  0.1046 -0.3291
  514MOL0     C69282   6.519   2.659   9.079  0.7330  0.6320  0.3825
  514MOL0     C69283   6.562   2.543   9.008  0.4628  0.1416 -0.1357
  514MOL0     C69284   6.594   2.782   9.095 -0.0709 -0.5291  0.3140
  514MOL0     C69285   6.723   2.810   9.033 -0.7087 -0.4110  0.4253
  514MOL0     O69286   6.773   2.725   8.936  0.0782 -1.0097  0.7439
  514MOL0     C69287   6.905   2.742   8.894  0.7845 -0.2069  0.7884
  514MOL0     C69288   7.017   2.761   8.974 -0.1846 -0.0002  0.1115
  514MOL0     C69289   7.142   2.774   8.927 -0.0162  0.8773  0.3909
  514MOL0     C69290   7.160   2.757   8.781  0.7949 -0.8994 -0.5047
  514MOL0     O69291   7.289   2.744   8.731 -0.1442  0.2929 -0.0956
  514MOL0     C69292   7.311   2.793   8.599  0.4746 -0.0625 -0.0143
  514MOL0     C69293   7.457   2.812   8.570  0.5332  0.0683 -0.5393
  514MOL0     C69294   7.522   2.932   8.641  0.3713 -0.5781  0.7204
  514MOL0     C69295   7.649   2.983   8.572  0.4949  0.5534 -0.1336
  514MOL0     C69296   7.748   3.040   8.677  0.1481 -0.4578 -0.4756
  514MOL0     C69297   7.699   3.167   8.755 -0.4584  0.8979 -1.2818
  514MOL0     C69298   7.812   3.216   8.845 -0.4699  0.6266 -0.8065
  514MOL0     C69299   7.785   3.350   8.912 -0.0382  0.3532  0.0982
  514MOL0    Cl69300   7.633   3.372   9.010  0.0369 -0.1890 -0.1951
  514MOL0     C69301   7.046   2.751   8.697 -0.5396  0.0486 -0.8528
  514MOL0     C69302   6.920   2.737   8.756 -0.3077 -0.5641  0.4270
  514MOL0     O69303   6.788   2.900   9.088 -0.4162  1.3947 -0.2928
  514MOL0     C69304   6.535   2.891   9.152  0.4702 -0.1742 -0.4936
  514MOL0     C69305   6.403   2.888   9.211 -0.3347  0.7553  0.9478
  514MOL0     N69306   5.634   2.316   9.168  0.0076  0.8391  0.2660
  514MOL0     N69307   5.551   2.256   9.247 -0.3718 -0.7639 -0.5289
  514MOL0     C69308   5.992   2.024   8.838  0.2932  0.0230  0.2576
  514MOL0     C69309   6.002   2.155   8.796  0.0233 -0.7070  0.6829
  514MOL0     C69310   5.975   2.610   8.831  0.1639 -0.1752  0.3047
  514MOL0     C69311   5.846   2.648   8.877 -0.6537 -0.1100 -0.0678
  514MOL0     C69312   5.821   2.788   8.903  0.4315  0.8820 -0.5628
  514MOL0     C69313   5.926   2.884   8.898  0.0785 -0.1139 -1.0391
  514MOL0     O69314   5.910   3.015   8.941 -0.3218  0.1014  0.2252
  514MOL0     C69315   5.838   3.094   8.841  1.2979 -1.0802  1.0144
  514MOL0     C69316   5.857   3.242   8.873  0.2372 -0.2456  0.5796
  514MOL0     C69317   6.004   3.291   8.898  0.1598  0.1784  0.4143
  514MOL0     C69318   6.038   3.397   8.795 -0.1205  0.3476 -0.0853
  514MOL0     C69319   6.177   3.445   8.821  0.0431 -0.8302  0.3648
  514MOL0     C69320   6.289   3.484   8.851 -0.6832  0.6119 -0.1552
  514MOL0     C69321   6.045   2.843   8.850  0.2579  0.3395 -0.0259
  514MOL0     C69322   6.073   2.707   8.810 -0.4853  0.0275 -0.3242
  514MOL0     H69323   5.713   2.268   8.926  2.2991  3.0691 -1.4641
  514MOL0     H69324   5.714   2.052   9.033 -1.1884  0.0386 -1.3936
  514MOL0     H69325   6.085   1.811   9.004 -0.0386 -1.4980 -0.2602
  514MOL0     H69326   6.022   1.922   9.128 -0.1446 -1.0401  0.7366
  514MOL0     H69327   5.909   1.639   9.092 -0.0291 -1.8652  1.9629
  514MOL0     H69328   6.064   1.672   9.178 -0.5056 -1.1531 -1.5289
  514MOL0     H69329   5.809   1.816   9.224  1.2927 -0.2256 -1.0306
  514MOL0     H69330   5.841   1.658   9.302 -2.7247  1.8044  0.9004
  514MOL0     H69331   6.022   1.770   9.441  2.2606 -0.4500 -2.4521
  514MOL0     H69332   5.996   1.921   9.344 -1.4258  2.1296  0.5367
  514MOL0     H69333   5.791   1.811   9.540  0.3713 -0.3483  0.8255
  514MOL0     H69334   5.889   1.932   9.582  1.3440 -2.7884 -0.0323
  514MOL0     H69335   5.791   2.050   9.354 -1.6417 -0.2561 -2.5659
  514MOL0     H69336   5.667   1.932   9.376 -0.0525  3.8749 -3.5231
  514MOL0     H69337   5.636   2.015   9.615  0.2240 -0.7690  0.1100
  514MOL0     H69338   5.760   2.135   9.584  0.8497  0.2528 -0.2247
  514MOL0     H69339   5.524   2.224   9.559 -0.7308 -0.0643 -0.4603
  514MOL0     H69340   5.485   2.090   9.466  1.4464 -2.5071  2.4419
  514MOL0     H69341   5.806   2.345   9.440  4.0343 -2.2047 -3.2082
  514MOL0     H69342   5.939   2.318   9.144 -0.3605  0.2535 -2.7971
  514MOL0     H69343   5.858   2.447   9.061 -0.0324  0.0194 -0.8275
  514MOL0     H69344   5.962   2.453   9.344 -0.1801  2.9552  2.4666
  514MOL0     H69345   5.858   2.578   9.283 -1.0385  0.3448 -1.4335
  514MOL0     H69346   6.029   2.621   9.105 -0.8700 -3.3417 -3.3926
  514MOL0     H69347   6.125   2.481   9.160  0.2513 -0.5331  0.5694
  514MOL0     H69348   6.196   2.591   9.361  2.5993  1.0507  0.8450
  514MOL0     H69349   6.043   2.685   9.354  1.6630 -1.5412  1.9840
  514MOL0     H69350   6.321   2.576   9.107  1.5706 -0.3148 -1.4557
  514MOL0     H69351   6.551   2.555   8.900 -1.6221 -0.9215 -0.0842
  514MOL0     H69352   6.660   2.501   9.035  0.4286  0.3274  0.2990
  514MOL0     H69353   6.482   2.469   9.020 -2.2334  1.7973 -5.0590
  514MOL0     H69354   7.001   2.769   9.081 -2.1071 -0.5054 -0.1029
  514MOL0     H69355   7.227   2.789   8.993  2.1766  0.8896 -2.2430
  514MOL0     H69356   7.274   2.710   8.538  1.3687 -1.6284  1.4741
  514MOL0     H69357   7.262   2.888   8.578  2.9696  2.2119  3.3945
  514MOL0     H69358   7.518   2.722   8.582 -0.0306 -0.3259 -0.5803
  514MOL0     H69359   7.448   2.836   8.464 -2.1742  0.5017 -0.2845
  514MOL0     H69360   7.552   2.892   8.738 -0.0244  0.1988  1.1689
  514MOL0     H69361   7.455   3.018   8.638  1.4302  0.2503 -1.3056
  514MOL0     H69362   7.702   2.894   8.536  1.8927  1.2601  0.1290
  514MOL0     H69363   7.633   3.052   8.489 -2.4638  2.9128  2.1439
  514MOL0     H69364   7.830   3.080   8.618 -1.4898 -0.9457 -3.2771
  514MOL0     H69365   7.798   2.958   8.730  0.1017 -1.3368 -1.7430
  514MOL0     H69366   7.678   3.247   8.683  2.7889  0.7856 -2.5212
  514MOL0     H69367   7.607   3.149   8.812  1.0132  1.0656  1.3106
  514MOL0     H69368   7.903   3.236   8.787  1.8801  1.3551  2.7978
  514MOL0     H69369   7.840   3.138   8.917 -1.3659  0.6497 -0.4186
  514MOL0     H69370   7.791   3.433   8.841 -3.4881  0.8716  0.2580
  514MOL0     H69371   7.865   3.362   8.986 -1.1089  4.1567  0.8330
  514MOL0     H69372   7.060   2.741   8.590  1.6714  0.8331 -0.6745
  514MOL0     H69373   6.836   2.741   8.687 -0.3448 -0.6200  0.4683
  514MOL0     H69374   6.574   2.991   9.137  2.0365 -0.8313 -1.0349
  514MOL0     H69375   6.342   2.969   9.250 -2.0435 -0.5299  1.0968
  514MOL0     H69376   6.068   1.950   8.816 -2.9236 -2.7764 -2.6391
  514MOL0     H69377   6.097   2.182   8.752  0.5364 -0.5555  1.8484
  514MOL0     H69378   5.770   2.573   8.901  1.3166 -2.5391 -0.9526
  514MOL0     H69379   5.723   2.823   8.933 -0.9090  0.6156 -4.1354
  514MOL0     H69380   5.846   3.071   8.734 -0.3854  2.2177  0.0601
  514MOL0     H69381   5.734   3.079   8.873  0.8402  0.7495  0.4847
  514MOL0     H69382   5.795   3.258   8.961 -0.9861 -0.4792 -0.2215
  514MOL0     H69383   5.816   3.295   8.786  3.3066 -0.3134 -1.0487
  514MOL0     H69384   6.073   3.206   8.902 -0.9349 -0.7924 -0.3907
  514MOL0     H69385   6.003   3.331   8.999  1.2367 -0.7780  0.8333
  514MOL0     H69386   5.965   3.478   8.788 -2.0982 -1.4142 -1.2330
  514MOL0     H69387   6.033   3.347   8.698  2.8531  0.8111 -0.5480
  514MOL0     H69388   6.385   3.511   8.891  0.6776 -0.5592 -2.4095
  514MOL0     H69389   6.128   2.914   8.852 -0.4327  1.1712  2.4009
  514MOL0     H69390   6.175   2.676   8.786 -0.6326 -1.4860  0.8383
  515MOL0     O69391   3.643   7.477   5.694  0.0445  0.2372 -0.3529
  515MOL0     C69392   3.715   7.570   5.729  0.4537  0.3581 -0.5040
  515MOL0     O69393   3.674   7.699   5.729 -0.0366 -0.0837 -0.3442
  515MOL0     C69394   3.529   7.704   5.724 -0.1644  0.4489 -1.2435
  515MOL0     C69395   3.460   7.726   5.604  1.2199  0.1172  0.7605
  515MOL0     C69396   3.324   7.717   5.594 -0.5522 -0.5457 -0.4694
  515MOL0     C69397   3.250   7.695   5.706 -0.0106  0.9193 -0.0811
  515MOL0     O69398   3.110   7.694   5.705  0.3086 -0.3891 -0.2510
  515MOL0     C69399   3.040   7.752   5.599 -0.1268 -0.0551  0.1068
  515MOL0     C69400   2.896   7.797   5.631  0.5425 -0.8051 -0.6037
  515MOL0     C69401   2.812   7.680   5.693 -0.1166 -0.6635  0.0104
  515MOL0     C69402   2.782   7.568   5.598 -0.5991  0.0819 -0.4892
  515MOL0     C69403   2.707   7.607   5.477 -0.2495 -0.2345  0.1040
  515MOL0     C69404   2.611   7.498   5.427  0.4647 -0.2525 -1.0099
  515MOL0     C69405   2.494   7.482   5.522 -0.5043  0.3952 -0.9641
  515MOL0     C69406   2.502   7.333   5.565 -0.3827 -1.4546  0.6431
  515MOL0     N69407   2.395   7.299   5.650  0.2875  0.9431  0.5503
  515MOL0     C69408   2.402   7.265   5.787 -0.1232  0.5422  0.0998
  515MOL0     C69409   2.281   7.205   5.815 -0.2900 -0.6462 -0.2987
  515MOL0     C69410   2.247   7.144   5.943 -0.2319  0.4877 -1.0624
  515MOL0     C69411   2.115   7.208   5.998 -0.6829  0.0218 -0.3360
  515MOL0     C69412   2.079   7.155   6.137  0.2004  1.0581 -0.1411
  515MOL0     C69413   1.984   7.251   6.208 -0.2356  0.4112  0.7545
  515MOL0     O69414   1.863   7.260   6.116  0.6147  0.2189  0.3860
  515MOL0     C69415   1.769   7.361   6.119  0.3304  0.5449 -0.0609
  515MOL0     C69416   1.662   7.352   6.029 -0.2235 -0.3638  0.1085
  515MOL0     C69417   1.559   7.451   6.041 -0.1165 -0.6240 -0.0689
  515MOL0     C69418   1.426   7.433   5.968 -0.3197  0.0935 -0.2681
  515MOL0     C69419   1.577   7.562   6.128  0.8753 -0.2362  0.1528
  515MOL0     C69420   1.484   7.674   6.134  0.6512 -0.7737  0.1865
  515MOL0     O69421   1.434   7.710   6.263  0.3288  0.3815  0.4027
  515MOL0     C69422   1.344   7.816   6.269 -0.0743  0.0287 -0.0467
  515MOL0     C69423   1.390   7.944   6.281 -0.1959 -0.7385 -0.7724
  515MOL0     C69424   1.303   8.055   6.286  0.4715  0.5475 -0.2784
  515MOL0     C69425   1.165   8.037   6.283  0.7326  0.2218  0.1363
  515MOL0     O69426   1.079   8.138   6.305 -0.4589 -0.4835  0.5423
  515MOL0     C69427   1.088   8.253   6.208  0.1571 -0.1039  0.3519
  515MOL0     C69428   1.000   8.372   6.254 -0.4171 -0.1875 -0.0027
  515MOL0     C69429   0.891   8.327   6.349 -0.2448 -0.5531  1.1842
  515MOL0     C69430   0.813   8.423   6.428 -0.3415  0.5031  0.0805
  515MOL0     C69431   0.708   8.351   6.523  0.1031 -0.0741 -0.1077
  515MOL0     C69432   0.587   8.280   6.470  0.2750  0.3569 -0.2932
  515MOL0     C69433   0.515   8.319   6.340  0.8152 -0.2800 -0.1649
  515MOL0     C69434   0.379   8.246   6.325 -1.0772 -0.8832  0.3002
  515MOL0    Cl69435   0.409   8.075   6.337  0.3241 -0.0598 -0.0482
  515MOL0     C69436   1.113   7.901   6.288 -0.0961 -0.5184 -0.0019
  515MOL0     C69437   1.205   7.795   6.285  0.2292 -0.1595  0.1833
  515MOL0     O69438   1.462   7.737   6.029  0.0811 -0.3663 -0.0560
  515MOL0     C69439   1.685   7.569   6.207  0.6319  0.9523 -0.7301
  515MOL0     C69440   1.783   7.471   6.208  0.1389  0.4998 -0.3529
  515MOL0     N69441   2.207   7.197   5.701  0.7130  0.2907 -0.5444
  515MOL0     N69442   2.269   7.259   5.605 -0.6560  0.0979  0.5061
  515MOL0     C69443   3.313   7.668   5.822  0.0037  0.2947 -1.5743
  515MOL0     C69444   3.452   7.681   5.839 -0.5277  0.3663 -0.1731
  515MOL0     C69445   3.857   7.552   5.729 -0.0834 -0.8834 -0.6054
  515MOL0     C69446   3.916   7.430   5.711  0.2090  0.4224  0.6356
  515MOL0     C69447   4.056   7.422   5.712  1.4328 -0.4255  0.9712
  515MOL0     C69448   4.145   7.529   5.735 -0.5178  0.5741  0.4229
  515MOL0     O69449   4.284   7.497   5.724 -1.0214 -0.9100 -0.1213
  515MOL0     C69450   4.369   7.599   5.773 -0.9337  0.3258  0.4580
  515MOL0     C69451   4.511   7.555   5.768 -0.6911  0.0444  0.1987
  515MOL0     C69452   4.573   7.569   5.633 -0.3656 -0.6251  0.0475
  515MOL0     C69453   4.506   7.490   5.520 -0.9469  0.2341  0.5439
  515MOL0     C69454   4.497   7.350   5.551 -0.7607  0.1811 -0.9688
  515MOL0     C69455   4.507   7.234   5.583  0.3238 -1.0242 -0.9494
  515MOL0     C69456   4.082   7.657   5.766 -0.2813  0.0702  0.4524
  515MOL0     C69457   3.944   7.658   5.762  0.9927  0.0575  0.3195
  515MOL0     H69458   3.504   7.744   5.506  1.1673 -1.8297  0.3349
  515MOL0     H69459   3.280   7.739   5.497 -0.9457  1.9846  0.2066
  515MOL0     H69460   3.103   7.832   5.560 -0.8077  1.2891  1.6743
  515MOL0     H69461   3.037   7.679   5.517  2.6107  1.0966 -1.1543
  515MOL0     H69462   2.899   7.875   5.708  1.8605 -1.5305  0.1261
  515MOL0     H69463   2.845   7.832   5.542 -0.2378 -0.2585  0.0507
  515MOL0     H69464   2.867   7.648   5.782  1.3555  1.2679 -0.1440
  515MOL0     H69465   2.723   7.732   5.728 -0.3610 -0.9226 -0.2199
  515MOL0     H69466   2.876   7.515   5.582  1.0959  1.4164  3.7295
  515MOL0     H69467   2.722   7.499   5.658  1.2302 -1.7473 -0.6611
  515MOL0     H69468   2.659   7.702   5.503 -0.4134  0.5172 -2.6821
  515MOL0     H69469   2.771   7.625   5.391 -0.8252  2.0777  0.0945
  515MOL0     H69470   2.577   7.525   5.327  0.4476  1.8433 -0.4863
  515MOL0     H69471   2.670   7.409   5.402 -1.1126 -2.0606  1.3184
  515MOL0     H69472   2.506   7.551   5.606  1.5507  0.0977 -0.9655
  515MOL0     H69473   2.393   7.495   5.481 -0.4304  1.3666 -0.8733
  515MOL0     H69474   2.590   7.316   5.628  0.0674  0.4017  0.5609
  515MOL0     H69475   2.500   7.272   5.473 -1.6179 -0.5957  0.0804
  515MOL0     H69476   2.488   7.273   5.853  1.3015 -1.6210 -1.3854
  515MOL0     H69477   2.240   7.038   5.917  1.8735 -0.0913  0.4399
  515MOL0     H69478   2.330   7.151   6.014 -0.1645  1.7553 -1.2509
  515MOL0     H69479   2.039   7.190   5.922  1.2966 -0.0189 -2.3997
  515MOL0     H69480   2.133   7.316   5.997 -3.1090  0.4947 -0.8287
  515MOL0     H69481   2.174   7.155   6.192  0.3520 -1.6263 -0.2705
  515MOL0     H69482   2.038   7.054   6.135 -1.2583  1.5278  2.1597
  515MOL0     H69483   2.036   7.347   6.204  0.7105 -0.0868  0.7246
  515MOL0     H69484   1.955   7.213   6.306  2.6189  1.5148  2.1396
  515MOL0     H69485   1.668   7.273   5.954  4.6501  1.9453 -2.4136
  515MOL0     H69486   1.430   7.500   5.881  4.6998  0.1566 -0.3103
  515MOL0     H69487   1.420   7.327   5.943 -2.9134  0.0721  0.2033
  515MOL0     H69488   1.340   7.452   6.033 -0.3107  2.4609 -0.8478
  515MOL0     H69489   1.497   7.959   6.287 -0.4191  0.4718  1.1328
  515MOL0     H69490   1.354   8.150   6.298  0.3823  0.3337  2.1944
  515MOL0     H69491   1.192   8.281   6.191  0.4685  1.2806  3.7160
  515MOL0     H69492   1.052   8.222   6.109  1.5061  3.1227 -1.3007
  515MOL0     H69493   1.068   8.449   6.291 -0.0864 -1.3696  2.0279
  515MOL0     H69494   0.954   8.424   6.170 -1.6755 -2.0704 -0.5513
  515MOL0     H69495   0.929   8.246   6.411  0.0735 -3.3659 -2.3643
  515MOL0     H69496   0.818   8.278   6.284 -1.1027  3.5257 -1.3265
  515MOL0     H69497   0.884   8.479   6.490  1.6646 -1.3040 -0.4598
  515MOL0     H69498   0.751   8.492   6.370 -0.6585  0.4493  0.3560
  515MOL0     H69499   0.667   8.443   6.567 -1.1046  0.0390 -1.4238
  515MOL0     H69500   0.753   8.295   6.606 -1.9957 -0.8844  0.5348
  515MOL0     H69501   0.616   8.177   6.454 -2.5311 -0.8597  1.4954
  515MOL0     H69502   0.514   8.288   6.552  1.0175 -0.2263  0.4339
  515MOL0     H69503   0.582   8.296   6.257  0.3457  1.6016 -1.1153
  515MOL0     H69504   0.502   8.427   6.351 -0.0708 -0.5522  2.0085
  515MOL0     H69505   0.334   8.265   6.227 -1.0488  3.0779  0.9130
  515MOL0     H69506   0.318   8.275   6.411  0.3458  0.2437  0.9850
  515MOL0     H69507   1.006   7.893   6.298 -0.3940  0.8692 -1.6062
  515MOL0     H69508   1.172   7.692   6.277 -0.6208  0.2324 -4.1299
  515MOL0     H69509   1.691   7.654   6.274 -0.7076  0.4482  0.0701
  515MOL0     H69510   1.875   7.496   6.261  0.6817  1.5982 -1.7519
  515MOL0     H69511   3.242   7.648   5.901  1.4560 -0.5891 -0.4531
  515MOL0     H69512   3.514   7.662   5.927 -0.0380 -6.1623 -1.4341
  515MOL0     H69513   3.845   7.350   5.692 -1.0412  1.0869  2.2690
  515MOL0     H69514   4.100   7.327   5.682  0.3664 -0.7618  0.4158
  515MOL0     H69515   4.349   7.690   5.716 -1.2277 -1.3120 -2.2136
  515MOL0     H69516   4.355   7.621   5.879 -0.4682 -1.1519  0.8549
  515MOL0     H69517   4.528   7.451   5.798 -1.0036  0.0001  0.2229
  515MOL0     H69518   4.572   7.608   5.842 -2.5911  0.4093  1.5708
  515MOL0     H69519   4.676   7.532   5.636 -0.6428 -1.4535 -0.4182
  515MOL0     H69520   4.579   7.677   5.618 -0.5909 -0.8490 -1.8574
  515MOL0     H69521   4.557   7.500   5.423 -1.9349 -2.1676 -0.3175
  515MOL0     H69522   4.411   7.540   5.502 -0.3809  1.6296  1.2648
  515MOL0     H69523   4.514   7.132   5.613  3.3700 -1.5685 -3.0428
  515MOL0     H69524   4.141   7.744   5.792 -0.9855  0.3748  1.0675
  515MOL0     H69525   3.910   7.759   5.784 -2.6291 -0.4601 -2.0711
  516MOL0     O69526   2.826   5.727   3.133 -1.1857  0.1779  0.1243
  516MOL0     C69527   2.935   5.660   3.140  0.2451 -0.4308 -0.3244
  516MOL0     O69528   2.964   5.568   3.234  0.3904  0.4397 -0.2162
  516MOL0     C69529   2.887   5.526   3.340 -0.6744 -0.0183  0.3956
  516MOL0     C69530   2.743   5.513   3.352 -0.7817 -0.8672  0.1494
  516MOL0     C69531   2.686   5.501   3.478  0.0905  0.2408  0.2507
  516MOL0     C69532   2.755   5.476   3.584 -0.1800  0.3152  0.0146
  516MOL0     O69533   2.700   5.448   3.708 -0.2813 -0.0149 -0.6075
  516MOL0     C69534   2.603   5.346   3.723  0.3672  0.0986 -0.9693
  516MOL0     C69535   2.570   5.322   3.864 -0.6345 -0.5616 -1.0763
  516MOL0     C69536   2.456   5.415   3.924 -0.0788  1.5877 -0.5575
  516MOL0     C69537   2.498   5.557   3.943  1.4656 -0.0773 -0.9961
  516MOL0     C69538   2.407   5.653   4.023 -0.9483  0.2181 -0.0167
  516MOL0     C69539   2.395   5.606   4.175  0.2230 -0.5834  0.7454
  516MOL0     C69540   2.346   5.719   4.265 -0.0840 -0.3461 -0.5855
  516MOL0     C69541   2.223   5.790   4.210 -0.3893  0.9163  0.1946
  516MOL0     N69542   2.193   5.920   4.273  0.4544 -0.2881 -0.7424
  516MOL0     C69543   2.174   5.948   4.413  0.4122 -0.3906 -0.3861
  516MOL0     C69544   2.155   6.082   4.414  0.3661  0.3557 -0.2376
  516MOL0     C69545   2.157   6.153   4.551  0.0511  0.1405 -0.8713
  516MOL0     C69546   2.014   6.169   4.595 -0.0870 -0.1049  0.0535
  516MOL0     C69547   2.021   6.215   4.743 -0.5389  0.0376  0.2242
  516MOL0     C69548   1.882   6.234   4.803 -0.5579 -0.2444  1.2602
  516MOL0     O69549   1.880   6.298   4.930 -0.8540  0.3110  0.1544
  516MOL0     C69550   1.887   6.431   4.943 -0.6619  0.1135  0.1525
  516MOL0     C69551   1.894   6.484   5.068 -0.5662  0.3792 -0.2270
  516MOL0     C69552   1.929   6.619   5.092  0.4888  0.5884  0.3139
  516MOL0     C69553   1.962   6.653   5.240 -0.1780  0.2326 -0.0301
  516MOL0     C69554   1.918   6.713   4.982  0.7157 -0.2113 -0.6714
  516MOL0     C69555   1.922   6.867   4.998 -0.9322  0.2322  0.2698
  516MOL0     O69556   1.907   6.927   5.118 -0.0648  0.8740  0.1513
  516MOL0     C69557   1.955   7.056   5.139 -0.4343 -1.0486 -0.2343
  516MOL0     C69558   2.059   7.093   5.221 -0.1871  0.7758 -0.0450
  516MOL0     C69559   2.097   7.224   5.254  1.0369  0.2008 -0.3015
  516MOL0     C69560   2.005   7.324   5.223 -0.1537 -0.7512 -0.2777
  516MOL0     O69561   2.022   7.455   5.243 -0.1064  0.7512  0.5541
  516MOL0     C69562   2.121   7.488   5.341 -0.5447 -0.1919 -0.5332
  516MOL0     C69563   2.113   7.641   5.370  0.3588 -0.4223 -0.2436
  516MOL0     C69564   2.208   7.683   5.481 -0.6794 -1.0612 -0.5276
  516MOL0     C69565   2.159   7.807   5.559  0.4502  0.4126  0.0696
  516MOL0     C69566   2.267   7.848   5.659 -0.7617 -0.6555 -0.7392
  516MOL0     C69567   2.274   7.750   5.791 -0.5184 -1.0928  0.4177
  516MOL0     C69568   2.362   7.814   5.899 -0.4709  0.5768  0.9200
  516MOL0     C69569   2.403   7.729   6.018 -0.1634  0.3133 -0.4152
  516MOL0    Cl69570   2.267   7.652   6.110  0.2011  0.3034 -0.3690
  516MOL0     C69571   1.899   7.294   5.137  0.2800  0.6993  0.4128
  516MOL0     C69572   1.876   7.168   5.090  0.3270  0.0832  0.2313
  516MOL0     O69573   1.955   6.931   4.897 -0.0349  0.0706  0.9567
  516MOL0     C69574   1.905   6.658   4.858  0.1943 -0.9409  0.7634
  516MOL0     C69575   1.889   6.516   4.838 -0.5852  0.9125  0.4082
  516MOL0     N69576   2.148   6.123   4.286 -0.7791  0.2285  0.3045
  516MOL0     N69577   2.172   6.031   4.200  0.4052 -1.6653  0.8868
  516MOL0     C69578   2.890   5.461   3.571 -0.4892  0.1552  0.2847
  516MOL0     C69579   2.955   5.476   3.448 -0.0014 -0.2572 -0.6291
  516MOL0     C69580   3.057   5.716   3.068 -0.0894 -0.1646 -0.3357
  516MOL0     C69581   3.166   5.637   3.041  0.4710 -0.3049 -0.5153
  516MOL0     C69582   3.285   5.688   2.988  0.6344 -0.3023  0.9681
  516MOL0     C69583   3.292   5.821   2.951  0.5464  0.6588  0.3023
  516MOL0     O69584   3.410   5.852   2.887  0.1237 -0.0823 -0.5831
  516MOL0     C69585   3.440   5.987   2.850 -0.0892  0.5851  0.2428
  516MOL0     C69586   3.363   6.011   2.720  0.9824 -0.2636  0.6303
  516MOL0     C69587   3.329   6.157   2.697 -0.6641  0.5829 -0.6071
  516MOL0     C69588   3.448   6.254   2.710 -0.6820 -0.2578 -0.4605
  516MOL0     C69589   3.554   6.224   2.624 -0.7788  0.0836  0.2013
  516MOL0     C69590   3.633   6.176   2.542  0.1338 -0.1127  0.8074
  516MOL0     C69591   3.175   5.904   2.979 -0.7719 -0.7929  0.0961
  516MOL0     C69592   3.064   5.843   3.040  0.0584  0.2585  0.5935
  516MOL0     H69593   2.687   5.550   3.267  0.2052 -1.0253 -0.5821
  516MOL0     H69594   2.578   5.508   3.485 -0.2268 -2.0564 -1.1698
  516MOL0     H69595   2.515   5.378   3.667  1.0228  1.5232 -1.2188
  516MOL0     H69596   2.632   5.253   3.672  1.6833  0.6751 -1.3194
  516MOL0     H69597   2.533   5.219   3.874  0.1477 -0.6808  1.1372
  516MOL0     H69598   2.647   5.337   3.940 -2.4078 -0.5405  0.8155
  516MOL0     H69599   2.364   5.408   3.865 -0.3003 -2.8021 -0.0521
  516MOL0     H69600   2.432   5.381   4.025  0.1677  0.7986 -0.7556
  516MOL0     H69601   2.595   5.560   3.994  0.1246 -0.7446  1.8071
  516MOL0     H69602   2.501   5.595   3.841 -0.1813  5.8691  0.8012
  516MOL0     H69603   2.448   5.753   4.012  1.4770 -0.8328 -1.1320
  516MOL0     H69604   2.307   5.660   3.977 -0.1976  0.0503 -1.7506
  516MOL0     H69605   2.332   5.518   4.187  1.2786 -1.7129 -1.4041
  516MOL0     H69606   2.498   5.581   4.203  0.2586 -0.3017  0.8700
  516MOL0     H69607   2.325   5.690   4.368  0.5900 -1.9737 -0.8756
  516MOL0     H69608   2.417   5.803   4.257 -0.7766  0.7741  3.1851
  516MOL0     H69609   2.143   5.716   4.217 -0.2288  0.8555  1.8236
  516MOL0     H69610   2.233   5.801   4.102 -0.1105 -1.0194 -0.0058
  516MOL0     H69611   2.208   5.878   4.489 -1.7584 -1.2305 -0.1171
  516MOL0     H69612   2.207   6.083   4.619 -1.6568  0.4511  0.7857
  516MOL0     H69613   2.209   6.250   4.555 -1.7647  1.2876 -2.9336
  516MOL0     H69614   1.967   6.071   4.581 -1.2440  0.8027 -3.3694
  516MOL0     H69615   1.960   6.247   4.540  0.8286  0.2650 -0.3316
  516MOL0     H69616   2.073   6.311   4.748  1.6464 -1.0368 -0.5575
  516MOL0     H69617   2.082   6.140   4.795 -1.3196 -1.2097 -0.5930
  516MOL0     H69618   1.836   6.134   4.802  0.3897 -0.7089  1.8391
  516MOL0     H69619   1.827   6.296   4.732  0.2112 -1.0354 -0.0523
  516MOL0     H69620   1.894   6.415   5.152 -2.4703 -0.9930 -1.2610
  516MOL0     H69621   1.974   6.561   5.297 -1.1527 -0.2837 -0.6387
  516MOL0     H69622   2.064   6.693   5.248  0.7035 -2.1860  2.0379
  516MOL0     H69623   1.877   6.707   5.284 -0.3283 -0.7433  0.9125
  516MOL0     H69624   2.121   7.017   5.268  3.3985  2.8089 -1.1392
  516MOL0     H69625   2.182   7.245   5.318  2.1894  0.1011 -1.7301
  516MOL0     H69626   2.117   7.414   5.421 -3.3292 -2.8228 -2.8551
  516MOL0     H69627   2.223   7.474   5.304 -0.9379 -0.4827 -1.5340
  516MOL0     H69628   2.129   7.706   5.283 -0.6606 -1.8494 -1.5710
  516MOL0     H69629   2.011   7.660   5.404  0.6985 -1.0793  1.2330
  516MOL0     H69630   2.302   7.714   5.433 -2.1744  1.9424 -1.7825
  516MOL0     H69631   2.227   7.605   5.556  0.2718 -1.0827 -0.7763
  516MOL0     H69632   2.151   7.885   5.483 -1.9176 -0.0339 -0.2151
  516MOL0     H69633   2.068   7.788   5.617 -0.8807  1.1512 -1.7035
  516MOL0     H69634   2.265   7.947   5.707  2.8572 -2.1564  3.1166
  516MOL0     H69635   2.355   7.849   5.595  1.3150  1.9561  1.8600
  516MOL0     H69636   2.175   7.725   5.830 -2.6676 -1.0548 -4.3620
  516MOL0     H69637   2.317   7.655   5.759  1.3853 -0.5153  1.1217
  516MOL0     H69638   2.315   7.908   5.930 -2.0893  0.3838 -0.7460
  516MOL0     H69639   2.463   7.831   5.859 -0.0762 -2.1178  0.5756
  516MOL0     H69640   2.475   7.790   6.073 -0.9655 -1.2044  2.5206
  516MOL0     H69641   2.465   7.646   5.981  0.3500  0.5811 -0.1783
  516MOL0     H69642   1.860   7.380   5.083  0.1389  0.2110 -0.2712
  516MOL0     H69643   1.793   7.145   5.024  0.0031  3.5186 -0.7522
  516MOL0     H69644   1.897   6.724   4.772  3.4111 -1.0564  0.2523
  516MOL0     H69645   1.889   6.482   4.735  2.2225 -1.7147  1.1029
  516MOL0     H69646   2.956   5.444   3.656  0.0200  3.0625  0.5876
  516MOL0     H69647   3.061   5.457   3.454 -0.3422 -2.0585  0.4917
  516MOL0     H69648   3.165   5.530   3.061  1.9118 -0.5907 -1.7336
  516MOL0     H69649   3.366   5.625   2.953 -0.6476 -1.7112  0.3545
  516MOL0     H69650   3.403   6.056   2.927  0.1187 -2.0814  2.9462
  516MOL0     H69651   3.547   6.000   2.831 -0.0798 -0.8069 -0.8083
  516MOL0     H69652   3.277   5.943   2.715  0.8892 -0.0932 -0.2742
  516MOL0     H69653   3.423   5.986   2.632 -0.1548 -1.3886  0.1494
  516MOL0     H69654   3.246   6.182   2.764  0.3636 -0.0069  0.9180
  516MOL0     H69655   3.270   6.168   2.605  0.5717  2.1428 -1.2390
  516MOL0     H69656   3.483   6.250   2.814  2.6872 -0.3038 -1.4746
  516MOL0     H69657   3.415   6.357   2.695 -0.6839 -0.3522 -1.1432
  516MOL0     H69658   3.701   6.138   2.467 -0.4996  2.5594 -1.2651
  516MOL0     H69659   3.180   6.010   2.957  0.3083 -0.9882 -0.6715
  516MOL0     H69660   2.974   5.898   3.066 -0.7666  0.0119 -1.5342
  517MOL0     O69661   5.173   4.305   6.205  0.6217  0.7024 -0.8744
  517MOL0     C69662   5.179   4.201   6.144  1.2251  0.2628  0.6826
  517MOL0     O69663   5.146   4.066   6.190 -0.6393 -0.6407 -0.1613
  517MOL0     C69664   5.140   4.056   6.326 -0.1102 -0.0338 -0.2039
  517MOL0     C69665   5.021   4.084   6.395 -0.0251  0.3245  0.2989
  517MOL0     C69666   5.011   4.046   6.529  0.0005  0.2589 -0.0859
  517MOL0     C69667   5.119   3.977   6.598 -0.2469  0.4984  0.1412
  517MOL0     O69668   5.116   3.916   6.721 -0.6101  0.6285  0.2068
  517MOL0     C69669   5.005   3.825   6.747  0.1346 -0.4625  0.4159
  517MOL0     C69670   5.032   3.758   6.888 -0.6124 -0.0857  0.0415
  517MOL0     C69671   5.083   3.843   7.007 -0.2114  0.0365  0.4261
  517MOL0     C69672   4.958   3.899   7.077 -0.3011  0.1849 -0.2691
  517MOL0     C69673   4.988   3.939   7.227  0.7602 -0.3213 -0.4422
  517MOL0     C69674   4.895   4.028   7.297  0.4556 -0.2419  0.5210
  517MOL0     C69675   4.913   4.054   7.450  0.0699 -0.5062  0.2105
  517MOL0     C69676   4.802   4.141   7.505 -0.1367  0.1853  0.7521
  517MOL0     N69677   4.821   4.137   7.647  0.5801 -0.6593  0.2177
  517MOL0     C69678   4.924   4.193   7.719  0.7255 -0.0214  0.5934
  517MOL0     C69679   4.885   4.174   7.850  0.0162  0.2366  0.4175
  517MOL0     C69680   4.953   4.221   7.980 -0.0766 -0.6039  0.3704
  517MOL0     C69681   5.108   4.196   7.992  0.2340  0.1395 -0.0414
  517MOL0     C69682   5.172   4.201   8.143 -0.4140  0.3576  0.4652
  517MOL0     C69683   5.110   4.096   8.234  0.7898 -0.5021 -0.9180
  517MOL0     O69684   5.194   4.045   8.340  0.1414 -0.8780  0.5395
  517MOL0     C69685   5.305   3.983   8.302 -0.1588 -0.6728  0.3017
  517MOL0     C69686   5.309   3.883   8.207  0.3840 -0.2599 -0.1456
  517MOL0     C69687   5.409   3.799   8.181  0.3687 -0.1593  0.1508
  517MOL0     C69688   5.399   3.707   8.065  0.2890  0.0994  0.2848
  517MOL0     C69689   5.529   3.820   8.243 -0.5882  1.1779 -0.0386
  517MOL0     C69690   5.658   3.734   8.234  0.5052 -1.1056 -1.0207
  517MOL0     O69691   5.730   3.734   8.347  0.3628 -1.1184 -0.1571
  517MOL0     C69692   5.861   3.716   8.342 -1.2150  0.5945  0.6840
  517MOL0     C69693   5.941   3.780   8.434 -0.6923  0.1542  0.1782
  517MOL0     C69694   6.078   3.759   8.439 -0.2957  0.6417  0.3929
  517MOL0     C69695   6.150   3.670   8.354 -0.5086  1.0318  0.0851
  517MOL0     O69696   6.286   3.677   8.352  1.0356 -0.2283 -0.4958
  517MOL0     C69697   6.356   3.624   8.241 -0.0464 -0.6241  0.8094
  517MOL0     C69698   6.500   3.603   8.314  0.3496  0.0267  0.3926
  517MOL0     C69699   6.502   3.466   8.385  0.8423  0.2423 -0.7149
  517MOL0     C69700   6.591   3.370   8.303  0.2558 -0.3854  0.1368
  517MOL0     C69701   6.563   3.230   8.343  0.3689  0.5345 -0.1808
  517MOL0     C69702   6.648   3.125   8.274 -0.4575 -0.1833 -0.2076
  517MOL0     C69703   6.597   2.983   8.307 -0.3284 -0.2009 -0.2524
  517MOL0     C69704   6.704   2.873   8.308 -0.7510 -0.3591  0.0897
  517MOL0    Cl69705   6.836   2.899   8.414  0.5118  0.2543  0.0267
  517MOL0     C69706   6.068   3.583   8.276  0.0937 -1.4273 -0.2143
  517MOL0     C69707   5.928   3.612   8.266  1.3031  0.6644 -1.1061
  517MOL0     O69708   5.697   3.700   8.126  0.4505 -0.0783  0.5667
  517MOL0     C69709   5.542   3.932   8.325  0.2624  0.4858 -0.9745
  517MOL0     C69710   5.425   4.009   8.364 -0.4858 -0.4624 -0.1234
  517MOL0     N69711   4.771   4.109   7.854  0.7892 -0.4054 -0.4410
  517MOL0     N69712   4.739   4.085   7.732 -0.4897  0.5991 -0.2466
  517MOL0     C69713   5.234   3.954   6.521 -0.1500  0.0350 -0.2402
  517MOL0     C69714   5.251   3.997   6.394 -0.6677 -0.1987  0.2714
  517MOL0     C69715   5.202   4.224   5.996 -0.1782 -0.1730 -0.4921
  517MOL0     C69716   5.232   4.352   5.931 -0.3417 -0.0136 -0.4740
  517MOL0     C69717   5.269   4.359   5.794 -0.5132  1.1665  0.0720
  517MOL0     C69718   5.269   4.238   5.710 -0.3686  0.5577  0.8031
  517MOL0     O69719   5.308   4.258   5.579 -0.6193  0.1081  0.3687
  517MOL0     C69720   5.295   4.154   5.484 -0.7648 -0.3547 -0.0305
  517MOL0     C69721   5.145   4.147   5.450 -0.2225  1.6954 -0.5755
  517MOL0     C69722   5.091   4.259   5.356 -0.2115 -0.0019 -0.4618
  517MOL0     C69723   4.970   4.312   5.432  0.0340  0.1635  0.0769
  517MOL0     C69724   5.002   4.386   5.549 -0.1219 -0.5941  0.9045
  517MOL0     C69725   5.023   4.465   5.643  0.6068 -0.1415  0.1555
  517MOL0     C69726   5.222   4.119   5.776 -0.0463 -0.0855  1.3364
  517MOL0     C69727   5.197   4.119   5.910  0.1845  1.1563  0.4906
  517MOL0     H69728   4.939   4.132   6.343 -0.7210 -1.5711 -0.4306
  517MOL0     H69729   4.916   4.068   6.578  0.9359  4.1696  0.2675
  517MOL0     H69730   4.907   3.874   6.742 -0.1642 -0.8124  2.2594
  517MOL0     H69731   4.993   3.752   6.667 -0.9395 -1.6207  1.5879
  517MOL0     H69732   4.942   3.705   6.920 -1.4723 -0.0234 -2.0968
  517MOL0     H69733   5.121   3.699   6.866  0.8900  0.6119  3.5639
  517MOL0     H69734   5.144   3.778   7.070  1.5996  0.8710 -0.3809
  517MOL0     H69735   5.143   3.928   6.971 -2.7058  0.9890 -1.8720
  517MOL0     H69736   4.919   3.980   7.015  0.1088  0.6093  0.0241
  517MOL0     H69737   4.873   3.830   7.070  2.2745 -3.0785 -2.0977
  517MOL0     H69738   4.994   3.851   7.293 -2.1896  0.6059  1.2571
  517MOL0     H69739   5.086   3.987   7.229  0.5619  0.0582  0.5256
  517MOL0     H69740   4.919   4.119   7.242 -0.7976 -1.4878 -2.2591
  517MOL0     H69741   4.792   3.995   7.280  1.0881 -2.8170  1.2445
  517MOL0     H69742   4.899   3.964   7.510  0.1695 -0.2751  0.5828
  517MOL0     H69743   5.009   4.101   7.474 -0.7228  1.2776  0.0760
  517MOL0     H69744   4.706   4.094   7.479  0.9815 -0.9582 -1.6928
  517MOL0     H69745   4.795   4.242   7.464 -1.1444  0.1360  0.7750
  517MOL0     H69746   5.002   4.239   7.660  0.1963 -2.1492 -1.9566
  517MOL0     H69747   4.927   4.326   7.999 -0.2270 -0.5968  0.1300
  517MOL0     H69748   4.900   4.159   8.052 -2.5124  0.1371 -0.6675
  517MOL0     H69749   5.165   4.264   7.928  0.2954 -1.5941 -1.9242
  517MOL0     H69750   5.126   4.094   7.957  3.0341  0.0176  1.4850
  517MOL0     H69751   5.162   4.303   8.182  2.1825 -0.0954  2.6001
  517MOL0     H69752   5.280   4.186   8.135  0.0128  2.4764  1.3609
  517MOL0     H69753   5.075   4.004   8.184 -2.2977 -0.4696  0.9003
  517MOL0     H69754   5.025   4.150   8.277  1.8547  1.5579 -1.2912
  517MOL0     H69755   5.215   3.878   8.152 -0.7157  2.3711  1.2928
  517MOL0     H69756   5.434   3.605   8.086  1.7779  0.3223 -0.9315
  517MOL0     H69757   5.298   3.691   8.025  1.8052  2.6599 -5.6553
  517MOL0     H69758   5.454   3.744   7.979 -1.7296  0.2145 -1.0207
  517MOL0     H69759   5.903   3.861   8.496 -0.5542  0.0939  0.3424
  517MOL0     H69760   6.132   3.820   8.511  1.0001  2.9054 -2.2789
  517MOL0     H69761   6.317   3.533   8.195 -0.5777  0.0517 -0.0961
  517MOL0     H69762   6.365   3.699   8.162  1.1054  0.8843  2.3067
  517MOL0     H69763   6.583   3.609   8.242 -1.9229 -1.3481 -2.5918
  517MOL0     H69764   6.506   3.685   8.386 -0.3620  3.4195 -3.0540
  517MOL0     H69765   6.400   3.425   8.388  1.0528 -0.2341  0.2061
  517MOL0     H69766   6.531   3.478   8.489  1.4857  1.6889 -1.0394
  517MOL0     H69767   6.571   3.388   8.196  0.1639 -1.1355  0.0203
  517MOL0     H69768   6.693   3.404   8.320  0.1124  0.0106  0.2023
  517MOL0     H69769   6.457   3.202   8.339 -0.1067  1.5367  2.6807
  517MOL0     H69770   6.573   3.217   8.451 -2.5614 -1.3661 -0.0115
  517MOL0     H69771   6.640   3.145   8.167  0.2884  2.9748  0.2451
  517MOL0     H69772   6.751   3.137   8.309 -0.3708  1.4372 -0.9148
  517MOL0     H69773   6.515   2.953   8.242 -0.7675 -2.6702  1.2918
  517MOL0     H69774   6.557   2.988   8.409  1.2749 -1.9594  0.5208
  517MOL0     H69775   6.745   2.866   8.206 -2.8266 -2.2372 -0.6964
  517MOL0     H69776   6.659   2.777   8.332  2.1457 -1.4701  1.4868
  517MOL0     H69777   6.104   3.486   8.243 -0.0663 -2.7052  2.9952
  517MOL0     H69778   5.869   3.544   8.207  0.5493 -1.0899  1.4867
  517MOL0     H69779   5.640   3.941   8.372 -0.3911  1.8477  0.1962
  517MOL0     H69780   5.434   4.080   8.446 -0.1507 -1.4712  0.7463
  517MOL0     H69781   5.313   3.903   6.575 -1.0059  0.9506  1.9776
  517MOL0     H69782   5.337   3.963   6.337 -0.5822 -1.2725  1.0191
  517MOL0     H69783   5.239   4.453   5.972  2.1139  0.3211 -1.5444
  517MOL0     H69784   5.297   4.450   5.741  1.6686  0.3525 -0.2644
  517MOL0     H69785   5.347   4.194   5.396 -2.8757  3.3541  0.1641
  517MOL0     H69786   5.343   4.059   5.507  0.2544 -0.9414 -3.9590
  517MOL0     H69787   5.086   4.125   5.540 -0.6599  3.5131 -0.3807
  517MOL0     H69788   5.126   4.052   5.400  0.1711  0.6531  1.1690
  517MOL0     H69789   5.055   4.234   5.255 -0.8881  0.3718 -0.3132
  517MOL0     H69790   5.172   4.333   5.352 -1.2224  1.2448 -5.5344
  517MOL0     H69791   4.897   4.240   5.471 -0.6767  1.1158  0.5351
  517MOL0     H69792   4.912   4.389   5.381 -0.6860  0.2673  1.0140
  517MOL0     H69793   5.047   4.545   5.710 -0.2250 -0.9739  1.4974
  517MOL0     H69794   5.212   4.036   5.707 -1.5475  2.5428 -1.8938
  517MOL0     H69795   5.163   4.024   5.950  2.7691  0.0459  0.2961
  518MOL0     O69796   0.369   5.514   8.533  0.6457 -0.8794  0.9361
  518MOL0     C69797   0.367   5.626   8.483  1.1733 -0.4053 -0.5211
  518MOL0     O69798   0.469   5.681   8.411 -0.2857  0.4626  0.9203
  518MOL0     C69799   0.583   5.609   8.402 -0.3971  0.5783 -0.2734
  518MOL0     C69800   0.610   5.531   8.286 -0.0169  0.6068 -1.5332
  518MOL0     C69801   0.737   5.485   8.263 -0.0457 -0.4013 -0.2316
  518MOL0     C69802   0.841   5.498   8.353 -0.5670  0.2261  0.3649
  518MOL0     O69803   0.965   5.456   8.303  0.2600  0.2424 -0.2425
  518MOL0     C69804   1.083   5.544   8.330  0.3952  0.7030  0.8519
  518MOL0     C69805   1.175   5.461   8.422  0.6889 -0.1991  0.1076
  518MOL0     C69806   1.300   5.525   8.486 -0.6759 -0.5001  0.3696
  518MOL0     C69807   1.394   5.580   8.379  0.4808 -0.1123 -0.1238
  518MOL0     C69808   1.515   5.645   8.443  0.1709 -0.1253 -0.3298
  518MOL0     C69809   1.625   5.685   8.342  0.2058  0.0361  0.3033
  518MOL0     C69810   1.729   5.772   8.401 -0.1524 -0.2799 -0.8577
  518MOL0     C69811   1.834   5.802   8.300  0.2581 -0.3900 -0.3874
  518MOL0     N69812   1.964   5.806   8.352  0.1447  0.7234  0.4886
  518MOL0     C69813   2.041   5.696   8.394 -0.1467 -0.9211 -0.3704
  518MOL0     C69814   2.146   5.754   8.463  0.1271  0.5368  0.1488
  518MOL0     C69815   2.260   5.685   8.542  0.3195 -0.8709 -0.1241
  518MOL0     C69816   2.411   5.737   8.537  0.2392  0.5764  0.1786
  518MOL0     C69817   2.466   5.745   8.398  0.7523  0.8246  0.5307
  518MOL0     C69818   2.618   5.733   8.400  0.1397  0.1110  0.2881
  518MOL0     O69819   2.669   5.848   8.475 -0.0270  0.5887 -0.1008
  518MOL0     C69820   2.793   5.895   8.445  0.4741  0.0583  0.8784
  518MOL0     C69821   2.838   6.001   8.517  0.0563  0.1922 -0.6515
  518MOL0     C69822   2.967   6.059   8.496 -0.7641  0.1555  1.3148
  518MOL0     C69823   2.999   6.171   8.583  0.3388  0.5070  0.2627
  518MOL0     C69824   3.059   6.010   8.396  1.0871 -0.3652 -0.2817
  518MOL0     C69825   3.198   6.052   8.363 -0.4392  0.2824 -0.2418
  518MOL0     O69826   3.255   6.138   8.452 -0.6626 -0.0095  0.0936
  518MOL0     C69827   3.392   6.142   8.444  0.4523 -0.2297  0.5984
  518MOL0     C69828   3.462   6.220   8.350  0.2948 -0.1017  0.8162
  518MOL0     C69829   3.600   6.214   8.344  0.2164  0.1335 -0.1640
  518MOL0     C69830   3.682   6.152   8.441 -0.1727 -0.1573  0.6596
  518MOL0     O69831   3.820   6.154   8.431  0.4909 -0.1881 -0.1935
  518MOL0     C69832   3.895   6.079   8.525  0.2303  0.0922 -0.9069
  518MOL0     C69833   4.040   6.123   8.508 -0.6343  0.3095 -1.0120
  518MOL0     C69834   4.093   6.093   8.369  0.3777  0.3966 -0.2306
  518MOL0     C69835   4.228   6.021   8.381 -0.1102 -0.1249  0.1565
  518MOL0     C69836   4.267   5.974   8.237 -0.3709 -0.1179  0.1883
  518MOL0     C69837   4.410   5.915   8.244  1.1649 -0.2234  0.4455
  518MOL0     C69838   4.443   5.844   8.116  0.1653  0.9048 -0.2395
  518MOL0     C69839   4.415   5.937   7.988  0.0568  0.0996 -0.2589
  518MOL0    Cl69840   4.511   5.876   7.843 -0.1087  0.1083  0.0394
  518MOL0     C69841   3.612   6.064   8.525 -1.0887 -0.4093  0.2144
  518MOL0     C69842   3.468   6.063   8.530  0.3260  0.7495 -0.4101
  518MOL0     O69843   3.256   5.988   8.277 -0.4528  0.4625 -0.2608
  518MOL0     C69844   3.011   5.889   8.336  0.6930 -0.8275  0.7418
  518MOL0     C69845   2.876   5.841   8.343 -1.0483 -1.0224 -0.0116
  518MOL0     N69846   2.128   5.893   8.450 -0.3278 -0.9624 -0.4979
  518MOL0     N69847   2.022   5.921   8.378 -0.6364 -0.0046  0.0869
  518MOL0     C69848   0.810   5.566   8.473  0.1322  0.6055  0.0405
  518MOL0     C69849   0.685   5.632   8.492 -0.3770 -0.1585 -0.2483
  518MOL0     C69850   0.233   5.703   8.495  0.0515 -0.7233  0.5949
  518MOL0     C69851   0.118   5.629   8.542 -0.2764  0.0862 -0.0577
  518MOL0     C69852  -0.008   5.689   8.557  0.0709 -0.1059  0.3428
  518MOL0     C69853  -0.023   5.819   8.525 -0.3512 -1.0190  0.6544
  518MOL0     O69854  -0.137   5.888   8.546  0.5534  0.1936  0.3653
  518MOL0     C69855  -0.187   5.881   8.677 -0.2353 -0.0290  0.0243
  518MOL0     C69856  -0.291   5.986   8.699 -0.8390 -0.0927 -0.4970
  518MOL0     C69857  -0.257   6.125   8.639  0.0093 -0.5606  0.0195
  518MOL0     C69858  -0.307   6.225   8.730  0.5474 -0.4846  0.1973
  518MOL0     C69859  -0.277   6.362   8.699 -0.8387 -0.7439 -0.3572
  518MOL0     C69860  -0.293   6.479   8.677  0.1133  0.0923  0.7194
  518MOL0     C69861   0.083   5.895   8.470  0.7817 -0.2200  0.1653
  518MOL0     C69862   0.208   5.833   8.452 -0.0943 -0.0349  0.1058
  518MOL0     H69863   0.519   5.498   8.235  1.7761 -1.4105 -3.6456
  518MOL0     H69864   0.770   5.426   8.178  2.8865  0.1494  0.4011
  518MOL0     H69865   1.142   5.569   8.241  0.7995 -2.0480  0.2455
  518MOL0     H69866   1.047   5.638   8.372  2.4508  1.8461  0.2207
  518MOL0     H69867   1.125   5.405   8.501 -1.9492  1.5970 -0.1778
  518MOL0     H69868   1.216   5.384   8.356  1.2467  0.7403 -0.6841
  518MOL0     H69869   1.273   5.604   8.557  0.6371 -1.4301  1.9666
  518MOL0     H69870   1.367   5.453   8.534  3.6618  2.0631 -1.2633
  518MOL0     H69871   1.428   5.491   8.325 -1.5448  0.7810 -3.1339
  518MOL0     H69872   1.337   5.642   8.309 -1.9965 -2.5427 -0.4591
  518MOL0     H69873   1.487   5.731   8.504 -2.6959 -0.6478 -0.7811
  518MOL0     H69874   1.572   5.574   8.505 -1.0482 -0.1671  0.7770
  518MOL0     H69875   1.670   5.593   8.304  1.3280  0.2877  0.9637
  518MOL0     H69876   1.574   5.740   8.263  1.6334 -1.0489 -1.4390
  518MOL0     H69877   1.680   5.862   8.439 -1.0464 -0.4060 -1.6778
  518MOL0     H69878   1.767   5.716   8.487 -2.7263 -0.8722 -0.0285
  518MOL0     H69879   1.818   5.903   8.261 -1.5166 -0.8568 -0.9565
  518MOL0     H69880   1.836   5.733   8.215 -0.7753 -2.2796  1.0393
  518MOL0     H69881   2.027   5.590   8.378 -0.7994 -0.5453 -2.5012
  518MOL0     H69882   2.224   5.680   8.646  2.1953 -3.0448  0.4835
  518MOL0     H69883   2.254   5.580   8.514 -1.0534 -1.1452  1.0753
  518MOL0     H69884   2.473   5.668   8.595 -0.4736 -0.8066 -0.6473
  518MOL0     H69885   2.420   5.833   8.588 -0.2286  2.7684 -3.5160
  518MOL0     H69886   2.429   5.840   8.357 -1.9105 -0.6811 -0.8223
  518MOL0     H69887   2.420   5.661   8.345  0.1033  0.7797  1.1488
  518MOL0     H69888   2.638   5.731   8.292 -3.8163 -0.9594 -0.5958
  518MOL0     H69889   2.659   5.638   8.434 -0.1623 -0.8606 -1.8680
  518MOL0     H69890   2.774   6.037   8.597  0.8181 -0.0096  0.0569
  518MOL0     H69891   2.917   6.206   8.646 -0.3806  0.6638 -0.7353
  518MOL0     H69892   3.086   6.138   8.642  1.5006 -0.8700 -2.0613
  518MOL0     H69893   3.023   6.262   8.528 -1.7101  2.3074  2.1481
  518MOL0     H69894   3.414   6.285   8.277 -0.0586 -0.5026  0.6912
  518MOL0     H69895   3.648   6.259   8.257 -1.7534  0.0323 -1.3599
  518MOL0     H69896   3.859   6.099   8.626 -1.7904 -1.0742 -1.3438
  518MOL0     H69897   3.878   5.972   8.513 -0.6962  0.0438  0.5720
  518MOL0     H69898   4.061   6.224   8.545  1.2903 -1.1929  2.4648
  518MOL0     H69899   4.103   6.065   8.576  0.8403  1.7663 -1.0857
  518MOL0     H69900   4.112   6.184   8.311 -1.8037  1.1688  0.1577
  518MOL0     H69901   4.024   6.019   8.329  0.9431 -1.0354  1.3310
  518MOL0     H69902   4.301   6.093   8.419 -1.5743  1.1324  0.6770
  518MOL0     H69903   4.210   5.929   8.438 -5.4742  1.6622  1.9591
  518MOL0     H69904   4.247   6.054   8.164  1.5146  3.4491  3.2107
  518MOL0     H69905   4.207   5.886   8.216 -2.1249  1.1110 -0.1737
  518MOL0     H69906   4.487   5.989   8.268  2.1907 -0.1085 -2.7689
  518MOL0     H69907   4.411   5.838   8.322 -2.7186  1.6676  2.6648
  518MOL0     H69908   4.388   5.749   8.119 -1.1970  1.7021  1.3713
  518MOL0     H69909   4.549   5.819   8.115 -0.5575 -2.8080  0.2889
  518MOL0     H69910   4.456   6.034   8.018  0.2548 -0.2947  0.7822
  518MOL0     H69911   4.307   5.939   7.973 -0.3395  0.3062  2.2376
  518MOL0     H69912   3.678   6.013   8.593  1.4688  1.7326 -0.5065
  518MOL0     H69913   3.415   6.003   8.604 -0.7650 -0.4858 -2.1226
  518MOL0     H69914   3.071   5.823   8.274  1.0133  1.1746 -1.1868
  518MOL0     H69915   2.835   5.764   8.279 -2.2928  1.7014 -2.7039
  518MOL0     H69916   0.892   5.580   8.544  3.6307 -0.3153 -3.4769
  518MOL0     H69917   0.661   5.706   8.568 -0.2421  0.8693 -1.1863
  518MOL0     H69918   0.126   5.520   8.544 -0.1755 -0.0066 -2.4465
  518MOL0     H69919  -0.088   5.628   8.598 -0.7776  0.9676  0.3241
  518MOL0     H69920  -0.230   5.782   8.692 -0.7547  0.2257  0.2663
  518MOL0     H69921  -0.110   5.901   8.752 -0.7537 -0.5986  0.7192
  518MOL0     H69922  -0.321   5.982   8.804 -3.3213 -1.1103 -1.1666
  518MOL0     H69923  -0.373   5.946   8.638 -0.8043 -1.4114  0.3038
  518MOL0     H69924  -0.311   6.143   8.546 -0.4590 -0.0073  0.3866
  518MOL0     H69925  -0.150   6.140   8.622  0.4173 -3.0631  0.0638
  518MOL0     H69926  -0.282   6.202   8.834  3.0491 -1.1193 -0.4954
  518MOL0     H69927  -0.417   6.223   8.730  0.4929 -0.1025 -1.9823
  518MOL0     H69928  -0.308   6.579   8.643 -5.3516 -0.5561  0.3594
  518MOL0     H69929   0.076   6.001   8.448  1.3532 -0.4333 -1.1627
  518MOL0     H69930   0.294   5.895   8.430  1.1823 -1.1038  1.7988
  519MOL0     O69931   2.962   6.321   4.661  0.1308  1.2082 -0.8934
  519MOL0     C69932   2.941   6.251   4.770 -0.4634  0.3031 -0.0674
  519MOL0     O69933   2.858   6.139   4.781 -0.2198 -0.3800  0.3384
  519MOL0     C69934   2.821   6.084   4.655 -0.6245 -0.1168 -0.7057
  519MOL0     C69935   2.694   6.061   4.610 -0.1096 -0.3508 -0.5991
  519MOL0     C69936   2.671   6.008   4.483 -1.3185 -0.2295 -0.5956
  519MOL0     C69937   2.778   5.962   4.399 -0.0443  0.6184  0.9895
  519MOL0     O69938   2.761   5.886   4.283 -0.6423  0.9047 -0.3698
  519MOL0     C69939   2.812   5.940   4.163 -0.1383 -0.0934 -0.5506
  519MOL0     C69940   2.765   5.853   4.052  0.3011  1.0061  0.0233
  519MOL0     C69941   2.819   5.922   3.920  0.8670  0.1217  0.2594
  519MOL0     C69942   2.828   5.812   3.809 -0.9467 -0.8985 -0.2505
  519MOL0     C69943   2.846   5.864   3.677  0.2210 -0.3336  0.4070
  519MOL0     C69944   2.993   5.883   3.646 -0.4576  0.2040  0.4960
  519MOL0     C69945   3.011   5.968   3.520  0.1293 -0.4725 -0.3964
  519MOL0     C69946   3.164   5.976   3.502  0.1204 -0.1318  0.1148
  519MOL0     N69947   3.220   6.077   3.596 -0.2167 -0.1964 -0.5418
  519MOL0     C69948   3.212   6.212   3.577  0.5022  1.3190 -0.2536
  519MOL0     C69949   3.318   6.266   3.640 -0.0463  0.3918 -0.5007
  519MOL0     C69950   3.343   6.418   3.658  0.0636 -0.0403  0.0786
  519MOL0     C69951   3.312   6.469   3.798 -0.6125 -0.7848  0.6786
  519MOL0     C69952   3.166   6.498   3.819 -0.4593 -0.1777  0.4780
  519MOL0     C69953   3.105   6.598   3.716 -0.1403  0.7041 -0.0239
  519MOL0     O69954   2.972   6.627   3.744  0.7546  0.0141 -0.0617
  519MOL0     C69955   2.950   6.707   3.853 -0.0718  0.6522 -0.0370
  519MOL0     C69956   3.018   6.827   3.865 -0.4992 -0.2939 -0.4177
  519MOL0     C69957   2.982   6.923   3.969  0.5487 -0.0579  0.2687
  519MOL0     C69958   3.054   7.053   3.964  0.5611 -0.8321 -0.0524
  519MOL0     C69959   2.891   6.881   4.066 -0.0243  1.3048  1.1414
  519MOL0     C69960   2.856   6.955   4.184 -0.9767  0.2869 -0.4322
  519MOL0     O69961   2.804   6.881   4.287  0.5919  0.2451  0.1999
  519MOL0     C69962   2.759   6.949   4.397 -0.1215  0.2818  0.9229
  519MOL0     C69963   2.845   7.004   4.497  0.3701  0.3315 -0.1044
  519MOL0     C69964   2.808   7.072   4.613  0.2682 -0.0615  0.2897
  519MOL0     C69965   2.668   7.088   4.625 -0.2448  0.0364  0.5966
  519MOL0     O69966   2.623   7.149   4.739  0.4922  0.4448  0.0686
  519MOL0     C69967   2.490   7.111   4.778  0.0096 -0.1347 -0.5780
  519MOL0     C69968   2.483   7.100   4.927  0.0468 -0.5055  0.0054
  519MOL0     C69969   2.368   7.006   4.976  0.5250 -1.6689  0.8054
  519MOL0     C69970   2.409   6.868   4.974  0.1659  0.2102  0.0496
  519MOL0     C69971   2.288   6.801   5.036  0.1554  0.3270  0.2435
  519MOL0     C69972   2.309   6.647   5.057  0.1394 -0.1749  0.8298
  519MOL0     C69973   2.279   6.569   4.937  0.0421 -0.7959  0.3601
  519MOL0     C69974   2.330   6.431   4.960  0.5043 -1.3614 -0.0939
  519MOL0    Cl69975   2.307   6.325   4.812 -0.6238 -0.4066 -0.4616
  519MOL0     C69976   2.575   7.047   4.528  0.0972  0.4220  0.2541
  519MOL0     C69977   2.623   6.972   4.415  0.2878 -0.6864 -0.7264
  519MOL0     O69978   2.872   7.072   4.185 -0.4383 -0.9607 -0.7597
  519MOL0     C69979   2.820   6.762   4.042  0.3569  0.6522 -0.2549
  519MOL0     C69980   2.851   6.670   3.936  0.1738 -0.3880  0.8656
  519MOL0     N69981   3.395   6.162   3.682  0.0428 -0.3213 -0.0156
  519MOL0     N69982   3.328   6.054   3.665 -0.0567 -0.1357  0.8310
  519MOL0     C69983   2.905   5.987   4.442 -0.1948 -0.5335 -0.9356
  519MOL0     C69984   2.922   6.052   4.565  0.0405  0.6990  0.4848
  519MOL0     C69985   3.010   6.289   4.899 -0.7291 -0.7513  0.5191
  519MOL0     C69986   2.987   6.220   5.021 -0.4343 -0.0094 -0.5386
  519MOL0     C69987   3.068   6.257   5.137  0.4847  0.6452 -1.1263
  519MOL0     C69988   3.180   6.332   5.126 -0.5933 -0.0088 -0.9756
  519MOL0     O69989   3.265   6.331   5.241  0.8031 -0.2385  1.2725
  519MOL0     C69990   3.408   6.355   5.216 -0.4261  0.3740  0.0024
  519MOL0     C69991   3.498   6.237   5.184 -0.2893  0.2250  0.6307
  519MOL0     C69992   3.472   6.190   5.040 -0.3321 -0.3760  0.3039
  519MOL0     C69993   3.567   6.070   5.000  0.2508 -0.5478  1.1862
  519MOL0     C69994   3.619   6.112   4.868 -0.1635 -0.1637 -0.5127
  519MOL0     C69995   3.668   6.136   4.759  0.0807  0.0860  0.2243
  519MOL0     C69996   3.205   6.398   5.008 -0.5002 -0.0235  0.4831
  519MOL0     C69997   3.118   6.375   4.897 -1.7202 -0.7212  0.1076
  519MOL0     H69998   2.616   6.109   4.669  1.5158  5.4817 -2.5298
  519MOL0     H69999   2.569   6.010   4.445 -1.5293  4.1023 -0.3403
  519MOL0     H70000   2.766   6.039   4.154  2.3661  1.3109  0.8548
  519MOL0     H70001   2.920   5.940   4.176 -0.2931  2.8682  1.8636
  519MOL0     H70002   2.793   5.748   4.063  1.3437  1.3114  0.3765
  519MOL0     H70003   2.656   5.840   4.047  0.4710 -0.6646  0.2696
  519MOL0     H70004   2.737   5.988   3.889 -1.8249 -2.1087  2.0878
  519MOL0     H70005   2.912   5.975   3.942 -0.2209  1.8637  0.9404
  519MOL0     H70006   2.898   5.733   3.840 -2.1526 -1.7893  0.2659
  519MOL0     H70007   2.731   5.761   3.815 -1.0176 -0.5926  2.8340
  519MOL0     H70008   2.797   5.796   3.606 -2.4347  0.7183  1.0842
  519MOL0     H70009   2.800   5.962   3.662 -2.9299 -1.7406 -0.0524
  519MOL0     H70010   3.031   5.941   3.730  0.6073  3.1301 -1.8336
  519MOL0     H70011   3.036   5.782   3.643 -2.5777 -0.7516  0.5731
  519MOL0     H70012   2.968   5.928   3.428  1.2953 -0.3030 -1.0333
  519MOL0     H70013   2.980   6.067   3.555  1.0573 -1.2684  3.0558
  519MOL0     H70014   3.185   6.015   3.402  1.6075 -0.5472  0.2527
  519MOL0     H70015   3.201   5.874   3.514 -0.0740 -0.4028 -1.4197
  519MOL0     H70016   3.140   6.274   3.523 -0.5122  2.4438  2.2208
  519MOL0     H70017   3.445   6.438   3.624  0.1957 -4.8763 -3.4237
  519MOL0     H70018   3.288   6.472   3.581  2.9668  0.5763 -1.7466
  519MOL0     H70019   3.370   6.562   3.805 -0.4903 -0.8530  0.5618
  519MOL0     H70020   3.342   6.389   3.866  1.1019 -3.5873 -3.0302
  519MOL0     H70021   3.152   6.522   3.925 -1.7187  1.7498 -0.0740
  519MOL0     H70022   3.112   6.404   3.800 -2.0456  1.1864 -2.4694
  519MOL0     H70023   3.114   6.569   3.611 -0.4373 -2.4293  0.7057
  519MOL0     H70024   3.177   6.679   3.733  0.3522 -0.1574  2.4439
  519MOL0     H70025   3.099   6.844   3.795  2.3288 -0.2401  2.6389
  519MOL0     H70026   3.069   7.105   4.059 -0.0992  3.7379 -2.1785
  519MOL0     H70027   3.154   7.039   3.923 -0.3811 -1.5403 -2.2746
  519MOL0     H70028   2.998   7.124   3.902 -2.4090 -2.3048  0.7386
  519MOL0     H70029   2.949   6.978   4.479  0.1312 -0.9000  0.2035
  519MOL0     H70030   2.879   7.090   4.693 -1.3074  1.3512  1.4526
  519MOL0     H70031   2.422   7.181   4.731 -0.0045 -0.3115 -0.8213
  519MOL0     H70032   2.462   7.013   4.738 -2.2072  0.6901 -1.1548
  519MOL0     H70033   2.579   7.061   4.964 -1.3717 -2.5186  1.8021
  519MOL0     H70034   2.469   7.204   4.958 -1.0032  0.7184 -3.9771
  519MOL0     H70035   2.279   7.017   4.913  0.3848  2.4897  1.4569
  519MOL0     H70036   2.340   7.036   5.077 -0.5170 -0.4088  0.1879
  519MOL0     H70037   2.418   6.834   4.870  0.3459 -1.7489  0.6547
  519MOL0     H70038   2.500   6.858   5.033  0.2212 -2.1477 -0.3230
  519MOL0     H70039   2.191   6.816   4.988 -1.0318 -1.8223  1.8026
  519MOL0     H70040   2.269   6.830   5.140  3.0067 -3.0686  1.9435
  519MOL0     H70041   2.409   6.620   5.091  0.9083  0.9442 -0.4692
  519MOL0     H70042   2.258   6.608   5.146 -0.9430 -0.5392  0.0689
  519MOL0     H70043   2.314   6.616   4.845 -2.3966 -2.6366 -1.6394
  519MOL0     H70044   2.174   6.551   4.912 -0.8723  1.1977  2.4068
  519MOL0     H70045   2.270   6.390   5.042 -0.5389 -1.1968 -0.7596
  519MOL0     H70046   2.435   6.432   4.993  0.2304 -0.7362  0.7692
  519MOL0     H70047   2.469   7.065   4.541 -0.2835 -1.0105 -0.6515
  519MOL0     H70048   2.551   6.926   4.347 -1.0639  2.8954 -1.9319
  519MOL0     H70049   2.743   6.734   4.114  1.4427  0.2033  0.7547
  519MOL0     H70050   2.791   6.581   3.919  1.5807 -1.3142  0.5366
  519MOL0     H70051   2.993   5.970   4.381  0.2758 -1.4392 -0.0345
  519MOL0     H70052   3.026   6.066   4.590  0.5052  1.2416 -1.5622
  519MOL0     H70053   2.901   6.155   5.030  0.3275 -1.4684 -2.7971
  519MOL0     H70054   3.033   6.211   5.229 -1.1640 -2.4937 -3.1783
  519MOL0     H70055   3.411   6.445   5.154 -0.2065  1.0452  0.9627
  519MOL0     H70056   3.455   6.390   5.308  0.9955 -1.6766  0.1225
  519MOL0     H70057   3.479   6.163   5.263  1.4635  0.8818  1.7018
  519MOL0     H70058   3.605   6.259   5.180 -0.2046 -0.2942 -0.4794
  519MOL0     H70059   3.468   6.271   4.967  1.6121 -0.0858  0.4846
  519MOL0     H70060   3.372   6.145   5.034 -1.5977  2.4208 -2.6153
  519MOL0     H70061   3.509   5.977   5.001  0.6038 -0.8730 -1.2261
  519MOL0     H70062   3.648   6.053   5.072  0.9644 -2.0843  0.0954
  519MOL0     H70063   3.726   6.159   4.672 -1.5463 -0.2344 -0.9997
  519MOL0     H70064   3.300   6.447   4.991  0.5896 -1.5910  1.8159
  519MOL0     H70065   3.143   6.422   4.803  0.7857 -0.5811  0.7620
  520MOL0     O70066   2.662   2.429   8.357 -0.4576  0.0474 -0.3868
  520MOL0     C70067   2.672   2.515   8.278  0.6414 -1.1108  0.5265
  520MOL0     O70068   2.770   2.519   8.185 -0.8240  0.4607 -0.4356
  520MOL0     C70069   2.877   2.438   8.197 -0.9501  0.0494 -0.8232
  520MOL0     C70070   2.982   2.473   8.280 -0.6229 -1.0997  0.5840
  520MOL0     C70071   3.101   2.401   8.307  0.7194  0.2968 -0.1488
  520MOL0     C70072   3.103   2.276   8.242 -0.2500 -0.1984  0.0680
  520MOL0     O70073   3.227   2.205   8.244  0.8593 -0.4874  0.1595
  520MOL0     C70074   3.262   2.099   8.148 -0.6933 -0.4348 -0.9831
  520MOL0     C70075   3.406   2.048   8.178  0.2553 -0.6661 -0.0131
  520MOL0     C70076   3.408   1.905   8.154 -0.8790 -0.0237  0.5010
  520MOL0     C70077   3.558   1.850   8.148  0.5258  0.2493 -0.0918
  520MOL0     C70078   3.566   1.702   8.104  0.1854 -0.2359 -0.2348
  520MOL0     C70079   3.708   1.640   8.102 -0.2419 -0.7719  0.2606
  520MOL0     C70080   3.716   1.498   8.048 -0.6761  0.8731  0.1082
  520MOL0     C70081   3.867   1.448   8.059 -0.7433  0.3751  0.4483
  520MOL0     N70082   3.879   1.309   8.101  0.3415  0.7222  0.1032
  520MOL0     C70083   3.819   1.202   8.040  1.2695  1.3663 -0.2508
  520MOL0     C70084   3.872   1.089   8.090 -0.6966  0.0273  0.6818
  520MOL0     C70085   3.850   0.948   8.054  0.2993 -0.5051  0.5167
  520MOL0     C70086   3.919   0.888   7.924 -0.3692  0.2101  0.0624
  520MOL0     C70087   4.071   0.937   7.929 -0.1950  0.0007 -0.9250
  520MOL0     C70088   4.145   0.888   7.809 -0.1258  0.2520  0.8350
  520MOL0     O70089   4.090   0.958   7.694 -0.4644  0.5612  0.8323
  520MOL0     C70090   4.089   0.891   7.575 -0.8131 -0.3157 -0.0204
  520MOL0     C70091   3.979   0.900   7.485  0.0666 -1.0786 -0.0682
  520MOL0     C70092   3.978   0.836   7.356  0.5564 -0.8300  0.4102
  520MOL0     C70093   3.843   0.868   7.276 -0.0761  0.1508 -0.6162
  520MOL0     C70094   4.088   0.758   7.319  0.2448 -0.3913  0.7880
  520MOL0     C70095   4.112   0.710   7.179 -0.6393  0.6642  0.5412
  520MOL0     O70096   4.185   0.595   7.177 -0.4363 -0.3026  0.4755
  520MOL0     C70097   4.242   0.551   7.058 -0.5131  0.4156  0.3462
  520MOL0     C70098   4.205   0.423   7.016  0.5076 -0.7505 -0.3427
  520MOL0     C70099   4.242   0.364   6.897 -0.8313  0.4315 -0.6060
  520MOL0     C70100   4.318   0.432   6.809  0.6312  0.8835  0.7387
  520MOL0     O70101   4.356   0.375   6.687  0.0404  0.2169  0.1769
  520MOL0     C70102   4.458   0.278   6.712 -0.0765 -0.2144 -0.0930
  520MOL0     C70103   4.491   0.216   6.575  0.4736 -0.1309 -0.0866
  520MOL0     C70104   4.380   0.169   6.484  0.0956  0.3482  0.2082
  520MOL0     C70105   4.323   0.260   6.373  0.1587  0.9086 -0.1085
  520MOL0     C70106   4.426   0.285   6.250 -0.2826 -0.2441  0.8381
  520MOL0     C70107   4.359   0.380   6.149  0.2519  0.1354  0.1204
  520MOL0     C70108   4.415   0.353   6.001  0.0744 -0.5871  0.4904
  520MOL0     C70109   4.313   0.383   5.894 -0.5265  0.0959  0.3926
  520MOL0    Cl70110   4.159   0.293   5.922 -0.1446  0.2223 -0.2998
  520MOL0     C70111   4.363   0.565   6.840 -0.2348  0.5925 -0.6825
  520MOL0     C70112   4.333   0.620   6.971 -0.4297  0.7057  0.6231
  520MOL0     O70113   4.065   0.759   7.074  0.3151 -0.5447  0.3992
  520MOL0     C70114   4.209   0.763   7.397 -0.2183 -0.3369  0.7146
  520MOL0     C70115   4.201   0.826   7.526 -0.2153  1.2160  0.0074
  520MOL0     N70116   3.977   1.123   8.173 -0.1484 -0.4126 -0.1472
  520MOL0     N70117   3.972   1.257   8.179  0.4454 -0.7176 -0.7612
  520MOL0     C70118   2.996   2.230   8.165 -0.2645 -0.3642 -0.0086
  520MOL0     C70119   2.880   2.308   8.151  0.7183 -0.6085 -0.0281
  520MOL0     C70120   2.565   2.616   8.268  0.2902  0.0844  0.2138
  520MOL0     C70121   2.584   2.732   8.190 -0.4108  0.0174  0.3856
  520MOL0     C70122   2.473   2.816   8.170 -1.0796 -0.1359 -0.8545
  520MOL0     C70123   2.344   2.780   8.208  0.8310  0.1056  0.1451
  520MOL0     O70124   2.228   2.848   8.181 -0.2518 -0.1388 -0.0430
  520MOL0     C70125   2.174   2.849   8.050 -1.0357  0.8238  0.7273
  520MOL0     C70126   2.077   2.731   8.037  0.5827 -0.4904  0.6040
  520MOL0     C70127   2.009   2.724   7.908 -0.2672  0.0011  0.3084
  520MOL0     C70128   1.894   2.621   7.905  0.3295  0.1166  0.3324
  520MOL0     C70129   1.928   2.484   7.902 -0.4733  0.6739 -0.3039
  520MOL0     C70130   1.951   2.369   7.938 -0.6092  0.4197  0.3884
  520MOL0     C70131   2.328   2.665   8.292  0.8278 -1.5427 -0.5021
  520MOL0     C70132   2.443   2.588   8.323  0.3612 -1.1777 -0.0254
  520MOL0     H70133   2.956   2.560   8.339  0.9119  1.4911 -2.2071
  520MOL0     H70134   3.188   2.423   8.368  0.8001 -3.1500  1.2064
  520MOL0     H70135   3.193   2.016   8.161 -0.6180 -0.2191  1.2004
  520MOL0     H70136   3.272   2.128   8.043  3.6835 -0.5521 -0.7870
  520MOL0     H70137   3.485   2.097   8.120 -0.5916 -0.0221 -0.6570
  520MOL0     H70138   3.424   2.071   8.283  0.8903 -0.7131 -0.1055
  520MOL0     H70139   3.365   1.850   8.238 -0.1876 -0.8280  0.3468
  520MOL0     H70140   3.376   1.890   8.050 -1.8721 -0.5231  0.8623
  520MOL0     H70141   3.612   1.914   8.078  1.6946 -0.7786 -0.1583
  520MOL0     H70142   3.608   1.850   8.245  0.1120 -0.4617  0.1288
  520MOL0     H70143   3.501   1.641   8.168  0.2077 -0.1325 -0.1137
  520MOL0     H70144   3.530   1.688   8.001 -0.8624 -0.0283  0.0917
  520MOL0     H70145   3.759   1.702   8.027 -0.6655  1.2735  1.5996
  520MOL0     H70146   3.760   1.654   8.197 -0.5659  0.0158  0.3241
  520MOL0     H70147   3.649   1.434   8.106  1.5920 -1.7581  0.0456
  520MOL0     H70148   3.682   1.499   7.944 -1.0828  4.9074  0.1301
  520MOL0     H70149   3.902   1.502   8.148 -0.8874 -2.6872  2.5030
  520MOL0     H70150   3.933   1.478   7.977 -1.3039  3.2331  0.9382
  520MOL0     H70151   3.748   1.203   7.958 -1.4908  2.3318  1.9553
  520MOL0     H70152   3.883   0.892   8.142  0.7043 -0.8899  0.1226
  520MOL0     H70153   3.744   0.934   8.029  0.7889 -1.1046 -1.3709
  520MOL0     H70154   3.871   0.932   7.836  0.3564  2.0170  0.5003
  520MOL0     H70155   3.911   0.779   7.924  2.7911 -0.1292 -1.2794
  520MOL0     H70156   4.122   0.895   8.016  1.6523  0.2173 -1.8564
  520MOL0     H70157   4.087   1.045   7.937  0.6126 -0.0637 -1.6170
  520MOL0     H70158   4.117   0.782   7.808  1.8167 -0.3200  2.0646
  520MOL0     H70159   4.254   0.898   7.820 -0.1855  1.7108  0.2722
  520MOL0     H70160   3.893   0.962   7.509  0.5851 -0.2298 -0.3662
  520MOL0     H70161   3.759   0.867   7.346 -1.0607  1.1075 -1.7368
  520MOL0     H70162   3.845   0.965   7.227 -5.3190  0.8741  0.0334
  520MOL0     H70163   3.818   0.788   7.205 -1.5966  0.9480 -0.9983
  520MOL0     H70164   4.134   0.370   7.078  1.1343 -1.0989  0.0883
  520MOL0     H70165   4.215   0.261   6.877 -1.2173  0.4848 -0.3585
  520MOL0     H70166   4.548   0.332   6.739  0.1068 -0.8615  0.6167
  520MOL0     H70167   4.438   0.220   6.802  2.7488  1.4541  1.7303
  520MOL0     H70168   4.542   0.293   6.516 -0.5484  2.1898  1.8702
  520MOL0     H70169   4.567   0.140   6.598  0.9210  0.9652  2.3084
  520MOL0     H70170   4.295   0.127   6.538  0.5686 -0.5217  0.3108
  520MOL0     H70171   4.434   0.091   6.429  3.0381 -0.2656  3.6257
  520MOL0     H70172   4.230   0.211   6.342  0.2066 -0.9354  2.3411
  520MOL0     H70173   4.297   0.356   6.419 -1.7620  0.6333 -0.5177
  520MOL0     H70174   4.470   0.197   6.202  1.3795 -1.1386  3.7197
  520MOL0     H70175   4.515   0.337   6.286  1.6327 -4.0448  2.0936
  520MOL0     H70176   4.252   0.362   6.159 -0.8738  4.8535 -1.1032
  520MOL0     H70177   4.371   0.486   6.172 -0.5417 -0.0826  1.6599
  520MOL0     H70178   4.441   0.247   5.988  0.1466 -0.5230  0.0774
  520MOL0     H70179   4.494   0.426   5.981  0.4518 -0.4946  2.2037
  520MOL0     H70180   4.356   0.353   5.798  0.2274 -1.1693  1.0889
  520MOL0     H70181   4.287   0.489   5.889 -0.2123  0.1337 -0.6734
  520MOL0     H70182   4.411   0.619   6.759 -0.0212  0.3759 -0.7017
  520MOL0     H70183   4.367   0.718   7.003 -1.5377  0.2945  3.3074
  520MOL0     H70184   4.302   0.715   7.369 -1.1890 -1.6239 -0.4348
  520MOL0     H70185   4.296   0.823   7.578  1.4540  3.9484 -2.5373
  520MOL0     H70186   3.006   2.130   8.125  2.6980 -0.5061  0.8671
  520MOL0     H70187   2.793   2.276   8.094 -1.2455  0.4626  2.1848
  520MOL0     H70188   2.679   2.754   8.142  0.2963 -1.4236  1.0645
  520MOL0     H70189   2.479   2.914   8.122 -0.6340  0.5234  0.4908
  520MOL0     H70190   2.129   2.945   8.025  1.2696  1.8318  0.1575
  520MOL0     H70191   2.252   2.825   7.977 -2.6173  1.3837 -1.2334
  520MOL0     H70192   1.997   2.756   8.107  0.3761 -1.6775  0.8095
  520MOL0     H70193   2.119   2.632   8.055 -0.6536 -0.8444  1.6207
  520MOL0     H70194   2.089   2.699   7.838  0.0395  1.7782 -0.0052
  520MOL0     H70195   1.969   2.824   7.888 -3.9226 -1.9240 -3.6381
  520MOL0     H70196   1.828   2.649   7.822 -0.5032  0.9569  1.2601
  520MOL0     H70197   1.841   2.632   7.999  1.8314 -0.4103  1.2753
  520MOL0     H70198   1.965   2.271   7.978 -1.0074  0.5591  0.8827
  520MOL0     H70199   2.230   2.638   8.329  0.5046  0.3228  0.1344
  520MOL0     H70200   2.430   2.498   8.383 -1.0446  0.8342  2.9347
  521MOL0     O70201  10.503   8.344   1.545  0.1218  1.2075  0.7686
  521MOL0     C70202  10.386   8.320   1.529 -0.4417 -0.1697 -0.2814
  521MOL0     O70203  10.291   8.406   1.549  0.6621  0.4809  0.1432
  521MOL0     C70204  10.317   8.505   1.647  0.0647 -0.3218 -0.1756
  521MOL0     C70205  10.410   8.611   1.621 -0.5203  0.1683  0.5723
  521MOL0     C70206  10.420   8.719   1.711  0.5284  0.5738  0.9326
  521MOL0     C70207  10.365   8.713   1.839  0.2567  0.7096  0.8788
  521MOL0     O70208  10.400   8.820   1.920 -0.2200  0.1521  0.1781
  521MOL0     C70209  10.291   8.859   2.006  0.0135 -0.3606  0.5986
  521MOL0     C70210  10.320   8.993   2.077  0.9735  0.5009 -0.0786
  521MOL0     C70211  10.302   9.103   1.962  0.5573  0.3513 -0.5062
  521MOL0     C70212  10.430   9.176   1.920 -0.3569  0.1478 -0.2751
  521MOL0     C70213  10.424   9.287   1.813  0.2832  0.0155 -0.5668
  521MOL0     C70214  10.343   9.410   1.857  0.7785 -0.0883  0.7194
  521MOL0     C70215  10.352   9.524   1.749 -0.3089 -0.7443 -0.6434
  521MOL0     C70216  10.503   9.570   1.732 -0.3383  0.6062  0.6948
  521MOL0     N70217  10.514   9.709   1.688 -0.6501  0.3737  0.7736
  521MOL0     C70218  10.462   9.764   1.578  0.4411 -0.8248  0.3538
  521MOL0     C70219  10.497   9.898   1.596 -0.8668  0.6519 -0.6851
  521MOL0     C70220  10.460  10.033   1.527  0.2123 -0.2539  0.9559
  521MOL0     C70221  10.572  10.116   1.480  0.8138 -0.0147  0.0209
  521MOL0     C70222  10.520  10.230   1.399 -0.1737  0.1367  0.1659
  521MOL0     C70223  10.633  10.300   1.325 -0.1920  0.1201 -0.7116
  521MOL0     O70224  10.578  10.391   1.234 -0.6150  0.2658  0.0086
  521MOL0     C70225  10.660  10.456   1.149 -0.2301  0.1270 -0.7902
  521MOL0     C70226  10.790  10.408   1.120 -0.1292 -0.0138 -0.4498
  521MOL0     C70227  10.879  10.482   1.043  0.9986  0.7747 -0.2323
  521MOL0     C70228  11.026  10.445   1.035  0.7439  0.3956  0.4255
  521MOL0     C70229  10.834  10.604   0.974  0.1748 -0.3647  1.0196
  521MOL0     C70230  10.920  10.705   0.912  0.2438  0.0130  0.1481
  521MOL0     O70231  11.040  10.715   0.964 -0.3658  0.2834 -0.2426
  521MOL0     C70232  11.116  10.820   0.942  0.2773  0.4774  0.2417
  521MOL0     C70233  11.072  10.942   0.999  0.1823  1.0095 -0.3974
  521MOL0     C70234  11.150  11.056   0.968  0.1439  0.1842  0.1063
  521MOL0     C70235  11.266  11.056   0.890  0.4897 -0.2350 -0.2822
  521MOL0     O70236  11.322  11.186   0.875  0.4205 -0.0546  0.1630
  521MOL0     C70237  11.396  11.213   0.752  0.3718 -0.1986  0.5274
  521MOL0     C70238  11.468  11.347   0.748  0.0804 -0.8634 -0.8056
  521MOL0     C70239  11.599  11.346   0.827 -0.6274  0.3360  0.2822
  521MOL0     C70240  11.636  11.499   0.848  0.5682  0.2399 -0.4533
  521MOL0     C70241  11.742  11.522   0.960  0.5078  0.2264  0.4640
  521MOL0     C70242  11.784  11.663   0.990 -0.1716 -0.5287  0.1589
  521MOL0     C70243  11.868  11.742   0.879  0.0168  0.0475  0.1212
  521MOL0     C70244  12.005  11.788   0.913  0.4071 -0.0202 -0.4426
  521MOL0    Cl70245  12.071  11.919   0.812 -0.1826 -0.0599  0.0786
  521MOL0     C70246  11.309  10.928   0.829 -0.7845 -0.3106  1.0246
  521MOL0     C70247  11.228  10.818   0.855 -0.0301  0.4819  0.2869
  521MOL0     O70248  10.873  10.787   0.828 -0.0681 -0.2029 -0.0042
  521MOL0     C70249  10.694  10.638   0.993 -0.8287  0.1149  0.6352
  521MOL0     C70250  10.616  10.576   1.093  0.6210 -0.0034 -0.6617
  521MOL0     N70251  10.579   9.911   1.709  0.9588  0.5631 -1.0612
  521MOL0     N70252  10.594   9.793   1.761  0.1609  0.1335 -0.4255
  521MOL0     C70253  10.283   8.600   1.872 -0.4503  0.2104  1.2337
  521MOL0     C70254  10.249   8.512   1.767  1.1029 -0.5155 -1.1333
  521MOL0     C70255  10.352   8.182   1.493 -0.0817 -0.6559 -0.4493
  521MOL0     C70256  10.216   8.142   1.501 -0.2333 -0.0210  0.2217
  521MOL0     C70257  10.183   8.007   1.477  0.0630  0.0959  1.7866
  521MOL0     C70258  10.282   7.912   1.454  0.1356  0.1720  0.4981
  521MOL0     O70259  10.241   7.788   1.432 -0.3311  0.4598 -0.3038
  521MOL0     C70260  10.344   7.681   1.432 -0.0009  0.1819  0.1749
  521MOL0     C70261  10.277   7.546   1.399 -0.3543 -0.4437 -0.0024
  521MOL0     C70262  10.374   7.427   1.374  0.1084 -1.2041  0.2505
  521MOL0     C70263  10.442   7.395   1.512 -0.1619  0.7256 -0.3370
  521MOL0     C70264  10.538   7.283   1.487  0.3346  0.9068 -0.0335
  521MOL0     C70265  10.585   7.167   1.459  0.3609  0.2466 -0.2150
  521MOL0     C70266  10.416   7.957   1.437 -0.3463 -0.2238 -0.0944
  521MOL0     C70267  10.451   8.088   1.454 -0.2005  0.7561  0.5983
  521MOL0     H70268  10.467   8.617   1.529 -0.9070 -0.2888  0.2962
  521MOL0     H70269  10.486   8.800   1.680  0.4622 -0.8090 -3.6622
  521MOL0     H70270  10.197   8.847   1.951 -1.0735 -2.0201  2.6721
  521MOL0     H70271  10.275   8.789   2.089 -1.6443 -0.7613 -0.0282
  521MOL0     H70272  10.241   8.996   2.153  1.1350  1.2594  0.0679
  521MOL0     H70273  10.416   8.998   2.129  1.7335  0.6265 -1.4520
  521MOL0     H70274  10.253   9.062   1.873  2.0713 -1.4469 -0.5578
  521MOL0     H70275  10.239   9.186   1.997 -2.0196 -1.2806 -1.0096
  521MOL0     H70276  10.499   9.216   1.995  3.4474 -1.4648 -2.6475
  521MOL0     H70277  10.502   9.101   1.887  2.0652  1.6090  1.3920
  521MOL0     H70278  10.528   9.305   1.785  0.3918 -0.7376 -0.6642
  521MOL0     H70279  10.378   9.246   1.723 -4.5438  0.3390  1.4754
  521MOL0     H70280  10.235   9.395   1.856  0.6497  0.6852 -1.3153
  521MOL0     H70281  10.367   9.454   1.954  1.6374  4.4027 -1.2592
  521MOL0     H70282  10.304   9.507   1.652 -3.1162  2.1434  0.0583
  521MOL0     H70283  10.303   9.616   1.781 -0.2733 -0.9922  0.1439
  521MOL0     H70284  10.548   9.516   1.648 -1.9480 -0.3011  0.3820
  521MOL0     H70285  10.564   9.553   1.822 -0.5940  1.4160  1.0343
  521MOL0     H70286  10.405   9.728   1.493  2.1394 -1.2968 -0.6254
  521MOL0     H70287  10.417   9.992   1.436  2.3719  0.0477 -0.2734
  521MOL0     H70288  10.385  10.097   1.574 -0.4298 -1.3303  1.4427
  521MOL0     H70289  10.639  10.048   1.428 -0.9138 -1.6460 -0.1864
  521MOL0     H70290  10.627  10.161   1.563 -0.6345  0.6419  0.6646
  521MOL0     H70291  10.449  10.287   1.460 -1.0684 -1.5088  0.7129
  521MOL0     H70292  10.461  10.195   1.314 -1.5517 -1.5072  1.7257
  521MOL0     H70293  10.696  10.226   1.274 -0.0384  0.5335 -1.1380
  521MOL0     H70294  10.696  10.345   1.403  4.1823 -2.9268 -2.0721
  521MOL0     H70295  10.835  10.322   1.169  1.8154  1.6586  0.8619
  521MOL0     H70296  11.033  10.343   1.075  0.9051  1.1629  2.5241
  521MOL0     H70297  11.057  10.466   0.932  1.5689  3.2854  1.1547
  521MOL0     H70298  11.087  10.512   1.097  1.3127 -0.7228  1.1254
  521MOL0     H70299  10.981  10.943   1.059 -1.2618 -1.6940 -2.2900
  521MOL0     H70300  11.118  11.139   1.030  2.3184  0.3227  1.1601
  521MOL0     H70301  11.479  11.142   0.743  0.9409  0.6461 -1.7261
  521MOL0     H70302  11.348  11.187   0.658  1.5380  1.9787 -0.7554
  521MOL0     H70303  11.502  11.365   0.646  2.8110 -1.2345 -0.0347
  521MOL0     H70304  11.405  11.427   0.788  0.3655  0.8136 -3.4910
  521MOL0     H70305  11.687  11.305   0.777 -0.8088 -0.1550  0.3565
  521MOL0     H70306  11.585  11.285   0.917 -1.5959 -0.5934 -0.4663
  521MOL0     H70307  11.673  11.543   0.755  0.3399  1.7185  0.1348
  521MOL0     H70308  11.549  11.555   0.881  1.9077  1.1263  1.7759
  521MOL0     H70309  11.828  11.463   0.928 -0.9625 -1.3967 -0.7384
  521MOL0     H70310  11.708  11.484   1.057  0.0120  1.8275  0.9535
  521MOL0     H70311  11.692  11.722   1.000  0.4189  1.3400 -3.6164
  521MOL0     H70312  11.828  11.668   1.090 -2.5513 -1.6064  1.3708
  521MOL0     H70313  11.813  11.835   0.862 -1.6837 -0.1364  3.6942
  521MOL0     H70314  11.877  11.684   0.786  0.1561  1.9783 -1.1236
  521MOL0     H70315  12.084  11.713   0.912  1.1457  0.7513 -1.1188
  521MOL0     H70316  12.005  11.830   1.014  2.3653 -1.2371  0.0980
  521MOL0     H70317  11.399  10.918   0.770 -1.7502  3.5836 -1.5543
  521MOL0     H70318  11.275  10.731   0.809  1.2780  0.2585  1.9860
  521MOL0     H70319  10.644  10.723   0.949 -0.9891 -1.0322 -1.5588
  521MOL0     H70320  10.517  10.608   1.123 -0.7130 -4.0462 -0.2558
  521MOL0     H70321  10.220   8.592   1.959  0.0828 -0.5214  1.5636
  521MOL0     H70322  10.169   8.440   1.776 -0.1282  1.0318  1.5395
  521MOL0     H70323  10.138   8.217   1.515 -1.0725 -0.5499 -1.3999
  521MOL0     H70324  10.081   7.969   1.479  0.3330 -1.0194 -0.6839
  521MOL0     H70325  10.417   7.691   1.352  0.3757 -3.3194 -0.0551
  521MOL0     H70326  10.396   7.664   1.527  1.2737 -1.5612 -0.7800
  521MOL0     H70327  10.220   7.558   1.306 -0.1362 -1.9770 -0.3657
  521MOL0     H70328  10.206   7.529   1.481 -1.8311 -0.6627 -1.2744
  521MOL0     H70329  10.449   7.470   1.307 -0.3114 -2.4676 -1.0741
  521MOL0     H70330  10.329   7.352   1.308 -3.5774  2.1608 -1.5305
  521MOL0     H70331  10.368   7.361   1.585  0.0462 -1.4048 -1.0576
  521MOL0     H70332  10.504   7.479   1.545  2.5525 -0.3930 -2.1959
  521MOL0     H70333  10.620   7.068   1.439  0.5771  0.2970 -0.0881
  521MOL0     H70334  10.500   7.893   1.411  0.9888  0.3092  2.4691
  521MOL0     H70335  10.555   8.116   1.443  1.0971 -3.6089 -0.1755
  522MOL0     O70336   5.295   7.881   7.984  0.1338 -0.0995  0.3120
  522MOL0     C70337   5.305   7.781   7.913  0.4960  0.0259 -0.2885
  522MOL0     O70338   5.423   7.722   7.866 -0.0993  0.0132  0.7098
  522MOL0     C70339   5.540   7.802   7.875 -0.0284 -1.0029 -0.6691
  522MOL0     C70340   5.600   7.856   7.993  0.9263  0.0986  0.8057
  522MOL0     C70341   5.710   7.938   7.996 -0.4502  0.0769  1.1533
  522MOL0     C70342   5.761   7.982   7.866 -0.1440 -0.2824 -0.9871
  522MOL0     O70343   5.872   8.070   7.863  0.0932  0.2737 -0.2604
  522MOL0     C70344   5.963   8.086   7.979 -0.7468 -0.5694  0.6929
  522MOL0     C70345   6.078   8.181   7.948  0.0144  0.0149  0.1553
  522MOL0     C70346   6.189   8.124   7.867 -0.9201  0.2105  0.1649
  522MOL0     C70347   6.294   8.220   7.799 -0.1821 -0.1308  0.3438
  522MOL0     C70348   6.364   8.166   7.665 -0.3400  1.0746  0.1917
  522MOL0     C70349   6.270   8.131   7.553 -0.0249 -0.8439  0.9136
  522MOL0     C70350   6.347   8.053   7.443 -0.1374 -0.2394  0.1923
  522MOL0     C70351   6.261   8.039   7.312 -0.2450 -0.5175  0.4827
  522MOL0     N70352   6.288   8.133   7.206  0.2170 -0.1311 -0.2958
  522MOL0     C70353   6.253   8.265   7.213 -0.1795 -0.1234  1.0730
  522MOL0     C70354   6.292   8.319   7.094 -0.9173  0.4387 -0.0354
  522MOL0     C70355   6.300   8.464   7.040  0.2396  0.3638  1.2044
  522MOL0     C70356   6.411   8.545   7.102  1.0709 -0.1936 -0.4281
  522MOL0     C70357   6.560   8.520   7.062  0.0111  0.1993 -0.7374
  522MOL0     C70358   6.653   8.625   7.127 -0.4927  0.3992 -0.4950
  522MOL0     O70359   6.611   8.763   7.109  0.2026 -0.3172 -0.0511
  522MOL0     C70360   6.646   8.837   6.994 -0.2143 -0.4967 -0.7137
  522MOL0     C70361   6.705   8.779   6.876 -0.3612  0.1670 -0.0924
  522MOL0     C70362   6.770   8.871   6.785  0.8514  0.1031 -0.0104
  522MOL0     C70363   6.840   8.815   6.667  0.3100 -0.6239  1.0024
  522MOL0     C70364   6.752   9.013   6.786  0.4072 -0.2816  0.6526
  522MOL0     C70365   6.802   9.109   6.679  0.0808  0.1819 -0.6961
  522MOL0     O70366   6.909   9.179   6.715  0.3002  0.2880  0.2855
  522MOL0     C70367   6.965   9.244   6.610 -0.4399 -0.8185  0.5759
  522MOL0     C70368   7.047   9.178   6.520 -0.6620  0.3051  0.0833
  522MOL0     C70369   7.126   9.254   6.420  0.0871 -0.6260 -0.6421
  522MOL0     C70370   7.107   9.392   6.420  0.2540  0.4374  0.2188
  522MOL0     O70371   7.174   9.455   6.319  0.9562 -0.2186 -0.5521
  522MOL0     C70372   7.091   9.535   6.242  0.1247 -0.7248 -0.5558
  522MOL0     C70373   7.116   9.509   6.098 -0.3508 -0.3698  0.3256
  522MOL0     C70374   7.090   9.373   6.040 -0.4001 -0.3969 -0.0649
  522MOL0     C70375   6.949   9.309   6.065  0.0200  0.0814  0.2711
  522MOL0     C70376   6.931   9.174   6.007 -0.0303  0.1943 -0.1232
  522MOL0     C70377   6.788   9.119   6.012 -0.7709  0.1559  0.3667
  522MOL0     C70378   6.735   9.116   6.158  1.0128 -0.5657 -0.0593
  522MOL0     C70379   6.611   9.022   6.164  0.2822 -0.6426 -0.3734
  522MOL0    Cl70380   6.664   8.853   6.129 -0.6006 -0.5061  0.5813
  522MOL0     C70381   7.020   9.458   6.506  0.0126 -0.2374 -0.5707
  522MOL0     C70382   6.950   9.383   6.603 -0.4338  0.0974  0.8389
  522MOL0     O70383   6.733   9.125   6.587  0.1125  0.8648  0.3124
  522MOL0     C70384   6.682   9.062   6.891  0.1363  0.1615  1.2939
  522MOL0     C70385   6.632   8.976   6.989  0.1156 -0.0872  0.4646
  522MOL0     N70386   6.336   8.220   7.015 -0.1342 -0.5845  0.5464
  522MOL0     N70387   6.338   8.108   7.085 -0.1196 -0.3450  0.6939
  522MOL0     C70388   5.702   7.929   7.743 -0.1569  0.2291  0.2421
  522MOL0     C70389   5.597   7.833   7.751 -0.7231 -0.0283 -0.2341
  522MOL0     C70390   5.175   7.712   7.880  0.2501 -0.2051  0.3193
  522MOL0     C70391   5.169   7.600   7.799  0.2716  0.8314 -0.3491
  522MOL0     C70392   5.051   7.538   7.773  0.1926 -0.1219 -0.1191
  522MOL0     C70393   4.936   7.598   7.824  0.1077 -0.6975 -0.0314
  522MOL0     O70394   4.804   7.549   7.811 -0.0716 -0.9318  0.8874
  522MOL0     C70395   4.788   7.437   7.727 -0.2095  0.0570 -0.3021
  522MOL0     C70396   4.630   7.414   7.708  0.4022 -0.6823 -0.2209
  522MOL0     C70397   4.555   7.546   7.687 -0.3887  0.0364  0.1653
  522MOL0     C70398   4.401   7.533   7.665  0.0299 -0.0444 -0.3919
  522MOL0     C70399   4.354   7.443   7.559 -0.5762 -1.1221 -0.5661
  522MOL0     C70400   4.307   7.358   7.488 -0.1906 -0.1923  0.6495
  522MOL0     C70401   4.940   7.699   7.910 -0.8196  0.6075 -0.7684
  522MOL0     C70402   5.062   7.765   7.940 -0.3897  0.8570  0.0137
  522MOL0     H70403   5.548   7.825   8.083 -2.8596 -0.9558 -1.5147
  522MOL0     H70404   5.755   7.974   8.089 -2.7156 -1.3996  2.9227
  522MOL0     H70405   5.903   8.125   8.061 -0.3080  2.2171 -0.2245
  522MOL0     H70406   6.006   7.991   8.012  0.3371 -0.4656 -0.3514
  522MOL0     H70407   6.035   8.267   7.895  0.1380 -0.6680 -1.0742
  522MOL0     H70408   6.114   8.210   8.047 -0.1657 -2.5349  1.0229
  522MOL0     H70409   6.248   8.054   7.928  2.7092  0.7849 -2.3397
  522MOL0     H70410   6.144   8.068   7.784  0.3439  1.7793 -1.6717
  522MOL0     H70411   6.236   8.310   7.776  0.9461  0.6631  0.5525
  522MOL0     H70412   6.377   8.238   7.868 -3.1687  3.7077  3.5065
  522MOL0     H70413   6.433   8.232   7.610 -1.8729 -0.0710 -3.4374
  522MOL0     H70414   6.421   8.082   7.705  0.8664  2.2660  1.0805
  522MOL0     H70415   6.185   8.069   7.582 -1.7552  0.5277 -0.8945
  522MOL0     H70416   6.232   8.227   7.517 -0.3283 -1.3697 -0.2285
  522MOL0     H70417   6.449   8.086   7.422  0.5434 -3.0163 -1.4905
  522MOL0     H70418   6.371   7.955   7.485  0.6312 -0.3426 -0.4617
  522MOL0     H70419   6.158   8.050   7.349  0.4918  0.0971  2.5060
  522MOL0     H70420   6.277   7.939   7.271  1.5788 -0.2189  0.4160
  522MOL0     H70421   6.214   8.324   7.296 -1.3685 -1.4345  1.4860
  522MOL0     H70422   6.331   8.458   6.936  2.8496  1.1565  1.8496
  522MOL0     H70423   6.203   8.513   7.054  0.9018  1.2730  2.8924
  522MOL0     H70424   6.403   8.548   7.211  0.1903 -1.7347 -0.4218
  522MOL0     H70425   6.397   8.651   7.077  3.6694  0.0205 -1.2561
  522MOL0     H70426   6.565   8.523   6.953 -3.5923 -0.9714 -1.0549
  522MOL0     H70427   6.587   8.419   7.095  1.3657  0.5961 -0.5400
  522MOL0     H70428   6.756   8.610   7.095 -0.9229 -0.8896 -1.3905
  522MOL0     H70429   6.639   8.597   7.231 -1.8559 -2.0787 -1.2516
  522MOL0     H70430   6.731   8.674   6.867 -0.3428  0.1906 -0.3244
  522MOL0     H70431   6.789   8.723   6.635 -1.8207  0.3832  1.3386
  522MOL0     H70432   6.828   8.871   6.574  1.0487 -2.6334 -0.3787
  522MOL0     H70433   6.945   8.791   6.682  1.0162 -0.3129 -2.5594
  522MOL0     H70434   7.079   9.074   6.510 -0.8841  0.2381  0.0721
  522MOL0     H70435   7.188   9.196   6.352 -0.7088 -0.2489 -1.7166
  522MOL0     H70436   6.987   9.512   6.267  0.0495 -0.7766 -0.9092
  522MOL0     H70437   7.104   9.641   6.263 -1.7989 -0.9423  2.1841
  522MOL0     H70438   7.062   9.577   6.032  2.3201  0.7875 -0.8088
  522MOL0     H70439   7.221   9.532   6.076 -0.8871  2.6228  0.5378
  522MOL0     H70440   7.167   9.303   6.074  0.2617  0.4262  0.1770
  522MOL0     H70441   7.093   9.386   5.931 -3.9678  2.8359  0.0045
  522MOL0     H70442   6.934   9.304   6.174 -1.4029  0.4759  0.1144
  522MOL0     H70443   6.874   9.379   6.028 -0.9138 -0.9730  0.1068
  522MOL0     H70444   6.998   9.109   6.063 -2.1207 -0.4701  1.7635
  522MOL0     H70445   6.964   9.175   5.902 -0.7178  0.2973 -0.3417
  522MOL0     H70446   6.725   9.173   5.941  2.8993  2.4609 -1.4532
  522MOL0     H70447   6.784   9.014   5.980 -3.3939 -0.3462  2.0074
  522MOL0     H70448   6.703   9.216   6.189 -0.2910 -1.2253  0.7968
  522MOL0     H70449   6.812   9.068   6.219 -1.4219 -2.6697  1.5714
  522MOL0     H70450   6.540   9.051   6.087 -1.5827  2.6816  2.3376
  522MOL0     H70451   6.558   9.013   6.259  3.2305 -2.1873  1.2814
  522MOL0     H70452   6.997   9.564   6.501  0.3123 -0.1449 -0.0242
  522MOL0     H70453   6.885   9.437   6.671  1.6600  1.4808  1.8583
  522MOL0     H70454   6.674   9.170   6.897  0.7962  0.1542  2.7706
  522MOL0     H70455   6.575   9.022   7.070  2.0212  0.1020  1.7538
  522MOL0     H70456   5.761   7.939   7.652 -0.1845 -2.1031 -0.0869
  522MOL0     H70457   5.549   7.788   7.664 -2.3120  1.5768 -0.2383
  522MOL0     H70458   5.259   7.549   7.766  0.1077  0.5553 -0.3755
  522MOL0     H70459   5.052   7.448   7.712 -1.1869  0.2390 -0.7280
  522MOL0     H70460   4.833   7.456   7.629 -0.8890 -1.1165 -0.8511
  522MOL0     H70461   4.825   7.346   7.775 -0.7657 -0.4548 -0.8343
  522MOL0     H70462   4.583   7.374   7.798 -2.8554 -1.2813 -2.0233
  522MOL0     H70463   4.627   7.342   7.625 -1.2233 -2.3075  1.1761
  522MOL0     H70464   4.597   7.578   7.591 -0.8744 -1.7984 -0.6992
  522MOL0     H70465   4.588   7.607   7.771 -0.8884 -1.7626  1.7233
  522MOL0     H70466   4.362   7.631   7.635  2.8338  2.1211  2.3910
  522MOL0     H70467   4.350   7.509   7.759  3.2627 -1.6285  1.1285
  522MOL0     H70468   4.276   7.269   7.437  2.2437  0.7425 -2.8456
  522MOL0     H70469   4.847   7.733   7.955 -2.8113 -3.0473 -1.7605
  522MOL0     H70470   5.058   7.855   8.000  0.9795  2.0893 -1.6404
  523MOL0     O70471   1.883   4.867   5.725  0.2765 -0.7579  0.3515
  523MOL0     C70472   1.892   4.771   5.800 -0.0628 -0.0421 -0.4552
  523MOL0     O70473   1.886   4.644   5.758 -0.3193 -0.4514 -0.4784
  523MOL0     C70474   1.847   4.623   5.624 -0.4406  0.1715 -1.0219
  523MOL0     C70475   1.732   4.667   5.558  0.1190 -0.2145  0.6073
  523MOL0     C70476   1.694   4.614   5.427  0.9776  0.2825 -0.9883
  523MOL0     C70477   1.781   4.525   5.367 -0.6371 -0.4690  0.3398
  523MOL0     O70478   1.743   4.455   5.257 -0.4388 -0.3251 -0.2860
  523MOL0     C70479   1.612   4.391   5.249 -0.3920  0.0170 -0.1936
  523MOL0     C70480   1.612   4.269   5.151 -0.0779 -0.0348  0.5365
  523MOL0     C70481   1.464   4.231   5.113  0.0046 -0.2149 -0.2739
  523MOL0     C70482   1.447   4.119   5.006 -0.3069 -0.9358  0.0302
  523MOL0     C70483   1.299   4.107   4.969  0.6009  0.2611  0.0416
  523MOL0     C70484   1.271   3.996   4.877  1.2435  0.3310  0.2310
  523MOL0     C70485   1.118   3.949   4.874 -0.5804 -0.5665  0.6039
  523MOL0     C70486   1.118   3.813   4.796 -0.5663 -0.0485 -0.5618
  523MOL0     N70487   0.987   3.758   4.764 -0.5043  0.2431 -0.3852
  523MOL0     C70488   0.866   3.807   4.800  0.3187  0.1138  0.4995
  523MOL0     C70489   0.779   3.709   4.766  0.0314 -0.2119  0.8959
  523MOL0     C70490   0.631   3.712   4.773  0.3285  1.1300 -0.1381
  523MOL0     C70491   0.557   3.826   4.712  0.9341  0.1510  0.1973
  523MOL0     C70492   0.403   3.802   4.697  0.0668  0.6544 -0.2027
  523MOL0     C70493   0.343   3.777   4.835  0.3375  0.4657  0.3332
  523MOL0     O70494   0.202   3.737   4.832  1.1090 -0.6800 -0.4914
  523MOL0     C70495   0.139   3.761   4.951  0.1059 -0.3661 -0.2317
  523MOL0     C70496   0.183   3.702   5.073 -0.1624  1.3009 -0.0072
  523MOL0     C70497   0.119   3.741   5.201  0.2165 -0.4245 -0.0422
  523MOL0     C70498   0.162   3.670   5.328  0.6446 -0.0874  0.9912
  523MOL0     C70499   0.014   3.839   5.189  0.3733  1.5426 -0.3754
  523MOL0     C70500  -0.062   3.882   5.307  0.2067 -0.9977  0.6125
  523MOL0     O70501  -0.196   3.911   5.279 -0.4596  0.0910  0.7505
  523MOL0     C70502  -0.288   3.936   5.387  0.2381  0.6452  0.0330
  523MOL0     C70503  -0.412   3.991   5.354 -0.4153 -0.3456  0.3678
  523MOL0     C70504  -0.507   4.028   5.450 -0.5400 -0.1888 -0.2338
  523MOL0     C70505  -0.484   4.000   5.581  0.3773  1.1593  0.3966
  523MOL0     O70506  -0.574   4.031   5.692 -0.2236 -0.0511 -0.4423
  523MOL0     C70507  -0.628   4.158   5.685  0.4120 -0.4671  0.0153
  523MOL0     C70508  -0.759   4.167   5.764  0.2276  0.4636  0.1246
  523MOL0     C70509  -0.769   4.288   5.848  0.1334 -0.3167  0.4567
  523MOL0     C70510  -0.912   4.302   5.907 -0.3647  0.4546 -0.3119
  523MOL0     C70511  -0.996   4.401   5.822 -0.5913 -0.2622 -0.0903
  523MOL0     C70512  -1.034   4.348   5.681  0.2079  0.3758  0.1345
  523MOL0     C70513  -1.126   4.459   5.635 -0.0175 -0.5636  0.0939
  523MOL0     C70514  -1.173   4.464   5.500 -0.3556 -0.6274 -0.5717
  523MOL0    Cl70515  -1.250   4.306   5.444  0.5066 -0.4113  0.0517
  523MOL0     C70516  -0.361   3.937   5.612  0.3004  0.4260 -0.1352
  523MOL0     C70517  -0.271   3.890   5.513  0.4518  0.1121 -0.1498
  523MOL0     O70518  -0.002   3.897   5.414 -1.0313 -0.6270  0.0346
  523MOL0     C70519  -0.027   3.899   5.067  0.6420 -0.2619  0.5144
  523MOL0     C70520   0.039   3.863   4.948  0.0264  0.9893  0.1779
  523MOL0     N70521   0.848   3.603   4.699  0.3439 -0.8930 -0.3254
  523MOL0     N70522   0.977   3.627   4.721  1.0123  0.5754  0.2130
  523MOL0     C70523   1.913   4.512   5.422 -0.7670  0.1924  0.2219
  523MOL0     C70524   1.946   4.558   5.546  0.0109  0.2194 -1.5630
  523MOL0     C70525   1.913   4.792   5.956 -1.1584  0.4454 -0.9827
  523MOL0     C70526   1.990   4.898   6.001  0.1521  0.4717 -0.2408
  523MOL0     C70527   2.009   4.914   6.143 -0.2026 -0.3364 -0.8313
  523MOL0     C70528   1.949   4.829   6.237  0.3421  0.1690 -0.2057
  523MOL0     O70529   1.955   4.849   6.370 -0.0235  0.3837 -0.7926
  523MOL0     C70530   2.071   4.900   6.434  0.9830  0.2859 -0.6267
  523MOL0     C70531   2.050   5.045   6.490 -0.2508  0.3642  0.1588
  523MOL0     C70532   1.912   5.069   6.563 -0.1738  1.0226  0.1879
  523MOL0     C70533   1.903   4.979   6.694  0.1602 -0.1106 -0.7328
  523MOL0     C70534   1.785   5.019   6.769 -0.2881 -0.4373  0.2967
  523MOL0     C70535   1.678   5.044   6.825  0.0413 -0.8798  0.0295
  523MOL0     C70536   1.864   4.728   6.187 -0.4967  0.6288 -0.2854
  523MOL0     C70537   1.861   4.696   6.046  0.5214 -0.0466 -0.5022
  523MOL0     H70538   1.670   4.748   5.596 -1.9893 -2.7622  3.0967
  523MOL0     H70539   1.596   4.640   5.388 -0.7200 -0.9542  2.1199
  523MOL0     H70540   1.575   4.355   5.346  0.1264 -0.8456 -0.3155
  523MOL0     H70541   1.537   4.463   5.215  0.4343  2.5134  2.7817
  523MOL0     H70542   1.673   4.297   5.065  1.1151  1.3455  1.7839
  523MOL0     H70543   1.653   4.179   5.196  0.8273  0.1940  0.1765
  523MOL0     H70544   1.412   4.194   5.202 -1.1486 -1.3034 -1.3592
  523MOL0     H70545   1.405   4.316   5.079 -0.3753 -1.3764 -2.7363
  523MOL0     H70546   1.506   4.143   4.917  0.6459 -3.8675 -0.2410
  523MOL0     H70547   1.491   4.022   5.032 -1.9895 -2.2830 -1.7467
  523MOL0     H70548   1.238   4.089   5.059 -0.1557 -0.2350 -0.5532
  523MOL0     H70549   1.257   4.193   4.916 -2.7922  0.0147  2.0295
  523MOL0     H70550   1.295   4.026   4.774  0.8825  0.8005  0.2813
  523MOL0     H70551   1.335   3.913   4.910 -2.6313 -2.0148  2.6553
  523MOL0     H70552   1.070   3.937   4.971  0.9250  0.7775  1.5714
  523MOL0     H70553   1.059   4.021   4.817  3.1796  0.8964 -1.8659
  523MOL0     H70554   1.175   3.739   4.853 -1.8749  0.0631  0.9601
  523MOL0     H70555   1.179   3.824   4.706  2.4074  0.9322  1.4231
  523MOL0     H70556   0.845   3.906   4.839 -0.6575 -0.2170  0.8669
  523MOL0     H70557   0.598   3.620   4.724 -2.3018  2.1358 -0.4151
  523MOL0     H70558   0.605   3.698   4.879 -3.9820 -1.8109 -1.3192
  523MOL0     H70559   0.590   3.842   4.609 -1.8165 -0.0279 -0.8061
  523MOL0     H70560   0.581   3.919   4.765  1.7730 -1.1745  2.2986
  523MOL0     H70561   0.373   3.719   4.632 -0.1109 -1.6525  2.6314
  523MOL0     H70562   0.358   3.891   4.652 -1.0177  0.0421 -0.3485
  523MOL0     H70563   0.352   3.875   4.881 -0.9633  2.0458 -2.4907
  523MOL0     H70564   0.394   3.689   4.876  0.6584 -1.3153 -3.4195
  523MOL0     H70565   0.266   3.635   5.053 -1.0090  0.1110  0.3381
  523MOL0     H70566   0.249   3.608   5.306  0.7638 -0.2092  1.7873
  523MOL0     H70567   0.187   3.740   5.408  0.7629 -0.9914  1.7601
  523MOL0     H70568   0.092   3.591   5.358  0.7808 -0.3179  0.7066
  523MOL0     H70569  -0.429   4.013   5.249 -2.9758  4.7238  1.4820
  523MOL0     H70570  -0.597   4.076   5.411  0.2214  2.2659  0.8225
  523MOL0     H70571  -0.560   4.231   5.729  0.1284 -0.3685  0.2870
  523MOL0     H70572  -0.647   4.184   5.580 -0.7107  1.0475  0.5672
  523MOL0     H70573  -0.854   4.146   5.714  0.6602 -4.6727  0.9341
  523MOL0     H70574  -0.751   4.091   5.843  2.0199  2.2544  1.7777
  523MOL0     H70575  -0.738   4.377   5.794  1.9553 -0.4903  1.1464
  523MOL0     H70576  -0.699   4.286   5.932  0.4560  1.2400  0.2585
  523MOL0     H70577  -0.960   4.204   5.915  5.0925 -2.6863 -0.5727
  523MOL0     H70578  -0.905   4.336   6.011 -1.2723  0.0018 -0.0918
  523MOL0     H70579  -0.948   4.499   5.813 -0.9132  0.8624  5.9781
  523MOL0     H70580  -1.089   4.421   5.877  0.1955  0.1098  1.1533
  523MOL0     H70581  -0.946   4.343   5.616  1.1158 -0.4454  1.3938
  523MOL0     H70582  -1.087   4.252   5.681  1.0276 -0.0855 -0.6557
  523MOL0     H70583  -1.083   4.556   5.662 -0.8525 -0.0292 -0.4598
  523MOL0     H70584  -1.217   4.445   5.694 -1.3814 -1.3740 -2.0716
  523MOL0     H70585  -1.098   4.484   5.423  1.3268 -1.1519  0.8719
  523MOL0     H70586  -1.253   4.538   5.487 -0.1393  0.1050  1.8201
  523MOL0     H70587  -0.356   3.906   5.716 -4.0598 -3.5408 -0.7871
  523MOL0     H70588  -0.193   3.827   5.555 -1.3525 -1.6026  0.8233
  523MOL0     H70589  -0.097   3.982   5.070  2.4248  1.3082  0.4016
  523MOL0     H70590   0.011   3.921   4.861 -1.1233 -0.7685 -0.6776
  523MOL0     H70591   1.984   4.445   5.374  1.1016  0.1610  2.8334
  523MOL0     H70592   2.035   4.518   5.593 -3.4392 -1.8255  4.1660
  523MOL0     H70593   2.039   4.961   5.927  0.3894 -0.5260 -0.9610
  523MOL0     H70594   2.070   4.999   6.171 -1.4370  1.5344 -3.4079
  523MOL0     H70595   2.098   4.827   6.510  2.9153 -0.7944 -2.2320
  523MOL0     H70596   2.155   4.912   6.364  0.2532  2.0809 -1.2771
  523MOL0     H70597   2.050   5.124   6.415 -1.2715 -0.8512 -1.1603
  523MOL0     H70598   2.140   5.058   6.552  0.8278  2.3825 -1.6998
  523MOL0     H70599   1.820   5.047   6.508  0.4997 -3.7910  0.4860
  523MOL0     H70600   1.905   5.175   6.588 -2.8590  1.1166 -0.6190
  523MOL0     H70601   1.994   4.981   6.754 -1.1559  0.4646  1.3470
  523MOL0     H70602   1.888   4.880   6.649  1.6416 -0.7939  0.2298
  523MOL0     H70603   1.586   5.073   6.872 -0.5335  0.0903 -1.5834
  523MOL0     H70604   1.804   4.669   6.255  0.4168 -1.1579 -0.9362
  523MOL0     H70605   1.805   4.614   6.003  2.3432 -0.3205 -2.5472
  524MOL0     O70606   1.835   6.954   1.704 -0.0459  0.1671  0.5471
  524MOL0     C70607   1.888   6.873   1.626  0.0026  0.0348  0.3668
  524MOL0     O70608   1.844   6.847   1.500 -0.0353  0.1706 -0.8089
  524MOL0     C70609   1.735   6.927   1.468 -0.4550  0.7315 -0.9575
  524MOL0     C70610   1.754   7.054   1.423  0.1315  0.1607  0.7653
  524MOL0     C70611   1.645   7.136   1.379 -0.6044  0.2015  0.2513
  524MOL0     C70612   1.516   7.100   1.413  0.2327  0.9230  1.0640
  524MOL0     O70613   1.429   7.194   1.380 -0.0955  0.5193 -0.0110
  524MOL0     C70614   1.287   7.153   1.382 -0.5706 -0.5169  0.7331
  524MOL0     C70615   1.260   7.073   1.250 -0.1248  1.1118 -0.2811
  524MOL0     C70616   1.285   7.175   1.130 -0.2035  0.6246 -0.3766
  524MOL0     C70617   1.411   7.151   1.042  0.0589  0.7733 -0.7577
  524MOL0     C70618   1.431   7.271   0.946 -0.8449  0.9101  0.6709
  524MOL0     C70619   1.563   7.248   0.861  0.1807  0.1435 -0.3397
  524MOL0     C70620   1.584   7.344   0.742  0.8228 -0.2868 -0.5773
  524MOL0     C70621   1.623   7.491   0.780  0.2970 -0.3894 -0.8144
  524MOL0     N70622   1.663   7.566   0.660  0.4744  0.3629 -0.6644
  524MOL0     C70623   1.676   7.694   0.652 -0.2370 -0.2648  0.7915
  524MOL0     C70624   1.684   7.730   0.523 -1.4444  0.3280  0.1729
  524MOL0     C70625   1.730   7.861   0.469 -0.0712  0.0539 -1.7640
  524MOL0     C70626   1.721   7.879   0.321 -0.8010  1.1081 -0.1604
  524MOL0     C70627   1.579   7.849   0.276  0.0302  0.4976  0.1443
  524MOL0     C70628   1.521   7.944   0.172  0.4838  0.2186 -0.1170
  524MOL0     O70629   1.377   7.939   0.186  0.3276  0.7070  1.2879
  524MOL0     C70630   1.308   8.013   0.090  0.2288  0.2874 -0.0084
  524MOL0     C70631   1.171   8.034   0.132  0.4864  0.2939  0.5294
  524MOL0     C70632   1.078   8.095   0.039 -0.3862  0.8674 -0.1932
  524MOL0     C70633   0.940   8.115   0.098  0.0115  0.4800 -0.7421
  524MOL0     C70634   1.124   8.132  -0.089 -0.6084  0.1863 -0.2754
  524MOL0     C70635   1.036   8.209  -0.182  0.3827  0.1770 -0.3046
  524MOL0     O70636   1.076   8.209  -0.312 -0.0827 -0.5807  0.2447
  524MOL0     C70637   0.997   8.258  -0.411 -0.9783 -0.8461  0.0797
  524MOL0     C70638   0.894   8.193  -0.484  0.1398  0.1762 -0.0998
  524MOL0     C70639   0.838   8.257  -0.597  0.4383 -0.3090  0.3174
  524MOL0     C70640   0.871   8.389  -0.631 -0.3835 -0.4120  0.4244
  524MOL0     O70641   0.834   8.460  -0.742 -0.5856  0.6842  0.1683
  524MOL0     C70642   0.700   8.455  -0.787 -1.0290  0.0145 -0.9600
  524MOL0     C70643   0.599   8.503  -0.674  0.4070  0.0338 -0.0879
  524MOL0     C70644   0.461   8.544  -0.730 -0.5234 -0.0175 -0.2506
  524MOL0     C70645   0.365   8.525  -0.602  0.3371  0.0972  0.5865
  524MOL0     C70646   0.227   8.584  -0.651  0.2204 -0.1917  0.4042
  524MOL0     C70647   0.114   8.542  -0.541 -0.0361  0.6280  0.1557
  524MOL0     C70648  -0.022   8.607  -0.576  0.1981 -0.1489  0.9057
  524MOL0     C70649  -0.136   8.541  -0.502 -0.1190 -0.4929  0.6239
  524MOL0    Cl70650  -0.280   8.642  -0.512 -0.1184 -0.1088  0.3217
  524MOL0     C70651   0.969   8.453  -0.554  0.5954  1.0326 -0.9647
  524MOL0     C70652   1.025   8.392  -0.444  0.6383  0.2850 -0.2071
  524MOL0     O70653   0.942   8.275  -0.133 -0.1927  0.5383  0.2641
  524MOL0     C70654   1.254   8.121  -0.119  0.6087 -0.4980 -0.5369
  524MOL0     C70655   1.344   8.064  -0.030  0.3766 -0.2029  0.0067
  524MOL0     N70656   1.689   7.608   0.453 -0.0199 -0.2370  0.0189
  524MOL0     N70657   1.677   7.514   0.540  0.1883 -0.4574 -0.2128
  524MOL0     C70658   1.501   6.979   1.468  0.3784  0.2725  0.0455
  524MOL0     C70659   1.610   6.893   1.498  0.8436  0.3315  0.1787
  524MOL0     C70660   2.010   6.798   1.670  0.1312  0.2601 -0.4372
  524MOL0     C70661   2.066   6.706   1.578 -0.0317 -0.5457 -0.2155
  524MOL0     C70662   2.179   6.636   1.614 -1.1301 -0.8208  0.8380
  524MOL0     C70663   2.250   6.666   1.731  0.0279  0.4132  0.4119
  524MOL0     O70664   2.360   6.580   1.760 -0.3135  0.5883 -0.0541
  524MOL0     C70665   2.397   6.583   1.899  0.1845 -0.5641 -0.1904
  524MOL0     C70666   2.511   6.494   1.937 -0.4062 -0.2947  0.1131
  524MOL0     C70667   2.652   6.556   1.903  0.0360  0.3087 -0.1470
  524MOL0     C70668   2.759   6.487   1.992  0.7891  0.6139  0.7298
  524MOL0     C70669   2.883   6.531   1.925  0.0329  0.0092 -0.1446
  524MOL0     C70670   2.985   6.578   1.882 -0.0204 -0.6491  0.2186
  524MOL0     C70671   2.192   6.763   1.824 -0.3141  0.6511  0.0638
  524MOL0     C70672   2.076   6.826   1.786  0.3659 -0.7550  0.9005
  524MOL0     H70673   1.854   7.094   1.414 -0.9728  2.5943 -2.8512
  524MOL0     H70674   1.663   7.238   1.345 -1.8343 -0.2285 -1.8758
  524MOL0     H70675   1.264   7.109   1.479 -0.6025  1.2448  1.5557
  524MOL0     H70676   1.224   7.242   1.379 -1.8143 -1.3017  2.4627
  524MOL0     H70677   1.324   6.986   1.231  0.0022  1.1153  0.1173
  524MOL0     H70678   1.156   7.039   1.240  0.2578 -0.3141  0.2389
  524MOL0     H70679   1.193   7.170   1.071 -0.4602  0.4848  0.0334
  524MOL0     H70680   1.292   7.280   1.163 -0.0480  1.0157 -1.6234
  524MOL0     H70681   1.498   7.142   1.107 -0.1262  2.5834 -0.1946
  524MOL0     H70682   1.403   7.055   0.990 -1.7743 -1.1025  2.6658
  524MOL0     H70683   1.347   7.274   0.876 -1.5861 -1.7467  1.3614
  524MOL0     H70684   1.433   7.365   1.002 -1.4750 -0.0361  2.3397
  524MOL0     H70685   1.660   7.250   0.912  0.1748  0.4527 -0.3354
  524MOL0     H70686   1.564   7.144   0.828  2.9268 -0.6893  1.9683
  524MOL0     H70687   1.668   7.305   0.684  1.8684 -1.9777  1.8640
  524MOL0     H70688   1.493   7.349   0.681  0.1050 -2.8805  0.1556
  524MOL0     H70689   1.705   7.497   0.853 -1.0531 -2.2428  0.9561
  524MOL0     H70690   1.535   7.538   0.826  0.8322  2.8301 -2.7203
  524MOL0     H70691   1.686   7.768   0.730  1.6113 -0.1809  0.5157
  524MOL0     H70692   1.658   7.924   0.523 -1.1331 -1.0380 -1.8610
  524MOL0     H70693   1.835   7.885   0.487  0.5832 -1.2505 -3.5808
  524MOL0     H70694   1.796   7.813   0.278 -0.5601  1.3305 -0.0828
  524MOL0     H70695   1.753   7.982   0.301  1.6283  1.2420  3.4240
  524MOL0     H70696   1.511   7.862   0.361 -0.8644 -0.6738 -0.3653
  524MOL0     H70697   1.583   7.743   0.250  0.5841  0.7093 -0.6592
  524MOL0     H70698   1.546   7.915   0.069 -0.8948 -1.6433  0.0269
  524MOL0     H70699   1.559   8.045   0.191 -0.1556  0.6069 -0.8684
  524MOL0     H70700   1.146   7.990   0.228  1.0594  0.3614  0.7102
  524MOL0     H70701   0.938   8.085   0.203 -3.2495  0.8166 -0.6017
  524MOL0     H70702   0.923   8.223   0.096  1.8486  0.9376  2.1717
  524MOL0     H70703   0.853   8.076   0.045 -0.1304 -2.8414  1.6251
  524MOL0     H70704   0.857   8.098  -0.448  0.3123 -0.1178 -0.6829
  524MOL0     H70705   0.761   8.207  -0.655  0.9469 -0.2505 -0.4267
  524MOL0     H70706   0.674   8.518  -0.872 -0.5910  2.1614  0.4267
  524MOL0     H70707   0.668   8.355  -0.817 -2.8160 -0.5494  2.3697
  524MOL0     H70708   0.589   8.413  -0.613  1.8865 -1.7571 -2.3162
  524MOL0     H70709   0.638   8.588  -0.617 -3.1079  0.6820  1.5862
  524MOL0     H70710   0.412   8.485  -0.808 -0.7090  0.7186 -0.6957
  524MOL0     H70711   0.469   8.649  -0.760  2.0554  0.7347  2.5493
  524MOL0     H70712   0.353   8.417  -0.591 -0.6970 -0.5654 -4.5104
  524MOL0     H70713   0.413   8.570  -0.515  0.6748 -0.2240  0.5684
  524MOL0     H70714   0.200   8.540  -0.747 -1.1948 -0.0417  0.7180
  524MOL0     H70715   0.229   8.693  -0.661  0.5137 -0.1350  1.0517
  524MOL0     H70716   0.113   8.433  -0.538  0.0561  0.6278  2.3342
  524MOL0     H70717   0.133   8.588  -0.443  0.5983 -1.0118  0.8446
  524MOL0     H70718  -0.042   8.596  -0.683  0.4833  1.7016  0.6210
  524MOL0     H70719  -0.031   8.714  -0.553  3.5209  0.4676 -0.2154
  524MOL0     H70720  -0.112   8.532  -0.395  0.0381  2.0279  0.8584
  524MOL0     H70721  -0.162   8.439  -0.532 -0.4368 -0.1620 -0.2498
  524MOL0     H70722   0.993   8.559  -0.562  1.7618  0.7334 -1.5084
  524MOL0     H70723   1.078   8.441  -0.363 -1.4748  0.4063  1.1970
  524MOL0     H70724   1.285   8.163  -0.214 -1.3615  1.5076 -0.3855
  524MOL0     H70725   1.448   8.067  -0.060  0.3465  1.9995 -0.0728
  524MOL0     H70726   1.407   6.929   1.490 -0.0331  0.2554 -1.6293
  524MOL0     H70727   1.599   6.795   1.543 -3.1629  0.3775 -0.3154
  524MOL0     H70728   2.012   6.681   1.487  0.4929 -3.3818  0.1581
  524MOL0     H70729   2.196   6.552   1.548  0.8039  0.7869 -0.8559
  524MOL0     H70730   2.431   6.681   1.932  1.1378 -0.9450 -0.0124
  524MOL0     H70731   2.310   6.563   1.962 -1.3428  3.9949 -0.4885
  524MOL0     H70732   2.510   6.394   1.894 -0.0509 -1.3111  2.3135
  524MOL0     H70733   2.506   6.465   2.042 -2.4081  0.1065  0.1733
  524MOL0     H70734   2.631   6.660   1.929 -1.3089  0.0134  0.0234
  524MOL0     H70735   2.672   6.551   1.796 -1.7946 -1.8779 -0.4734
  524MOL0     H70736   2.749   6.378   1.995  1.9173  0.4658  4.5079
  524MOL0     H70737   2.755   6.521   2.096 -0.6007  0.7118  0.6557
  524MOL0     H70738   3.076   6.623   1.850  1.1139  0.2333  4.1386
  524MOL0     H70739   2.229   6.801   1.919 -0.9091  0.8732  0.2124
  524MOL0     H70740   2.040   6.911   1.845  0.0937 -1.2670  1.4862
  525MOL0     O70741   6.953   6.838   1.783 -0.8287  0.6116 -0.0391
  525MOL0     C70742   6.869   6.898   1.851 -0.6894 -0.6018 -0.3623
  525MOL0     O70743   6.752   6.856   1.899 -0.3970 -0.0205 -0.2126
  525MOL0     C70744   6.734   6.720   1.906  0.8272 -0.8250  0.2290
  525MOL0     C70745   6.834   6.623   1.933  0.5326 -0.5208  0.1106
  525MOL0     C70746   6.793   6.490   1.949  0.8211  0.2886  0.0908
  525MOL0     C70747   6.662   6.445   1.934  0.4621  0.5095  0.2226
  525MOL0     O70748   6.633   6.311   1.938 -0.1042  0.4664 -0.1204
  525MOL0     C70749   6.497   6.256   1.930 -0.0341  0.3890 -0.3185
  525MOL0     C70750   6.489   6.131   1.836  0.3538  0.1203 -0.9018
  525MOL0     C70751   6.590   6.024   1.855  0.8117  0.7668  0.3100
  525MOL0     C70752   6.590   5.974   2.005 -0.7394  0.1510  0.6017
  525MOL0     C70753   6.683   5.853   2.029 -0.0925 -0.7555 -0.1122
  525MOL0     C70754   6.729   5.853   2.179  0.6649 -0.1658 -0.0458
  525MOL0     C70755   6.799   5.722   2.221  0.1221  0.2480 -0.2445
  525MOL0     C70756   6.851   5.727   2.369  0.0246  0.7168  0.0489
  525MOL0     N70757   6.952   5.830   2.391  0.7979 -0.6129  0.1855
  525MOL0     C70758   6.930   5.949   2.439  0.2357  0.2968  0.8990
  525MOL0     C70759   7.037   6.026   2.417 -0.0876 -0.0933 -0.0381
  525MOL0     C70760   7.057   6.166   2.480  0.2292  0.0097  0.3585
  525MOL0     C70761   7.038   6.273   2.367  0.0202  0.6780 -0.9833
  525MOL0     C70762   6.889   6.268   2.342 -1.1909 -0.9721  0.6276
  525MOL0     C70763   6.798   6.391   2.333  0.7240 -0.3539 -0.2212
  525MOL0     O70764   6.795   6.460   2.473 -0.2311  1.0801  1.0796
  525MOL0     C70765   6.705   6.403   2.557 -0.3001 -0.2468 -1.3502
  525MOL0     C70766   6.621   6.293   2.545  0.2755  1.2038  0.5318
  525MOL0     C70767   6.542   6.248   2.652 -0.0304  0.0033 -0.2783
  525MOL0     C70768   6.478   6.108   2.635 -0.0518  0.5144  0.2842
  525MOL0     C70769   6.547   6.311   2.782  0.1622  0.0461 -0.8118
  525MOL0     C70770   6.460   6.280   2.897 -0.4683 -0.4628  0.5494
  525MOL0     O70771   6.344   6.225   2.859 -0.2077 -0.0445  0.1225
  525MOL0     C70772   6.226   6.257   2.924  0.2385  0.8940  0.6671
  525MOL0     C70773   6.116   6.162   2.900  0.0443 -0.6110 -0.8876
  525MOL0     C70774   5.987   6.179   2.956  0.0369 -0.6899 -0.6140
  525MOL0     C70775   5.954   6.293   3.036 -0.5046  0.1751  0.4388
  525MOL0     O70776   5.829   6.292   3.086  0.3146 -0.0750 -0.2294
  525MOL0     C70777   5.794   6.401   3.184  0.5785  0.4903 -0.1668
  525MOL0     C70778   5.644   6.395   3.223 -0.0233 -0.0563 -0.0848
  525MOL0     C70779   5.590   6.291   3.321 -0.8042  0.5389 -0.2253
  525MOL0     C70780   5.448   6.246   3.287  0.5534  1.2453 -0.2306
  525MOL0     C70781   5.405   6.145   3.395 -0.3148  0.1663  0.6414
  525MOL0     C70782   5.246   6.158   3.425 -0.7305 -0.2616 -0.3025
  525MOL0     C70783   5.188   6.070   3.531 -0.6536 -0.1861  1.1892
  525MOL0     C70784   5.192   6.143   3.668 -0.1366  0.0400 -0.1225
  525MOL0    Cl70785   5.343   6.125   3.752 -0.2660  0.3289 -0.2836
  525MOL0     C70786   6.056   6.393   3.047 -0.6319  0.3736  1.1462
  525MOL0     C70787   6.193   6.363   3.005  0.0081 -0.5248  0.2921
  525MOL0     O70788   6.490   6.320   3.010  0.6984  0.1704 -1.1704
  525MOL0     C70789   6.631   6.414   2.788  0.0217  0.2499 -0.6366
  525MOL0     C70790   6.714   6.461   2.682 -0.8316  0.3922 -0.3435
  525MOL0     N70791   7.136   5.945   2.367  0.3248  0.6648 -0.0170
  525MOL0     N70792   7.080   5.832   2.353  0.3192 -0.4165 -0.1324
  525MOL0     C70793   6.568   6.545   1.907  0.9408  0.0518  0.1205
  525MOL0     C70794   6.604   6.680   1.878 -0.6161 -0.2330 -0.7006
  525MOL0     C70795   6.906   7.029   1.892  0.3745  0.2277  0.1987
  525MOL0     C70796   6.846   7.092   2.000 -0.0378  0.9514 -0.4544
  525MOL0     C70797   6.886   7.227   2.038  0.1176 -0.0493  0.0596
  525MOL0     C70798   6.994   7.281   1.972  0.4801  0.3058  0.6338
  525MOL0     O70799   7.026   7.413   1.986  1.7365 -0.0548 -0.2464
  525MOL0     C70800   6.926   7.517   2.025  0.2921 -0.0212  0.2586
  525MOL0     C70801   6.909   7.543   2.179 -0.9324  0.2230 -0.1163
  525MOL0     C70802   6.766   7.598   2.208  0.0281  0.1666  1.5683
  525MOL0     C70803   6.748   7.672   2.337  0.3148  0.6118 -1.5100
  525MOL0     C70804   6.613   7.650   2.400 -0.4545 -0.1080 -0.7064
  525MOL0     C70805   6.498   7.647   2.446 -0.7169  0.3484 -0.4187
  525MOL0     C70806   7.068   7.215   1.869 -0.9707  1.0317 -0.1814
  525MOL0     C70807   7.019   7.088   1.820  0.1937 -0.0508 -0.4674
  525MOL0     H70808   6.937   6.650   1.953  0.3564 -0.1448  0.5197
  525MOL0     H70809   6.865   6.413   1.974  0.7150 -0.3360 -1.4130
  525MOL0     H70810   6.467   6.235   2.033 -4.2541 -0.4051 -1.5296
  525MOL0     H70811   6.424   6.328   1.890 -0.7380 -0.6958 -1.0331
  525MOL0     H70812   6.390   6.086   1.846  0.9852 -1.0429  0.3811
  525MOL0     H70813   6.488   6.161   1.731 -1.0590 -1.6897 -1.4545
  525MOL0     H70814   6.570   5.935   1.794 -1.8314  1.8252 -0.4961
  525MOL0     H70815   6.689   6.055   1.820  2.8098 -5.1030 -0.3516
  525MOL0     H70816   6.610   6.064   2.064  0.5378  0.0877  0.2917
  525MOL0     H70817   6.492   5.935   2.033  0.2611 -1.7908  1.5922
  525MOL0     H70818   6.625   5.766   1.997 -1.1871 -0.4884  1.0608
  525MOL0     H70819   6.776   5.867   1.973 -2.5218  2.4282 -3.8770
  525MOL0     H70820   6.798   5.937   2.193  0.4761  0.4091 -2.1718
  525MOL0     H70821   6.635   5.852   2.235  0.3389  0.6923 -0.5544
  525MOL0     H70822   6.729   5.638   2.216 -0.0828  0.4316 -0.5804
  525MOL0     H70823   6.890   5.717   2.160 -0.7047 -1.5743 -1.4246
  525MOL0     H70824   6.896   5.632   2.400 -0.1533  0.0334 -1.7104
  525MOL0     H70825   6.765   5.751   2.432 -2.5656 -1.2390 -2.5122
  525MOL0     H70826   6.839   5.984   2.487 -0.0884 -0.7123  1.0348
  525MOL0     H70827   6.996   6.169   2.570  0.0258 -0.1473  0.2286
  525MOL0     H70828   7.162   6.186   2.504  1.0008  2.4847 -3.9642
  525MOL0     H70829   7.104   6.261   2.281  2.2015  0.7764  0.5786
  525MOL0     H70830   7.079   6.368   2.403  2.9627 -1.2376  1.2828
  525MOL0     H70831   6.837   6.196   2.405  1.8774 -1.8521  2.3597
  525MOL0     H70832   6.885   6.220   2.244  1.0996 -2.0971  1.0053
  525MOL0     H70833   6.694   6.365   2.313 -0.2795 -0.0853  3.7515
  525MOL0     H70834   6.828   6.472   2.266 -1.6941  0.2801 -0.5991
  525MOL0     H70835   6.612   6.240   2.451 -2.0886 -1.4167  2.0985
  525MOL0     H70836   6.374   6.112   2.603  0.4207  2.8615 -1.1662
  525MOL0     H70837   6.542   6.061   2.560  0.6308  0.9317  0.5927
  525MOL0     H70838   6.495   6.043   2.721  1.5816 -1.6874 -1.5656
  525MOL0     H70839   6.145   6.080   2.835 -0.4892 -0.3756 -1.4246
  525MOL0     H70840   5.901   6.120   2.927 -1.1974  0.6945  0.1166
  525MOL0     H70841   5.847   6.392   3.279 -1.5593  0.4008  1.0838
  525MOL0     H70842   5.822   6.488   3.124  1.9488  0.7683  0.8261
  525MOL0     H70843   5.627   6.495   3.264  0.5860  0.0450 -0.0644
  525MOL0     H70844   5.590   6.374   3.130 -1.3082 -0.2800  0.6902
  525MOL0     H70845   5.596   6.321   3.426 -1.2948 -1.3127  0.3715
  525MOL0     H70846   5.646   6.198   3.308 -0.9543 -0.3692  4.1712
  525MOL0     H70847   5.379   6.331   3.291 -2.3556 -0.9864  2.3984
  525MOL0     H70848   5.443   6.203   3.187  0.4361 -1.0304  0.6737
  525MOL0     H70849   5.458   6.164   3.489 -2.2065 -1.7476  2.1785
  525MOL0     H70850   5.448   6.051   3.360  4.3734  2.2594 -0.0154
  525MOL0     H70851   5.228   6.262   3.452 -0.4228  0.1165 -1.4911
  525MOL0     H70852   5.201   6.140   3.327  3.3876  1.6410 -2.8383
  525MOL0     H70853   5.228   5.968   3.536  1.0575  0.3006 -0.9463
  525MOL0     H70854   5.080   6.062   3.514 -0.7296  2.6432 -0.3299
  525MOL0     H70855   5.119   6.093   3.733  0.9939  0.9429  1.9452
  525MOL0     H70856   5.170   6.250   3.659 -1.5866 -0.1029  1.3343
  525MOL0     H70857   6.038   6.483   3.105 -0.8614  1.4242 -0.4775
  525MOL0     H70858   6.263   6.444   3.023 -0.2216 -0.2000 -0.2480
  525MOL0     H70859   6.643   6.469   2.881 -0.8694  0.1265 -0.4426
  525MOL0     H70860   6.789   6.537   2.696 -0.1401 -0.1046 -1.2632
  525MOL0     H70861   6.462   6.525   1.918  0.9523  1.2971  3.7543
  525MOL0     H70862   6.530   6.759   1.871 -0.0229  0.2984 -1.1862
  525MOL0     H70863   6.767   7.046   2.058  0.5940  1.1599  0.5959
  525MOL0     H70864   6.831   7.287   2.109  2.6325  2.6071 -0.0610
  525MOL0     H70865   6.951   7.612   1.977 -0.1334 -0.0645 -0.0473
  525MOL0     H70866   6.831   7.490   1.979  0.9812 -1.4087 -0.4196
  525MOL0     H70867   6.993   7.606   2.209  1.1842 -1.5246 -2.0022
  525MOL0     H70868   6.909   7.446   2.230 -0.8308 -0.7841 -1.9378
  525MOL0     H70869   6.696   7.516   2.188  0.4154  0.0221  0.7728
  525MOL0     H70870   6.743   7.681   2.141 -1.6792  2.5838  4.9294
  525MOL0     H70871   6.753   7.781   2.332  0.1149  1.0358  2.9453
  525MOL0     H70872   6.819   7.634   2.412  0.9162  5.0622  0.5018
  525MOL0     H70873   6.403   7.641   2.495  0.0420  2.7101  1.5666
  525MOL0     H70874   7.151   7.275   1.833  0.8358  0.7982  3.1614
  525MOL0     H70875   7.067   7.047   1.732  0.4590  0.3632 -0.5168
  526MOL0     O70876   5.805   3.329   0.135  0.0408  1.0509  0.1466
  526MOL0     C70877   5.921   3.344   0.097 -0.3937  0.3477  1.0088
  526MOL0     O70878   6.030   3.310   0.164  0.9270  0.5591  0.0261
  526MOL0     C70879   6.008   3.255   0.292 -0.3717  0.6571  0.8625
  526MOL0     C70880   5.953   3.127   0.303  0.1211  0.1497 -0.5413
  526MOL0     C70881   5.924   3.065   0.422 -0.2024  0.1327 -0.1156
  526MOL0     C70882   5.958   3.136   0.539  0.6757  0.7285  1.3459
  526MOL0     O70883   5.933   3.090   0.664  0.6609  0.4223  0.2073
  526MOL0     C70884   5.864   2.970   0.684  0.0920  0.5564  0.1540
  526MOL0     C70885   5.868   2.945   0.837  0.5815  0.4278 -0.5852
  526MOL0     C70886   5.771   2.839   0.894 -0.1262 -0.3116  0.1251
  526MOL0     C70887   5.714   2.863   1.033 -0.0836  0.0381 -1.0801
  526MOL0     C70888   5.566   2.820   1.053 -0.5645 -0.3181  0.2677
  526MOL0     C70889   5.445   2.901   0.985  0.3782 -0.2327  0.5663
  526MOL0     C70890   5.439   3.034   1.047  0.3626  0.4421  0.3788
  526MOL0     C70891   5.303   3.099   1.011  0.3668  0.1814 -0.2183
  526MOL0     N70892   5.295   3.123   0.869 -0.2144  0.4768  0.7502
  526MOL0     C70893   5.391   3.178   0.794 -0.5769  0.0550  0.3399
  526MOL0     C70894   5.348   3.175   0.664 -0.4631  0.6774  0.1036
  526MOL0     C70895   5.410   3.251   0.560  0.2640  0.8876  0.0097
  526MOL0     C70896   5.544   3.184   0.528  0.3378  0.6001  0.3453
  526MOL0     C70897   5.538   3.039   0.462  0.2752 -0.7390 -0.2232
  526MOL0     C70898   5.485   3.055   0.323 -0.1245  1.3203 -0.5188
  526MOL0     O70899   5.470   2.929   0.262  0.1912 -0.0383 -0.6078
  526MOL0     C70900   5.335   2.880   0.258 -0.5708  0.0390  0.1615
  526MOL0     C70901   5.229   2.888   0.349  0.3860 -0.1776 -0.4968
  526MOL0     C70902   5.098   2.845   0.330 -1.0895  0.2926  0.9114
  526MOL0     C70903   5.008   2.879   0.450 -0.3521 -0.3653 -0.4508
  526MOL0     C70904   5.068   2.774   0.211  1.7492  0.4837  0.0850
  526MOL0     C70905   4.930   2.724   0.163 -0.7207  0.3500 -0.9355
  526MOL0     O70906   4.926   2.674   0.039  0.0392  0.6352 -0.0191
  526MOL0     C70907   4.803   2.675  -0.024  0.1287 -0.2101 -0.8274
  526MOL0     C70908   4.760   2.550  -0.074 -0.3419 -0.2468 -0.6028
  526MOL0     C70909   4.630   2.532  -0.126  0.0360 -0.2057  0.2346
  526MOL0     C70910   4.539   2.639  -0.120 -0.1972  0.2080  0.0498
  526MOL0     O70911   4.416   2.612  -0.170  0.4045 -0.2455  0.0006
  526MOL0     C70912   4.306   2.683  -0.104  0.0581 -0.0467  1.0163
  526MOL0     C70913   4.182   2.615  -0.155  0.5696 -0.0116 -0.0690
  526MOL0     C70914   4.055   2.676  -0.088 -0.2718 -0.1036 -0.1737
  526MOL0     C70915   3.932   2.652  -0.179  0.3387 -0.9708  0.7901
  526MOL0     C70916   3.804   2.692  -0.103  0.1668  0.0797 -0.3416
  526MOL0     C70917   3.683   2.706  -0.202  1.2752  0.0068 -0.0783
  526MOL0     C70918   3.569   2.752  -0.116 -0.1210  0.2499 -0.0347
  526MOL0     C70919   3.459   2.642  -0.102 -0.5143 -0.2792 -0.5179
  526MOL0    Cl70920   3.348   2.698   0.015  0.5529  0.1464 -0.3736
  526MOL0     C70921   4.587   2.764  -0.075  0.6890  0.3192  0.4911
  526MOL0     C70922   4.712   2.789  -0.028 -0.5859 -0.2977  0.9232
  526MOL0     O70923   4.834   2.721   0.244 -0.1289 -0.1163 -0.2681
  526MOL0     C70924   5.175   2.749   0.122  0.0535  0.1041  0.3616
  526MOL0     C70925   5.300   2.805   0.147 -0.3365 -0.3395  0.7564
  526MOL0     N70926   5.227   3.114   0.661 -0.7792 -1.1326  0.6658
  526MOL0     N70927   5.192   3.091   0.779 -0.1270  0.3844 -0.3138
  526MOL0     C70928   6.015   3.262   0.524 -0.5742  0.4369 -0.4144
  526MOL0     C70929   6.042   3.323   0.406 -0.6984 -0.1708  1.8141
  526MOL0     C70930   5.939   3.403  -0.032 -1.0198 -0.9089 -0.9207
  526MOL0     C70931   5.831   3.428  -0.117  0.8593 -0.4891 -0.0126
  526MOL0     C70932   5.842   3.494  -0.242  0.5153 -0.0519 -0.8697
  526MOL0     C70933   5.969   3.546  -0.281  0.3329  0.2290  0.3679
  526MOL0     O70934   5.987   3.624  -0.391  0.9976 -0.2105  0.9452
  526MOL0     C70935   5.904   3.610  -0.504 -0.8783 -0.4790 -1.1576
  526MOL0     C70936   5.921   3.721  -0.613 -0.0664  1.1199  0.5120
  526MOL0     C70937   6.069   3.736  -0.650  0.4809  0.8478 -0.7962
  526MOL0     C70938   6.086   3.821  -0.780 -1.3942  0.3422  0.6621
  526MOL0     C70939   6.023   3.952  -0.769  0.7464  0.2980 -0.6418
  526MOL0     C70940   5.973   4.059  -0.759 -0.4677  0.0148  0.1247
  526MOL0     C70941   6.080   3.517  -0.206 -0.3087 -0.2260 -0.3700
  526MOL0     C70942   6.068   3.443  -0.088  0.7262  0.3181 -0.4847
  526MOL0     H70943   5.899   3.076   0.224  0.2676 -1.8517  0.5962
  526MOL0     H70944   5.871   2.970   0.418 -1.8221  1.0606 -2.3182
  526MOL0     H70945   5.762   2.970   0.647 -0.4576  0.1996  1.6020
  526MOL0     H70946   5.920   2.887   0.641  1.0793  1.5782 -0.5920
  526MOL0     H70947   5.972   2.916   0.852  0.3195  0.1422  0.8366
  526MOL0     H70948   5.846   3.045   0.876 -1.9063 -0.2622 -0.0501
  526MOL0     H70949   5.696   2.830   0.814  1.3286  1.1340 -1.4866
  526MOL0     H70950   5.820   2.741   0.886 -2.7927 -1.7018 -0.3865
  526MOL0     H70951   5.779   2.799   1.094  1.4368  1.3085 -1.3103
  526MOL0     H70952   5.721   2.962   1.078 -3.3837 -0.7450  1.6673
  526MOL0     H70953   5.557   2.714   1.024 -2.3801 -0.1920  0.2280
  526MOL0     H70954   5.543   2.814   1.160 -2.2462 -0.9786 -0.0928
  526MOL0     H70955   5.470   2.907   0.879  1.7959 -5.0586  0.3739
  526MOL0     H70956   5.347   2.856   1.002  0.5852 -0.3102  1.6061
  526MOL0     H70957   5.440   3.029   1.157 -1.5738 -0.5184  0.3982
  526MOL0     H70958   5.524   3.094   1.015 -0.5411  1.5674  0.0198
  526MOL0     H70959   5.287   3.190   1.068  0.3303  0.4140 -0.5945
  526MOL0     H70960   5.221   3.029   1.032  1.4967 -1.3618 -0.7429
  526MOL0     H70961   5.483   3.221   0.832 -1.2119  0.9864  0.8717
  526MOL0     H70962   5.341   3.247   0.475  0.3246  0.2205 -0.0148
  526MOL0     H70963   5.428   3.354   0.592  0.2436  0.9770 -0.2678
  526MOL0     H70964   5.591   3.166   0.625  1.1968  0.3970 -0.0975
  526MOL0     H70965   5.596   3.258   0.466  0.0234 -0.2736 -1.0078
  526MOL0     H70966   5.482   2.967   0.521 -0.8071  0.4753  0.2809
  526MOL0     H70967   5.636   2.991   0.461  0.4431 -0.4033 -1.3958
  526MOL0     H70968   5.549   3.114   0.257  1.3721  0.7462  0.3548
  526MOL0     H70969   5.388   3.106   0.321 -0.8268  0.0462 -2.5780
  526MOL0     H70970   5.247   2.948   0.438 -1.4272  0.8963 -0.8081
  526MOL0     H70971   4.942   2.798   0.482 -1.8344  0.7369 -0.5916
  526MOL0     H70972   5.061   2.910   0.541 -3.5234  3.0484  0.4758
  526MOL0     H70973   4.945   2.966   0.431 -2.0922 -1.0352  1.7691
  526MOL0     H70974   4.817   2.459  -0.056 -0.5273 -0.0362  1.2178
  526MOL0     H70975   4.594   2.440  -0.170 -1.3690 -1.8871  4.4158
  526MOL0     H70976   4.307   2.681   0.005  1.6698 -1.1156  1.0129
  526MOL0     H70977   4.320   2.787  -0.136 -0.8394 -0.1349  0.2825
  526MOL0     H70978   4.181   2.612  -0.265  1.1539 -0.4951 -0.0636
  526MOL0     H70979   4.191   2.512  -0.121  2.3796  0.8474  2.3470
  526MOL0     H70980   4.066   2.785  -0.094 -4.5493  0.5068  0.0228
  526MOL0     H70981   4.052   2.644   0.016  1.0087 -1.9454 -0.6545
  526MOL0     H70982   3.930   2.705  -0.274  1.2819  2.5779  2.5835
  526MOL0     H70983   3.927   2.544  -0.195  0.2839 -1.1962  2.1572
  526MOL0     H70984   3.823   2.794  -0.070  1.0709  1.0305 -3.4571
  526MOL0     H70985   3.792   2.626  -0.017 -0.6219  0.6141 -0.0255
  526MOL0     H70986   3.697   2.774  -0.287  2.9798  1.0311  0.9642
  526MOL0     H70987   3.667   2.606  -0.244  2.5726  0.1742 -1.0481
  526MOL0     H70988   3.509   2.833  -0.158 -1.4523  0.4990  2.1881
  526MOL0     H70989   3.599   2.789  -0.017 -0.7975 -0.5682  0.4893
  526MOL0     H70990   3.507   2.551  -0.065  0.0446 -0.2197 -1.0889
  526MOL0     H70991   3.415   2.606  -0.196 -3.6974 -2.0076  1.4416
  526MOL0     H70992   4.518   2.848  -0.064  1.3752  0.6562  2.9957
  526MOL0     H70993   4.740   2.885   0.012  1.7198  1.1163 -3.4664
  526MOL0     H70994   5.180   2.693   0.029 -0.5721 -2.4845  1.7898
  526MOL0     H70995   5.373   2.800   0.067 -1.6677  2.0680 -0.7253
  526MOL0     H70996   6.035   3.305   0.622 -0.8650 -0.9312  0.2698
  526MOL0     H70997   6.087   3.419   0.385  1.3022 -1.1434  1.3972
  526MOL0     H70998   5.739   3.379  -0.087 -0.2449  1.6305  0.2440
  526MOL0     H70999   5.755   3.493  -0.307 -0.0153  1.7915 -0.2581
  526MOL0     H71000   5.935   3.511  -0.540 -0.8171 -1.3488  1.1327
  526MOL0     H71001   5.797   3.605  -0.483 -0.9181 -3.6430 -1.6105
  526MOL0     H71002   5.876   3.818  -0.587  0.7090  1.7536 -0.4251
  526MOL0     H71003   5.866   3.684  -0.699 -1.5290  0.2280  1.7831
  526MOL0     H71004   6.114   3.636  -0.658  0.4182  0.4306  2.5763
  526MOL0     H71005   6.109   3.795  -0.567 -1.1809  1.3880 -0.3289
  526MOL0     H71006   6.055   3.770  -0.872 -1.3098  1.1033  0.2005
  526MOL0     H71007   6.190   3.841  -0.805 -0.9960 -0.5362  1.5484
  526MOL0     H71008   5.927   4.155  -0.774 -1.7067 -0.4084  1.1001
  526MOL0     H71009   6.174   3.561  -0.237 -1.4158  1.7430 -1.1421
  526MOL0     H71010   6.160   3.432  -0.030  0.4228 -1.3351 -0.2712
  527MOL0     O71011   2.702  10.980   6.502 -0.0534 -0.3647 -0.4062
  527MOL0     C71012   2.659  11.027   6.611 -0.1396  0.2254  0.4894
  527MOL0     O71013   2.720  11.026   6.725 -0.8988 -0.3764 -0.0051
  527MOL0     C71014   2.852  10.976   6.717 -0.5345 -0.4880 -0.0363
  527MOL0     C71015   2.965  11.053   6.692 -0.3170 -0.7742  0.0039
  527MOL0     C71016   3.096  10.990   6.679  0.5622  0.3928 -0.5412
  527MOL0     C71017   3.100  10.851   6.703 -0.0825  0.1011 -0.2640
  527MOL0     O71018   3.227  10.793   6.696 -0.3337 -0.2812 -0.2511
  527MOL0     C71019   3.258  10.663   6.744  0.3528  0.2501 -0.9246
  527MOL0     C71020   3.254  10.551   6.626 -0.4272 -0.5495  0.4396
  527MOL0     C71021   3.360  10.597   6.517 -0.3232  1.2671 -0.3162
  527MOL0     C71022   3.366  10.504   6.391 -0.0595 -0.0368 -0.6726
  527MOL0     C71023   3.246  10.522   6.294  0.5633  0.9254  0.0908
  527MOL0     C71024   3.251  10.418   6.186 -0.1121  0.3207  0.0392
  527MOL0     C71025   3.134  10.429   6.101  0.2184  0.1986 -0.1665
  527MOL0     C71026   3.126  10.312   6.001 -0.0965 -0.8901 -0.5836
  527MOL0     N71027   2.993  10.295   5.938  0.2354  0.3194 -0.8552
  527MOL0     C71028   2.872  10.260   5.994  0.0851 -0.1548  0.3368
  527MOL0     C71029   2.780  10.261   5.892  0.4191 -0.7929  0.5150
  527MOL0     C71030   2.639  10.227   5.931  1.1168  0.7132  0.6878
  527MOL0     C71031   2.538  10.340   5.898 -0.5770 -0.1461 -0.5273
  527MOL0     C71032   2.565  10.460   5.990  0.3696  1.0635  0.1841
  527MOL0     C71033   2.503  10.589   5.943  0.2296  0.7017 -0.6206
  527MOL0     O71034   2.590  10.654   5.851  0.0536  0.2452 -0.3054
  527MOL0     C71035   2.547  10.764   5.779  0.5028  0.9367 -0.0388
  527MOL0     C71036   2.419  10.784   5.717  0.3314 -0.1671  1.0323
  527MOL0     C71037   2.389  10.886   5.613 -0.1039  0.1460 -0.7294
  527MOL0     C71038   2.255  10.892   5.552  0.9176 -0.1565  0.0523
  527MOL0     C71039   2.493  10.982   5.593  0.6545  0.4433  0.5681
  527MOL0     C71040   2.473  11.101   5.507  0.4524  0.6877  0.1110
  527MOL0     O71041   2.404  11.086   5.383 -0.0942  0.6059  0.0820
  527MOL0     C71042   2.434  11.172   5.279 -0.5419  0.8848 -0.8513
  527MOL0     C71043   2.467  11.311   5.269  0.4056 -0.2764  0.4554
  527MOL0     C71044   2.476  11.374   5.142  0.1074  0.7286 -0.1116
  527MOL0     C71045   2.481  11.295   5.025 -0.5371  0.3050  1.0034
  527MOL0     O71046   2.494  11.366   4.906 -0.3557 -0.1136  0.4078
  527MOL0     C71047   2.437  11.314   4.790  0.0451 -0.0824  0.4162
  527MOL0     C71048   2.334  11.415   4.733 -0.0856 -0.2578  0.0418
  527MOL0     C71049   2.241  11.487   4.852 -0.0882  0.7302  0.3386
  527MOL0     C71050   2.154  11.389   4.928  0.0063  0.4744 -0.4290
  527MOL0     C71051   2.029  11.441   4.996  0.5833 -0.4238 -0.3152
  527MOL0     C71052   2.040  11.504   5.132 -0.4269 -0.0661  0.4931
  527MOL0     C71053   2.108  11.404   5.238 -0.2001  0.6474  0.8868
  527MOL0     C71054   2.056  11.264   5.235  0.4138  0.4507  0.2532
  527MOL0    Cl71055   2.109  11.178   5.388  0.1339  0.0102  0.4192
  527MOL0     C71056   2.456  11.157   5.038  0.2908 -0.3150 -0.8567
  527MOL0     C71057   2.430  11.099   5.160  0.2422  0.4227  0.4522
  527MOL0     O71058   2.542  11.198   5.537  0.5621  0.2536  0.4576
  527MOL0     C71059   2.618  10.967   5.662 -0.4779 -1.3365  0.0520
  527MOL0     C71060   2.641  10.862   5.749 -0.4007 -0.1530 -0.3693
  527MOL0     N71061   2.845  10.286   5.773  0.1938  0.3538  0.0825
  527MOL0     N71062   2.980  10.308   5.805 -0.5156  0.1596 -0.0411
  527MOL0     C71063   2.984  10.775   6.719  1.2673 -0.5981 -0.4179
  527MOL0     C71064   2.859  10.845   6.731 -0.1103 -0.2880 -0.1959
  527MOL0     C71065   2.529  11.093   6.600 -0.1593 -0.2979 -0.0281
  527MOL0     C71066   2.483  11.184   6.692  0.5694 -0.5451 -1.0063
  527MOL0     C71067   2.362  11.249   6.671 -0.0417 -0.3579 -0.6900
  527MOL0     C71068   2.283  11.225   6.556  0.1520 -0.4114 -0.0226
  527MOL0     O71069   2.172  11.308   6.528  0.4256  0.6287 -0.1812
  527MOL0     C71070   2.132  11.410   6.619  0.1164 -0.2912 -0.2048
  527MOL0     C71071   2.030  11.502   6.566 -0.8691  0.9374  0.1174
  527MOL0     C71072   1.885  11.439   6.559 -0.8993  0.7370  0.1778
  527MOL0     C71073   1.796  11.495   6.448  0.5300 -1.1026  0.1062
  527MOL0     C71074   1.830  11.470   6.312 -0.3717 -0.1933  0.0237
  527MOL0     C71075   1.855  11.433   6.201  0.1213  0.5431 -0.4376
  527MOL0     C71076   2.330  11.139   6.457 -0.2405  0.7508 -0.2220
  527MOL0     C71077   2.451  11.070   6.486 -0.6212 -0.4164 -0.3786
  527MOL0     H71078   2.959  11.159   6.671 -2.2422 -0.6939  0.7587
  527MOL0     H71079   3.181  11.046   6.642  1.0652 -1.2603 -2.0780
  527MOL0     H71080   3.358  10.666   6.789 -0.7958 -2.9334  2.2532
  527MOL0     H71081   3.200  10.651   6.836 -0.5724  0.5770 -1.4483
  527MOL0     H71082   3.276  10.448   6.655 -4.2875 -1.9006 -0.7385
  527MOL0     H71083   3.155  10.552   6.579 -0.3447 -0.4097  0.2692
  527MOL0     H71084   3.354  10.701   6.485 -1.6072  1.5382  0.7151
  527MOL0     H71085   3.456  10.574   6.565  0.3124 -0.1043 -2.1373
  527MOL0     H71086   3.461  10.524   6.340  1.6328 -0.4344  2.0819
  527MOL0     H71087   3.375  10.398   6.417  1.0364 -1.3400 -5.4658
  527MOL0     H71088   3.158  10.516   6.358 -0.6698 -1.0732 -1.6641
  527MOL0     H71089   3.255  10.621   6.249 -1.5144  0.5544 -1.2745
  527MOL0     H71090   3.345  10.420   6.130  1.4898 -3.3539  2.1978
  527MOL0     H71091   3.247  10.315   6.224  1.0841  0.6681  1.1756
  527MOL0     H71092   3.043  10.444   6.159  1.0536 -1.4507  1.6653
  527MOL0     H71093   3.144  10.517   6.036  1.5599  0.6445  0.6049
  527MOL0     H71094   3.146  10.215   6.047  1.8909  0.0197  0.6257
  527MOL0     H71095   3.200  10.321   5.921 -0.6409 -0.3533 -1.0393
  527MOL0     H71096   2.850  10.261   6.100 -1.9180  1.4956 -0.0282
  527MOL0     H71097   2.614  10.148   5.859  0.8090  1.3018  0.1418
  527MOL0     H71098   2.624  10.197   6.035  0.0125  0.4892  0.4795
  527MOL0     H71099   2.436  10.301   5.904  0.0827 -1.9983 -0.7130
  527MOL0     H71100   2.565  10.381   5.800 -0.1258  4.2004  1.1943
  527MOL0     H71101   2.672  10.475   6.004  1.4024 -2.8546 -1.8230
  527MOL0     H71102   2.527  10.426   6.087  1.8020  2.1175  1.1482
  527MOL0     H71103   2.491  10.659   6.026 -0.4410  1.1751 -1.1056
  527MOL0     H71104   2.403  10.563   5.907  0.6997 -0.3086 -1.2657
  527MOL0     H71105   2.344  10.709   5.737  0.0797  0.3415  2.0361
  527MOL0     H71106   2.219  10.992   5.525 -3.2847 -1.5977 -0.4418
  527MOL0     H71107   2.272  10.835   5.460 -2.0035 -1.5777  0.2730
  527MOL0     H71108   2.180  10.854   5.622  2.4467 -1.4355  1.0528
  527MOL0     H71109   2.455  11.381   5.351 -1.4436 -0.9644  0.8325
  527MOL0     H71110   2.490  11.480   5.125  2.9800  0.2780 -1.1023
  527MOL0     H71111   2.525  11.289   4.731  2.5901  2.9204  2.5736
  527MOL0     H71112   2.384  11.219   4.796 -1.1757  0.5393 -0.1727
  527MOL0     H71113   2.387  11.491   4.674 -1.4972  1.1255  0.4745
  527MOL0     H71114   2.275  11.357   4.662  1.8774 -2.6565  0.2481
  527MOL0     H71115   2.177  11.559   4.800  2.2020  0.0261 -3.9434
  527MOL0     H71116   2.304  11.545   4.920  0.9098 -0.2853  0.3184
  527MOL0     H71117   2.134  11.312   4.853  0.0758 -1.4383  1.4308
  527MOL0     H71118   2.225  11.356   5.004  2.5312  3.3820 -1.3069
  527MOL0     H71119   1.962  11.356   5.010  0.5081 -0.4699 -0.9241
  527MOL0     H71120   1.986  11.510   4.923  2.6313  2.0202  0.6315
  527MOL0     H71121   2.113  11.584   5.119  1.1656 -1.4700  0.5743
  527MOL0     H71122   1.942  11.545   5.159 -0.5140 -0.3912  0.6803
  527MOL0     H71123   2.103  11.453   5.336 -2.2142 -1.0787  1.7350
  527MOL0     H71124   2.215  11.399   5.218 -0.1382 -2.4140  1.5333
  527MOL0     H71125   2.080  11.208   5.144 -0.3840 -1.5159  1.2034
  527MOL0     H71126   1.949  11.285   5.234  0.4295  0.6715 -1.4904
  527MOL0     H71127   2.445  11.090   4.953 -3.8277 -1.6051  0.4519
  527MOL0     H71128   2.423  10.992   5.175  1.6906 -0.1009 -2.0264
  527MOL0     H71129   2.705  11.031   5.652 -1.4187  0.6437  3.0464
  527MOL0     H71130   2.742  10.857   5.789 -0.6473  0.0959  0.3039
  527MOL0     H71131   2.989  10.668   6.739 -0.9976 -0.4557  1.3585
  527MOL0     H71132   2.770  10.791   6.763  0.0824 -1.0283 -0.8810
  527MOL0     H71133   2.549  11.212   6.774 -1.2126  1.5537 -0.1822
  527MOL0     H71134   2.326  11.332   6.731  1.9396 -0.2375  0.3910
  527MOL0     H71135   2.088  11.364   6.708  0.2155  0.7144  0.3847
  527MOL0     H71136   2.221  11.473   6.629  0.5660 -1.0484  0.7596
  527MOL0     H71137   2.045  11.535   6.462  0.0112 -0.5812 -0.2701
  527MOL0     H71138   2.004  11.591   6.624 -0.3402  1.7929 -0.9169
  527MOL0     H71139   1.840  11.459   6.656 -2.0576  0.8190 -0.3603
  527MOL0     H71140   1.889  11.331   6.542 -1.4502  0.2051  2.9657
  527MOL0     H71141   1.776  11.602   6.454 -4.5614 -1.8983  1.6457
  527MOL0     H71142   1.696  11.458   6.469  0.7464 -2.3538 -0.9312
  527MOL0     H71143   1.877  11.420   6.097  0.1265  0.9689 -0.4887
  527MOL0     H71144   2.266  11.132   6.369 -0.5542 -1.1687  0.1044
  527MOL0     H71145   2.494  11.019   6.401  2.3559 -1.6351  1.7196
  528MOL0     O71146   2.771   8.180   3.650 -0.7280 -0.9434 -0.6209
  528MOL0     C71147   2.756   8.142   3.761  0.2125 -1.0198 -0.2549
  528MOL0     O71148   2.854   8.151   3.860 -0.3151 -0.2200 -0.5415
  528MOL0     C71149   2.965   8.225   3.823  1.1136 -1.0021  0.6337
  528MOL0     C71150   3.090   8.165   3.802  1.5018 -0.3393  0.2234
  528MOL0     C71151   3.206   8.239   3.780 -0.7571 -0.0094 -1.2335
  528MOL0     C71152   3.201   8.381   3.764 -0.2820  0.1893  0.1619
  528MOL0     O71153   3.317   8.458   3.744  0.4117 -0.5028  0.4775
  528MOL0     C71154   3.409   8.405   3.648 -0.3653  0.3450  0.1047
  528MOL0     C71155   3.533   8.486   3.671 -0.8544  1.4093  0.9283
  528MOL0     C71156   3.523   8.621   3.591 -0.3543  0.0644 -1.0646
  528MOL0     C71157   3.622   8.719   3.640 -0.0827  0.2657 -0.5054
  528MOL0     C71158   3.593   8.853   3.570 -0.3985  0.3039 -0.0276
  528MOL0     C71159   3.703   8.954   3.602 -0.1386  0.4528  0.3005
  528MOL0     C71160   3.720   9.085   3.517 -1.0787 -0.5708  0.0758
  528MOL0     C71161   3.864   9.150   3.522 -0.8591  0.1613 -0.7966
  528MOL0     N71162   3.900   9.190   3.656 -0.7618 -0.7873 -0.3008
  528MOL0     C71163   4.027   9.183   3.698  0.1857 -0.0308 -0.0851
  528MOL0     C71164   4.028   9.243   3.821 -0.3081 -0.6553  1.4234
  528MOL0     C71165   4.134   9.241   3.934  0.3508 -0.1769 -0.5838
  528MOL0     C71166   4.140   9.111   4.013  0.4688 -0.0036 -0.2654
  528MOL0     C71167   4.222   9.140   4.132 -1.1252  0.6928 -0.2278
  528MOL0     C71168   4.235   9.013   4.219 -0.2936  0.5042 -0.0327
  528MOL0     O71169   4.308   8.914   4.140 -0.2047  0.4331 -0.3858
  528MOL0     C71170   4.421   8.865   4.194 -0.0155 -1.2403  0.2762
  528MOL0     C71171   4.428   8.796   4.314  0.0919  0.5474  0.0444
  528MOL0     C71172   4.555   8.760   4.371  0.4415  0.2827  0.5892
  528MOL0     C71173   4.543   8.721   4.524 -0.6259 -0.0674  0.6027
  528MOL0     C71174   4.673   8.799   4.301  0.2326  0.0217 -0.6268
  528MOL0     C71175   4.808   8.771   4.351  0.0126 -0.7756 -0.6451
  528MOL0     O71176   4.899   8.859   4.308  0.1628 -0.1802 -0.3191
  528MOL0     C71177   5.031   8.826   4.326  0.1253 -0.8841 -0.7908
  528MOL0     C71178   5.101   8.868   4.439  0.4002  0.4087 -0.0700
  528MOL0     C71179   5.231   8.834   4.455 -0.3729 -0.9894 -0.0876
  528MOL0     C71180   5.298   8.754   4.363 -1.6056 -0.2518  0.3492
  528MOL0     O71181   5.424   8.714   4.403  0.5692 -0.2223 -0.2432
  528MOL0     C71182   5.491   8.627   4.313 -0.7253 -0.7087  0.5519
  528MOL0     C71183   5.609   8.588   4.392  0.0026  0.3398 -0.3445
  528MOL0     C71184   5.571   8.485   4.494 -0.2286 -0.0807 -0.1445
  528MOL0     C71185   5.705   8.429   4.561  0.0762  0.3425 -0.9401
  528MOL0     C71186   5.685   8.353   4.690  0.2501 -0.1968 -0.3533
  528MOL0     C71187   5.618   8.218   4.653 -0.7513  0.0176 -0.1967
  528MOL0     C71188   5.602   8.132   4.777  0.5409 -0.7247  0.9688
  528MOL0     C71189   5.538   8.001   4.744  0.1743  0.2912 -0.3264
  528MOL0    Cl71190   5.365   8.021   4.701 -0.3891 -0.4144 -0.0169
  528MOL0     C71191   5.232   8.726   4.240 -0.0725  0.8883 -0.5767
  528MOL0     C71192   5.102   8.762   4.221  0.2638 -0.3619  0.4098
  528MOL0     O71193   4.830   8.687   4.437 -0.6243  0.3751  0.3446
  528MOL0     C71194   4.666   8.869   4.172 -0.1030 -0.6353 -0.0495
  528MOL0     C71195   4.538   8.903   4.124 -0.6000 -0.8750 -0.5726
  528MOL0     N71196   3.903   9.293   3.843  0.5507  0.4305 -0.4453
  528MOL0     N71197   3.825   9.263   3.748  0.3669  0.0089  0.2075
  528MOL0     C71198   3.072   8.446   3.776  0.0203 -0.3797  0.0297
  528MOL0     C71199   2.966   8.366   3.814  0.6547 -0.0150 -0.3937
  528MOL0     C71200   2.629   8.082   3.797 -0.4955 -0.6531 -0.0839
  528MOL0     C71201   2.510   8.104   3.715  0.1371 -0.2446  0.4186
  528MOL0     C71202   2.393   8.046   3.762 -0.0698 -0.0469  0.0367
  528MOL0     C71203   2.399   7.960   3.871 -0.0602  0.1215  0.0472
  528MOL0     O71204   2.274   7.898   3.888 -0.4963  0.4482  0.3034
  528MOL0     C71205   2.258   7.811   3.997  0.3411  0.3362 -0.1583
  528MOL0     C71206   2.294   7.662   3.941  1.0782  0.0469 -0.3034
  528MOL0     C71207   2.222   7.624   3.803 -0.2647 -1.3119 -0.7778
  528MOL0     C71208   2.240   7.480   3.756  0.1975 -0.2382  0.7949
  528MOL0     C71209   2.164   7.456   3.634  0.0316  0.1587 -0.0696
  528MOL0     C71210   2.113   7.438   3.527  0.8143 -0.0397  0.6594
  528MOL0     C71211   2.511   7.942   3.955  0.4807  0.2898  0.8805
  528MOL0     C71212   2.628   7.997   3.909 -0.3393  0.2403  0.4030
  528MOL0     H71213   3.110   8.061   3.826  2.4553 -1.0168 -2.9754
  528MOL0     H71214   3.301   8.188   3.796 -1.0546 -0.9502 -2.3263
  528MOL0     H71215   3.420   8.296   3.647  2.7700  0.5132  2.1397
  528MOL0     H71216   3.371   8.417   3.546  3.8165 -2.0197 -1.9798
  528MOL0     H71217   3.550   8.508   3.777 -3.0954  4.2615  0.8280
  528MOL0     H71218   3.617   8.430   3.630 -0.2214  4.1833 -2.0136
  528MOL0     H71219   3.534   8.592   3.486 -0.1936  0.9927 -1.3102
  528MOL0     H71220   3.423   8.663   3.605  0.5389  1.9108  0.2258
  528MOL0     H71221   3.616   8.739   3.747 -2.9203  2.0000 -0.8891
  528MOL0     H71222   3.725   8.692   3.613  0.0363 -1.0316  1.0836
  528MOL0     H71223   3.613   8.838   3.463  4.2250  0.4685  0.6371
  528MOL0     H71224   3.495   8.898   3.590 -0.1031  1.2520 -0.6326
  528MOL0     H71225   3.675   8.982   3.704 -0.6689 -0.8940  0.5492
  528MOL0     H71226   3.805   8.914   3.604  0.0549  0.9158  2.7721
  528MOL0     H71227   3.705   9.074   3.409  1.0987 -2.8026 -0.0942
  528MOL0     H71228   3.646   9.159   3.551 -0.9115 -1.4473  2.6081
  528MOL0     H71229   3.854   9.238   3.457  2.2710  0.3943 -1.1210
  528MOL0     H71230   3.934   9.086   3.468  0.2974  0.0937  0.7326
  528MOL0     H71231   4.112   9.131   3.655  0.7709  0.4693  0.4550
  528MOL0     H71232   4.238   9.250   3.899  0.3327 -0.5920 -0.7468
  528MOL0     H71233   4.119   9.326   4.001  0.3452  0.8471 -1.8299
  528MOL0     H71234   4.177   9.025   3.955  1.2838  1.1395 -1.5014
  528MOL0     H71235   4.037   9.092   4.043  0.8134 -2.9356 -0.5838
  528MOL0     H71236   4.202   9.227   4.195 -2.9685  0.4866 -0.4993
  528MOL0     H71237   4.325   9.151   4.096 -0.7104 -0.2841  0.6023
  528MOL0     H71238   4.134   8.981   4.245 -0.4020 -1.3923 -2.4580
  528MOL0     H71239   4.292   9.031   4.311  3.5933 -0.9333 -1.9388
  528MOL0     H71240   4.329   8.777   4.354  0.0961 -0.0413 -0.2237
  528MOL0     H71241   4.467   8.786   4.570 -0.2762 -0.1564  1.3200
  528MOL0     H71242   4.525   8.613   4.529 -0.5338 -0.1464 -0.5971
  528MOL0     H71243   4.637   8.738   4.577  0.4303 -1.0246 -0.8721
  528MOL0     H71244   5.043   8.928   4.509 -1.1270  1.0995 -1.8624
  528MOL0     H71245   5.266   8.859   4.555  1.7064  0.0878 -1.0134
  528MOL0     H71246   5.427   8.550   4.270 -1.9851  0.9959 -0.8115
  528MOL0     H71247   5.534   8.702   4.246 -3.5715  1.3650  0.8276
  528MOL0     H71248   5.699   8.548   4.344  1.9414 -0.1216  3.2488
  528MOL0     H71249   5.648   8.678   4.440  1.8996  0.1837 -1.4725
  528MOL0     H71250   5.540   8.399   4.434 -1.1561 -1.6838  2.4533
  528MOL0     H71251   5.492   8.514   4.563  1.3328 -3.2077  3.3256
  528MOL0     H71252   5.756   8.361   4.493 -0.1490 -0.5858 -0.2025
  528MOL0     H71253   5.770   8.515   4.580  1.2753 -1.0001  1.5050
  528MOL0     H71254   5.617   8.410   4.754 -1.9962 -1.5339 -1.3900
  528MOL0     H71255   5.776   8.322   4.742 -0.5035  0.3192  1.3491
  528MOL0     H71256   5.523   8.235   4.600  0.7695  0.6201 -2.9393
  528MOL0     H71257   5.686   8.167   4.584 -0.0509  0.3107  0.2703
  528MOL0     H71258   5.548   8.189   4.854  1.4941  0.1640  1.0035
  528MOL0     H71259   5.705   8.111   4.804  1.7755  3.9301  0.7653
  528MOL0     H71260   5.550   7.934   4.829 -0.7842 -0.1912 -0.5593
  528MOL0     H71261   5.592   7.957   4.659  4.6058 -0.6726  2.6559
  528MOL0     H71262   5.283   8.665   4.166 -0.7810 -2.6653  1.6102
  528MOL0     H71263   5.050   8.744   4.128  0.4443  5.1364 -1.1186
  528MOL0     H71264   4.757   8.903   4.124 -1.4270 -1.5061 -3.4076
  528MOL0     H71265   4.532   8.976   4.045  0.2863  1.2356  1.2012
  528MOL0     H71266   3.068   8.555   3.768 -3.3327 -0.4303 -0.2973
  528MOL0     H71267   2.872   8.411   3.846  1.1972  1.3172 -0.6226
  528MOL0     H71268   2.523   8.165   3.626 -0.0531 -3.2540 -1.8001
  528MOL0     H71269   2.305   8.068   3.703 -0.9034  1.5364  1.7396
  528MOL0     H71270   2.333   7.831   4.074  1.6180  3.6461 -2.0214
  528MOL0     H71271   2.153   7.807   4.026 -0.1100 -1.5460 -1.7722
  528MOL0     H71272   2.255   7.584   4.007  0.7886 -0.6298 -1.2470
  528MOL0     H71273   2.403   7.656   3.931  0.8813 -0.5090 -2.9858
  528MOL0     H71274   2.252   7.694   3.724 -3.0531  0.7465 -0.1910
  528MOL0     H71275   2.114   7.634   3.823 -1.2259  0.7385 -5.4965
  528MOL0     H71276   2.196   7.412   3.830 -0.3233  0.7740  1.4400
  528MOL0     H71277   2.347   7.460   3.747  0.4532  0.2920  2.2997
  528MOL0     H71278   2.074   7.420   3.429  0.7522 -0.3218  0.7338
  528MOL0     H71279   2.516   7.884   4.047 -1.1993  0.4609  1.1192
  528MOL0     H71280   2.718   7.967   3.962  0.1516  0.4941 -0.2732
  529MOL0     O71281   2.688  10.673   1.120 -0.7161 -0.4122 -0.1902
  529MOL0     C71282   2.743  10.680   1.226  0.6999  0.6696  0.2042
  529MOL0     O71283   2.685  10.636   1.342 -0.6418 -0.1752  0.5454
  529MOL0     C71284   2.548  10.600   1.337  0.0970 -0.1332 -0.1414
  529MOL0     C71285   2.508  10.467   1.297  0.4046 -0.0456 -0.2356
  529MOL0     C71286   2.373  10.433   1.277 -0.6516  0.1289  0.1358
  529MOL0     C71287   2.274  10.537   1.298  0.0340 -0.0932  0.5224
  529MOL0     O71288   2.141  10.500   1.269  0.3758 -0.4333 -0.0804
  529MOL0     C71289   2.096  10.370   1.236 -0.1323 -0.4456 -0.6275
  529MOL0     C71290   1.947  10.357   1.248 -0.3064 -0.5704 -0.4675
  529MOL0     C71291   1.898  10.384   1.387  0.1554  0.1841  0.1679
  529MOL0     C71292   1.745  10.409   1.382  0.4319 -0.0969  0.0015
  529MOL0     C71293   1.692  10.406   1.526  0.2702  0.1712  0.5331
  529MOL0     C71294   1.548  10.437   1.539  0.2391 -0.2365  0.4160
  529MOL0     C71295   1.512  10.457   1.686 -1.0151  0.9486  0.8555
  529MOL0     C71296   1.382  10.524   1.691 -0.2936 -1.0808 -1.0087
  529MOL0     N71297   1.323  10.509   1.820  0.7532  0.4455 -0.2764
  529MOL0     C71298   1.234  10.419   1.868 -0.4688  0.3641 -0.1084
  529MOL0     C71299   1.193  10.469   1.986  0.4751 -0.2585 -0.3492
  529MOL0     C71300   1.104  10.408   2.085 -0.2069  0.4358 -0.4116
  529MOL0     C71301   0.969  10.357   2.032  0.2240 -0.3290 -0.4321
  529MOL0     C71302   0.886  10.459   1.961  0.6782  0.6330  0.7852
  529MOL0     C71303   0.739  10.414   1.953 -0.1620 -0.9207 -0.6101
  529MOL0     O71304   0.671  10.419   2.079  0.1002  0.0334 -0.6118
  529MOL0     C71305   0.643  10.534   2.141 -0.5079 -1.2248 -0.0948
  529MOL0     C71306   0.723  10.580   2.250 -0.4262  0.6835  0.8573
  529MOL0     C71307   0.698  10.691   2.322  0.7900 -0.2988  0.2917
  529MOL0     C71308   0.784  10.735   2.440 -1.0063 -0.3216 -0.2421
  529MOL0     C71309   0.581  10.763   2.298  0.3485 -0.4175  0.2346
  529MOL0     C71310   0.548  10.876   2.378  0.5261  1.0398  0.7789
  529MOL0     O71311   0.421  10.893   2.391  0.4733 -0.4911 -0.1274
  529MOL0     C71312   0.348  11.000   2.448  0.7560 -0.9029  0.1884
  529MOL0     C71313   0.407  11.110   2.508 -0.0999 -0.5949 -0.4324
  529MOL0     C71314   0.334  11.220   2.560  0.5904 -0.5649 -0.9079
  529MOL0     C71315   0.197  11.225   2.552  1.1068  0.6711 -0.2976
  529MOL0     O71316   0.113  11.324   2.592 -0.3245  0.0949  0.3955
  529MOL0     C71317   0.133  11.337   2.737 -0.6970  0.2900  0.1283
  529MOL0     C71318   0.107  11.476   2.797 -0.2997  0.2383  1.1502
  529MOL0     C71319   0.225  11.573   2.795  0.3357 -0.1238 -0.8683
  529MOL0     C71320   0.179  11.704   2.851 -0.4712  0.2275  0.2057
  529MOL0     C71321   0.298  11.808   2.828 -0.1813  0.4368 -0.5237
  529MOL0     C71322   0.281  11.926   2.927 -0.2278 -0.4342  1.3438
  529MOL0     C71323   0.412  11.999   2.950  0.3754  0.7897 -0.5187
  529MOL0     C71324   0.404  12.076   3.073  0.3133 -0.8259 -0.0147
  529MOL0    Cl71325   0.369  11.979   3.226 -0.2411 -0.3059  0.3920
  529MOL0     C71326   0.131  11.120   2.474 -0.3747  0.5057  0.4269
  529MOL0     C71327   0.202  11.005   2.435  0.3840 -0.6078 -0.1611
  529MOL0     O71328   0.636  10.957   2.404 -0.2232  0.2009  0.2125
  529MOL0     C71329   0.498  10.729   2.184  0.4581  0.7671 -0.6310
  529MOL0     C71330   0.530  10.606   2.111 -0.3938  0.2032 -0.4270
  529MOL0     N71331   1.275  10.578   2.018 -0.6059  0.0441 -0.9259
  529MOL0     N71332   1.332  10.610   1.911 -0.1052  0.6463 -0.2396
  529MOL0     C71333   2.315  10.655   1.352  0.0247 -0.0647  0.5726
  529MOL0     C71334   2.442  10.694   1.365 -0.3196 -0.2463  1.7367
  529MOL0     C71335   2.863  10.758   1.229 -0.4400 -0.5272 -0.4413
  529MOL0     C71336   2.940  10.785   1.340  0.2542  0.2664  0.1204
  529MOL0     C71337   3.063  10.845   1.332 -0.3230  0.9245  0.2748
  529MOL0     C71338   3.113  10.893   1.208  0.1787  0.2468 -0.5800
  529MOL0     O71339   3.227  10.962   1.184 -0.5865 -0.4072  0.2108
  529MOL0     C71340   3.340  10.881   1.212  0.5415 -0.2854  0.0117
  529MOL0     C71341   3.384  10.884   1.347 -0.5820  0.2956 -0.0670
  529MOL0     C71342   3.413  11.020   1.421 -0.1119 -1.1499  0.5810
  529MOL0     C71343   3.439  11.008   1.572  0.1084 -0.4332  0.6469
  529MOL0     C71344   3.324  10.937   1.632 -0.4393  1.4139 -0.0880
  529MOL0     C71345   3.234  10.872   1.689  0.4287 -0.8487 -0.8466
  529MOL0     C71346   3.033  10.873   1.095  0.4672  0.0026 -0.4368
  529MOL0     C71347   2.918  10.801   1.105 -0.2844 -0.3453  0.6219
  529MOL0     H71348   2.582  10.395   1.263  0.3948  0.7547 -2.0494
  529MOL0     H71349   2.354  10.329   1.252 -0.8429  0.5464 -1.5503
  529MOL0     H71350   2.137  10.354   1.136 -2.3101  0.0924 -1.6490
  529MOL0     H71351   2.145  10.307   1.311 -0.3047  0.8899  0.6696
  529MOL0     H71352   1.903  10.431   1.181  2.4270  1.1778 -0.4933
  529MOL0     H71353   1.902  10.264   1.212  1.1889 -0.1340 -3.7772
  529MOL0     H71354   1.913  10.294   1.448  1.1871 -0.7638 -1.3934
  529MOL0     H71355   1.942  10.479   1.419 -0.2199  0.6821 -0.7475
  529MOL0     H71356   1.711  10.496   1.324 -3.4819 -2.5041 -1.7908
  529MOL0     H71357   1.701  10.329   1.322  1.0477  1.1841 -2.3173
  529MOL0     H71358   1.702  10.304   1.564 -0.4877 -0.5358 -1.0324
  529MOL0     H71359   1.751  10.471   1.591 -1.3771  0.9063  1.3494
  529MOL0     H71360   1.531  10.533   1.488  0.0120  0.5322  1.8682
  529MOL0     H71361   1.493  10.350   1.502  1.1174 -0.2688 -0.8987
  529MOL0     H71362   1.504  10.359   1.734 -1.4634  0.0664 -0.9273
  529MOL0     H71363   1.593  10.500   1.747 -0.4850 -0.0252  0.8572
  529MOL0     H71364   1.301  10.503   1.620 -3.3024 -0.3916  1.9641
  529MOL0     H71365   1.401  10.630   1.668 -1.9211 -0.7203 -0.7954
  529MOL0     H71366   1.200  10.323   1.831  0.5648 -1.3927  3.1212
  529MOL0     H71367   1.153  10.334   2.149  2.8459  1.6259 -1.1773
  529MOL0     H71368   1.091  10.496   2.149 -1.5563 -0.0191 -0.0389
  529MOL0     H71369   0.918  10.323   2.122  0.9704 -0.8210 -0.1875
  529MOL0     H71370   0.988  10.271   1.967  0.9732  0.4703 -1.3103
  529MOL0     H71371   0.912  10.486   1.858 -1.4067  0.8444  0.2596
  529MOL0     H71372   0.885  10.546   2.027 -2.1094  0.0596  1.6196
  529MOL0     H71373   0.729  10.308   1.928  0.1509 -1.4429  1.3159
  529MOL0     H71374   0.685  10.471   1.876  1.4765 -2.6612 -3.1522
  529MOL0     H71375   0.816  10.526   2.264 -2.8956 -3.5624  2.9468
  529MOL0     H71376   0.737  10.724   2.539  0.1357  0.0401  0.3549
  529MOL0     H71377   0.867  10.665   2.449 -2.2244 -1.6048  2.0203
  529MOL0     H71378   0.823  10.835   2.422  0.0333 -1.1077 -2.6706
  529MOL0     H71379   0.515  11.122   2.519 -0.3039  1.1691 -0.1093
  529MOL0     H71380   0.382  11.300   2.615 -1.9983 -0.2125  1.0531
  529MOL0     H71381   0.056  11.271   2.778  0.8795 -0.3226  2.3076
  529MOL0     H71382   0.231  11.304   2.773 -0.8775  1.1888  1.5218
  529MOL0     H71383   0.019  11.511   2.742 -0.6477 -2.9704 -0.5391
  529MOL0     H71384   0.080  11.465   2.903 -1.2095 -2.3833  0.7101
  529MOL0     H71385   0.253  11.588   2.691  3.7115  0.2470 -0.0099
  529MOL0     H71386   0.304  11.533   2.859 -0.1624  0.0441 -0.1260
  529MOL0     H71387   0.092  11.742   2.797 -1.0024  0.1613  1.0056
  529MOL0     H71388   0.170  11.693   2.959  0.9782  0.2962  0.3550
  529MOL0     H71389   0.307  11.840   2.724  1.5325  1.8643  0.0065
  529MOL0     H71390   0.390  11.751   2.847 -0.3768  0.0560 -0.7211
  529MOL0     H71391   0.217  11.998   2.875  0.5150  0.2887  1.4150
  529MOL0     H71392   0.232  11.900   3.021  1.3506 -0.1550  2.2923
  529MOL0     H71393   0.443  12.065   2.869  1.0832  1.7296  0.4812
  529MOL0     H71394   0.495  11.931   2.972 -1.0796  0.3137  5.0160
  529MOL0     H71395   0.321  12.147   3.077  1.1002  0.0531  1.3809
  529MOL0     H71396   0.492  12.134   3.102  0.6138 -1.5886  0.6666
  529MOL0     H71397   0.025  11.132   2.455  0.0027  0.6650 -1.8124
  529MOL0     H71398   0.170  10.935   2.357  4.2161 -1.5136 -1.1459
  529MOL0     H71399   0.408  10.785   2.162 -2.1785 -2.2311  1.6988
  529MOL0     H71400   0.480  10.562   2.025  0.9819  1.3684 -1.8844
  529MOL0     H71401   2.251  10.735   1.388  2.2330  1.4336  1.3870
  529MOL0     H71402   2.482  10.795   1.377 -3.5606  0.9124  4.2223
  529MOL0     H71403   2.907  10.752   1.438  1.9487 -1.5568  0.1626
  529MOL0     H71404   3.117  10.850   1.426  1.5792  1.8878 -0.8037
  529MOL0     H71405   3.322  10.779   1.178  0.2714  0.0543 -0.8976
  529MOL0     H71406   3.425  10.928   1.162  1.1375 -1.9634 -0.5944
  529MOL0     H71407   3.479  10.830   1.356 -0.3261  0.7800  0.1889
  529MOL0     H71408   3.314  10.823   1.406  0.0287 -0.6480 -0.2885
  529MOL0     H71409   3.330  11.089   1.404 -0.4632 -1.6510  0.2073
  529MOL0     H71410   3.505  11.063   1.382 -0.7878  1.0261  1.2095
  529MOL0     H71411   3.455  11.109   1.610  2.3602 -0.7654  0.6996
  529MOL0     H71412   3.527  10.945   1.582 -0.0409 -0.5336  1.4474
  529MOL0     H71413   3.155  10.832   1.749 -0.6519  3.4209  1.0079
  529MOL0     H71414   3.080  10.909   1.004  2.5610 -0.2926  0.4601
  529MOL0     H71415   2.874  10.806   1.006 -0.6203 -0.8359  0.7428
  530MOL0     O71416   3.109   9.302   8.721  0.3485 -0.0718  0.8387
  530MOL0     C71417   3.173   9.348   8.624 -0.2913 -0.3928 -1.0554
  530MOL0     O71418   3.170   9.474   8.582 -0.0396 -0.4718 -0.4088
  530MOL0     C71419   3.075   9.555   8.627  1.1351  0.0622  1.0729
  530MOL0     C71420   2.936   9.528   8.637 -0.3918 -0.6252 -0.7854
  530MOL0     C71421   2.850   9.635   8.681  0.1914 -0.0409 -0.5368
  530MOL0     C71422   2.899   9.769   8.706  0.9173  0.0345 -0.3794
  530MOL0     O71423   2.821   9.882   8.743 -1.3981 -0.0019 -0.8032
  530MOL0     C71424   2.708   9.847   8.819 -0.8827 -0.0208  0.7775
  530MOL0     C71425   2.659   9.968   8.891  0.4625  0.0375  0.0510
  530MOL0     C71426   2.764  10.034   8.978  0.6124  0.0542  0.5440
  530MOL0     C71427   2.813  10.176   8.942 -0.2957  0.5647 -0.6496
  530MOL0     C71428   2.949  10.212   9.006 -0.3265 -0.1583  0.4632
  530MOL0     C71429   2.927  10.230   9.161 -0.7029  0.5322  1.1200
  530MOL0     C71430   3.055  10.294   9.220 -0.5592 -0.5290 -0.2915
  530MOL0     C71431   3.031  10.375   9.347  0.5223 -0.3390  0.7397
  530MOL0     N71432   2.999  10.520   9.309  0.2388  0.1649  0.0928
  530MOL0     C71433   3.079  10.628   9.348 -0.1990 -0.5845  0.5594
  530MOL0     C71434   3.010  10.731   9.285 -0.6998  0.6009 -0.9088
  530MOL0     C71435   3.064  10.873   9.283  0.7298  0.3775 -0.3072
  530MOL0     C71436   2.952  10.965   9.347  0.5079  0.0907  0.2326
  530MOL0     C71437   2.930  10.936   9.494 -0.8245 -0.5742  0.7177
  530MOL0     C71438   2.805  11.020   9.536  0.0566 -0.2278  0.2643
  530MOL0     O71439   2.769  10.981   9.671  0.2433 -0.0270  0.6141
  530MOL0     C71440   2.727  11.065   9.766 -0.3513  0.5158 -0.7445
  530MOL0     C71441   2.813  11.174   9.798 -0.1237  0.3393 -1.1960
  530MOL0     C71442   2.775  11.273   9.896  0.2562  0.7114  0.0555
  530MOL0     C71443   2.866  11.398   9.932 -0.0724  0.5147 -0.4150
  530MOL0     C71444   2.655  11.243   9.964  0.2726  1.2086 -0.9691
  530MOL0     C71445   2.599  11.335  10.064 -0.2869 -0.2937  0.8213
  530MOL0     O71446   2.569  11.465  10.024 -0.5284  1.0569  0.4427
  530MOL0     C71447   2.506  11.540  10.120  0.8809  0.3269 -0.0654
  530MOL0     C71448   2.359  11.537  10.135  0.2196  0.3130 -0.0517
  530MOL0     C71449   2.298  11.614  10.236 -0.3000  1.0334 -0.6987
  530MOL0     C71450   2.372  11.688  10.325  0.1159  0.0242  0.4394
  530MOL0     O71451   2.322  11.757  10.431  0.0954 -0.2994 -0.3914
  530MOL0     C71452   2.287  11.665  10.540 -1.3400  0.0597 -0.6931
  530MOL0     C71453   2.216  11.718  10.666 -0.1975  0.2086  0.1402
  530MOL0     C71454   2.096  11.626  10.703 -0.6827  0.5301  0.8149
  530MOL0     C71455   2.002  11.693  10.796  0.1897  0.7388  1.4853
  530MOL0     C71456   2.065  11.698  10.933 -0.5062  0.3396  0.6079
  530MOL0     C71457   1.951  11.727  11.031  0.8182 -0.5255 -0.4261
  530MOL0     C71458   1.991  11.691  11.165  0.5348 -0.4076 -0.0175
  530MOL0     C71459   1.906  11.769  11.274  0.8052  0.0365  0.5870
  530MOL0    Cl71460   1.769  11.694  11.343  0.3256  0.2893  0.2807
  530MOL0     C71461   2.511  11.709  10.303  1.2695 -0.3589  0.2985
  530MOL0     C71462   2.575  11.634  10.202 -0.3445  0.3897 -0.2847
  530MOL0     O71463   2.566  11.289  10.171  0.1694 -0.8600 -0.2746
  530MOL0     C71464   2.573  11.124   9.941  0.5195 -0.5846 -0.4046
  530MOL0     C71465   2.610  11.045   9.838 -1.7463  0.4687  0.8417
  530MOL0     N71466   2.894  10.677   9.225 -0.8039 -0.0097  0.5147
  530MOL0     N71467   2.885  10.553   9.235 -0.6742  0.5694 -0.1340
  530MOL0     C71468   3.033   9.795   8.679  0.1570 -1.2065 -0.4469
  530MOL0     C71469   3.120   9.688   8.639 -0.0460 -0.7616 -0.4603
  530MOL0     C71470   3.261   9.251   8.551 -0.3425 -1.0546 -0.5371
  530MOL0     C71471   3.348   9.296   8.442  0.2550 -0.2964 -0.0226
  530MOL0     C71472   3.421   9.212   8.370  0.8814 -0.0173 -0.0919
  530MOL0     C71473   3.433   9.078   8.406  0.8305  0.4989 -0.3174
  530MOL0     O71474   3.513   9.004   8.333 -0.1947  0.7885  0.1922
  530MOL0     C71475   3.582   8.897   8.404  0.2152  0.1400  0.2441
  530MOL0     C71476   3.730   8.923   8.402 -0.5475  0.0590 -0.5676
  530MOL0     C71477   3.779   9.042   8.480  0.1916 -0.0557 -0.6278
  530MOL0     C71478   3.933   9.039   8.486  0.5136 -0.4762 -0.8689
  530MOL0     C71479   3.982   9.140   8.390  1.2734 -0.4867 -0.6867
  530MOL0     C71480   4.066   9.190   8.309  0.5102 -0.7288 -0.1300
  530MOL0     C71481   3.347   9.022   8.506  0.2210  1.0658 -0.0965
  530MOL0     C71482   3.274   9.114   8.584  0.2885 -0.3183  0.1518
  530MOL0     H71483   2.902   9.425   8.629  0.8867 -0.9356 -2.8809
  530MOL0     H71484   2.748   9.609   8.706  0.1858 -1.1796 -1.6681
  530MOL0     H71485   2.621   9.817   8.760 -1.9063  0.0963  2.1702
  530MOL0     H71486   2.726   9.763   8.888 -0.0225  1.1903  2.0933
  530MOL0     H71487   2.607  10.026   8.814 -1.6659 -0.0255  1.3505
  530MOL0     H71488   2.572   9.943   8.953 -0.6350  1.9738 -0.6223
  530MOL0     H71489   2.722  10.027   9.079 -1.2006 -0.7937 -0.2256
  530MOL0     H71490   2.848   9.965   8.989 -0.5995 -1.1840  2.7860
  530MOL0     H71491   2.830  10.172   8.834  1.3066 -2.0202 -0.3937
  530MOL0     H71492   2.738  10.252   8.966  0.2686  0.4623  1.6838
  530MOL0     H71493   3.007  10.122   8.984  0.1693  0.8340 -2.7141
  530MOL0     H71494   2.992  10.303   8.963  3.6684 -2.2153 -0.3825
  530MOL0     H71495   2.845  10.299   9.185 -3.0180 -1.7855  0.2917
  530MOL0     H71496   2.917  10.133   9.209  2.4239  0.0136  0.9342
  530MOL0     H71497   3.129  10.217   9.244 -0.3656 -0.4013 -0.4760
  530MOL0     H71498   3.111  10.353   9.147 -2.2691 -1.6275 -2.6392
  530MOL0     H71499   3.129  10.361   9.394  0.5102 -2.9622  0.1128
  530MOL0     H71500   2.940  10.335   9.392 -2.2174  1.8105 -2.3887
  530MOL0     H71501   3.173  10.636   9.402  0.2269 -3.1365  0.3335
  530MOL0     H71502   3.150  10.882   9.349 -1.3801 -0.0028  2.7499
  530MOL0     H71503   3.089  10.906   9.182  1.1148 -1.2148 -0.7589
  530MOL0     H71504   2.855  10.944   9.301  0.1679  0.3542  0.8048
  530MOL0     H71505   2.980  11.069   9.328 -0.2115  0.4062  0.8348
  530MOL0     H71506   3.020  10.974   9.543  0.1419  0.8617 -1.9832
  530MOL0     H71507   2.911  10.829   9.511  0.7970 -1.0468 -0.2292
  530MOL0     H71508   2.718  11.004   9.471 -1.6669  4.9161  0.7819
  530MOL0     H71509   2.824  11.128   9.534 -1.5558  0.1505 -3.6350
  530MOL0     H71510   2.903  11.185   9.739  0.4474 -1.4492 -0.7131
  530MOL0     H71511   2.815  11.477   9.988 -2.3310  0.6295 -2.4802
  530MOL0     H71512   2.933  11.362  10.011 -1.1435 -3.9568 -1.2646
  530MOL0     H71513   2.924  11.431   9.846  2.5587 -1.1459  0.6008
  530MOL0     H71514   2.293  11.476  10.074 -1.0180  1.8932 -0.3508
  530MOL0     H71515   2.191  11.600  10.249 -0.0179  0.4180  1.1706
  530MOL0     H71516   2.223  11.592  10.489 -1.3735  0.5455 -1.3726
  530MOL0     H71517   2.378  11.614  10.574 -0.5355  1.9667  0.1241
  530MOL0     H71518   2.283  11.732  10.752 -1.6781  1.2964  1.1585
  530MOL0     H71519   2.184  11.818  10.635 -1.8358 -0.9824 -2.3660
  530MOL0     H71520   2.122  11.524  10.733 -2.8034  0.0135  1.0677
  530MOL0     H71521   2.048  11.614  10.606  1.0239 -2.0294  0.1981
  530MOL0     H71522   1.971  11.790  10.757 -1.4872 -0.3822 -0.1969
  530MOL0     H71523   1.910  11.633  10.800  0.1840  0.4855 -0.8116
  530MOL0     H71524   2.139  11.779  10.935  0.6742 -0.5242 -2.3129
  530MOL0     H71525   2.110  11.600  10.947  2.3190  1.8343  3.1879
  530MOL0     H71526   1.943  11.836  11.031  1.5069 -0.4556 -1.6626
  530MOL0     H71527   1.852  11.685  11.011  0.0038 -1.4176  4.3501
  530MOL0     H71528   2.098  11.707  11.180  0.8376 -2.5584  0.4133
  530MOL0     H71529   1.967  11.585  11.180  0.0924 -0.3276 -0.1433
  530MOL0     H71530   1.886  11.868  11.231  1.2276  0.4889  1.4148
  530MOL0     H71531   1.965  11.790  11.363  0.2379 -1.4679  1.3519
  530MOL0     H71532   2.563  11.776  10.370  1.0938  0.1191 -0.0359
  530MOL0     H71533   2.683  11.645  10.197 -0.1317 -1.6513 -3.2516
  530MOL0     H71534   2.481  11.105   9.995 -1.4009  2.7104 -2.1680
  530MOL0     H71535   2.563  10.947   9.832  0.3197 -0.6021  1.1171
  530MOL0     H71536   3.068   9.897   8.687 -1.2709 -0.7642  0.5284
  530MOL0     H71537   3.226   9.708   8.632 -0.0747 -0.9389 -1.4878
  530MOL0     H71538   3.358   9.401   8.418 -2.8731  0.1487  0.1816
  530MOL0     H71539   3.468   9.256   8.283 -1.6694  1.8183 -0.6581
  530MOL0     H71540   3.553   8.887   8.509  2.0513  1.0242  0.8805
  530MOL0     H71541   3.568   8.809   8.341  0.1819 -0.4024  1.0012
  530MOL0     H71542   3.750   8.934   8.294  1.2279 -2.1258 -0.5349
  530MOL0     H71543   3.791   8.844   8.446  0.6059  3.0926  3.9593
  530MOL0     H71544   3.745   9.017   8.581  2.5489 -3.0039 -0.4602
  530MOL0     H71545   3.733   9.132   8.437 -0.7148  0.0129  0.4176
  530MOL0     H71546   3.974   8.944   8.451 -0.6166 -1.0899 -0.5693
  530MOL0     H71547   3.965   9.050   8.590  1.3077  1.9814 -1.2896
  530MOL0     H71548   4.130   9.259   8.257 -0.8715 -0.1645 -1.1438
  530MOL0     H71549   3.346   8.921   8.546  0.5577  2.2923  3.2869
  530MOL0     H71550   3.219   9.069   8.666 -0.0404 -1.1589 -0.5046
  531MOL0     O71551   5.207   9.176   5.481  0.0954 -0.3863  0.4564
  531MOL0     C71552   5.186   9.060   5.506  1.4705  0.2004 -0.0985
  531MOL0     O71553   5.202   8.952   5.421 -0.8968  0.2424 -0.5263
  531MOL0     C71554   5.255   8.967   5.293  0.3724 -0.1357  0.3088
  531MOL0     C71555   5.174   8.922   5.179  0.3361  0.3273 -1.4891
  531MOL0     C71556   5.218   8.930   5.046 -1.2926  0.0802 -0.5523
  531MOL0     C71557   5.341   9.000   5.016 -0.0070  0.0188  0.5853
  531MOL0     O71558   5.395   8.996   4.884 -0.2242  0.3690  0.2025
  531MOL0     C71559   5.313   9.029   4.775 -0.5940  0.0002 -0.8998
  531MOL0     C71560   5.306   9.186   4.769 -0.9902 -0.0035  0.9168
  531MOL0     C71561   5.219   9.217   4.647  0.1370 -1.5486  0.3338
  531MOL0     C71562   5.148   9.357   4.652 -0.2926 -0.2600  0.5593
  531MOL0     C71563   5.046   9.390   4.540  0.2462  0.3499  1.6277
  531MOL0     C71564   4.934   9.295   4.546 -0.0640  0.2353 -0.1779
  531MOL0     C71565   4.811   9.333   4.459  1.5293  0.5931 -1.0873
  531MOL0     C71566   4.822   9.331   4.309  0.1408 -0.0509 -1.0393
  531MOL0     N71567   4.690   9.356   4.249 -0.5105  0.4537 -0.2361
  531MOL0     C71568   4.648   9.477   4.200  0.0345 -0.0067 -1.2514
  531MOL0     C71569   4.516   9.458   4.174 -0.1243 -0.0109  0.1107
  531MOL0     C71570   4.399   9.546   4.114 -0.0477 -0.1672 -0.4030
  531MOL0     C71571   4.274   9.547   4.197  0.0583 -0.1322 -0.1242
  531MOL0     C71572   4.179   9.673   4.161  0.0699  0.1975  0.2794
  531MOL0     C71573   4.098   9.652   4.040  0.0517  0.0274  0.5335
  531MOL0     O71574   4.103   9.777   3.964  0.9985 -0.3541 -1.1422
  531MOL0     C71575   4.007   9.806   3.879 -0.2739  0.8362  0.5610
  531MOL0     C71576   3.913   9.718   3.813  0.2739  0.6673  0.2087
  531MOL0     C71577   3.829   9.762   3.708 -0.2693 -0.8529 -0.3123
  531MOL0     C71578   3.736   9.659   3.652 -0.7982  0.6138  0.4821
  531MOL0     C71579   3.831   9.895   3.666  0.8199  0.8797  0.4414
  531MOL0     C71580   3.765   9.946   3.545  0.6619  1.2190 -0.3490
  531MOL0     O71581   3.767  10.084   3.539  0.7105  0.0117 -0.7347
  531MOL0     C71582   3.707  10.139   3.427  0.3633 -0.2321  0.0904
  531MOL0     C71583   3.597  10.223   3.444  0.3994 -0.1319  0.1384
  531MOL0     C71584   3.562  10.286   3.325  0.0371 -0.1541  0.5517
  531MOL0     C71585   3.622  10.281   3.198  0.2682 -0.7731  0.9534
  531MOL0     O71586   3.590  10.381   3.099  0.1513 -0.6636 -0.0461
  531MOL0     C71587   3.709  10.433   3.030  0.0659  0.8744 -1.2199
  531MOL0     C71588   3.672  10.561   2.960  0.0508 -0.1725  0.1364
  531MOL0     C71589   3.707  10.686   3.046  0.5988 -0.4332 -0.5245
  531MOL0     C71590   3.645  10.682   3.190 -0.5210 -1.2684  0.3123
  531MOL0     C71591   3.663  10.822   3.250  0.6750  0.7868 -0.8865
  531MOL0     C71592   3.610  10.825   3.398 -0.3215 -0.4531 -0.6143
  531MOL0     C71593   3.691  10.934   3.488  0.2846  0.0658 -0.9052
  531MOL0     C71594   3.610  10.951   3.617 -0.0794  0.2982  0.0012
  531MOL0    Cl71595   3.673  11.076   3.710  0.4360 -0.1263 -0.1061
  531MOL0     C71596   3.727  10.196   3.183  0.0409 -0.5171 -0.6502
  531MOL0     C71597   3.771  10.126   3.298 -0.3637 -0.2934 -0.7880
  531MOL0     O71598   3.730   9.871   3.448  0.1183  1.3672 -1.0494
  531MOL0     C71599   3.921   9.978   3.738  0.1667  0.2662 -0.0672
  531MOL0     C71600   4.009   9.938   3.834 -1.0394 -0.6578 -0.0916
  531MOL0     N71601   4.486   9.328   4.205  0.3292  0.1877  0.3090
  531MOL0     N71602   4.585   9.270   4.254 -0.0252  0.6379  0.8925
  531MOL0     C71603   5.417   9.041   5.123 -0.1263 -0.2707 -0.5518
  531MOL0     C71604   5.375   9.032   5.256  0.5457 -0.6933  0.2364
  531MOL0     C71605   5.122   9.035   5.641  0.1272 -0.2979 -0.6172
  531MOL0     C71606   5.089   9.131   5.738 -0.7997 -1.4146 -0.1894
  531MOL0     C71607   5.044   9.096   5.867 -0.3639 -0.7055 -0.1206
  531MOL0     C71608   5.013   8.964   5.897  0.3504  0.6330  0.2311
  531MOL0     O71609   4.958   8.948   6.021  0.1186 -0.2331  0.6049
  531MOL0     C71610   4.858   8.854   6.041  1.1370  0.3703 -0.0354
  531MOL0     C71611   4.904   8.716   6.101  0.5700 -0.4739  0.1798
  531MOL0     C71612   4.779   8.624   6.101 -0.2508 -0.2115 -0.6618
  531MOL0     C71613   4.810   8.495   6.181 -0.3639  0.0112  0.7535
  531MOL0     C71614   4.701   8.396   6.161 -0.4182  0.1800  1.0893
  531MOL0     C71615   4.612   8.321   6.135 -0.5285  0.9855  0.5504
  531MOL0     C71616   5.040   8.869   5.802  0.6339 -0.0103 -0.2988
  531MOL0     C71617   5.095   8.903   5.679  0.0669  1.1940 -0.1635
  531MOL0     H71618   5.074   8.884   5.200  0.1136  1.7119  0.1930
  531MOL0     H71619   5.160   8.886   4.965 -2.5672  3.2864 -1.5519
  531MOL0     H71620   5.380   9.001   4.694  1.1234  3.2665 -0.8099
  531MOL0     H71621   5.218   8.976   4.774 -1.0806  0.8337 -0.2395
  531MOL0     H71622   5.263   9.230   4.859  0.3006 -1.2334  2.1869
  531MOL0     H71623   5.409   9.222   4.759 -1.4896  1.3160  0.3489
  531MOL0     H71624   5.270   9.207   4.551 -1.7801 -1.6013 -0.7321
  531MOL0     H71625   5.134   9.148   4.645 -1.6949  0.6067 -0.6593
  531MOL0     H71626   5.096   9.368   4.748 -0.0277  0.8195  0.5915
  531MOL0     H71627   5.222   9.436   4.640 -0.1243 -0.3515  0.9596
  531MOL0     H71628   5.011   9.494   4.549  2.3884  1.3177 -0.1327
  531MOL0     H71629   5.109   9.382   4.450 -2.5854 -2.5837 -0.3214
  531MOL0     H71630   4.963   9.193   4.516  1.1766  0.4432  0.2448
  531MOL0     H71631   4.901   9.297   4.650  2.8263 -1.7264  0.9113
  531MOL0     H71632   4.729   9.265   4.484  2.3282  0.6973  2.2784
  531MOL0     H71633   4.781   9.434   4.489  1.4330  0.1528  0.3604
  531MOL0     H71634   4.870   9.238   4.277 -1.6733 -1.4420  0.0702
  531MOL0     H71635   4.886   9.411   4.273  0.6033  0.2222  0.3577
  531MOL0     H71636   4.708   9.564   4.176 -0.4171 -0.2182 -3.3222
  531MOL0     H71637   4.431   9.650   4.102  0.7538 -0.4168 -0.4369
  531MOL0     H71638   4.369   9.505   4.017  2.0634  0.0339 -1.1789
  531MOL0     H71639   4.298   9.557   4.303  1.9043  2.4676 -0.6863
  531MOL0     H71640   4.211   9.458   4.190  0.8200 -0.6524 -0.4632
  531MOL0     H71641   4.235   9.765   4.147  0.3001 -0.2608 -2.0703
  531MOL0     H71642   4.111   9.690   4.245 -0.9803 -2.3965  0.0656
  531MOL0     H71643   3.996   9.632   4.075  1.1107 -1.9258  2.7526
  531MOL0     H71644   4.136   9.581   3.966  1.2281  1.1971 -0.0266
  531MOL0     H71645   3.906   9.617   3.850 -1.1090  2.1376  4.5307
  531MOL0     H71646   3.699   9.587   3.726  2.6540  0.7615  2.6115
  531MOL0     H71647   3.649   9.692   3.596 -2.8850 -1.8191  2.0736
  531MOL0     H71648   3.798   9.605   3.579  1.7343 -0.1376  2.9828
  531MOL0     H71649   3.562  10.251   3.543 -1.9625  0.6628 -0.8406
  531MOL0     H71650   3.482  10.357   3.343 -0.6438 -0.3923 -1.3882
  531MOL0     H71651   3.780  10.452   3.111  0.9206 -0.6859 -1.5823
  531MOL0     H71652   3.750  10.373   2.949 -0.0366 -0.8231 -0.0593
  531MOL0     H71653   3.732  10.569   2.869  2.3888  0.3438  1.6163
  531MOL0     H71654   3.564  10.570   2.945  0.0113 -2.0186 -0.9692
  531MOL0     H71655   3.663  10.773   2.997 -1.7209 -0.3155  1.5668
  531MOL0     H71656   3.816  10.691   3.048  0.7958 -1.4214 -3.5388
  531MOL0     H71657   3.538  10.658   3.189 -1.6470  2.8876  1.6121
  531MOL0     H71658   3.694  10.612   3.258 -0.2889  1.3111  3.0158
  531MOL0     H71659   3.618  10.906   3.196  1.2317  1.0024 -1.0300
  531MOL0     H71660   3.770  10.845   3.262  0.2927  1.5083  1.7294
  531MOL0     H71661   3.505  10.858   3.399 -0.6187 -1.2605  1.4109
  531MOL0     H71662   3.635  10.725   3.434  4.0706 -0.5034 -3.1032
  531MOL0     H71663   3.700  11.035   3.446 -0.7921  0.0337 -1.2515
  531MOL0     H71664   3.794  10.901   3.500 -0.4172 -1.7834  0.4798
  531MOL0     H71665   3.615  10.854   3.668 -0.0997 -0.2043 -0.9284
  531MOL0     H71666   3.508  10.976   3.586  0.3241  1.7683 -0.1760
  531MOL0     H71667   3.804  10.189   3.107  2.5464  0.4716  1.6475
  531MOL0     H71668   3.863  10.069   3.305  0.9262  1.7792  0.4175
  531MOL0     H71669   3.916  10.085   3.724  0.9185  0.8172  3.1240
  531MOL0     H71670   4.083  10.001   3.883 -0.9520 -0.0107 -1.0383
  531MOL0     H71671   5.512   9.085   5.095 -0.4148  0.2275 -0.7809
  531MOL0     H71672   5.445   9.053   5.336  0.8435 -3.2023  0.7137
  531MOL0     H71673   5.122   9.233   5.721  1.0235 -1.7594  1.0598
  531MOL0     H71674   5.030   9.177   5.938 -0.9923  3.1963 -4.2254
  531MOL0     H71675   4.788   8.904   6.109 -0.6042 -0.4079 -1.1692
  531MOL0     H71676   4.807   8.846   5.945  1.7348  2.4115 -0.5603
  531MOL0     H71677   4.953   8.732   6.197  3.1169 -2.5330 -0.6596
  531MOL0     H71678   4.977   8.664   6.039 -1.5883 -4.2029  0.4659
  531MOL0     H71679   4.761   8.590   5.999 -1.4236 -0.5792 -0.3491
  531MOL0     H71680   4.692   8.677   6.141  2.5994  3.0318  1.8462
  531MOL0     H71681   4.805   8.528   6.285 -1.2592  1.6940  0.1980
  531MOL0     H71682   4.910   8.459   6.157  2.2600  3.3121  5.2075
  531MOL0     H71683   4.543   8.246   6.102  3.0139 -2.5839  0.4868
  531MOL0     H71684   5.018   8.766   5.829 -0.4521 -0.2170 -1.8007
  531MOL0     H71685   5.111   8.824   5.607 -5.6577 -0.7013  0.1519
  532MOL0     O71686  11.494   8.931   4.539 -0.5317  0.1738 -0.4611
  532MOL0     C71687  11.434   9.004   4.460  0.2992  0.1256  0.1593
  532MOL0     O71688  11.331   8.959   4.377  0.4829 -0.8812  0.3391
  532MOL0     C71689  11.284   8.834   4.377 -0.7163  0.5068 -0.0225
  532MOL0     C71690  11.158   8.799   4.414  1.1972 -0.2336  0.1497
  532MOL0     C71691  11.109   8.666   4.416  0.8362 -0.1303 -0.0047
  532MOL0     C71692  11.192   8.560   4.384 -0.5067 -0.6867  0.0672
  532MOL0     O71693  11.162   8.428   4.382  0.0736  0.5885 -0.6160
  532MOL0     C71694  11.020   8.396   4.368  0.5071 -0.3551  0.2223
  532MOL0     C71695  10.999   8.251   4.321 -0.3126 -0.3603 -0.2465
  532MOL0     C71696  11.044   8.223   4.182 -0.4694  0.1789  0.9506
  532MOL0     C71697  10.984   8.087   4.122  0.3999 -0.5120 -0.2677
  532MOL0     C71698  11.083   8.019   4.033 -0.1185 -0.2766  0.2706
  532MOL0     C71699  11.105   8.074   3.888 -0.2318 -0.9178  0.3834
  532MOL0     C71700  11.215   8.008   3.801  0.4318 -0.2390 -0.4774
  532MOL0     C71701  11.195   8.054   3.645  0.6646  0.4194  0.3780
  532MOL0     N71702  11.289   7.966   3.573  0.9706 -0.0476 -0.4993
  532MOL0     C71703  11.256   7.847   3.513 -0.2021 -0.3810  0.5097
  532MOL0     C71704  11.378   7.804   3.475 -1.0340 -0.0927  0.6647
  532MOL0     C71705  11.405   7.676   3.395  0.6620 -0.1428  0.0969
  532MOL0     C71706  11.520   7.679   3.290 -0.3452  0.2689 -0.4575
  532MOL0     C71707  11.521   7.547   3.207  0.4874  0.0228 -0.1798
  532MOL0     C71708  11.573   7.430   3.290  0.0890  0.1525 -0.1351
  532MOL0     O71709  11.477   7.346   3.347 -0.1988 -0.6390  0.2553
  532MOL0     C71710  11.521   7.239   3.416 -0.2598 -0.6694  0.6072
  532MOL0     C71711  11.421   7.141   3.436 -0.5263  0.5174  0.3582
  532MOL0     C71712  11.456   7.013   3.485  1.0736  0.4164  0.2244
  532MOL0     C71713  11.326   6.929   3.517  0.9310 -0.8166 -0.0048
  532MOL0     C71714  11.586   6.970   3.521  0.3235  0.6137  0.2400
  532MOL0     C71715  11.625   6.835   3.585 -0.2819  0.2213  0.0487
  532MOL0     O71716  11.574   6.814   3.714 -0.0949 -0.5118 -0.8911
  532MOL0     C71717  11.602   6.702   3.783  0.2459  0.7716 -0.4446
  532MOL0     C71718  11.614   6.581   3.725 -0.8510 -0.1779  0.1856
  532MOL0     C71719  11.649   6.464   3.790 -0.1340  0.3576  0.1463
  532MOL0     C71720  11.666   6.469   3.922 -0.5351 -0.7324 -0.2738
  532MOL0     O71721  11.701   6.349   3.973 -0.7243  0.8917 -0.1963
  532MOL0     C71722  11.712   6.329   4.115  0.0203 -0.5913 -0.4492
  532MOL0     C71723  11.742   6.186   4.130 -0.0898  0.2725  0.3066
  532MOL0     C71724  11.889   6.148   4.094  0.1505 -0.2021 -0.1707
  532MOL0     C71725  11.919   6.004   4.097 -0.3675  0.5644 -0.6249
  532MOL0     C71726  11.953   5.931   4.234  0.2137 -0.5759  0.6495
  532MOL0     C71727  12.054   6.001   4.323  0.6213  0.5973  0.1598
  532MOL0     C71728  12.059   5.910   4.454  0.0061 -0.0618 -0.5827
  532MOL0     C71729  12.144   5.984   4.563 -0.1152  0.3439 -0.0047
  532MOL0    Cl71730  12.107   5.928   4.731  0.1883  0.4597  0.1921
  532MOL0     C71731  11.632   6.585   3.996 -0.6665  0.5394  0.2008
  532MOL0     C71732  11.600   6.700   3.921  0.5310  0.1169 -0.0404
  532MOL0     O71733  11.719   6.770   3.524  0.9067 -0.4324  0.5726
  532MOL0     C71734  11.686   7.057   3.475  0.1010  0.5162  0.1425
  532MOL0     C71735  11.649   7.190   3.428 -0.6636  0.6582 -0.5884
  532MOL0     N71736  11.477   7.896   3.500  0.0323  0.2721 -0.1001
  532MOL0     N71737  11.425   7.990   3.566  0.0051  0.1788 -0.2882
  532MOL0     C71738  11.322   8.589   4.339 -0.2455  0.3268  0.1570
  532MOL0     C71739  11.373   8.726   4.338  1.0247  0.1436 -1.6083
  532MOL0     C71740  11.467   9.150   4.467  0.0327  0.1878  0.4483
  532MOL0     C71741  11.394   9.237   4.389 -0.9617 -0.6357  0.3902
  532MOL0     C71742  11.430   9.375   4.374  0.6928  0.4566  0.6964
  532MOL0     C71743  11.533   9.429   4.449 -0.1225  0.1174  1.0552
  532MOL0     O71744  11.583   9.561   4.442  0.0143 -0.3834 -0.8008
  532MOL0     C71745  11.509   9.666   4.375 -0.7896  0.8044  0.1236
  532MOL0     C71746  11.368   9.700   4.439 -0.1002 -0.7356 -0.7040
  532MOL0     C71747  11.289   9.813   4.364 -0.0303 -0.9849  0.8761
  532MOL0     C71748  11.153   9.837   4.421 -1.1711 -0.3996 -0.2144
  532MOL0     C71749  11.144   9.879   4.561  0.2593 -0.1811  0.0280
  532MOL0     C71750  11.118   9.923   4.675 -0.4581  0.3947 -0.4132
  532MOL0     C71751  11.603   9.338   4.531  0.1347  0.0456  0.2261
  532MOL0     C71752  11.568   9.203   4.543 -0.4199 -0.4029 -0.1616
  532MOL0     H71753  11.095   8.879   4.452 -0.6306 -0.6527 -1.8071
  532MOL0     H71754  11.017   8.628   4.460  0.2625 -1.9102 -2.5136
  532MOL0     H71755  10.975   8.405   4.467 -4.0013 -2.2419 -1.3792
  532MOL0     H71756  10.969   8.459   4.295 -3.0578 -1.0173  1.9025
  532MOL0     H71757  11.040   8.184   4.398  2.5248 -0.3571 -1.6525
  532MOL0     H71758  10.891   8.232   4.332 -0.0520 -1.5696  0.4076
  532MOL0     H71759  11.007   8.306   4.122  2.4863  1.5409  0.8254
  532MOL0     H71760  11.154   8.222   4.184 -0.3859  1.3819 -1.2262
  532MOL0     H71761  10.947   8.023   4.203 -0.6298  1.0896  0.5901
  532MOL0     H71762  10.908   8.129   4.055  0.7170  4.1603  1.8938
  532MOL0     H71763  11.179   8.016   4.085 -0.1818 -2.7365  0.3417
  532MOL0     H71764  11.054   7.915   4.014 -0.4627 -0.7370  2.8141
  532MOL0     H71765  11.003   8.070   3.850 -0.4675 -0.5099  0.9557
  532MOL0     H71766  11.130   8.180   3.881 -1.5030 -0.6313 -0.0372
  532MOL0     H71767  11.315   8.013   3.845 -0.6533 -0.8937  2.2920
  532MOL0     H71768  11.205   7.899   3.793  3.3861 -0.4518 -3.3321
  532MOL0     H71769  11.219   8.160   3.635 -0.2932  0.6330  0.2720
  532MOL0     H71770  11.093   8.050   3.606  0.8755  0.9899 -0.2542
  532MOL0     H71771  11.161   7.796   3.515  0.3945 -1.5693  2.8784
  532MOL0     H71772  11.420   7.593   3.464 -1.0015 -0.5269  0.0365
  532MOL0     H71773  11.316   7.644   3.340 -1.0246  4.4608 -0.3181
  532MOL0     H71774  11.617   7.700   3.338  0.3653 -0.0167 -1.7259
  532MOL0     H71775  11.507   7.763   3.221 -0.3147  1.2822  0.7445
  532MOL0     H71776  11.584   7.556   3.118  0.5043 -0.8849 -0.2679
  532MOL0     H71777  11.425   7.534   3.156 -0.0327  1.4308  0.4052
  532MOL0     H71778  11.643   7.451   3.372 -1.6221 -0.4887  1.5563
  532MOL0     H71779  11.624   7.370   3.215  3.4494 -2.2422  3.6502
  532MOL0     H71780  11.321   7.176   3.414 -0.6402  1.1060  1.7316
  532MOL0     H71781  11.281   6.880   3.430  0.6952  2.3593 -1.8122
  532MOL0     H71782  11.338   6.852   3.594  1.0704 -1.7842 -0.9580
  532MOL0     H71783  11.252   6.990   3.571  1.9080 -0.1471  0.6051
  532MOL0     H71784  11.623   6.577   3.616  4.6594  0.0163  0.3404
  532MOL0     H71785  11.684   6.370   3.749  0.8347  0.1619  1.3285
  532MOL0     H71786  11.798   6.382   4.157 -0.9865 -0.1667  1.1554
  532MOL0     H71787  11.625   6.359   4.174  1.7744 -2.6739  3.5765
  532MOL0     H71788  11.717   6.153   4.231  1.7895 -1.5896  0.2175
  532MOL0     H71789  11.674   6.149   4.053  3.4348  0.0504 -3.0010
  532MOL0     H71790  11.970   6.205   4.140  0.8719 -0.2062 -1.3989
  532MOL0     H71791  11.904   6.172   3.988 -0.3667  1.7675  0.1577
  532MOL0     H71792  11.847   5.945   4.039  0.1890 -0.0786 -0.6754
  532MOL0     H71793  12.014   5.996   4.044  0.6817  4.0463  0.5174
  532MOL0     H71794  11.986   5.830   4.205 -0.4719 -0.2270 -1.5469
  532MOL0     H71795  11.860   5.914   4.289  0.2329  0.4404  1.0044
  532MOL0     H71796  12.149   5.996   4.268 -1.8139  0.2953 -4.5069
  532MOL0     H71797  12.027   6.106   4.333  0.0223  0.7553 -2.3475
  532MOL0     H71798  12.121   5.822   4.435 -1.2001 -1.1494  0.3528
  532MOL0     H71799  11.966   5.870   4.493  1.1947 -2.2315  0.2317
  532MOL0     H71800  12.111   6.088   4.558  2.8454  1.3184 -1.4827
  532MOL0     H71801  12.249   5.977   4.535  0.2841 -2.6893  1.8045
  532MOL0     H71802  11.653   6.574   4.102 -0.7286 -0.8725  0.0930
  532MOL0     H71803  11.582   6.786   3.986  0.2176 -1.1154  1.5676
  532MOL0     H71804  11.790   7.026   3.488 -0.5288 -1.2439  1.3048
  532MOL0     H71805  11.742   7.244   3.414  0.2469 -0.8859 -0.6802
  532MOL0     H71806  11.387   8.512   4.299 -0.8124  0.8118 -1.8459
  532MOL0     H71807  11.474   8.746   4.305  2.1097 -0.0798  1.3221
  532MOL0     H71808  11.319   9.191   4.326 -0.6935 -0.1852 -0.2727
  532MOL0     H71809  11.370   9.435   4.306 -1.3511 -1.6844  0.5133
  532MOL0     H71810  11.567   9.759   4.378 -1.2626  1.0751  1.2520
  532MOL0     H71811  11.511   9.656   4.266 -0.3112  1.5000  0.0547
  532MOL0     H71812  11.391   9.723   4.544 -1.3377 -1.7901 -0.1648
  532MOL0     H71813  11.294   9.619   4.438 -0.7612 -0.1961  0.8793
  532MOL0     H71814  11.284   9.811   4.254 -0.5370 -1.1933  0.9031
  532MOL0     H71815  11.351   9.903   4.377  0.1567 -1.1371  1.0477
  532MOL0     H71816  11.105   9.739   4.413  1.7378 -1.9076 -0.6921
  532MOL0     H71817  11.091   9.908   4.366  1.1730  1.7704 -0.2579
  532MOL0     H71818  11.094   9.950   4.776 -1.0281  0.3717 -0.5398
  532MOL0     H71819  11.695   9.373   4.577  0.8648  2.6611 -2.8956
  532MOL0     H71820  11.626   9.137   4.606  0.6201  0.9827  0.4066
  533MOL0     O71821   4.450   2.196   6.554  0.5891 -0.3043  0.1376
  533MOL0     C71822   4.555   2.164   6.504 -0.5313  0.5826  0.8143
  533MOL0     O71823   4.672   2.130   6.567 -0.3538 -0.4343 -0.6907
  533MOL0     C71824   4.686   2.149   6.702  0.9748  1.4025 -0.7513
  533MOL0     C71825   4.596   2.126   6.805 -0.1000 -0.5099  0.3881
  533MOL0     C71826   4.621   2.150   6.933 -0.6252 -0.3486  0.5097
  533MOL0     C71827   4.737   2.210   6.973  0.7205 -0.5201  0.6753
  533MOL0     O71828   4.758   2.227   7.107  0.6151  0.0854 -0.3728
  533MOL0     C71829   4.892   2.245   7.153  0.3314 -0.3139  0.9723
  533MOL0     C71830   4.899   2.283   7.304  0.0405  0.5562  0.2395
  533MOL0     C71831   4.804   2.196   7.374  0.2170 -0.5857 -0.9396
  533MOL0     C71832   4.768   2.273   7.510  0.3329  0.0212 -0.0014
  533MOL0     C71833   4.653   2.188   7.583  0.6807 -0.1115 -1.0731
  533MOL0     C71834   4.659   2.215   7.732 -0.0945  0.3565 -1.3722
  533MOL0     C71835   4.614   2.345   7.791 -0.0264  0.5999  0.7892
  533MOL0     C71836   4.469   2.356   7.829  0.1972 -0.2005  0.2835
  533MOL0     N71837   4.422   2.493   7.873 -0.0913  1.0995  0.2198
  533MOL0     C71838   4.375   2.591   7.791  1.0583  0.0951 -0.0737
  533MOL0     C71839   4.352   2.693   7.883  0.6069  0.2098  0.1284
  533MOL0     C71840   4.306   2.838   7.841 -0.4705  0.5083 -1.0339
  533MOL0     C71841   4.314   2.859   7.696 -0.8183 -0.2125 -0.8165
  533MOL0     C71842   4.243   2.996   7.657  0.0964  0.8171 -0.4142
  533MOL0     C71843   4.238   3.025   7.509 -0.0005  0.2068  1.0667
  533MOL0     O71844   4.170   2.913   7.431 -0.3519 -0.2779 -0.3615
  533MOL0     C71845   4.123   2.936   7.298 -0.0570 -0.1329 -0.0989
  533MOL0     C71846   4.166   3.048   7.228  0.3649  0.7362  0.5019
  533MOL0     C71847   4.100   3.077   7.106  0.2750  1.1105 -0.3275
  533MOL0     C71848   4.141   3.208   7.037 -0.1208 -0.0900  0.5039
  533MOL0     C71849   4.005   2.986   7.047 -0.7536 -0.0289 -0.4320
  533MOL0     C71850   3.955   3.007   6.907  0.8488  0.8573  0.3861
  533MOL0     O71851   3.848   2.931   6.879 -0.3805 -0.1257  0.3718
  533MOL0     C71852   3.777   2.950   6.765 -0.6366 -1.1353 -0.4584
  533MOL0     C71853   3.788   2.847   6.669 -0.1512  0.2994  0.0185
  533MOL0     C71854   3.730   2.859   6.546  1.2495  0.9574 -0.3498
  533MOL0     C71855   3.646   2.966   6.514  0.4291 -0.5371 -0.1284
  533MOL0     O71856   3.568   2.963   6.399  1.3299 -0.0011  0.3644
  533MOL0     C71857   3.423   3.005   6.423  0.0321 -0.3301 -0.5203
  533MOL0     C71858   3.357   2.990   6.289  0.0313 -0.4325  0.0943
  533MOL0     C71859   3.361   3.114   6.202  0.5716 -0.3533  0.1173
  533MOL0     C71860   3.374   3.066   6.063 -0.1062 -0.0026 -1.0524
  533MOL0     C71861   3.285   3.144   5.963 -1.2080  0.5770  0.3634
  533MOL0     C71862   3.379   3.177   5.835 -0.3217 -0.9909  0.4956
  533MOL0     C71863   3.299   3.251   5.720 -0.0848 -0.7439  0.9160
  533MOL0     C71864   3.371   3.314   5.601 -0.0326 -0.6643  0.6778
  533MOL0    Cl71865   3.456   3.191   5.503  0.0864 -0.5783 -0.6089
  533MOL0     C71866   3.635   3.074   6.609 -0.2759 -1.1443 -0.2961
  533MOL0     C71867   3.704   3.067   6.736 -0.2889 -0.1404  0.3278
  533MOL0     O71868   4.026   3.066   6.826  0.0990  0.5348 -0.8240
  533MOL0     C71869   3.980   2.867   7.119 -0.0923 -0.5027 -0.2127
  533MOL0     C71870   4.035   2.851   7.246 -0.3695  0.3602  0.0274
  533MOL0     N71871   4.366   2.641   8.009 -0.2020  0.6168 -0.0339
  533MOL0     N71872   4.409   2.522   8.002 -0.1359  0.6711  0.2287
  533MOL0     C71873   4.824   2.252   6.871 -0.1618 -0.0487 -0.1428
  533MOL0     C71874   4.802   2.213   6.741 -0.1639  0.8498  0.1771
  533MOL0     C71875   4.557   2.152   6.366  0.0680 -0.2881  0.2968
  533MOL0     C71876   4.449   2.107   6.287 -0.2899  0.0325  0.0505
  533MOL0     C71877   4.469   2.110   6.151  1.4445 -0.2962  0.2690
  533MOL0     C71878   4.589   2.154   6.081 -0.5269 -0.2049 -0.8137
  533MOL0     O71879   4.604   2.141   5.948 -1.1363 -0.6144  0.2298
  533MOL0     C71880   4.494   2.165   5.868  0.4556  0.1237 -0.3608
  533MOL0     C71881   4.522   2.220   5.727 -0.2257  0.7130  0.3210
  533MOL0     C71882   4.576   2.357   5.718  0.8112  0.1643 -0.5104
  533MOL0     C71883   4.702   2.387   5.792 -0.2155  0.2057  0.3394
  533MOL0     C71884   4.817   2.295   5.751  0.4310  0.4586  0.1673
  533MOL0     C71885   4.915   2.229   5.709 -0.0773 -0.0978 -0.0259
  533MOL0     C71886   4.697   2.179   6.155 -1.1320  0.3394 -0.6014
  533MOL0     C71887   4.682   2.184   6.298  0.9314  0.3115 -0.6187
  533MOL0     H71888   4.505   2.077   6.771 -0.2215  1.6181 -2.8563
  533MOL0     H71889   4.544   2.130   7.007  0.3893 -2.2694  1.1348
  533MOL0     H71890   4.953   2.157   7.131 -0.0073 -0.0827 -1.0934
  533MOL0     H71891   4.944   2.326   7.102  1.4845  0.0102  2.5764
  533MOL0     H71892   5.001   2.265   7.339 -0.1282 -0.6734  0.1365
  533MOL0     H71893   4.862   2.386   7.314 -1.6200 -0.0451  0.7105
  533MOL0     H71894   4.705   2.177   7.331 -0.5619  1.2915 -0.0766
  533MOL0     H71895   4.845   2.094   7.376  2.4000  0.1160 -3.9818
  533MOL0     H71896   4.861   2.259   7.565  1.7124 -2.1286 -2.6482
  533MOL0     H71897   4.736   2.373   7.480  0.8529  0.6317  1.3962
  533MOL0     H71898   4.552   2.203   7.544 -0.9499 -2.1277  1.9913
  533MOL0     H71899   4.680   2.085   7.560  0.1275 -0.4585 -0.2056
  533MOL0     H71900   4.596   2.134   7.769 -1.0329  1.1082 -1.2975
  533MOL0     H71901   4.761   2.189   7.763 -0.0984  1.2463 -0.5705
  533MOL0     H71902   4.677   2.375   7.875  0.1901  0.3252  0.7253
  533MOL0     H71903   4.631   2.424   7.716 -1.5823  2.0357  1.8877
  533MOL0     H71904   4.445   2.295   7.917  3.0948  0.6824  1.7864
  533MOL0     H71905   4.412   2.314   7.746 -0.5347 -0.5775  0.9592
  533MOL0     H71906   4.366   2.597   7.683 -1.9284 -0.0857  0.0919
  533MOL0     H71907   4.201   2.841   7.871  0.5783  0.6278  3.4625
  533MOL0     H71908   4.357   2.916   7.899 -0.9720 -1.0019  1.6025
  533MOL0     H71909   4.256   2.777   7.653  0.6095 -1.7946  0.1305
  533MOL0     H71910   4.417   2.858   7.659 -0.5341  1.5829 -0.1678
  533MOL0     H71911   4.299   3.079   7.703  0.4375 -0.1342  0.9582
  533MOL0     H71912   4.143   2.995   7.701 -0.3576  0.4039 -1.4293
  533MOL0     H71913   4.339   3.033   7.467  0.4420  4.3021  2.4476
  533MOL0     H71914   4.190   3.122   7.495 -2.1182 -0.9307 -0.1002
  533MOL0     H71915   4.230   3.127   7.265 -1.3497  2.1006  0.7288
  533MOL0     H71916   4.171   3.279   7.114  0.3149  0.1563  0.1163
  533MOL0     H71917   4.231   3.201   6.974  0.6602 -2.1439  1.7413
  533MOL0     H71918   4.062   3.258   6.980 -1.2556  0.7377  2.6931
  533MOL0     H71919   3.850   2.760   6.686  1.6213  1.4569 -0.1854
  533MOL0     H71920   3.759   2.782   6.475 -1.8337 -0.7441  0.0806
  533MOL0     H71921   3.369   2.935   6.488 -0.3683 -0.7626 -1.3011
  533MOL0     H71922   3.419   3.108   6.460 -0.4904 -0.7797  0.7629
  533MOL0     H71923   3.397   2.902   6.237  0.1342  1.1525 -2.7162
  533MOL0     H71924   3.248   2.984   6.297 -0.0956 -0.6092 -1.4117
  533MOL0     H71925   3.438   3.189   6.220 -0.6319  1.1466 -0.7534
  533MOL0     H71926   3.271   3.177   6.207  1.4222  1.2135 -2.5419
  533MOL0     H71927   3.482   3.067   6.043  0.6581  0.0002  2.4757
  533MOL0     H71928   3.349   2.960   6.048  2.0097 -0.4586 -1.8375
  533MOL0     H71929   3.241   3.235   6.005 -0.9152  0.8324  0.1188
  533MOL0     H71930   3.212   3.070   5.928 -0.1715 -0.9371  1.2545
  533MOL0     H71931   3.466   3.232   5.872  0.4034 -1.2767 -0.7376
  533MOL0     H71932   3.417   3.084   5.791  3.1183 -0.7022  2.5320
  533MOL0     H71933   3.243   3.333   5.766  1.6261 -0.2530  2.2289
  533MOL0     H71934   3.229   3.176   5.683  1.0062 -1.7483  0.8154
  533MOL0     H71935   3.448   3.384   5.636  0.5210 -1.7838  1.8017
  533MOL0     H71936   3.304   3.359   5.527 -0.3615 -0.0862  1.3142
  533MOL0     H71937   3.571   3.161   6.598  2.3606  1.2485  1.8579
  533MOL0     H71938   3.702   3.146   6.810  1.0422  2.9521 -2.7022
  533MOL0     H71939   3.923   2.790   7.069 -2.2885 -0.7185  2.3448
  533MOL0     H71940   4.003   2.760   7.296 -1.5011  0.6754 -0.0857
  533MOL0     H71941   4.912   2.310   6.897 -2.1360  1.0651  5.2272
  533MOL0     H71942   4.876   2.246   6.669  0.8924 -1.5089  0.1173
  533MOL0     H71943   4.350   2.086   6.327  0.6745 -0.6781  2.1896
  533MOL0     H71944   4.385   2.084   6.088  0.7375  3.8386 -0.7888
  533MOL0     H71945   4.437   2.075   5.843  0.4733 -0.8209  2.6420
  533MOL0     H71946   4.431   2.241   5.914  1.7277  1.0581 -0.1161
  533MOL0     H71947   4.436   2.216   5.660  0.4228  0.8382 -0.5436
  533MOL0     H71948   4.592   2.146   5.689 -1.0522  0.6090 -1.0765
  533MOL0     H71949   4.497   2.424   5.755 -0.0064 -1.6889  1.3101
  533MOL0     H71950   4.586   2.381   5.612  0.2977 -0.6475 -0.7472
  533MOL0     H71951   4.688   2.377   5.900 -0.1133  4.0459  0.8519
  533MOL0     H71952   4.750   2.482   5.768  1.9377 -1.4679 -2.7553
  533MOL0     H71953   4.990   2.162   5.673  4.6911  0.7857  6.3753
  533MOL0     H71954   4.794   2.202   6.112 -1.0506 -0.0761 -0.6483
  533MOL0     H71955   4.765   2.220   6.359  0.9155  0.9786 -0.9821
  534MOL0     O71956   7.378   1.576   5.702  0.1101 -0.3623  0.1679
  534MOL0     C71957   7.385   1.694   5.676  0.3302  0.3978  0.9602
  534MOL0     O71958   7.468   1.797   5.717 -0.0147  0.6549  0.0590
  534MOL0     C71959   7.563   1.769   5.809 -0.3900  0.3134  0.1064
  534MOL0     C71960   7.634   1.877   5.840 -0.6879 -0.7615  0.3087
  534MOL0     C71961   7.744   1.877   5.924  0.1735 -2.1286 -0.2113
  534MOL0     C71962   7.790   1.752   5.991  0.7394 -0.6474  0.7966
  534MOL0     O71963   7.902   1.732   6.065  0.6183  0.3656  0.4810
  534MOL0     C71964   7.977   1.852   6.083  0.3988 -0.1787 -0.0428
  534MOL0     C71965   8.106   1.840   6.154  0.7596  0.3073  0.3036
  534MOL0     C71966   8.086   1.795   6.295  0.5409  0.7165  0.4054
  534MOL0     C71967   8.205   1.818   6.386 -0.4833 -0.6163  0.2921
  534MOL0     C71968   8.179   1.774   6.529 -0.4292  0.5722  0.3792
  534MOL0     C71969   8.322   1.775   6.604 -0.1343 -0.0252  0.3046
  534MOL0     C71970   8.311   1.753   6.756  0.9186  0.1124 -0.3031
  534MOL0     C71971   8.438   1.756   6.847 -0.4249 -0.4418  0.4894
  534MOL0     N71972   8.556   1.691   6.782 -0.3119  0.1097 -0.0725
  534MOL0     C71973   8.560   1.561   6.725  0.7280 -0.3357  0.3746
  534MOL0     C71974   8.667   1.570   6.648  1.0587  0.2282  0.3617
  534MOL0     C71975   8.700   1.461   6.546  0.0205  0.8689 -0.1964
  534MOL0     C71976   8.847   1.434   6.516 -0.4132 -0.3409  0.4303
  534MOL0     C71977   8.886   1.309   6.450 -1.2522  0.0333  1.6321
  534MOL0     C71978   8.904   1.319   6.292 -0.2535  0.0067  0.4493
  534MOL0     O71979   8.972   1.212   6.224 -0.8723 -0.7632 -0.8972
  534MOL0     C71980   9.009   1.243   6.100  0.6507  0.7076  0.7323
  534MOL0     C71981   8.959   1.351   6.023  0.5134  0.2493  0.0371
  534MOL0     C71982   9.001   1.363   5.895 -0.0423 -0.6779  0.1291
  534MOL0     C71983   8.947   1.483   5.814 -0.2066 -0.2684  0.0317
  534MOL0     C71984   9.091   1.273   5.832  0.3010 -0.5447  0.4285
  534MOL0     C71985   9.139   1.273   5.692 -1.4039  1.1984  0.7925
  534MOL0     O71986   9.225   1.177   5.665 -0.2211 -0.0837 -0.0124
  534MOL0     C71987   9.253   1.135   5.529  0.1204 -0.6326 -0.6838
  534MOL0     C71988   9.303   1.213   5.425  0.2121 -0.2044  0.5094
  534MOL0     C71989   9.324   1.168   5.295  0.7592  0.5712 -0.2706
  534MOL0     C71990   9.313   1.038   5.272  0.5809 -0.3399  0.8025
  534MOL0     O71991   9.340   0.995   5.137 -0.5008 -0.0252 -0.0054
  534MOL0     C71992   9.236   1.032   5.042  0.2635  0.5070  0.0510
  534MOL0     C71993   9.156   0.909   4.998 -0.7739  0.9659  0.4851
  534MOL0     C71994   9.015   0.924   4.940  0.5391  1.3350  0.3202
  534MOL0     C71995   8.955   0.781   4.899 -0.5941  0.2531 -0.2565
  534MOL0     C71996   8.979   0.666   4.998  0.8297  0.7047  0.3201
  534MOL0     C71997   8.926   0.694   5.137  0.2191  0.4131 -0.3844
  534MOL0     C71998   8.946   0.583   5.234 -0.1614 -0.9131 -0.3299
  534MOL0     C71999   8.972   0.616   5.380 -0.3955 -0.2904 -0.0884
  534MOL0    Cl72000   8.970   0.476   5.483 -0.4278  0.2815 -0.4874
  534MOL0     C72001   9.275   0.947   5.375  0.2476  1.2446  0.9534
  534MOL0     C72002   9.237   1.002   5.500  0.2885  0.4102  0.5232
  534MOL0     O72003   9.106   1.358   5.613  0.3436  0.4962 -0.2460
  534MOL0     C72004   9.140   1.168   5.923  0.4095  0.0783  0.1600
  534MOL0     C72005   9.090   1.151   6.051  0.6018 -0.7463  0.4400
  534MOL0     N72006   8.726   1.691   6.663 -0.1024  0.2491 -0.0644
  534MOL0     N72007   8.666   1.764   6.748 -0.4819  0.8548 -0.8388
  534MOL0     C72008   7.719   1.640   5.961  0.3369  0.9403  0.3270
  534MOL0     C72009   7.606   1.645   5.875 -0.5224  0.3579 -0.7110
  534MOL0     C72010   7.279   1.724   5.575  1.0305 -0.1654 -0.1984
  534MOL0     C72011   7.244   1.635   5.472 -0.7414 -0.4013  0.6088
  534MOL0     C72012   7.138   1.663   5.381 -0.8916  0.2554 -0.0741
  534MOL0     C72013   7.084   1.798   5.383  0.5636  0.4997  0.2636
  534MOL0     O72014   6.988   1.829   5.289 -1.0785  0.3835  0.0801
  534MOL0     C72015   7.023   1.800   5.157  0.4286  0.2135 -0.0800
  534MOL0     C72016   6.891   1.827   5.082  1.4126  1.4548  0.3771
  534MOL0     C72017   6.926   1.926   4.976  0.6064 -0.1927 -0.0675
  534MOL0     C72018   6.808   1.970   4.889 -0.1987 -0.0883  0.6054
  534MOL0     C72019   6.751   1.861   4.802 -0.6688 -0.5229 -0.5052
  534MOL0     C72020   6.703   1.776   4.736 -0.1705 -0.2047 -0.7650
  534MOL0     C72021   7.119   1.890   5.488 -0.2940  0.2328  0.2140
  534MOL0     C72022   7.215   1.853   5.583 -0.1381 -0.3587  1.1713
  534MOL0     H72023   7.604   1.967   5.789 -2.6595 -0.7811  1.3352
  534MOL0     H72024   7.795   1.969   5.952 -0.0170 -1.6563 -1.3624
  534MOL0     H72025   7.998   1.896   5.985  0.2062  0.0096 -0.0014
  534MOL0     H72026   7.916   1.930   6.132  0.5809 -0.9409  1.4678
  534MOL0     H72027   8.166   1.772   6.093  0.1310 -0.5950  0.6724
  534MOL0     H72028   8.170   1.929   6.161  0.0227  0.8518  0.1883
  534MOL0     H72029   8.002   1.855   6.329  0.0629 -1.3170  3.2169
  534MOL0     H72030   8.055   1.690   6.304  1.4030  0.5413  1.6991
  534MOL0     H72031   8.295   1.779   6.337 -1.6073  0.3629 -2.8298
  534MOL0     H72032   8.226   1.925   6.390  1.5003 -0.5092 -4.6617
  534MOL0     H72033   8.110   1.842   6.579 -2.6921 -2.7981  2.2425
  534MOL0     H72034   8.129   1.677   6.538 -1.4896  1.3105  6.8545
  534MOL0     H72035   8.397   1.713   6.554  0.6109  1.8828 -1.0815
  534MOL0     H72036   8.369   1.873   6.588  1.0347 -0.2273  2.1664
  534MOL0     H72037   8.249   1.834   6.797 -0.1139  0.5107 -2.4964
  534MOL0     H72038   8.263   1.656   6.773 -3.4479  1.8453 -1.4374
  534MOL0     H72039   8.417   1.706   6.942  1.9500  0.4031  1.5211
  534MOL0     H72040   8.457   1.858   6.883  0.0587 -1.0012  1.8819
  534MOL0     H72041   8.494   1.476   6.736  1.0426 -0.9523 -2.0285
  534MOL0     H72042   8.641   1.375   6.577 -2.8774  1.7571 -2.8062
  534MOL0     H72043   8.654   1.495   6.453  0.7383  0.8263 -0.5725
  534MOL0     H72044   8.901   1.440   6.610 -1.0936  1.1701  0.7519
  534MOL0     H72045   8.877   1.520   6.456  0.4730 -1.9424 -1.5655
  534MOL0     H72046   8.811   1.233   6.473 -0.0476 -1.8630 -0.2676
  534MOL0     H72047   8.976   1.279   6.504 -0.2575  1.4372  0.8054
  534MOL0     H72048   8.950   1.416   6.270 -2.4713  1.3188  1.2379
  534MOL0     H72049   8.800   1.319   6.259  0.6513 -0.0456 -2.7062
  534MOL0     H72050   8.889   1.415   6.076  2.5776  1.8932  0.9394
  534MOL0     H72051   8.877   1.449   5.738 -0.7812 -0.6009  0.6978
  534MOL0     H72052   8.896   1.548   5.885  0.3447  0.8475 -0.5685
  534MOL0     H72053   9.026   1.547   5.775 -0.3596 -0.6326 -0.8920
  534MOL0     H72054   9.318   1.318   5.448  0.8825  0.2075 -1.5272
  534MOL0     H72055   9.336   1.245   5.219  0.0215  1.2794  0.3137
  534MOL0     H72056   9.162   1.098   5.089 -0.5028  1.7306 -2.6840
  534MOL0     H72057   9.279   1.087   4.958  1.9616 -0.1156  0.4761
  534MOL0     H72058   9.205   0.865   4.910 -0.6311  3.8027 -0.9638
  534MOL0     H72059   9.174   0.827   5.068  2.1320 -1.9486 -3.2313
  534MOL0     H72060   9.023   0.979   4.846  1.8313  0.3002 -0.2054
  534MOL0     H72061   8.937   0.973   4.999 -2.0274  1.5611 -2.9580
  534MOL0     H72062   8.848   0.794   4.878 -0.6934  1.2190  0.7476
  534MOL0     H72063   9.010   0.759   4.807 -0.1006 -0.6162  0.2359
  534MOL0     H72064   9.083   0.632   5.004  0.5658 -0.1935 -0.0331
  534MOL0     H72065   8.933   0.571   4.970  1.4592  0.6561 -0.6242
  534MOL0     H72066   8.970   0.789   5.167 -1.2119  1.6534 -1.9818
  534MOL0     H72067   8.817   0.709   5.132 -0.1438 -1.9583 -0.4610
  534MOL0     H72068   9.038   0.532   5.202  0.1539  0.5881 -1.9969
  534MOL0     H72069   8.866   0.509   5.228  0.1285 -1.2721  0.1847
  534MOL0     H72070   8.905   0.693   5.418 -1.4928 -0.1503 -2.1775
  534MOL0     H72071   9.074   0.656   5.383 -0.6709  0.3972  0.3929
  534MOL0     H72072   9.260   0.842   5.353 -0.2172  1.7476 -1.3164
  534MOL0     H72073   9.201   0.940   5.581 -2.0242  1.7519  0.6347
  534MOL0     H72074   9.211   1.093   5.890 -1.4125 -1.0221 -1.4871
  534MOL0     H72075   9.098   1.056   6.103 -3.5572 -1.6767 -0.2560
  534MOL0     H72076   7.747   1.541   5.994  0.5742  1.8495  3.1251
  534MOL0     H72077   7.571   1.552   5.831 -0.8452  0.5562 -0.8663
  534MOL0     H72078   7.296   1.539   5.475 -2.1849 -1.1964  0.8085
  534MOL0     H72079   7.100   1.589   5.312 -1.5165  0.0935  0.4355
  534MOL0     H72080   7.104   1.869   5.129 -1.2134  2.1156 -0.3803
  534MOL0     H72081   7.065   1.701   5.138  0.4009  0.6781 -3.2920
  534MOL0     H72082   6.813   1.864   5.149  0.1526  0.4305 -0.4651
  534MOL0     H72083   6.852   1.737   5.033  1.9512  1.8868 -0.8839
  534MOL0     H72084   7.008   1.895   4.911 -1.6224 -1.0147 -2.6495
  534MOL0     H72085   6.964   2.014   5.030 -2.1062  1.0358 -0.0166
  534MOL0     H72086   6.837   2.042   4.812 -1.9016 -1.8455 -1.8309
  534MOL0     H72087   6.719   2.000   4.945 -2.1722 -0.4136 -2.1606
  534MOL0     H72088   6.671   1.723   4.649  1.3912  1.4708 -2.4477
  534MOL0     H72089   7.076   1.989   5.481  1.0180  0.7211 -1.8406
  534MOL0     H72090   7.241   1.931   5.654 -1.9636  0.3241  1.1501
  535MOL0     O72091   4.920   4.589   4.045 -0.5180  0.4540  0.0467
  535MOL0     C72092   5.033   4.627   4.027 -0.7137  0.2344 -0.1647
  535MOL0     O72093   5.152   4.576   4.082 -0.6627  0.4167 -0.3297
  535MOL0     C72094   5.160   4.463   4.166 -0.1411 -0.9141 -0.4130
  535MOL0     C72095   5.258   4.462   4.272  0.7594 -0.3285 -0.4162
  535MOL0     C72096   5.272   4.348   4.363 -1.1879  0.3118  0.7198
  535MOL0     C72097   5.176   4.252   4.362  0.5189 -0.2577 -0.8275
  535MOL0     O72098   5.183   4.170   4.472  0.6267  1.1277 -0.0563
  535MOL0     C72099   5.076   4.064   4.493 -0.2247  0.8341  0.3200
  535MOL0     C72100   5.012   4.103   4.632  0.7235 -0.3183  0.1907
  535MOL0     C72101   5.111   4.077   4.748  0.2068 -0.1560  0.6915
  535MOL0     C72102   5.207   4.185   4.782 -0.1781  0.6734 -0.5655
  535MOL0     C72103   5.286   4.145   4.911  0.3852 -0.3761 -0.6033
  535MOL0     C72104   5.397   4.251   4.947  0.2555 -0.6362  0.0250
  535MOL0     C72105   5.425   4.219   5.102  0.9222 -0.7223  0.6494
  535MOL0     C72106   5.548   4.285   5.163  0.0045  0.2096  0.3840
  535MOL0     N72107   5.674   4.230   5.103 -0.7402 -0.5816 -0.2816
  535MOL0     C72108   5.745   4.300   5.006 -0.1040  0.6136 -0.3878
  535MOL0     C72109   5.853   4.227   4.985  0.2113  0.5080 -0.1020
  535MOL0     C72110   5.943   4.267   4.879 -0.2929 -0.2590 -0.4574
  535MOL0     C72111   6.091   4.256   4.928  0.7935 -0.2853 -1.2305
  535MOL0     C72112   6.190   4.265   4.810  0.1637  0.3729  0.6140
  535MOL0     C72113   6.339   4.274   4.837 -0.1166  0.6333 -0.6155
  535MOL0     O72114   6.367   4.404   4.890 -0.6645  0.4601  0.0904
  535MOL0     C72115   6.405   4.498   4.794  0.2669 -0.2948 -0.4525
  535MOL0     C72116   6.323   4.615   4.794  0.1840 -0.3663 -0.3446
  535MOL0     C72117   6.340   4.716   4.693 -0.1885  1.0599  0.8825
  535MOL0     C72118   6.241   4.831   4.689  0.4485  0.1934  0.1951
  535MOL0     C72119   6.435   4.701   4.583  0.1111  0.9494 -0.2255
  535MOL0     C72120   6.442   4.787   4.467 -0.2168 -0.9804  1.1157
  535MOL0     O72121   6.520   4.744   4.369 -0.1320  0.8167 -0.3565
  535MOL0     C72122   6.563   4.821   4.266  0.9350  0.3029  1.5172
  535MOL0     C72123   6.596   4.955   4.280  0.7834 -0.9396 -0.0000
  535MOL0     C72124   6.630   5.038   4.172 -1.3376 -0.5266  0.2501
  535MOL0     C72125   6.657   4.983   4.045 -0.7186 -0.5148 -0.2099
  535MOL0     O72126   6.696   5.059   3.938  0.3508 -0.5721 -1.0528
  535MOL0     C72127   6.805   5.149   3.955  0.0093 -0.4658 -0.0420
  535MOL0     C72128   6.837   5.228   3.827  0.4756  0.0907 -0.0545
  535MOL0     C72129   6.761   5.359   3.817 -0.6005  0.5860 -0.6179
  535MOL0     C72130   6.823   5.459   3.919  0.4355 -1.1189  0.2406
  535MOL0     C72131   6.756   5.599   3.903 -0.0728  0.4839 -0.7350
  535MOL0     C72132   6.602   5.595   3.937 -0.3036  0.6961 -0.2568
  535MOL0     C72133   6.543   5.736   3.946 -0.5890  0.6062 -1.1167
  535MOL0     C72134   6.529   5.803   3.814 -0.6966  0.0019 -0.6227
  535MOL0    Cl72135   6.436   5.710   3.705  0.1997  0.0532 -0.1054
  535MOL0     C72136   6.623   4.845   4.036 -0.0433  0.3076  0.9122
  535MOL0     C72137   6.588   4.768   4.138  0.5679  0.6654 -0.6752
  535MOL0     O72138   6.370   4.887   4.451 -1.4656 -0.1677 -0.2226
  535MOL0     C72139   6.517   4.582   4.594 -0.2293 -0.3769  1.4235
  535MOL0     C72140   6.507   4.492   4.700 -0.7190  0.0304  0.4545
  535MOL0     N72141   5.854   4.113   5.059  0.4807  0.3222 -0.4977
  535MOL0     N72142   5.743   4.114   5.141  0.1394  0.1909  0.7177
  535MOL0     C72143   5.075   4.257   4.260 -0.5011 -0.7171 -1.2906
  535MOL0     C72144   5.069   4.357   4.155  0.0881 -0.6648 -0.2887
  535MOL0     C72145   5.046   4.766   3.979  0.0446 -0.3255  0.1727
  535MOL0     C72146   5.145   4.851   4.023  0.3505  0.0984 -1.0823
  535MOL0     C72147   5.154   4.983   3.975 -0.3149 -0.4265 -0.1238
  535MOL0     C72148   5.068   5.033   3.886  0.7269 -0.0005 -0.1306
  535MOL0     O72149   5.099   5.166   3.857 -0.0464  0.0814  0.1080
  535MOL0     C72150   5.013   5.238   3.755 -0.9998 -0.2944  0.6612
  535MOL0     C72151   4.866   5.258   3.790  0.3685 -0.0585  0.7217
  535MOL0     C72152   4.856   5.348   3.921 -0.9214 -0.4434 -1.2828
  535MOL0     C72153   4.707   5.372   3.967 -0.6010 -0.8981  0.0761
  535MOL0     C72154   4.680   5.476   4.059  0.4046  0.3229 -0.3334
  535MOL0     C72155   4.647   5.573   4.130 -0.2520  0.6904 -0.3935
  535MOL0     C72156   4.961   4.946   3.836 -0.2454 -0.1357 -1.1637
  535MOL0     C72157   4.946   4.816   3.886 -0.1952  0.4780 -0.1192
  535MOL0     H72158   5.337   4.534   4.288  0.4104  0.3043 -1.4275
  535MOL0     H72159   5.349   4.329   4.436  1.1223  0.1689 -1.6297
  535MOL0     H72160   4.989   4.056   4.427  1.5070  1.2562 -2.1631
  535MOL0     H72161   5.130   3.969   4.493  0.1450  1.0376  1.0220
  535MOL0     H72162   4.968   4.203   4.624  0.6751 -0.4692 -1.9156
  535MOL0     H72163   4.926   4.044   4.664  0.0667  1.9260  3.0317
  535MOL0     H72164   5.062   4.045   4.840  2.5434  1.3319  2.5583
  535MOL0     H72165   5.168   3.989   4.716  1.2734  0.2840  1.3383
  535MOL0     H72166   5.273   4.194   4.695  1.4326 -1.2788  0.3646
  535MOL0     H72167   5.148   4.276   4.799  2.1695  2.1515  0.2714
  535MOL0     H72168   5.227   4.116   4.998  0.9958 -1.0121 -0.3954
  535MOL0     H72169   5.338   4.051   4.889  1.7007 -1.0837  4.4538
  535MOL0     H72170   5.489   4.236   4.890  0.9286 -0.6892  1.1006
  535MOL0     H72171   5.362   4.352   4.923  2.3733 -0.4847 -2.9573
  535MOL0     H72172   5.333   4.250   5.153  0.1251  1.1752 -1.7466
  535MOL0     H72173   5.439   4.111   5.113 -1.3907 -1.5626 -2.9247
  535MOL0     H72174   5.550   4.266   5.271  1.4534 -0.3444  0.2900
  535MOL0     H72175   5.530   4.391   5.148  0.7369  0.0276 -2.1611
  535MOL0     H72176   5.715   4.398   4.970  2.6852  0.3999 -3.8793
  535MOL0     H72177   5.927   4.219   4.782  2.6885  0.7954 -1.6085
  535MOL0     H72178   5.926   4.374   4.859 -2.5084 -0.0517  2.0832
  535MOL0     H72179   6.104   4.160   4.979  4.8306  0.1720 -1.0424
  535MOL0     H72180   6.126   4.337   4.993  4.5873  1.7162 -5.2698
  535MOL0     H72181   6.159   4.354   4.754  3.6831  1.9804  0.9973
  535MOL0     H72182   6.187   4.177   4.746  3.3088 -0.8509  1.9482
  535MOL0     H72183   6.389   4.256   4.742  0.6647  4.2047 -1.0108
  535MOL0     H72184   6.384   4.204   4.908  1.7904  1.3362 -1.0698
  535MOL0     H72185   6.257   4.631   4.878  0.5710  1.1659 -0.2930
  535MOL0     H72186   6.284   4.929   4.711 -2.5591  1.6028  0.2918
  535MOL0     H72187   6.182   4.838   4.596  0.7486  0.0296 -0.0103
  535MOL0     H72188   6.156   4.807   4.753 -0.4296  1.6064 -0.3855
  535MOL0     H72189   6.565   5.024   4.357  0.3618 -1.1051 -0.0192
  535MOL0     H72190   6.638   5.144   4.191 -0.4793 -0.1464 -1.9332
  535MOL0     H72191   6.802   5.223   4.036  1.3215  1.7806 -1.9326
  535MOL0     H72192   6.893   5.085   3.963 -0.0441 -0.5959 -0.4512
  535MOL0     H72193   6.943   5.251   3.814  0.4812 -0.9249 -2.1179
  535MOL0     H72194   6.805   5.169   3.741 -2.0416  3.6670 -1.8441
  535MOL0     H72195   6.657   5.344   3.848 -0.2046 -1.9025 -0.3000
  535MOL0     H72196   6.763   5.394   3.713  0.1761 -0.7169 -1.0648
  535MOL0     H72197   6.821   5.420   4.022 -2.1309 -0.5546  0.4749
  535MOL0     H72198   6.930   5.460   3.899  0.4651  0.7815  0.3226
  535MOL0     H72199   6.778   5.636   3.803  2.5734  0.5040 -0.2311
  535MOL0     H72200   6.799   5.667   3.977 -0.2799  1.0324 -1.1173
  535MOL0     H72201   6.536   5.536   3.873 -1.9975  2.7782 -0.5549
  535MOL0     H72202   6.587   5.552   4.037 -1.0354  1.2332 -0.1298
  535MOL0     H72203   6.611   5.802   4.000 -1.9841  1.6794 -0.5944
  535MOL0     H72204   6.445   5.728   3.994 -0.6634  0.5276 -1.2805
  535MOL0     H72205   6.630   5.816   3.773 -0.2810 -3.6878 -1.0636
  535MOL0     H72206   6.477   5.897   3.839  0.8179  0.4124  1.2658
  535MOL0     H72207   6.622   4.805   3.935 -2.1467  0.3871  0.8630
  535MOL0     H72208   6.569   4.661   4.130 -0.3933  0.0560  5.2641
  535MOL0     H72209   6.583   4.547   4.516 -0.3732  2.2209  0.0001
  535MOL0     H72210   6.556   4.395   4.699 -3.5287 -1.4989  0.8741
  535MOL0     H72211   4.991   4.190   4.273  1.0357 -2.2859  1.6344
  535MOL0     H72212   4.988   4.359   4.083  0.8098 -0.4554 -1.1033
  535MOL0     H72213   5.199   4.815   4.110  0.5336 -2.6106 -2.2256
  535MOL0     H72214   5.234   5.049   4.007 -2.6280  2.2263  0.5883
  535MOL0     H72215   5.059   5.336   3.747  1.8523 -1.4988  0.8918
  535MOL0     H72216   5.027   5.175   3.667 -0.1310  0.6606  0.1040
  535MOL0     H72217   4.804   5.168   3.798 -0.4335  0.1347 -2.1650
  535MOL0     H72218   4.814   5.318   3.714  0.9487 -0.8852 -0.3565
  535MOL0     H72219   4.912   5.441   3.913 -0.4078 -0.6488 -0.2864
  535MOL0     H72220   4.905   5.304   4.009 -1.7439  1.7577  0.3590
  535MOL0     H72221   4.673   5.280   4.016 -2.3719  0.7068  2.0944
  535MOL0     H72222   4.648   5.384   3.876  2.0456  0.4803 -1.5704
  535MOL0     H72223   4.623   5.668   4.173 -3.1535 -0.0917 -0.1068
  535MOL0     H72224   4.885   4.989   3.772 -2.8334 -2.0446  0.4389
  535MOL0     H72225   4.860   4.756   3.859  0.5885 -1.6819  1.8017
  536MOL0     O72226  10.769   1.717  10.964 -0.3715  0.6827  0.8613
  536MOL0     C72227  10.889   1.727  10.966 -0.9253  0.0911 -0.2418
  536MOL0     O72228  10.976   1.742  10.862  0.0993 -0.6091  0.6727
  536MOL0     C72229  10.926   1.719  10.731  0.2936 -0.5059  0.3305
  536MOL0     C72230  11.020   1.670  10.643 -0.5418 -0.8231  0.4478
  536MOL0     C72231  10.986   1.638  10.513 -0.1575 -0.6156  0.0430
  536MOL0     C72232  10.852   1.660  10.463 -0.5369  0.3431  0.0155
  536MOL0     O72233  10.821   1.609  10.340 -0.4547  0.3194 -0.3751
  536MOL0     C72234  10.782   1.714  10.250 -0.4964 -0.6687  0.4530
  536MOL0     C72235  10.798   1.663  10.107  0.7477 -0.0183  0.4445
  536MOL0     C72236  10.734   1.761  10.005 -0.2567 -0.5208 -0.1406
  536MOL0     C72237  10.813   1.776   9.874 -0.4754 -0.6627 -0.4065
  536MOL0     C72238  10.749   1.887   9.783 -0.3888 -0.1276 -0.3206
  536MOL0     C72239  10.755   2.033   9.841 -0.5376  0.4511 -0.3713
  536MOL0     C72240  10.713   2.121   9.724 -1.0704  0.4305  0.1814
  536MOL0     C72241  10.682   2.262   9.773 -0.4850 -0.0907 -0.0233
  536MOL0     N72242  10.807   2.322   9.834 -1.0341 -0.4481  0.2842
  536MOL0     C72243  10.836   2.342   9.968  0.5691  0.2029 -0.6276
  536MOL0     C72244  10.949   2.427   9.962  1.0312  0.7932 -0.4494
  536MOL0     C72245  10.990   2.520  10.069  0.8872  0.6280  0.3243
  536MOL0     C72246  10.950   2.663  10.052 -0.3050 -1.3537  0.4417
  536MOL0     C72247  10.936   2.740  10.186 -0.7240 -1.5782 -0.0518
  536MOL0     C72248  10.836   2.860  10.183 -0.3292  0.6705  0.6329
  536MOL0     O72249  10.831   2.944  10.293  0.0671  0.7659  0.1581
  536MOL0     C72250  10.817   3.074  10.275 -0.3133  0.0542 -0.6269
  536MOL0     C72251  10.790   3.145  10.155 -0.1693  1.1121 -0.4272
  536MOL0     C72252  10.754   3.280  10.148  0.4918  0.1775  0.2112
  536MOL0     C72253  10.726   3.331  10.013  0.4655  1.1460  0.8450
  536MOL0     C72254  10.760   3.353  10.264  0.7036 -0.5049 -0.3444
  536MOL0     C72255  10.741   3.502  10.270 -0.4882  0.6428 -0.2127
  536MOL0     O72256  10.714   3.548  10.395  0.2728 -0.7219 -0.5552
  536MOL0     C72257  10.713   3.681  10.435 -0.9980  0.0431  0.0818
  536MOL0     C72258  10.658   3.777  10.356  0.0558 -0.3123 -0.4620
  536MOL0     C72259  10.656   3.913  10.400  0.7517 -0.4217  0.3719
  536MOL0     C72260  10.711   3.944  10.525  1.3608 -0.3580  0.3346
  536MOL0     O72261  10.727   4.073  10.570 -0.1728  0.8123  0.7265
  536MOL0     C72262  10.612   4.146  10.609  0.5943  0.0383 -0.8226
  536MOL0     C72263  10.619   4.208  10.751 -0.6483 -0.2659 -0.5129
  536MOL0     C72264  10.679   4.114  10.859 -0.9576  0.0598 -0.0579
  536MOL0     C72265  10.650   4.160  11.003 -0.5851 -0.2314  0.4306
  536MOL0     C72266  10.704   4.072  11.113 -0.6166 -1.0788  0.0889
  536MOL0     C72267  10.680   4.140  11.250  0.0696 -0.2230  0.3936
  536MOL0     C72268  10.533   4.173  11.276 -0.0406  0.3018 -1.3128
  536MOL0     C72269  10.502   4.243  11.411 -0.0881  0.0902  0.4913
  536MOL0    Cl72270  10.565   4.416  11.397  0.0082 -0.0551  0.1814
  536MOL0     C72271  10.768   3.845  10.608 -0.3015 -0.5592  0.8109
  536MOL0     C72272  10.766   3.716  10.563  0.3844 -0.2179  0.1222
  536MOL0     O72273  10.762   3.568  10.167  0.2501 -0.4810  0.1695
  536MOL0     C72274  10.788   3.290  10.387  0.0082 -0.1000  0.0103
  536MOL0     C72275  10.826   3.161  10.393 -0.6485  0.1381  0.7744
  536MOL0     N72276  11.000   2.428   9.838  0.0290  0.2245 -0.3758
  536MOL0     N72277  10.915   2.375   9.759  0.2362 -0.3012  0.2872
  536MOL0     C72278  10.754   1.702  10.552  0.2810  0.4723 -0.7606
  536MOL0     C72279  10.796   1.741  10.683  0.2462 -0.0881  0.7053
  536MOL0     C72280  10.960   1.737  11.096 -0.4276  0.4746  0.8200
  536MOL0     C72281  11.095   1.786  11.110  0.1938 -0.3989  0.3008
  536MOL0     C72282  11.164   1.775  11.228  0.6376 -0.6180 -0.5238
  536MOL0     C72283  11.101   1.725  11.342  0.1968 -0.4858 -0.1115
  536MOL0     O72284  11.166   1.736  11.466 -0.1465  0.4423  0.1697
  536MOL0     C72285  11.159   1.628  11.561  0.7035 -0.0316 -0.9745
  536MOL0     C72286  11.292   1.571  11.612  0.4672 -0.8089 -0.1994
  536MOL0     C72287  11.281   1.505  11.749  0.5296  0.7545  0.5345
  536MOL0     C72288  11.190   1.384  11.732  0.0898  0.6908  0.0071
  536MOL0     C72289  11.164   1.316  11.863  0.4498  0.0391  0.5510
  536MOL0     C72290  11.114   1.269  11.960 -0.2053  0.8714  0.0370
  536MOL0     C72291  10.972   1.678  11.330 -0.2820 -0.0729 -0.8138
  536MOL0     C72292  10.904   1.675  11.209  0.0892 -0.0928 -0.4573
  536MOL0     H72293  11.120   1.655  10.683  0.4820  0.5028 -1.4770
  536MOL0     H72294  11.053   1.580  10.451  1.0033  1.3495 -0.6257
  536MOL0     H72295  10.687   1.760  10.279 -0.4993 -1.3618  1.5941
  536MOL0     H72296  10.851   1.799  10.251 -1.7496  1.0055 -6.1532
  536MOL0     H72297  10.904   1.657  10.081  0.3396  0.6766 -1.5810
  536MOL0     H72298  10.756   1.562  10.096 -1.3939  0.9438 -0.9226
  536MOL0     H72299  10.642   1.712   9.972 -0.2336 -0.8927  0.3342
  536MOL0     H72300  10.715   1.856  10.055  0.6771 -1.6774  2.6095
  536MOL0     H72301  10.912   1.789   9.918  0.0513 -1.7541 -1.2107
  536MOL0     H72302  10.813   1.682   9.819 -0.1962 -0.2070 -1.2048
  536MOL0     H72303  10.812   1.895   9.694  0.7019 -0.0984  0.4359
  536MOL0     H72304  10.650   1.854   9.751 -0.1661  0.2737 -1.4434
  536MOL0     H72305  10.679   2.037   9.920  1.4543  1.7638  1.5913
  536MOL0     H72306  10.858   2.049   9.875 -1.1076  1.0039  1.1894
  536MOL0     H72307  10.786   2.138   9.644 -3.0594 -2.5133 -2.5426
  536MOL0     H72308  10.628   2.078   9.670 -0.0747  1.0015 -1.9685
  536MOL0     H72309  10.598   2.259   9.842  0.3466 -3.5476  1.0477
  536MOL0     H72310  10.636   2.327   9.698 -3.2214  0.5933  2.1243
  536MOL0     H72311  10.780   2.332  10.060  2.6923  0.6315  0.7879
  536MOL0     H72312  10.936   2.487  10.158 -2.1862  2.6297 -0.6224
  536MOL0     H72313  11.096   2.513  10.094  0.4317  1.0656  2.5796
  536MOL0     H72314  10.851   2.670  10.006 -0.1655  0.2117  0.3163
  536MOL0     H72315  11.018   2.734  10.002 -0.6976  0.6465  2.5967
  536MOL0     H72316  11.033   2.782  10.214 -3.3273  3.2872  3.1674
  536MOL0     H72317  10.904   2.671  10.265  3.8782 -0.5298  3.1266
  536MOL0     H72318  10.738   2.821  10.151  0.5358 -0.2355 -1.0552
  536MOL0     H72319  10.882   2.921  10.104 -3.5394  2.8463  0.2400
  536MOL0     H72320  10.804   3.092  10.062 -2.2691 -0.7402  0.2197
  536MOL0     H72321  10.797   3.399   9.965 -0.2658  0.1661 -1.8057
  536MOL0     H72322  10.695   3.243   9.956 -1.6797  0.1532  3.2797
  536MOL0     H72323  10.635   3.389  10.033  0.1625  0.0517  3.0668
  536MOL0     H72324  10.611   3.744  10.264 -1.0782  1.4308 -0.5627
  536MOL0     H72325  10.626   3.990  10.330  2.7340 -1.3951 -1.6757
  536MOL0     H72326  10.597   4.219  10.529 -1.1812 -1.4934 -1.9548
  536MOL0     H72327  10.514   4.098  10.612 -1.6113  4.1073  2.9659
  536MOL0     H72328  10.679   4.300  10.750 -1.3997  0.5229  3.8103
  536MOL0     H72329  10.525   4.260  10.770  1.3788  4.1063 -1.2211
  536MOL0     H72330  10.788   4.101  10.853 -0.8059  1.0669  0.3930
  536MOL0     H72331  10.633   4.015  10.859  0.0131 -0.4978  2.7314
  536MOL0     H72332  10.691   4.262  11.003 -1.4632  0.2918 -3.8054
  536MOL0     H72333  10.542   4.168  11.020 -0.9090 -0.9798 -1.1629
  536MOL0     H72334  10.812   4.070  11.095 -0.5573 -0.7408  0.3891
  536MOL0     H72335  10.662   3.972  11.117 -2.1258 -0.4710  0.2131
  536MOL0     H72336  10.722   4.076  11.327 -0.7687 -1.3415 -0.0578
  536MOL0     H72337  10.727   4.239  11.250  0.7013 -0.5048 -0.7243
  536MOL0     H72338  10.485   4.075  11.270  0.2793  0.2309 -3.5196
  536MOL0     H72339  10.494   4.241  11.199  0.6761 -0.7820 -2.6762
  536MOL0     H72340  10.542   4.187  11.496 -0.0744  1.0272  1.1140
  536MOL0     H72341  10.398   4.266  11.436  0.4290  1.7544  1.2217
  536MOL0     H72342  10.790   3.871  10.711  0.8897  0.8726  0.2427
  536MOL0     H72343  10.820   3.645  10.624  0.2295  0.1933  0.7518
  536MOL0     H72344  10.783   3.344  10.481 -1.0493 -0.9748  0.4689
  536MOL0     H72345  10.849   3.113  10.487  1.6231 -0.1956  0.1154
  536MOL0     H72346  10.653   1.717  10.514 -0.3132  0.1391  0.6197
  536MOL0     H72347  10.730   1.792  10.751 -0.7101  0.5438 -0.6571
  536MOL0     H72348  11.140   1.845  11.030 -0.4457  1.0577  0.9850
  536MOL0     H72349  11.261   1.825  11.219  0.6313 -0.8802 -2.3633
  536MOL0     H72350  11.109   1.675  11.646 -0.6545 -4.0506  0.7107
  536MOL0     H72351  11.095   1.541  11.540 -1.2389  1.0415  0.1599
  536MOL0     H72352  11.356   1.660  11.618 -1.1579  0.4856 -1.3538
  536MOL0     H72353  11.330   1.491  11.547 -0.9374 -0.5355 -1.3855
  536MOL0     H72354  11.241   1.568  11.829  1.5680  0.1668  1.5494
  536MOL0     H72355  11.378   1.462  11.777 -0.5110 -1.1402  1.5086
  536MOL0     H72356  11.220   1.310  11.656  1.8156 -1.1886  2.3529
  536MOL0     H72357  11.087   1.415  11.714  0.1121  1.9137  1.7586
  536MOL0     H72358  11.066   1.246  12.053  2.3141 -1.1979  0.9573
  536MOL0     H72359  10.934   1.643  11.425  2.5029 -0.6747  0.1510
  536MOL0     H72360  10.801   1.642  11.215  0.8671 -2.4195  2.8230
  537MOL0     O72361   1.313   6.971   9.727  0.3209 -0.2707 -0.1124
  537MOL0     C72362   1.200   6.975   9.679  1.0787 -0.9789 -0.2678
  537MOL0     O72363   1.111   7.080   9.689 -0.3312  0.2461  0.0108
  537MOL0     C72364   1.162   7.187   9.755  0.1601 -0.1647 -0.3092
  537MOL0     C72365   1.173   7.200   9.892  0.0746  0.2028 -0.3751
  537MOL0     C72366   1.207   7.329   9.939 -0.6139 -0.2660 -0.1005
  537MOL0     C72367   1.238   7.431   9.856  0.3126  0.5078  0.5925
  537MOL0     O72368   1.290   7.557   9.886 -0.1288 -0.3795 -0.0987
  537MOL0     C72369   1.377   7.570  10.005  0.7757 -0.2605  0.2549
  537MOL0     C72370   1.447   7.701   9.986  1.4796  0.3443 -0.5771
  537MOL0     C72371   1.532   7.685   9.862  0.6723 -0.3949  0.0810
  537MOL0     C72372   1.633   7.800   9.839 -0.9908  0.1929  1.5548
  537MOL0     C72373   1.563   7.921   9.789  0.4041  0.6388  0.4747
  537MOL0     C72374   1.544   8.019   9.898  0.0602 -0.6786  0.0167
  537MOL0     C72375   1.482   8.146   9.827  0.2616 -0.1436 -0.3444
  537MOL0     C72376   1.450   8.259   9.923  0.2642  0.9521 -0.6194
  537MOL0     N72377   1.352   8.222  10.031 -0.2983  0.5774  0.4721
  537MOL0     C72378   1.362   8.270  10.159  0.8765  0.3273  0.4609
  537MOL0     C72379   1.258   8.219  10.229  0.4627 -0.7581 -0.6557
  537MOL0     C72380   1.215   8.232  10.371  0.0568 -0.3329 -0.3257
  537MOL0     C72381   1.086   8.316  10.382  0.9830  0.2276 -0.0727
  537MOL0     C72382   1.034   8.320  10.531 -0.1401 -0.5066 -0.4230
  537MOL0     C72383   1.121   8.413  10.621  0.1806  0.2345  0.3149
  537MOL0     O72384   1.240   8.351  10.665  0.0025  0.1333  0.7994
  537MOL0     C72385   1.299   8.398  10.782 -0.2484  0.4552  0.1002
  537MOL0     C72386   1.276   8.524  10.846  0.2447  0.5854 -0.4305
  537MOL0     C72387   1.340   8.566  10.970  0.4617 -0.0482  0.7454
  537MOL0     C72388   1.294   8.699  11.030  0.5600 -0.4236 -0.4256
  537MOL0     C72389   1.422   8.473  11.028 -1.0629  0.9306  0.5241
  537MOL0     C72390   1.471   8.488  11.169 -0.2296  0.6460 -0.1708
  537MOL0     O72391   1.583   8.416  11.194  0.5918  0.6743 -0.0759
  537MOL0     C72392   1.627   8.421  11.320  0.4928  0.2751 -0.0218
  537MOL0     C72393   1.726   8.510  11.343 -0.5313  0.1053 -0.0964
  537MOL0     C72394   1.809   8.511  11.461  0.3969 -0.5901  0.1596
  537MOL0     C72395   1.768   8.428  11.562 -0.2463  0.2445 -0.7447
  537MOL0     O72396   1.837   8.442  11.677  0.7233  0.3925  0.1692
  537MOL0     C72397   1.769   8.441  11.798 -0.1678  0.9065  0.6965
  537MOL0     C72398   1.777   8.312  11.869  0.1882 -0.3802 -0.9870
  537MOL0     C72399   1.800   8.332  12.019 -0.5173 -0.4045 -0.0125
  537MOL0     C72400   1.767   8.198  12.097 -0.3044 -0.1495 -0.1745
  537MOL0     C72401   1.822   8.195  12.239 -0.0973 -0.2848  0.2133
  537MOL0     C72402   1.951   8.277  12.263 -0.5165 -1.2367  1.0833
  537MOL0     C72403   2.025   8.219  12.382  0.2584 -0.8239  0.1955
  537MOL0     C72404   2.133   8.328  12.422 -0.7291  0.7707 -0.5421
  537MOL0    Cl72405   2.212   8.242  12.556  0.3911  0.2542 -0.4809
  537MOL0     C72406   1.668   8.332  11.551 -0.6203  0.1237 -0.5510
  537MOL0     C72407   1.601   8.327  11.425 -0.1870 -0.4126  0.2570
  537MOL0     O72408   1.399   8.548  11.250 -0.1926  0.3846  0.6043
  537MOL0     C72409   1.461   8.349  10.967  0.6799 -0.4488  0.6876
  537MOL0     C72410   1.397   8.308  10.840  0.3620 -0.6853  0.0429
  537MOL0     N72411   1.196   8.141  10.141 -0.1526  0.5748 -0.2715
  537MOL0     N72412   1.248   8.136  10.023  0.3957 -0.0500 -0.3417
  537MOL0     C72413   1.228   7.416   9.723  0.1171  1.1176  0.7021
  537MOL0     C72414   1.182   7.294   9.664 -0.2355 -0.0482  0.5080
  537MOL0     C72415   1.158   6.857   9.606  0.4125 -0.2599 -1.2403
  537MOL0     C72416   1.014   6.838   9.578 -0.6355  0.7978 -0.5244
  537MOL0     C72417   0.979   6.719   9.507  0.3579 -1.3006  0.4662
  537MOL0     C72418   1.073   6.627   9.449 -0.0944  0.4714 -0.3306
  537MOL0     O72419   1.050   6.502   9.384 -0.2910  0.4639  0.5263
  537MOL0     C72420   0.920   6.469   9.331  0.9538 -0.3639  0.7356
  537MOL0     C72421   0.925   6.353   9.222 -1.3849  1.2134 -0.3327
  537MOL0     C72422   1.004   6.234   9.278  1.0770 -0.3831  0.4163
  537MOL0     C72423   0.944   6.173   9.406  0.5017 -0.2158  0.2886
  537MOL0     C72424   0.836   6.078   9.373  0.3372 -0.4001 -0.1485
  537MOL0     C72425   0.749   5.999   9.337  0.0685 -0.4513  0.6396
  537MOL0     C72426   1.209   6.655   9.468  1.2184 -0.4033 -0.0559
  537MOL0     C72427   1.253   6.770   9.545  0.6548  0.1203  0.1968
  537MOL0     H72428   1.146   7.127   9.967 -2.0287  1.2223 -0.0794
  537MOL0     H72429   1.214   7.346  10.046 -2.2187  0.1878 -0.0484
  537MOL0     H72430   1.324   7.568  10.101 -0.7531 -0.0642 -0.5601
  537MOL0     H72431   1.446   7.485  10.009 -1.2390 -2.0056 -0.2002
  537MOL0     H72432   1.378   7.785   9.979 -3.1209 -2.8255  1.8289
  537MOL0     H72433   1.512   7.718  10.073  2.6807 -0.9479 -1.1705
  537MOL0     H72434   1.582   7.589   9.849 -0.4506 -1.0623  0.5367
  537MOL0     H72435   1.465   7.693   9.776 -1.4353  0.5811  1.6938
  537MOL0     H72436   1.698   7.807   9.927 -1.1866 -3.0535  2.0880
  537MOL0     H72437   1.707   7.772   9.762  1.1717  0.8864  3.2661
  537MOL0     H72438   1.626   7.965   9.711 -1.3542 -0.3335 -1.6167
  537MOL0     H72439   1.476   7.901   9.726  0.1295  3.1712 -0.0523
  537MOL0     H72440   1.481   7.983   9.979  1.3434 -0.2563  1.2501
  537MOL0     H72441   1.644   8.033   9.940  0.0474 -1.2956  0.2638
  537MOL0     H72442   1.561   8.183   9.761  1.2486  1.6133  1.7071
  537MOL0     H72443   1.394   8.117   9.768  1.4749  1.3785 -3.0507
  537MOL0     H72444   1.404   8.338   9.864 -1.5268 -0.8964 -1.8465
  537MOL0     H72445   1.537   8.288   9.982 -0.9364 -0.8008  2.2395
  537MOL0     H72446   1.436   8.340  10.197  1.2190  0.5101 -0.4919
  537MOL0     H72447   1.215   8.142  10.433 -0.3329 -0.5966 -0.6964
  537MOL0     H72448   1.305   8.280  10.410  1.0118 -2.7476  0.6151
  537MOL0     H72449   1.009   8.279  10.313 -1.3119  0.4172  2.2208
  537MOL0     H72450   1.109   8.417  10.348  3.2259  0.1206  0.9478
  537MOL0     H72451   1.031   8.221  10.577  0.8778 -1.3127 -1.9992
  537MOL0     H72452   0.931   8.357  10.528  0.2734  0.6557 -2.1869
  537MOL0     H72453   1.059   8.444  10.705 -1.1605 -0.5538 -0.3670
  537MOL0     H72454   1.145   8.509  10.574  3.2515  0.2684  1.6992
  537MOL0     H72455   1.209   8.592  10.795 -5.0488 -5.4636 -2.8931
  537MOL0     H72456   1.289   8.783  10.961 -1.3358  0.4688  0.7245
  537MOL0     H72457   1.199   8.679  11.080 -0.9230 -1.7074 -3.4899
  537MOL0     H72458   1.370   8.726  11.103  1.1996  0.8742 -1.5411
  537MOL0     H72459   1.757   8.582  11.267  2.8386 -2.6640 -1.6091
  537MOL0     H72460   1.872   8.599  11.457 -3.1621  2.1549 -2.6326
  537MOL0     H72461   1.800   8.527  11.858 -1.4979  1.5000  0.5718
  537MOL0     H72462   1.662   8.465  11.798 -0.3338  0.1870  1.2749
  537MOL0     H72463   1.676   8.268  11.870 -1.5509  3.2607 -1.0728
  537MOL0     H72464   1.852   8.243  11.829  1.0051  2.2022 -4.3442
  537MOL0     H72465   1.732   8.412  12.049  0.0990  0.7457 -1.5497
  537MOL0     H72466   1.897   8.377  12.042 -0.5528 -0.4083  0.1521
  537MOL0     H72467   1.666   8.163  12.077  0.2325 -1.5730 -0.5050
  537MOL0     H72468   1.826   8.120  12.048  1.4444  0.7457  0.4208
  537MOL0     H72469   1.834   8.092  12.271 -1.3271  0.6895  4.4422
  537MOL0     H72470   1.747   8.241  12.303 -1.8761  0.4556 -2.2451
  537MOL0     H72471   2.013   8.269  12.173 -1.0427 -3.3240  0.8415
  537MOL0     H72472   1.938   8.385  12.277 -0.4430 -1.0563 -0.0875
  537MOL0     H72473   2.057   8.120  12.347 -0.1335 -1.1827  0.8396
  537MOL0     H72474   1.954   8.210  12.465 -1.2629  4.9841 -0.0389
  537MOL0     H72475   2.105   8.422  12.472 -1.4305 -1.0465  2.7732
  537MOL0     H72476   2.208   8.326  12.343 -0.4344  0.6350 -0.2552
  537MOL0     H72477   1.637   8.265  11.631 -0.8936  1.5704  0.5955
  537MOL0     H72478   1.518   8.260  11.410 -0.8172  0.6293 -1.0751
  537MOL0     H72479   1.531   8.281  11.013  3.7938  1.3800 -1.0222
  537MOL0     H72480   1.423   8.217  10.788 -1.0906 -1.3364  0.3809
  537MOL0     H72481   1.251   7.502   9.660 -1.7617  1.2917  0.1878
  537MOL0     H72482   1.151   7.293   9.560  0.7767  0.6395  0.1791
  537MOL0     H72483   0.937   6.909   9.608  0.0332  2.1192 -1.8513
  537MOL0     H72484   0.877   6.684   9.509  0.2992 -1.2150 -0.6560
  537MOL0     H72485   0.841   6.452   9.405  2.5232 -1.4101  2.2435
  537MOL0     H72486   0.873   6.553   9.280  1.0190 -0.6962  0.1144
  537MOL0     H72487   0.971   6.386   9.129  4.1059 -0.8472  1.2543
  537MOL0     H72488   0.824   6.315   9.207 -1.5289  1.2264  0.5440
  537MOL0     H72489   1.106   6.266   9.298  0.2940  3.2282 -0.6294
  537MOL0     H72490   1.004   6.157   9.200 -1.5700  0.7606 -0.8652
  537MOL0     H72491   0.894   6.247   9.470 -1.3258 -1.6313  0.5997
  537MOL0     H72492   1.028   6.130   9.462  2.8151  0.7986 -2.1702
  537MOL0     H72493   0.676   5.922   9.324 -1.2278  0.8508 -0.0577
  537MOL0     H72494   1.287   6.590   9.429  1.5809 -0.2886  0.4735
  537MOL0     H72495   1.358   6.795   9.554  0.9506 -1.1532  0.5223
  538MOL0     O72496   4.292   5.079   6.474 -0.4288 -0.2010  0.2576
  538MOL0     C72497   4.270   5.197   6.492 -0.2457 -0.9692  0.4463
  538MOL0     O72498   4.344   5.283   6.568 -0.0017 -0.4471  0.0578
  538MOL0     C72499   4.430   5.238   6.661 -1.2567  0.2495 -0.6813
  538MOL0     C72500   4.407   5.118   6.729  1.1266  0.2193  0.1475
  538MOL0     C72501   4.497   5.076   6.827  0.5998  0.6301  0.4748
  538MOL0     C72502   4.598   5.171   6.870  0.2221 -0.3578  0.1524
  538MOL0     O72503   4.707   5.117   6.943 -0.1375  0.0654 -0.0855
  538MOL0     C72504   4.778   5.202   7.037  0.8129 -0.7470 -0.7602
  538MOL0     C72505   4.917   5.235   6.976 -0.7674 -0.6814  0.2090
  538MOL0     C72506   5.000   5.103   6.963 -0.5073 -0.8484 -0.9230
  538MOL0     C72507   5.146   5.113   6.891 -1.5805  0.8212  0.5592
  538MOL0     C72508   5.266   5.160   6.977 -0.2695 -0.0898  0.6831
  538MOL0     C72509   5.353   5.253   6.891  0.5703 -0.1487 -0.1018
  538MOL0     C72510   5.499   5.224   6.930  0.0502 -1.1802 -0.5068
  538MOL0     C72511   5.520   5.249   7.089 -0.2921  0.6916  0.6833
  538MOL0     N72512   5.672   5.236   7.118  0.1809 -0.5027 -0.0883
  538MOL0     C72513   5.727   5.164   7.216  0.5986 -0.4394  0.9566
  538MOL0     C72514   5.844   5.223   7.222 -0.1882  0.3129  0.3941
  538MOL0     C72515   5.959   5.197   7.313  0.1531 -0.4376  0.2009
  538MOL0     C72516   5.937   5.107   7.436  0.1756 -1.2880 -0.5782
  538MOL0     C72517   6.081   5.079   7.495  1.0071 -0.5286 -0.4687
  538MOL0     C72518   6.099   4.955   7.583 -0.3101 -0.9661 -0.2545
  538MOL0     O72519   6.242   4.938   7.618  0.4098  0.6811 -0.6415
  538MOL0     C72520   6.290   4.808   7.621 -1.1048  0.7928  0.1218
  538MOL0     C72521   6.215   4.705   7.680 -0.8765 -0.7133 -0.3073
  538MOL0     C72522   6.261   4.568   7.683 -0.0585 -0.5328 -0.5122
  538MOL0     C72523   6.153   4.467   7.733 -0.0352  0.8324  0.0816
  538MOL0     C72524   6.375   4.536   7.617 -0.4904  0.3039  0.4883
  538MOL0     C72525   6.441   4.402   7.608  0.0894  0.3441  1.1079
  538MOL0     O72526   6.395   4.298   7.696 -0.3611  0.8570  0.1784
  538MOL0     C72527   6.447   4.170   7.680 -1.0444 -0.8002  0.1915
  538MOL0     C72528   6.588   4.147   7.660 -0.0773 -0.2033 -0.1234
  538MOL0     C72529   6.634   4.023   7.641 -0.6951 -0.4891  0.7567
  538MOL0     C72530   6.549   3.909   7.634 -0.3045  0.2237 -0.0054
  538MOL0     O72531   6.615   3.795   7.633 -0.2879  0.3027 -0.9299
  538MOL0     C72532   6.561   3.683   7.571 -0.2362  0.7832 -0.4544
  538MOL0     C72533   6.628   3.554   7.582 -0.6799  0.0713  0.1039
  538MOL0     C72534   6.697   3.528   7.719  0.9612 -0.4302 -0.3113
  538MOL0     C72535   6.775   3.399   7.721  0.2939  0.6464  0.2753
  538MOL0     C72536   6.839   3.387   7.860  0.2643  0.3867 -0.2067
  538MOL0     C72537   6.889   3.249   7.887  0.4494 -0.3026 -0.2016
  538MOL0     C72538   6.959   3.261   8.020 -0.1227  0.1487  0.0730
  538MOL0     C72539   7.015   3.123   8.068  0.5780 -0.0290  0.1212
  538MOL0    Cl72540   7.173   3.096   7.981  0.3762  0.1261  0.2848
  538MOL0     C72541   6.416   3.929   7.647  0.6011 -0.0368 -0.0007
  538MOL0     C72542   6.365   4.058   7.673  0.1417  0.4073 -0.7395
  538MOL0     O72543   6.525   4.384   7.516  0.0687  0.2927  0.2455
  538MOL0     C72544   6.445   4.638   7.551 -0.2909 -0.9905 -0.3766
  538MOL0     C72545   6.401   4.772   7.541  0.5302 -0.4419  0.8598
  538MOL0     N72546   5.860   5.314   7.125  0.1845  0.5774 -0.4706
  538MOL0     N72547   5.750   5.321   7.065  0.1526 -0.4378  0.4351
  538MOL0     C72548   4.610   5.295   6.812 -0.6394 -0.5291 -0.6086
  538MOL0     C72549   4.524   5.332   6.711  0.3633 -0.1732  0.0344
  538MOL0     C72550   4.145   5.252   6.428  0.3418  0.0968  0.9050
  538MOL0     C72551   4.061   5.170   6.355  0.9998 -0.2572  0.5116
  538MOL0     C72552   3.938   5.217   6.291  0.0147 -0.2891  0.6498
  538MOL0     C72553   3.914   5.359   6.291  0.3046 -0.4441  0.2034
  538MOL0     O72554   3.813   5.409   6.221 -0.1765 -0.4738 -0.0110
  538MOL0     C72555   3.720   5.332   6.150 -0.9312  1.1730  0.9559
  538MOL0     C72556   3.617   5.255   6.235  0.4774 -0.1893 -0.8897
  538MOL0     C72557   3.524   5.346   6.324 -0.5361  0.7469  0.7017
  538MOL0     C72558   3.576   5.435   6.433 -0.1438 -0.4446 -0.2238
  538MOL0     C72559   3.469   5.506   6.495  0.2078 -0.2954 -0.6066
  538MOL0     C72560   3.374   5.550   6.562  0.0437 -0.3354  0.5923
  538MOL0     C72561   4.007   5.441   6.368  0.3158 -0.5303  0.2467
  538MOL0     C72562   4.116   5.388   6.429 -0.7234 -0.0179 -0.4724
  538MOL0     H72563   4.327   5.049   6.703  0.3188  1.1089  0.2410
  538MOL0     H72564   4.491   4.979   6.875 -0.4024 -0.3276 -1.4883
  538MOL0     H72565   4.718   5.286   7.070 -2.3299 -2.8193 -0.7701
  538MOL0     H72566   4.808   5.168   7.137  1.1967  0.6767 -0.3738
  538MOL0     H72567   4.894   5.273   6.876 -1.2839 -1.5038  0.0041
  538MOL0     H72568   4.978   5.299   7.041  1.5834  0.4280 -2.7957
  538MOL0     H72569   5.016   5.068   7.065 -3.0739 -0.1357 -0.2260
  538MOL0     H72570   4.935   5.033   6.909 -4.2114  1.0307  0.7892
  538MOL0     H72571   5.177   5.020   6.843  0.4469  2.0743 -0.7114
  538MOL0     H72572   5.133   5.188   6.812 -0.4496  1.2299  0.7503
  538MOL0     H72573   5.225   5.220   7.059 -1.5553  1.7182 -1.1669
  538MOL0     H72574   5.315   5.070   7.015 -3.5314 -2.4834 -0.2880
  538MOL0     H72575   5.326   5.246   6.785  1.0158  0.0039 -0.2313
  538MOL0     H72576   5.330   5.355   6.921  2.0155  0.7860 -1.9495
  538MOL0     H72577   5.527   5.126   6.890  0.5675 -1.5960  0.8176
  538MOL0     H72578   5.558   5.290   6.866 -0.6965 -0.1215 -0.1418
  538MOL0     H72579   5.475   5.166   7.144  2.4997 -2.5853 -1.5096
  538MOL0     H72580   5.493   5.350   7.119  1.0079  0.9345  1.1117
  538MOL0     H72581   5.686   5.081   7.273  1.3347 -1.8972 -0.5256
  538MOL0     H72582   6.025   5.140   7.247 -1.4848 -0.2482 -1.7030
  538MOL0     H72583   6.001   5.290   7.352 -2.1589  0.9713 -0.4737
  538MOL0     H72584   5.903   5.011   7.398 -1.6396 -0.8499 -0.1284
  538MOL0     H72585   5.870   5.141   7.515 -0.9840 -1.9013 -1.2678
  538MOL0     H72586   6.116   5.172   7.541  0.8170 -0.1072 -1.1635
  538MOL0     H72587   6.155   5.057   7.417  1.6195 -2.6790  0.6401
  538MOL0     H72588   6.061   4.873   7.521  0.7103 -0.7862 -1.1663
  538MOL0     H72589   6.040   4.955   7.675  3.1642  0.5275  2.1840
  538MOL0     H72590   6.124   4.741   7.727  0.2366  1.2831  0.4544
  538MOL0     H72591   6.057   4.507   7.768 -0.1310 -0.9749  2.0942
  538MOL0     H72592   6.129   4.394   7.655 -1.4525  0.0445  1.2028
  538MOL0     H72593   6.190   4.413   7.821  3.1180  1.4990 -0.7248
  538MOL0     H72594   6.655   4.229   7.640 -0.6664  0.6793  1.3634
  538MOL0     H72595   6.738   3.997   7.631 -1.0978 -1.4070 -1.6252
  538MOL0     H72596   6.457   3.662   7.595 -0.0674  0.2674 -0.1608
  538MOL0     H72597   6.571   3.715   7.467  0.2606 -1.2657 -1.0744
  538MOL0     H72598   6.572   3.462   7.564  0.3282 -0.7198  0.8595
  538MOL0     H72599   6.707   3.557   7.507  0.7684 -2.2498  1.4029
  538MOL0     H72600   6.614   3.524   7.790  0.4281 -1.6535 -0.9804
  538MOL0     H72601   6.764   3.607   7.755  0.7485 -0.6197  0.5350
  538MOL0     H72602   6.703   3.318   7.707  0.3369  0.4590  1.0856
  538MOL0     H72603   6.860   3.396   7.653  0.5941 -0.2649  0.6664
  538MOL0     H72604   6.760   3.418   7.929  1.2343  1.4403  0.4676
  538MOL0     H72605   6.923   3.457   7.862  1.7589 -1.1951 -2.2378
  538MOL0     H72606   6.824   3.161   7.897  1.2908 -0.7766  1.5693
  538MOL0     H72607   6.964   3.233   7.810  0.0418  3.4941 -1.5580
  538MOL0     H72608   6.896   3.292   8.105 -2.0283 -0.2584 -1.1342
  538MOL0     H72609   7.037   3.338   8.023  1.2086 -1.0470 -1.7783
  538MOL0     H72610   6.937   3.047   8.057  1.0848 -0.7428  1.2289
  538MOL0     H72611   7.034   3.128   8.176 -0.2353 -0.7908  0.3177
  538MOL0     H72612   6.340   3.852   7.632  1.9598 -1.3037 -0.5983
  538MOL0     H72613   6.258   4.075   7.676 -0.3932 -2.6793  1.1215
  538MOL0     H72614   6.541   4.614   7.507 -0.1301 -0.0175 -0.5790
  538MOL0     H72615   6.449   4.856   7.492 -1.7815 -0.0572 -0.9312
  538MOL0     H72616   4.687   5.361   6.851 -1.3501 -0.6619  1.0829
  538MOL0     H72617   4.519   5.431   6.667 -2.0575 -0.0835  0.3678
  538MOL0     H72618   4.085   5.067   6.330  0.2924  0.1168 -2.0262
  538MOL0     H72619   3.882   5.146   6.231 -2.5136  1.7097  0.4937
  538MOL0     H72620   3.658   5.405   6.098 -0.2600  1.3203  0.3641
  538MOL0     H72621   3.784   5.266   6.090  2.5069  2.5427  2.8358
  538MOL0     H72622   3.653   5.168   6.290  0.0319  0.4213  0.3928
  538MOL0     H72623   3.550   5.208   6.162 -2.0872  2.5059 -0.4689
  538MOL0     H72624   3.454   5.278   6.373 -2.4657  1.1601 -1.3381
  538MOL0     H72625   3.473   5.417   6.259 -0.6486  0.6311  0.6644
  538MOL0     H72626   3.651   5.507   6.399 -0.0910 -0.1055  0.5821
  538MOL0     H72627   3.621   5.364   6.504 -0.4563 -0.4886 -0.0702
  538MOL0     H72628   3.290   5.591   6.614  0.1599 -1.7634  1.9757
  538MOL0     H72629   3.980   5.546   6.371 -0.6378 -0.7741  0.3369
  538MOL0     H72630   4.182   5.453   6.485  1.2107 -0.9016 -1.6236
  539MOL0     O72631   9.449  10.381   3.704 -0.0098 -0.0587  0.9695
  539MOL0     C72632   9.415  10.494   3.740 -0.5054 -0.0838 -0.9073
  539MOL0     O72633   9.492  10.596   3.789  0.7244  0.7901 -0.8024
  539MOL0     C72634   9.621  10.554   3.813  0.0876 -0.9774 -1.2403
  539MOL0     C72635   9.709  10.533   3.705 -0.3266 -0.5315 -0.2077
  539MOL0     C72636   9.850  10.547   3.737 -0.7239 -0.0014 -0.3606
  539MOL0     C72637   9.901  10.556   3.868 -1.0427  0.3007 -0.3994
  539MOL0     O72638  10.034  10.553   3.896 -0.2750 -0.2896  0.0690
  539MOL0     C72639  10.137  10.505   3.811 -0.3032  0.1423  0.1905
  539MOL0     C72640  10.212  10.635   3.760  1.0613  0.1414 -0.0766
  539MOL0     C72641  10.263  10.624   3.620 -0.2703 -0.1393  0.0903
  539MOL0     C72642  10.176  10.700   3.518  0.4096 -0.5001 -0.1752
  539MOL0     C72643  10.248  10.714   3.382  0.4827 -0.0164  1.5671
  539MOL0     C72644  10.306  10.586   3.309 -0.4009 -0.0043  0.6307
  539MOL0     C72645  10.368  10.640   3.175  0.7032  0.4504 -0.6443
  539MOL0     C72646  10.500  10.717   3.182  0.0071 -0.6614  0.1980
  539MOL0     N72647  10.586  10.673   3.291  0.2298 -0.0415  0.0543
  539MOL0     C72648  10.669  10.564   3.290  0.0402  0.6003  0.4302
  539MOL0     C72649  10.750  10.575   3.398  0.6561  0.0843 -0.4457
  539MOL0     C72650  10.867  10.486   3.427 -0.1602 -0.2068 -0.7907
  539MOL0     C72651  10.871  10.342   3.367  0.2455 -0.3758  0.3880
  539MOL0     C72652  10.742  10.259   3.375 -0.4193 -0.4507  0.9889
  539MOL0     C72653  10.712  10.228   3.524  0.1632 -0.4223  0.1849
  539MOL0     O72654  10.805  10.134   3.576 -0.1797 -0.2426 -0.0527
  539MOL0     C72655  10.802  10.107   3.715 -0.0185  0.5716 -0.4983
  539MOL0     C72656  10.894  10.010   3.755 -0.1825 -0.7066 -0.6317
  539MOL0     C72657  10.905   9.976   3.887 -0.2166 -0.2672  0.3860
  539MOL0     C72658  11.020   9.884   3.927 -0.0527  0.4248 -0.0226
  539MOL0     C72659  10.821  10.036   3.984  0.3067  0.0863  0.3204
  539MOL0     C72660  10.826  10.001   4.128 -0.0995 -0.3226 -0.3434
  539MOL0     O72661  10.787  10.104   4.213  0.1812  0.7638  0.3807
  539MOL0     C72662  10.789  10.065   4.352  0.0836 -0.1420 -0.2906
  539MOL0     C72663  10.713   9.961   4.402  0.9108 -0.8066 -0.3222
  539MOL0     C72664  10.699   9.953   4.542  0.4264 -0.2723 -0.5619
  539MOL0     C72665  10.772  10.033   4.632  0.7167  0.4617 -0.0477
  539MOL0     O72666  10.772  10.008   4.771 -0.0434  0.2784 -0.3745
  539MOL0     C72667  10.678   9.922   4.836 -0.1862 -0.8070 -0.9691
  539MOL0     C72668  10.545   9.988   4.833  0.5410  0.3404 -0.3356
  539MOL0     C72669  10.532  10.132   4.876 -0.7634 -0.3477  0.4294
  539MOL0     C72670  10.406  10.145   4.960  0.1807 -0.2234 -0.4821
  539MOL0     C72671  10.367  10.296   4.970 -0.7386  0.2984 -0.0153
  539MOL0     C72672  10.239  10.327   5.054  0.4232 -0.1241  0.2756
  539MOL0     C72673  10.221  10.470   5.098 -0.5038  0.9626 -0.9475
  539MOL0     C72674  10.210  10.574   4.985  0.5149  0.7625 -0.6779
  539MOL0    Cl72675  10.049  10.572   4.907 -0.0179 -0.1519  0.2278
  539MOL0     C72676  10.852  10.129   4.576  0.7927 -0.1477  0.2124
  539MOL0     C72677  10.857  10.149   4.436  0.1608 -0.3520  0.0121
  539MOL0     O72678  10.873   9.886   4.166 -0.1944  0.7009 -0.2511
  539MOL0     C72679  10.721  10.129   3.942 -0.3301  0.3779 -0.1457
  539MOL0     C72680  10.717  10.174   3.811 -0.4027  0.1367 -0.3667
  539MOL0     N72681  10.711  10.684   3.480 -1.8181  0.4226 -0.2078
  539MOL0     N72682  10.617  10.740   3.408  0.3908 -1.5425 -0.5643
  539MOL0     C72683   9.810  10.572   3.971  0.5120 -0.1864  0.8096
  539MOL0     C72684   9.667  10.582   3.948  0.3674  0.0356 -0.1165
  539MOL0     C72685   9.279  10.535   3.731  0.4698 -0.0708 -0.3338
  539MOL0     C72686   9.186  10.478   3.642 -0.6379 -0.5121 -0.4779
  539MOL0     C72687   9.052  10.515   3.644 -0.0837 -0.2147 -0.2826
  539MOL0     C72688   9.007  10.614   3.734  0.0767  0.6302  0.6235
  539MOL0     O72689   8.877  10.662   3.737  0.0596  0.7458 -0.3047
  539MOL0     C72690   8.796  10.620   3.843 -0.0863 -0.7122 -0.0747
  539MOL0     C72691   8.668  10.552   3.790 -0.4010  0.3942 -0.0301
  539MOL0     C72692   8.693  10.430   3.704 -0.2013  0.0775 -0.3150
  539MOL0     C72693   8.567  10.356   3.658  0.4890  0.1786  0.6617
  539MOL0     C72694   8.485  10.301   3.767 -0.0466 -0.7352 -0.0667
  539MOL0     C72695   8.428  10.254   3.860 -0.0884  0.3400  0.1391
  539MOL0     C72696   9.099  10.679   3.815 -0.1128 -0.4376  0.0382
  539MOL0     C72697   9.230  10.637   3.814 -0.2872 -1.2692 -0.9506
  539MOL0     H72698   9.680  10.519   3.601 -0.2741  1.7607 -0.5873
  539MOL0     H72699   9.925  10.530   3.660  0.0290  0.1606  0.3166
  539MOL0     H72700  10.208  10.444   3.868 -0.7934 -1.2035 -0.5970
  539MOL0     H72701  10.095  10.448   3.728 -0.1721 -3.0013  2.0781
  539MOL0     H72702  10.137  10.714   3.770 -0.2415 -1.2937  2.6568
  539MOL0     H72703  10.295  10.656   3.828  1.1892 -1.0150  0.1379
  539MOL0     H72704  10.366  10.659   3.610 -1.4872  3.3288 -2.2690
  539MOL0     H72705  10.270  10.523   3.577 -1.1461  0.3989 -1.4076
  539MOL0     H72706  10.089  10.634   3.505  0.3954 -0.9705  1.9394
  539MOL0     H72707  10.152  10.800   3.556  2.0136  0.7410 -2.2324
  539MOL0     H72708  10.174  10.762   3.317  2.3040  4.1771  2.2722
  539MOL0     H72709  10.326  10.788   3.402 -0.3197  1.0121  1.0052
  539MOL0     H72710  10.381  10.530   3.367 -0.7807 -1.5821 -0.3362
  539MOL0     H72711  10.225  10.514   3.296 -0.3041 -0.2612  1.3917
  539MOL0     H72712  10.403  10.549   3.125 -0.9457  0.5439 -2.0660
  539MOL0     H72713  10.295  10.686   3.108  0.6583 -0.6812 -1.3984
  539MOL0     H72714  10.482  10.825   3.189 -2.0171 -1.0631  2.6706
  539MOL0     H72715  10.557  10.698   3.091 -0.9555  1.9753 -1.0613
  539MOL0     H72716  10.671  10.481   3.221 -3.7406  1.8722 -1.5122
  539MOL0     H72717  10.949  10.536   3.376  1.6498 -0.1720  1.9498
  539MOL0     H72718  10.888  10.477   3.534  0.8095 -3.0726 -1.1369
  539MOL0     H72719  10.949  10.291   3.424 -0.8866 -2.5224  0.1544
  539MOL0     H72720  10.901  10.352   3.262 -1.4954  1.9453  0.0374
  539MOL0     H72721  10.750  10.162   3.325  2.4530  0.7960 -1.2182
  539MOL0     H72722  10.648  10.305   3.344  1.2308  2.3201 -0.2181
  539MOL0     H72723  10.615  10.178   3.532  0.0733 -0.1474  0.8725
  539MOL0     H72724  10.715  10.325   3.575 -0.7087  1.4881 -3.1099
  539MOL0     H72725  10.956   9.967   3.677  2.3914 -0.0881  0.9362
  539MOL0     H72726  10.985   9.784   3.953  0.8056 -0.8251 -3.1576
  539MOL0     H72727  11.090   9.862   3.846 -0.8292  0.6172 -0.7663
  539MOL0     H72728  11.062   9.946   4.007  3.1572  1.6034 -2.4136
  539MOL0     H72729  10.659   9.900   4.330  1.9808 -1.1654 -0.8421
  539MOL0     H72730  10.644   9.868   4.581 -1.5036  0.9633 -0.4683
  539MOL0     H72731  10.678   9.819   4.798  2.4253 -2.3405  2.5821
  539MOL0     H72732  10.713   9.910   4.939 -2.3121 -1.9554 -0.3068
  539MOL0     H72733  10.514   9.971   4.729 -3.9267  0.9415  0.6862
  539MOL0     H72734  10.480   9.926   4.896 -0.8994  1.3095 -0.8195
  539MOL0     H72735  10.520  10.200   4.791  1.8294  1.6485  1.5275
  539MOL0     H72736  10.618  10.176   4.927  3.6237 -3.5751 -3.4123
  539MOL0     H72737  10.323  10.081   4.931  0.8716 -0.0529 -3.0826
  539MOL0     H72738  10.431  10.108   5.061  2.0415  0.3373 -0.6869
  539MOL0     H72739  10.343  10.341   4.873  0.1056  0.5571 -0.1142
  539MOL0     H72740  10.460  10.343   5.003  3.1634 -4.8948 -2.1021
  539MOL0     H72741  10.164  10.303   4.977  1.1044  1.7009 -1.0282
  539MOL0     H72742  10.227  10.256   5.136 -1.5204 -0.3430 -0.1517
  539MOL0     H72743  10.298  10.492   5.172 -3.1098 -0.1558  2.3576
  539MOL0     H72744  10.134  10.490   5.161 -0.6108  0.2390 -0.8499
  539MOL0     H72745  10.287  10.555   4.909 -0.3027 -1.5840 -1.0052
  539MOL0     H72746  10.231  10.671   5.030  3.3221  0.5748 -1.3641
  539MOL0     H72747  10.897  10.192   4.653 -3.1372  1.8226  1.1442
  539MOL0     H72748  10.925  10.218   4.387 -1.2090  1.5203  0.6341
  539MOL0     H72749  10.645  10.166   4.009  0.3125 -1.0508  1.4451
  539MOL0     H72750  10.660  10.259   3.776  1.1622  0.3478 -2.5728
  539MOL0     H72751   9.855  10.584   4.069 -0.9024 -1.2581  1.6168
  539MOL0     H72752   9.594  10.593   4.027 -1.3320  1.2677 -1.7701
  539MOL0     H72753   9.221  10.389   3.591  2.5638  0.4503 -0.2282
  539MOL0     H72754   8.978  10.463   3.584 -0.7932 -2.2793  2.1814
  539MOL0     H72755   8.837  10.551   3.917 -0.5876  1.3622  2.3076
  539MOL0     H72756   8.762  10.711   3.896  2.1995 -0.0699  0.3773
  539MOL0     H72757   8.617  10.624   3.725 -1.2308 -0.0811  0.0742
  539MOL0     H72758   8.606  10.517   3.874 -0.8771  4.3841  1.5312
  539MOL0     H72759   8.745  10.355   3.765 -3.0572 -1.4008  0.4895
  539MOL0     H72760   8.760  10.459   3.622 -1.7195  4.5540 -0.2196
  539MOL0     H72761   8.603  10.270   3.600 -0.4950  1.8847 -2.7432
  539MOL0     H72762   8.507  10.411   3.585 -1.1849 -2.0205  0.2913
  539MOL0     H72763   8.370  10.201   3.934  0.2620  0.4196  0.4739
  539MOL0     H72764   9.063  10.756   3.883 -2.1052 -0.5523 -0.8049
  539MOL0     H72765   9.302  10.689   3.876  1.8167 -0.7514 -3.6426
  540MOL0     O72766   7.656   5.488   7.031  0.1928 -0.7136  0.2766
  540MOL0     C72767   7.712   5.582   6.964 -0.0472  0.1261  0.2952
  540MOL0     O72768   7.738   5.578   6.825  0.0597  0.3238  0.5888
  540MOL0     C72769   7.676   5.472   6.752 -0.5212 -0.1551 -0.3250
  540MOL0     C72770   7.620   5.507   6.628  0.2192  0.2828  0.1336
  540MOL0     C72771   7.570   5.410   6.539  0.4986 -0.7636 -0.7038
  540MOL0     C72772   7.548   5.278   6.588  0.8089  0.3247 -0.6843
  540MOL0     O72773   7.484   5.191   6.502 -0.3110  0.4294  0.8167
  540MOL0     C72774   7.450   5.062   6.560  0.4712  0.9975 -0.5266
  540MOL0     C72775   7.389   4.977   6.439 -0.0608 -0.5885 -0.8292
  540MOL0     C72776   7.389   4.827   6.465 -0.0511 -0.6153  0.0585
  540MOL0     C72777   7.297   4.755   6.369  1.1746  0.7798  0.3283
  540MOL0     C72778   7.283   4.599   6.389  0.0665 -0.1516  0.0329
  540MOL0     C72779   7.395   4.520   6.318 -0.1935 -0.6984 -1.2917
  540MOL0     C72780   7.428   4.386   6.383 -0.5389  0.1789  0.3878
  540MOL0     C72781   7.311   4.298   6.409  0.7507 -0.1084 -0.1101
  540MOL0     N72782   7.262   4.254   6.277 -0.4977 -0.6014  0.1468
  540MOL0     C72783   7.329   4.167   6.200 -0.4776  0.4422  0.0838
  540MOL0     C72784   7.248   4.156   6.089 -0.7027 -0.3688 -0.6156
  540MOL0     C72785   7.282   4.089   5.960 -0.1519 -0.7978 -0.0924
  540MOL0     C72786   7.233   3.941   5.947 -0.5114 -0.5248  0.7909
  540MOL0     C72787   7.280   3.888   5.803  1.4928 -0.1753 -0.1680
  540MOL0     C72788   7.233   3.745   5.773  0.4199 -0.6013  0.6649
  540MOL0     O72789   7.309   3.689   5.663 -0.2522 -0.0446 -0.1741
  540MOL0     C72790   7.284   3.727   5.530  0.4619  0.1419 -0.5100
  540MOL0     C72791   7.195   3.825   5.488 -0.2608 -0.6467  0.2975
  540MOL0     C72792   7.175   3.854   5.352  0.7524 -0.8610 -0.3504
  540MOL0     C72793   7.089   3.965   5.313 -0.2689  0.3658 -0.3630
  540MOL0     C72794   7.241   3.768   5.258  0.5864 -0.5352 -0.5374
  540MOL0     C72795   7.227   3.782   5.111 -0.0400  0.5635  0.0088
  540MOL0     O72796   7.217   3.899   5.057 -0.5032 -0.7708  0.3548
  540MOL0     C72797   7.226   3.911   4.924 -0.9212  0.3414 -0.2065
  540MOL0     C72798   7.127   3.939   4.831 -0.1720 -0.1783 -0.8035
  540MOL0     C72799   7.155   3.969   4.693  0.2115  0.7038 -0.4351
  540MOL0     C72800   7.289   3.970   4.657 -0.3299  1.0251  0.0757
  540MOL0     O72801   7.311   4.005   4.529  0.4033  0.6564 -0.2444
  540MOL0     C72802   7.416   3.939   4.456 -0.1469 -0.6798  0.2206
  540MOL0     C72803   7.514   4.031   4.380  1.1019 -0.5296 -0.5461
  540MOL0     C72804   7.556   4.145   4.472 -0.7032 -0.2602  0.5412
  540MOL0     C72805   7.616   4.253   4.381 -0.9651 -0.2696 -0.4788
  540MOL0     C72806   7.525   4.317   4.286  0.1065  0.3437  0.0323
  540MOL0     C72807   7.413   4.397   4.369 -0.5091 -0.0749 -0.5743
  540MOL0     C72808   7.348   4.500   4.277 -0.0135 -0.2603  0.6978
  540MOL0     C72809   7.298   4.441   4.145 -0.0380 -0.1152 -0.1748
  540MOL0    Cl72810   7.176   4.316   4.180  0.2708  0.3031 -0.0810
  540MOL0     C72811   7.388   3.947   4.749 -0.4405  0.2801  0.4265
  540MOL0     C72812   7.360   3.928   4.876  0.4605 -0.3356  0.7485
  540MOL0     O72813   7.234   3.678   5.049  0.2946  0.3306 -0.3401
  540MOL0     C72814   7.329   3.674   5.305 -0.1848  0.5713 -0.5032
  540MOL0     C72815   7.350   3.651   5.436 -0.0918 -0.1568 -0.1089
  540MOL0     N72816   7.154   4.256   6.093 -0.5348 -0.0471 -0.3565
  540MOL0     N72817   7.161   4.313   6.208 -0.0318 -0.5532  0.0649
  540MOL0     C72818   7.613   5.241   6.709  0.2870  0.3947  0.4618
  540MOL0     C72819   7.679   5.334   6.784 -0.0777 -0.5711 -0.8274
  540MOL0     C72820   7.752   5.710   7.038  0.2444  0.4427 -0.3708
  540MOL0     C72821   7.797   5.817   6.952  0.4485 -0.0419  0.2057
  540MOL0     C72822   7.847   5.934   7.000 -0.5177  0.3553 -0.4227
  540MOL0     C72823   7.858   5.943   7.144  0.5191 -0.5440 -0.5485
  540MOL0     O72824   7.928   6.041   7.214  0.4348 -0.1866  0.8380
  540MOL0     C72825   7.987   6.144   7.137  0.0236 -0.6276 -0.6388
  540MOL0     C72826   8.127   6.101   7.087 -0.1810  0.6838 -0.6720
  540MOL0     C72827   8.217   6.019   7.187  0.0898 -0.6844  1.3502
  540MOL0     C72828   8.314   5.925   7.116  0.1705 -0.7392 -0.1385
  540MOL0     C72829   8.409   5.997   7.034  0.4713 -1.2965  0.3928
  540MOL0     C72830   8.468   6.077   6.965 -0.1615 -0.2130 -0.6731
  540MOL0     C72831   7.807   5.838   7.229 -0.8340  0.0710  0.4440
  540MOL0     C72832   7.748   5.719   7.180  0.8220 -0.3642  0.5551
  540MOL0     H72833   7.622   5.613   6.605  2.2287  0.6731  1.7845
  540MOL0     H72834   7.524   5.448   6.448 -1.5207 -1.5183 -0.0391
  540MOL0     H72835   7.538   5.005   6.590 -1.7660 -1.7347  1.4399
  540MOL0     H72836   7.371   5.065   6.635  0.1913  1.2103 -0.8278
  540MOL0     H72837   7.286   5.007   6.421  0.0604 -1.0499 -2.3992
  540MOL0     H72838   7.452   5.004   6.354  0.6117  1.8129  0.3310
  540MOL0     H72839   7.485   4.776   6.475  0.4878  0.3023 -0.3894
  540MOL0     H72840   7.347   4.823   6.566  1.0063  2.7258  0.7459
  540MOL0     H72841   7.202   4.796   6.402  1.9411  1.3952  1.8602
  540MOL0     H72842   7.317   4.760   6.261 -3.6008  0.4707 -0.7672
  540MOL0     H72843   7.274   4.560   6.491  1.2855 -2.6150 -0.7225
  540MOL0     H72844   7.190   4.572   6.338  0.4562  1.6898 -1.7860
  540MOL0     H72845   7.384   4.505   6.210 -0.2427  1.0765 -1.5658
  540MOL0     H72846   7.495   4.566   6.324 -0.7877  0.3915  0.9991
  540MOL0     H72847   7.502   4.341   6.317  0.5743  2.1988  0.1869
  540MOL0     H72848   7.487   4.407   6.472  1.5773  0.4183 -1.0099
  540MOL0     H72849   7.228   4.337   6.468  2.5619 -2.3004  4.4323
  540MOL0     H72850   7.338   4.210   6.468  1.7211  0.6109  0.5410
  540MOL0     H72851   7.427   4.121   6.207 -0.4404  0.6178  0.7455
  540MOL0     H72852   7.245   4.150   5.876  2.3210 -1.0475 -1.4865
  540MOL0     H72853   7.391   4.094   5.946 -0.2726 -0.8463 -1.1232
  540MOL0     H72854   7.123   3.938   5.952 -0.6124 -0.2330 -0.6859
  540MOL0     H72855   7.284   3.880   6.021  0.1800 -1.1916 -0.2212
  540MOL0     H72856   7.389   3.873   5.805  1.6941  0.9422 -1.2666
  540MOL0     H72857   7.250   3.962   5.728 -1.7396  0.1573  1.3139
  540MOL0     H72858   7.125   3.754   5.761  0.5456  1.4482  0.7797
  540MOL0     H72859   7.249   3.677   5.858  1.3631 -2.5753 -0.9896
  540MOL0     H72860   7.149   3.895   5.557  0.6404 -1.2903  1.5850
  540MOL0     H72861   7.138   4.049   5.263 -2.9506  2.2765  0.0437
  540MOL0     H72862   7.024   3.928   5.233 -1.0063 -0.2476  0.5084
  540MOL0     H72863   7.026   3.995   5.397  2.4239 -0.5586  2.1539
  540MOL0     H72864   7.028   3.955   4.872  0.9750  4.0260  0.8948
  540MOL0     H72865   7.068   4.001   4.636 -0.7862  0.1243  0.7202
  540MOL0     H72866   7.465   3.854   4.505 -0.7464 -0.8088  0.6189
  540MOL0     H72867   7.361   3.882   4.380 -0.8450  0.5794 -0.2377
  540MOL0     H72868   7.603   3.976   4.347  0.4547 -1.1481 -1.2949
  540MOL0     H72869   7.457   4.058   4.291 -2.4760 -2.6179  0.8738
  540MOL0     H72870   7.638   4.112   4.537  2.1550  1.4772 -1.9408
  540MOL0     H72871   7.471   4.190   4.524 -1.1977  1.2867 -1.4709
  540MOL0     H72872   7.656   4.325   4.453 -3.0270 -0.5811  1.0787
  540MOL0     H72873   7.706   4.213   4.334  0.2528  1.9323 -0.1394
  540MOL0     H72874   7.468   4.254   4.217  0.0245 -0.3964  0.7578
  540MOL0     H72875   7.584   4.375   4.215 -0.1413  0.1914 -0.2991
  540MOL0     H72876   7.354   4.333   4.435  0.3091  0.4748  0.7128
  540MOL0     H72877   7.467   4.443   4.452 -1.3112 -1.7967  0.9626
  540MOL0     H72878   7.406   4.592   4.262 -2.8345  1.4916 -0.3710
  540MOL0     H72879   7.256   4.541   4.320  1.5633  2.8245  1.4544
  540MOL0     H72880   7.381   4.410   4.082  0.6601  3.0321 -0.9672
  540MOL0     H72881   7.244   4.514   4.085  0.0812 -0.5822 -0.8567
  540MOL0     H72882   7.486   3.972   4.711 -1.5167  1.6992 -1.6195
  540MOL0     H72883   7.437   3.924   4.952  1.7937  3.1856 -0.2019
  540MOL0     H72884   7.376   3.606   5.235  0.3082  0.6113 -0.2154
  540MOL0     H72885   7.412   3.575   5.484 -2.9980 -1.0318  2.6457
  540MOL0     H72886   7.623   5.141   6.751 -1.6901  0.2558  0.6848
  540MOL0     H72887   7.728   5.306   6.877  3.9566  1.5531 -2.0926
  540MOL0     H72888   7.797   5.817   6.844  0.1870  2.9104  0.1314
  540MOL0     H72889   7.884   6.018   6.941  2.1552 -1.0949 -0.9732
  540MOL0     H72890   7.917   6.196   7.071  0.7319  3.1333  1.3309
  540MOL0     H72891   8.011   6.222   7.209 -1.7409 -0.7958  0.1745
  540MOL0     H72892   8.189   6.186   7.059  0.8999 -0.0360 -0.5087
  540MOL0     H72893   8.109   6.043   6.996 -4.6272 -1.9467  1.5549
  540MOL0     H72894   8.147   5.975   7.260  0.2161  0.9614  2.5233
  540MOL0     H72895   8.270   6.098   7.242 -0.1256  0.6559 -0.2785
  540MOL0     H72896   8.265   5.851   7.052 -0.6418 -1.5763  1.4055
  540MOL0     H72897   8.356   5.867   7.198  1.3608  0.7671  0.3608
  540MOL0     H72898   8.512   6.146   6.895 -2.4459  0.5066 -1.4710
  540MOL0     H72899   7.815   5.842   7.337 -1.0318  1.2132  0.4301
  540MOL0     H72900   7.723   5.635   7.243 -0.4613  0.1393  0.7378
  541MOL0     O72901  10.234   6.621   9.378  0.1814  0.0260 -0.1082
  541MOL0     C72902  10.321   6.586   9.297 -0.3442  0.3470  0.2862
  541MOL0     O72903  10.352   6.651   9.181  0.5413 -0.1405  0.6003
  541MOL0     C72904  10.297   6.774   9.149 -0.1471  0.0688  0.0758
  541MOL0     C72905  10.378   6.838   9.049  0.0493 -0.0334  0.0816
  541MOL0     C72906  10.327   6.966   9.001  0.5301  1.3735 -0.5682
  541MOL0     C72907  10.201   7.016   9.047  0.3613 -1.0625 -0.1830
  541MOL0     O72908  10.153   7.132   9.015 -0.7798  0.2689  0.3291
  541MOL0     C72909  10.244   7.229   8.965 -0.5054 -0.4128  0.2731
  541MOL0     C72910  10.186   7.369   9.003 -0.0830 -0.1234  0.1499
  541MOL0     C72911  10.277   7.482   8.970 -1.0267  0.5612  0.0930
  541MOL0     C72912  10.229   7.614   9.038  0.7124 -0.6044 -0.1709
  541MOL0     C72913  10.326   7.736   9.009 -0.7525  0.1159 -0.7434
  541MOL0     C72914  10.475   7.708   9.037 -0.2246  0.1888 -0.2471
  541MOL0     C72915  10.576   7.794   8.955  0.3200 -0.4443  0.3061
  541MOL0     C72916  10.557   7.949   8.980 -0.1754  0.5935 -0.0671
  541MOL0     N72917  10.600   7.985   9.115  0.5578  0.5777  0.8794
  541MOL0     C72918  10.720   8.019   9.153 -0.3675  0.4887  0.2483
  541MOL0     C72919  10.701   8.042   9.291 -0.2354  0.9842 -0.0972
  541MOL0     C72920  10.794   8.080   9.400 -1.3957 -0.7214  0.1597
  541MOL0     C72921  10.806   8.238   9.393  0.3951  0.5796  0.7040
  541MOL0     C72922  10.909   8.295   9.484 -0.3458 -1.4544  0.7680
  541MOL0     C72923  11.053   8.294   9.425  0.6664  0.5990 -0.2071
  541MOL0     O72924  11.108   8.432   9.413  1.2480  0.0743 -0.7298
  541MOL0     C72925  11.149   8.502   9.526  0.7515  0.2423 -0.2974
  541MOL0     C72926  11.207   8.623   9.491  0.7525  0.5142 -0.9470
  541MOL0     C72927  11.265   8.711   9.589 -0.7444 -0.0112  0.0481
  541MOL0     C72928  11.330   8.835   9.555  0.2098 -1.2159 -0.1484
  541MOL0     C72929  11.262   8.676   9.728  0.3185  0.3955  0.6485
  541MOL0     C72930  11.310   8.768   9.835  0.4418  0.5333 -0.5382
  541MOL0     O72931  11.285   8.706   9.954 -0.6185  0.2246  0.1081
  541MOL0     C72932  11.352   8.744  10.066  0.0845  0.4952 -0.7298
  541MOL0     C72933  11.327   8.872  10.121  0.1128  0.1217 -0.2608
  541MOL0     C72934  11.406   8.917  10.237  0.9218 -0.5346 -0.1749
  541MOL0     C72935  11.509   8.834  10.290 -0.1841 -0.2811  0.3949
  541MOL0     O72936  11.593   8.860  10.391 -0.3734 -0.3828 -0.1783
  541MOL0     C72937  11.644   8.991  10.386  0.4217 -1.3125 -0.2737
  541MOL0     C72938  11.792   8.995  10.432  0.2000  0.8722  0.2350
  541MOL0     C72939  11.876   8.924  10.325 -0.3642  0.2931  0.7095
  541MOL0     C72940  12.023   8.965  10.336  0.5716 -0.9191 -1.0805
  541MOL0     C72941  12.083   8.901  10.459 -0.1084 -0.3698  0.1304
  541MOL0     C72942  12.233   8.923  10.458 -0.7584 -0.4592  0.1210
  541MOL0     C72943  12.299   8.868  10.592  0.9544  0.3565  0.3425
  541MOL0     C72944  12.430   8.786  10.568 -0.5144 -0.1555 -0.8704
  541MOL0    Cl72945  12.510   8.749  10.720 -0.1776 -0.0585  0.2827
  541MOL0     C72946  11.527   8.711  10.225  0.2639 -0.5170  0.2147
  541MOL0     C72947  11.455   8.659  10.116  0.2008 -0.6623 -0.2500
  541MOL0     O72948  11.354   8.885   9.825  0.6452  0.5126  0.4907
  541MOL0     C72949  11.185   8.555   9.762  0.3207  0.6652 -0.0439
  541MOL0     C72950  11.136   8.465   9.661  0.5486  0.4062  0.4053
  541MOL0     N72951  10.579   8.010   9.329  0.7313 -0.0040  0.2699
  541MOL0     N72952  10.515   7.989   9.220  0.4410  0.8865  0.2756
  541MOL0     C72953  10.124   6.952   9.144 -1.5155 -0.1354  0.1311
  541MOL0     C72954  10.173   6.825   9.184  0.7523  0.2104  0.3207
  541MOL0     C72955  10.412   6.462   9.313 -1.1244 -0.0296  0.7961
  541MOL0     C72956  10.528   6.447   9.243 -0.8791  0.1837  0.0581
  541MOL0     C72957  10.604   6.329   9.252  0.3519  0.9655  1.7546
  541MOL0     C72958  10.564   6.230   9.333 -0.8793  0.2316 -0.1122
  541MOL0     O72959  10.632   6.109   9.340  0.7059  0.0967  0.2961
  541MOL0     C72960  10.769   6.087   9.316  0.5896 -0.1370  0.7535
  541MOL0     C72961  10.794   5.941   9.336  0.1105 -0.0570 -0.0224
  541MOL0     C72962  10.716   5.857   9.241 -0.2848  0.4289 -0.0422
  541MOL0     C72963  10.802   5.726   9.210  0.2271 -0.4228 -0.3835
  541MOL0     C72964  10.715   5.624   9.143 -0.5668 -0.2218 -0.6129
  541MOL0     C72965  10.661   5.535   9.074 -1.1987  0.2448  0.3991
  541MOL0     C72966  10.437   6.233   9.393  1.2624  0.1780 -0.8604
  541MOL0     C72967  10.369   6.356   9.391 -0.5984  1.1588  0.1417
  541MOL0     H72968  10.469   6.796   9.008  0.3587  1.4773 -0.8553
  541MOL0     H72969  10.386   7.022   8.930 -0.6748  1.3090 -1.6700
  541MOL0     H72970  10.341   7.223   9.016  0.6586  0.5737 -1.7067
  541MOL0     H72971  10.272   7.215   8.860 -3.4908 -2.2967 -0.3930
  541MOL0     H72972  10.094   7.382   8.945  1.4986  2.4998 -2.0387
  541MOL0     H72973  10.173   7.369   9.111  0.8290 -1.9339  0.3005
  541MOL0     H72974  10.375   7.442   8.994  0.4220  1.3994 -3.6317
  541MOL0     H72975  10.271   7.501   8.862  4.5098 -1.6224 -0.9170
  541MOL0     H72976  10.136   7.655   8.997  1.3549  1.3189  0.2062
  541MOL0     H72977  10.217   7.591   9.144 -0.5827 -1.2710 -0.4367
  541MOL0     H72978  10.318   7.756   8.902  1.5829  0.4559 -0.9054
  541MOL0     H72979  10.292   7.817   9.074  1.7838 -0.0740  0.9626
  541MOL0     H72980  10.498   7.725   9.143  0.6240  1.3041 -0.5896
  541MOL0     H72981  10.493   7.602   9.018 -1.8028 -0.9611  3.5798
  541MOL0     H72982  10.674   7.764   8.994  1.9739  1.3734 -2.1985
  541MOL0     H72983  10.564   7.769   8.850 -1.4991  0.3991  0.2684
  541MOL0     H72984  10.454   7.982   8.968 -0.0936  1.1805  0.7361
  541MOL0     H72985  10.626   8.012   8.923  1.3093  2.2595  3.2229
  541MOL0     H72986  10.805   8.043   9.090  0.2176  2.8306  1.7664
  541MOL0     H72987  10.766   8.051   9.501 -1.3935  2.0047  1.0176
  541MOL0     H72988  10.894   8.041   9.377 -0.7980 -1.5328  3.6482
  541MOL0     H72989  10.699   8.257   9.410 -0.0723 -1.3864  0.1639
  541MOL0     H72990  10.818   8.269   9.289 -0.4042 -4.8031 -1.2981
  541MOL0     H72991  10.907   8.240   9.578  1.2744  1.9414  2.9563
  541MOL0     H72992  10.877   8.397   9.508  0.6693 -0.8773 -0.2080
  541MOL0     H72993  11.062   8.251   9.325  1.2429 -0.4329  0.2702
  541MOL0     H72994  11.118   8.229   9.484 -0.3611  0.6633  1.0332
  541MOL0     H72995  11.197   8.646   9.385 -0.8495 -1.2035 -1.2412
  541MOL0     H72996  11.261   8.919   9.564 -0.8670 -2.1418  0.4840
  541MOL0     H72997  11.424   8.857   9.605  0.8594 -0.1358 -1.7419
  541MOL0     H72998  11.356   8.838   9.448  1.2968 -0.2266  0.1242
  541MOL0     H72999  11.260   8.943  10.073  1.6484  0.5848 -1.8439
  541MOL0     H73000  11.376   9.015  10.272 -1.4379 -0.8327 -1.1971
  541MOL0     H73001  11.629   9.024  10.283  0.5856 -3.0193 -0.8825
  541MOL0     H73002  11.589   9.060  10.450 -0.4792  3.2268 -5.2338
  541MOL0     H73003  11.830   9.092  10.464  1.4983  0.9609 -1.4355
  541MOL0     H73004  11.807   8.935  10.522  2.0213  0.1423 -0.5050
  541MOL0     H73005  11.836   8.961  10.230 -1.4219  0.1135  1.0668
  541MOL0     H73006  11.868   8.815  10.321  0.9274  0.2118 -2.0931
  541MOL0     H73007  12.073   8.921  10.249  1.5251 -0.1864 -0.9165
  541MOL0     H73008  12.025   9.074  10.341 -4.7302 -0.6188  0.6447
  541MOL0     H73009  12.063   8.794  10.470  3.3033 -1.1274 -0.0148
  541MOL0     H73010  12.052   8.954  10.550 -0.4869  2.1546 -1.3567
  541MOL0     H73011  12.269   8.869  10.369  1.7587  0.5746  0.4296
  541MOL0     H73012  12.273   9.024  10.452  2.2066 -1.5075  0.7086
  541MOL0     H73013  12.233   8.792  10.635  2.8933 -0.7100  1.5723
  541MOL0     H73014  12.311   8.951  10.662  3.4704  1.1075 -0.8644
  541MOL0     H73015  12.509   8.838  10.513 -0.6012 -0.9834 -1.7843
  541MOL0     H73016  12.416   8.688  10.522 -3.0965  0.0391 -0.6131
  541MOL0     H73017  11.601   8.646  10.270 -1.8598 -3.0171  0.3628
  541MOL0     H73018  11.475   8.566  10.064  2.1684  0.5974 -1.8989
  541MOL0     H73019  11.145   8.538   9.861  0.3818 -0.7283 -0.2404
  541MOL0     H73020  11.089   8.368   9.677  2.9154 -0.9470 -0.1928
  541MOL0     H73021  10.038   6.999   9.190 -0.7712 -0.3630  1.8006
  541MOL0     H73022  10.111   6.758   9.243  0.6941 -0.1442 -0.1407
  541MOL0     H73023  10.567   6.529   9.184  0.6546  0.2883  1.1800
  541MOL0     H73024  10.685   6.323   9.180  0.2702 -0.4238  1.7683
  541MOL0     H73025  10.812   6.122   9.222  3.3903 -0.1548  1.9325
  541MOL0     H73026  10.825   6.138   9.395 -0.4961  3.7131 -0.7310
  541MOL0     H73027  10.771   5.912   9.439  0.1940  1.1317  0.3487
  541MOL0     H73028  10.901   5.922   9.328 -0.0888 -0.6864 -1.4349
  541MOL0     H73029  10.694   5.909   9.147 -0.0492  1.8342  0.6597
  541MOL0     H73030  10.621   5.832   9.289  0.2284 -0.2173  0.6544
  541MOL0     H73031  10.845   5.695   9.306  0.8210  1.5017  0.0242
  541MOL0     H73032  10.875   5.742   9.130 -1.9776  0.5425 -2.3087
  541MOL0     H73033  10.608   5.470   9.007 -1.0238  0.1043  0.3985
  541MOL0     H73034  10.399   6.147   9.446  0.1376  1.6705  0.8637
  541MOL0     H73035  10.277   6.367   9.449  0.4340  0.1939  2.0494
  542MOL0     O73036   5.276   3.068   6.911 -0.5015  0.3520 -0.4375
  542MOL0     C73037   5.240   3.044   6.792  0.5322 -0.2065 -0.3892
  542MOL0     O73038   5.132   2.959   6.761 -0.3905 -0.4793  0.4945
  542MOL0     C73039   5.046   2.935   6.859  0.0141  0.0470 -0.1126
  542MOL0     C73040   4.984   3.021   6.946  0.0542 -0.4761 -0.6889
  542MOL0     C73041   4.891   2.968   7.034 -0.4572  0.0633  0.3712
  542MOL0     C73042   4.855   2.832   7.036  0.6953 -0.1566 -0.3480
  542MOL0     O73043   4.755   2.800   7.126 -0.5093 -0.0852 -0.0862
  542MOL0     C73044   4.699   2.674   7.105 -0.2567 -0.0965  0.3173
  542MOL0     C73045   4.558   2.649   7.169 -0.8443  1.0020 -1.0379
  542MOL0     C73046   4.569   2.616   7.316  0.7228  0.4656  0.1381
  542MOL0     C73047   4.433   2.581   7.387 -0.4742  0.3097  0.2109
  542MOL0     C73048   4.341   2.473   7.331  0.5082  0.0003  0.8122
  542MOL0     C73049   4.234   2.427   7.441  0.1929 -0.5681 -0.0259
  542MOL0     C73050   4.160   2.301   7.383 -0.1521 -0.3120  0.1240
  542MOL0     C73051   4.060   2.327   7.265  0.4775 -0.1959 -0.3948
  542MOL0     N73052   4.062   2.210   7.171  0.5160 -0.2110 -0.7014
  542MOL0     C73053   4.180   2.196   7.100 -0.3189 -0.0189 -0.1788
  542MOL0     C73054   4.141   2.095   7.011 -0.7995  0.0838 -0.6735
  542MOL0     C73055   4.250   2.076   6.907 -0.5330 -0.0463 -0.0979
  542MOL0     C73056   4.232   1.957   6.816 -0.6025  0.3863 -0.3973
  542MOL0     C73057   4.116   1.979   6.708 -0.4161  0.1116  0.5327
  542MOL0     C73058   4.140   2.070   6.587 -0.2525  0.7132  0.2450
  542MOL0     O73059   4.039   2.038   6.485 -0.3157  0.8815 -0.1271
  542MOL0     C73060   4.047   2.090   6.359 -0.0048  1.1394 -0.1976
  542MOL0     C73061   4.056   2.009   6.241  0.7099 -0.2071 -0.5866
  542MOL0     C73062   4.086   2.066   6.112  0.0819  0.0561  0.2993
  542MOL0     C73063   4.087   1.967   5.992 -0.0699 -1.0493 -0.6388
  542MOL0     C73064   4.105   2.207   6.109 -0.8032 -0.0906  0.4206
  542MOL0     C73065   4.127   2.283   5.983  0.3597  0.2720  0.1068
  542MOL0     O73066   4.107   2.418   5.990  0.0307 -0.1120  0.1205
  542MOL0     C73067   4.133   2.490   5.879 -0.0244  0.1915  0.3938
  542MOL0     C73068   4.253   2.563   5.873  0.3802  0.5800  0.6196
  542MOL0     C73069   4.279   2.639   5.761 -0.3649  0.0653  0.2549
  542MOL0     C73070   4.193   2.640   5.648 -0.6629  0.4608  0.7060
  542MOL0     O73071   4.226   2.725   5.546  0.4967  0.0578 -0.2099
  542MOL0     C73072   4.203   2.675   5.411 -0.7683  0.0256  0.0214
  542MOL0     C73073   4.281   2.768   5.310  0.0724  0.2664  0.5047
  542MOL0     C73074   4.417   2.816   5.364 -0.5076  0.3956 -0.8910
  542MOL0     C73075   4.480   2.911   5.272  0.2797  0.0043  0.3929
  542MOL0     C73076   4.590   3.009   5.329  0.2595 -0.2746  0.4454
  542MOL0     C73077   4.651   3.091   5.212  0.2223  0.6202  0.2660
  542MOL0     C73078   4.744   3.201   5.274  0.1881  0.0218  0.1643
  542MOL0     C73079   4.801   3.273   5.166  0.3354  1.0585  1.4390
  542MOL0    Cl73080   4.675   3.323   5.039  0.3114 -0.5549 -0.2646
  542MOL0     C73081   4.085   2.552   5.650 -0.3126  0.8800  0.4138
  542MOL0     C73082   4.058   2.480   5.769 -0.0202  0.7490 -0.4031
  542MOL0     O73083   4.155   2.218   5.884  0.3697 -0.6064 -0.4232
  542MOL0     C73084   4.099   2.281   6.232  0.5173  0.0237  0.3861
  542MOL0     C73085   4.084   2.221   6.352  1.0518 -0.3803 -0.2422
  542MOL0     N73086   4.001   2.081   7.017  0.5352  0.6959  0.4486
  542MOL0     N73087   3.963   2.139   7.122 -0.1088 -1.0731  0.1048
  542MOL0     C73088   4.919   2.744   6.946 -0.4911  1.1177 -0.2430
  542MOL0     C73089   5.014   2.802   6.858  0.3458  0.6665 -1.0887
  542MOL0     C73090   5.337   3.090   6.696 -1.4482  0.6865  0.4169
  542MOL0     C73091   5.457   3.161   6.728 -0.1428 -0.0038 -0.6895
  542MOL0     C73092   5.551   3.193   6.629 -0.5687 -0.4655 -0.6642
  542MOL0     C73093   5.545   3.145   6.499  0.4217 -0.1272 -0.7739
  542MOL0     O73094   5.631   3.192   6.403  0.2913 -0.2656 -0.5190
  542MOL0     C73095   5.617   3.330   6.362 -0.9029  0.1199  1.1513
  542MOL0     C73096   5.735   3.353   6.268  0.2406 -0.0545 -0.5768
  542MOL0     C73097   5.726   3.479   6.186 -0.5143 -0.3365 -0.3213
  542MOL0     C73098   5.833   3.488   6.085 -1.0418 -1.1347  0.5651
  542MOL0     C73099   5.818   3.608   6.007 -0.3086 -0.2526  0.7262
  542MOL0     C73100   5.813   3.700   5.931  1.8038 -0.5565 -0.2693
  542MOL0     C73101   5.424   3.095   6.464 -0.1795  0.1552 -0.4200
  542MOL0     C73102   5.322   3.056   6.562 -0.0345 -0.6499 -0.1840
  542MOL0     H73103   5.006   3.127   6.939 -1.6482 -0.1989 -2.8703
  542MOL0     H73104   4.841   3.038   7.100  0.6072  3.3703 -2.0478
  542MOL0     H73105   4.689   2.656   6.998  1.1665 -0.3166  0.2027
  542MOL0     H73106   4.757   2.593   7.150 -1.0173 -1.8914 -1.7707
  542MOL0     H73107   4.494   2.737   7.159 -1.1083  1.1737  1.6302
  542MOL0     H73108   4.517   2.563   7.115 -1.6620  0.1866  0.8094
  542MOL0     H73109   4.634   2.531   7.339  1.4291  1.6220  2.7474
  542MOL0     H73110   4.622   2.693   7.371  0.3629  0.5077  0.4262
  542MOL0     H73111   4.465   2.537   7.482  0.6163  0.5684 -0.0137
  542MOL0     H73112   4.367   2.667   7.403 -0.4040  1.1324 -3.0773
  542MOL0     H73113   4.282   2.505   7.245  1.5353  1.7679  0.7086
  542MOL0     H73114   4.394   2.384   7.296 -0.5768 -0.6587  0.8087
  542MOL0     H73115   4.297   2.396   7.524  4.3404  3.4047 -1.2837
  542MOL0     H73116   4.163   2.509   7.456  2.3755  1.6788 -1.1951
  542MOL0     H73117   4.233   2.223   7.356 -0.6764 -0.1508 -1.8772
  542MOL0     H73118   4.102   2.257   7.465  3.7846 -2.1310  2.2696
  542MOL0     H73119   4.079   2.421   7.213  1.0830  0.2813  0.6679
  542MOL0     H73120   3.961   2.338   7.310  1.5438  1.5323  1.6756
  542MOL0     H73121   4.274   2.248   7.115 -0.8990  0.2761  3.0797
  542MOL0     H73122   4.263   2.167   6.849 -0.6612 -0.1266 -0.2552
  542MOL0     H73123   4.345   2.075   6.961  0.9028  0.7009 -2.4546
  542MOL0     H73124   4.191   1.877   6.877  0.0556  0.0443 -0.4002
  542MOL0     H73125   4.326   1.921   6.772 -1.3618 -1.4095 -0.5985
  542MOL0     H73126   4.029   2.017   6.763 -1.7467 -0.9214 -0.7660
  542MOL0     H73127   4.103   1.880   6.664  2.3541 -1.3316  2.6271
  542MOL0     H73128   4.241   2.042   6.556  0.6883  1.6013  2.3045
  542MOL0     H73129   4.138   2.176   6.613  1.6224  1.6631 -2.9092
  542MOL0     H73130   4.042   1.902   6.248  0.9018 -0.1705  0.6101
  542MOL0     H73131   4.008   1.995   5.921 -3.0926  0.9592  3.1621
  542MOL0     H73132   4.185   1.952   5.944 -0.2483 -0.5954 -1.1535
  542MOL0     H73133   4.063   1.869   6.036 -0.9235 -0.4144  0.3368
  542MOL0     H73134   4.323   2.561   5.955 -0.0282  1.0259  0.9870
  542MOL0     H73135   4.367   2.701   5.747 -2.2457  2.8832  0.3058
  542MOL0     H73136   4.253   2.578   5.402 -2.6852 -1.1482  1.3191
  542MOL0     H73137   4.097   2.661   5.389 -1.0316  0.7368  0.7395
  542MOL0     H73138   4.290   2.722   5.211  1.6690  1.0677  0.2505
  542MOL0     H73139   4.217   2.854   5.290 -0.8473 -1.2136 -4.1130
  542MOL0     H73140   4.476   2.726   5.377  1.8433  2.1085  1.0732
  542MOL0     H73141   4.417   2.864   5.462  2.6479 -2.6144  0.7835
  542MOL0     H73142   4.510   2.866   5.176  1.1596 -0.0418  0.6750
  542MOL0     H73143   4.406   2.988   5.250  0.8557  1.5060  3.2730
  542MOL0     H73144   4.660   2.940   5.376  0.8930  0.3722  0.4657
  542MOL0     H73145   4.546   3.075   5.404  0.4040  2.5272 -1.7411
  542MOL0     H73146   4.708   3.023   5.148  0.9424  1.9739 -0.5887
  542MOL0     H73147   4.570   3.131   5.151 -0.3333 -2.7412 -1.4261
  542MOL0     H73148   4.825   3.147   5.324 -0.1627  0.2157  0.9675
  542MOL0     H73149   4.697   3.263   5.352  2.7072  1.9126  0.3421
  542MOL0     H73150   4.869   3.210   5.107  0.6333  2.1734  0.5626
  542MOL0     H73151   4.857   3.356   5.208 -0.6103  2.7972 -0.5645
  542MOL0     H73152   4.010   2.538   5.573 -0.7110 -4.9727  1.4395
  542MOL0     H73153   3.977   2.408   5.774  1.3481 -0.8170  0.4395
  542MOL0     H73154   4.096   2.390   6.230  2.0007  0.0987  0.9268
  542MOL0     H73155   4.079   2.282   6.441 -0.6060 -1.4396  0.4581
  542MOL0     H73156   4.908   2.636   6.947  0.4796  1.0179  0.8216
  542MOL0     H73157   5.065   2.732   6.794 -0.1089 -0.1235 -0.5953
  542MOL0     H73158   5.466   3.200   6.829 -2.3779  1.4525 -0.9680
  542MOL0     H73159   5.626   3.260   6.670 -1.1418 -1.0279  1.4448
  542MOL0     H73160   5.516   3.349   6.324 -0.9784 -1.5255  0.4508
  542MOL0     H73161   5.616   3.397   6.449 -2.6114 -0.3793  1.5575
  542MOL0     H73162   5.736   3.280   6.186  0.7167  1.4750 -1.9924
  542MOL0     H73163   5.826   3.355   6.329 -1.8134  1.3985  2.7025
  542MOL0     H73164   5.720   3.567   6.250 -3.7543  2.4971 -4.0406
  542MOL0     H73165   5.633   3.469   6.130  0.9225 -3.6758 -2.4167
  542MOL0     H73166   5.829   3.402   6.017 -4.9747 -0.2872 -0.5773
  542MOL0     H73167   5.931   3.502   6.131 -0.4689  0.0817 -0.9305
  542MOL0     H73168   5.797   3.781   5.863 -2.7596 -1.0429 -0.0724
  542MOL0     H73169   5.410   3.089   6.356 -2.4315 -1.1659 -0.1093
  542MOL0     H73170   5.231   3.020   6.515  1.9707 -1.0956 -4.0701
  543MOL0     O73171   1.249   6.915   7.610 -1.0752 -0.0042 -0.5483
  543MOL0     C73172   1.260   6.958   7.500  0.5266 -0.1065  0.3515
  543MOL0     O73173   1.305   6.889   7.392 -0.2729 -0.5690 -0.4016
  543MOL0     C73174   1.320   6.754   7.407 -0.8207 -0.4351 -0.1982
  543MOL0     C73175   1.426   6.712   7.489  0.7717 -0.2311 -0.0154
  543MOL0     C73176   1.462   6.574   7.481  0.0022  0.2917  0.3974
  543MOL0     C73177   1.387   6.479   7.412 -0.3652  0.1234 -0.5032
  543MOL0     O73178   1.424   6.344   7.414 -0.2850 -0.1901  0.1669
  543MOL0     C73179   1.317   6.251   7.395  0.6512  0.1070 -0.8468
  543MOL0     C73180   1.379   6.119   7.445 -0.5174  0.0071  0.2525
  543MOL0     C73181   1.291   5.990   7.415 -0.3134  0.0283  0.4317
  543MOL0     C73182   1.278   5.969   7.260 -0.0747  0.8350 -0.0849
  543MOL0     C73183   1.204   5.830   7.238  0.0040 -1.2926  1.1011
  543MOL0     C73184   1.295   5.713   7.282 -0.0688 -0.6419 -0.3981
  543MOL0     C73185   1.227   5.574   7.243 -0.0415  0.4188  0.8390
  543MOL0     C73186   1.087   5.559   7.307  0.7149 -0.1971 -0.1958
  543MOL0     N73187   1.046   5.415   7.299  0.0225 -0.2741  0.8020
  543MOL0     C73188   1.042   5.326   7.401  0.2301  0.8194 -1.2977
  543MOL0     C73189   0.978   5.212   7.354  0.2515 -0.6123 -0.5765
  543MOL0     C73190   0.931   5.082   7.422 -0.6834  0.0495  0.0836
  543MOL0     C73191   1.037   5.036   7.523 -0.1995  0.7386  0.8968
  543MOL0     C73192   1.129   4.938   7.454  0.8606  0.3128 -0.0194
  543MOL0     C73193   1.232   4.875   7.546 -0.1962  0.4925  0.5479
  543MOL0     O73194   1.254   4.743   7.487 -0.7901 -0.3980 -0.1637
  543MOL0     C73195   1.290   4.652   7.581  0.2655  0.4432  0.7594
  543MOL0     C73196   1.234   4.527   7.572 -0.1953  1.2998 -0.2463
  543MOL0     C73197   1.258   4.419   7.657  0.5684  0.0526  0.6540
  543MOL0     C73198   1.184   4.291   7.642 -0.0391 -0.1314  0.1103
  543MOL0     C73199   1.353   4.438   7.754 -0.4004 -0.3656  1.0067
  543MOL0     C73200   1.386   4.342   7.854  0.2477  0.1067  0.2673
  543MOL0     O73201   1.286   4.280   7.928  0.9143  0.4587  0.4272
  543MOL0     C73202   1.305   4.190   8.020  0.6847  0.0769  0.3966
  543MOL0     C73203   1.390   4.081   8.017 -0.8610  0.2328 -0.0351
  543MOL0     C73204   1.385   3.984   8.118 -0.0751 -0.6976  0.0719
  543MOL0     C73205   1.317   4.005   8.236 -0.5144 -0.8173 -0.2391
  543MOL0     O73206   1.314   3.921   8.339  0.7213 -0.1676 -0.5332
  543MOL0     C73207   1.329   3.782   8.318  0.1049  1.1321 -0.0735
  543MOL0     C73208   1.354   3.710   8.455 -0.4353 -0.0036 -0.1544
  543MOL0     C73209   1.343   3.560   8.437  0.1752  0.5464 -0.5630
  543MOL0     C73210   1.352   3.495   8.576  0.0242  0.0962  1.3580
  543MOL0     C73211   1.294   3.351   8.577 -1.0063 -1.6489 -0.1391
  543MOL0     C73212   1.282   3.299   8.718  0.5948  0.2828 -0.7708
  543MOL0     C73213   1.233   3.147   8.711  0.2298  0.5555 -0.4780
  543MOL0     C73214   1.191   3.088   8.846 -0.5060 -1.2069  0.2587
  543MOL0    Cl73215   1.091   2.938   8.814 -0.1102  0.2349 -0.0968
  543MOL0     C73216   1.240   4.119   8.245  0.4168  1.0206  0.2019
  543MOL0     C73217   1.226   4.202   8.140  0.6126  0.3318  0.3710
  543MOL0     O73218   1.506   4.308   7.851 -0.2676 -1.2930  0.0104
  543MOL0     C73219   1.424   4.561   7.754 -0.0568 -0.5803  0.9813
  543MOL0     C73220   1.393   4.669   7.671 -0.1776 -0.9102  0.0823
  543MOL0     N73221   0.976   5.229   7.209  0.3605 -0.1524  0.1249
  543MOL0     N73222   1.012   5.352   7.182  1.1787 -0.7543 -0.2585
  543MOL0     C73223   1.292   6.528   7.333 -0.2608  0.0340 -0.8395
  543MOL0     C73224   1.253   6.664   7.322 -0.1720 -0.2339  0.8688
  543MOL0     C73225   1.221   7.097   7.480 -0.6930 -0.6924 -0.2579
  543MOL0     C73226   1.275   7.194   7.385  0.0549  0.0050 -0.8905
  543MOL0     C73227   1.231   7.329   7.391 -0.0001 -0.2065  1.1451
  543MOL0     C73228   1.130   7.374   7.477 -0.4731  0.3520 -0.6002
  543MOL0     O73229   1.073   7.500   7.497 -0.4915 -0.0257  0.0142
  543MOL0     C73230   1.058   7.566   7.377  0.3178 -0.6485 -0.1583
  543MOL0     C73231   1.053   7.711   7.397 -0.6172 -0.5529 -0.8320
  543MOL0     C73232   1.189   7.776   7.416  1.1473  0.0221  0.3262
  543MOL0     C73233   1.217   7.825   7.562 -0.7634  0.5573 -0.2476
  543MOL0     C73234   1.335   7.901   7.594  0.1325  0.2079 -0.6795
  543MOL0     C73235   1.446   7.945   7.621  0.0962  0.0556 -0.3053
  543MOL0     C73236   1.068   7.280   7.551  0.8446  0.4172 -0.1734
  543MOL0     C73237   1.114   7.146   7.560  0.1935  0.2865  0.7655
  543MOL0     H73238   1.490   6.773   7.551  0.4091  3.0334 -2.5363
  543MOL0     H73239   1.542   6.540   7.546 -1.0967  1.2853  2.3601
  543MOL0     H73240   1.231   6.267   7.461  1.4696 -0.1594  0.3216
  543MOL0     H73241   1.296   6.257   7.288  1.2140 -0.4805 -0.9930
  543MOL0     H73242   1.473   6.096   7.394 -1.4125  0.3909 -1.6471
  543MOL0     H73243   1.404   6.133   7.551  0.4021 -1.1410  0.1991
  543MOL0     H73244   1.346   5.905   7.456 -2.1251 -1.5942 -0.3197
  543MOL0     H73245   1.194   6.001   7.464 -1.0895 -1.1067 -0.7650
  543MOL0     H73246   1.225   6.047   7.204  0.3704  1.3682  0.2318
  543MOL0     H73247   1.378   5.967   7.213  0.0721  3.0588  0.0369
  543MOL0     H73248   1.116   5.826   7.303  1.7236  0.0542  3.6832
  543MOL0     H73249   1.178   5.833   7.132 -2.2333  1.2576  1.5973
  543MOL0     H73250   1.391   5.724   7.231 -0.0824  2.1047 -0.0193
  543MOL0     H73251   1.318   5.731   7.388  0.5030  1.7072 -0.8721
  543MOL0     H73252   1.209   5.568   7.136  1.1956  1.4632  0.5538
  543MOL0     H73253   1.305   5.503   7.275  2.0319  1.1650 -2.1408
  543MOL0     H73254   1.007   5.623   7.268  0.8617  0.3421  0.3722
  543MOL0     H73255   1.104   5.610   7.402  1.3479  0.8979 -0.8676
  543MOL0     H73256   1.053   5.341   7.508  1.1052  0.8628 -1.3846
  543MOL0     H73257   0.840   5.096   7.481 -1.5443 -1.2499 -0.8614
  543MOL0     H73258   0.912   4.995   7.357  2.2723 -0.6303 -0.0003
  543MOL0     H73259   1.002   4.993   7.618  3.1337 -0.1195  1.8787
  543MOL0     H73260   1.110   5.113   7.547  2.7443 -0.6554 -2.7112
  543MOL0     H73261   1.188   4.987   7.376  1.6171 -0.1355  0.2658
  543MOL0     H73262   1.066   4.861   7.409  3.6774 -1.7823 -0.6043
  543MOL0     H73263   1.198   4.872   7.651  1.0335 -2.3975  0.9767
  543MOL0     H73264   1.319   4.940   7.540 -0.0721  0.2322 -0.6258
  543MOL0     H73265   1.150   4.516   7.504 -0.4634  0.7889  0.1606
  543MOL0     H73266   1.132   4.276   7.737  3.4590  2.0074  2.6068
  543MOL0     H73267   1.116   4.306   7.557  0.7901  2.1563 -0.2092
  543MOL0     H73268   1.246   4.207   7.609 -1.4794 -1.6853  1.1777
  543MOL0     H73269   1.461   4.079   7.935 -1.7158  3.9925 -1.0449
  543MOL0     H73270   1.450   3.898   8.103 -1.1307 -1.4280 -0.4037
  543MOL0     H73271   1.231   3.748   8.283 -0.7206  3.4613 -0.2123
  543MOL0     H73272   1.405   3.760   8.242 -1.9697 -0.9450 -1.6730
  543MOL0     H73273   1.445   3.725   8.513 -0.7905 -4.6411  2.0448
  543MOL0     H73274   1.269   3.745   8.514 -1.4077 -1.5318 -0.5929
  543MOL0     H73275   1.420   3.521   8.370 -1.6190  1.7065 -3.4728
  543MOL0     H73276   1.240   3.546   8.403 -0.8618 -0.4758  2.6597
  543MOL0     H73277   1.457   3.495   8.606  0.5943  1.4028 -0.4208
  543MOL0     H73278   1.309   3.552   8.659 -0.2185  2.0001 -0.0112
  543MOL0     H73279   1.362   3.289   8.519  0.3450  0.4404 -0.8924
  543MOL0     H73280   1.195   3.353   8.531  0.2234  1.3294 -3.0985
  543MOL0     H73281   1.378   3.311   8.769 -0.6804  2.7936  1.2988
  543MOL0     H73282   1.211   3.368   8.765  1.5234  1.8783 -1.6189
  543MOL0     H73283   1.312   3.096   8.655 -0.0031  1.9289 -2.1330
  543MOL0     H73284   1.143   3.137   8.651 -0.2212 -1.5452  0.4667
  543MOL0     H73285   1.127   3.161   8.896  2.2743  1.3366  0.4312
  543MOL0     H73286   1.279   3.058   8.904  0.6189 -1.6933 -1.6195
  543MOL0     H73287   1.184   4.132   8.337  0.2685 -2.1610  0.6889
  543MOL0     H73288   1.153   4.282   8.141  2.0640  1.7676 -1.4081
  543MOL0     H73289   1.508   4.569   7.823  1.4173 -0.1399 -0.7847
  543MOL0     H73290   1.458   4.756   7.673 -2.0093  0.6064 -1.6329
  543MOL0     H73291   1.230   6.472   7.263 -2.7425  0.2889  1.0278
  543MOL0     H73292   1.178   6.695   7.251 -0.5656  0.0158  1.3895
  543MOL0     H73293   1.346   7.163   7.309 -0.2312  0.2985 -1.2752
  543MOL0     H73294   1.286   7.403   7.334  1.1862  0.5336  3.1126
  543MOL0     H73295   1.134   7.555   7.299  0.9799  0.0010  0.3796
  543MOL0     H73296   0.965   7.536   7.326  0.4967  0.7054 -1.3532
  543MOL0     H73297   0.993   7.728   7.487  1.7970 -0.8460  0.9301
  543MOL0     H73298   1.005   7.757   7.310  1.3909 -1.4514 -2.5064
  543MOL0     H73299   1.172   7.874   7.370 -0.0976  0.6590  2.0343
  543MOL0     H73300   1.269   7.723   7.364  4.2163  3.2874  1.3303
  543MOL0     H73301   1.232   7.736   7.623  2.2024 -0.2232 -1.9578
  543MOL0     H73302   1.131   7.887   7.588 -0.2137  0.7078  1.3365
  543MOL0     H73303   1.541   7.995   7.630 -1.6417  3.9831 -1.7482
  543MOL0     H73304   0.995   7.302   7.628 -1.7897 -2.0440 -1.7360
  543MOL0     H73305   1.061   7.075   7.623  1.8408  1.8815  4.1967
  544MOL0     O73306   0.930  10.071   5.284 -0.0908 -0.2505 -0.3637
  544MOL0     C73307   0.829  10.047   5.222 -0.5034  0.0399  0.0658
  544MOL0     O73308   0.775   9.921   5.199  0.1472 -0.1028  0.1920
  544MOL0     C73309   0.815   9.821   5.290  0.8179  0.2219 -0.9533
  544MOL0     C73310   0.847   9.835   5.432  0.7307  0.0259 -0.1318
  544MOL0     C73311   0.857   9.721   5.506 -0.6788 -0.2230 -0.9697
  544MOL0     C73312   0.862   9.593   5.452  0.7762  0.2313  0.2591
  544MOL0     O73313   0.873   9.486   5.541 -0.1025 -0.5943 -0.6080
  544MOL0     C73314   0.760   9.391   5.540 -0.3639 -0.5266  0.9971
  544MOL0     C73315   0.627   9.456   5.568  0.5564  0.1987  0.2915
  544MOL0     C73316   0.615   9.521   5.708 -0.6325  0.7821  0.1937
  544MOL0     C73317   0.480   9.587   5.734 -0.4634  0.7100 -0.1723
  544MOL0     C73318   0.441   9.591   5.886  0.0899  0.2733 -0.3643
  544MOL0     C73319   0.295   9.570   5.921  0.9006 -0.5026  0.3904
  544MOL0     C73320   0.264   9.527   6.068  0.4890 -0.4806 -0.7427
  544MOL0     C73321   0.326   9.625   6.164  0.5061  0.7423  0.4623
  544MOL0     N73322   0.322   9.574   6.305  0.5957 -0.8114  0.7865
  544MOL0     C73323   0.205   9.536   6.371 -0.8584  0.1440  1.1193
  544MOL0     C73324   0.248   9.506   6.491 -1.0925 -0.2879  0.4926
  544MOL0     C73325   0.173   9.470   6.614 -0.5785 -0.4338  1.3842
  544MOL0     C73326   0.254   9.410   6.735  0.7816  0.2544  0.4821
  544MOL0     C73327   0.179   9.399   6.870 -0.3102  0.3253 -0.9083
  544MOL0     C73328   0.093   9.516   6.922 -0.9741 -0.2012 -0.3054
  544MOL0     O73329  -0.036   9.520   6.862 -0.6379 -0.0437  0.2311
  544MOL0     C73330  -0.125   9.429   6.913  0.2042 -0.4406  0.2632
  544MOL0     C73331  -0.149   9.413   7.044  0.6539  0.3365 -1.4891
  544MOL0     C73332  -0.220   9.296   7.096  1.0884 -0.5616  0.6588
  544MOL0     C73333  -0.254   9.295   7.247 -0.7257  0.0720  0.1749
  544MOL0     C73334  -0.257   9.196   7.007  0.1369 -0.6603 -0.0400
  544MOL0     C73335  -0.334   9.072   7.048  0.0648  1.0394  0.3029
  544MOL0     O73336  -0.372   9.065   7.178 -0.0021  0.8796 -0.5309
  544MOL0     C73337  -0.481   8.990   7.224 -0.2042 -1.4067 -0.0997
  544MOL0     C73338  -0.499   8.982   7.357 -0.3016  0.6178  0.6059
  544MOL0     C73339  -0.607   8.926   7.413  0.7260 -0.7112 -1.1066
  544MOL0     C73340  -0.722   8.881   7.342 -0.3402 -0.0937  0.5157
  544MOL0     O73341  -0.840   8.847   7.395  0.0850 -0.1561 -1.2765
  544MOL0     C73342  -0.857   8.834   7.540 -0.6094  1.3191  0.3191
  544MOL0     C73343  -0.779   8.711   7.602 -0.3935  0.6048  0.3869
  544MOL0     C73344  -0.831   8.568   7.571 -0.3064 -0.5754 -0.1324
  544MOL0     C73345  -0.747   8.472   7.643 -0.1457 -0.4127 -0.9695
  544MOL0     C73346  -0.795   8.330   7.643  0.0924  0.4086  0.6007
  544MOL0     C73347  -0.701   8.224   7.718 -0.1372  0.4132  0.2263
  544MOL0     C73348  -0.759   8.076   7.715 -0.2690 -0.1611  0.6072
  544MOL0     C73349  -0.786   8.023   7.849 -0.6293  0.2236 -0.7892
  544MOL0    Cl73350  -0.813   7.848   7.845  0.3961 -0.1495 -0.0174
  544MOL0     C73351  -0.707   8.880   7.202 -0.4045 -1.0667  0.4622
  544MOL0     C73352  -0.588   8.932   7.138 -0.2742  0.2153  0.0967
  544MOL0     O73353  -0.350   8.980   6.960 -0.2608  0.3093 -0.5278
  544MOL0     C73354  -0.232   9.218   6.868 -0.0963  0.2568 -0.2495
  544MOL0     C73355  -0.166   9.333   6.815  0.2923  1.6317  0.3617
  544MOL0     N73356   0.385   9.518   6.496 -0.3954  0.1893  0.0017
  544MOL0     N73357   0.433   9.559   6.382 -0.2316 -0.0496 -0.7314
  544MOL0     C73358   0.819   9.575   5.318  0.2570  0.0547 -0.2860
  544MOL0     C73359   0.800   9.692   5.238  0.3242  0.2525 -1.3373
  544MOL0     C73360   0.763  10.170   5.174  0.5234 -0.3816 -0.9482
  544MOL0     C73361   0.777  10.298   5.232  0.9606 -0.5039  0.3523
  544MOL0     C73362   0.718  10.416   5.178  0.1287  0.1001  0.5205
  544MOL0     C73363   0.647  10.408   5.057 -0.2909 -0.2117  0.4587
  544MOL0     O73364   0.598  10.517   4.988 -1.6666 -0.6050  0.2307
  544MOL0     C73365   0.699  10.607   4.940  0.2184  0.6231  0.6241
  544MOL0     C73366   0.664  10.668   4.806 -1.1171 -0.3187  0.1361
  544MOL0     C73367   0.606  10.817   4.824  0.1701  0.4975  0.0429
  544MOL0     C73368   0.604  10.884   4.683  0.2526  0.2443 -0.9826
  544MOL0     C73369   0.596  11.026   4.689 -0.5035 -0.2383  0.2488
  544MOL0     C73370   0.599  11.149   4.703  1.4592  0.4858 -0.7578
  544MOL0     C73371   0.635  10.280   5.001  0.2277  0.1268 -1.0731
  544MOL0     C73372   0.687  10.166   5.061  0.8957 -0.2322 -0.5013
  544MOL0     H73373   0.861   9.926   5.490 -1.4432  2.2591 -2.8268
  544MOL0     H73374   0.893   9.733   5.608 -4.3518 -2.1148  0.7141
  544MOL0     H73375   0.763   9.345   5.441  3.5547  1.0482  0.1784
  544MOL0     H73376   0.785   9.311   5.611 -0.4427  0.6103  2.3571
  544MOL0     H73377   0.590   9.520   5.487 -1.4044  0.9083  1.6805
  544MOL0     H73378   0.560   9.371   5.578  1.6750 -0.7632 -0.1640
  544MOL0     H73379   0.645   9.440   5.774 -2.7038  0.0470  0.2899
  544MOL0     H73380   0.689   9.602   5.702 -2.8224  2.9631  0.7063
  544MOL0     H73381   0.481   9.692   5.703  3.2415  0.6854 -0.5848
  544MOL0     H73382   0.406   9.533   5.675  2.1592 -0.7749 -2.3138
  544MOL0     H73383   0.509   9.521   5.935  1.2490 -1.9478 -4.6485
  544MOL0     H73384   0.460   9.696   5.912  0.4497  0.7687 -2.4318
  544MOL0     H73385   0.226   9.653   5.901 -3.0618 -3.3018  1.2315
  544MOL0     H73386   0.247   9.490   5.863 -0.4466 -0.8473  1.9092
  544MOL0     H73387   0.156   9.515   6.082  0.2738 -0.8474 -2.4642
  544MOL0     H73388   0.306   9.426   6.070 -0.9471 -1.0946  0.0082
  544MOL0     H73389   0.269   9.717   6.151 -0.8297 -0.1497 -0.2877
  544MOL0     H73390   0.426   9.659   6.135 -0.1138  1.1845 -1.2688
  544MOL0     H73391   0.102   9.526   6.337 -0.5640  2.0354 -0.5027
  544MOL0     H73392   0.129   9.566   6.645 -3.7632 -0.9434 -1.0441
  544MOL0     H73393   0.094   9.402   6.583 -0.7709  1.4042 -2.8780
  544MOL0     H73394   0.348   9.465   6.743  0.4619  0.9438 -0.3562
  544MOL0     H73395   0.284   9.309   6.705 -1.2954 -0.5603  0.9882
  544MOL0     H73396   0.249   9.370   6.949  1.5826 -0.5788 -2.8323
  544MOL0     H73397   0.108   9.316   6.872  0.6434 -0.4998  0.2280
  544MOL0     H73398   0.138   9.607   6.880  1.4590 -0.4864  1.4781
  544MOL0     H73399   0.098   9.494   7.029 -0.8352 -1.5871 -0.5762
  544MOL0     H73400  -0.117   9.480   7.124  0.8227  1.6674 -2.6505
  544MOL0     H73401  -0.204   9.372   7.306 -1.3857 -1.9333  3.6580
  544MOL0     H73402  -0.361   9.316   7.251 -0.2377  3.0731 -0.3730
  544MOL0     H73403  -0.224   9.201   7.295 -1.7604  1.4372  3.8102
  544MOL0     H73404  -0.413   8.995   7.422  0.2522 -0.6720  0.1669
  544MOL0     H73405  -0.607   8.898   7.518 -1.2668 -0.7329 -1.0838
  544MOL0     H73406  -0.820   8.923   7.591  0.8104 -0.6838  3.0399
  544MOL0     H73407  -0.964   8.824   7.563 -0.7776  2.2052 -0.0116
  544MOL0     H73408  -0.671   8.706   7.585 -0.3476 -1.1513  0.9544
  544MOL0     H73409  -0.770   8.736   7.708 -0.5120  3.1027 -0.1258
  544MOL0     H73410  -0.833   8.551   7.462  0.9395 -1.6280 -0.0159
  544MOL0     H73411  -0.932   8.560   7.613  1.0783  1.3701  4.1144
  544MOL0     H73412  -0.655   8.465   7.585  0.7316  1.8934  0.0205
  544MOL0     H73413  -0.734   8.511   7.745 -2.6553  1.7923 -1.3846
  544MOL0     H73414  -0.804   8.296   7.539 -1.1619 -0.8745  1.0982
  544MOL0     H73415  -0.899   8.337   7.676  0.0941  2.8347  0.3317
  544MOL0     H73416  -0.603   8.247   7.675  0.1135  3.5496  2.2085
  544MOL0     H73417  -0.696   8.253   7.823 -0.2780 -0.5333  0.5050
  544MOL0     H73418  -0.689   8.002   7.675 -0.7710 -0.3293  0.0203
  544MOL0     H73419  -0.851   8.078   7.657 -0.6607 -2.0354  1.0810
  544MOL0     H73420  -0.865   8.078   7.899 -0.9717 -2.2518  1.6020
  544MOL0     H73421  -0.701   8.044   7.914 -0.1020 -3.0298 -0.2607
  544MOL0     H73422  -0.792   8.854   7.139  0.0122  3.0065 -2.1464
  544MOL0     H73423  -0.587   8.934   7.030 -0.5402  0.6810  0.1015
  544MOL0     H73424  -0.263   9.134   6.806 -0.8006 -1.0575  1.7725
  544MOL0     H73425  -0.144   9.342   6.710  4.9069 -0.8564  0.8531
  544MOL0     H73426   0.826   9.476   5.275 -0.0265 -0.6864  1.3091
  544MOL0     H73427   0.776   9.668   5.135  1.0816 -1.0854 -1.2199
  544MOL0     H73428   0.830  10.313   5.325 -1.8148  0.1183  1.9607
  544MOL0     H73429   0.719  10.504   5.240 -0.7895  0.1316  0.5101
  544MOL0     H73430   0.706  10.685   5.016  0.7167  0.3074  0.9168
  544MOL0     H73431   0.793  10.551   4.931 -0.1060  0.2684 -0.6671
  544MOL0     H73432   0.595  10.611   4.741  0.2966 -0.1601 -1.5794
  544MOL0     H73433   0.759  10.673   4.753  0.0515  1.6765  2.2836
  544MOL0     H73434   0.683  10.867   4.884  0.0439 -0.2993  0.8945
  544MOL0     H73435   0.507  10.827   4.869  1.1038  1.2779  2.0160
  544MOL0     H73436   0.515  10.845   4.633 -0.3809 -4.0241  2.8392
  544MOL0     H73437   0.693  10.851   4.628  1.8263  2.6385 -0.0358
  544MOL0     H73438   0.586  11.251   4.733 -0.9687  0.3804 -1.2586
  544MOL0     H73439   0.593  10.269   4.902 -5.3453 -1.1633  1.0675
  544MOL0     H73440   0.666  10.068   5.018  2.8341 -0.8104 -0.1942
  545MOL0     O73441   2.624   2.460   9.906  0.1062  0.2514 -0.0363
  545MOL0     C73442   2.683   2.370   9.969  0.1481  0.0672  0.4885
  545MOL0     O73443   2.625   2.249  10.015 -1.1971 -0.6446 -0.2024
  545MOL0     C73444   2.492   2.244  10.006  0.1802 -0.6476 -1.0838
  545MOL0     C73445   2.432   2.210   9.892  0.0742 -0.0926  0.7001
  545MOL0     C73446   2.291   2.208   9.892  0.1132  0.4485 -0.2278
  545MOL0     C73447   2.212   2.242  10.007  0.1651  0.5062 -0.0444
  545MOL0     O73448   2.074   2.234   9.987  0.2277  0.1038  0.5275
  545MOL0     C73449   2.018   2.187  10.114 -0.4106  0.0235  0.0229
  545MOL0     C73450   1.875   2.141  10.095  0.3251  0.4383 -0.1928
  545MOL0     C73451   1.797   2.106  10.217 -0.5892  0.9265  0.8585
  545MOL0     C73452   1.882   2.002  10.301  0.1655  0.2348 -0.0872
  545MOL0     C73453   1.922   1.878  10.218  0.0731  0.5491  0.0615
  545MOL0     C73454   1.916   1.753  10.321 -0.1735  0.1995  0.7429
  545MOL0     C73455   1.970   1.623  10.253 -0.5483 -0.0362 -0.1146
  545MOL0     C73456   1.934   1.487  10.319 -0.1508  0.1960 -0.3047
  545MOL0     N73457   1.980   1.499  10.461  0.5036  0.2054  0.7338
  545MOL0     C73458   2.110   1.504  10.490  0.3862 -0.1352 -0.3446
  545MOL0     C73459   2.111   1.516  10.630  0.2032  1.3333  0.0318
  545MOL0     C73460   2.212   1.504  10.735 -0.4069 -0.4749 -0.5922
  545MOL0     C73461   2.247   1.368  10.785 -0.4538 -0.1339 -0.2053
  545MOL0     C73462   2.139   1.311  10.871  0.3626  0.4696  0.1169
  545MOL0     C73463   2.165   1.168  10.923 -0.7696  0.5405 -0.4726
  545MOL0     O73464   2.281   1.178  11.009  0.3470 -0.3978 -0.2988
  545MOL0     C73465   2.250   1.193  11.139 -0.1971 -0.5475 -1.1366
  545MOL0     C73466   2.282   1.312  11.201  0.8090  0.8031 -0.1003
  545MOL0     C73467   2.251   1.334  11.339 -0.7240 -0.3412  0.0441
  545MOL0     C73468   2.303   1.466  11.404  0.9889  0.3081 -0.0433
  545MOL0     C73469   2.206   1.223  11.411  0.2707 -0.2588  0.9394
  545MOL0     C73470   2.192   1.242  11.555  0.0607  0.0613 -0.3907
  545MOL0     O73471   2.124   1.358  11.597 -0.4783  0.2089 -0.5088
  545MOL0     C73472   2.126   1.377  11.728  0.2460  0.1150 -0.6102
  545MOL0     C73473   2.012   1.386  11.804  0.5357 -0.9335  0.0403
  545MOL0     C73474   2.016   1.427  11.940  0.0151  0.2954  0.4918
  545MOL0     C73475   2.132   1.439  12.012 -0.2587  0.0172 -0.8346
  545MOL0     O73476   2.144   1.466  12.148  0.1129  0.8982  0.2653
  545MOL0     C73477   2.242   1.404  12.231 -0.1097  1.1200  0.0402
  545MOL0     C73478   2.225   1.251  12.235  0.6851 -0.4201 -0.0909
  545MOL0     C73479   2.346   1.186  12.318  1.3482 -0.0710 -0.1311
  545MOL0     C73480   2.326   1.035  12.320 -0.2011  1.0202  0.8916
  545MOL0     C73481   2.402   0.950  12.423  0.0472  0.4361  0.2571
  545MOL0     C73482   2.381   0.792  12.393  0.1270 -0.9351 -0.0949
  545MOL0     C73483   2.476   0.711  12.468  0.5039 -0.1982 -0.0529
  545MOL0     C73484   2.411   0.573  12.501 -0.5801 -1.2876  0.9551
  545MOL0    Cl73485   2.361   0.485  12.340 -0.3649 -0.0006 -0.4292
  545MOL0     C73486   2.254   1.442  11.931  0.5157 -0.1175 -0.0600
  545MOL0     C73487   2.246   1.415  11.792 -0.4948 -0.9582  0.6890
  545MOL0     O73488   2.228   1.147  11.629  0.0191  0.6262  0.4211
  545MOL0     C73489   2.188   1.097  11.352  0.1883 -0.5349  1.0134
  545MOL0     C73490   2.209   1.081  11.215 -0.6390 -0.2442 -0.2175
  545MOL0     N73491   1.980   1.520  10.678  0.8859  0.3005 -0.1194
  545MOL0     N73492   1.904   1.514  10.576  0.0336  0.0929  0.0780
  545MOL0     C73493   2.282   2.270  10.121 -0.7517  0.6063  0.1721
  545MOL0     C73494   2.423   2.274  10.122  0.2599  0.5140 -1.0499
  545MOL0     C73495   2.828   2.385   9.998  0.0204 -0.4585  0.1466
  545MOL0     C73496   2.895   2.303  10.091  0.0151  0.0572 -0.1729
  545MOL0     C73497   3.029   2.321  10.121 -0.0217 -0.3276  0.0339
  545MOL0     C73498   3.100   2.423  10.059  0.3429 -1.0886  0.5766
  545MOL0     O73499   3.229   2.477  10.093  0.6096 -0.2240 -0.6750
  545MOL0     C73500   3.299   2.396  10.182  0.2144  0.2224  0.4756
  545MOL0     C73501   3.429   2.466  10.221  0.1073 -0.2723  0.6016
  545MOL0     C73502   3.524   2.364  10.270 -0.2066 -0.3627 -0.3341
  545MOL0     C73503   3.672   2.407  10.255 -0.4328  0.0540 -0.4639
  545MOL0     C73504   3.710   2.488  10.372 -0.3438 -0.6384 -0.0035
  545MOL0     C73505   3.737   2.565  10.466  0.3082  0.3756  0.9118
  545MOL0     C73506   3.028   2.511   9.969  0.2155  0.8007 -0.2867
  545MOL0     C73507   2.900   2.480   9.932  0.3211 -0.1510  0.7562
  545MOL0     H73508   2.493   2.197   9.803  0.6881  3.1630  0.4863
  545MOL0     H73509   2.246   2.168   9.801 -1.9396 -3.1978  2.1657
  545MOL0     H73510   2.069   2.101  10.160 -3.2995 -0.3114  2.9892
  545MOL0     H73511   2.023   2.268  10.187  1.8257  0.6208 -0.7193
  545MOL0     H73512   1.817   2.219  10.046  2.0875  2.2589  0.5048
  545MOL0     H73513   1.864   2.047  10.040  3.6768  0.0759 -0.4296
  545MOL0     H73514   1.776   2.200  10.270  1.0951  1.5672  0.4436
  545MOL0     H73515   1.698   2.063  10.203 -0.2240  0.0049  1.0240
  545MOL0     H73516   1.977   2.049  10.328  0.6022  0.5715 -2.0526
  545MOL0     H73517   1.827   1.963  10.387 -0.4438  1.6220  0.1661
  545MOL0     H73518   1.852   1.854  10.138 -2.9571  2.3506  1.9773
  545MOL0     H73519   2.017   1.887  10.164 -0.8385  0.1405 -1.6876
  545MOL0     H73520   1.964   1.781  10.416  1.5559  1.9922 -0.5790
  545MOL0     H73521   1.814   1.731  10.353  0.1278  0.3507  1.8463
  545MOL0     H73522   1.939   1.622  10.148 -1.5387 -2.5890  0.1163
  545MOL0     H73523   2.078   1.643  10.248 -0.1470 -1.2981  2.0735
  545MOL0     H73524   1.979   1.398  10.273  2.2473  2.4733 -2.7280
  545MOL0     H73525   1.827   1.463  10.325  0.1409 -1.5411 -1.3150
  545MOL0     H73526   2.194   1.505  10.420 -0.7652 -0.1055 -1.7759
  545MOL0     H73527   2.306   1.540  10.692  0.5748 -2.3430 -0.0984
  545MOL0     H73528   2.172   1.574  10.810  0.4176  2.1451 -2.4514
  545MOL0     H73529   2.338   1.384  10.845 -1.4619 -3.0473  2.3509
  545MOL0     H73530   2.268   1.296  10.705 -2.1950 -0.1989 -0.6332
  545MOL0     H73531   2.042   1.299  10.821  0.7938 -0.5750 -0.5196
  545MOL0     H73532   2.120   1.376  10.957 -0.7879  1.4947 -0.8701
  545MOL0     H73533   2.181   1.099  10.840 -0.4193 -1.1346  0.9336
  545MOL0     H73534   2.079   1.126  10.977 -1.8812  1.1575 -1.6915
  545MOL0     H73535   2.332   1.389  11.144  0.4429  1.3507  0.3042
  545MOL0     H73536   2.370   1.448  11.488  0.2825  0.2625  0.5207
  545MOL0     H73537   2.355   1.529  11.330  0.4980  0.7028 -0.0615
  545MOL0     H73538   2.218   1.526  11.438 -0.6733  0.0588 -3.3140
  545MOL0     H73539   1.922   1.360  11.749 -0.9451 -2.7875  3.0553
  545MOL0     H73540   1.919   1.442  11.985  0.4878  1.1952  1.2286
  545MOL0     H73541   2.341   1.432  12.195  0.2341  0.0762  0.1353
  545MOL0     H73542   2.216   1.439  12.331  2.0774  0.6070  0.8525
  545MOL0     H73543   2.138   1.230  12.298  2.7985  1.4590  3.8849
  545MOL0     H73544   2.221   1.205  12.136  1.3213  0.8732 -0.7526
  545MOL0     H73545   2.333   1.212  12.424 -0.5045  1.3988 -0.6528
  545MOL0     H73546   2.441   1.218  12.274  1.7605 -2.1329 -0.8276
  545MOL0     H73547   2.219   1.013  12.325 -0.0717 -0.3823 -1.1328
  545MOL0     H73548   2.356   0.988  12.225 -3.7031 -0.1722  0.2323
  545MOL0     H73549   2.371   0.975  12.525  1.6194 -0.8337  1.0842
  545MOL0     H73550   2.509   0.973  12.426  0.5348 -1.7355  1.4986
  545MOL0     H73551   2.284   0.756  12.428  0.4955 -4.4211 -2.1425
  545MOL0     H73552   2.392   0.770  12.286  1.0251  0.3770 -0.2904
  545MOL0     H73553   2.501   0.761  12.562 -1.1986 -1.7169  1.2835
  545MOL0     H73554   2.567   0.709  12.408 -0.2233  2.3514 -1.3559
  545MOL0     H73555   2.320   0.596  12.558 -2.8760 -0.0052 -2.8758
  545MOL0     H73556   2.476   0.514  12.566 -1.6600 -1.0179  2.3186
  545MOL0     H73557   2.353   1.447  11.976  1.1560  0.2519 -1.4597
  545MOL0     H73558   2.328   1.408  11.721  0.0673 -0.5223  1.2820
  545MOL0     H73559   2.164   1.012  11.415 -3.6600 -0.6249 -0.2917
  545MOL0     H73560   2.214   0.979  11.178  3.5787 -2.0847  4.3025
  545MOL0     H73561   2.228   2.289  10.213  1.0120 -1.8830  1.8184
  545MOL0     H73562   2.471   2.301  10.216 -2.8159  2.4914  0.0879
  545MOL0     H73563   2.848   2.222  10.145 -1.9917 -1.3343 -3.6884
  545MOL0     H73564   3.070   2.239  10.178 -0.5074 -2.0926 -2.0370
  545MOL0     H73565   3.243   2.353  10.265  2.1874 -2.2300  0.6386
  545MOL0     H73566   3.328   2.311  10.120  0.9653  0.1414  0.9273
  545MOL0     H73567   3.412   2.543  10.297  0.9112  0.4600  0.0484
  545MOL0     H73568   3.482   2.515  10.139  0.7749 -0.3596  0.9711
  545MOL0     H73569   3.522   2.274  10.207 -1.3615 -0.8397  0.3381
  545MOL0     H73570   3.507   2.333  10.373  1.1389  0.5585  0.1830
  545MOL0     H73571   3.678   2.462  10.161 -0.2270  1.2649  0.2451
  545MOL0     H73572   3.734   2.317  10.245 -2.3826 -1.2358 -1.6700
  545MOL0     H73573   3.761   2.622  10.555 -4.4494 -0.2107  2.8782
  545MOL0     H73574   3.075   2.595   9.920 -0.0019  1.4739  0.6268
  545MOL0     H73575   2.856   2.559   9.871  0.2240  2.4752  3.9380
  546MOL0     O73576   9.283   4.271  10.416  0.4419 -0.5992 -0.1365
  546MOL0     C73577   9.251   4.255  10.537  0.5159  0.2259  0.7435
  546MOL0     O73578   9.298   4.325  10.643  0.1007 -0.0727  0.2809
  546MOL0     C73579   9.349   4.446  10.615  0.1207 -0.6950 -0.0592
  546MOL0     C73580   9.272   4.566  10.636 -0.4022 -0.4440 -0.6866
  546MOL0     C73581   9.334   4.691  10.599  0.3099 -0.9125 -0.0081
  546MOL0     C73582   9.462   4.707  10.547 -0.7807 -0.1624 -0.1997
  546MOL0     O73583   9.522   4.826  10.512  0.8038  0.3965  0.1056
  546MOL0     C73584   9.479   4.934  10.582 -0.0566  0.0705 -0.6220
  546MOL0     C73585   9.578   5.051  10.566  0.0490 -0.5880  0.3715
  546MOL0     C73586   9.602   5.088  10.429 -0.0653  1.2282  0.4213
  546MOL0     C73587   9.680   5.223  10.438 -0.1287  0.9642  0.0881
  546MOL0     C73588   9.763   5.257  10.315 -0.2551  0.3675  0.5511
  546MOL0     C73589   9.769   5.406  10.279 -0.0708  0.2406 -0.0202
  546MOL0     C73590   9.841   5.490  10.379 -0.0514 -0.0209 -0.4153
  546MOL0     C73591   9.981   5.441  10.399 -0.0569  0.6008  0.0833
  546MOL0     N73592  10.073   5.540  10.447  0.5896 -0.4855  0.1464
  546MOL0     C73593  10.056   5.601  10.570 -1.1492 -0.1978 -0.1270
  546MOL0     C73594  10.147   5.703  10.570 -0.5926  0.6683 -0.0758
  546MOL0     C73595  10.176   5.796  10.687 -0.7925  0.2542 -0.1542
  546MOL0     C73596  10.066   5.893  10.720 -0.3317  0.7679 -0.1388
  546MOL0     C73597  10.051   6.003  10.623  0.1035  0.5929 -0.5463
  546MOL0     C73598   9.946   6.113  10.646  0.9014  0.1556  0.1504
  546MOL0     O73599   9.826   6.049  10.668  0.7368 -0.1608  0.2201
  546MOL0     C73600   9.750   6.024  10.554 -0.0823  0.9274 -0.2763
  546MOL0     C73601   9.674   5.907  10.557  0.3839 -0.3300 -0.9213
  546MOL0     C73602   9.597   5.864  10.447 -0.5362  0.6501  0.0853
  546MOL0     C73603   9.544   5.720  10.464  0.4338  0.1524  0.1281
  546MOL0     C73604   9.580   5.950  10.336  0.4481 -0.7494 -0.1474
  546MOL0     C73605   9.476   5.924  10.228 -1.6558  0.2950 -0.2479
  546MOL0     O73606   9.474   6.018  10.118  0.4203 -0.0308  0.3337
  546MOL0     C73607   9.392   6.004  10.004  0.9546 -0.6038 -1.0119
  546MOL0     C73608   9.453   5.991   9.879 -0.9429 -0.1021  0.5056
  546MOL0     C73609   9.389   6.006   9.748 -0.8406  0.1107  0.3069
  546MOL0     C73610   9.245   6.016   9.754  0.0169 -0.3119  0.2021
  546MOL0     O73611   9.168   6.050   9.642 -0.5881  0.2129  0.3810
  546MOL0     C73612   9.051   5.969   9.607 -0.5245 -0.2527  0.2334
  546MOL0     C73613   9.098   5.837   9.556 -0.5522  0.5094  0.2476
  546MOL0     C73614   9.168   5.847   9.416 -0.3018 -0.6169 -0.2864
  546MOL0     C73615   9.251   5.729   9.382 -0.8363 -0.4831 -0.1174
  546MOL0     C73616   9.318   5.754   9.251 -0.3641 -0.7289  0.5648
  546MOL0     C73617   9.241   5.711   9.128 -0.3490 -0.2734  0.1040
  546MOL0     C73618   9.291   5.579   9.056  0.5954 -0.5276 -0.5567
  546MOL0     C73619   9.225   5.561   8.923 -0.9842 -0.4933 -0.0835
  546MOL0    Cl73620   9.290   5.684   8.804  0.6577 -0.0430 -0.1407
  546MOL0     C73621   9.175   6.030   9.881 -0.3928  0.2442  0.3329
  546MOL0     C73622   9.250   6.027  10.000 -0.2199  0.0599  0.6286
  546MOL0     O73623   9.406   5.827  10.241  0.0336 -0.2480  0.1924
  546MOL0     C73624   9.653   6.068  10.330 -1.4397 -0.0115 -0.0862
  546MOL0     C73625   9.742   6.100  10.430 -0.2736 -0.0318 -0.2420
  546MOL0     N73626  10.213   5.708  10.447 -0.2887  0.4357 -0.1549
  546MOL0     N73627  10.187   5.594  10.394 -0.1161 -0.0796  0.8212
  546MOL0     C73628   9.539   4.593  10.542  0.6555  1.2051  0.7044
  546MOL0     C73629   9.487   4.468  10.577  1.3411  0.0042  0.6405
  546MOL0     C73630   9.149   4.156  10.583 -0.1977  0.2989 -0.3752
  546MOL0     C73631   9.079   4.084  10.489 -0.3599  0.9540 -0.7680
  546MOL0     C73632   8.981   3.994  10.534 -0.0615  1.2774 -0.5020
  546MOL0     C73633   8.957   3.971  10.671 -0.0667  0.1981  0.0384
  546MOL0     O73634   8.865   3.877  10.723  1.1089 -0.3408 -0.3965
  546MOL0     C73635   8.770   3.809  10.639  0.4845  0.1410  0.2110
  546MOL0     C73636   8.650   3.812  10.737  0.2604 -0.5885  0.2581
  546MOL0     C73637   8.527   3.767  10.668 -0.4203 -0.5093 -0.5098
  546MOL0     C73638   8.429   3.722  10.775  0.5130  0.7055  0.6935
  546MOL0     C73639   8.346   3.839  10.822  0.8389 -0.5487  0.7157
  546MOL0     C73640   8.281   3.938  10.862  0.7053  0.0812  0.8784
  546MOL0     C73641   9.025   4.045  10.767 -0.0920 -0.1379  0.5858
  546MOL0     C73642   9.124   4.136  10.717 -0.2250  0.7982 -0.7823
  546MOL0     H73643   9.171   4.564  10.673  0.3329 -1.0683  1.3868
  546MOL0     H73644   9.284   4.777  10.644  0.8761 -1.1013  1.0286
  546MOL0     H73645   9.376   4.957  10.555 -0.9893 -2.3114  0.6599
  546MOL0     H73646   9.483   4.921  10.691  0.6345  3.8189 -0.0399
  546MOL0     H73647   9.548   5.132  10.633 -2.5868  0.6215 -2.0050
  546MOL0     H73648   9.675   5.017  10.602  0.1575 -0.3212  0.3327
  546MOL0     H73649   9.662   5.005  10.392 -2.8718 -0.7203 -0.0806
  546MOL0     H73650   9.512   5.088  10.368 -0.1037 -0.6094  0.4244
  546MOL0     H73651   9.613   5.309  10.447 -0.6399  0.4690  1.2263
  546MOL0     H73652   9.744   5.219  10.527 -1.5706 -1.2181  1.1176
  546MOL0     H73653   9.866   5.225  10.332 -0.3767 -0.9419 -0.9453
  546MOL0     H73654   9.716   5.220  10.223 -0.5709  3.2358 -0.5496
  546MOL0     H73655   9.822   5.409  10.183  0.8416 -2.2674  0.3371
  546MOL0     H73656   9.668   5.448  10.274 -0.7491 -1.0087  2.2038
  546MOL0     H73657   9.850   5.596  10.353  2.9027 -0.2630 -0.8210
  546MOL0     H73658   9.788   5.488  10.475  0.4476 -2.4685 -0.1277
  546MOL0     H73659  10.012   5.396  10.304  0.3654  1.6863 -0.3053
  546MOL0     H73660   9.982   5.359  10.470 -0.7815  1.3370  0.9696
  546MOL0     H73661   9.990   5.568  10.650  1.5349 -1.0191  1.8735
  546MOL0     H73662  10.202   5.743  10.779 -1.9369 -0.9894 -0.5071
  546MOL0     H73663  10.264   5.852  10.655  0.0113 -0.3967  0.8802
  546MOL0     H73664  10.073   5.920  10.826  0.1733 -2.0485  0.6410
  546MOL0     H73665   9.975   5.833  10.729  0.9674 -1.0811  2.0076
  546MOL0     H73666  10.023   5.969  10.523  1.2153  1.0406 -1.0179
  546MOL0     H73667  10.152   6.045  10.623  0.1143  0.5797 -1.5120
  546MOL0     H73668   9.957   6.181  10.561 -1.0094 -2.1938 -2.1984
  546MOL0     H73669   9.967   6.165  10.739  0.7943  1.1406 -0.3652
  546MOL0     H73670   9.674   5.840  10.642  0.0496 -1.8506 -2.0802
  546MOL0     H73671   9.436   5.726  10.476  0.3725 -0.0965 -0.2677
  546MOL0     H73672   9.575   5.663  10.376  0.3319  0.6426 -0.2285
  546MOL0     H73673   9.589   5.677  10.555  0.4178  2.6148  1.3820
  546MOL0     H73674   9.558   5.966   9.876 -0.7500  0.6191  0.9153
  546MOL0     H73675   9.448   6.003   9.657 -1.7404 -2.4174 -0.2955
  546MOL0     H73676   9.000   5.962   9.704  1.6850 -2.3128  1.3366
  546MOL0     H73677   9.008   6.027   9.524 -1.4266  0.5282  1.2054
  546MOL0     H73678   9.171   5.785   9.617  0.0305 -1.7814 -2.1903
  546MOL0     H73679   9.017   5.764   9.542  0.4994 -0.6934  0.2883
  546MOL0     H73680   9.223   5.941   9.428 -0.5688 -0.4962  0.0269
  546MOL0     H73681   9.090   5.870   9.342 -0.2937  1.6578  0.3238
  546MOL0     H73682   9.331   5.722   9.456 -0.9318  0.2592  0.0676
  546MOL0     H73683   9.189   5.640   9.390  1.8745 -2.3180  3.1394
  546MOL0     H73684   9.415   5.704   9.241 -0.4953 -0.7988 -0.5084
  546MOL0     H73685   9.339   5.862   9.250  2.8532 -1.1859  2.5737
  546MOL0     H73686   9.136   5.685   9.147  0.0019 -2.5059 -0.7161
  546MOL0     H73687   9.231   5.795   9.058  1.0859  1.2512  1.6240
  546MOL0     H73688   9.272   5.490   9.117  4.8694  1.2904  4.1448
  546MOL0     H73689   9.399   5.590   9.049  0.5241  0.9110  0.1294
  546MOL0     H73690   9.116   5.558   8.928 -1.3440  2.8042 -2.4603
  546MOL0     H73691   9.250   5.458   8.896  2.1049 -0.2992  1.5555
  546MOL0     H73692   9.070   6.050   9.898 -0.4815  0.3105 -0.2849
  546MOL0     H73693   9.201   6.049  10.095 -0.9674  0.3677  0.1813
  546MOL0     H73694   9.645   6.130  10.242 -1.1175  1.9129  1.1729
  546MOL0     H73695   9.793   6.196  10.434 -1.4238  0.5753  0.4966
  546MOL0     H73696   9.639   4.598  10.500  0.7829  2.2027  1.1129
  546MOL0     H73697   9.538   4.374  10.562 -1.6904 -2.0334  1.9165
  546MOL0     H73698   9.094   4.096  10.382 -0.7139  0.7696 -0.8398
  546MOL0     H73699   8.939   3.933  10.455  2.7017  0.7123 -1.6632
  546MOL0     H73700   8.742   3.856  10.545  0.5989 -2.5914 -1.2839
  546MOL0     H73701   8.801   3.708  10.613  3.1674  1.3685 -1.8196
  546MOL0     H73702   8.626   3.910  10.778 -0.0583 -0.1268 -0.9816
  546MOL0     H73703   8.679   3.752  10.823 -1.3040 -1.2870  0.3429
  546MOL0     H73704   8.554   3.682  10.604  1.2755  0.0119 -0.5195
  546MOL0     H73705   8.473   3.839  10.605 -1.7657 -2.9662 -2.3567
  546MOL0     H73706   8.477   3.668  10.857 -1.0309 -0.1391  1.0867
  546MOL0     H73707   8.362   3.653  10.721 -3.3251  3.6844  1.1690
  546MOL0     H73708   8.231   4.028  10.894 -0.6257 -0.6445  0.9006
  546MOL0     H73709   9.003   4.043  10.874 -0.9565 -1.0039  0.4055
  546MOL0     H73710   9.181   4.194  10.788  0.2473 -2.0697  1.3801
  547MOL0     O73711   7.516   8.498   3.355  0.0130  0.0268 -0.2892
  547MOL0     C73712   7.628   8.499   3.302 -0.2337 -0.3950 -0.1430
  547MOL0     O73713   7.718   8.594   3.334 -0.1508 -0.1131 -0.3618
  547MOL0     C73714   7.689   8.702   3.428 -1.5089  0.1717 -0.5826
  547MOL0     C73715   7.780   8.727   3.529 -0.4338 -0.5955  0.3317
  547MOL0     C73716   7.755   8.845   3.608 -0.7251  0.0095  0.1396
  547MOL0     C73717   7.647   8.931   3.582 -0.3665 -0.0150  0.5637
  547MOL0     O73718   7.640   9.053   3.651 -0.5683  0.3333 -0.3026
  547MOL0     C73719   7.705   9.057   3.778  0.6038  0.2292 -0.9609
  547MOL0     C73720   7.683   9.219   3.812  0.3128  0.3942 -0.5913
  547MOL0     C73721   7.714   9.247   3.963  0.6144  0.3497  1.6108
  547MOL0     C73722   7.685   9.398   3.998 -0.2856  0.8242  0.0801
  547MOL0     C73723   7.805   9.490   3.975  1.3830  0.1642  0.7409
  547MOL0     C73724   7.757   9.630   3.938  0.7552  0.2585 -0.3259
  547MOL0     C73725   7.866   9.734   3.960  0.1273 -0.2475 -0.2003
  547MOL0     C73726   7.816   9.879   3.952  0.5068  0.1269  0.1842
  547MOL0     N73727   7.936   9.955   3.999  0.2887 -0.0924  0.9793
  547MOL0     C73728   7.994   9.953   4.119  0.3133  0.5210  0.1174
  547MOL0     C73729   8.112  10.018   4.104 -1.0139 -1.3399  0.4213
  547MOL0     C73730   8.217  10.034   4.201  0.7303  0.5188  0.2539
  547MOL0     C73731   8.181   9.997   4.350 -0.3082  0.3845 -1.1415
  547MOL0     C73732   8.281  10.040   4.455  0.5598 -0.3334  0.0570
  547MOL0     C73733   8.208  10.053   4.592 -0.4310  0.0607  1.3097
  547MOL0     O73734   8.305  10.056   4.700 -0.4992 -0.2767  0.0516
  547MOL0     C73735   8.369  10.176   4.724 -0.1718  0.2629  0.8572
  547MOL0     C73736   8.508  10.184   4.734 -0.1816  0.5436 -0.0362
  547MOL0     C73737   8.577  10.302   4.757  0.1402 -0.4214  0.0463
  547MOL0     C73738   8.724  10.296   4.779 -0.2584 -0.3331  0.2257
  547MOL0     C73739   8.504  10.420   4.758 -0.2574  0.4505 -0.2782
  547MOL0     C73740   8.561  10.556   4.797  0.2968 -0.7954 -0.5389
  547MOL0     O73741   8.666  10.556   4.892  0.1821 -0.5588  0.0430
  547MOL0     C73742   8.718  10.679   4.932  0.8657  0.9292 -0.5035
  547MOL0     C73743   8.804  10.757   4.852  0.6755  1.0558 -0.5821
  547MOL0     C73744   8.862  10.879   4.888  0.9190  0.0498  1.0431
  547MOL0     C73745   8.840  10.923   5.023  1.4255 -0.7482 -0.0678
  547MOL0     O73746   8.889  11.056   5.042 -0.4517 -0.2658 -0.4003
  547MOL0     C73747   8.907  11.106   5.181 -0.0337  0.4624 -0.2899
  547MOL0     C73748   8.781  11.168   5.239  0.1734 -0.1164  0.1199
  547MOL0     C73749   8.786  11.319   5.228  0.3815  0.0149  0.1278
  547MOL0     C73750   8.715  11.391   5.351 -0.0238  0.9325 -0.2100
  547MOL0     C73751   8.743  11.536   5.357 -0.6319 -0.5629  0.1142
  547MOL0     C73752   8.637  11.613   5.280 -0.1382 -0.6970 -0.2068
  547MOL0     C73753   8.646  11.767   5.313 -0.1823 -0.1022  0.3818
  547MOL0     C73754   8.576  11.858   5.222 -0.1318  0.2683 -0.5841
  547MOL0    Cl73755   8.642  11.855   5.048  0.8373 -0.1003  0.2137
  547MOL0     C73756   8.762  10.842   5.108  0.1579  0.8758  0.2018
  547MOL0     C73757   8.680  10.732   5.057 -0.3838 -0.1786  0.4284
  547MOL0     O73758   8.513  10.651   4.738  0.2933 -0.4836 -0.4901
  547MOL0     C73759   8.364  10.413   4.726  0.1604  0.7022 -0.6376
  547MOL0     C73760   8.295  10.296   4.727 -0.7516  0.4191 -0.4290
  547MOL0     N73761   8.121  10.070   3.972  0.1356  0.5801  0.5482
  547MOL0     N73762   8.018  10.023   3.912  0.4301 -0.0489  0.0912
  547MOL0     C73763   7.563   8.914   3.470 -0.0029 -0.8304  0.9318
  547MOL0     C73764   7.580   8.792   3.404  0.5070  1.1351 -0.6453
  547MOL0     C73765   7.658   8.413   3.184  0.3522  0.1809  0.2417
  547MOL0     C73766   7.578   8.295   3.163 -0.6257 -0.3296  1.2613
  547MOL0     C73767   7.593   8.229   3.043  1.5925  0.0535  0.6358
  547MOL0     C73768   7.694   8.252   2.948  0.8414 -1.0315  0.4121
  547MOL0     O73769   7.718   8.185   2.832 -0.0392 -0.5146 -1.3806
  547MOL0     C73770   7.674   8.048   2.826 -0.2603  0.0945  0.6152
  547MOL0     C73771   7.640   7.998   2.684 -0.3641 -1.8767  0.6751
  547MOL0     C73772   7.599   7.849   2.672  0.3046  0.3582  0.1134
  547MOL0     C73773   7.583   7.800   2.530  0.1483 -0.5479 -0.4851
  547MOL0     C73774   7.542   7.658   2.529  0.0486 -0.1483 -0.3778
  547MOL0     C73775   7.488   7.551   2.512 -0.0591  0.4063 -0.1434
  547MOL0     C73776   7.770   8.366   2.980  0.3164  0.5282  0.1223
  547MOL0     C73777   7.756   8.448   3.090  0.2246  0.9231 -0.4637
  547MOL0     H73778   7.867   8.668   3.557  0.3364  1.0280  1.5144
  547MOL0     H73779   7.812   8.858   3.700 -3.3055 -0.8255  1.9643
  547MOL0     H73780   7.646   8.998   3.848  0.6032 -0.2414 -1.3501
  547MOL0     H73781   7.807   9.018   3.781  0.0476 -1.2134  0.7040
  547MOL0     H73782   7.741   9.277   3.738 -1.3407  2.7936 -0.1082
  547MOL0     H73783   7.577   9.236   3.796  0.4951  0.6422 -1.6250
  547MOL0     H73784   7.651   9.175   4.017 -0.7315  0.7372  0.6203
  547MOL0     H73785   7.819   9.219   3.978  0.5013 -2.2620 -1.2757
  547MOL0     H73786   7.600   9.422   3.933 -1.9139 -0.3705  1.6763
  547MOL0     H73787   7.667   9.415   4.104  0.4819  0.3979  0.2813
  547MOL0     H73788   7.856   9.483   4.072  0.8826  0.9313  1.0716
  547MOL0     H73789   7.868   9.450   3.895  0.2899  1.3151 -0.7294
  547MOL0     H73790   7.730   9.634   3.832 -0.7602  1.2957  0.0659
  547MOL0     H73791   7.674   9.667   3.999 -0.4046  1.0796 -2.3208
  547MOL0     H73792   7.895   9.721   4.064 -1.4858  1.5872  0.5509
  547MOL0     H73793   7.948   9.724   3.888  1.2737  2.8007  0.5167
  547MOL0     H73794   7.731   9.914   4.011 -1.1842 -0.6312 -1.6874
  547MOL0     H73795   7.788   9.914   3.852  0.5500  2.7778  1.0114
  547MOL0     H73796   7.956   9.899   4.205 -0.7392 -1.3848 -1.4490
  547MOL0     H73797   8.295   9.966   4.167  1.0892  2.4372 -3.2597
  547MOL0     H73798   8.255  10.137   4.200  0.6825  0.5348 -0.2893
  547MOL0     H73799   8.175   9.889   4.365  2.0981  0.5960  2.6241
  547MOL0     H73800   8.086  10.048   4.368 -1.2334 -0.7774 -2.5088
  547MOL0     H73801   8.325  10.133   4.417 -1.5528  0.4780 -0.5358
  547MOL0     H73802   8.352   9.957   4.462 -1.0691 -1.9257 -1.2973
  547MOL0     H73803   8.148   9.962   4.601  0.2333 -0.4427  0.8017
  547MOL0     H73804   8.139  10.138   4.588  1.6391  1.8458 -2.4261
  547MOL0     H73805   8.550  10.084   4.724 -0.3007  0.2757  1.8560
  547MOL0     H73806   8.773  10.233   4.704 -0.7504  0.9854 -1.2739
  547MOL0     H73807   8.774  10.393   4.765  0.9089 -0.5019  2.6727
  547MOL0     H73808   8.742  10.263   4.881 -2.1500  0.1055  0.7261
  547MOL0     H73809   8.817  10.722   4.750  0.8986 -0.2534 -0.1231
  547MOL0     H73810   8.926  10.937   4.823 -0.6411 -1.2150 -1.8027
  547MOL0     H73811   8.940  11.026   5.248  3.1369  1.7177 -0.1840
  547MOL0     H73812   8.988  11.179   5.187 -0.7142  1.2853 -0.7877
  547MOL0     H73813   8.688  11.134   5.194 -0.7828  2.3547  0.0722
  547MOL0     H73814   8.783  11.136   5.344 -2.4571 -3.2235 -0.6561
  547MOL0     H73815   8.764  11.362   5.130  0.5133 -0.1389  0.0320
  547MOL0     H73816   8.890  11.352   5.236 -0.0677  1.8875 -1.0697
  547MOL0     H73817   8.609  11.366   5.341  0.4957 -2.5189  1.4232
  547MOL0     H73818   8.745  11.341   5.443 -2.6500  1.6843  1.1420
  547MOL0     H73819   8.841  11.575   5.326 -0.6849  4.4801  4.8005
  547MOL0     H73820   8.731  11.568   5.461 -0.1012  0.1356 -0.0366
  547MOL0     H73821   8.636  11.589   5.173  0.2264 -2.4503  0.1614
  547MOL0     H73822   8.539  11.582   5.316  2.3365 -3.1628  5.7578
  547MOL0     H73823   8.748  11.806   5.312 -1.1749  2.7342  0.6782
  547MOL0     H73824   8.604  11.781   5.413 -1.2652  0.0224 -0.0720
  547MOL0     H73825   8.596  11.958   5.260  1.8464  0.3813 -1.7798
  547MOL0     H73826   8.470  11.839   5.239  0.5437 -4.2558 -0.0525
  547MOL0     H73827   8.750  10.879   5.210  3.7660  2.1935  0.2787
  547MOL0     H73828   8.610  10.681   5.122 -1.5863  1.1798  0.2423
  547MOL0     H73829   8.303  10.503   4.733 -0.7407  0.0473  0.5219
  547MOL0     H73830   8.188  10.306   4.735 -0.6091  2.2968 -0.5431
  547MOL0     H73831   7.477   8.980   3.466 -0.1652 -1.0906 -0.2746
  547MOL0     H73832   7.517   8.758   3.323  1.4771 -0.1773 -0.8708
  547MOL0     H73833   7.497   8.287   3.235  0.0936  0.8519  2.2381
  547MOL0     H73834   7.527   8.143   3.036  0.9563  0.6161 -0.5080
  547MOL0     H73835   7.757   7.983   2.855  0.7936  0.6291 -1.0551
  547MOL0     H73836   7.599   8.025   2.902  0.1707 -2.7986  0.2979
  547MOL0     H73837   7.729   8.018   2.623  0.5405 -1.5174  2.0687
  547MOL0     H73838   7.564   8.065   2.643  0.4738 -0.2325  1.7015
  547MOL0     H73839   7.498   7.845   2.712 -0.2846  2.7597 -0.9804
  547MOL0     H73840   7.660   7.787   2.738 -1.3177  0.5902  1.8845
  547MOL0     H73841   7.672   7.827   2.474  1.5920  1.7966  2.6317
  547MOL0     H73842   7.495   7.858   2.503  0.6661  0.0728 -0.8624
  547MOL0     H73843   7.452   7.452   2.495  3.1900 -1.5700  3.0946
  547MOL0     H73844   7.851   8.390   2.912  0.0783  0.5707 -0.1484
  547MOL0     H73845   7.817   8.537   3.104  3.7408 -0.9396 -2.4257
  548MOL0     O73846   0.543   6.975  10.344 -0.0917 -0.0490  0.3185
  548MOL0     C73847   0.533   6.964  10.470 -1.0524 -0.7483  0.9528
  548MOL0     O73848   0.633   6.936  10.551  0.1569 -0.1191  0.4427
  548MOL0     C73849   0.758   6.973  10.505 -0.6134  0.1736 -0.2515
  548MOL0     C73850   0.794   7.102  10.463  0.1127  0.4453 -0.3846
  548MOL0     C73851   0.930   7.133  10.433  0.3024 -0.8454 -0.1197
  548MOL0     C73852   1.030   7.038  10.442  0.3463  1.0337 -0.4019
  548MOL0     O73853   1.160   7.083  10.416 -0.0093  0.2391  0.0281
  548MOL0     C73854   1.261   6.997  10.454 -0.6216  0.2330  0.3240
  548MOL0     C73855   1.401   7.057  10.419  1.1732  0.1880 -1.5400
  548MOL0     C73856   1.415   7.077  10.267  0.0759 -1.1940 -0.2945
  548MOL0     C73857   1.562   7.145  10.231 -0.7643 -1.1664  1.3235
  548MOL0     C73858   1.581   7.157  10.086  0.4505  0.1132 -0.4200
  548MOL0     C73859   1.718   7.211  10.067 -0.2301  0.2609 -0.3465
  548MOL0     C73860   1.716   7.300   9.944 -0.2657 -0.5542  0.5204
  548MOL0     C73861   1.854   7.330   9.882 -0.0314  0.7683 -0.0690
  548MOL0     N73862   1.919   7.438   9.952 -0.3683  0.1454  0.3747
  548MOL0     C73863   1.986   7.423  10.073  0.9013  0.1000 -0.1067
  548MOL0     C73864   2.032   7.548  10.103  0.6770  0.9688 -0.2837
  548MOL0     C73865   2.118   7.580  10.223 -1.1145  0.1971  0.3535
  548MOL0     C73866   2.261   7.597  10.183  0.2761  0.4445  0.1315
  548MOL0     C73867   2.343   7.635  10.306  0.3792 -0.3796  0.0482
  548MOL0     C73868   2.485   7.650  10.269 -0.4855 -0.4674  0.4068
  548MOL0     O73869   2.547   7.522  10.240 -0.1506 -0.0266 -1.1498
  548MOL0     C73870   2.674   7.523  10.202 -0.1123 -0.8729  0.0501
  548MOL0     C73871   2.721   7.403  10.171 -0.4761  0.5061  0.7876
  548MOL0     C73872   2.858   7.381  10.137 -0.9708  0.2723  0.7125
  548MOL0     C73873   2.893   7.235  10.123 -1.7536  0.6004 -0.7750
  548MOL0     C73874   2.954   7.486  10.134 -0.2782  0.3622 -0.7368
  548MOL0     C73875   3.098   7.469  10.102 -0.1377 -0.3777 -0.3305
  548MOL0     O73876   3.161   7.364  10.151  0.6034  0.0411  0.6963
  548MOL0     C73877   3.293   7.335  10.116 -0.1725 -0.4100  0.2290
  548MOL0     C73878   3.333   7.274   9.998  0.5337  0.5884 -0.9679
  548MOL0     C73879   3.466   7.242   9.968  0.2724  1.5973 -0.3024
  548MOL0     C73880   3.562   7.294  10.054 -0.9149 -0.3329  0.3785
  548MOL0     O73881   3.686   7.297   9.999 -0.3246  0.2433  0.3527
  548MOL0     C73882   3.710   7.341   9.866 -1.3875  0.9256  0.4272
  548MOL0     C73883   3.645   7.477   9.846  0.7377 -0.4115 -0.3555
  548MOL0     C73884   3.730   7.562   9.761  0.0090 -0.0332 -0.1024
  548MOL0     C73885   3.845   7.637   9.842 -0.6212  1.4334  0.0287
  548MOL0     C73886   3.935   7.701   9.738  0.0592 -0.9078 -0.2546
  548MOL0     C73887   4.033   7.792   9.810  0.9703  0.2478 -0.4739
  548MOL0     C73888   4.158   7.828   9.724  0.0379 -0.6760  0.6092
  548MOL0     C73889   4.260   7.715   9.728 -0.9593  0.1004  1.0093
  548MOL0    Cl73890   4.309   7.635   9.879 -0.0189 -0.5353 -0.5366
  548MOL0     C73891   3.531   7.355  10.177  0.2303 -0.5049  0.6265
  548MOL0     C73892   3.392   7.378  10.210 -0.1644  0.5382  0.6480
  548MOL0     O73893   3.149   7.568  10.044  0.6058 -0.0229  0.5110
  548MOL0     C73894   2.903   7.618  10.175  0.8293  0.2143 -0.1780
  548MOL0     C73895   2.770   7.633  10.204  0.3217  0.2132 -0.2974
  548MOL0     N73896   2.008   7.636  10.008  0.3299  0.0460 -0.0545
  548MOL0     N73897   1.919   7.574   9.921 -0.1697  0.9179  0.1027
  548MOL0     C73898   0.987   6.906  10.490 -0.6551 -0.0576 -0.0107
  548MOL0     C73899   0.858   6.870  10.524 -0.0980 -0.3412 -0.4453
  548MOL0     C73900   0.389   6.945  10.503  0.1026 -0.5564 -1.0445
  548MOL0     C73901   0.357   6.892  10.635  0.2117 -0.9730 -0.2182
  548MOL0     C73902   0.224   6.886  10.674 -0.1275 -0.1528  0.2908
  548MOL0     C73903   0.123   6.905  10.585  0.3096 -0.3400  0.5792
  548MOL0     O73904  -0.016   6.912  10.621 -0.0383  0.4548  0.3122
  548MOL0     C73905  -0.049   6.895  10.759  0.8086 -0.4195  0.0019
  548MOL0     C73906  -0.206   6.912  10.782  0.4397 -0.4236 -0.4534
  548MOL0     C73907  -0.262   7.060  10.768 -0.7678 -0.3706  0.0005
  548MOL0     C73908  -0.409   7.064  10.803 -0.0294  0.7458  0.2023
  548MOL0     C73909  -0.425   7.074  10.947  0.7094 -1.8614 -0.1929
  548MOL0     C73910  -0.438   7.089  11.067 -0.0108  0.4201 -0.1132
  548MOL0     C73911   0.150   6.947  10.457 -0.0843  0.6680 -0.0866
  548MOL0     C73912   0.284   6.960  10.410 -0.7633  0.2565  0.5129
  548MOL0     H73913   0.721   7.182  10.469 -1.5273 -1.1230  2.7168
  548MOL0     H73914   0.957   7.234  10.403  1.4183  0.1921  3.8385
  548MOL0     H73915   1.259   6.977  10.562  4.6544  0.8219  0.7956
  548MOL0     H73916   1.249   6.900  10.407  0.5460 -0.7153  1.8857
  548MOL0     H73917   1.408   7.158  10.459 -2.0833  0.5395 -1.5563
  548MOL0     H73918   1.477   6.987  10.454 -0.9659 -1.4397  0.1118
  548MOL0     H73919   1.390   6.992  10.202  0.1581  0.8288 -3.1813
  548MOL0     H73920   1.331   7.142  10.241  0.9213  0.5136  1.0189
  548MOL0     H73921   1.561   7.247  10.271 -0.2276 -0.2523 -0.8093
  548MOL0     H73922   1.649   7.090  10.268  0.3434  0.4979  1.3039
  548MOL0     H73923   1.577   7.057  10.041 -3.8768 -0.2613  0.4177
  548MOL0     H73924   1.494   7.214  10.054  0.9333  2.4796  2.1010
  548MOL0     H73925   1.752   7.266  10.156 -2.3738  0.4501  0.4211
  548MOL0     H73926   1.793   7.132  10.061  0.7786  1.2457 -1.0646
  548MOL0     H73927   1.658   7.246   9.868  0.2797  1.3991 -1.3720
  548MOL0     H73928   1.663   7.393   9.968 -1.9472 -1.0245 -1.0631
  548MOL0     H73929   1.849   7.348   9.775 -0.0509 -3.9394 -1.0794
  548MOL0     H73930   1.914   7.240   9.899  0.4501  0.6519 -2.1708
  548MOL0     H73931   2.011   7.337  10.134 -1.0272  0.4454  1.2854
  548MOL0     H73932   2.091   7.666  10.283  0.5688  0.8027  0.2989
  548MOL0     H73933   2.104   7.493  10.288 -0.8286  0.0221  0.1860
  548MOL0     H73934   2.263   7.680  10.111  1.4133 -1.4541 -2.1779
  548MOL0     H73935   2.301   7.514  10.125 -0.6522 -0.3745  0.6454
  548MOL0     H73936   2.333   7.554  10.379  2.9631  0.8217  1.8741
  548MOL0     H73937   2.308   7.732  10.343  3.3199 -0.0849  2.4060
  548MOL0     H73938   2.543   7.698  10.348 -0.0552  0.7804 -0.6238
  548MOL0     H73939   2.493   7.721  10.186 -2.3231 -0.5624  0.1178
  548MOL0     H73940   2.647   7.324  10.162  2.8675 -2.6731 -2.2827
  548MOL0     H73941   2.871   7.196  10.024  0.1325  0.4978 -1.1858
  548MOL0     H73942   2.992   7.202  10.156 -1.0005 -0.2595 -3.6379
  548MOL0     H73943   2.831   7.176  10.192 -0.9177  0.3642 -0.2196
  548MOL0     H73944   3.253   7.250   9.929 -1.8802  0.7229  1.5962
  548MOL0     H73945   3.486   7.186   9.878 -1.6274 -0.7360  0.6316
  548MOL0     H73946   3.818   7.342   9.849 -1.5296 -2.0301 -1.2889
  548MOL0     H73947   3.693   7.259   9.796  2.0096 -0.4265  0.9863
  548MOL0     H73948   3.544   7.465   9.806  1.1091 -1.0447 -1.1456
  548MOL0     H73949   3.645   7.528   9.942 -1.9674  0.8961 -0.9379
  548MOL0     H73950   3.659   7.637   9.725 -0.4315  2.4808  5.0271
  548MOL0     H73951   3.773   7.516   9.672  3.4368  1.1318  0.7751
  548MOL0     H73952   3.806   7.713   9.911  1.4517 -1.0937  4.3885
  548MOL0     H73953   3.895   7.561   9.903 -1.1474  0.3524 -0.8594
  548MOL0     H73954   3.883   7.757   9.660  2.0006 -1.9644 -2.4230
  548MOL0     H73955   3.992   7.617   9.698 -0.1991 -3.3109  3.8729
  548MOL0     H73956   3.993   7.893   9.824 -2.1978 -1.1935  2.4582
  548MOL0     H73957   4.066   7.748   9.905  0.9209  0.1374 -0.5085
  548MOL0     H73958   4.196   7.921   9.767  1.2405  0.9297 -3.4340
  548MOL0     H73959   4.136   7.865   9.624 -1.1716 -0.7637  0.8258
  548MOL0     H73960   4.345   7.770   9.685 -2.1830  0.5220 -1.0182
  548MOL0     H73961   4.232   7.629   9.668  1.6608  0.1475 -0.4323
  548MOL0     H73962   3.617   7.362  10.243  0.2964 -2.9761  0.8625
  548MOL0     H73963   3.355   7.422  10.302 -0.2673 -2.3383  2.0747
  548MOL0     H73964   2.970   7.704  10.179  0.2890  0.6381 -0.1806
  548MOL0     H73965   2.754   7.733  10.243  5.0300  1.2172 -0.3280
  548MOL0     H73966   1.069   6.838  10.510  0.5782  0.6116 -2.4321
  548MOL0     H73967   0.831   6.781  10.580  1.3450  0.9806  2.5297
  548MOL0     H73968   0.431   6.879  10.714 -1.4923  2.0515  2.1100
  548MOL0     H73969   0.208   6.862  10.779 -1.2878 -2.0582 -0.2708
  548MOL0     H73970  -0.017   6.799  10.800  3.5017  1.2584  2.2719
  548MOL0     H73971  -0.001   6.977  10.813  0.0072  0.7617 -1.0130
  548MOL0     H73972  -0.214   6.889  10.889 -1.9957 -1.5946 -0.8107
  548MOL0     H73973  -0.281   6.849  10.734  0.0341 -1.4875  1.4632
  548MOL0     H73974  -0.249   7.087  10.663  2.8285  1.2862  0.7112
  548MOL0     H73975  -0.201   7.123  10.834 -1.5009 -0.4347  0.7650
  548MOL0     H73976  -0.446   6.971  10.761  1.2415 -0.2312  1.1524
  548MOL0     H73977  -0.450   7.145  10.742  1.3278  0.7834 -0.7155
  548MOL0     H73978  -0.432   7.081  11.174  0.0758  1.7188 -0.0127
  548MOL0     H73979   0.071   6.962  10.384  0.2816  0.0411 -0.6322
  548MOL0     H73980   0.302   7.002  10.311  2.5320  2.4601  1.8697
  549MOL0     O73981   9.787   4.209  11.138 -0.9585 -0.4408  0.4500
  549MOL0     C73982   9.767   4.326  11.165  0.6456 -0.0998 -0.5666
  549MOL0     O73983   9.724   4.363  11.296  0.5686 -0.4427  0.2926
  549MOL0     C73984   9.725   4.270  11.391  0.3924  0.5704  0.3033
  549MOL0     C73985   9.653   4.159  11.381  0.2959 -0.0051  0.2283
  549MOL0     C73986   9.630   4.081  11.497 -0.4661  0.6463  0.2872
  549MOL0     C73987   9.717   4.095  11.608 -0.4740 -0.0384  0.4624
  549MOL0     O73988   9.700   4.010  11.714 -0.7766  0.0893  0.5891
  549MOL0     C73989   9.809   4.003  11.809  0.6671 -0.9601 -0.0802
  549MOL0     C73990   9.839   3.857  11.838  0.2588  1.2088  0.2071
  549MOL0     C73991   9.926   3.839  11.955 -0.4858 -0.0647 -0.0474
  549MOL0     C73992   9.944   3.692  11.980 -0.3288  0.0231 -0.4509
  549MOL0     C73993  10.032   3.645  12.099  0.4051 -0.3568 -0.0537
  549MOL0     C73994  10.172   3.703  12.103  0.6519 -0.0303 -0.0694
  549MOL0     C73995  10.247   3.647  12.226 -0.3269 -0.5841  1.0884
  549MOL0     C73996  10.382   3.693  12.195 -0.5941 -0.1461  0.1558
  549MOL0     N73997  10.467   3.663  12.313  0.5140 -0.2829  0.7059
  549MOL0     C73998  10.459   3.541  12.376  0.1538 -0.6678 -0.2815
  549MOL0     C73999  10.562   3.543  12.463 -0.8170 -1.3464  0.3396
  549MOL0     C74000  10.613   3.419  12.528 -0.8226 -0.0328  1.6351
  549MOL0     C74001  10.715   3.345  12.437  0.5016 -0.2067  0.1044
  549MOL0     C74002  10.846   3.417  12.415  0.7257 -0.1565 -0.5411
  549MOL0     C74003  10.909   3.451  12.548 -1.1686 -0.7030  0.4012
  549MOL0     O74004  11.043   3.478  12.532  0.3016 -0.1302 -0.2396
  549MOL0     C74005  11.129   3.371  12.527 -0.7064 -0.3639  1.1996
  549MOL0     C74006  11.124   3.246  12.597  0.1485 -0.3480  1.0894
  549MOL0     C74007  11.240   3.159  12.599 -0.3025  0.0138  0.3723
  549MOL0     C74008  11.240   3.059  12.714 -0.0918 -0.5014 -0.2655
  549MOL0     C74009  11.339   3.186  12.501  0.6927 -0.0055  0.6610
  549MOL0     C74010  11.452   3.095  12.467 -0.4874 -0.1630  0.0038
  549MOL0     O74011  11.559   3.141  12.409  0.2731 -0.0179  0.0230
  549MOL0     C74012  11.646   3.040  12.366  0.0180  0.0926 -0.1036
  549MOL0     C74013  11.596   2.953  12.268 -0.6097 -0.1201  0.6334
  549MOL0     C74014  11.677   2.839  12.233  0.6453 -0.3452  0.6268
  549MOL0     C74015  11.795   2.822  12.286 -1.3763 -0.7841  0.7411
  549MOL0     O74016  11.865   2.710  12.232  0.5919  0.5036  0.2381
  549MOL0     C74017  12.008   2.729  12.216  0.9643 -0.2130  0.0916
  549MOL0     C74018  12.070   2.630  12.119  0.1288  0.0532  0.2370
  549MOL0     C74019  12.011   2.636  11.973 -0.2620  0.7427  0.7167
  549MOL0     C74020  12.055   2.775  11.915  0.6473  1.4258  0.5382
  549MOL0     C74021  12.011   2.815  11.773  0.6166 -0.0865  0.7109
  549MOL0     C74022  12.036   2.696  11.673 -0.2728 -0.6501 -0.4975
  549MOL0     C74023  11.998   2.748  11.530  0.3894 -0.4675  0.3044
  549MOL0     C74024  11.874   2.833  11.501  0.4922  0.2021 -0.6141
  549MOL0    Cl74025  11.735   2.728  11.523  0.0384 -0.4582  0.4556
  549MOL0     C74026  11.842   2.913  12.386  0.0594  0.7640  0.1860
  549MOL0     C74027  11.770   3.017  12.431 -0.0693 -0.0814 -0.6920
  549MOL0     O74028  11.443   2.983  12.516 -0.3440 -0.6872 -0.1922
  549MOL0     C74029  11.339   3.302  12.421 -0.4680  0.0300 -0.3552
  549MOL0     C74030  11.233   3.394  12.438 -0.3092  0.0922  0.8798
  549MOL0     N74031  10.619   3.665  12.466 -0.3684  0.2722  0.1032
  549MOL0     N74032  10.562   3.733  12.369 -0.4802 -0.5127 -0.3667
  549MOL0     C74033   9.799   4.208  11.611  0.0333  0.1992  0.0676
  549MOL0     C74034   9.795   4.295  11.504  0.1586  0.5308 -1.1043
  549MOL0     C74035   9.782   4.431  11.070 -0.4513  0.7677 -0.2691
  549MOL0     C74036   9.839   4.403  10.943  0.4869 -0.0494  0.1130
  549MOL0     C74037   9.862   4.508  10.855  0.3460  0.0791 -0.6038
  549MOL0     C74038   9.823   4.641  10.886  0.0856  0.0831 -0.1168
  549MOL0     O74039   9.845   4.754  10.805  0.3863  0.5100 -0.1701
  549MOL0     C74040   9.898   4.753  10.667 -0.8463 -0.8045 -0.6696
  549MOL0     C74041   9.996   4.876  10.642  0.1071  0.4246 -0.3407
  549MOL0     C74042  10.124   4.860  10.721  0.1572 -0.3175 -0.0385
  549MOL0     C74043  10.248   4.941  10.650 -0.6045  0.1639  0.2017
  549MOL0     C74044  10.364   4.916  10.732  0.5262 -0.0100 -0.1642
  549MOL0     C74045  10.452   4.895  10.814 -0.0849  0.3122 -0.8241
  549MOL0     C74046   9.761   4.666  11.008 -0.0032 -0.7246 -0.6856
  549MOL0     C74047   9.746   4.557  11.104 -0.7895  0.4626  0.0991
  549MOL0     H74048   9.599   4.130  11.292 -2.6345  0.5629  1.7146
  549MOL0     H74049   9.570   3.992  11.480 -0.0942  0.7994 -2.0813
  549MOL0     H74050   9.896   4.046  11.759  0.6609 -1.5537 -0.6169
  549MOL0     H74051   9.784   4.055  11.902 -1.4937 -1.0429 -0.5708
  549MOL0     H74052   9.747   3.803  11.859  0.8225 -1.5039 -3.4091
  549MOL0     H74053   9.883   3.807  11.751 -3.4151 -3.1517  0.4878
  549MOL0     H74054  10.028   3.878  11.944 -0.1860 -0.6699  0.4944
  549MOL0     H74055   9.876   3.891  12.038 -3.8367 -1.5216 -0.9907
  549MOL0     H74056   9.841   3.656  11.986 -0.9190  0.7696 -4.0986
  549MOL0     H74057   9.991   3.647  11.892  0.7886  1.8020 -0.8124
  549MOL0     H74058   9.978   3.664  12.192  1.3259  0.9822  0.2373
  549MOL0     H74059  10.048   3.539  12.076  1.0262  0.1128 -1.9990
  549MOL0     H74060  10.217   3.690  12.004 -1.3262  0.1936 -1.0392
  549MOL0     H74061  10.163   3.812  12.115  3.1476  0.3328 -0.7475
  549MOL0     H74062  10.202   3.689  12.316 -2.3650  0.4926 -0.3643
  549MOL0     H74063  10.238   3.538  12.229 -1.4029 -0.5374  0.1689
  549MOL0     H74064  10.373   3.802  12.185  1.0786 -0.0806 -0.9744
  549MOL0     H74065  10.425   3.657  12.102 -0.2469 -1.9546  0.9795
  549MOL0     H74066  10.402   3.451  12.353  1.0140 -1.4687  0.6514
  549MOL0     H74067  10.647   3.445  12.628  2.9760 -1.7098  0.9321
  549MOL0     H74068  10.521   3.359  12.528 -1.1459  0.3472 -1.0189
  549MOL0     H74069  10.683   3.318  12.336  3.6432  0.7615 -1.3015
  549MOL0     H74070  10.728   3.245  12.480 -0.6988 -0.0883  0.7769
  549MOL0     H74071  10.833   3.501  12.346  2.7548 -0.0731 -0.8882
  549MOL0     H74072  10.907   3.343  12.362  1.2291  0.3075 -0.6135
  549MOL0     H74073  10.898   3.373  12.625 -2.5558 -3.0057 -1.9662
  549MOL0     H74074  10.861   3.538  12.593 -0.6139 -0.4458  0.5063
  549MOL0     H74075  11.046   3.231  12.672  0.6930 -1.8771  1.3913
  549MOL0     H74076  11.241   3.120  12.805 -3.7967  0.2273 -0.5749
  549MOL0     H74077  11.154   2.993  12.728 -1.3966  0.8994 -1.3867
  549MOL0     H74078  11.332   2.999  12.716  2.2922  2.8515 -0.0738
  549MOL0     H74079  11.491   2.964  12.243 -1.0209 -1.1597  1.7876
  549MOL0     H74080  11.629   2.767  12.167 -0.8953  0.4789  0.7844
  549MOL0     H74081  12.026   2.834  12.190 -2.8922  1.5433  3.4505
  549MOL0     H74082  12.054   2.713  12.313  0.5171 -0.4813  0.2628
  549MOL0     H74083  12.175   2.657  12.110 -0.4018  1.5061 -2.8889
  549MOL0     H74084  12.052   2.528  12.155  0.4071 -1.0324 -2.5267
  549MOL0     H74085  11.902   2.628  11.976 -0.4500  2.1714 -0.8536
  549MOL0     H74086  12.041   2.554  11.907 -0.9014 -0.4386  1.8395
  549MOL0     H74087  12.016   2.850  11.984 -1.0786 -0.0127  1.2089
  549MOL0     H74088  12.164   2.785  11.920  1.1475 -0.3358 -3.4004
  549MOL0     H74089  12.080   2.891  11.735 -0.4489  0.5435 -0.0488
  549MOL0     H74090  11.908   2.851  11.771  0.0157 -1.7744 -0.1335
  549MOL0     H74091  12.142   2.675  11.691 -0.0843  0.8907  0.3395
  549MOL0     H74092  11.978   2.606  11.694 -0.0140 -0.5799  0.5784
  549MOL0     H74093  11.978   2.661  11.468 -0.5470  0.0396 -0.1344
  549MOL0     H74094  12.096   2.784  11.497  0.7671 -4.0804 -3.3801
  549MOL0     H74095  11.876   2.860  11.395  0.8408  0.8803 -0.4392
  549MOL0     H74096  11.876   2.926  11.559 -0.0032  0.3570 -0.8390
  549MOL0     H74097  11.936   2.882  12.431  0.1529  1.4556  0.4777
  549MOL0     H74098  11.801   3.079  12.515  3.2649 -0.7542 -1.3134
  549MOL0     H74099  11.417   3.324  12.349 -0.1383  0.9260  0.2612
  549MOL0     H74100  11.225   3.481  12.373 -1.0300 -0.2463  0.5120
  549MOL0     H74101   9.859   4.232  11.699 -2.8188 -1.8464  2.7778
  549MOL0     H74102   9.860   4.382  11.503 -2.4655  2.5968 -2.0519
  549MOL0     H74103   9.876   4.305  10.913 -1.8678 -0.5632 -1.3902
  549MOL0     H74104   9.905   4.488  10.758 -0.1124 -0.1441 -0.7606
  549MOL0     H74105   9.937   4.661  10.623  0.2293 -0.4881 -0.4112
  549MOL0     H74106   9.820   4.786  10.597 -0.2861  1.1906 -0.4144
  549MOL0     H74107   9.960   4.976  10.669  1.7057  0.5508  1.5764
  549MOL0     H74108  10.020   4.885  10.536 -1.4543 -0.4290 -0.8002
  549MOL0     H74109  10.154   4.755  10.729  1.5672 -0.0608 -1.3629
  549MOL0     H74110  10.103   4.901  10.820 -0.0034  1.7775 -0.8880
  549MOL0     H74111  10.227   5.047  10.639  0.7075  0.1768 -4.4972
  549MOL0     H74112  10.276   4.904  10.551  3.9823 -1.0835  1.7364
  549MOL0     H74113  10.523   4.865  10.889 -1.3328  1.7884  1.0299
  549MOL0     H74114   9.735   4.765  11.043 -1.7775 -1.1677 -0.6823
  549MOL0     H74115   9.705   4.586  11.201  0.0321  0.1974  0.5338
  550MOL0     O74116   6.516   9.579   6.173  0.5240  0.1928 -0.6514
  550MOL0     C74117   6.458   9.481   6.129 -0.0301 -0.7041 -0.2038
  550MOL0     O74118   6.420   9.466   6.005 -0.9445  0.4615 -0.3754
  550MOL0     C74119   6.438   9.569   5.915  0.9975 -0.1200 -0.0540
  550MOL0     C74120   6.337   9.589   5.829  0.3745  1.1711  0.0632
  550MOL0     C74121   6.339   9.689   5.730 -0.6262 -0.3481 -0.9428
  550MOL0     C74122   6.449   9.773   5.711 -0.4931 -0.1386 -0.8206
  550MOL0     O74123   6.447   9.872   5.613  0.6455  0.4705  0.0285
  550MOL0     C74124   6.562   9.942   5.594 -0.4552 -0.0524  0.5796
  550MOL0     C74125   6.541  10.057   5.490  0.4020 -0.0961  0.2548
  550MOL0     C74126   6.676  10.109   5.450 -0.1342 -0.3979  0.7418
  550MOL0     C74127   6.658  10.254   5.389  0.1739  1.0341 -0.5306
  550MOL0     C74128   6.782  10.341   5.388 -0.5819  0.4187  0.1129
  550MOL0     C74129   6.885  10.295   5.287  0.0417  0.4770 -0.1885
  550MOL0     C74130   6.835  10.274   5.141  0.6523  0.3330 -0.2866
  550MOL0     C74131   6.961  10.276   5.040 -0.5479 -0.0245  0.4236
  550MOL0     N74132   6.926  10.189   4.916  0.2016  0.0284 -0.5785
  550MOL0     C74133   6.824  10.223   4.827 -0.1157  0.2365 -0.0766
  550MOL0     C74134   6.829  10.123   4.738 -0.6166  0.0127  0.6485
  550MOL0     C74135   6.748  10.122   4.606  0.2091  0.0627  0.6191
  550MOL0     C74136   6.820  10.191   4.490  0.4957 -0.8288 -0.0191
  550MOL0     C74137   6.961  10.149   4.472 -0.0968 -0.2513 -0.3624
  550MOL0     C74138   7.027  10.177   4.336  0.3869 -1.0332 -0.1497
  550MOL0     O74139   7.025  10.322   4.312 -0.2562 -0.3947  0.2411
  550MOL0     C74140   7.135  10.401   4.285  0.1639 -0.0612 -0.8513
  550MOL0     C74141   7.145  10.540   4.302  1.4660  0.4555 -0.3493
  550MOL0     C74142   7.269  10.607   4.291 -0.3956  0.2468 -0.0962
  550MOL0     C74143   7.267  10.751   4.305 -0.0463 -0.0990  0.3545
  550MOL0     C74144   7.381  10.526   4.251 -0.0617 -0.9381  0.7602
  550MOL0     C74145   7.517  10.584   4.213 -0.2655 -0.2160  0.5668
  550MOL0     O74146   7.574  10.573   4.086 -0.4917  0.2629 -0.1685
  550MOL0     C74147   7.705  10.616   4.071 -0.5178  0.0163 -0.3400
  550MOL0     C74148   7.794  10.518   4.025  0.1497 -0.0088  0.4726
  550MOL0     C74149   7.926  10.529   3.989 -0.4809 -0.3670 -0.7640
  550MOL0     C74150   7.977  10.666   4.006  0.2199 -0.1723  0.1533
  550MOL0     O74151   8.091  10.717   3.960  0.1868 -0.2176 -0.0762
  550MOL0     C74152   8.196  10.620   3.939 -0.3627 -0.5782 -0.2846
  550MOL0     C74153   8.345  10.689   3.947 -0.3046 -1.2347 -0.0249
  550MOL0     C74154   8.371  10.770   4.083  0.5725 -0.1643  0.1506
  550MOL0     C74155   8.504  10.843   4.065 -0.1008  0.0564  0.3940
  550MOL0     C74156   8.563  10.909   4.194 -0.6120 -0.5971  0.4736
  550MOL0     C74157   8.670  11.015   4.175 -0.5429 -0.9534  0.3515
  550MOL0     C74158   8.816  10.966   4.141 -0.6479  0.3189  0.5208
  550MOL0     C74159   8.895  11.065   4.064  0.9738  0.6727  0.2726
  550MOL0    Cl74160   9.038  10.994   3.989 -0.3398 -0.4529  0.0987
  550MOL0     C74161   7.885  10.770   4.043  0.5115 -0.2110  0.0948
  550MOL0     C74162   7.754  10.745   4.092 -0.9131 -0.4974 -0.3647
  550MOL0     O74163   7.581  10.622   4.313  0.4382  0.4110 -0.8368
  550MOL0     C74164   7.367  10.396   4.214  0.0916 -0.0084  0.8244
  550MOL0     C74165   7.246  10.330   4.242  0.1161 -0.0705  0.6751
  550MOL0     N74166   6.921  10.023   4.774  0.1393  0.9037 -0.5087
  550MOL0     N74167   6.976  10.064   4.886  0.5830 -0.3390  0.9013
  550MOL0     C74168   6.566   9.734   5.786  0.7103 -0.6755 -0.0629
  550MOL0     C74169   6.555   9.632   5.892 -0.8523  0.4367  0.1850
  550MOL0     C74170   6.422   9.379   6.231  0.4338 -0.4431 -0.3353
  550MOL0     C74171   6.479   9.373   6.355 -0.4099  0.8923 -0.2473
  550MOL0     C74172   6.446   9.270   6.450 -0.6133  0.1393 -0.4529
  550MOL0     C74173   6.347   9.174   6.420 -0.0622  0.0844 -0.5068
  550MOL0     O74174   6.290   9.081   6.503  0.2602  0.0523  0.1426
  550MOL0     C74175   6.335   9.073   6.642 -0.5290 -0.4116  1.3579
  550MOL0     C74176   6.267   8.963   6.728 -0.0744  0.4900  0.1533
  550MOL0     C74177   6.279   8.810   6.683 -0.0859  0.4154 -0.1732
  550MOL0     C74178   6.425   8.759   6.678 -0.8316  0.9417 -1.3463
  550MOL0     C74179   6.440   8.611   6.698  0.4573  0.1583  0.5487
  550MOL0     C74180   6.452   8.490   6.698  0.9022 -0.6515 -1.2385
  550MOL0     C74181   6.285   9.185   6.292 -1.1599 -0.0201 -1.4406
  550MOL0     C74182   6.332   9.284   6.206  0.5899  0.2411  0.9433
  550MOL0     H74183   6.245   9.541   5.860  1.1094 -0.0860  0.3829
  550MOL0     H74184   6.255   9.691   5.661 -0.7375 -2.2980 -0.9333
  550MOL0     H74185   6.584   9.990   5.690 -1.5598  0.5990  0.5262
  550MOL0     H74186   6.635   9.868   5.560 -0.7417 -0.7279  1.4105
  550MOL0     H74187   6.491  10.018   5.401  1.0223 -2.1343  0.7305
  550MOL0     H74188   6.475  10.132   5.533  0.5692 -0.1933  0.6965
  550MOL0     H74189   6.744  10.117   5.536  1.1806 -0.0586 -0.2999
  550MOL0     H74190   6.729  10.040   5.385 -0.7552  0.0241 -0.2291
  550MOL0     H74191   6.621  10.240   5.287  4.4907 -2.3273 -1.9647
  550MOL0     H74192   6.587  10.307   5.454 -1.8048 -0.7764 -1.1182
  550MOL0     H74193   6.753  10.440   5.353 -2.6032 -1.2930 -3.6679
  550MOL0     H74194   6.830  10.346   5.486 -2.4009  1.0665  1.0188
  550MOL0     H74195   6.976  10.356   5.287 -0.7143  1.6308 -0.8936
  550MOL0     H74196   6.923  10.196   5.316 -0.4821 -0.1188 -1.4383
  550MOL0     H74197   6.789  10.175   5.129 -0.6385  0.4880  2.6490
  550MOL0     H74198   6.757  10.345   5.113 -0.6333 -0.9320 -0.0514
  550MOL0     H74199   7.055  10.242   5.083  1.0381 -0.6393 -3.1398
  550MOL0     H74200   6.984  10.375   5.000 -1.6696 -0.8821 -2.7412
  550MOL0     H74201   6.771  10.318   4.828 -4.9138 -2.1010  1.9800
  550MOL0     H74202   6.731  10.018   4.575 -0.5722  0.5773 -0.7833
  550MOL0     H74203   6.657  10.183   4.609  0.0000 -0.2365  0.5594
  550MOL0     H74204   6.818  10.299   4.511  0.1247 -1.4840  4.0074
  550MOL0     H74205   6.763  10.167   4.400  2.6597 -2.6608 -1.0077
  550MOL0     H74206   6.965  10.044   4.505 -4.2741 -0.7881 -1.0557
  550MOL0     H74207   7.030  10.209   4.532  0.1625 -0.6001 -0.3057
  550MOL0     H74208   6.963  10.136   4.257  1.2235 -1.3839 -0.6509
  550MOL0     H74209   7.121  10.123   4.327  2.3008  1.6369  1.9974
  550MOL0     H74210   7.059  10.603   4.322  0.2761  0.0857 -3.6593
  550MOL0     H74211   7.171  10.796   4.275 -0.9447  0.3133  3.5444
  550MOL0     H74212   7.296  10.795   4.400 -1.2358  1.0088  0.2429
  550MOL0     H74213   7.342  10.794   4.238  0.2483  0.6896  1.1780
  550MOL0     H74214   7.757  10.419   3.998  1.2059  0.4569 -3.3231
  550MOL0     H74215   7.982  10.444   3.951  1.0252 -0.4109  1.3580
  550MOL0     H74216   8.191  10.544   4.017 -1.4770  1.4061  1.7163
  550MOL0     H74217   8.177  10.566   3.846 -0.5358 -0.9134 -0.0593
  550MOL0     H74218   8.415  10.605   3.944 -0.2036 -1.1523  0.0746
  550MOL0     H74219   8.352  10.754   3.859  0.8814 -0.7264  0.4300
  550MOL0     H74220   8.378  10.699   4.166  1.6367 -1.4131 -0.9770
  550MOL0     H74221   8.290  10.842   4.100  0.5087 -0.6854  2.3738
  550MOL0     H74222   8.581  10.774   4.028 -0.9327 -1.7207  1.8395
  550MOL0     H74223   8.491  10.918   3.987 -0.0464 -0.1072  0.2258
  550MOL0     H74224   8.595  10.824   4.256  3.5316  0.9698  0.8077
  550MOL0     H74225   8.491  10.962   4.258  0.5252 -0.7057  1.9035
  550MOL0     H74226   8.641  11.092   4.103 -1.9504 -1.3647  0.4340
  550MOL0     H74227   8.674  11.068   4.270 -1.1338 -2.1555  1.0689
  550MOL0     H74228   8.805  10.878   4.077  2.0061  0.6965 -0.6044
  550MOL0     H74229   8.877  10.939   4.228  1.9939  4.3696  0.1878
  550MOL0     H74230   8.925  11.145   4.132 -1.4633  3.3392 -1.5048
  550MOL0     H74231   8.842  11.108   3.978 -0.7471  1.3642  1.6059
  550MOL0     H74232   7.919  10.873   4.036  1.0163 -0.4598 -1.3089
  550MOL0     H74233   7.691  10.829   4.118 -1.3297 -1.2472  1.1746
  550MOL0     H74234   7.455  10.349   4.170  0.4873  2.6092 -1.5095
  550MOL0     H74235   7.259  10.227   4.209 -1.0752  0.1205 -0.4797
  550MOL0     H74236   6.662   9.784   5.779 -1.4060  3.6648 -2.8411
  550MOL0     H74237   6.640   9.614   5.958 -1.3092  1.5476  1.1050
  550MOL0     H74238   6.552   9.452   6.369 -0.2521  0.5422  1.0147
  550MOL0     H74239   6.485   9.279   6.551 -0.7232  0.7109 -0.4551
  550MOL0     H74240   6.445   9.071   6.641 -0.3050 -1.5462 -3.9370
  550MOL0     H74241   6.304   9.170   6.680  0.1918  1.3584 -2.1204
  550MOL0     H74242   6.161   8.979   6.748 -0.2584 -1.3201  0.8287
  550MOL0     H74243   6.321   8.982   6.821 -2.0011 -0.8556  1.6270
  550MOL0     H74244   6.227   8.804   6.587 -2.4528 -3.3596  1.1085
  550MOL0     H74245   6.218   8.752   6.754 -4.7148  1.6493 -2.7137
  550MOL0     H74246   6.479   8.813   6.756  1.3285 -2.9077  0.0680
  550MOL0     H74247   6.467   8.802   6.587  0.9922  2.5143  0.1697
  550MOL0     H74248   6.455   8.385   6.681  3.8271 -0.9359  0.3868
  550MOL0     H74249   6.204   9.126   6.250 -3.9361  3.0273 -0.7476
  550MOL0     H74250   6.288   9.271   6.108 -1.2183  0.4144  1.6891
  551MOL0     O74251   0.880   4.428   1.424  0.3786 -0.0211  0.3881
  551MOL0     C74252   0.917   4.486   1.323  0.6439  0.2110  0.1117
  551MOL0     O74253   0.844   4.496   1.213  0.3981 -0.0678  0.4029
  551MOL0     C74254   0.728   4.412   1.210 -0.2629 -0.1195  0.0087
  551MOL0     C74255   0.595   4.462   1.200 -0.4536  0.1284 -0.1845
  551MOL0     C74256   0.488   4.374   1.173 -0.0363 -0.6889  0.0808
  551MOL0     C74257   0.503   4.236   1.173 -0.9290  0.7453 -0.0112
  551MOL0     O74258   0.376   4.172   1.179  0.4443  0.2631  0.3131
  551MOL0     C74259   0.369   4.070   1.271 -0.4616 -0.1801 -0.8004
  551MOL0     C74260   0.392   4.124   1.418 -0.8432 -0.8773 -0.0494
  551MOL0     C74261   0.308   4.243   1.455  1.0066  0.5899 -0.0860
  551MOL0     C74262   0.323   4.286   1.609  0.4646 -0.1231  0.9968
  551MOL0     C74263   0.219   4.387   1.668  0.5944  0.0460 -0.8003
  551MOL0     C74264   0.200   4.507   1.575  1.0374 -0.4150  0.3292
  551MOL0     C74265   0.105   4.618   1.633 -0.4328  0.1021 -1.1646
  551MOL0     C74266   0.011   4.575   1.750  0.7498 -0.1306 -0.3205
  551MOL0     N74267  -0.123   4.643   1.744 -0.2660 -0.4788  0.5951
  551MOL0     C74268  -0.238   4.578   1.749  0.3592  0.5877 -0.3778
  551MOL0     C74269  -0.331   4.673   1.752  0.0853 -0.9144  0.2493
  551MOL0     C74270  -0.474   4.659   1.763 -0.9866 -0.7617 -0.1516
  551MOL0     C74271  -0.538   4.726   1.885 -0.2708  0.0916  0.0485
  551MOL0     C74272  -0.606   4.867   1.850  0.6078 -0.6630 -0.5471
  551MOL0     C74273  -0.577   4.981   1.956 -0.2401 -0.2950 -0.1408
  551MOL0     O74274  -0.465   5.056   1.914 -0.9502 -0.3175  0.7713
  551MOL0     C74275  -0.475   5.188   1.872  1.1080 -1.3506  0.7787
  551MOL0     C74276  -0.430   5.213   1.744  1.3179  0.0578 -0.5024
  551MOL0     C74277  -0.438   5.337   1.684  0.6188  0.5689 -0.0985
  551MOL0     C74278  -0.390   5.352   1.539 -0.5142 -0.0948 -0.0314
  551MOL0     C74279  -0.512   5.439   1.757 -0.2095  0.7453 -0.1610
  551MOL0     C74280  -0.543   5.572   1.712 -0.3154 -0.0849  0.0248
  551MOL0     O74281  -0.537   5.687   1.801  0.9887  0.8028  0.0194
  551MOL0     C74282  -0.553   5.812   1.745 -0.4239 -0.0590  0.3103
  551MOL0     C74283  -0.649   5.900   1.805 -0.8062 -0.0007  0.0702
  551MOL0     C74284  -0.649   6.032   1.761 -0.5635  0.1585  1.3752
  551MOL0     C74285  -0.564   6.086   1.666  0.7816  0.0309 -0.3761
  551MOL0     O74286  -0.583   6.223   1.647  0.3026  0.3864 -0.0927
  551MOL0     C74287  -0.512   6.286   1.540  1.2721 -0.6991  0.1039
  551MOL0     C74288  -0.553   6.231   1.406 -0.1729 -0.3936  0.8904
  551MOL0     C74289  -0.708   6.254   1.389  0.3468 -0.1838  0.0280
  551MOL0     C74290  -0.760   6.152   1.288  0.0497  0.1702  0.5130
  551MOL0     C74291  -0.899   6.091   1.311  0.2183  0.8677 -0.2601
  551MOL0     C74292  -1.017   6.184   1.291 -0.4144 -0.2050 -0.7847
  551MOL0     C74293  -1.137   6.120   1.231  0.4239 -0.2026  0.7068
  551MOL0     C74294  -1.180   6.001   1.317  0.2337  0.2495 -0.2808
  551MOL0    Cl74295  -1.310   6.036   1.435 -0.1195  0.1919  0.4842
  551MOL0     C74296  -0.466   6.001   1.622  0.0912 -1.0869  0.1588
  551MOL0     C74297  -0.453   5.871   1.652  0.7622 -0.2689 -0.5997
  551MOL0     O74298  -0.583   5.582   1.591 -0.1509  0.1915 -0.0952
  551MOL0     C74299  -0.564   5.408   1.884  0.0567 -0.4108  0.8277
  551MOL0     C74300  -0.537   5.291   1.941 -1.0032 -0.3251 -0.2455
  551MOL0     N74301  -0.267   4.791   1.762 -0.0342 -0.3439 -0.5410
  551MOL0     N74302  -0.143   4.768   1.775 -0.4929 -0.6480  1.0032
  551MOL0     C74303   0.635   4.184   1.196  0.8415 -0.4086  0.1175
  551MOL0     C74304   0.737   4.271   1.204 -0.9757  0.2356  0.6512
  551MOL0     C74305   1.051   4.540   1.318  0.8097 -0.4674  0.2073
  551MOL0     C74306   1.125   4.563   1.198  0.1845 -0.9249 -1.2783
  551MOL0     C74307   1.243   4.640   1.195  0.4356  0.4724 -0.2841
  551MOL0     C74308   1.289   4.701   1.308 -0.5118 -0.1152  0.6152
  551MOL0     O74309   1.406   4.773   1.307 -0.1458  0.1918 -0.0346
  551MOL0     C74310   1.392   4.914   1.304  0.2879  0.2605  0.7155
  551MOL0     C74311   1.381   4.979   1.162 -0.3152 -0.3094 -0.2192
  551MOL0     C74312   1.240   4.986   1.103 -0.3466  0.5667  0.8164
  551MOL0     C74313   1.241   5.011   0.944 -0.1140 -0.3136  0.3493
  551MOL0     C74314   1.298   4.896   0.868 -0.2839 -0.6242  0.8038
  551MOL0     C74315   1.335   4.810   0.789  0.8166  0.1254  0.3151
  551MOL0     C74316   1.213   4.683   1.429 -0.3953 -0.1219  0.8886
  551MOL0     C74317   1.096   4.602   1.429 -0.6172  0.0270 -0.9150
  551MOL0     H74318   0.581   4.569   1.187  1.7338  0.5938  0.9441
  551MOL0     H74319   0.386   4.413   1.174 -0.7044 -2.2439  2.4078
  551MOL0     H74320   0.270   4.021   1.268 -0.2140 -0.6591 -1.3280
  551MOL0     H74321   0.433   3.984   1.249  0.7723  1.0234 -2.1332
  551MOL0     H74322   0.354   4.050   1.489  1.1302 -0.9869  0.9938
  551MOL0     H74323   0.496   4.149   1.441 -1.5764  2.8083 -0.1078
  551MOL0     H74324   0.336   4.326   1.389 -2.4576  0.2704 -2.2199
  551MOL0     H74325   0.202   4.227   1.434  1.1770 -1.3893  0.4080
  551MOL0     H74326   0.326   4.201   1.677  1.0934  0.4001  1.6447
  551MOL0     H74327   0.425   4.327   1.605  0.8385 -1.0653 -2.7671
  551MOL0     H74328   0.124   4.334   1.684  1.4969 -0.7808  2.6721
  551MOL0     H74329   0.257   4.441   1.755 -0.3099  2.5298 -1.8573
  551MOL0     H74330   0.294   4.548   1.537  1.2944 -1.7189 -0.4999
  551MOL0     H74331   0.143   4.468   1.490  2.4972 -0.4499 -0.6854
  551MOL0     H74332   0.181   4.691   1.664  1.0792 -2.7627  2.7481
  551MOL0     H74333   0.043   4.660   1.553 -0.1685  1.3887 -0.7247
  551MOL0     H74334   0.060   4.593   1.847 -0.3277 -2.4953  0.7327
  551MOL0     H74335  -0.013   4.469   1.756 -0.7131  0.2589  2.0900
  551MOL0     H74336  -0.260   4.473   1.730  0.6590  0.9393 -3.0820
  551MOL0     H74337  -0.539   4.699   1.684 -2.4839  2.2323  2.4003
  551MOL0     H74338  -0.496   4.552   1.764  1.0779 -1.2754  2.9211
  551MOL0     H74339  -0.454   4.747   1.953  0.7193  3.6096 -2.0261
  551MOL0     H74340  -0.611   4.659   1.931  0.6383 -2.9930 -2.6092
  551MOL0     H74341  -0.714   4.857   1.842  0.2773  0.7982  1.3670
  551MOL0     H74342  -0.565   4.899   1.753 -2.1446 -1.9689 -2.2368
  551MOL0     H74343  -0.555   4.929   2.050  1.8218 -1.4960 -1.1932
  551MOL0     H74344  -0.669   5.037   1.973  0.5938  0.7053  1.2711
  551MOL0     H74345  -0.389   5.130   1.687 -0.0299 -0.4186 -0.8157
  551MOL0     H74346  -0.343   5.257   1.512  0.6904 -0.7838  3.8384
  551MOL0     H74347  -0.474   5.377   1.473 -1.3912 -2.1703  0.2434
  551MOL0     H74348  -0.307   5.424   1.533 -0.6897  0.0881 -0.3141
  551MOL0     H74349  -0.712   5.878   1.890 -0.8151 -0.9834 -0.1827
  551MOL0     H74350  -0.715   6.101   1.813  1.9328  2.8064  1.2273
  551MOL0     H74351  -0.535   6.393   1.548  5.1118  0.3079 -0.2003
  551MOL0     H74352  -0.403   6.275   1.549  1.5690  0.7707 -1.2657
  551MOL0     H74353  -0.499   6.291   1.332  1.5669  1.3268  3.3525
  551MOL0     H74354  -0.523   6.128   1.387  1.6873  0.5046 -1.4852
  551MOL0     H74355  -0.719   6.360   1.363  2.2024  0.7272  2.4625
  551MOL0     H74356  -0.758   6.235   1.485  3.0982 -4.0547  0.9260
  551MOL0     H74357  -0.757   6.203   1.192  1.9827  0.0684  0.4861
  551MOL0     H74358  -0.689   6.070   1.278  2.5182  2.3740 -1.1120
  551MOL0     H74359  -0.908   6.043   1.409 -3.3941  0.0214 -0.8781
  551MOL0     H74360  -0.901   6.001   1.250  0.8908  0.0301  0.8987
  551MOL0     H74361  -1.035   6.234   1.387 -2.9859 -3.5734  0.6908
  551MOL0     H74362  -0.981   6.261   1.222 -0.7446 -1.2807 -2.2049
  551MOL0     H74363  -1.115   6.089   1.128  0.9351  1.0676  0.4137
  551MOL0     H74364  -1.219   6.192   1.231 -2.3153 -3.0868  0.2956
  551MOL0     H74365  -1.098   5.966   1.380 -2.5664 -1.0895  2.9472
  551MOL0     H74366  -1.213   5.911   1.264 -0.3099 -1.5599  2.8439
  551MOL0     H74367  -0.397   6.044   1.550  0.8078 -1.0248  0.8684
  551MOL0     H74368  -0.371   5.819   1.604 -0.8452 -1.0168 -2.6811
  551MOL0     H74369  -0.625   5.473   1.945  0.1221 -0.6416  1.1415
  551MOL0     H74370  -0.571   5.288   2.044 -0.4017  0.4067 -0.0135
  551MOL0     H74371   0.657   4.079   1.207 -2.2257 -1.4789 -2.5087
  551MOL0     H74372   0.833   4.222   1.217 -1.3429 -0.8146 -0.4156
  551MOL0     H74373   1.081   4.540   1.101  1.1667 -2.4929 -1.3799
  551MOL0     H74374   1.297   4.657   1.102  1.9292 -3.6014 -0.3481
  551MOL0     H74375   1.291   4.939   1.337 -0.9093 -2.2899 -0.7170
  551MOL0     H74376   1.466   4.962   1.369  3.8581  0.0550 -2.8392
  551MOL0     H74377   1.451   4.931   1.093 -0.7009  0.9600 -1.5180
  551MOL0     H74378   1.423   5.078   1.183 -0.6010 -0.5798  1.8979
  551MOL0     H74379   1.198   5.071   1.158  1.2614  0.5640  2.1425
  551MOL0     H74380   1.182   4.895   1.120  1.4452 -1.2115 -1.7539
  551MOL0     H74381   1.300   5.102   0.933  1.5014 -1.4411 -0.6484
  551MOL0     H74382   1.140   5.026   0.905 -0.1310 -1.7483 -0.2226
  551MOL0     H74383   1.364   4.750   0.706  0.3630  0.4271 -0.0652
  551MOL0     H74384   1.231   4.748   1.514 -2.9566  5.4544 -2.2798
  551MOL0     H74385   1.038   4.601   1.521 -1.9301 -3.6569 -1.5913
  552MOL0     O74386   4.734   2.944   2.487 -0.0808  0.3138  0.0047
  552MOL0     C74387   4.619   2.942   2.441  0.1612  0.2939  0.6994
  552MOL0     O74388   4.572   2.846   2.356 -0.4425 -0.3899  0.1437
  552MOL0     C74389   4.658   2.770   2.279 -0.2065 -0.0492 -1.0453
  552MOL0     C74390   4.663   2.773   2.141 -0.3528  0.9862 -0.0375
  552MOL0     C74391   4.754   2.684   2.074  0.8829 -0.1956 -0.0856
  552MOL0     C74392   4.828   2.591   2.136 -0.7013  0.0002  0.2180
  552MOL0     O74393   4.907   2.513   2.049 -0.1891  1.1874  0.1716
  552MOL0     C74394   5.009   2.421   2.108  0.5282  0.0120  0.3156
  552MOL0     C74395   4.945   2.299   2.178 -0.6895 -1.1098  0.4421
  552MOL0     C74396   5.052   2.254   2.280 -0.1651  1.0466  1.2088
  552MOL0     C74397   4.976   2.184   2.392  0.4428 -0.0602 -0.0043
  552MOL0     C74398   5.072   2.158   2.514 -0.1510  0.1180 -0.2329
  552MOL0     C74399   5.064   2.279   2.608 -1.0555 -0.7462 -0.5008
  552MOL0     C74400   5.188   2.304   2.689  0.2681  0.0317  0.0006
  552MOL0     C74401   5.196   2.429   2.779  0.7316 -0.1807 -0.4989
  552MOL0     N74402   5.317   2.428   2.865  0.6420 -0.3338  0.3752
  552MOL0     C74403   5.324   2.516   2.968  0.5330  0.1582 -0.4850
  552MOL0     C74404   5.426   2.468   3.039 -0.4582  0.2091  0.4481
  552MOL0     C74405   5.465   2.532   3.176 -1.7777  0.4271 -0.0054
  552MOL0     C74406   5.592   2.613   3.178 -0.3300  0.0055  0.3695
  552MOL0     C74407   5.714   2.511   3.199 -0.6167  0.2598  0.4992
  552MOL0     C74408   5.845   2.570   3.142  0.2442 -0.2001 -0.3758
  552MOL0     O74409   5.932   2.456   3.119  0.7976  0.4960  0.2594
  552MOL0     C74410   6.059   2.463   3.160  0.0090 -0.3151  0.6163
  552MOL0     C74411   6.149   2.401   3.080  0.1255 -0.1611  0.0327
  552MOL0     C74412   6.283   2.403   3.107  0.3303 -0.0764 -0.0243
  552MOL0     C74413   6.379   2.354   3.003 -1.5315  0.1592 -0.0248
  552MOL0     C74414   6.331   2.459   3.230  0.8088 -0.1139  0.3149
  552MOL0     C74415   6.470   2.474   3.269 -0.0489  0.3670 -0.3897
  552MOL0     O74416   6.561   2.379   3.228 -0.5426  0.6717 -0.9457
  552MOL0     C74417   6.685   2.347   3.291  0.0230 -0.2053  0.2586
  552MOL0     C74418   6.700   2.343   3.428 -0.3589  0.2202 -0.0041
  552MOL0     C74419   6.819   2.308   3.491 -0.0574  0.2314  0.5700
  552MOL0     C74420   6.937   2.268   3.413  0.5312  0.8003 -0.2347
  552MOL0     O74421   7.058   2.264   3.479 -0.2993  1.1003  0.0472
  552MOL0     C74422   7.171   2.219   3.408  0.5393  0.2981  0.2079
  552MOL0     C74423   7.278   2.175   3.514  0.2521  0.1046  0.0345
  552MOL0     C74424   7.407   2.128   3.448  0.4801  0.3105 -0.2724
  552MOL0     C74425   7.511   2.070   3.545 -0.0576 -0.4400 -0.3894
  552MOL0     C74426   7.628   1.997   3.475 -0.3825 -0.8270  0.3866
  552MOL0     C74427   7.707   2.083   3.379  0.2956 -0.1586 -0.2730
  552MOL0     C74428   7.842   2.018   3.332 -0.8089  0.2751  1.1265
  552MOL0     C74429   7.826   1.990   3.180  0.5551 -0.9936  0.1496
  552MOL0    Cl74430   7.722   1.837   3.140 -0.1855 -0.1957  0.3140
  552MOL0     C74431   6.920   2.257   3.279  0.0728  0.0205  0.9606
  552MOL0     C74432   6.801   2.302   3.222  0.3965 -0.9065 -0.1105
  552MOL0     O74433   6.492   2.569   3.342 -0.0946 -0.9050 -0.1190
  552MOL0     C74434   6.229   2.511   3.311 -1.0786  0.7768  0.6855
  552MOL0     C74435   6.099   2.516   3.277 -0.4376 -0.0845 -1.4495
  552MOL0     N74436   5.473   2.349   2.984  0.0157 -0.9290  0.2376
  552MOL0     N74437   5.402   2.324   2.881 -1.0715 -0.0062 -0.3724
  552MOL0     C74438   4.830   2.587   2.280  0.0408 -0.5946 -0.1471
  552MOL0     C74439   4.734   2.666   2.350  0.6649 -0.4271 -0.5149
  552MOL0     C74440   4.514   3.038   2.487  0.4996  0.1231  0.6220
  552MOL0     C74441   4.556   3.139   2.575  0.4129  0.0652 -0.2849
  552MOL0     C74442   4.470   3.240   2.606 -0.1776 -0.3989  0.5383
  552MOL0     C74443   4.342   3.237   2.550  0.2538  0.1312 -0.8252
  552MOL0     O74444   4.237   3.314   2.593  0.7507 -0.3926  0.3835
  552MOL0     C74445   4.175   3.299   2.722 -0.6750  0.3177  0.7462
  552MOL0     C74446   4.030   3.303   2.693  0.3256 -0.3195 -0.2248
  552MOL0     C74447   3.982   3.445   2.654  0.8460  0.2709 -0.4571
  552MOL0     C74448   3.981   3.461   2.502 -0.1112 -0.4315 -0.2612
  552MOL0     C74449   3.947   3.601   2.478 -1.0894 -0.2160  0.3889
  552MOL0     C74450   3.924   3.720   2.457  0.1291  0.0239 -0.0916
  552MOL0     C74451   4.305   3.149   2.459 -1.1838  0.8558 -0.5311
  552MOL0     C74452   4.387   3.054   2.427 -0.7786  0.1746  0.5474
  552MOL0     H74453   4.606   2.846   2.084 -1.3821 -1.2895 -2.1103
  552MOL0     H74454   4.761   2.690   1.966 -2.5916  0.2049 -0.4176
  552MOL0     H74455   5.069   2.376   2.028  0.7338 -0.8539  0.9425
  552MOL0     H74456   5.068   2.493   2.165 -0.1436 -0.9190  2.2781
  552MOL0     H74457   4.851   2.327   2.226  0.9442 -0.8418  3.7998
  552MOL0     H74458   4.930   2.212   2.114  1.3396  0.1064 -1.8366
  552MOL0     H74459   5.120   2.186   2.228  0.6166  2.3929  0.4099
  552MOL0     H74460   5.109   2.344   2.309 -0.6211  1.9651 -0.6029
  552MOL0     H74461   4.890   2.244   2.422  1.5001  1.5541 -0.0688
  552MOL0     H74462   4.938   2.089   2.355  1.0287 -0.8278  1.2766
  552MOL0     H74463   5.034   2.064   2.556  1.3403 -1.0476 -1.3517
  552MOL0     H74464   5.180   2.151   2.494 -0.0806  2.9831 -1.3223
  552MOL0     H74465   5.043   2.370   2.552 -3.6378 -0.6489  0.5125
  552MOL0     H74466   4.989   2.265   2.685 -1.0181  2.4398  0.2325
  552MOL0     H74467   5.225   2.211   2.733 -1.7171 -1.0165 -0.3966
  552MOL0     H74468   5.264   2.326   2.614 -1.3187 -0.0189 -1.7068
  552MOL0     H74469   5.107   2.446   2.840 -0.1739  0.2986 -1.8958
  552MOL0     H74470   5.182   2.518   2.716 -1.0333  0.5203  0.8104
  552MOL0     H74471   5.274   2.612   2.978 -1.8320 -0.9312 -0.9453
  552MOL0     H74472   5.390   2.611   3.186  0.2002  2.6027 -1.3261
  552MOL0     H74473   5.471   2.452   3.250  0.6590  0.8139  0.2777
  552MOL0     H74474   5.596   2.684   3.261  0.6691  1.5620 -0.9661
  552MOL0     H74475   5.599   2.665   3.082 -1.3159 -2.4694 -1.1449
  552MOL0     H74476   5.688   2.421   3.142  1.2225  0.9152 -1.4975
  552MOL0     H74477   5.731   2.485   3.304 -0.2808  3.3168  1.2840
  552MOL0     H74478   5.885   2.655   3.199 -0.5847 -0.4016  0.5334
  552MOL0     H74479   5.830   2.606   3.040  1.2848  1.5063  0.0226
  552MOL0     H74480   6.117   2.365   2.982  4.6430 -0.7485 -1.4388
  552MOL0     H74481   6.457   2.431   2.997  0.9311 -2.1540  0.6428
  552MOL0     H74482   6.435   2.264   3.027 -3.2662 -1.2444 -1.0307
  552MOL0     H74483   6.330   2.339   2.907  1.3341  0.5722 -1.6760
  552MOL0     H74484   6.612   2.363   3.488  0.1046 -1.8568  1.4870
  552MOL0     H74485   6.810   2.307   3.599 -2.8995 -0.2961  0.3973
  552MOL0     H74486   7.146   2.128   3.352 -2.0616  0.7773  0.4513
  552MOL0     H74487   7.221   2.293   3.344 -1.5121  1.5263 -0.1147
  552MOL0     H74488   7.308   2.255   3.581  1.4569 -1.1469  1.0575
  552MOL0     H74489   7.229   2.096   3.572  0.0014  1.9514  2.4773
  552MOL0     H74490   7.455   2.218   3.408  0.4416  1.5584  2.2494
  552MOL0     H74491   7.381   2.053   3.373  0.2630 -0.2966  0.3981
  552MOL0     H74492   7.547   2.160   3.596 -1.3988 -0.4512  0.6644
  552MOL0     H74493   7.472   1.998   3.618  0.9113  1.4973  2.2201
  552MOL0     H74494   7.596   1.917   3.409  2.0577  1.9567 -4.8285
  552MOL0     H74495   7.698   1.975   3.556  0.7101  1.3819  0.1488
  552MOL0     H74496   7.646   2.089   3.289  1.1747 -0.2023 -0.8858
  552MOL0     H74497   7.726   2.186   3.408 -0.4484  0.1127 -0.7352
  552MOL0     H74498   7.862   1.924   3.385 -0.5993 -0.1190  0.3600
  552MOL0     H74499   7.922   2.091   3.344 -1.6308  1.2517  0.7544
  552MOL0     H74500   7.920   1.998   3.126  0.0023  0.4788 -0.6441
  552MOL0     H74501   7.762   2.067   3.136  1.1867  1.0075  2.5345
  552MOL0     H74502   6.996   2.211   3.217  1.0571  0.4393  1.8197
  552MOL0     H74503   6.778   2.301   3.116 -0.3852 -0.3618  0.0512
  552MOL0     H74504   6.258   2.555   3.406 -1.2696  0.6651  0.7967
  552MOL0     H74505   6.028   2.550   3.351 -0.5208 -1.6489 -0.7594
  552MOL0     H74506   4.894   2.525   2.342  0.6227  0.5257  0.4060
  552MOL0     H74507   4.716   2.647   2.455 -5.1993  2.1814 -0.6312
  552MOL0     H74508   4.655   3.149   2.619  0.8997  0.7993 -1.4840
  552MOL0     H74509   4.504   3.310   2.681  0.7747 -1.5000  1.1598
  552MOL0     H74510   4.201   3.200   2.759  0.3663 -0.3705 -1.6435
  552MOL0     H74511   4.212   3.374   2.792 -0.2544 -0.4469  1.3500
  552MOL0     H74512   3.976   3.274   2.784 -0.1121  0.5265 -0.2007
  552MOL0     H74513   4.003   3.235   2.612 -1.9108  3.4660 -3.0194
  552MOL0     H74514   4.054   3.513   2.701  2.7245 -1.9602  0.1101
  552MOL0     H74515   3.884   3.458   2.699 -0.7471 -2.5849 -2.7016
  552MOL0     H74516   3.900   3.401   2.459 -2.5900  2.1802  0.5248
  552MOL0     H74517   4.085   3.449   2.470  0.7138  2.8838  0.8038
  552MOL0     H74518   3.896   3.820   2.430  2.2944  1.3990  2.2884
  552MOL0     H74519   4.206   3.144   2.415 -0.8622  1.1276 -1.2904
  552MOL0     H74520   4.344   2.981   2.359  0.3174 -2.0617  2.1091
  553MOL0     O74521   2.357   5.012   4.828 -0.8317  0.7663 -0.8213
  553MOL0     C74522   2.434   4.911   4.859 -0.4150 -1.4450 -0.6066
  553MOL0     O74523   2.537   4.905   4.954  0.2905  0.2878 -0.2818
  553MOL0     C74524   2.591   5.017   5.002  1.0888 -0.5442 -1.2414
  553MOL0     C74525   2.598   5.141   4.935 -0.4431  0.6507 -0.3788
  553MOL0     C74526   2.674   5.246   4.994 -0.1396 -0.8275 -0.8020
  553MOL0     C74527   2.744   5.223   5.111  0.1276  0.5948 -0.0195
  553MOL0     O74528   2.820   5.325   5.157 -0.2979 -0.5059  0.2179
  553MOL0     C74529   2.960   5.286   5.194  0.7765  0.8887  0.9634
  553MOL0     C74530   3.057   5.390   5.126  0.2423 -0.1382 -0.1149
  553MOL0     C74531   3.021   5.536   5.183  0.5759  0.2208  0.3490
  553MOL0     C74532   3.067   5.539   5.332  0.2513 -0.8758 -0.1819
  553MOL0     C74533   3.026   5.674   5.390  0.1304 -0.8000  0.8779
  553MOL0     C74534   3.095   5.791   5.329  0.4307 -0.0574  0.2138
  553MOL0     C74535   3.246   5.779   5.320 -0.9554 -1.6353 -0.9294
  553MOL0     C74536   3.301   5.768   5.470  0.2794 -0.0157  0.0205
  553MOL0     N74537   3.420   5.852   5.494 -0.6197  0.7024 -0.4194
  553MOL0     C74538   3.428   5.987   5.502  0.1070 -0.1849  1.0286
  553MOL0     C74539   3.556   6.009   5.525 -0.9122  0.2435 -0.4791
  553MOL0     C74540   3.610   6.144   5.540 -0.2462 -0.7864  0.3068
  553MOL0     C74541   3.611   6.195   5.683  0.0810  0.3238 -0.5610
  553MOL0     C74542   3.754   6.216   5.743  0.8142  0.4432 -0.2491
  553MOL0     C74543   3.755   6.286   5.881  1.0006 -0.1932  0.2138
  553MOL0     O74544   3.665   6.203   5.971  0.1645  0.1880 -1.6662
  553MOL0     C74545   3.648   6.264   6.091  0.8276  0.1377 -0.4654
  553MOL0     C74546   3.534   6.237   6.166 -0.0821  0.2482  0.0294
  553MOL0     C74547   3.493   6.294   6.285  0.1010 -0.1658 -0.1096
  553MOL0     C74548   3.368   6.240   6.352 -0.0937  0.3954 -0.7808
  553MOL0     C74549   3.570   6.403   6.334 -0.3704 -0.1020 -0.5073
  553MOL0     C74550   3.537   6.480   6.454  0.5943 -0.5030  0.2513
  553MOL0     O74551   3.640   6.544   6.503  0.0535  0.0819 -0.5205
  553MOL0     C74552   3.627   6.620   6.621  0.1417 -0.7001  0.3844
  553MOL0     C74553   3.605   6.567   6.750 -0.1532  0.3971  0.8992
  553MOL0     C74554   3.594   6.648   6.865  1.0602 -0.2702 -0.1376
  553MOL0     C74555   3.597   6.781   6.857  0.0790 -0.2882 -0.2326
  553MOL0     O74556   3.565   6.868   6.963  0.3311  0.8534 -0.4947
  553MOL0     C74557   3.441   6.831   7.020  0.3561  0.9447 -0.5799
  553MOL0     C74558   3.321   6.848   6.932  0.1586  0.1995  0.4771
  553MOL0     C74559   3.186   6.840   7.010 -0.6122 -0.5169  0.1408
  553MOL0     C74560   3.076   6.892   6.911 -0.4417  0.4120 -0.2443
  553MOL0     C74561   2.940   6.865   6.971 -0.2914 -0.1953 -0.8097
  553MOL0     C74562   2.825   6.900   6.875  0.1257 -0.7322 -0.7754
  553MOL0     C74563   2.697   6.832   6.918 -0.6896 -0.4917 -0.0445
  553MOL0     C74564   2.578   6.892   6.852  0.6147  0.1718 -0.4454
  553MOL0    Cl74565   2.584   6.912   6.682 -0.0207  0.3858 -0.0803
  553MOL0     C74566   3.613   6.840   6.734 -0.8208  0.3025  0.6726
  553MOL0     C74567   3.634   6.766   6.622 -0.0334 -0.7983  0.5875
  553MOL0     O74568   3.422   6.482   6.495 -0.5315  0.3093  0.8730
  553MOL0     C74569   3.680   6.442   6.261 -0.3246  0.6302  0.0160
  553MOL0     C74570   3.716   6.375   6.143  0.1097 -0.0497 -0.0233
  553MOL0     N74571   3.636   5.894   5.538 -0.3281 -0.1527  0.4982
  553MOL0     N74572   3.552   5.805   5.496  0.9743 -0.5741  0.8989
  553MOL0     C74573   2.739   5.095   5.167 -0.0578  0.9821  0.4782
  553MOL0     C74574   2.658   4.992   5.114  0.9289  0.5009 -0.5195
  553MOL0     C74575   2.397   4.783   4.783 -0.4434 -0.4139 -0.5503
  553MOL0     C74576   2.310   4.784   4.675  0.1166 -0.0873  0.3873
  553MOL0     C74577   2.268   4.672   4.614  0.7174 -0.3308 -1.0539
  553MOL0     C74578   2.305   4.551   4.657 -1.2897  0.1798 -0.1898
  553MOL0     O74579   2.249   4.436   4.600 -0.0640  0.1194 -0.6873
  553MOL0     C74580   2.307   4.312   4.638 -0.1347 -0.7036 -0.4606
  553MOL0     C74581   2.251   4.204   4.538 -0.7892 -1.1233  0.7719
  553MOL0     C74582   2.106   4.159   4.568  0.1177 -0.5693  0.1867
  553MOL0     C74583   2.057   4.027   4.499  0.0722 -0.8902 -0.0563
  553MOL0     C74584   2.077   4.042   4.355 -0.0077  0.3887 -0.4018
  553MOL0     C74585   2.096   4.054   4.237  0.1254  0.5623  0.5858
  553MOL0     C74586   2.400   4.541   4.764 -0.5759  0.8630 -0.9509
  553MOL0     C74587   2.446   4.661   4.826  0.8463 -0.3114 -0.5835
  553MOL0     H74588   2.558   5.162   4.837 -0.8961  1.9511  0.0595
  553MOL0     H74589   2.674   5.351   4.966 -1.2183  0.3406  3.0468
  553MOL0     H74590   2.968   5.273   5.303 -2.2056 -0.1215  1.1457
  553MOL0     H74591   2.987   5.194   5.143 -1.0044  0.0901  1.3758
  553MOL0     H74592   3.164   5.372   5.138  0.5366  0.7204 -1.1792
  553MOL0     H74593   3.034   5.386   5.019  2.4899  1.7742 -0.7502
  553MOL0     H74594   3.071   5.617   5.130 -0.7609  1.1934  0.5388
  553MOL0     H74595   2.915   5.559   5.170  0.7655  1.2300  0.5106
  553MOL0     H74596   3.014   5.466   5.394 -0.4547 -1.3510 -1.2987
  553MOL0     H74597   3.171   5.507   5.339  0.7114  0.6164  0.1255
  553MOL0     H74598   2.917   5.682   5.383  0.2914  0.2274 -1.0127
  553MOL0     H74599   3.049   5.675   5.498  0.8375 -0.8616  0.7361
  553MOL0     H74600   3.049   5.804   5.230 -2.1616 -1.3070  1.1588
  553MOL0     H74601   3.067   5.884   5.379 -0.2908 -1.2242  2.0839
  553MOL0     H74602   3.283   5.700   5.255  1.9939 -0.9097 -0.2705
  553MOL0     H74603   3.286   5.868   5.271 -0.8781  0.4438  2.5338
  553MOL0     H74604   3.314   5.663   5.497 -0.5683 -0.3765 -0.8953
  553MOL0     H74605   3.232   5.796   5.550  0.4172  0.9712 -0.1932
  553MOL0     H74606   3.348   6.061   5.497  1.7220  1.8487  2.9184
  553MOL0     H74607   3.706   6.150   5.489  0.0918 -1.2611  0.8637
  553MOL0     H74608   3.550   6.202   5.470 -0.3130 -0.6610  0.4672
  553MOL0     H74609   3.578   6.112   5.746 -1.0124  0.5400 -0.8191
  553MOL0     H74610   3.542   6.280   5.692 -1.4238 -0.9835  0.9345
  553MOL0     H74611   3.804   6.280   5.670  1.5981  0.7064  0.5171
  553MOL0     H74612   3.812   6.124   5.748  0.5849  0.3648  2.7504
  553MOL0     H74613   3.707   6.384   5.870 -1.4441 -1.6346 -3.7715
  553MOL0     H74614   3.858   6.294   5.918  1.0940  1.4874 -0.3289
  553MOL0     H74615   3.480   6.157   6.115 -1.1823 -0.0076  1.5190
  553MOL0     H74616   3.388   6.215   6.457 -4.0537  1.7415  0.5095
  553MOL0     H74617   3.283   6.307   6.336 -1.8601 -1.7356 -0.7633
  553MOL0     H74618   3.340   6.150   6.298 -1.9840  1.5877 -1.9024
  553MOL0     H74619   3.586   6.461   6.763  1.5778 -0.4015 -2.1151
  553MOL0     H74620   3.579   6.595   6.959 -0.5384 -2.7929 -1.6876
  553MOL0     H74621   3.445   6.729   7.059  4.4131  1.3938  0.6675
  553MOL0     H74622   3.423   6.894   7.107 -2.2408  0.2023 -0.4896
  553MOL0     H74623   3.334   6.948   6.889  1.5706 -1.1630 -2.5857
  553MOL0     H74624   3.317   6.765   6.860  1.2920  2.6054 -2.5747
  553MOL0     H74625   3.193   6.895   7.104 -0.7521 -0.7530  0.2899
  553MOL0     H74626   3.163   6.736   7.035 -1.3189 -0.8196 -1.5840
  553MOL0     H74627   3.095   6.997   6.886  1.9344  0.0969 -0.0262
  553MOL0     H74628   3.087   6.840   6.815  3.0554 -0.6099  0.5370
  553MOL0     H74629   2.926   6.917   7.066 -1.0276  1.2651 -1.6744
  553MOL0     H74630   2.928   6.758   6.990  0.0316  0.2543  2.4300
  553MOL0     H74631   2.828   7.009   6.880 -0.2018 -0.7791  0.9275
  553MOL0     H74632   2.850   6.869   6.773 -1.5989 -2.2314 -0.7687
  553MOL0     H74633   2.686   6.821   7.027  2.5123  1.4840  0.6245
  553MOL0     H74634   2.713   6.730   6.883 -0.2173 -1.4023  2.5972
  553MOL0     H74635   2.557   6.987   6.902 -1.9866 -0.1719 -0.7651
  553MOL0     H74636   2.488   6.835   6.876 -0.3721  2.4427  1.6190
  553MOL0     H74637   3.602   6.947   6.724  1.8458  0.7638  1.7821
  553MOL0     H74638   3.654   6.824   6.532  2.7764 -0.6281  1.2108
  553MOL0     H74639   3.733   6.532   6.289  0.9590 -0.0344 -0.1834
  553MOL0     H74640   3.795   6.420   6.083 -1.9518  3.8459 -0.1766
  553MOL0     H74641   2.792   5.075   5.259  1.2943 -1.2381 -0.7125
  553MOL0     H74642   2.666   4.892   5.155 -0.9892 -0.0982 -1.5005
  553MOL0     H74643   2.271   4.881   4.644  0.9551 -0.1364 -0.8900
  553MOL0     H74644   2.191   4.681   4.537 -0.4598 -2.0255 -0.1395
  553MOL0     H74645   2.415   4.324   4.628 -0.2510  1.8769  0.7113
  553MOL0     H74646   2.300   4.283   4.744  0.7883 -0.3933 -0.3075
  553MOL0     H74647   2.313   4.116   4.520 -0.4560 -0.8743  0.6967
  553MOL0     H74648   2.250   4.256   4.442 -2.8938 -1.0465  0.7945
  553MOL0     H74649   2.033   4.235   4.535 -0.2916 -0.5443  1.1294
  553MOL0     H74650   2.088   4.147   4.675 -1.7741 -3.3803 -0.3450
  553MOL0     H74651   1.951   4.010   4.521  0.2158  0.7221  2.2956
  553MOL0     H74652   2.123   3.942   4.515  0.4428 -2.7353 -7.6499
  553MOL0     H74653   2.110   4.051   4.131 -0.5323 -0.9114  0.5105
  553MOL0     H74654   2.431   4.446   4.807 -0.5774  0.5877 -1.5360
  553MOL0     H74655   2.511   4.650   4.912  4.0377  1.6664 -2.5594
  554MOL0     O74656   5.821   9.215   1.881 -0.5161  0.4205 -0.1894
  554MOL0     C74657   5.834   9.296   1.976 -0.7931 -0.5077  0.4996
  554MOL0     O74658   5.928   9.290   2.072  0.1794 -0.2133  0.0819
  554MOL0     C74659   6.026   9.200   2.034  0.7849 -0.6950  0.3338
  554MOL0     C74660   6.010   9.056   2.042  0.1295 -0.9567 -0.6516
  554MOL0     C74661   6.112   8.977   2.007 -0.8410 -0.7193 -0.5879
  554MOL0     C74662   6.236   9.026   1.966 -0.6423 -0.4478  0.4405
  554MOL0     O74663   6.332   8.936   1.932  0.4294  0.3120  0.1398
  554MOL0     C74664   6.442   8.926   2.023  0.5015 -0.5210  0.1094
  554MOL0     C74665   6.410   8.828   2.138 -0.1815  0.3443 -0.5104
  554MOL0     C74666   6.544   8.759   2.181  0.2787 -0.8679 -0.3890
  554MOL0     C74667   6.636   8.862   2.248 -1.1813  0.6288 -0.8840
  554MOL0     C74668   6.745   8.790   2.324 -0.6829 -0.0153  0.3823
  554MOL0     C74669   6.842   8.883   2.394 -0.0529 -0.2160  0.1612
  554MOL0     C74670   6.792   8.939   2.528  0.0746 -0.0771 -0.0940
  554MOL0     C74671   6.920   8.990   2.611 -0.2874  0.7255  0.0906
  554MOL0     N74672   6.970   9.121   2.558  0.3048 -0.1625 -0.4079
  554MOL0     C74673   7.062   9.144   2.459 -0.9291  0.4472  0.1302
  554MOL0     C74674   7.057   9.274   2.433  0.0509  1.2396  0.9407
  554MOL0     C74675   7.122   9.343   2.317 -0.0413  0.3238 -0.9513
  554MOL0     C74676   7.146   9.492   2.345 -0.8379  0.7586 -0.3926
  554MOL0     C74677   7.024   9.577   2.322 -0.6573  0.0745 -0.3984
  554MOL0     C74678   7.054   9.731   2.343 -1.2234 -0.5058  0.4740
  554MOL0     O74679   7.171   9.767   2.270 -0.2271 -0.3785  0.0662
  554MOL0     C74680   7.159   9.829   2.146 -0.1497 -0.0062  0.8233
  554MOL0     C74681   7.041   9.868   2.077 -0.3753 -0.4589  1.1341
  554MOL0     C74682   7.053   9.930   1.948 -0.8977  0.0891  0.2703
  554MOL0     C74683   6.926   9.958   1.873  0.2185 -0.2996 -0.2769
  554MOL0     C74684   7.183   9.941   1.893  0.5496 -1.0194 -0.0926
  554MOL0     C74685   7.203  10.017   1.762 -0.7508 -0.4571 -0.8039
  554MOL0     O74686   7.133  10.123   1.741 -0.7693  0.5491 -0.9927
  554MOL0     C74687   7.138  10.177   1.613  0.7389 -0.1439 -0.2266
  554MOL0     C74688   7.103  10.101   1.497 -0.5246  0.0964 -0.1472
  554MOL0     C74689   7.104  10.157   1.371  0.2889 -0.2864  1.1133
  554MOL0     C74690   7.129  10.291   1.347 -1.1277 -1.1467 -0.2049
  554MOL0     O74691   7.134  10.335   1.217 -0.0941  0.9253 -0.5999
  554MOL0     C74692   7.173  10.469   1.186  0.4094  0.2228  0.8012
  554MOL0     C74693   7.197  10.490   1.031  0.3779  0.3871 -0.3969
  554MOL0     C74694   7.215  10.630   0.979 -0.0816  0.1728  0.1687
  554MOL0     C74695   7.352  10.701   1.020  0.5251 -0.0440  0.7946
  554MOL0     C74696   7.476  10.641   0.953 -0.0524 -0.0499 -0.3058
  554MOL0     C74697   7.609  10.695   1.004 -0.6169 -0.6788  0.1257
  554MOL0     C74698   7.624  10.850   0.983 -0.1258  0.0063  0.2556
  554MOL0     C74699   7.761  10.886   1.017  0.2588 -0.8184 -0.2028
  554MOL0    Cl74700   7.778  10.897   1.192  0.2722  0.2026  0.5265
  554MOL0     C74701   7.165  10.367   1.457 -0.4544 -0.7659  0.1277
  554MOL0     C74702   7.161  10.314   1.591  0.1993 -0.3425 -0.4466
  554MOL0     O74703   7.300   9.983   1.692  1.1303  0.7230  1.3498
  554MOL0     C74704   7.295   9.893   1.955 -0.8207  0.4359 -0.0928
  554MOL0     C74705   7.281   9.835   2.082 -0.5517  0.1313  0.0492
  554MOL0     N74706   6.976   9.327   2.529  0.6289  0.4969 -0.0367
  554MOL0     N74707   6.918   9.239   2.600  0.0808  0.4791  0.2380
  554MOL0     C74708   6.259   9.168   1.958  0.7795  0.4002 -0.2365
  554MOL0     C74709   6.149   9.249   1.994  0.2649 -0.1686 -0.8225
  554MOL0     C74710   5.741   9.424   1.974 -0.2570  0.0458  0.1072
  554MOL0     C74711   5.763   9.522   2.071  0.0239  0.2980  0.2814
  554MOL0     C74712   5.672   9.633   2.073  0.5537 -0.1171  1.6156
  554MOL0     C74713   5.578   9.655   1.963 -0.4818 -0.1757  0.4900
  554MOL0     O74714   5.497   9.767   1.952 -0.1088 -0.2032 -1.0969
  554MOL0     C74715   5.516   9.881   2.027 -0.1948  0.0412 -0.2505
  554MOL0     C74716   5.454   9.870   2.166 -0.8310 -0.3952  0.2069
  554MOL0     C74717   5.535   9.940   2.279  0.2105  0.0695  0.5968
  554MOL0     C74718   5.451   9.965   2.404 -0.1934 -0.5615 -1.2482
  554MOL0     C74719   5.544   9.986   2.517 -0.2430  0.3596  0.6952
  554MOL0     C74720   5.623   9.974   2.612  0.6345  0.0137 -0.1328
  554MOL0     C74721   5.568   9.562   1.862 -0.9061  0.2525 -0.1214
  554MOL0     C74722   5.647   9.442   1.867  0.4050 -0.5030  0.0587
  554MOL0     H74723   5.916   9.005   2.059 -1.1763  0.8600 -2.0312
  554MOL0     H74724   6.090   8.871   2.004 -1.4586 -0.5689 -2.0714
  554MOL0     H74725   6.543   8.905   1.986  0.8208 -1.4052  1.4318
  554MOL0     H74726   6.438   9.023   2.074  1.2273  1.2009 -2.8303
  554MOL0     H74727   6.356   8.869   2.223  2.0518 -0.1985  1.2535
  554MOL0     H74728   6.348   8.754   2.085 -4.9595 -0.1887  4.8839
  554MOL0     H74729   6.519   8.682   2.254  0.6468 -1.4554 -0.8734
  554MOL0     H74730   6.594   8.721   2.092 -0.9175 -0.6439 -1.1845
  554MOL0     H74731   6.679   8.925   2.170  1.4009 -0.1997 -0.2372
  554MOL0     H74732   6.576   8.926   2.315 -0.5939  2.2305 -1.8234
  554MOL0     H74733   6.707   8.718   2.398  0.9279 -2.9671 -1.4785
  554MOL0     H74734   6.794   8.723   2.253 -1.3589  1.6795 -1.8150
  554MOL0     H74735   6.931   8.831   2.429  2.1686  2.8262 -0.5368
  554MOL0     H74736   6.873   8.969   2.333  1.0796 -1.4243 -1.0408
  554MOL0     H74737   6.732   9.028   2.513  2.2348  1.5388  0.2917
  554MOL0     H74738   6.750   8.860   2.591  0.2718 -0.8470 -0.9103
  554MOL0     H74739   6.998   8.913   2.613 -0.1651  0.8395 -0.1676
  554MOL0     H74740   6.898   9.012   2.715  0.5383  2.8219 -0.1265
  554MOL0     H74741   7.103   9.079   2.382 -1.6577 -1.7170  1.4731
  554MOL0     H74742   7.217   9.290   2.310 -2.4277 -4.5633 -0.0714
  554MOL0     H74743   7.064   9.322   2.227  0.6402 -3.3831 -0.6572
  554MOL0     H74744   7.228   9.518   2.278 -0.2085 -2.0784 -0.8606
  554MOL0     H74745   7.181   9.510   2.447  1.5187 -0.4545 -0.8897
  554MOL0     H74746   6.946   9.542   2.390  2.9871 -3.4987  2.4256
  554MOL0     H74747   6.996   9.557   2.218  1.3821 -0.1767 -0.9411
  554MOL0     H74748   7.077   9.761   2.446  1.1569 -0.1674 -0.0978
  554MOL0     H74749   6.973   9.792   2.302  1.1039  0.8955 -2.3680
  554MOL0     H74750   6.945   9.844   2.121 -1.0058 -2.4603 -1.1804
  554MOL0     H74751   6.943   9.934   1.767  2.0526  2.5190 -0.7265
  554MOL0     H74752   6.848   9.898   1.921  1.2593 -0.3011  1.4819
  554MOL0     H74753   6.899  10.064   1.882  1.6477  0.1852 -1.3133
  554MOL0     H74754   7.100   9.993   1.502  0.3401  0.1051  0.9898
  554MOL0     H74755   7.090  10.095   1.283  0.9288  0.5912  0.3712
  554MOL0     H74756   7.095  10.536   1.223 -1.4245 -0.1111 -2.1270
  554MOL0     H74757   7.269  10.492   1.233  0.4028 -1.3948  1.6557
  554MOL0     H74758   7.286  10.431   1.006  2.0220  1.6382  2.0695
  554MOL0     H74759   7.109  10.448   0.982  2.1078 -2.4073 -1.3248
  554MOL0     H74760   7.129  10.687   1.015 -2.6467 -0.3258 -4.5005
  554MOL0     H74761   7.211  10.628   0.870 -0.3267  0.2087  0.1763
  554MOL0     H74762   7.339  10.804   0.986  2.7405  0.6361  1.7949
  554MOL0     H74763   7.360  10.706   1.129  3.5830 -1.5773  0.7488
  554MOL0     H74764   7.455  10.656   0.846 -2.8940  0.7302  0.2718
  554MOL0     H74765   7.482  10.537   0.984  1.9387  0.6136  1.7652
  554MOL0     H74766   7.619  10.687   1.113 -1.3003 -1.5273  0.1407
  554MOL0     H74767   7.687  10.636   0.955  0.7037  1.8859 -1.0872
  554MOL0     H74768   7.552  10.912   1.038  0.8401 -0.3938  2.0653
  554MOL0     H74769   7.620  10.862   0.875 -0.6637 -2.2314 -0.0249
  554MOL0     H74770   7.787  10.985   0.979  1.9748  0.6267  4.0705
  554MOL0     H74771   7.826  10.804   0.985  1.5301  0.7862 -2.0247
  554MOL0     H74772   7.192  10.468   1.429  0.1904 -1.7064 -2.9688
  554MOL0     H74773   7.185  10.381   1.673 -1.2829 -1.0447  0.6070
  554MOL0     H74774   7.393   9.907   1.912 -0.1342 -2.1642  0.4349
  554MOL0     H74775   7.365   9.806   2.144 -0.1413  3.6769  1.3792
  554MOL0     H74776   6.349   9.218   1.925  0.7800  1.6618  1.5573
  554MOL0     H74777   6.176   9.354   1.996  0.2754 -0.1285  2.4957
  554MOL0     H74778   5.821   9.508   2.162 -0.6921 -1.1815  0.5318
  554MOL0     H74779   5.675   9.707   2.151 -2.1644  0.9849  0.8092
  554MOL0     H74780   5.621   9.896   2.052 -0.3126 -0.2328  0.4276
  554MOL0     H74781   5.484   9.970   1.971  0.5095  0.2343 -0.3609
  554MOL0     H74782   5.458   9.763   2.191  1.6327 -0.3829  0.1367
  554MOL0     H74783   5.351   9.905   2.169 -1.8451 -2.2274 -4.5519
  554MOL0     H74784   5.561  10.041   2.246  0.7992  0.4273  2.1043
  554MOL0     H74785   5.630   9.891   2.302 -0.4828 -1.3066  0.6270
  554MOL0     H74786   5.386   9.879   2.425 -2.1896  0.7896 -1.7014
  554MOL0     H74787   5.389  10.054   2.391 -1.7536 -1.2813  0.6751
  554MOL0     H74788   5.690   9.974   2.696  1.5744  2.1094 -0.8253
  554MOL0     H74789   5.502   9.596   1.783 -0.0873  4.7722  0.8671
  554MOL0     H74790   5.651   9.375   1.781  0.9618 -0.8255  0.3299
  555MOL0     O74791  11.091   1.499   1.318 -0.0583 -0.9489  0.1655
  555MOL0     C74792  11.148   1.430   1.233 -0.5906 -0.0138  0.0193
  555MOL0     O74793  11.270   1.371   1.250  0.5718 -0.3541  0.0634
  555MOL0     C74794  11.338   1.367   1.372 -1.6054 -0.4713 -0.1182
  555MOL0     C74795  11.465   1.304   1.358  0.3680 -0.1469  0.0125
  555MOL0     C74796  11.541   1.290   1.470  0.3220  0.3172 -0.0404
  555MOL0     C74797  11.502   1.344   1.600  0.0079 -0.2299 -0.2047
  555MOL0     O74798  11.571   1.349   1.717 -0.3718  0.0180 -0.0925
  555MOL0     C74799  11.707   1.300   1.736 -0.4408 -0.5016 -0.7667
  555MOL0     C74800  11.735   1.254   1.877  0.2982  0.7392  1.6001
  555MOL0     C74801  11.764   1.355   1.988  1.0446 -0.9403 -0.2782
  555MOL0     C74802  11.812   1.297   2.125  0.9535  0.0961  2.1441
  555MOL0     C74803  11.800   1.397   2.238 -0.8368 -0.2665 -0.6099
  555MOL0     C74804  11.860   1.527   2.213  0.6955 -0.8314  0.4384
  555MOL0     C74805  11.873   1.612   2.333  0.4279 -0.8462  0.1617
  555MOL0     C74806  11.745   1.645   2.410 -0.5293 -0.7193  0.9407
  555MOL0     N74807  11.766   1.667   2.553 -0.8590  0.1820 -0.2905
  555MOL0     C74808  11.760   1.799   2.606  0.1898  0.4922 -1.3222
  555MOL0     C74809  11.761   1.767   2.746  0.1093 -0.9444 -0.4922
  555MOL0     C74810  11.765   1.876   2.850  0.5443 -0.2442 -0.2074
  555MOL0     C74811  11.695   2.008   2.829 -0.4591  0.2419  0.7906
  555MOL0     C74812  11.781   2.112   2.764 -0.7445 -0.4146 -0.7886
  555MOL0     C74813  11.919   2.143   2.837  0.2238  0.2057 -0.2657
  555MOL0     O74814  11.936   2.283   2.867  0.1529  0.8637 -0.5104
  555MOL0     C74815  12.070   2.326   2.880  0.1378 -0.7377 -1.4792
  555MOL0     C74816  12.109   2.452   2.837 -0.9589 -0.9771 -0.2006
  555MOL0     C74817  12.244   2.495   2.857  0.0756  1.0041  0.1541
  555MOL0     C74818  12.285   2.618   2.790  0.3693  0.3161  1.2669
  555MOL0     C74819  12.325   2.419   2.951 -0.4740  0.1883 -0.2313
  555MOL0     C74820  12.467   2.459   2.997 -0.8467  1.1931 -0.4201
  555MOL0     O74821  12.531   2.373   3.071 -0.1920 -0.7500 -0.2381
  555MOL0     C74822  12.662   2.405   3.114  0.4991 -0.4034 -0.3633
  555MOL0     C74823  12.773   2.413   3.025 -0.3558  0.6356 -0.4287
  555MOL0     C74824  12.898   2.470   3.078  1.0106  0.9196  0.1913
  555MOL0     C74825  12.903   2.494   3.219 -0.4704  0.5230 -0.4283
  555MOL0     O74826  13.025   2.523   3.267 -0.2519 -0.3302 -0.0142
  555MOL0     C74827  13.052   2.664   3.299  1.5481 -0.4511  0.4377
  555MOL0     C74828  13.149   2.725   3.201  0.4342  0.2725 -0.0432
  555MOL0     C74829  13.288   2.671   3.226  0.2017 -0.1154  0.7128
  555MOL0     C74830  13.365   2.687   3.084  0.7325  0.6711 -0.5609
  555MOL0     C74831  13.390   2.832   3.039 -0.0809 -0.5503 -0.4811
  555MOL0     C74832  13.501   2.825   2.930  0.1627  0.0898 -0.5055
  555MOL0     C74833  13.536   2.963   2.875  0.6469 -0.5873  0.4974
  555MOL0     C74834  13.680   2.993   2.831 -0.8558  0.3681 -0.9015
  555MOL0    Cl74835  13.676   3.151   2.771  0.3027 -0.3504  0.7165
  555MOL0     C74836  12.789   2.482   3.302  0.4807  0.5530 -0.8271
  555MOL0     C74837  12.670   2.445   3.252  0.3983  0.1394  0.2892
  555MOL0     O74838  12.502   2.570   2.966  0.0007 -0.4334  0.2031
  555MOL0     C74839  12.275   2.294   2.986 -0.5761 -0.1672 -0.1419
  555MOL0     C74840  12.155   2.249   2.957  0.1861 -0.4543  0.8440
  555MOL0     N74841  11.755   1.637   2.765  0.2266 -0.9179 -0.3126
  555MOL0     N74842  11.758   1.580   2.653  0.4591 -0.3700  0.4766
  555MOL0     C74843  11.385   1.429   1.604 -0.7875  0.2163  0.5896
  555MOL0     C74844  11.304   1.435   1.492  0.2727 -0.0903  0.4609
  555MOL0     C74845  11.076   1.395   1.110 -0.4270  0.5117  0.3946
  555MOL0     C74846  10.946   1.441   1.091  0.3002  0.3031  0.0701
  555MOL0     C74847  10.873   1.426   0.969 -0.3291 -0.4114 -0.3298
  555MOL0     C74848  10.935   1.369   0.857 -0.0537  0.4584 -0.7946
  555MOL0     O74849  10.880   1.339   0.737  0.4161  0.4002 -0.4249
  555MOL0     C74850  10.781   1.423   0.693  0.4060 -0.0526 -0.7625
  555MOL0     C74851  10.838   1.562   0.664 -0.0830 -0.3469  0.4659
  555MOL0     C74852  10.963   1.547   0.570 -0.4183  0.1252 -1.3659
  555MOL0     C74853  10.975   1.653   0.479  0.1647  0.5207  0.0944
  555MOL0     C74854  10.881   1.645   0.371 -0.8617 -0.1767  0.0090
  555MOL0     C74855  10.827   1.650   0.262  0.4642 -0.0783  0.4773
  555MOL0     C74856  11.069   1.322   0.880  0.3832 -0.1341  0.1510
  555MOL0     C74857  11.141   1.331   1.002  0.4038  1.1850  0.3561
  555MOL0     H74858  11.491   1.267   1.259  0.2991  0.0268 -0.0697
  555MOL0     H74859  11.638   1.241   1.457 -0.2799 -0.3876 -2.3428
  555MOL0     H74860  11.729   1.213   1.674  3.0093  1.2785 -2.3530
  555MOL0     H74861  11.783   1.373   1.704 -1.1865 -0.0091 -1.4600
  555MOL0     H74862  11.643   1.212   1.918 -0.5112  1.5663  0.6597
  555MOL0     H74863  11.814   1.179   1.871 -0.6008 -0.0730 -2.2451
  555MOL0     H74864  11.849   1.420   1.967 -1.5646  3.0190  0.4149
  555MOL0     H74865  11.677   1.419   2.006  0.2784 -2.2986  1.0107
  555MOL0     H74866  11.752   1.208   2.146 -0.4844  0.5902  0.3553
  555MOL0     H74867  11.912   1.255   2.111  0.7645  0.0057  0.9286
  555MOL0     H74868  11.694   1.409   2.259  0.0277  1.2213  4.3557
  555MOL0     H74869  11.836   1.348   2.330 -3.1992 -0.9899 -0.0060
  555MOL0     H74870  11.959   1.509   2.170  0.1837  2.5324 -2.7212
  555MOL0     H74871  11.804   1.585   2.139 -0.1537  0.5211  2.0742
  555MOL0     H74872  11.942   1.567   2.405 -0.1391 -0.7619  0.7679
  555MOL0     H74873  11.917   1.705   2.296  1.2983 -1.6949 -1.0016
  555MOL0     H74874  11.667   1.568   2.400  0.4939 -1.6731 -0.1243
  555MOL0     H74875  11.713   1.742   2.371 -1.4216 -0.1912  2.8982
  555MOL0     H74876  11.764   1.899   2.564 -0.7347  1.0839 -0.0873
  555MOL0     H74877  11.728   1.831   2.942 -1.5575  1.8017  0.0430
  555MOL0     H74878  11.872   1.888   2.872  0.5833 -0.8055 -0.0839
  555MOL0     H74879  11.661   2.044   2.926  1.1448 -0.9212  1.8282
  555MOL0     H74880  11.611   1.997   2.760  0.0548  1.2285 -0.0355
  555MOL0     H74881  11.723   2.205   2.755  0.4067  0.7711  2.5285
  555MOL0     H74882  11.808   2.076   2.665  0.4071 -0.7385 -0.3706
  555MOL0     H74883  11.989   2.101   2.765  0.1296 -0.8129  0.2181
  555MOL0     H74884  11.918   2.083   2.928  1.1764  1.2170  0.4328
  555MOL0     H74885  12.040   2.508   2.774  0.1744  0.5550 -0.1123
  555MOL0     H74886  12.226   2.651   2.704  1.5932  1.4761  0.8329
  555MOL0     H74887  12.291   2.703   2.859 -0.6430 -0.0856  1.8658
  555MOL0     H74888  12.387   2.610   2.750  1.5237  1.2553  3.8298
  555MOL0     H74889  12.770   2.388   2.920 -1.7077 -0.6568 -0.1333
  555MOL0     H74890  12.983   2.479   3.012  2.6910  1.4659  2.3042
  555MOL0     H74891  12.962   2.725   3.306 -1.4361 -4.4246 -0.3228
  555MOL0     H74892  13.093   2.667   3.400  0.5853  0.4888  0.8079
  555MOL0     H74893  13.112   2.725   3.098  1.0438 -0.2464 -0.2750
  555MOL0     H74894  13.153   2.834   3.207 -0.7151  0.8580 -4.9372
  555MOL0     H74895  13.295   2.565   3.252  0.1304 -0.0057  1.1871
  555MOL0     H74896  13.335   2.728   3.307 -0.4808  2.6624 -0.7487
  555MOL0     H74897  13.458   2.630   3.076 -0.6132 -2.2659  2.1604
  555MOL0     H74898  13.298   2.632   3.018 -5.0287 -0.2004  4.9984
  555MOL0     H74899  13.433   2.884   3.125 -4.2396 -1.1431  2.2675
  555MOL0     H74900  13.310   2.895   3.001  1.4552  0.5841 -1.9208
  555MOL0     H74901  13.597   2.783   2.964  0.1627 -0.5133 -1.2351
  555MOL0     H74902  13.463   2.758   2.852 -2.7734  0.4996  0.4473
  555MOL0     H74903  13.524   3.045   2.946  3.1917  1.2372 -1.0015
  555MOL0     H74904  13.459   2.985   2.800  0.1131  1.7385  1.6342
  555MOL0     H74905  13.702   2.925   2.748  1.2297  0.0594 -0.1645
  555MOL0     H74906  13.756   2.984   2.908  0.1126  0.7554 -1.7814
  555MOL0     H74907  12.800   2.503   3.407 -0.5851  0.3106 -0.6570
  555MOL0     H74908  12.580   2.447   3.311  0.2006 -0.9057  0.0484
  555MOL0     H74909  12.329   2.227   3.053  1.9207  2.1739  0.3791
  555MOL0     H74910  12.124   2.153   2.996  3.8184 -2.1283  0.0427
  555MOL0     H74911  11.358   1.477   1.698  0.7099  0.5844  0.8619
  555MOL0     H74912  11.212   1.491   1.505  0.4229  0.2132  0.2142
  555MOL0     H74913  10.889   1.486   1.171  2.4146  0.2961  1.6661
  555MOL0     H74914  10.767   1.450   0.960 -0.4906 -1.4655 -1.5818
  555MOL0     H74915  10.741   1.375   0.603  0.2472  1.9504 -1.8300
  555MOL0     H74916  10.695   1.424   0.760  0.8632  0.3403 -0.1785
  555MOL0     H74917  10.879   1.589   0.762  3.0079  0.4660 -0.9596
  555MOL0     H74918  10.767   1.631   0.618  1.0445  0.0348 -0.7556
  555MOL0     H74919  10.965   1.454   0.512  1.6248  1.2238 -3.2167
  555MOL0     H74920  11.049   1.543   0.637 -1.2642  2.8255  0.0070
  555MOL0     H74921  11.076   1.644   0.438 -0.8794  1.1514 -2.9141
  555MOL0     H74922  10.946   1.745   0.531 -0.7101  1.4861 -1.9723
  555MOL0     H74923  10.792   1.663   0.162  1.2677  0.4842  0.2535
  555MOL0     H74924  11.127   1.295   0.792 -0.7117  4.9179 -2.4853
  555MOL0     H74925  11.246   1.303   1.009 -0.1483 -1.1052  0.1506
  556MOL0     O74926   4.846   0.697   8.248  0.2065 -0.4457  0.0735
  556MOL0     C74927   4.893   0.668   8.355  0.4355  0.2081 -0.5616
  556MOL0     O74928   4.989   0.568   8.372  0.1246 -0.0508 -0.1082
  556MOL0     C74929   5.036   0.501   8.263 -0.1505 -0.0480 -0.1730
  556MOL0     C74930   4.960   0.425   8.177 -0.4461  0.5216 -0.6726
  556MOL0     C74931   5.008   0.328   8.081  1.0890 -0.6992  0.0580
  556MOL0     C74932   5.147   0.327   8.069 -0.5121 -0.3853  0.3050
  556MOL0     O74933   5.185   0.251   7.961 -0.2100  0.3623 -0.2876
  556MOL0     C74934   5.326   0.228   7.958 -0.0654 -0.0646 -0.7620
  556MOL0     C74935   5.350   0.102   7.871 -0.4482 -0.0521  0.1350
  556MOL0     C74936   5.319   0.122   7.723  0.0621 -0.4208 -0.1835
  556MOL0     C74937   5.244   0.007   7.666 -0.6363  0.4576  0.4920
  556MOL0     C74938   5.220   0.037   7.516 -0.4125  0.6619  0.6444
  556MOL0     C74939   5.116  -0.072   7.453 -1.1481 -0.8966 -0.6991
  556MOL0     C74940   5.125  -0.093   7.298 -0.1108 -0.4963  0.3770
  556MOL0     C74941   5.246  -0.176   7.247  0.9351 -0.3155 -0.0732
  556MOL0     N74942   5.260  -0.312   7.300 -0.8700  0.9994  0.3298
  556MOL0     C74943   5.166  -0.411   7.314  0.7269 -0.9438 -0.9853
  556MOL0     C74944   5.211  -0.504   7.400 -0.0602 -0.4353  0.1795
  556MOL0     C74945   5.141  -0.625   7.466 -0.2999 -0.6195  0.0979
  556MOL0     C74946   5.090  -0.575   7.598 -0.1470  0.0706  0.0271
  556MOL0     C74947   5.192  -0.544   7.704 -0.2561 -0.3418 -0.1050
  556MOL0     C74948   5.123  -0.533   7.839  0.3879 -0.1468  0.3139
  556MOL0     O74949   5.053  -0.406   7.839 -0.9143  0.6777  0.0875
  556MOL0     C74950   5.039  -0.353   7.962  0.3091  0.3080 -0.0311
  556MOL0     C74951   5.034  -0.212   7.963 -0.3170 -1.2271  0.0135
  556MOL0     C74952   5.019  -0.143   8.082 -0.2920 -0.2636  1.0470
  556MOL0     C74953   5.029   0.004   8.069  0.0227  1.2942 -0.8184
  556MOL0     C74954   4.984  -0.219   8.199  0.1981 -0.1981  0.4702
  556MOL0     C74955   4.959  -0.146   8.334 -0.4859  0.8781  0.0371
  556MOL0     O74956   4.921  -0.015   8.328 -0.0270 -0.5547  0.0158
  556MOL0     C74957   4.906   0.056   8.447 -1.9496 -0.1018 -0.4602
  556MOL0     C74958   4.975   0.173   8.467 -0.5698  0.0807  0.0952
  556MOL0     C74959   4.942   0.258   8.569  0.8836 -0.0460  0.1430
  556MOL0     C74960   4.825   0.241   8.651 -1.2254  0.4534 -0.8080
  556MOL0     O74961   4.811   0.330   8.759 -0.0615  0.6351  0.0900
  556MOL0     C74962   4.811   0.465   8.727  0.0507  0.3115 -0.7816
  556MOL0     C74963   4.736   0.537   8.840 -0.6988  0.2530  0.3006
  556MOL0     C74964   4.777   0.514   8.983  0.1907 -0.9289 -0.0958
  556MOL0     C74965   4.875   0.616   9.031 -0.7452 -1.1403  0.5310
  556MOL0     C74966   4.849   0.662   9.176 -0.5467 -0.1833  0.3635
  556MOL0     C74967   4.871   0.553   9.282 -0.4191  1.1352 -0.4101
  556MOL0     C74968   4.885   0.615   9.419 -0.6814  0.8702 -0.2424
  556MOL0     C74969   5.019   0.696   9.437  0.8256  0.0061 -0.1968
  556MOL0    Cl74970   5.022   0.755   9.603 -0.0277  0.1588 -0.1600
  556MOL0     C74971   4.761   0.117   8.632 -0.1341  0.6627  0.1031
  556MOL0     C74972   4.805   0.031   8.532  0.3958  0.5078 -0.5385
  556MOL0     O74973   4.980  -0.209   8.437  0.6768  0.4919  0.8138
  556MOL0     C74974   5.001  -0.356   8.202 -0.3963 -1.3763  1.0420
  556MOL0     C74975   5.022  -0.433   8.087 -0.1647  0.1725  0.3660
  556MOL0     N74976   5.349  -0.466   7.426  0.1820  0.1719 -0.5281
  556MOL0     N74977   5.369  -0.354   7.372  0.2158  0.3279 -0.0108
  556MOL0     C74978   5.231   0.404   8.153  0.4830 -0.2658  0.7558
  556MOL0     C74979   5.170   0.489   8.242 -0.7310  0.7351  0.5113
  556MOL0     C74980   4.859   0.758   8.459 -0.7614  1.1078  0.4315
  556MOL0     C74981   4.936   0.789   8.570  0.5108  0.0777  0.4711
  556MOL0     C74982   4.900   0.875   8.678 -0.2076  0.3236  0.7788
  556MOL0     C74983   4.769   0.932   8.668 -0.3717  0.5166 -0.5386
  556MOL0     O74984   4.713   1.010   8.768  0.9961  0.8482  0.1466
  556MOL0     C74985   4.795   1.064   8.872 -0.3320 -0.6651  0.1551
  556MOL0     C74986   4.724   1.164   8.962 -0.9178 -0.3780 -0.1961
  556MOL0     C74987   4.602   1.111   9.037  0.3998  0.8653 -0.9763
  556MOL0     C74988   4.485   1.127   8.948  0.2721  1.1433  0.2870
  556MOL0     C74989   4.353   1.139   9.016 -0.2013  0.4706  0.3029
  556MOL0     C74990   4.248   1.165   9.076 -0.0415 -0.3873  1.3564
  556MOL0     C74991   4.681   0.888   8.572  0.1362 -1.1243 -0.3476
  556MOL0     C74992   4.731   0.814   8.463  0.3543 -0.5519 -0.1510
  556MOL0     H74993   4.855   0.440   8.196 -0.0446  0.2709  2.1992
  556MOL0     H74994   4.945   0.265   8.019  1.7669 -2.4276  1.0475
  556MOL0     H74995   5.376   0.314   7.913  0.2928 -0.3532 -0.9194
  556MOL0     H74996   5.380   0.212   8.052 -3.1981 -0.8225  1.0708
  556MOL0     H74997   5.455   0.072   7.873 -0.0937  1.1108 -0.3437
  556MOL0     H74998   5.290   0.019   7.909 -1.5534  0.4721 -0.4273
  556MOL0     H74999   5.263   0.213   7.700  0.6135  0.5488  2.0333
  556MOL0     H75000   5.414   0.128   7.669  0.1829 -2.1182 -0.2094
  556MOL0     H75001   5.294  -0.089   7.678  1.3701  1.1548 -1.6604
  556MOL0     H75002   5.153   0.005   7.727 -0.0926  1.2793  1.3757
  556MOL0     H75003   5.172   0.134   7.502  1.1575  1.7067  2.0905
  556MOL0     H75004   5.315   0.029   7.464 -1.9385  0.3994 -2.2910
  556MOL0     H75005   5.136  -0.169   7.499  2.7672  0.7201  1.4915
  556MOL0     H75006   5.014  -0.036   7.475  0.4554  2.5013  2.3231
  556MOL0     H75007   5.032  -0.140   7.263 -0.1813  0.1797 -0.3761
  556MOL0     H75008   5.128   0.001   7.242  4.6638 -1.9968 -2.4494
  556MOL0     H75009   5.334  -0.114   7.266  1.0031 -0.0887 -1.0663
  556MOL0     H75010   5.230  -0.176   7.139  2.2179  2.2738 -0.3329
  556MOL0     H75011   5.064  -0.410   7.276 -0.9806 -0.1003  3.0124
  556MOL0     H75012   5.067  -0.655   7.391  2.6485 -1.6860 -2.6414
  556MOL0     H75013   5.204  -0.713   7.484 -0.4748 -0.6289  0.6866
  556MOL0     H75014   5.033  -0.661   7.632 -2.2248  1.9760  1.6592
  556MOL0     H75015   5.013  -0.500   7.580 -0.7265 -0.7365 -0.9402
  556MOL0     H75016   5.252  -0.453   7.693  0.0896 -0.5995 -0.3907
  556MOL0     H75017   5.265  -0.625   7.712 -0.6341 -0.8855 -1.7604
  556MOL0     H75018   5.200  -0.547   7.915  1.1335  0.5496 -0.3013
  556MOL0     H75019   5.058  -0.621   7.840  3.1285 -2.3588 -0.7146
  556MOL0     H75020   5.060  -0.148   7.879  0.0549  1.2849  1.9137
  556MOL0     H75021   4.932   0.051   8.088 -1.5640 -1.4744 -1.6708
  556MOL0     H75022   5.104   0.046   8.137  1.1553 -3.5316  1.3541
  556MOL0     H75023   5.045   0.039   7.967 -3.2956  1.8891 -1.2366
  556MOL0     H75024   5.063   0.205   8.412  0.2227 -0.7000  0.8765
  556MOL0     H75025   5.018   0.333   8.587  0.4799  0.2320  0.7622
  556MOL0     H75026   4.907   0.517   8.731 -1.1751  2.6511 -0.5153
  556MOL0     H75027   4.750   0.483   8.638  0.1672  0.1862 -0.8881
  556MOL0     H75028   4.722   0.644   8.819  0.4771  0.2745 -0.5027
  556MOL0     H75029   4.636   0.494   8.847 -0.4165 -0.3772  0.5279
  556MOL0     H75030   4.826   0.418   9.000  0.7322 -0.9615 -1.6696
  556MOL0     H75031   4.681   0.528   9.034 -0.4840  1.1273 -1.7826
  556MOL0     H75032   4.981   0.590   9.025 -0.8033 -1.0933 -1.7654
  556MOL0     H75033   4.873   0.707   8.970  3.2506 -0.9755  0.3503
  556MOL0     H75034   4.746   0.694   9.190 -0.3093  2.0261 -2.1148
  556MOL0     H75035   4.910   0.751   9.195  2.9986 -1.3473 -3.7103
  556MOL0     H75036   4.794   0.475   9.277 -0.9022  1.6271 -0.7131
  556MOL0     H75037   4.958   0.498   9.245 -3.2913 -3.1913 -1.4913
  556MOL0     H75038   4.882   0.522   9.476  2.1551 -0.5027 -2.1333
  556MOL0     H75039   4.797   0.672   9.451 -0.3735  0.4585  1.4407
  556MOL0     H75040   5.030   0.783   9.372  2.8039 -1.1704 -1.5448
  556MOL0     H75041   5.114   0.645   9.415  0.9528  0.5459 -0.9233
  556MOL0     H75042   4.679   0.102   8.703 -0.8953  1.1137 -0.6621
  556MOL0     H75043   4.755  -0.059   8.496  0.7123 -0.3628  1.1213
  556MOL0     H75044   4.999  -0.408   8.298 -1.7967  0.1687  1.9068
  556MOL0     H75045   5.022  -0.541   8.097 -1.7910 -0.0123 -1.2436
  556MOL0     H75046   5.339   0.394   8.146  0.4944 -0.6323  1.4513
  556MOL0     H75047   5.236   0.557   8.295  3.5138 -2.1427 -0.5220
  556MOL0     H75048   5.041   0.763   8.566  0.5121 -0.6065  2.9428
  556MOL0     H75049   4.968   0.913   8.753  2.2636  0.2731 -1.3052
  556MOL0     H75050   4.852   0.989   8.927 -1.9251 -2.2983 -0.3128
  556MOL0     H75051   4.867   1.119   8.809 -0.3165 -1.4182 -0.4968
  556MOL0     H75052   4.710   1.262   8.916 -0.6549  0.3948  1.3060
  556MOL0     H75053   4.786   1.178   9.051 -0.7569  1.6778 -0.5888
  556MOL0     H75054   4.604   1.167   9.132  0.6337 -4.6531  2.7541
  556MOL0     H75055   4.623   1.008   9.068  0.7533  1.0020 -0.7517
  556MOL0     H75056   4.477   1.025   8.908 -1.3217  1.2064  0.4012
  556MOL0     H75057   4.492   1.203   8.870 -3.6215  0.6996 -0.6934
  556MOL0     H75058   4.158   1.190   9.129  0.0874  2.0749  0.5236
  556MOL0     H75059   4.575   0.910   8.583 -0.0100 -2.0728  0.1802
  556MOL0     H75060   4.663   0.793   8.382  1.5298  1.9728 -1.9348
  557MOL0     O75061   1.493   7.021   8.452  0.0300  0.4938 -0.8609
  557MOL0     C75062   1.443   6.967   8.356 -0.2434 -0.0700  1.2012
  557MOL0     O75063   1.374   6.852   8.351  0.4205 -0.3591 -0.0780
  557MOL0     C75064   1.323   6.802   8.475 -0.7559 -0.6911 -0.1218
  557MOL0     C75065   1.331   6.659   8.496 -0.7705 -0.2324 -0.6392
  557MOL0     C75066   1.285   6.590   8.610  0.1878 -0.2341  0.1838
  557MOL0     C75067   1.229   6.666   8.713  1.3450  0.1327 -0.1132
  557MOL0     O75068   1.165   6.591   8.813  0.4781 -0.8025  0.6179
  557MOL0     C75069   1.172   6.651   8.942 -1.0833 -0.3957  1.0659
  557MOL0     C75070   1.312   6.643   8.997 -0.0804 -0.8991  0.0734
  557MOL0     C75071   1.370   6.505   8.990  0.4213 -1.1007  0.7413
  557MOL0     C75072   1.309   6.404   9.086 -0.6055 -0.1707 -1.1941
  557MOL0     C75073   1.337   6.259   9.046 -0.8570 -0.4706 -0.3874
  557MOL0     C75074   1.242   6.201   8.927 -0.0856  0.6343 -1.0024
  557MOL0     C75075   1.252   6.050   8.907 -0.0695  0.3840  0.2735
  557MOL0     C75076   1.353   6.018   8.798 -0.0071 -0.4315 -0.1500
  557MOL0     N75077   1.342   6.074   8.655 -0.1782 -0.8479  0.5052
  557MOL0     C75078   1.380   6.196   8.609 -0.2397 -0.1259  0.0012
  557MOL0     C75079   1.373   6.177   8.470 -0.8490 -1.2264 -0.2413
  557MOL0     C75080   1.413   6.289   8.370  0.3944  0.0832 -0.2169
  557MOL0     C75081   1.565   6.292   8.362 -0.1115 -0.4709 -0.2330
  557MOL0     C75082   1.619   6.318   8.210  1.0091 -0.6380 -0.1243
  557MOL0     C75083   1.759   6.374   8.206  0.1806 -0.2392 -0.3382
  557MOL0     O75084   1.864   6.285   8.243 -0.0373  0.2639  0.4783
  557MOL0     C75085   1.992   6.323   8.220 -0.3513  0.5798  0.4079
  557MOL0     C75086   2.102   6.237   8.248 -0.6239  0.4502 -0.8787
  557MOL0     C75087   2.245   6.260   8.231 -0.1051  0.0346  0.7433
  557MOL0     C75088   2.356   6.156   8.272  0.0009  0.6287 -0.6378
  557MOL0     C75089   2.284   6.393   8.196  0.2360  0.6616  0.1194
  557MOL0     C75090   2.425   6.446   8.191  0.2526 -0.3634 -0.0013
  557MOL0     O75091   2.525   6.371   8.256  0.7259  0.5259 -0.2102
  557MOL0     C75092   2.655   6.398   8.237 -0.9037 -0.7464 -0.7190
  557MOL0     C75093   2.723   6.278   8.250  0.0247  0.2941  0.3842
  557MOL0     C75094   2.860   6.273   8.209 -0.4246  0.7776 -0.2244
  557MOL0     C75095   2.929   6.380   8.147  0.5778  0.4007 -0.2919
  557MOL0     O75096   3.051   6.351   8.096 -0.4711 -0.3544 -0.2042
  557MOL0     C75097   3.159   6.451   8.086  1.2011 -0.0063 -1.0031
  557MOL0     C75098   3.156   6.525   7.951 -1.0528 -0.4219  0.5265
  557MOL0     C75099   3.072   6.447   7.844 -0.3889  0.7920  0.2523
  557MOL0     C75100   3.091   6.493   7.693  0.4783  0.3393  0.0255
  557MOL0     C75101   3.057   6.381   7.596 -0.3453 -0.0603 -0.8302
  557MOL0     C75102   2.904   6.354   7.606  0.1218 -0.9111  0.5130
  557MOL0     C75103   2.872   6.237   7.504 -0.2714 -0.4952  0.8235
  557MOL0     C75104   2.830   6.115   7.579 -0.8024  0.3712  0.4836
  557MOL0    Cl75105   2.669   6.123   7.670 -0.1433  0.1132 -0.1049
  557MOL0     C75106   2.863   6.508   8.140  0.1745  0.1516  0.2500
  557MOL0     C75107   2.726   6.516   8.194 -1.1515 -0.0029  0.5405
  557MOL0     O75108   2.439   6.565   8.153 -0.1702 -0.3237 -0.1539
  557MOL0     C75109   2.184   6.487   8.169  0.3225  0.7039 -0.1983
  557MOL0     C75110   2.045   6.449   8.183 -0.3388 -0.4241  0.3901
  557MOL0     N75111   1.339   6.048   8.442  0.0916  0.3415  0.4155
  557MOL0     N75112   1.320   5.985   8.555  0.6563 -0.7046  1.2897
  557MOL0     C75113   1.208   6.809   8.693  0.4504 -0.2676  0.5114
  557MOL0     C75114   1.267   6.876   8.576  0.1642 -0.5437 -0.0784
  557MOL0     C75115   1.461   7.036   8.231  1.3230 -0.3539  0.1944
  557MOL0     C75116   1.427   6.978   8.112 -0.0433  0.5591 -1.1752
  557MOL0     C75117   1.422   7.042   7.990 -0.6861 -0.2545  0.5849
  557MOL0     C75118   1.476   7.165   7.982  0.2481 -0.6967  0.6157
  557MOL0     O75119   1.494   7.220   7.860 -0.0852 -0.5345  0.3495
  557MOL0     C75120   1.396   7.326   7.845  0.5694  0.1293 -0.0095
  557MOL0     C75121   1.424   7.390   7.705 -0.0823  1.1768  0.2185
  557MOL0     C75122   1.555   7.463   7.695  0.1742  0.3790  0.0791
  557MOL0     C75123   1.582   7.521   7.555 -0.3055 -0.7473  0.8544
  557MOL0     C75124   1.730   7.541   7.539  0.4078  0.1414 -0.2013
  557MOL0     C75125   1.850   7.552   7.527 -0.4225  0.1748 -0.0259
  557MOL0     C75126   1.530   7.227   8.096  0.3947  0.4783 -1.2512
  557MOL0     C75127   1.510   7.168   8.218 -0.6514  1.1881  0.0938
  557MOL0     H75128   1.381   6.611   8.412  2.5643  1.2179  0.3564
  557MOL0     H75129   1.295   6.484   8.629 -2.5328 -0.1918  2.7076
  557MOL0     H75130   1.143   6.757   8.942  0.1973 -0.0080 -0.4254
  557MOL0     H75131   1.092   6.602   8.998 -3.0700 -1.0233 -2.0553
  557MOL0     H75132   1.387   6.704   8.946 -1.6330 -0.7420 -2.2065
  557MOL0     H75133   1.308   6.691   9.095  1.6646  0.1724 -0.3529
  557MOL0     H75134   1.357   6.469   8.887 -0.2288 -0.8988  0.7469
  557MOL0     H75135   1.477   6.509   9.008  0.1229  2.6505  2.5225
  557MOL0     H75136   1.356   6.440   9.178  0.3345  2.1156 -2.4970
  557MOL0     H75137   1.201   6.420   9.086 -0.7753 -0.9593  0.9649
  557MOL0     H75138   1.441   6.245   9.013 -0.2020  0.2769  1.2654
  557MOL0     H75139   1.326   6.200   9.137  2.1313 -0.9536 -0.2161
  557MOL0     H75140   1.136   6.220   8.951  0.3289  0.8504  0.8164
  557MOL0     H75141   1.257   6.263   8.838  0.9520  0.0494 -1.2489
  557MOL0     H75142   1.280   5.992   8.996 -1.8890  2.9795  2.7190
  557MOL0     H75143   1.152   6.010   8.891 -0.3056  0.7144  0.8798
  557MOL0     H75144   1.352   5.910   8.783 -1.4392 -0.0852 -3.4081
  557MOL0     H75145   1.453   6.039   8.837  0.2920  1.6078 -1.7787
  557MOL0     H75146   1.412   6.282   8.666  0.7677  0.8165 -1.9085
  557MOL0     H75147   1.374   6.266   8.270 -0.4725 -0.4470  0.2303
  557MOL0     H75148   1.371   6.387   8.394  1.2602  0.6274 -0.8749
  557MOL0     H75149   1.615   6.197   8.382  0.5574 -0.2287 -0.7295
  557MOL0     H75150   1.601   6.372   8.427 -2.1797  0.9093 -0.6788
  557MOL0     H75151   1.559   6.387   8.150 -0.1526  0.3471  2.0468
  557MOL0     H75152   1.607   6.216   8.171  2.9451  0.2829 -3.4491
  557MOL0     H75153   1.779   6.457   8.275  1.0869 -1.2848  0.6869
  557MOL0     H75154   1.769   6.407   8.102  0.5735 -0.4250 -0.3609
  557MOL0     H75155   2.070   6.143   8.292 -4.8604  2.1382  0.0919
  557MOL0     H75156   2.304   6.068   8.310  0.8803 -0.6570 -2.2633
  557MOL0     H75157   2.414   6.115   8.188 -0.8632  0.5473 -1.2131
  557MOL0     H75158   2.417   6.197   8.353 -0.1504  2.5034 -1.4403
  557MOL0     H75159   2.667   6.189   8.275 -5.3450  3.1589 -0.0137
  557MOL0     H75160   2.913   6.179   8.215  1.4105  1.7764 -0.0328
  557MOL0     H75161   3.145   6.527   8.163 -0.3602  1.9280 -3.0784
  557MOL0     H75162   3.259   6.414   8.109  1.2628  1.0854  0.6713
  557MOL0     H75163   3.106   6.620   7.970  0.0472  0.4442 -0.6712
  557MOL0     H75164   3.260   6.551   7.926  0.2787 -4.3296  1.2665
  557MOL0     H75165   2.968   6.469   7.873 -0.5036  0.8598 -0.2064
  557MOL0     H75166   3.094   6.340   7.851  0.3014  0.9673  0.9243
  557MOL0     H75167   3.021   6.574   7.672 -2.7220 -1.3622  3.0102
  557MOL0     H75168   3.197   6.518   7.685  0.5739 -0.6833 -3.0824
  557MOL0     H75169   3.122   6.296   7.614  0.4428  0.6244 -0.3587
  557MOL0     H75170   3.080   6.414   7.495 -0.1278  1.2581 -0.3763
  557MOL0     H75171   2.877   6.318   7.706 -0.2081 -1.6128  0.1783
  557MOL0     H75172   2.848   6.445   7.581 -1.6589 -2.3605 -1.1774
  557MOL0     H75173   2.954   6.211   7.436  0.8071  2.2732  0.9343
  557MOL0     H75174   2.783   6.262   7.446  1.6116 -0.3290 -2.2061
  557MOL0     H75175   2.915   6.083   7.641  2.5286 -0.8390 -4.1705
  557MOL0     H75176   2.821   6.032   7.508  0.2608 -0.3028  1.1064
  557MOL0     H75177   2.910   6.593   8.093 -1.2747 -0.3822 -2.4147
  557MOL0     H75178   2.681   6.611   8.169 -0.6713  0.2857  0.7565
  557MOL0     H75179   2.217   6.589   8.154  0.5316  0.3223 -2.6350
  557MOL0     H75180   1.967   6.524   8.173 -1.9577 -2.0398  0.4032
  557MOL0     H75181   1.152   6.877   8.756 -1.4931 -0.1660 -1.2365
  557MOL0     H75182   1.259   6.984   8.570  0.4203 -0.6086 -2.4316
  557MOL0     H75183   1.413   6.870   8.102  2.3783  0.3409 -3.2051
  557MOL0     H75184   1.372   7.002   7.902 -2.4541  3.5074 -0.3260
  557MOL0     H75185   1.295   7.285   7.854 -0.7189  3.2113  0.8850
  557MOL0     H75186   1.421   7.394   7.926 -0.4100 -0.4465  0.8081
  557MOL0     H75187   1.337   7.452   7.680 -2.3584 -1.6690  0.4305
  557MOL0     H75188   1.425   7.311   7.629 -0.7431  1.6927 -0.3387
  557MOL0     H75189   1.641   7.408   7.733  1.2830  1.2259 -1.1083
  557MOL0     H75190   1.536   7.550   7.759 -1.3277  1.1023 -1.2726
  557MOL0     H75191   1.524   7.613   7.548 -0.6898 -0.9874  0.8145
  557MOL0     H75192   1.553   7.458   7.470 -3.5445 -0.3047  1.5064
  557MOL0     H75193   1.955   7.554   7.506 -0.6795 -0.6486 -1.5138
  557MOL0     H75194   1.571   7.327   8.088  0.8572  0.6018  1.7572
  557MOL0     H75195   1.543   7.241   8.291  2.9851  2.0290 -2.1212
  558MOL0     O75196   9.049   1.045   0.619  0.5336 -0.1188 -0.0212
  558MOL0     C75197   9.144   1.082   0.550  1.3115  0.0436 -0.3445
  558MOL0     O75198   9.273   1.103   0.603  0.8509  0.5479 -0.0869
  558MOL0     C75199   9.305   1.080   0.737  0.0145 -0.9178  0.6672
  558MOL0     C75200   9.395   1.165   0.805  0.7643 -0.0984 -0.0895
  558MOL0     C75201   9.433   1.154   0.936 -0.5351  0.3134 -0.5536
  558MOL0     C75202   9.396   1.035   0.997 -0.1587 -0.3858 -0.1313
  558MOL0     O75203   9.460   1.016   1.119 -0.6732 -0.5481 -0.5391
  558MOL0     C75204   9.524   0.889   1.151 -0.3112  0.3367 -0.1248
  558MOL0     C75205   9.677   0.898   1.142  0.0664  0.0567 -0.0435
  558MOL0     C75206   9.756   0.767   1.145  0.7097 -0.0222  0.3011
  558MOL0     C75207   9.894   0.789   1.080 -0.3945  0.3617  0.7266
  558MOL0     C75208   9.996   0.666   1.060 -0.0372 -0.2732  0.7594
  558MOL0     C75209   9.928   0.556   0.966 -0.3668  0.0300 -0.2851
  558MOL0     C75210  10.021   0.428   0.940 -0.6453 -0.5382 -0.2495
  558MOL0     C75211  10.153   0.476   0.886 -0.7443  1.1254  0.3990
  558MOL0     N75212  10.144   0.516   0.744 -0.3517  0.0967  0.2193
  558MOL0     C75213  10.150   0.446   0.623  0.7042  0.3102 -0.0177
  558MOL0     C75214  10.164   0.538   0.525 -0.1360  0.3044  0.8602
  558MOL0     C75215  10.169   0.515   0.376  1.0389  0.5831 -0.6682
  558MOL0     C75216  10.311   0.525   0.313  0.0549  1.4141 -0.2401
  558MOL0     C75217  10.399   0.418   0.358 -0.8247  0.3609 -0.3196
  558MOL0     C75218  10.403   0.298   0.274  0.0443 -0.0280  0.0492
  558MOL0     O75219  10.494   0.184   0.307 -0.5612  1.0396  0.4192
  558MOL0     C75220  10.512   0.084   0.212 -0.1950  0.0746 -0.1674
  558MOL0     C75221  10.472   0.079   0.077 -0.4951  1.1945  1.1647
  558MOL0     C75222  10.491  -0.031  -0.006 -0.4352  0.5912 -0.6570
  558MOL0     C75223  10.399  -0.026  -0.135 -0.4148  0.5466  0.3868
  558MOL0     C75224  10.563  -0.153   0.045 -0.3911 -1.5986  0.0330
  558MOL0     C75225  10.591  -0.274  -0.041 -0.7377 -0.5770  0.0128
  558MOL0     O75226  10.624  -0.256  -0.168  0.4241  0.2276 -0.0060
  558MOL0     C75227  10.658  -0.352  -0.256 -0.4253  0.0350 -0.1144
  558MOL0     C75228  10.657  -0.309  -0.383 -0.3639 -0.2705 -0.2222
  558MOL0     C75229  10.697  -0.398  -0.480  1.2272  0.5687  0.5471
  558MOL0     C75230  10.706  -0.536  -0.456  0.8832  1.3922 -0.2603
  558MOL0     O75231  10.737  -0.608  -0.565  0.7593 -0.0195  0.5173
  558MOL0     C75232  10.765  -0.741  -0.565 -0.3804 -1.0979 -0.4968
  558MOL0     C75233  10.710  -0.813  -0.688 -0.4904 -0.2837 -0.2283
  558MOL0     C75234  10.594  -0.732  -0.765 -1.1055 -1.2930  0.3038
  558MOL0     C75235  10.546  -0.812  -0.883 -0.1284 -0.0983 -1.5421
  558MOL0     C75236  10.439  -0.741  -0.959 -0.3579  0.8906 -0.2390
  558MOL0     C75237  10.409  -0.813  -1.089 -0.2652 -0.2134  0.3538
  558MOL0     C75238  10.290  -0.739  -1.152 -0.2032 -0.0910 -0.4433
  558MOL0     C75239  10.254  -0.816  -1.270 -0.3296 -0.3284  1.2753
  558MOL0    Cl75240  10.111  -0.749  -1.350 -0.1284 -0.1013 -0.0517
  558MOL0     C75241  10.711  -0.583  -0.324 -0.1690 -0.8697  1.0200
  558MOL0     C75242  10.685  -0.485  -0.223  0.5539  0.4523 -0.0218
  558MOL0     O75243  10.579  -0.380   0.013 -0.2508 -0.4088 -0.3195
  558MOL0     C75244  10.613  -0.140   0.177 -0.4560 -0.6081 -0.0180
  558MOL0     C75245  10.582  -0.033   0.255  0.0458  0.1502 -0.2460
  558MOL0     N75246  10.179   0.662   0.585 -1.4421  0.2590  0.0823
  558MOL0     N75247  10.162   0.644   0.710 -0.3957  0.7495 -0.9808
  558MOL0     C75248   9.309   0.941   0.935 -1.1242 -0.0009 -0.2321
  558MOL0     C75249   9.266   0.971   0.809  1.1672 -0.4898  0.0256
  558MOL0     C75250   9.114   1.112   0.413 -0.0093  0.2996 -0.6883
  558MOL0     C75251   9.217   1.136   0.318 -0.4270 -0.3711  1.0508
  558MOL0     C75252   9.172   1.183   0.189 -0.7210  0.5865 -0.7058
  558MOL0     C75253   9.032   1.185   0.156  0.8765 -0.2358 -1.0222
  558MOL0     O75254   9.007   1.247   0.031  0.0592 -0.4666 -0.4093
  558MOL0     C75255   8.893   1.186  -0.037 -0.4530  0.1753  0.0110
  558MOL0     C75256   8.910   1.192  -0.187 -0.6995  0.4393 -0.8214
  558MOL0     C75257   8.767   1.172  -0.254  0.1643 -0.2758 -0.2454
  558MOL0     C75258   8.784   1.174  -0.403 -0.4896  0.0139 -0.5668
  558MOL0     C75259   8.715   1.075  -0.474 -0.0603 -0.8935  0.0047
  558MOL0     C75260   8.660   0.991  -0.547 -0.2467 -1.5536 -0.2418
  558MOL0     C75261   8.942   1.152   0.250 -0.4574 -0.4316 -0.2621
  558MOL0     C75262   8.982   1.113   0.379 -0.3463 -0.3271  0.9054
  558MOL0     H75263   9.429   1.245   0.740  0.3616 -1.0402 -1.4758
  558MOL0     H75264   9.510   1.215   0.981 -0.1659  0.6051 -1.5471
  558MOL0     H75265   9.486   0.866   1.251  0.4423  1.7890  0.5214
  558MOL0     H75266   9.487   0.811   1.084  0.4625  1.3456 -1.7743
  558MOL0     H75267   9.688   0.931   1.038  3.2164 -2.2430 -0.6120
  558MOL0     H75268   9.719   0.974   1.207  0.0875  1.5845 -1.7663
  558MOL0     H75269   9.761   0.737   1.250 -2.3928  0.4255  0.6909
  558MOL0     H75270   9.694   0.691   1.096 -2.8375  1.0297  2.7152
  558MOL0     H75271   9.882   0.835   0.981  0.5165 -1.5264 -0.3093
  558MOL0     H75272   9.933   0.869   1.144 -0.6296  0.3759  0.8557
  558MOL0     H75273  10.080   0.717   1.010 -0.5555 -0.8175 -0.7133
  558MOL0     H75274  10.031   0.628   1.156  1.8615  0.4626  0.4042
  558MOL0     H75275   9.839   0.512   1.012  1.3006 -3.5721 -0.1597
  558MOL0     H75276   9.887   0.606   0.878 -3.2707 -0.3881  0.7189
  558MOL0     H75277  10.041   0.364   1.026 -0.1468 -3.7036 -2.5247
  558MOL0     H75278   9.975   0.362   0.866 -1.6507 -1.6774  1.3366
  558MOL0     H75279  10.216   0.387   0.895 -2.4161  0.0371  2.7421
  558MOL0     H75280  10.197   0.559   0.942  1.7510  1.3966 -1.7895
  558MOL0     H75281  10.163   0.342   0.596 -0.9950  0.3220 -1.0725
  558MOL0     H75282  10.130   0.414   0.362  0.5101  0.7816 -0.6374
  558MOL0     H75283  10.099   0.587   0.333 -0.0770  1.4490  2.3497
  558MOL0     H75284  10.350   0.616   0.361  0.7588  1.1232 -0.2425
  558MOL0     H75285  10.318   0.539   0.204 -0.7625 -1.6976 -0.7664
  558MOL0     H75286  10.379   0.401   0.464 -0.3117 -0.7923 -0.3900
  558MOL0     H75287  10.498   0.465   0.360 -2.3900  3.9542 -0.3100
  558MOL0     H75288  10.424   0.325   0.170 -2.9140 -0.0937 -0.6438
  558MOL0     H75289  10.300   0.264   0.272  0.1330 -0.2871 -0.2259
  558MOL0     H75290  10.421   0.167   0.039 -1.2591  0.2846  0.0048
  558MOL0     H75291  10.310   0.035  -0.122 -1.1111 -0.7480  2.0049
  558MOL0     H75292  10.450   0.020  -0.221  1.5125 -1.5581  0.3134
  558MOL0     H75293  10.354  -0.119  -0.170 -1.1711  0.8622  0.5048
  558MOL0     H75294  10.625  -0.215  -0.427  0.5522 -1.3150 -3.3776
  558MOL0     H75295  10.711  -0.363  -0.581  0.4092 -1.2127 -0.2347
  558MOL0     H75296  10.874  -0.752  -0.570 -0.1809  0.5325 -0.1899
  558MOL0     H75297  10.734  -0.789  -0.472  1.8399 -0.3982  0.6662
  558MOL0     H75298  10.793  -0.839  -0.754 -1.2636 -5.6059  0.4481
  558MOL0     H75299  10.679  -0.915  -0.662  0.9952 -0.5435  0.6377
  558MOL0     H75300  10.631  -0.635  -0.800 -2.0339 -0.7024  0.8943
  558MOL0     H75301  10.513  -0.714  -0.693 -0.9532 -2.7727  0.8704
  558MOL0     H75302  10.635  -0.834  -0.943  1.4536 -3.0813  1.5573
  558MOL0     H75303  10.510  -0.907  -0.843  3.2363  0.0903  2.6009
  558MOL0     H75304  10.467  -0.636  -0.968 -1.2749  1.0236 -1.7134
  558MOL0     H75305  10.343  -0.747  -0.906 -0.1332 -1.1234  0.0036
  558MOL0     H75306  10.491  -0.814  -1.162 -0.6811 -2.9624 -0.1861
  558MOL0     H75307  10.392  -0.919  -1.070  0.1494 -0.4345 -0.4419
  558MOL0     H75308  10.333  -0.639  -1.166  0.9292 -0.7618 -1.9477
  558MOL0     H75309  10.198  -0.723  -1.094  0.6735  0.1065  0.9525
  558MOL0     H75310  10.225  -0.918  -1.246 -0.1283 -0.5222  0.7116
  558MOL0     H75311  10.334  -0.829  -1.343 -2.4987 -1.2754 -1.0955
  558MOL0     H75312  10.737  -0.684  -0.294  0.1344 -1.9306 -2.4314
  558MOL0     H75313  10.683  -0.529  -0.124 -2.9028  1.1108  0.3162
  558MOL0     H75314  10.677  -0.215   0.221 -1.2897 -1.1391  0.3139
  558MOL0     H75315  10.621  -0.030   0.356 -0.4242 -2.3598  0.0808
  558MOL0     H75316   9.269   0.851   0.982 -1.2146 -0.2027 -0.6888
  558MOL0     H75317   9.196   0.902   0.763  2.6349 -0.3984 -2.5367
  558MOL0     H75318   9.320   1.138   0.353  0.5612  1.4272 -1.6471
  558MOL0     H75319   9.227   1.199   0.097 -0.3849 -0.0669 -0.6291
  558MOL0     H75320   8.887   1.081  -0.008 -0.0065  0.1883  0.1449
  558MOL0     H75321   8.814   1.249   0.005 -0.3318 -0.9746  2.0725
  558MOL0     H75322   8.974   1.107  -0.210  0.4006  1.8760 -3.4743
  558MOL0     H75323   8.957   1.289  -0.204 -2.7608  1.8191  0.6925
  558MOL0     H75324   8.705   1.261  -0.240  1.2736  0.5614 -0.4093
  558MOL0     H75325   8.711   1.091  -0.209 -0.4082  0.1582 -0.1743
  558MOL0     H75326   8.891   1.157  -0.421 -0.2085  0.1436  0.8653
  558MOL0     H75327   8.753   1.272  -0.438 -1.7318  0.0914  0.6454
  558MOL0     H75328   8.602   0.919  -0.601 -2.5761  0.8399 -1.1189
  558MOL0     H75329   8.836   1.151   0.228 -0.3484  2.0175 -1.2551
  558MOL0     H75330   8.900   1.086   0.444 -0.5889 -1.6444  0.0778
  559MOL0     O75331   3.991   4.760  10.687  0.6818  0.1448 -0.1733
  559MOL0     C75332   4.056   4.655  10.692  0.6589 -1.0715 -0.7730
  559MOL0     O75333   4.022   4.537  10.634 -0.8654 -0.3004 -0.0581
  559MOL0     C75334   3.907   4.511  10.562  0.3579  0.1557  0.8126
  559MOL0     C75335   3.789   4.469  10.628  0.1897 -0.1149 -0.1153
  559MOL0     C75336   3.678   4.426  10.549 -1.1870  0.1718  0.7169
  559MOL0     C75337   3.685   4.426  10.411  0.0445  0.0634 -0.4133
  559MOL0     O75338   3.573   4.380  10.351 -0.1030  0.4982  0.2464
  559MOL0     C75339   3.567   4.374  10.210  0.5178  0.5965  0.6326
  559MOL0     C75340   3.421   4.336  10.186 -0.5963  0.1186 -0.2770
  559MOL0     C75341   3.390   4.331  10.035 -0.3340 -0.5827  0.0098
  559MOL0     C75342   3.276   4.422   9.999 -0.9216 -0.3487 -0.6724
  559MOL0     C75343   3.132   4.397  10.057  0.6853 -0.4680  0.8627
  559MOL0     C75344   3.067   4.516  10.121  0.1279  0.0377 -0.4864
  559MOL0     C75345   2.921   4.478  10.136  0.5154 -0.3580  0.7263
  559MOL0     C75346   2.840   4.598  10.199 -0.2769 -0.3605  0.7455
  559MOL0     N75347   2.704   4.552  10.234  0.1690  0.5541 -0.7043
  559MOL0     C75348   2.649   4.433  10.215 -0.0553  1.3199  0.4159
  559MOL0     C75349   2.518   4.436  10.251 -0.7825 -0.7253  0.5715
  559MOL0     C75350   2.425   4.324  10.241 -0.8642 -0.2691  0.8449
  559MOL0     C75351   2.300   4.390  10.173  0.5317  0.8457 -0.6541
  559MOL0     C75352   2.268   4.297  10.048  0.6641 -0.0112 -0.1921
  559MOL0     C75353   2.137   4.342   9.984  0.3815 -0.9613 -0.0109
  559MOL0     O75354   2.021   4.300  10.061 -1.3213 -0.4092  0.1748
  559MOL0     C75355   1.893   4.336  10.027  0.7461  0.5735 -0.4953
  559MOL0     C75356   1.797   4.290  10.107  0.7955 -0.5751  0.0655
  559MOL0     C75357   1.660   4.295  10.074 -0.4629 -0.9233 -0.2285
  559MOL0     C75358   1.560   4.228  10.169  0.2771  0.1592  0.3037
  559MOL0     C75359   1.620   4.359   9.957 -0.2758  0.0062 -0.1585
  559MOL0     C75360   1.487   4.387   9.933 -0.4695 -0.5318  0.6897
  559MOL0     O75361   1.462   4.513   9.901  0.4325  0.0760  0.8990
  559MOL0     C75362   1.331   4.543   9.859  0.2177  0.4074 -0.2649
  559MOL0     C75363   1.229   4.559   9.943  1.1280  0.2510  0.7630
  559MOL0     C75364   1.095   4.574   9.898  0.0044 -0.4658 -0.9548
  559MOL0     C75365   1.063   4.572   9.768  1.0972  0.8044  0.9238
  559MOL0     O75366   0.929   4.602   9.738 -0.4515 -0.2081 -0.5789
  559MOL0     C75367   0.886   4.575   9.605 -0.4098  0.9022 -0.3471
  559MOL0     C75368   0.736   4.562   9.582 -1.2478  0.5273  0.0492
  559MOL0     C75369   0.687   4.500   9.454  0.1340 -0.4410 -1.2083
  559MOL0     C75370   0.539   4.539   9.429 -0.6830  1.1732 -1.1616
  559MOL0     C75371   0.441   4.431   9.498 -0.5787  0.4341 -0.2761
  559MOL0     C75372   0.291   4.427   9.456  0.8830  0.0283  0.9097
  559MOL0     C75373   0.265   4.366   9.322  0.4616 -0.5821  0.4688
  559MOL0     C75374   0.140   4.408   9.254 -0.0583 -0.0109  0.1756
  559MOL0    Cl75375  -0.006   4.372   9.336  0.7403  0.0951  0.0212
  559MOL0     C75376   1.175   4.571   9.677  0.5807 -0.3961  0.7604
  559MOL0     C75377   1.309   4.545   9.721  0.8091 -0.0696  0.4931
  559MOL0     O75378   1.407   4.297   9.927 -0.9684  0.3411 -0.4225
  559MOL0     C75379   1.722   4.402   9.871  0.3171  0.2922  0.2589
  559MOL0     C75380   1.853   4.384   9.904  0.1794  0.0155 -0.6848
  559MOL0     N75381   2.496   4.577  10.280 -0.0867  0.3390  0.0253
  559MOL0     N75382   2.602   4.633  10.271  0.0271 -0.5564  0.4403
  559MOL0     C75383   3.796   4.474  10.347  1.3001 -1.1312  0.2315
  559MOL0     C75384   3.908   4.500  10.426  0.3770 -0.2460  0.6309
  559MOL0     C75385   4.186   4.668  10.756  0.3708 -0.2012 -1.0116
  559MOL0     C75386   4.249   4.793  10.748 -1.2584 -0.3102 -0.2584
  559MOL0     C75387   4.380   4.789  10.790  1.5954 -0.5605 -0.5271
  559MOL0     C75388   4.455   4.676  10.828  0.3935  0.1363 -1.0455
  559MOL0     O75389   4.577   4.696  10.888  0.1163  0.3517 -0.7095
  559MOL0     C75390   4.644   4.577  10.938  0.0560  0.7070  0.4791
  559MOL0     C75391   4.631   4.555  11.097 -0.0667  1.7875 -0.6716
  559MOL0     C75392   4.758   4.476  11.145  0.3884 -0.1811  0.6511
  559MOL0     C75393   4.859   4.575  11.196  0.0974 -0.2488 -0.0316
  559MOL0     C75394   4.813   4.636  11.315  0.6832  0.2824  0.2548
  559MOL0     C75395   4.754   4.674  11.413 -0.0298  0.7121 -1.0216
  559MOL0     C75396   4.385   4.549  10.823  0.1947 -0.8154  0.8299
  559MOL0     C75397   4.251   4.552  10.797 -0.8306  0.4146 -0.3375
  559MOL0     H75398   3.786   4.477  10.736 -1.8846  2.5647 -0.2743
  559MOL0     H75399   3.592   4.408  10.612  1.4949 -2.4454  4.0163
  559MOL0     H75400   3.591   4.466  10.156 -0.8815  1.4260  1.3592
  559MOL0     H75401   3.631   4.294  10.171 -2.5696 -0.5741 -2.4994
  559MOL0     H75402   3.382   4.244  10.231  2.6392 -1.8259 -1.1109
  559MOL0     H75403   3.365   4.411  10.243 -0.0810 -2.2690  3.7343
  559MOL0     H75404   3.473   4.358   9.969 -0.1088  1.2630  0.9679
  559MOL0     H75405   3.362   4.227  10.018  1.1941 -1.3091  1.6428
  559MOL0     H75406   3.300   4.525  10.028 -4.7408  0.6496 -0.5113
  559MOL0     H75407   3.281   4.419   9.890  0.1615 -0.8257 -0.6212
  559MOL0     H75408   3.067   4.374   9.972 -1.8103  1.2309  2.2012
  559MOL0     H75409   3.124   4.297  10.102 -4.4439 -2.1249 -2.6961
  559MOL0     H75410   3.113   4.533  10.220 -0.7501 -0.5515  0.0334
  559MOL0     H75411   3.086   4.607  10.064  1.6490  0.4406  0.5835
  559MOL0     H75412   2.877   4.452  10.040  0.7586  0.5782  0.3447
  559MOL0     H75413   2.909   4.392  10.202  0.2135 -0.3138  0.7297
  559MOL0     H75414   2.839   4.689  10.137  0.0199 -0.7044  0.2251
  559MOL0     H75415   2.887   4.631  10.292 -2.3747  2.5389  0.9193
  559MOL0     H75416   2.698   4.347  10.170  0.2201  0.7472  1.7537
  559MOL0     H75417   2.477   4.256  10.172 -0.9337  2.5625 -2.2759
  559MOL0     H75418   2.415   4.266  10.333  0.4726  0.3402  1.4042
  559MOL0     H75419   2.320   4.495  10.149  1.6227  0.6401 -0.7263
  559MOL0     H75420   2.222   4.375  10.248 -0.0240 -2.0507 -1.6716
  559MOL0     H75421   2.264   4.196  10.089 -1.9061  1.1365  2.8138
  559MOL0     H75422   2.340   4.304   9.966  1.8209  1.1265  0.8623
  559MOL0     H75423   2.126   4.289   9.888  2.1982 -0.4287 -0.5548
  559MOL0     H75424   2.148   4.449   9.967  0.5854 -0.2179  3.8680
  559MOL0     H75425   1.823   4.250  10.204  0.1287 -0.7247  0.1900
  559MOL0     H75426   1.511   4.141  10.124  1.5425  0.4514 -1.7636
  559MOL0     H75427   1.613   4.194  10.257  2.7147  0.7869 -0.8482
  559MOL0     H75428   1.478   4.296  10.195 -0.4946  0.2445 -2.0448
  559MOL0     H75429   1.247   4.566  10.050 -0.9496 -0.3371  1.1968
  559MOL0     H75430   1.018   4.592   9.972  3.8588  2.0555  2.9521
  559MOL0     H75431   0.917   4.652   9.534 -0.5582  0.1574 -1.2414
  559MOL0     H75432   0.926   4.476   9.579 -0.2451 -0.0012  2.9972
  559MOL0     H75433   0.707   4.493   9.662  0.0832 -0.5389 -0.3707
  559MOL0     H75434   0.689   4.661   9.586 -4.3838 -0.7925 -0.7455
  559MOL0     H75435   0.699   4.391   9.458  0.8163 -0.4348 -2.6046
  559MOL0     H75436   0.752   4.545   9.379 -0.4443  3.6848  0.4652
  559MOL0     H75437   0.520   4.645   9.451 -1.2420  0.7413  0.6070
  559MOL0     H75438   0.530   4.524   9.321  0.9167  2.6399 -1.5573
  559MOL0     H75439   0.456   4.431   9.607  0.3352 -0.3907 -0.3831
  559MOL0     H75440   0.479   4.331   9.475 -0.5321 -0.6595  3.6719
  559MOL0     H75441   0.248   4.356   9.527  0.8484 -2.7518 -1.6980
  559MOL0     H75442   0.242   4.525   9.459 -0.2900 -0.5621  1.6146
  559MOL0     H75443   0.274   4.259   9.342  1.1008 -1.0504 -1.9558
  559MOL0     H75444   0.355   4.397   9.268  1.0528 -0.8261  1.2918
  559MOL0     H75445   0.136   4.359   9.156 -0.1229 -2.1169  1.1707
  559MOL0     H75446   0.142   4.514   9.227 -2.1960 -0.2561 -1.2305
  559MOL0     H75447   1.142   4.577   9.573  1.5875 -5.4161 -0.1472
  559MOL0     H75448   1.392   4.525   9.654  1.2148  2.8247  0.0071
  559MOL0     H75449   1.703   4.452   9.777  0.9639  2.9852  1.4643
  559MOL0     H75450   1.921   4.420   9.828  4.1340 -1.7889  1.6601
  559MOL0     H75451   3.809   4.489  10.240  0.2473 -1.6888  0.0114
  559MOL0     H75452   3.999   4.507  10.368 -0.6445 -1.8096 -1.3031
  559MOL0     H75453   4.201   4.884  10.712 -2.4044  0.1532  2.2108
  559MOL0     H75454   4.438   4.880  10.780 -0.9927  1.5615  2.0782
  559MOL0     H75455   4.622   4.487  10.879 -1.5476 -1.2343  3.7432
  559MOL0     H75456   4.749   4.606  10.933  0.9153 -1.8467  1.8353
  559MOL0     H75457   4.541   4.494  11.105  0.5094  0.1980 -4.2971
  559MOL0     H75458   4.633   4.647  11.156  1.1701  0.4975  1.4085
  559MOL0     H75459   4.795   4.416  11.061 -0.9891  0.4930 -0.4893
  559MOL0     H75460   4.728   4.407  11.225 -0.2564  1.3570  1.7773
  559MOL0     H75461   4.890   4.650  11.123 -0.1036  1.0995  1.2466
  559MOL0     H75462   4.956   4.531  11.222 -0.2884 -1.9309 -1.1943
  559MOL0     H75463   4.697   4.717  11.493 -1.2521 -0.5213 -1.1863
  559MOL0     H75464   4.424   4.457  10.867 -2.7151 -2.0171  1.0768
  559MOL0     H75465   4.189   4.463  10.790 -1.1095  0.2783  2.4508
  560MOL0     O75466   8.534   0.499   8.940  0.1196 -0.0259  0.3601
  560MOL0     C75467   8.463   0.513   8.841 -0.3535 -0.6755 -0.0058
  560MOL0     O75468   8.426   0.417   8.748 -0.3538 -0.3170 -0.2693
  560MOL0     C75469   8.475   0.291   8.763 -0.7632 -0.1666  1.1355
  560MOL0     C75470   8.608   0.274   8.783 -0.8138  0.6946 -0.2053
  560MOL0     C75471   8.665   0.144   8.806  0.1476 -0.4963  0.1888
  560MOL0     C75472   8.585   0.032   8.802  0.2332 -0.4890  0.7735
  560MOL0     O75473   8.627  -0.093   8.815 -0.3208 -0.4508 -0.1303
  560MOL0     C75474   8.656  -0.131   8.958 -0.1577  0.9682  0.1589
  560MOL0     C75475   8.671  -0.285   8.957 -0.9732 -0.9507  0.5372
  560MOL0     C75476   8.707  -0.318   9.098 -0.2668 -0.4654  0.7261
  560MOL0     C75477   8.711  -0.464   9.116  0.3794 -0.4237 -0.5704
  560MOL0     C75478   8.733  -0.496   9.266 -0.7272  0.0864 -0.0812
  560MOL0     C75479   8.732  -0.658   9.285  0.5753 -0.6357  0.1807
  560MOL0     C75480   8.797  -0.686   9.423  0.5310  0.3268 -0.1658
  560MOL0     C75481   8.710  -0.645   9.542  0.0009  1.5584  0.6810
  560MOL0     N75482   8.732  -0.739   9.647 -0.0108  0.4700 -0.5299
  560MOL0     C75483   8.846  -0.758   9.730 -0.5924  0.8103 -0.5569
  560MOL0     C75484   8.815  -0.860   9.815  0.9419  0.6724  0.0959
  560MOL0     C75485   8.902  -0.912   9.924  0.2545  0.3328 -0.2621
  560MOL0     C75486   8.837  -0.992  10.041 -0.3007  0.5931 -0.0958
  560MOL0     C75487   8.918  -1.099  10.095 -0.3620 -0.4357  0.2933
  560MOL0     C75488   8.846  -1.161  10.217  0.0079 -0.6931  0.1662
  560MOL0     O75489   8.721  -1.226  10.176  0.8679 -0.2375 -0.4125
  560MOL0     C75490   8.615  -1.206  10.259 -0.0611 -1.2052 -0.4368
  560MOL0     C75491   8.533  -1.097  10.230  0.4177 -0.1752 -1.2533
  560MOL0     C75492   8.428  -1.053  10.318 -0.4024 -0.0985  1.0939
  560MOL0     C75493   8.332  -0.940  10.281 -0.1210  0.4179  0.5783
  560MOL0     C75494   8.423  -1.109  10.449 -0.7163  0.1463  0.0625
  560MOL0     C75495   8.334  -1.072  10.566  0.5785  0.5104 -0.2234
  560MOL0     O75496   8.295  -1.180  10.648  0.7716 -0.1147 -0.1552
  560MOL0     C75497   8.207  -1.155  10.749  0.1225  0.2211 -0.1616
  560MOL0     C75498   8.083  -1.114  10.714 -0.5709 -1.1873  0.1116
  560MOL0     C75499   7.979  -1.142  10.803  0.8691 -0.3390 -0.0689
  560MOL0     C75500   8.001  -1.195  10.928  0.5011  0.3368  1.0605
  560MOL0     O75501   7.893  -1.208  11.013 -0.0330 -0.3915 -0.7246
  560MOL0     C75502   7.909  -1.291  11.132  0.4353 -0.8628  0.8146
  560MOL0     C75503   7.803  -1.283  11.248 -0.0468  0.6511 -0.7891
  560MOL0     C75504   7.808  -1.166  11.353 -0.9967 -0.0739  0.4665
  560MOL0     C75505   7.714  -1.048  11.313 -0.2360  0.5385 -0.2548
  560MOL0     C75506   7.732  -0.917  11.396  0.3688  0.9117  0.2189
  560MOL0     C75507   7.632  -0.812  11.341 -0.0484 -1.0853 -0.9773
  560MOL0     C75508   7.636  -0.688  11.441 -0.9117 -0.7572  0.8242
  560MOL0     C75509   7.537  -0.586  11.381 -0.5238 -0.6751  0.1858
  560MOL0    Cl75510   7.470  -0.475  11.506 -0.1073  0.7239 -0.3816
  560MOL0     C75511   8.135  -1.225  10.961  0.6796  0.2389 -0.2332
  560MOL0     C75512   8.237  -1.214  10.869  0.1203 -1.2205 -0.4776
  560MOL0     O75513   8.290  -0.958  10.569  0.2078  0.9775  0.4136
  560MOL0     C75514   8.517  -1.222  10.480  0.9309 -0.7641 -0.3133
  560MOL0     C75515   8.604  -1.272  10.381 -0.4825  0.4650 -0.5120
  560MOL0     N75516   8.692  -0.906   9.779  0.1895 -0.1860 -0.1385
  560MOL0     N75517   8.641  -0.824   9.695  0.4088  0.4763  0.2590
  560MOL0     C75518   8.449   0.056   8.790  0.1972  0.3330  0.7253
  560MOL0     C75519   8.396   0.178   8.757  1.0531 -0.9360 -0.2573
  560MOL0     C75520   8.398   0.647   8.822  0.8369 -0.7903  0.0139
  560MOL0     C75521   8.465   0.767   8.861 -0.0972 -0.5551  0.1104
  560MOL0     C75522   8.407   0.900   8.843  0.0508 -0.5339  0.5914
  560MOL0     C75523   8.295   0.914   8.764 -1.1461 -0.3594 -0.4685
  560MOL0     O75524   8.238   1.036   8.734 -0.0337 -0.0302 -0.6194
  560MOL0     C75525   8.286   1.166   8.777  0.7952 -0.3609  0.2418
  560MOL0     C75526   8.207   1.281   8.694  0.6867  0.2719  0.0623
  560MOL0     C75527   8.218   1.260   8.544 -0.8033 -0.0443  0.8229
  560MOL0     C75528   8.124   1.356   8.458  0.1276 -0.1252 -0.2603
  560MOL0     C75529   8.127   1.318   8.319 -0.0478  0.9065  0.4367
  560MOL0     C75530   8.144   1.288   8.201 -0.3497  0.4480  0.8560
  560MOL0     C75531   8.236   0.795   8.717  0.2106 -0.6939  0.3502
  560MOL0     C75532   8.289   0.666   8.743  0.8503 -0.5846 -0.3840
  560MOL0     H75533   8.675   0.359   8.788 -0.5708  0.4641  0.6044
  560MOL0     H75534   8.770   0.150   8.834 -0.2412  2.2582  1.4638
  560MOL0     H75535   8.743  -0.074   8.993  0.7018  2.0516 -3.3040
  560MOL0     H75536   8.577  -0.087   9.019  0.6719  2.0549  0.4816
  560MOL0     H75537   8.574  -0.328   8.929 -0.1126 -2.4598 -0.2016
  560MOL0     H75538   8.755  -0.309   8.892  2.2798  1.0636  3.5838
  560MOL0     H75539   8.806  -0.280   9.126 -0.7984  1.1624  0.5167
  560MOL0     H75540   8.634  -0.273   9.166  0.6202  0.6352  0.9829
  560MOL0     H75541   8.622  -0.514   9.078 -0.1243  0.7160 -0.9202
  560MOL0     H75542   8.790  -0.504   9.051  3.7146  2.9682  0.9415
  560MOL0     H75543   8.829  -0.456   9.298  0.4562 -2.0672 -0.7228
  560MOL0     H75544   8.651  -0.454   9.326 -1.6096 -0.8500 -0.5994
  560MOL0     H75545   8.627  -0.689   9.290 -0.0800  1.5495  2.0492
  560MOL0     H75546   8.798  -0.700   9.209  2.6949  1.5302  0.7259
  560MOL0     H75547   8.802  -0.795   9.426 -2.9603  0.0534  0.0300
  560MOL0     H75548   8.898  -0.643   9.425  0.3782  0.7761 -1.3225
  560MOL0     H75549   8.602  -0.651   9.528  0.0254  1.8092  0.3980
  560MOL0     H75550   8.734  -0.540   9.563  1.8715  1.1043  1.0132
  560MOL0     H75551   8.932  -0.693   9.738 -1.2817  1.5251  1.9534
  560MOL0     H75552   8.992  -0.966   9.893  0.9273 -1.2296  3.7643
  560MOL0     H75553   8.945  -0.824   9.972 -3.0858  0.8617  2.0958
  560MOL0     H75554   8.748  -1.046  10.008  1.5614 -1.3365 -2.3225
  560MOL0     H75555   8.814  -0.919  10.119 -2.2295  2.1195 -1.9749
  560MOL0     H75556   9.020  -1.068  10.121 -0.5711  0.3905  0.1394
  560MOL0     H75557   8.929  -1.176  10.017 -0.3152  0.3624 -0.4992
  560MOL0     H75558   8.830  -1.084  10.293  2.8065  0.0201  0.1322
  560MOL0     H75559   8.914  -1.237  10.257  0.9419  0.5834  1.0885
  560MOL0     H75560   8.547  -1.047  10.135  0.4888  2.2682 -0.0296
  560MOL0     H75561   8.350  -0.860  10.353 -0.3156 -0.4634  1.6357
  560MOL0     H75562   8.347  -0.904  10.179 -0.2370 -2.6837 -0.6274
  560MOL0     H75563   8.230  -0.980  10.290 -0.1434  0.7702  2.3090
  560MOL0     H75564   8.061  -1.073  10.615 -0.9635 -3.0794 -0.6336
  560MOL0     H75565   7.879  -1.115  10.772 -0.6009 -1.6076  3.1584
  560MOL0     H75566   7.909  -1.393  11.094 -0.1941  0.5484 -3.6331
  560MOL0     H75567   7.992  -1.265  11.198  1.5234  0.8205 -1.1045
  560MOL0     H75568   7.713  -1.275  11.186 -1.9988 -1.6656  1.5906
  560MOL0     H75569   7.804  -1.378  11.301 -0.6842  1.2336  0.2960
  560MOL0     H75570   7.907  -1.121  11.363 -1.4267  0.8819  0.5411
  560MOL0     H75571   7.790  -1.214  11.449 -0.5398  0.0782  0.6295
  560MOL0     H75572   7.720  -1.019  11.208 -2.6794  0.2183 -0.5269
  560MOL0     H75573   7.612  -1.083  11.331  0.0159 -0.1670 -0.1830
  560MOL0     H75574   7.830  -0.872  11.376  1.1378 -1.3438 -1.5627
  560MOL0     H75575   7.710  -0.942  11.500  1.0534  3.1950  0.9806
  560MOL0     H75576   7.647  -0.778  11.238  3.3419  0.1152 -0.2009
  560MOL0     H75577   7.538  -0.868  11.345 -0.7465  0.1362  1.0582
  560MOL0     H75578   7.736  -0.644  11.453 -0.6945 -1.4267  1.5397
  560MOL0     H75579   7.597  -0.708  11.541 -1.9597  0.0651  0.6001
  560MOL0     H75580   7.450  -0.643  11.347  0.6010 -1.9090 -0.7185
  560MOL0     H75581   7.584  -0.536  11.296  0.8348 -2.8052 -0.3770
  560MOL0     H75582   8.162  -1.247  11.064 -2.7167  0.3486  0.8083
  560MOL0     H75583   8.340  -1.245  10.882  0.6043  0.6436  0.4534
  560MOL0     H75584   8.530  -1.268  10.577  0.9616 -0.4770 -0.1797
  560MOL0     H75585   8.672  -1.356  10.394  0.6373  1.4379  0.2122
  560MOL0     H75586   8.384  -0.030   8.806  1.4208 -0.7393  0.1178
  560MOL0     H75587   8.290   0.188   8.734  1.3551  3.0464 -0.5489
  560MOL0     H75588   8.555   0.756   8.919 -0.1553  1.0675  0.5372
  560MOL0     H75589   8.466   0.984   8.879  1.9490 -2.8729  3.4501
  560MOL0     H75590   8.279   1.165   8.886  0.8118 -1.6288  0.2364
  560MOL0     H75591   8.391   1.176   8.748  0.0909  1.0212 -2.1577
  560MOL0     H75592   8.250   1.378   8.720  1.1229  0.2856 -0.6898
  560MOL0     H75593   8.102   1.281   8.727  0.4375  2.2410 -0.6069
  560MOL0     H75594   8.217   1.155   8.510 -0.6488 -0.3386  1.7147
  560MOL0     H75595   8.323   1.285   8.526  0.3262 -4.3022  0.1976
  560MOL0     H75596   8.153   1.458   8.486  1.1816 -0.7850  1.2123
  560MOL0     H75597   8.023   1.356   8.499  1.2827  1.0247  2.9036
  560MOL0     H75598   8.153   1.270   8.096  0.2942  0.0510  0.9714
  560MOL0     H75599   8.142   0.808   8.665 -0.8554  0.4689  2.4372
  560MOL0     H75600   8.234   0.583   8.699  0.2846  0.3597 -1.5258
  561MOL0     O75601   9.064   3.853   8.886 -0.2099  0.1052 -0.4765
  561MOL0     C75602   9.065   3.829   8.767 -0.1777  0.1671  0.5982
  561MOL0     O75603   9.014   3.715   8.712  0.5439 -0.2854  0.6838
  561MOL0     C75604   8.982   3.606   8.783  1.0576 -0.3627 -0.4085
  561MOL0     C75605   9.069   3.556   8.882 -0.1998  1.4957  0.1609
  561MOL0     C75606   9.045   3.421   8.929  0.9772 -0.1814 -0.1612
  561MOL0     C75607   8.933   3.350   8.893  0.1827  1.1519 -0.3599
  561MOL0     O75608   8.908   3.231   8.959  0.6671  0.5219  0.0569
  561MOL0     C75609   8.764   3.211   8.995 -0.0326  0.1613 -0.1390
  561MOL0     C75610   8.736   3.143   9.133  0.0203 -0.9205 -0.8229
  561MOL0     C75611   8.771   2.993   9.138 -0.6475 -0.8295  1.0368
  561MOL0     C75612   8.779   2.934   9.274  0.7334  0.1500 -0.2801
  561MOL0     C75613   8.775   2.778   9.282 -0.3578  0.2310 -0.1626
  561MOL0     C75614   8.789   2.730   9.428 -0.0895 -0.2001  0.2217
  561MOL0     C75615   8.791   2.574   9.454 -0.0186 -0.0514  0.4276
  561MOL0     C75616   8.921   2.498   9.439 -0.0025 -0.2325  0.4942
  561MOL0     N75617   9.028   2.538   9.539 -0.3638  0.6885 -0.1329
  561MOL0     C75618   9.018   2.525   9.672  1.5598 -0.3749 -0.2447
  561MOL0     C75619   9.140   2.561   9.730  0.1921  0.0799 -0.2866
  561MOL0     C75620   9.173   2.548   9.879  0.5363  0.5209  0.7025
  561MOL0     C75621   9.172   2.406   9.924  0.7512 -0.1708  0.6512
  561MOL0     C75622   9.225   2.388  10.075  0.5917  0.9404  0.6068
  561MOL0     C75623   9.130   2.467  10.170  0.6470  0.2118  0.3436
  561MOL0     O75624   8.987   2.447  10.145 -0.4961  1.2594  0.1695
  561MOL0     C75625   8.923   2.338  10.198 -0.2183 -0.5600 -0.5255
  561MOL0     C75626   8.968   2.274  10.313 -0.6870 -0.2898 -0.9728
  561MOL0     C75627   8.885   2.183  10.382 -0.9272 -0.4944  0.2098
  561MOL0     C75628   8.944   2.107  10.508  0.7588  0.2313  0.7737
  561MOL0     C75629   8.755   2.171  10.339  0.1002  0.1223  0.5978
  561MOL0     C75630   8.652   2.095  10.418  0.1070 -0.9736  0.3374
  561MOL0     O75631   8.555   2.040  10.340  0.5581  0.6167 -0.2630
  561MOL0     C75632   8.464   1.946  10.393  0.9804 -0.1120  0.4288
  561MOL0     C75633   8.345   1.914  10.320  0.3487 -0.1191 -0.1500
  561MOL0     C75634   8.266   1.818  10.375 -0.0844  0.5544  0.1298
  561MOL0     C75635   8.292   1.748  10.494  0.6211 -0.4087  0.2518
  561MOL0     O75636   8.193   1.667  10.543  0.0404 -0.5197  0.4135
  561MOL0     C75637   8.222   1.567  10.636  0.0787 -0.5995 -0.1822
  561MOL0     C75638   8.306   1.463  10.558  0.7408 -0.1794 -0.2967
  561MOL0     C75639   8.219   1.396  10.445  0.1333  0.2161  0.0587
  561MOL0     C75640   8.295   1.260  10.410  0.2987  0.5786  1.0754
  561MOL0     C75641   8.243   1.194  10.282  0.1215 -0.3046  0.3102
  561MOL0     C75642   8.099   1.145  10.295  0.7179 -0.3461 -0.3385
  561MOL0     C75643   8.073   1.029  10.391 -0.4543 -0.5974 -0.2070
  561MOL0     C75644   7.942   0.943  10.400 -0.5183 -0.6971 -0.2210
  561MOL0    Cl75645   7.813   1.057  10.437 -0.2775 -0.1776 -0.7198
  561MOL0     C75646   8.409   1.776  10.562 -0.3568  0.3062  0.3913
  561MOL0     C75647   8.494   1.871  10.511 -0.5716 -0.3773  0.1462
  561MOL0     O75648   8.638   2.124  10.533  0.1970  0.3792 -0.5915
  561MOL0     C75649   8.707   2.236  10.218  1.2052 -0.2960 -1.4171
  561MOL0     C75650   8.800   2.317  10.151 -0.8343 -0.6685  0.3197
  561MOL0     N75651   9.224   2.564   9.631  0.6441 -1.4278  0.0677
  561MOL0     N75652   9.162   2.555   9.516  0.2779  0.0810 -0.1189
  561MOL0     C75653   8.851   3.412   8.796  0.7335 -0.3805  0.1286
  561MOL0     C75654   8.878   3.524   8.729 -1.1552  0.2459  1.7653
  561MOL0     C75655   9.102   3.927   8.663  0.2462 -1.3539  0.2881
  561MOL0     C75656   9.125   4.058   8.712  0.5783 -0.1557  0.1920
  561MOL0     C75657   9.162   4.158   8.621  0.4975 -0.5144 -0.6006
  561MOL0     C75658   9.173   4.130   8.480  0.5830 -0.6451 -0.5455
  561MOL0     O75659   9.205   4.210   8.377  0.4358 -0.6232  0.5879
  561MOL0     C75660   9.238   4.349   8.397 -0.5704  0.5481  0.6609
  561MOL0     C75661   9.124   4.436   8.355  0.3662 -0.0637  0.8626
  561MOL0     C75662   8.988   4.377   8.399  0.0391 -0.6359 -0.1232
  561MOL0     C75663   8.877   4.470   8.348  0.7565 -0.6738  0.3095
  561MOL0     C75664   8.793   4.412   8.239  0.3145  0.9649  0.0646
  561MOL0     C75665   8.719   4.400   8.141  1.0751  0.3245  0.2824
  561MOL0     C75666   9.151   3.999   8.442 -0.3348  0.1884  0.3513
  561MOL0     C75667   9.115   3.891   8.527  0.9919  0.1454  0.4392
  561MOL0     H75668   9.154   3.616   8.914  1.4396  0.8735 -2.7067
  561MOL0     H75669   9.115   3.384   9.004 -0.3463 -0.2981  1.0793
  561MOL0     H75670   8.691   3.288   8.969 -0.1291 -0.1673 -0.8920
  561MOL0     H75671   8.728   3.127   8.935  0.9783 -1.8801  1.9697
  561MOL0     H75672   8.775   3.196   9.221 -2.2291  0.4451 -0.5664
  561MOL0     H75673   8.628   3.145   9.147 -0.4959 -3.8706 -3.2530
  561MOL0     H75674   8.704   2.947   9.065 -0.5909  0.7404 -0.0629
  561MOL0     H75675   8.863   2.983   9.081 -2.3563 -0.5533 -1.9898
  561MOL0     H75676   8.877   2.955   9.318  0.4480 -1.1738  1.0722
  561MOL0     H75677   8.699   2.972   9.338  0.6085  0.8836 -0.8469
  561MOL0     H75678   8.682   2.741   9.238  1.4701 -1.9426 -2.4832
  561MOL0     H75679   8.847   2.735   9.213 -0.7971 -1.4152  0.3486
  561MOL0     H75680   8.879   2.778   9.468 -1.7219  1.1502  2.5023
  561MOL0     H75681   8.698   2.769   9.475 -0.8973 -0.3027 -1.2168
  561MOL0     H75682   8.772   2.562   9.561 -1.2064  2.4347  0.5598
  561MOL0     H75683   8.711   2.524   9.398  0.4865  0.3297 -0.6651
  561MOL0     H75684   8.963   2.516   9.340 -0.4621  0.1707  0.3695
  561MOL0     H75685   8.901   2.390   9.436  0.3163 -0.2793 -0.2758
  561MOL0     H75686   8.931   2.511   9.735  0.6698  2.6430 -0.6711
  561MOL0     H75687   9.266   2.595   9.913 -0.5760  3.0826  0.4487
  561MOL0     H75688   9.086   2.599   9.921 -1.4586 -0.0308 -2.5021
  561MOL0     H75689   9.236   2.355   9.852  0.4588  2.2424 -1.4489
  561MOL0     H75690   9.073   2.360   9.919  1.4667 -2.3902  3.6976
  561MOL0     H75691   9.328   2.423  10.084  1.3379 -1.3803  1.7162
  561MOL0     H75692   9.215   2.284  10.107 -2.8440  1.7191  2.6119
  561MOL0     H75693   9.147   2.575  10.166 -0.0132  0.2832 -1.3368
  561MOL0     H75694   9.157   2.446  10.274 -0.3339 -1.8442  0.2339
  561MOL0     H75695   9.053   2.308  10.371 -0.4092 -0.5197 -1.2390
  561MOL0     H75696   8.925   2.147  10.608  4.6657  0.2134  1.7211
  561MOL0     H75697   8.910   2.004  10.518 -0.9137  0.8508  1.8761
  561MOL0     H75698   9.053   2.116  10.511  0.7391  0.7491  0.0754
  561MOL0     H75699   8.330   1.967  10.226 -0.3901  0.5655  0.3381
  561MOL0     H75700   8.177   1.801  10.316  0.1064 -0.3778  0.0932
  561MOL0     H75701   8.277   1.601  10.724  0.7573 -0.8865 -0.4845
  561MOL0     H75702   8.127   1.523  10.667 -0.5616  1.7646  1.4642
  561MOL0     H75703   8.386   1.517  10.506 -0.9480  0.9308 -1.8950
  561MOL0     H75704   8.352   1.393  10.627 -1.1771 -1.2553 -0.0309
  561MOL0     H75705   8.198   1.455  10.355  1.4053 -0.7638 -0.9156
  561MOL0     H75706   8.115   1.375  10.471 -1.3941  4.0062 -2.1694
  561MOL0     H75707   8.401   1.284  10.398 -0.1103  1.7217 -0.6094
  561MOL0     H75708   8.281   1.188  10.491 -2.4400 -0.0739  0.1199
  561MOL0     H75709   8.314   1.113  10.263  4.7362  3.2789  0.5554
  561MOL0     H75710   8.256   1.266  10.201 -3.0571  0.0543 -0.0024
  561MOL0     H75711   8.035   1.227  10.331  1.8362 -0.8567  3.1041
  561MOL0     H75712   8.061   1.092  10.207 -0.0393 -2.5530  1.2237
  561MOL0     H75713   8.092   1.073  10.490  2.2847 -0.2518 -0.7986
  561MOL0     H75714   8.157   0.964  10.365 -0.4875  0.7179 -4.1212
  561MOL0     H75715   7.940   0.869  10.481  3.3827 -0.1981  0.5451
  561MOL0     H75716   7.933   0.882  10.309  0.2014 -2.7296  0.9768
  561MOL0     H75717   8.436   1.722  10.651  3.5564  0.6204 -0.3970
  561MOL0     H75718   8.588   1.882  10.565  0.3465  3.1180 -1.8674
  561MOL0     H75719   8.613   2.219  10.167  1.7265 -0.3141 -2.3984
  561MOL0     H75720   8.769   2.373  10.064  1.3452 -0.8032 -0.5988
  561MOL0     H75721   8.765   3.357   8.760 -0.8779 -0.2692  3.4505
  561MOL0     H75722   8.821   3.559   8.644  2.1519 -3.0737 -2.3042
  561MOL0     H75723   9.110   4.070   8.819 -0.1253 -1.3901  0.2530
  561MOL0     H75724   9.175   4.258   8.662 -2.2153 -0.3294  0.0197
  561MOL0     H75725   9.286   4.364   8.494  6.6992 -2.5092 -1.8059
  561MOL0     H75726   9.305   4.374   8.315  2.8647 -1.3108  2.6358
  561MOL0     H75727   9.121   4.424   8.247  0.8089  0.4208  0.7941
  561MOL0     H75728   9.149   4.537   8.390 -0.1736 -0.2416  1.8111
  561MOL0     H75729   8.994   4.382   8.508  0.9331  2.0167 -0.2166
  561MOL0     H75730   8.977   4.274   8.363  0.5327  0.0185 -2.2828
  561MOL0     H75731   8.910   4.563   8.301 -0.8151 -1.0774 -1.7709
  561MOL0     H75732   8.814   4.505   8.429 -0.7501 -0.0921 -1.0529
  561MOL0     H75733   8.651   4.391   8.058  3.2352  1.2827 -1.6947
  561MOL0     H75734   9.147   3.966   8.339 -3.2049  3.6577 -0.8494
  561MOL0     H75735   9.088   3.793   8.490 -1.1454  0.6186  0.5920
  562MOL0     O75736   0.503   6.490   4.209  0.1539  1.4343  0.0945
  562MOL0     C75737   0.484   6.510   4.329 -0.2565  0.5339  1.1362
  562MOL0     O75738   0.415   6.617   4.388 -0.6881  0.3674 -0.3880
  562MOL0     C75739   0.337   6.718   4.322  0.9211  1.0269 -0.2976
  562MOL0     C75740   0.337   6.759   4.198  0.3150 -0.4677  0.0260
  562MOL0     C75741   0.273   6.880   4.158 -0.5239 -0.4142 -0.5464
  562MOL0     C75742   0.188   6.948   4.240  0.0983 -0.9756  1.3193
  562MOL0     O75743   0.130   7.068   4.210 -0.8421 -0.4817  0.0641
  562MOL0     C75744   0.017   7.057   4.133  0.5573 -0.1819  0.3135
  562MOL0     C75745   0.033   7.097   3.982  1.3360 -0.0364 -0.4759
  562MOL0     C75746   0.069   7.245   3.965  0.6886 -0.0281 -0.3009
  562MOL0     C75747   0.080   7.275   3.809 -0.3390 -0.9166 -0.4729
  562MOL0     C75748   0.096   7.420   3.757  0.4519 -0.1728  0.1138
  562MOL0     C75749   0.005   7.529   3.831 -0.4942 -0.0897  1.1461
  562MOL0     C75750   0.019   7.671   3.767 -0.5477 -0.1575  0.5749
  562MOL0     C75751  -0.086   7.754   3.827 -0.0374 -1.4204  0.6223
  562MOL0     N75752  -0.039   7.813   3.957  0.7071 -0.0548  0.9494
  562MOL0     C75753  -0.116   7.822   4.069  0.6964 -0.0669  0.2282
  562MOL0     C75754  -0.048   7.909   4.150 -0.6975 -0.6229 -0.5391
  562MOL0     C75755  -0.095   7.928   4.293  0.4434  0.1596  0.2957
  562MOL0     C75756  -0.012   7.849   4.398  0.3823 -0.2652 -0.8561
  562MOL0     C75757   0.074   7.935   4.508 -0.0131  0.3437  0.5147
  562MOL0     C75758   0.210   7.972   4.446 -1.3921 -0.1109  0.4830
  562MOL0     O75759   0.296   7.852   4.462 -0.0804  0.1025  0.5282
  562MOL0     C75760   0.395   7.803   4.374  0.4226 -0.6383  0.0354
  562MOL0     C75761   0.490   7.710   4.421  0.2407  0.1476  0.2979
  562MOL0     C75762   0.579   7.654   4.329  0.1324 -0.5310  0.7947
  562MOL0     C75763   0.670   7.556   4.384 -0.5553  0.1214  0.1380
  562MOL0     C75764   0.577   7.696   4.192  0.1040  0.2718 -0.1327
  562MOL0     C75765   0.673   7.645   4.089  0.1171  1.2264 -0.1655
  562MOL0     O75766   0.672   7.713   3.975 -0.1094  0.6122 -0.0486
  562MOL0     C75767   0.754   7.664   3.878 -0.4637  0.4544 -0.3466
  562MOL0     C75768   0.854   7.758   3.829  0.3384 -0.2093 -0.2692
  562MOL0     C75769   0.936   7.715   3.725 -0.1179  0.4803 -0.5045
  562MOL0     C75770   0.925   7.579   3.674  0.4334 -0.6164 -0.8457
  562MOL0     O75771   1.011   7.543   3.566  0.3076  0.4955 -0.1988
  562MOL0     C75772   1.102   7.626   3.488  0.8826  0.2093 -0.7227
  562MOL0     C75773   1.023   7.718   3.394 -0.2771  0.4034  0.0282
  562MOL0     C75774   1.008   7.657   3.254 -0.7513  0.3775  0.7745
  562MOL0     C75775   0.933   7.763   3.153 -0.2957 -0.5137 -0.5861
  562MOL0     C75776   0.891   7.697   3.020  0.1998  0.5521  0.4856
  562MOL0     C75777   0.828   7.801   2.928  0.4618 -0.7826 -0.0872
  562MOL0     C75778   0.696   7.861   2.987 -0.0588 -0.2128  0.0851
  562MOL0     C75779   0.637   7.960   2.879 -0.1640 -0.4014  0.0977
  562MOL0    Cl75780   0.755   8.053   2.796 -0.2423  0.2816 -0.4909
  562MOL0     C75781   0.826   7.501   3.724 -0.0178 -0.0566 -0.2533
  562MOL0     C75782   0.737   7.536   3.820  0.6729  1.1649  0.0143
  562MOL0     O75783   0.748   7.554   4.121  0.2917 -0.3224 -0.9940
  562MOL0     C75784   0.480   7.782   4.150  0.0340  0.5454  0.0971
  562MOL0     C75785   0.389   7.835   4.241  1.0573  0.0467 -0.0172
  562MOL0     N75786   0.078   7.950   4.098  1.0906  0.4213 -1.1889
  562MOL0     N75787   0.079   7.882   3.988 -0.0672 -0.0740  0.8225
  562MOL0     C75788   0.171   6.889   4.361  0.8476  0.3640  0.1766
  562MOL0     C75789   0.239   6.775   4.405 -0.4282 -0.3591 -0.2710
  562MOL0     C75790   0.571   6.417   4.409 -0.0643 -0.5579 -0.5980
  562MOL0     C75791   0.661   6.325   4.348  0.7641 -0.6883  0.2819
  562MOL0     C75792   0.766   6.275   4.421  0.8461  1.4239  0.4835
  562MOL0     C75793   0.770   6.299   4.568  0.4584 -0.0609 -0.0108
  562MOL0     O75794   0.871   6.253   4.646 -0.1210  0.1207 -0.3955
  562MOL0     C75795   0.979   6.177   4.596  0.5136  0.9362 -0.5032
  562MOL0     C75796   1.066   6.120   4.707 -0.7412 -0.0280  0.3697
  562MOL0     C75797   0.972   6.030   4.801 -0.2019 -0.2561 -0.6977
  562MOL0     C75798   1.038   5.923   4.893  0.2992  0.2372 -0.1359
  562MOL0     C75799   0.931   5.847   4.959  0.7461  0.9682  0.1133
  562MOL0     C75800   0.838   5.792   5.022 -0.3028  0.2980  0.5726
  562MOL0     C75801   0.669   6.376   4.631 -0.1312  0.5544  0.1762
  562MOL0     C75802   0.579   6.435   4.549  0.4510  0.2386 -0.0031
  562MOL0     H75803   0.412   6.727   4.126  0.7679  2.3881 -0.9155
  562MOL0     H75804   0.308   6.930   4.068  0.0395  0.8368  0.3365
  562MOL0     H75805  -0.027   6.957   4.138 -3.3235  1.3297  0.2631
  562MOL0     H75806  -0.061   7.128   4.164  1.0510 -0.3862  2.1375
  562MOL0     H75807   0.108   7.030   3.939  1.4046 -0.3119  0.0575
  562MOL0     H75808  -0.064   7.090   3.932  1.1002  0.4316 -0.0986
  562MOL0     H75809  -0.010   7.308   4.008 -0.1516 -2.3285  1.7908
  562MOL0     H75810   0.156   7.263   4.029  0.9126 -0.3895 -0.5014
  562MOL0     H75811   0.163   7.219   3.767  0.1804 -2.5944  2.5358
  562MOL0     H75812  -0.014   7.235   3.770 -0.5443 -0.5498 -0.3651
  562MOL0     H75813   0.200   7.454   3.756 -0.0472  1.4909 -1.0509
  562MOL0     H75814   0.075   7.411   3.650  3.3697 -0.7191 -0.5015
  562MOL0     H75815  -0.099   7.495   3.832 -2.1348  3.2688 -4.6419
  562MOL0     H75816   0.031   7.540   3.937  1.6097 -0.2035  0.6724
  562MOL0     H75817   0.116   7.715   3.791  0.2281 -0.1505 -2.2459
  562MOL0     H75818   0.009   7.665   3.658  0.7208  0.5672  0.3972
  562MOL0     H75819  -0.175   7.696   3.852 -1.1253  0.6528  1.9126
  562MOL0     H75820  -0.106   7.840   3.761  0.5696 -0.1904  1.9787
  562MOL0     H75821  -0.204   7.763   4.091  0.8634  0.2884  2.0105
  562MOL0     H75822  -0.099   8.035   4.313  2.4678  0.3818 -0.2652
  562MOL0     H75823  -0.197   7.887   4.295  0.0787  1.0702  1.2931
  562MOL0     H75824   0.063   7.783   4.354  1.3158 -0.0393  0.3301
  562MOL0     H75825  -0.092   7.812   4.462 -0.5192 -2.0387 -2.8920
  562MOL0     H75826   0.096   7.881   4.600 -2.3603  1.5430  1.8634
  562MOL0     H75827   0.018   8.028   4.517 -0.8588  0.1425 -1.8808
  562MOL0     H75828   0.244   8.056   4.506 -0.0571 -1.9419  2.4409
  562MOL0     H75829   0.182   8.003   4.345 -0.3292 -0.1922  0.1506
  562MOL0     H75830   0.467   7.659   4.514  0.0901 -1.6115 -0.6516
  562MOL0     H75831   0.772   7.563   4.343 -0.1444 -2.6171  0.5244
  562MOL0     H75832   0.677   7.565   4.493  0.3548  1.0892  0.0184
  562MOL0     H75833   0.629   7.457   4.361  0.4262 -1.2452  3.6312
  562MOL0     H75834   0.868   7.861   3.862 -0.6944  0.0389 -0.5692
  562MOL0     H75835   1.008   7.789   3.693 -0.8587  1.5023  0.1318
  562MOL0     H75836   1.175   7.671   3.557  1.4172  0.4366 -1.4284
  562MOL0     H75837   1.169   7.566   3.427  1.4836  0.4396 -0.3014
  562MOL0     H75838   0.934   7.764   3.436 -1.2707 -0.0047 -1.5546
  562MOL0     H75839   1.096   7.800   3.388  0.9054 -0.5266  1.1070
  562MOL0     H75840   0.954   7.563   3.264 -0.2778 -0.1107 -0.9878
  562MOL0     H75841   1.107   7.630   3.216 -1.8507  0.0871 -2.1322
  562MOL0     H75842   0.850   7.810   3.205 -1.4985 -3.3454  0.2488
  562MOL0     H75843   1.011   7.839   3.138 -1.5698  0.9299 -0.1441
  562MOL0     H75844   0.813   7.623   3.040  2.7090 -2.4747 -0.0040
  562MOL0     H75845   0.971   7.644   2.966 -0.2796  1.1110 -0.7924
  562MOL0     H75846   0.903   7.880   2.920 -0.7475  1.0401  3.9615
  562MOL0     H75847   0.816   7.761   2.827  0.0499 -2.1060  0.4596
  562MOL0     H75848   0.717   7.922   3.075  1.0889 -1.3750  0.6683
  562MOL0     H75849   0.616   7.789   3.004  0.6923 -1.4291 -1.2086
  562MOL0     H75850   0.570   8.030   2.930  1.4541  0.3575  1.2601
  562MOL0     H75851   0.582   7.911   2.798 -0.5109  2.9559 -1.9003
  562MOL0     H75852   0.811   7.407   3.674  3.6594  0.0825 -1.9470
  562MOL0     H75853   0.656   7.474   3.855  0.6259  1.7990  1.0427
  562MOL0     H75854   0.454   7.803   4.047 -2.5602 -2.4464 -0.0178
  562MOL0     H75855   0.305   7.891   4.199  1.1766  1.7305  1.8615
  562MOL0     H75856   0.095   6.935   4.424 -0.2803 -1.1476 -0.0183
  562MOL0     H75857   0.222   6.725   4.499  1.4444  1.2450  0.9874
  562MOL0     H75858   0.651   6.315   4.240  0.5261 -0.3360  0.2684
  562MOL0     H75859   0.842   6.212   4.377  0.1886 -1.2979  2.9188
  562MOL0     H75860   0.932   6.093   4.542 -0.4436  1.7026 -0.8973
  562MOL0     H75861   1.055   6.227   4.535  2.1390 -1.5607 -0.6677
  562MOL0     H75862   1.106   6.194   4.777  4.3900 -2.1757  0.1015
  562MOL0     H75863   1.146   6.056   4.669 -0.0115  0.6285  0.7696
  562MOL0     H75864   0.914   5.962   4.737 -0.2008 -0.4468 -0.4974
  562MOL0     H75865   0.903   6.083   4.867 -0.3876 -3.1640  1.6466
  562MOL0     H75866   1.094   5.968   4.975 -0.9757 -0.6447  1.2625
  562MOL0     H75867   1.108   5.863   4.834  1.3525  0.2550  1.0731
  562MOL0     H75868   0.753   5.765   5.082 -0.0818 -0.6000  0.4915
  562MOL0     H75869   0.659   6.377   4.739  1.1577 -2.6146  0.4463
  562MOL0     H75870   0.522   6.522   4.583  1.6940  1.4466 -0.8902
  563MOL0     O75871   9.520   9.645  10.583 -0.6907 -0.1153 -0.0074
  563MOL0     C75872   9.589   9.576  10.651 -1.0822 -0.8328  0.2959
  563MOL0     O75873   9.613   9.440  10.636 -0.4145  0.5592  0.1339
  563MOL0     C75874   9.574   9.372  10.522  0.6431  0.8746  0.6379
  563MOL0     C75875   9.467   9.280  10.545  0.0817 -0.5461 -0.1121
  563MOL0     C75876   9.432   9.191  10.446  0.3521  0.0176  0.6421
  563MOL0     C75877   9.499   9.182  10.322  0.2014  0.3125 -0.2020
  563MOL0     O75878   9.471   9.084  10.226  0.5711 -0.3842 -0.3734
  563MOL0     C75879   9.568   8.987  10.198 -0.3188 -0.3158  0.1824
  563MOL0     C75880   9.521   8.840  10.200 -0.3915 -1.0958  0.3572
  563MOL0     C75881   9.411   8.809  10.095 -0.2218 -0.3349  0.0303
  563MOL0     C75882   9.301   8.715  10.152 -0.7368 -0.2089 -0.7996
  563MOL0     C75883   9.173   8.692  10.067  0.5187 -0.3004  0.6823
  563MOL0     C75884   9.108   8.822  10.020 -0.0166  0.4333  0.5091
  563MOL0     C75885   8.966   8.805   9.966 -0.1697  0.1600 -0.2303
  563MOL0     C75886   8.936   8.677   9.904 -0.0208 -0.0670  0.4524
  563MOL0     N75887   8.813   8.691   9.825 -0.3472  0.6096 -0.6991
  563MOL0     C75888   8.806   8.759   9.712  0.4269 -0.1379  0.6066
  563MOL0     C75889   8.703   8.712   9.639  0.5460  0.2137 -0.0722
  563MOL0     C75890   8.666   8.739   9.500  0.0650 -0.3039 -0.7768
  563MOL0     C75891   8.766   8.729   9.387  0.1184  0.2421  0.4289
  563MOL0     C75892   8.813   8.590   9.341  0.7028 -0.2576 -0.0704
  563MOL0     C75893   8.897   8.523   9.445  0.0421  0.0700  0.5629
  563MOL0     O75894   9.026   8.592   9.463 -0.1791 -0.2739  0.0056
  563MOL0     C75895   9.129   8.546   9.544  0.6561 -0.0835 -0.4939
  563MOL0     C75896   9.229   8.639   9.573  0.3146 -0.8673 -0.9364
  563MOL0     C75897   9.330   8.620   9.661 -0.3225  0.7511 -0.2078
  563MOL0     C75898   9.426   8.734   9.689 -1.1507  0.0191 -0.3974
  563MOL0     C75899   9.336   8.497   9.737  0.0748 -0.6370 -0.8253
  563MOL0     C75900   9.440   8.461   9.838 -0.0283 -0.1636  0.7867
  563MOL0     O75901   9.413   8.352   9.915  0.7616 -0.3484  0.0996
  563MOL0     C75902   9.518   8.303   9.993 -0.5952  0.8379  1.6056
  563MOL0     C75903   9.545   8.371  10.109 -0.0295 -0.5136  0.6303
  563MOL0     C75904   9.635   8.323  10.202 -0.5967  0.3133 -0.5650
  563MOL0     C75905   9.692   8.196  10.189 -1.0627 -0.8737 -0.5246
  563MOL0     O75906   9.758   8.136  10.290 -0.0140  0.5825 -0.8603
  563MOL0     C75907   9.883   8.065  10.264  0.0543 -0.7160  0.7033
  563MOL0     C75908   9.934   8.009  10.401  0.2142 -0.1516 -0.3998
  563MOL0     C75909   9.893   7.868  10.438  1.2295  0.6718 -0.0226
  563MOL0     C75910   9.957   7.807  10.567  0.1259 -0.7998  0.3434
  563MOL0     C75911   9.892   7.668  10.600  0.1526  1.2705 -0.2884
  563MOL0     C75912   9.967   7.578  10.707 -0.0817  0.0818  0.1697
  563MOL0     C75913   9.897   7.442  10.724  0.2602  0.2377 -0.9667
  563MOL0     C75914   9.956   7.351  10.838 -1.1156 -0.6774 -0.4356
  563MOL0    Cl75915   9.903   7.174  10.813 -0.5327 -0.3711  0.2862
  563MOL0     C75916   9.656   8.122  10.072  0.0814  0.1993 -0.6308
  563MOL0     C75917   9.577   8.180   9.974 -0.6316  0.6247  0.1392
  563MOL0     O75918   9.548   8.527   9.844 -0.6088 -0.8147  0.4697
  563MOL0     C75919   9.218   8.410   9.721  0.5994 -0.2320  1.0094
  563MOL0     C75920   9.118   8.431   9.626  0.2397  0.6302  0.5354
  563MOL0     N75921   8.646   8.619   9.712  0.1454 -0.2120  0.4723
  563MOL0     N75922   8.714   8.603   9.818  0.4005 -0.0236 -0.0167
  563MOL0     C75923   9.601   9.275  10.303 -0.1851  0.3186 -0.0053
  563MOL0     C75924   9.642   9.370  10.401  0.2882  0.1153  0.0722
  563MOL0     C75925   9.668   9.643  10.758 -0.4659 -0.0286  0.2456
  563MOL0     C75926   9.734   9.580  10.868 -0.3901  0.0744  1.2086
  563MOL0     C75927   9.808   9.655  10.956  0.8343  0.0000 -0.0816
  563MOL0     C75928   9.841   9.789  10.933 -0.0333 -0.4838  0.4566
  563MOL0     O75929   9.933   9.850  11.022  0.3911  0.2180  0.5215
  563MOL0     C75930  10.054   9.889  10.948  0.6340  0.0410 -0.4623
  563MOL0     C75931  10.159   9.956  11.042 -0.4711 -1.1529  0.5932
  563MOL0     C75932  10.209   9.869  11.164  0.9238 -0.0308  0.7553
  563MOL0     C75933  10.152   9.932  11.297  0.4214 -0.4027  1.1438
  563MOL0     C75934  10.198   9.854  11.404 -1.0477 -0.7999  0.0147
  563MOL0     C75935  10.215   9.787  11.509 -0.2738  0.0503  0.6101
  563MOL0     C75936   9.789   9.850  10.825  0.2738 -0.2355 -0.3611
  563MOL0     C75937   9.709   9.775  10.730 -0.1384  0.2424  0.1441
  563MOL0     H75938   9.420   9.299  10.641  0.2729  2.7493 -0.5426
  563MOL0     H75939   9.358   9.116  10.469  1.5594 -0.7763  2.1137
  563MOL0     H75940   9.603   9.003  10.095 -1.3925 -0.0236 -0.1487
  563MOL0     H75941   9.645   8.992  10.276 -1.8097 -1.0205  1.7542
  563MOL0     H75942   9.605   8.777  10.169  1.0075  0.9501 -0.2667
  563MOL0     H75943   9.500   8.802  10.300  1.2844 -1.3187  0.6509
  563MOL0     H75944   9.359   8.901  10.066  0.9357 -0.1076 -1.4311
  563MOL0     H75945   9.456   8.771  10.003 -1.4892  0.3768 -0.9205
  563MOL0     H75946   9.336   8.618  10.189  1.1638  0.7975  0.1550
  563MOL0     H75947   9.274   8.763  10.246 -0.8729  1.3696 -1.6180
  563MOL0     H75948   9.196   8.633   9.977 -4.4769 -1.2869 -0.2421
  563MOL0     H75949   9.107   8.631  10.129 -1.4745  1.2122  0.1297
  563MOL0     H75950   9.107   8.896  10.101  2.2043  2.1207 -0.8878
  563MOL0     H75951   9.178   8.852   9.942  0.0193 -2.2721 -0.6186
  563MOL0     H75952   8.891   8.809  10.045 -1.4291 -2.0977 -1.2119
  563MOL0     H75953   8.945   8.891   9.901 -1.6501  0.2121  0.2703
  563MOL0     H75954   8.927   8.605   9.986  1.5978 -1.8061 -0.8171
  563MOL0     H75955   9.019   8.638   9.845  1.9002 -2.7815  4.4927
  563MOL0     H75956   8.863   8.843   9.676 -1.0654  0.9992  0.7825
  563MOL0     H75957   8.582   8.673   9.474 -1.5734  2.7498 -4.0590
  563MOL0     H75958   8.647   8.847   9.504  1.3982 -0.0655 -0.4990
  563MOL0     H75959   8.857   8.783   9.416  0.9266 -1.0167  0.3163
  563MOL0     H75960   8.732   8.777   9.295  0.8583 -2.2298 -1.2509
  563MOL0     H75961   8.878   8.597   9.253  0.8606 -1.6986 -0.0968
  563MOL0     H75962   8.733   8.521   9.313  0.8921  1.1042 -4.9871
  563MOL0     H75963   8.921   8.420   9.417  1.7129 -0.3960  3.3003
  563MOL0     H75964   8.849   8.508   9.542 -2.3307 -3.4259 -0.9409
  563MOL0     H75965   9.241   8.733   9.520 -2.2282 -1.0232 -1.9251
  563MOL0     H75966   9.452   8.734   9.795  2.2134 -1.1240 -1.1065
  563MOL0     H75967   9.518   8.705   9.638 -1.1303  0.2281 -0.4800
  563MOL0     H75968   9.386   8.833   9.661 -0.1482  0.6980  0.4836
  563MOL0     H75969   9.512   8.474  10.124 -3.6006 -1.4184 -0.1614
  563MOL0     H75970   9.656   8.371  10.297  1.3452 -0.4625 -0.5645
  563MOL0     H75971   9.872   7.988  10.187 -0.7428 -1.4585  1.5362
  563MOL0     H75972   9.963   8.127  10.222  3.5447 -5.1407 -0.0338
  563MOL0     H75973  10.042   7.998  10.406  0.4867  1.7691 -1.0879
  563MOL0     H75974   9.913   8.079  10.483  0.8287  0.2020 -0.5393
  563MOL0     H75975   9.916   7.797  10.358 -3.2937 -0.1463 -0.8416
  563MOL0     H75976   9.785   7.877  10.455  1.2553 -2.2136  2.6902
  563MOL0     H75977  10.064   7.796  10.551 -0.3069 -1.8515 -2.4524
  563MOL0     H75978   9.941   7.876  10.650  0.7738  0.5294 -0.6022
  563MOL0     H75979   9.889   7.599  10.515  0.0053 -0.7489  1.2635
  563MOL0     H75980   9.788   7.689  10.627  0.3112 -1.0629  2.7569
  563MOL0     H75981  10.067   7.565  10.665 -0.4335 -0.1664 -0.6059
  563MOL0     H75982   9.978   7.622  10.807  0.6392  0.3014 -0.0018
  563MOL0     H75983   9.907   7.381  10.633  3.8580 -2.3957  0.9064
  563MOL0     H75984   9.791   7.444  10.751  0.8448 -3.7291  2.9060
  563MOL0     H75985   9.941   7.395  10.937  0.4443  0.8121 -0.8051
  563MOL0     H75986  10.063   7.351  10.811 -2.1209 -1.3800 -5.3607
  563MOL0     H75987   9.687   8.018  10.070 -0.0888  0.0872  1.1198
  563MOL0     H75988   9.539   8.123   9.889 -2.3151 -1.3067  2.0519
  563MOL0     H75989   9.213   8.325   9.788  1.6578 -0.7929  0.4104
  563MOL0     H75990   9.031   8.366   9.628  0.4983  0.2613 -0.0341
  563MOL0     H75991   9.667   9.277  10.217  0.3423 -0.5527  0.3626
  563MOL0     H75992   9.715   9.448  10.380 -0.6170  0.5275 -1.8075
  563MOL0     H75993   9.703   9.477  10.881  1.6689 -0.4762  2.2112
  563MOL0     H75994   9.840   9.618  11.053 -0.6876  0.9404  0.8240
  563MOL0     H75995  10.099   9.803  10.897 -1.2859 -0.3429 -1.5885
  563MOL0     H75996  10.024   9.963  10.874 -0.5442  0.5566  0.5021
  563MOL0     H75997  10.122  10.047  11.090 -1.2142 -1.7417  1.1617
  563MOL0     H75998  10.232   9.996  10.971 -2.6540  3.9977  0.8132
  563MOL0     H75999  10.317   9.876  11.156  0.7130  0.9381 -2.9855
  563MOL0     H76000  10.161   9.773  11.147 -3.8576  1.7467  2.4556
  563MOL0     H76001  10.043   9.926  11.294  0.4905 -1.6660  0.1183
  563MOL0     H76002  10.176  10.038  11.291  1.6127 -0.7113  0.1960
  563MOL0     H76003  10.233   9.722  11.593  0.5860 -1.0282 -0.3747
  563MOL0     H76004   9.808   9.953  10.796  2.6872 -0.6104 -0.3271
  563MOL0     H76005   9.678   9.834  10.644  0.0005  0.4565  0.2404
  564MOL0     O76006   8.946   6.512   3.337 -0.4439 -0.0905  0.0674
  564MOL0     C76007   8.871   6.496   3.436  0.3639  0.2232 -0.0124
  564MOL0     O76008   8.798   6.387   3.455 -0.7953  0.2248  0.5607
  564MOL0     C76009   8.825   6.279   3.372  0.3513 -0.0305 -0.0889
  564MOL0     C76010   8.788   6.281   3.237  0.4044 -0.1220  0.6821
  564MOL0     C76011   8.818   6.176   3.158  0.0096  0.7340 -0.3444
  564MOL0     C76012   8.876   6.055   3.213  0.1808  0.1884  0.3172
  564MOL0     O76013   8.889   5.947   3.131 -0.3540  0.1100  0.1029
  564MOL0     C76014   8.763   5.877   3.104 -1.3878 -0.0471  0.2396
  564MOL0     C76015   8.784   5.732   3.068  0.0960  1.0148  0.0468
  564MOL0     C76016   8.838   5.723   2.924 -0.5248 -0.2210 -1.2298
  564MOL0     C76017   8.732   5.683   2.818 -0.6893 -0.9154 -0.5937
  564MOL0     C76018   8.686   5.539   2.827  0.0569  0.4038  0.5871
  564MOL0     C76019   8.614   5.478   2.697  0.8567 -0.9326  0.4717
  564MOL0     C76020   8.580   5.336   2.702 -0.6062 -0.3271  0.0417
  564MOL0     C76021   8.445   5.292   2.757  0.5951  0.4710 -0.1999
  564MOL0     N76022   8.420   5.155   2.707 -0.2985 -0.0381  0.4011
  564MOL0     C76023   8.384   5.130   2.575 -0.0806 -0.3670 -0.2339
  564MOL0     C76024   8.405   5.000   2.562 -1.1096  0.9462  0.4152
  564MOL0     C76025   8.395   4.912   2.441 -0.2590  0.6413  0.3861
  564MOL0     C76026   8.240   4.903   2.403 -0.2879 -0.2001 -0.7227
  564MOL0     C76027   8.197   4.787   2.310 -0.3357  0.4039  0.1202
  564MOL0     C76028   8.048   4.773   2.301  0.5403  0.1584  0.7307
  564MOL0     O76029   7.984   4.891   2.248 -0.4825 -0.2980 -0.6895
  564MOL0     C76030   7.848   4.896   2.228  0.0432  0.0654  0.3977
  564MOL0     C76031   7.785   5.002   2.173  0.3493 -0.3112 -0.7527
  564MOL0     C76032   7.646   5.009   2.166 -0.4594  1.0077  0.0170
  564MOL0     C76033   7.589   5.133   2.114  0.2352 -0.2376 -0.2137
  564MOL0     C76034   7.563   4.895   2.195 -0.4440 -0.2352 -0.5247
  564MOL0     C76035   7.406   4.899   2.194 -0.3048 -0.0246 -0.6075
  564MOL0     O76036   7.346   4.773   2.194 -0.5398 -0.9281 -0.5584
  564MOL0     C76037   7.214   4.767   2.223  0.7137  0.1614  0.5021
  564MOL0     C76038   7.154   4.660   2.158 -0.0572 -0.3379  0.1583
  564MOL0     C76039   7.021   4.633   2.191 -0.7435  0.5435  0.6376
  564MOL0     C76040   6.944   4.712   2.268 -0.3021 -0.9172  0.2532
  564MOL0     O76041   6.815   4.683   2.285  0.0592  0.2668  0.6831
  564MOL0     C76042   6.756   4.686   2.417 -1.0464 -0.0919  0.1048
  564MOL0     C76043   6.835   4.587   2.510 -0.5415 -0.2558  0.0899
  564MOL0     C76044   6.755   4.520   2.616  1.1652  0.9377 -0.0010
  564MOL0     C76045   6.757   4.380   2.603 -0.1183  0.3886  1.0979
  564MOL0     C76046   6.634   4.320   2.666 -0.6773  0.4505 -0.3403
  564MOL0     C76047   6.639   4.313   2.818 -0.8220 -0.1373 -0.1410
  564MOL0     C76048   6.526   4.228   2.868  0.3932  0.4717 -0.1274
  564MOL0     C76049   6.510   4.243   3.018  0.4583 -0.0172  0.1807
  564MOL0    Cl76050   6.632   4.151   3.106  0.1122 -0.4451 -0.3644
  564MOL0     C76051   7.000   4.825   2.324  0.0787  0.8072  0.2661
  564MOL0     C76052   7.138   4.850   2.312 -1.8517  0.7171  0.2825
  564MOL0     O76053   7.343   5.006   2.203 -0.2952  0.8541  0.8993
  564MOL0     C76054   7.630   4.771   2.211  1.0092  0.6548 -0.0323
  564MOL0     C76055   7.768   4.773   2.232 -0.3831 -0.2914 -0.6518
  564MOL0     N76056   8.446   4.945   2.678 -0.3817  0.6760  0.0077
  564MOL0     N76057   8.440   5.035   2.775 -0.4448 -0.3564  0.6975
  564MOL0     C76058   8.908   6.046   3.344  0.5392  0.5639 -1.0813
  564MOL0     C76059   8.888   6.163   3.426 -0.2260 -0.2497  0.2832
  564MOL0     C76060   8.850   6.606   3.530  0.0580 -0.6370 -0.0418
  564MOL0     C76061   8.780   6.588   3.647 -0.3446 -0.9725  0.6598
  564MOL0     C76062   8.747   6.705   3.717  0.1839  0.1051 -0.1128
  564MOL0     C76063   8.788   6.830   3.677  0.3049  0.3625 -0.1034
  564MOL0     O76064   8.730   6.927   3.756  0.7672 -0.2755 -0.1115
  564MOL0     C76065   8.793   7.051   3.784 -1.1945 -0.2532 -0.5876
  564MOL0     C76066   8.896   7.036   3.898  0.2320  0.3710  0.1291
  564MOL0     C76067   9.006   6.932   3.869  0.1072 -0.1225 -0.3392
  564MOL0     C76068   9.114   6.948   3.982  0.1431 -0.2515 -0.7279
  564MOL0     C76069   9.206   7.063   3.939 -0.2391  0.3318  0.5676
  564MOL0     C76070   9.278   7.155   3.903  0.8747 -0.6349  0.4651
  564MOL0     C76071   8.861   6.855   3.564 -0.6063  0.2420 -0.7008
  564MOL0     C76072   8.892   6.737   3.488  0.0694  0.7533 -0.5573
  564MOL0     H76073   8.751   6.374   3.195 -0.5407 -0.6367  0.3708
  564MOL0     H76074   8.782   6.176   3.056  0.5486  0.9654 -0.5411
  564MOL0     H76075   8.699   5.877   3.193  0.4145  0.1477  1.5991
  564MOL0     H76076   8.716   5.933   3.023  1.4275 -0.2451 -1.6549
  564MOL0     H76077   8.853   5.698   3.146  1.0443  1.1960 -0.6895
  564MOL0     H76078   8.689   5.678   3.070 -0.1610  1.4715  1.0476
  564MOL0     H76079   8.887   5.817   2.897  1.2352  0.0751  2.3915
  564MOL0     H76080   8.919   5.650   2.913 -0.8907 -0.4183 -2.8790
  564MOL0     H76081   8.643   5.746   2.828  1.4274  2.2823 -0.6005
  564MOL0     H76082   8.764   5.716   2.719 -1.6571 -1.9711 -1.2907
  564MOL0     H76083   8.780   5.484   2.835  0.2602 -0.4058 -4.4230
  564MOL0     H76084   8.619   5.528   2.913 -1.9620  2.2014 -0.6448
  564MOL0     H76085   8.520   5.529   2.671 -0.6140 -2.8913  1.6242
  564MOL0     H76086   8.673   5.505   2.608 -1.6859  2.5813 -0.3981
  564MOL0     H76087   8.612   5.303   2.603 -2.3138 -3.3922  0.3836
  564MOL0     H76088   8.655   5.298   2.773 -0.9972 -0.2852  0.4877
  564MOL0     H76089   8.370   5.364   2.723  1.2937  1.0161 -0.6043
  564MOL0     H76090   8.450   5.297   2.866  3.1847 -0.1187 -0.2210
  564MOL0     H76091   8.361   5.203   2.497 -3.1385  0.2101  1.0872
  564MOL0     H76092   8.442   4.959   2.354 -0.8079 -1.0328 -0.8574
  564MOL0     H76093   8.426   4.809   2.460 -0.7997 -0.0062 -1.9395
  564MOL0     H76094   8.214   4.996   2.352  0.0652  2.2839  3.1957
  564MOL0     H76095   8.187   4.901   2.499  0.5743  1.5701 -0.1655
  564MOL0     H76096   8.239   4.697   2.356  0.1556  2.4383  4.0932
  564MOL0     H76097   8.244   4.806   2.213  0.1460  2.8481  0.7837
  564MOL0     H76098   7.999   4.746   2.395 -3.3493  0.3634 -1.0144
  564MOL0     H76099   8.034   4.697   2.223  0.4911  3.9313 -3.3669
  564MOL0     H76100   7.845   5.091   2.162 -0.8117  0.6054  0.0853
  564MOL0     H76101   7.564   5.200   2.197 -4.1363 -2.1586  0.2783
  564MOL0     H76102   7.661   5.184   2.049  0.3275  1.0828  0.8758
  564MOL0     H76103   7.497   5.122   2.056 -1.0034 -2.6185  1.9774
  564MOL0     H76104   7.222   4.611   2.088  1.9761  0.4648  1.4800
  564MOL0     H76105   6.982   4.552   2.130 -0.7155  1.1298 -0.1686
  564MOL0     H76106   6.746   4.791   2.444 -0.0702 -0.6975  3.2894
  564MOL0     H76107   6.654   4.647   2.406 -0.0834 -3.2717  1.1679
  564MOL0     H76108   6.886   4.518   2.442 -3.9025 -1.5695 -1.3115
  564MOL0     H76109   6.920   4.641   2.554 -0.4623 -0.5035  0.2386
  564MOL0     H76110   6.652   4.556   2.602  0.6059 -0.2794  0.8213
  564MOL0     H76111   6.782   4.548   2.718 -1.8732  0.0139  1.1830
  564MOL0     H76112   6.747   4.353   2.497 -0.2492 -1.1509  1.4728
  564MOL0     H76113   6.853   4.345   2.642 -1.3526 -1.5385  2.5919
  564MOL0     H76114   6.640   4.218   2.625 -0.8976  1.7229 -3.8341
  564MOL0     H76115   6.542   4.364   2.627 -1.7021  0.2497  1.7112
  564MOL0     H76116   6.737   4.268   2.835  0.1770  2.1092  0.4104
  564MOL0     H76117   6.636   4.420   2.840 -0.0650  0.1240 -1.2025
  564MOL0     H76118   6.528   4.119   2.858 -2.3398  0.2086  1.0774
  564MOL0     H76119   6.429   4.265   2.831  0.4440  0.0896 -0.6531
  564MOL0     H76120   6.416   4.195   3.045  1.2111 -0.3370  2.4732
  564MOL0     H76121   6.495   4.348   3.045 -2.8166 -0.2720 -0.3394
  564MOL0     H76122   6.944   4.897   2.383  1.3003  0.5907  1.7691
  564MOL0     H76123   7.196   4.920   2.371  0.2036  0.0389 -0.7908
  564MOL0     H76124   7.571   4.680   2.213  1.7687  0.1532  1.7759
  564MOL0     H76125   7.815   4.680   2.261 -2.6824 -0.5374  3.0390
  564MOL0     H76126   8.948   5.952   3.382  2.4940  1.2121 -1.4024
  564MOL0     H76127   8.931   6.165   3.525  0.5421 -1.0775 -0.0293
  564MOL0     H76128   8.747   6.486   3.663  0.7088 -1.7437 -1.5547
  564MOL0     H76129   8.687   6.703   3.807 -0.5161 -0.3224 -0.5775
  564MOL0     H76130   8.844   7.101   3.701 -0.2718  0.8886  0.6343
  564MOL0     H76131   8.712   7.112   3.825  0.2815  1.4143 -0.0365
  564MOL0     H76132   8.841   6.988   3.979  1.5160 -2.8499 -0.7660
  564MOL0     H76133   8.947   7.127   3.932  0.8294 -0.7503  2.4276
  564MOL0     H76134   9.059   6.937   3.774  0.5886 -1.6334 -0.1850
  564MOL0     H76135   8.969   6.830   3.883 -0.2272 -0.0830 -0.9217
  564MOL0     H76136   9.169   6.854   3.991 -0.0261 -0.2171  1.1774
  564MOL0     H76137   9.062   6.964   4.077 -0.0699 -0.0427 -0.8805
  564MOL0     H76138   9.345   7.236   3.882 -2.6337  2.1922 -0.7410
  564MOL0     H76139   8.875   6.958   3.532 -0.0862  0.0291 -1.1825
  564MOL0     H76140   8.948   6.746   3.396  1.4963 -1.8685 -0.0397
  565MOL0     O76141   7.376   6.747   0.289 -0.0336 -0.1810  0.3728
  565MOL0     C76142   7.330   6.865   0.297 -0.6285 -0.2854  0.1878
  565MOL0     O76143   7.401   6.980   0.317 -0.4736 -0.1389 -0.0578
  565MOL0     C76144   7.536   6.990   0.293 -0.7394  0.7027  0.0491
  565MOL0     C76145   7.597   6.958   0.167  0.5937  0.2122 -0.4823
  565MOL0     C76146   7.729   6.996   0.128  0.8717  0.1005  0.2724
  565MOL0     C76147   7.811   7.057   0.229 -0.5064  0.5283  0.4208
  565MOL0     O76148   7.932   7.101   0.181  0.4589 -0.3516 -0.2262
  565MOL0     C76149   8.040   7.142   0.276  0.1586  0.5565 -0.2040
  565MOL0     C76150   8.173   7.133   0.210  0.0755 -0.4063  0.2480
  565MOL0     C76151   8.192   7.218   0.083 -0.0409  0.6001  0.4759
  565MOL0     C76152   8.195   7.371   0.109  0.7911 -0.4782 -1.0778
  565MOL0     C76153   8.248   7.446  -0.015  0.2940 -0.3022  0.3408
  565MOL0     C76154   8.217   7.603  -0.013  0.1738  0.1444  0.3115
  565MOL0     C76155   8.087   7.627  -0.097  0.2193  0.2113  0.5167
  565MOL0     C76156   8.053   7.764  -0.094  0.3543 -0.2509 -1.1322
  565MOL0     N76157   7.912   7.779  -0.145 -0.1785 -0.9295 -0.5898
  565MOL0     C76158   7.800   7.780  -0.061 -0.5230  0.2759 -0.1446
  565MOL0     C76159   7.698   7.819  -0.144 -0.0443  0.3565 -0.6641
  565MOL0     C76160   7.566   7.871  -0.083  0.5171 -0.1196  0.6200
  565MOL0     C76161   7.445   7.786  -0.133  0.0229  0.0591 -0.4133
  565MOL0     C76162   7.458   7.725  -0.281 -0.1579 -0.5170 -0.4128
  565MOL0     C76163   7.343   7.628  -0.294 -0.6736 -0.4160  0.2060
  565MOL0     O76164   7.375   7.503  -0.227 -0.5786  0.1668  0.7736
  565MOL0     C76165   7.292   7.394  -0.223  0.5426  0.9547  0.0354
  565MOL0     C76166   7.341   7.275  -0.173  0.0227  0.1553 -0.5766
  565MOL0     C76167   7.272   7.154  -0.179  0.1372  0.3742  0.1098
  565MOL0     C76168   7.338   7.028  -0.128  0.1242  1.1012  0.1076
  565MOL0     C76169   7.135   7.156  -0.228  0.0131  0.1092 -0.0611
  565MOL0     C76170   7.033   7.039  -0.241 -0.4232  0.4603 -0.2436
  565MOL0     O76171   7.059   6.922  -0.175 -0.9667  0.2377 -0.5374
  565MOL0     C76172   6.950   6.847  -0.138 -0.1649 -0.7038 -0.6657
  565MOL0     C76173   6.880   6.872  -0.024  0.4228 -0.0550 -0.5794
  565MOL0     C76174   6.771   6.797   0.024 -0.6695 -0.0513 -0.0550
  565MOL0     C76175   6.726   6.694  -0.069 -0.7867  0.3883 -0.5228
  565MOL0     O76176   6.627   6.615  -0.040 -0.1508  1.0313  0.0640
  565MOL0     C76177   6.492   6.669  -0.054  0.8257 -0.9057  0.8115
  565MOL0     C76178   6.391   6.570  -0.003  0.3697 -0.8857  0.3324
  565MOL0     C76179   6.372   6.428  -0.068  0.5210 -0.8009  0.0111
  565MOL0     C76180   6.506   6.361  -0.113  0.0164  0.8861  0.4217
  565MOL0     C76181   6.491   6.203  -0.116 -0.1269  0.6798 -0.4551
  565MOL0     C76182   6.395   6.151  -0.221  0.5010  0.6410  0.2483
  565MOL0     C76183   6.398   6.003  -0.246 -0.9790  0.7714  0.1979
  565MOL0     C76184   6.504   5.949  -0.346 -0.2734  0.2900 -0.2700
  565MOL0    Cl76185   6.664   6.046  -0.378 -0.3403 -0.4008  0.2806
  565MOL0     C76186   6.811   6.658  -0.174 -0.6000 -0.0380  0.1874
  565MOL0     C76187   6.920   6.736  -0.207 -0.6110 -0.1377  0.3334
  565MOL0     O76188   6.941   7.061  -0.324  0.8649 -0.8146  0.0354
  565MOL0     C76189   7.077   7.284  -0.258 -1.5203  1.8986  0.0717
  565MOL0     C76190   7.156   7.394  -0.262  0.0203 -1.0212  0.5489
  565MOL0     N76191   7.746   7.827  -0.275  0.3171 -0.2823  0.5944
  565MOL0     N76192   7.876   7.803  -0.273 -1.0342  0.1631  0.6908
  565MOL0     C76193   7.755   7.075   0.360  0.4143  0.6174  0.3440
  565MOL0     C76194   7.620   7.050   0.389 -0.2402  0.7974 -0.2780
  565MOL0     C76195   7.180   6.861   0.316  0.1411 -0.7590  0.0391
  565MOL0     C76196   7.113   6.974   0.377 -0.3476  0.4821 -0.5465
  565MOL0     C76197   6.977   6.957   0.398 -0.1225  0.9466 -0.5169
  565MOL0     C76198   6.907   6.839   0.361 -0.4387 -0.6211 -0.0598
  565MOL0     O76199   6.775   6.851   0.392 -0.3135 -0.2430 -0.7652
  565MOL0     C76200   6.701   6.738   0.440 -0.3019 -0.1586 -0.3036
  565MOL0     C76201   6.592   6.801   0.537  0.2595  0.1415 -0.1064
  565MOL0     C76202   6.490   6.885   0.458 -0.8303  0.2864 -1.4557
  565MOL0     C76203   6.407   6.799   0.370 -0.4585 -0.2319  0.2677
  565MOL0     C76204   6.297   6.883   0.320  0.5368 -0.0852 -0.0649
  565MOL0     C76205   6.208   6.964   0.292 -0.9576 -0.1518 -0.3891
  565MOL0     C76206   6.966   6.728   0.309  0.5114 -0.3045 -0.1602
  565MOL0     C76207   7.108   6.747   0.289  0.1406  0.1655 -0.1742
  565MOL0     H76208   7.529   6.916   0.094  3.1288 -3.0544 -1.1930
  565MOL0     H76209   7.763   6.963   0.030 -1.0973 -3.9357  0.7428
  565MOL0     H76210   8.017   7.244   0.309 -0.8428  0.3265 -0.1428
  565MOL0     H76211   8.042   7.078   0.365  2.7835 -0.2612 -0.7713
  565MOL0     H76212   8.248   7.158   0.285  1.5635 -0.7316 -1.0810
  565MOL0     H76213   8.207   7.029   0.199  1.6133 -0.4065  3.5524
  565MOL0     H76214   8.289   7.183   0.048 -0.1344  1.0911 -0.3130
  565MOL0     H76215   8.114   7.197   0.009 -0.1994 -0.7723  1.0031
  565MOL0     H76216   8.092   7.407   0.121  0.9532 -0.8535  2.3669
  565MOL0     H76217   8.251   7.393   0.200 -3.3560 -2.2360  2.2672
  565MOL0     H76218   8.355   7.437   0.007  0.9434 -0.2098 -2.4532
  565MOL0     H76219   8.209   7.394  -0.103 -2.1911 -2.3354  2.4958
  565MOL0     H76220   8.197   7.647   0.085 -2.5841 -1.0593  0.3895
  565MOL0     H76221   8.295   7.655  -0.069 -0.0192 -1.7219 -1.8203
  565MOL0     H76222   8.114   7.613  -0.202 -4.0742  1.4190 -0.9548
  565MOL0     H76223   8.010   7.552  -0.077  0.9041 -0.4943  0.5703
  565MOL0     H76224   8.115   7.811  -0.171 -0.1294 -0.1443 -1.4589
  565MOL0     H76225   8.076   7.807   0.004  6.0348 -4.0004 -0.3076
  565MOL0     H76226   7.794   7.774   0.047  2.0546  0.6944  0.0947
  565MOL0     H76227   7.566   7.876   0.026 -0.7159  2.9326  0.5772
  565MOL0     H76228   7.553   7.974  -0.118 -1.8647 -0.4684  0.2863
  565MOL0     H76229   7.346   7.823  -0.107  0.3192 -1.0174  2.5639
  565MOL0     H76230   7.448   7.703  -0.062 -1.9678  1.2876  1.1878
  565MOL0     H76231   7.547   7.663  -0.295  0.8520  1.1481 -1.6604
  565MOL0     H76232   7.451   7.813  -0.345  0.0214  1.0216  1.5880
  565MOL0     H76233   7.317   7.617  -0.400  0.8149  0.9119 -0.3254
  565MOL0     H76234   7.248   7.665  -0.254 -1.9142 -4.1943  1.1660
  565MOL0     H76235   7.442   7.277  -0.135 -0.7545  3.6527  1.7221
  565MOL0     H76236   7.336   6.954  -0.208 -0.8038  0.3961  0.7503
  565MOL0     H76237   7.443   7.048  -0.105  0.5778  0.4185 -1.2769
  565MOL0     H76238   7.297   6.974  -0.042  3.0901  0.0121  0.9761
  565MOL0     H76239   6.929   6.952   0.031 -0.4064 -1.3909  2.2953
  565MOL0     H76240   6.728   6.826   0.120  2.0608 -0.4364  1.3883
  565MOL0     H76241   6.477   6.767  -0.010 -0.7145  0.3141 -2.1358
  565MOL0     H76242   6.473   6.666  -0.162 -1.1241 -1.9550  1.1202
  565MOL0     H76243   6.409   6.567   0.105  2.9428 -1.0019 -0.0534
  565MOL0     H76244   6.297   6.619  -0.030  2.0976  0.9799 -2.9026
  565MOL0     H76245   6.299   6.426  -0.149 -0.2879 -1.4108  0.7378
  565MOL0     H76246   6.330   6.371   0.016 -1.2452  2.2436  1.3770
  565MOL0     H76247   6.530   6.389  -0.216  0.3806 -0.0304  0.2491
  565MOL0     H76248   6.582   6.373  -0.036 -1.2139 -0.0004  1.8276
  565MOL0     H76249   6.463   6.177  -0.013 -1.7739  1.1809 -0.7324
  565MOL0     H76250   6.592   6.165  -0.133 -0.7492 -1.0147 -0.5900
  565MOL0     H76251   6.298   6.178  -0.178  0.4470 -1.4641  1.6320
  565MOL0     H76252   6.421   6.200  -0.315  1.9189 -3.0624 -1.4926
  565MOL0     H76253   6.302   5.964  -0.281 -0.4042  0.2355 -0.8365
  565MOL0     H76254   6.422   5.950  -0.153 -1.0305  1.0585  0.3759
  565MOL0     H76255   6.464   5.920  -0.444 -0.2018  1.3976 -0.6361
  565MOL0     H76256   6.533   5.854  -0.298 -1.3515  1.2592  2.4969
  565MOL0     H76257   6.772   6.581  -0.239 -3.4591 -1.2824  3.1080
  565MOL0     H76258   6.986   6.711  -0.290  1.0663  1.4715  1.0943
  565MOL0     H76259   6.977   7.300  -0.298 -2.0446  1.9200  1.3500
  565MOL0     H76260   7.114   7.490  -0.289  2.1090  1.6618  5.4840
  565MOL0     H76261   7.817   7.105   0.444 -0.2401  0.0634  1.0375
  565MOL0     H76262   7.587   7.073   0.490  1.5653 -0.9684  0.7893
  565MOL0     H76263   7.167   7.059   0.418 -2.9165  0.7955  2.5916
  565MOL0     H76264   6.926   7.031   0.459 -0.8031 -2.0708  2.9302
  565MOL0     H76265   6.647   6.688   0.360  0.7253  1.8312 -2.3638
  565MOL0     H76266   6.756   6.661   0.495 -0.6358  1.0991  1.9345
  565MOL0     H76267   6.645   6.859   0.614 -0.7723  0.6613  0.2369
  565MOL0     H76268   6.543   6.715   0.583  0.4301  1.0846  1.9453
  565MOL0     H76269   6.532   6.966   0.397 -0.7606  0.8936 -0.6365
  565MOL0     H76270   6.417   6.933   0.525 -2.1140 -3.3301 -0.0258
  565MOL0     H76271   6.355   6.729   0.437 -0.3057 -2.6825 -2.0240
  565MOL0     H76272   6.461   6.738   0.297 -0.1013 -0.5082  0.7565
  565MOL0     H76273   6.132   7.034   0.264 -1.2330  0.0525  0.8316
  565MOL0     H76274   6.914   6.633   0.298 -2.0142  0.8684  0.9485
  565MOL0     H76275   7.166   6.668   0.245 -0.4921  0.0093 -0.7417
  566MOL0     O76276   7.451   8.965   4.089  0.2860 -0.5419 -0.2827
  566MOL0     C76277   7.453   8.850   4.133  0.1479  0.0441 -0.1438
  566MOL0     O76278   7.432   8.816   4.262 -0.1590  0.3902 -0.3056
  566MOL0     C76279   7.421   8.896   4.371 -0.1060  0.2984 -0.3843
  566MOL0     C76280   7.496   9.015   4.388  0.6088  0.4843  0.4718
  566MOL0     C76281   7.479   9.079   4.508 -0.3270 -0.6573  0.3864
  566MOL0     C76282   7.387   9.043   4.609 -0.2106  0.4464  0.3265
  566MOL0     O76283   7.382   9.128   4.713 -0.0648  0.4056 -0.3162
  566MOL0     C76284   7.269   9.124   4.800 -0.1890 -0.6710 -0.9761
  566MOL0     C76285   7.264   9.246   4.889 -0.4214 -1.1517  0.4709
  566MOL0     C76286   7.213   9.203   5.024 -0.9125 -0.5024 -0.1607
  566MOL0     C76287   7.240   9.304   5.141  0.0938 -0.5198  0.0274
  566MOL0     C76288   7.132   9.303   5.250  0.8764 -0.4701  0.7064
  566MOL0     C76289   7.189   9.359   5.375  0.0695 -0.1805 -0.2202
  566MOL0     C76290   7.097   9.322   5.497 -0.8493  0.0155  0.2607
  566MOL0     C76291   7.053   9.173   5.515  0.0466  0.4474 -0.5123
  566MOL0     N76292   7.173   9.098   5.529 -0.1013 -0.6274 -0.5969
  566MOL0     C76293   7.225   9.080   5.651 -1.0483 -0.1223 -0.0909
  566MOL0     C76294   7.331   8.988   5.632  0.1075  0.8346  1.3433
  566MOL0     C76295   7.430   8.928   5.728 -0.1109  0.2425 -0.4640
  566MOL0     C76296   7.518   8.810   5.680 -0.1255 -0.6826 -0.5457
  566MOL0     C76297   7.642   8.783   5.772 -0.2228  0.2193  0.1010
  566MOL0     C76298   7.747   8.710   5.685 -0.2500  0.2613  0.3949
  566MOL0     O76299   7.690   8.577   5.664 -1.0201 -0.0679 -0.1828
  566MOL0     C76300   7.774   8.484   5.609 -0.1831  0.0206  0.4524
  566MOL0     C76301   7.859   8.520   5.501 -0.8072 -0.5122 -1.1389
  566MOL0     C76302   7.949   8.433   5.439 -1.3944 -0.0844  0.6871
  566MOL0     C76303   8.013   8.496   5.311 -1.0460 -0.0955  0.5627
  566MOL0     C76304   7.974   8.308   5.485  0.9381  0.2502 -0.1569
  566MOL0     C76305   8.070   8.214   5.437  0.7629  0.4204 -0.1383
  566MOL0     O76306   8.053   8.083   5.469 -0.5656 -1.0120  0.3611
  566MOL0     C76307   8.123   7.981   5.398  1.1057 -0.5234  0.0674
  566MOL0     C76308   8.183   7.979   5.269 -0.2245  0.3576 -0.0447
  566MOL0     C76309   8.245   7.855   5.217 -0.7693 -0.4780 -1.4086
  566MOL0     C76310   8.242   7.740   5.281  0.1084 -0.3410 -0.0520
  566MOL0     O76311   8.305   7.636   5.218  0.7790  0.3005  0.3769
  566MOL0     C76312   8.277   7.505   5.274 -0.1919  0.4715  1.0845
  566MOL0     C76313   8.348   7.399   5.198  0.0856 -0.0464  0.2424
  566MOL0     C76314   8.502   7.416   5.196 -0.0142  0.1201 -0.0427
  566MOL0     C76315   8.566   7.305   5.111 -0.4669 -0.2216  0.9535
  566MOL0     C76316   8.717   7.306   5.133 -1.1286  0.3952 -0.8278
  566MOL0     C76317   8.768   7.241   5.259 -0.6312 -0.8738  0.1841
  566MOL0     C76318   8.785   7.089   5.253 -0.1721  0.1105  0.6754
  566MOL0     C76319   8.831   7.041   5.385 -0.6955  0.2634  0.5870
  566MOL0    Cl76320   8.701   7.004   5.501 -0.1473  0.0882 -0.5521
  566MOL0     C76321   8.185   7.742   5.415  0.7067  0.4798 -0.8361
  566MOL0     C76322   8.116   7.857   5.469  0.1109 -0.0260  0.7135
  566MOL0     O76323   8.165   8.260   5.380 -0.8949 -0.0145  0.3000
  566MOL0     C76324   7.889   8.264   5.603  0.9635 -0.1234  0.6388
  566MOL0     C76325   7.794   8.352   5.659  0.4064  0.5237 -0.2102
  566MOL0     N76326   7.330   8.956   5.497  0.5574  0.4443 -0.1255
  566MOL0     N76327   7.230   9.012   5.432 -0.6537 -0.9703 -1.3987
  566MOL0     C76328   7.316   8.930   4.590  0.2289 -0.5998  0.1799
  566MOL0     C76329   7.347   8.852   4.474  0.4224 -0.2266 -0.2527
  566MOL0     C76330   7.514   8.747   4.048  0.8354 -0.5880  0.6956
  566MOL0     C76331   7.508   8.763   3.903  0.1404 -0.5091 -0.6413
  566MOL0     C76332   7.540   8.660   3.823  0.3370  0.3579  0.2020
  566MOL0     C76333   7.569   8.525   3.876 -0.6477 -1.3244  0.2701
  566MOL0     O76334   7.590   8.413   3.795  0.2400 -0.0302  0.1281
  566MOL0     C76335   7.541   8.427   3.657 -0.1416 -0.2780  0.7593
  566MOL0     C76336   7.558   8.281   3.602  1.0925 -0.7906 -0.5082
  566MOL0     C76337   7.697   8.251   3.549  1.6838  0.2248 -0.4413
  566MOL0     C76338   7.743   8.103   3.570  0.5698  0.0994 -0.2849
  566MOL0     C76339   7.762   8.075   3.717 -0.8848  0.3450  0.5613
  566MOL0     C76340   7.775   8.032   3.825 -0.2628 -0.9338 -0.0873
  566MOL0     C76341   7.568   8.515   4.015  0.4569  0.5159 -0.0534
  566MOL0     C76342   7.545   8.621   4.107  0.0823  0.3467  0.7837
  566MOL0     H76343   7.559   9.053   4.310 -1.0005  0.9214 -0.6672
  566MOL0     H76344   7.532   9.171   4.529 -1.0246 -0.1253 -0.1359
  566MOL0     H76345   7.178   9.116   4.739 -0.1206 -0.1337 -1.1451
  566MOL0     H76346   7.261   9.033   4.861  3.0087 -0.2781  0.1941
  566MOL0     H76347   7.361   9.293   4.910 -1.9952  4.2625 -2.5289
  566MOL0     H76348   7.201   9.323   4.842  1.2187 -0.3269 -0.4912
  566MOL0     H76349   7.104   9.187   5.025 -1.1980  1.0013  2.2991
  566MOL0     H76350   7.267   9.115   5.061  0.2022  0.6709  1.1052
  566MOL0     H76351   7.340   9.291   5.182  0.4029  3.1148  0.7662
  566MOL0     H76352   7.244   9.406   5.101  3.3914  0.6638  2.9442
  566MOL0     H76353   7.049   9.370   5.225  2.6207  0.8858 -1.8518
  566MOL0     H76354   7.104   9.200   5.272  1.5229 -1.3072 -2.0191
  566MOL0     H76355   7.280   9.302   5.396 -0.9423 -2.1616 -1.0385
  566MOL0     H76356   7.211   9.466   5.362  2.9109 -1.0250 -4.1494
  566MOL0     H76357   7.135   9.367   5.589 -1.5240 -0.1700  0.6398
  566MOL0     H76358   7.006   9.381   5.481  0.8400  1.8630 -4.5995
  566MOL0     H76359   6.993   9.145   5.429  0.1394  1.2786 -0.8583
  566MOL0     H76360   6.992   9.159   5.605  0.9973 -1.6950 -0.1513
  566MOL0     H76361   7.203   9.134   5.743  0.8425  0.4598  0.0782
  566MOL0     H76362   7.499   9.010   5.747 -0.3141  0.4361 -0.5621
  566MOL0     H76363   7.382   8.901   5.823  1.1213  0.0513  0.1296
  566MOL0     H76364   7.550   8.851   5.583  0.4944  0.8649  0.2919
  566MOL0     H76365   7.461   8.717   5.684  0.9924 -1.5338 -2.7164
  566MOL0     H76366   7.614   8.717   5.854  0.3018 -0.0068  0.1019
  566MOL0     H76367   7.691   8.872   5.813 -2.5567  0.6834  2.1542
  566MOL0     H76368   7.843   8.728   5.734  1.0624  2.2287 -2.6269
  566MOL0     H76369   7.752   8.770   5.594  2.4650  2.1753  1.6824
  566MOL0     H76370   7.853   8.620   5.459 -0.5447  0.6699  1.4503
  566MOL0     H76371   8.050   8.421   5.240  1.5491  1.8088 -0.2472
  566MOL0     H76372   7.949   8.557   5.247  1.9311  1.5905 -1.0803
  566MOL0     H76373   8.102   8.555   5.336  0.7475 -1.1072 -2.7846
  566MOL0     H76374   8.186   8.071   5.213  2.3875  0.3702 -0.0103
  566MOL0     H76375   8.280   7.867   5.115  0.2328 -1.2891 -1.1821
  566MOL0     H76376   8.311   7.494   5.378 -0.3885 -0.9547  1.0223
  566MOL0     H76377   8.169   7.492   5.267 -0.2640  1.7489 -1.8664
  566MOL0     H76378   8.333   7.305   5.251 -0.6483  0.7809  1.5560
  566MOL0     H76379   8.302   7.388   5.099 -1.5378 -5.1578  1.3054
  566MOL0     H76380   8.549   7.422   5.295 -1.9003 -3.6023  1.2943
  566MOL0     H76381   8.532   7.508   5.145  0.8459  0.4677  1.0497
  566MOL0     H76382   8.517   7.213   5.141  1.7108 -1.1837  1.7504
  566MOL0     H76383   8.539   7.331   5.008 -2.3773  0.1756  1.5123
  566MOL0     H76384   8.756   7.408   5.139  1.3325 -0.4213 -1.4679
  566MOL0     H76385   8.763   7.259   5.046 -0.5562  1.6028 -1.2067
  566MOL0     H76386   8.870   7.279   5.266 -1.0512  0.9135 -2.2228
  566MOL0     H76387   8.710   7.268   5.348 -2.0760 -0.5384 -0.8337
  566MOL0     H76388   8.837   7.051   5.166  0.4511  3.1422 -0.3870
  566MOL0     H76389   8.687   7.043   5.239 -0.5374  0.7582  1.0165
  566MOL0     H76390   8.908   7.104   5.432  0.3826 -1.1395  0.7480
  566MOL0     H76391   8.885   6.949   5.363  0.2806  0.2199  2.8480
  566MOL0     H76392   8.195   7.652   5.475  0.5699  2.4650  2.3589
  566MOL0     H76393   8.051   7.853   5.556 -1.7794  0.2605 -0.6239
  566MOL0     H76394   7.907   8.173   5.659  1.6657  0.2325  1.0095
  566MOL0     H76395   7.731   8.323   5.743  0.0833  2.0553  0.1091
  566MOL0     H76396   7.248   8.888   4.663 -2.2595  3.3209  0.3954
  566MOL0     H76397   7.301   8.756   4.453 -3.3369  1.4083 -0.4269
  566MOL0     H76398   7.464   8.852   3.859  0.8800  0.2933  0.1902
  566MOL0     H76399   7.540   8.686   3.717 -2.2784  0.5624  0.1924
  566MOL0     H76400   7.439   8.465   3.648 -0.1346  0.0076  1.7604
  566MOL0     H76401   7.606   8.491   3.596  1.0770 -2.4758 -0.4038
  566MOL0     H76402   7.477   8.271   3.529  0.3035 -0.6615  0.3318
  566MOL0     H76403   7.536   8.207   3.680 -3.9733  0.7045 -0.1157
  566MOL0     H76404   7.773   8.327   3.567  0.2044  1.3952  1.2814
  566MOL0     H76405   7.688   8.250   3.440  0.0708  0.2945 -0.3329
  566MOL0     H76406   7.837   8.087   3.516 -0.3071  3.9439 -3.4685
  566MOL0     H76407   7.670   8.030   3.532  1.1045 -0.9399  0.6316
  566MOL0     H76408   7.801   7.979   3.915  2.0474 -2.1421 -1.3873
  566MOL0     H76409   7.591   8.416   4.052  1.8276  1.7910  2.9054
  566MOL0     H76410   7.535   8.600   4.213  1.0151  0.7040  0.9520
  567MOL0     O76411   4.366   1.986   3.499  0.1444 -0.1323 -0.2324
  567MOL0     C76412   4.250   1.945   3.499 -1.1186  0.5059  0.3831
  567MOL0     O76413   4.145   2.020   3.483 -0.7579 -0.2165  0.8926
  567MOL0     C76414   4.160   2.158   3.471 -0.6823  0.4083  0.2527
  567MOL0     C76415   4.187   2.234   3.586 -1.0488  0.6916  0.1446
  567MOL0     C76416   4.200   2.373   3.570 -0.4761  1.4388 -0.4514
  567MOL0     C76417   4.198   2.432   3.446  0.1513 -0.1933 -0.4240
  567MOL0     O76418   4.216   2.568   3.430 -0.9954 -0.7548  0.4021
  567MOL0     C76419   4.198   2.639   3.550  1.3489  0.0828 -1.2519
  567MOL0     C76420   4.195   2.793   3.525  0.3940 -0.7789 -0.3998
  567MOL0     C76421   4.093   2.824   3.411  0.4668 -0.2524  0.0327
  567MOL0     C76422   4.040   2.965   3.423  1.4363 -0.1269 -0.0362
  567MOL0     C76423   3.959   3.001   3.289 -0.3399  0.3354 -0.8424
  567MOL0     C76424   3.871   3.125   3.310 -0.2798  0.3415  0.3463
  567MOL0     C76425   3.772   3.139   3.191  0.2757 -0.7327 -0.4125
  567MOL0     C76426   3.843   3.191   3.061  0.1905  0.4900  0.5946
  567MOL0     N76427   3.741   3.214   2.955  0.2876  0.2746 -0.3794
  567MOL0     C76428   3.691   3.340   2.932  0.4957  0.3533 -0.2670
  567MOL0     C76429   3.621   3.329   2.815  0.0587  0.7943 -0.2723
  567MOL0     C76430   3.553   3.441   2.738 -1.2042  0.5936 -0.7519
  567MOL0     C76431   3.591   3.426   2.588 -0.2340 -0.8504 -1.5827
  567MOL0     C76432   3.586   3.553   2.507  0.2410  0.4211  0.3016
  567MOL0     C76433   3.442   3.591   2.480  0.2766 -0.4118  0.2527
  567MOL0     O76434   3.437   3.704   2.388 -0.3918 -0.2552 -0.2668
  567MOL0     C76435   3.372   3.672   2.262 -0.5393 -0.3364  0.4164
  567MOL0     C76436   3.448   3.656   2.146  0.0138  0.5786  0.3460
  567MOL0     C76437   3.384   3.654   2.025  0.2319  0.0016  0.7371
  567MOL0     C76438   3.463   3.602   1.909 -0.0850 -0.5269 -0.0643
  567MOL0     C76439   3.239   3.674   2.015 -0.6869  0.5889 -0.4984
  567MOL0     C76440   3.174   3.669   1.881 -0.9553  0.7329 -0.0437
  567MOL0     O76441   3.047   3.631   1.875  0.7038  0.9874 -0.7951
  567MOL0     C76442   2.978   3.651   1.759 -0.5448  0.2151 -0.5961
  567MOL0     C76443   3.010   3.586   1.643  0.6433 -0.0021 -0.0849
  567MOL0     C76444   2.939   3.614   1.519  0.2569 -0.1365 -0.4211
  567MOL0     C76445   2.840   3.712   1.517  0.1979  0.7015 -0.5218
  567MOL0     O76446   2.785   3.773   1.402  0.6528  0.1252  0.7843
  567MOL0     C76447   2.833   3.730   1.271  0.2338 -1.1922 -1.2344
  567MOL0     C76448   2.751   3.799   1.158  0.4571  0.6696 -0.3271
  567MOL0     C76449   2.757   3.952   1.148  0.1006 -0.2947 -0.4800
  567MOL0     C76450   2.700   4.004   1.017 -0.9257 -0.6596 -0.1562
  567MOL0     C76451   2.766   4.131   0.959  0.4262 -0.6649 -0.0584
  567MOL0     C76452   2.758   4.252   1.059 -0.6365  0.1129  0.1048
  567MOL0     C76453   2.821   4.385   1.020  0.4587  0.4048  0.2154
  567MOL0     C76454   2.978   4.391   1.015 -0.7582  0.5551  0.3951
  567MOL0    Cl76455   3.051   4.314   0.865  0.4699  0.2752 -0.0194
  567MOL0     C76456   2.806   3.773   1.630 -0.6967 -0.3763 -0.2072
  567MOL0     C76457   2.868   3.745   1.757 -0.4078 -1.0227  0.1212
  567MOL0     O76458   3.236   3.718   1.788 -0.0702  0.1218  0.0811
  567MOL0     C76459   3.164   3.682   2.136 -1.1490  0.1838  0.6132
  567MOL0     C76460   3.231   3.677   2.255 -0.1085  1.1559  0.2875
  567MOL0     N76461   3.618   3.192   2.775  0.0704 -0.6365  0.0507
  567MOL0     N76462   3.688   3.128   2.863  0.4503 -0.1791  0.2167
  567MOL0     C76463   4.176   2.359   3.331 -0.3138 -0.6098  0.3695
  567MOL0     C76464   4.159   2.222   3.347 -0.6013 -0.7666  0.4735
  567MOL0     C76465   4.227   1.805   3.532 -0.6120 -0.6299 -0.7270
  567MOL0     C76466   4.145   1.777   3.642  0.1632 -0.4361 -0.6773
  567MOL0     C76467   4.107   1.651   3.669 -0.7683  0.5498  0.2325
  567MOL0     C76468   4.168   1.542   3.593 -0.1584 -0.4174 -0.8215
  567MOL0     O76469   4.148   1.412   3.637 -0.1187  0.1008  0.0529
  567MOL0     C76470   4.259   1.365   3.718  0.1136  0.6292 -0.7091
  567MOL0     C76471   4.254   1.213   3.737  0.3137 -0.0701  0.3473
  567MOL0     C76472   4.244   1.125   3.610 -0.0154 -0.3028 -0.7817
  567MOL0     C76473   4.358   1.169   3.521  0.1126  0.3719 -0.5246
  567MOL0     C76474   4.377   1.056   3.421 -0.2787  0.5406 -0.3880
  567MOL0     C76475   4.420   0.975   3.343 -0.6154  0.5608  0.2371
  567MOL0     C76476   4.262   1.571   3.500  0.5225  0.0286  0.6306
  567MOL0     C76477   4.275   1.701   3.453 -0.2455  0.0755 -0.1933
  567MOL0     H76478   4.216   2.196   3.684  0.8133 -1.3730 -1.0959
  567MOL0     H76479   4.220   2.419   3.666  1.5453  1.0329 -0.6318
  567MOL0     H76480   4.095   2.621   3.581  2.1821 -0.7451  1.2822
  567MOL0     H76481   4.265   2.601   3.628 -0.6949 -3.5262 -1.0313
  567MOL0     H76482   4.179   2.837   3.624  0.0898 -0.8289 -0.4264
  567MOL0     H76483   4.281   2.843   3.480 -0.4381  1.7516  0.6334
  567MOL0     H76484   4.144   2.815   3.314  0.0912 -2.1863 -0.0366
  567MOL0     H76485   4.009   2.754   3.416 -1.3029  1.6839 -1.2604
  567MOL0     H76486   3.968   2.966   3.506 -0.1552  0.7526 -1.3603
  567MOL0     H76487   4.128   3.026   3.443  0.9057  0.0918  1.8135
  567MOL0     H76488   4.041   3.025   3.222 -0.8879  0.4544 -1.4790
  567MOL0     H76489   3.903   2.912   3.259 -0.8068  0.1297  0.5525
  567MOL0     H76490   3.814   3.121   3.403 -1.2753 -1.1639 -0.3099
  567MOL0     H76491   3.922   3.221   3.328  1.6102 -0.7681  1.2912
  567MOL0     H76492   3.728   3.040   3.173 -0.7615 -0.6771  1.5085
  567MOL0     H76493   3.692   3.208   3.218  1.8313  0.1240  2.3628
  567MOL0     H76494   3.911   3.110   3.035  1.9945  2.1872 -0.2869
  567MOL0     H76495   3.898   3.284   3.080 -0.2329  1.1471 -1.2100
  567MOL0     H76496   3.717   3.435   2.977  3.6717 -1.0938  1.2694
  567MOL0     H76497   3.447   3.438   2.761 -1.2386 -3.3047 -0.7232
  567MOL0     H76498   3.607   3.529   2.775  1.3656 -1.3411  0.4103
  567MOL0     H76499   3.538   3.345   2.538 -0.1642 -1.3737 -0.8215
  567MOL0     H76500   3.698   3.401   2.583  0.5463  0.2145  3.6491
  567MOL0     H76501   3.623   3.526   2.408  1.5188 -0.4158  0.9679
  567MOL0     H76502   3.642   3.639   2.545  2.2226  0.5869 -2.6867
  567MOL0     H76503   3.386   3.592   2.574  2.6532  0.8573  1.7690
  567MOL0     H76504   3.394   3.508   2.428  0.5254 -0.0259 -0.6065
  567MOL0     H76505   3.557   3.656   2.144  0.0594  2.9488 -0.9724
  567MOL0     H76506   3.410   3.535   1.840  1.0439 -1.0657 -0.4416
  567MOL0     H76507   3.485   3.697   1.860 -3.0242  1.0669  1.4454
  567MOL0     H76508   3.561   3.559   1.932 -0.3574 -0.2473  1.7406
  567MOL0     H76509   3.087   3.510   1.649 -0.2573 -0.8008  3.4185
  567MOL0     H76510   2.969   3.571   1.424 -0.8041 -2.9329  0.4043
  567MOL0     H76511   2.936   3.755   1.242 -0.3791  1.1400 -1.6247
  567MOL0     H76512   2.831   3.622   1.255  2.5225 -2.0406  2.7863
  567MOL0     H76513   2.791   3.757   1.065 -0.0312  1.0638 -0.7164
  567MOL0     H76514   2.648   3.765   1.168  0.3458  0.2844 -2.4186
  567MOL0     H76515   2.862   3.981   1.161  0.4534 -2.2175  1.4232
  567MOL0     H76516   2.691   3.994   1.225  2.9682  0.8399  1.5474
  567MOL0     H76517   2.705   3.922   0.944 -0.7328 -1.1575  0.4040
  567MOL0     H76518   2.594   4.019   1.038 -1.2733 -2.9134  0.0080
  567MOL0     H76519   2.717   4.150   0.863  0.0647 -1.4356 -0.0319
  567MOL0     H76520   2.874   4.118   0.946  0.6000  2.5069 -3.7805
  567MOL0     H76521   2.655   4.272   1.091 -1.1683  0.7387 -1.8584
  567MOL0     H76522   2.805   4.215   1.151 -2.3191  0.8551  1.3320
  567MOL0     H76523   2.776   4.449   1.097  1.2339  1.4410 -0.1763
  567MOL0     H76524   2.780   4.426   0.927 -2.5497 -0.8587  0.8645
  567MOL0     H76525   3.019   4.344   1.105 -2.8348  1.4993  1.9352
  567MOL0     H76526   3.007   4.496   1.004 -1.9597  0.7110 -1.7020
  567MOL0     H76527   2.727   3.847   1.637 -0.4176 -0.0054 -0.8564
  567MOL0     H76528   2.849   3.793   1.852  0.3918  1.9309 -1.0788
  567MOL0     H76529   3.057   3.693   2.119 -0.8014  0.0252 -2.1048
  567MOL0     H76530   3.170   3.692   2.343 -3.3581 -0.3663 -1.4826
  567MOL0     H76531   4.175   2.412   3.237  0.5410 -2.3412 -0.6588
  567MOL0     H76532   4.151   2.170   3.252  2.1156  2.9187 -2.0564
  567MOL0     H76533   4.103   1.855   3.706 -0.7032 -2.6130  1.5574
  567MOL0     H76534   4.041   1.624   3.751  1.5478 -2.9558  1.1572
  567MOL0     H76535   4.354   1.404   3.680  0.4937 -2.0067 -2.8162
  567MOL0     H76536   4.237   1.414   3.813 -0.4255  1.9689 -1.5028
  567MOL0     H76537   4.173   1.182   3.804 -0.7708 -1.3344 -1.4779
  567MOL0     H76538   4.351   1.185   3.780 -0.4383 -1.1124  1.4414
  567MOL0     H76539   4.148   1.141   3.560  0.8290  1.4043 -1.9532
  567MOL0     H76540   4.264   1.019   3.632 -0.9468 -0.4853 -0.7753
  567MOL0     H76541   4.453   1.179   3.573 -0.6928 -0.9616  1.3452
  567MOL0     H76542   4.330   1.258   3.462  3.4057  0.4596 -2.1575
  567MOL0     H76543   4.447   0.908   3.264  1.2578  1.3726  0.1263
  567MOL0     H76544   4.308   1.484   3.455  1.6555  0.0730  1.6661
  567MOL0     H76545   4.334   1.713   3.362 -0.9016  1.5272 -0.4660
  568MOL0     O76546   3.410   7.776  10.704  0.7848 -0.1081  0.0392
  568MOL0     C76547   3.507   7.793  10.778  1.8542  0.4305 -0.2523
  568MOL0     O76548   3.512   7.876  10.892 -0.3382  0.1864 -0.6344
  568MOL0     C76549   3.421   7.976  10.892  0.1844  0.0576 -0.2526
  568MOL0     C76550   3.407   8.076  10.788  0.3055 -0.1848 -0.3138
  568MOL0     C76551   3.319   8.181  10.817 -0.2236  0.7683 -0.0775
  568MOL0     C76552   3.239   8.181  10.934  0.0593  0.2395  0.7378
  568MOL0     O76553   3.148   8.286  10.952 -1.4971  1.5361  0.4103
  568MOL0     C76554   3.157   8.410  10.877  0.4173 -0.5893  0.3672
  568MOL0     C76555   3.103   8.525  10.972  0.2894 -0.5763  0.6204
  568MOL0     C76556   3.106   8.652  10.902 -0.5627  0.4016 -0.0801
  568MOL0     C76557   3.023   8.747  10.976  0.2935 -0.5104  0.4953
  568MOL0     C76558   3.030   8.893  10.925 -0.1529  0.1724 -0.2201
  568MOL0     C76559   2.975   8.996  11.022 -0.3149  0.4833  0.1387
  568MOL0     C76560   2.830   8.973  11.045  0.4650 -0.4224  0.7401
  568MOL0     C76561   2.783   9.096  11.135 -0.7382  0.1253 -0.7386
  568MOL0     N76562   2.647   9.062  11.174  0.9224  0.0061  0.5200
  568MOL0     C76563   2.539   9.140  11.121 -1.2740 -0.1756  0.0038
  568MOL0     C76564   2.437   9.079  11.175 -0.4565 -0.5682 -0.7999
  568MOL0     C76565   2.290   9.122  11.174 -0.0831  0.2466  0.3950
  568MOL0     C76566   2.268   9.271  11.215  0.8860 -0.3559  0.9534
  568MOL0     C76567   2.258   9.364  11.081  0.3693  0.8390  0.6907
  568MOL0     C76568   2.108   9.384  11.043 -0.7246 -0.0775  1.0157
  568MOL0     O76569   2.043   9.474  11.124 -0.4697  0.2366 -0.2893
  568MOL0     C76570   1.907   9.476  11.128 -0.3220  0.0016 -0.2093
  568MOL0     C76571   1.824   9.366  11.129 -0.6319  0.7925 -0.6867
  568MOL0     C76572   1.681   9.375  11.121 -0.0222  0.6932 -0.2600
  568MOL0     C76573   1.599   9.245  11.113 -0.5823 -0.3483 -0.1101
  568MOL0     C76574   1.630   9.504  11.115  0.1156  0.7176 -0.2839
  568MOL0     C76575   1.486   9.532  11.105 -0.3629 -0.7654 -1.4596
  568MOL0     O76576   1.434   9.524  10.979 -0.1854  0.4416  0.2182
  568MOL0     C76577   1.297   9.510  10.967  0.2614  0.3122  0.0276
  568MOL0     C76578   1.238   9.401  11.026  0.3871 -0.1701 -0.0689
  568MOL0     C76579   1.100   9.389  11.033 -0.1650 -1.5394  1.2500
  568MOL0     C76580   1.019   9.477  10.963 -0.4007 -0.1364 -0.2981
  568MOL0     O76581   0.885   9.453  10.950 -0.1582  0.1891  0.2790
  568MOL0     C76582   0.812   9.505  10.830 -0.4187 -0.5564 -0.4741
  568MOL0     C76583   0.691   9.415  10.794 -0.0259  0.4721  0.3095
  568MOL0     C76584   0.611   9.474  10.677  0.2166  0.0066  0.1711
  568MOL0     C76585   0.463   9.408  10.685 -0.6777  0.0969 -0.0229
  568MOL0     C76586   0.360   9.442  10.570 -0.2194 -0.7200 -0.3565
  568MOL0     C76587   0.221   9.383  10.600 -0.0355 -0.4524 -0.0124
  568MOL0     C76588   0.112   9.392  10.499  0.8949 -0.4408  0.3910
  568MOL0     C76589  -0.025   9.385  10.572 -0.2260 -0.4042 -0.8529
  568MOL0    Cl76590  -0.040   9.220  10.650  0.2751  0.3571 -0.6204
  568MOL0     C76591   1.076   9.580  10.897  0.2779 -0.5064 -0.5365
  568MOL0     C76592   1.211   9.601  10.901 -0.4561 -0.5512 -1.0171
  568MOL0     O76593   1.423   9.548  11.208  0.1691 -0.8851  0.3685
  568MOL0     C76594   1.711   9.619  11.133 -0.8748 -0.3352  0.2392
  568MOL0     C76595   1.853   9.603  11.130 -0.2212  0.6151 -0.4847
  568MOL0     N76596   2.466   8.967  11.246 -0.5556 -0.8400 -0.6078
  568MOL0     N76597   2.591   8.966  11.250  0.1409 -0.4701 -1.5789
  568MOL0     C76598   3.247   8.083  11.027 -0.1781  0.2730  0.0053
  568MOL0     C76599   3.346   7.979  11.005 -1.0838  0.4196  0.4610
  568MOL0     C76600   3.627   7.708  10.745  0.3230 -0.0368  0.4230
  568MOL0     C76601   3.634   7.623  10.632 -0.5929 -0.6243  0.8890
  568MOL0     C76602   3.745   7.538  10.615  0.3901 -0.8071  0.7562
  568MOL0     C76603   3.844   7.532  10.718  0.0725  0.1649  0.0669
  568MOL0     O76604   3.955   7.451  10.703 -0.7542  0.4699  0.0501
  568MOL0     C76605   3.999   7.410  10.571  0.1171  0.9038 -0.1302
  568MOL0     C76606   4.026   7.520  10.476  0.0223  0.0127 -0.1208
  568MOL0     C76607   4.088   7.458  10.351  1.1460 -0.4958 -0.2784
  568MOL0     C76608   4.237   7.426  10.362 -1.0552  0.4683 -0.1657
  568MOL0     C76609   4.307   7.397  10.233 -0.7656  0.0351 -0.1167
  568MOL0     C76610   4.381   7.370  10.144 -1.3146 -0.5947  0.0404
  568MOL0     C76611   3.842   7.616  10.827  0.6186  0.2998 -0.7176
  568MOL0     C76612   3.730   7.694  10.848  0.4823  0.9167  0.2794
  568MOL0     H76613   3.453   8.072  10.690  1.1418  0.5758  0.0360
  568MOL0     H76614   3.305   8.251  10.735  2.0186  2.3010  0.7261
  568MOL0     H76615   3.257   8.438  10.842 -0.4693  1.7835 -0.4707
  568MOL0     H76616   3.087   8.397  10.794  0.8289 -1.3006  0.1202
  568MOL0     H76617   3.000   8.497  10.994 -0.1521  0.3275 -0.2607
  568MOL0     H76618   3.170   8.538  11.058 -0.8500  2.7372  1.1664
  568MOL0     H76619   3.209   8.683  10.885 -0.4477  1.0690  1.6804
  568MOL0     H76620   3.058   8.632  10.805  1.2628 -1.1909 -0.7203
  568MOL0     H76621   2.918   8.719  10.981 -0.5228  1.9395 -1.2375
  568MOL0     H76622   3.054   8.746  11.081  2.3936 -0.2588 -0.0820
  568MOL0     H76623   3.136   8.917  10.911  0.1275 -0.5832  0.5605
  568MOL0     H76624   2.982   8.896  10.826  2.1331 -2.7340 -1.5618
  568MOL0     H76625   3.033   8.988  11.114  2.7862 -0.2532 -1.7151
  568MOL0     H76626   2.988   9.096  10.979  2.1480 -0.1975 -0.8889
  568MOL0     H76627   2.774   8.984  10.951  0.6147  3.4298  0.9232
  568MOL0     H76628   2.810   8.881  11.100 -1.3638  0.2659  1.2982
  568MOL0     H76629   2.799   9.194  11.088 -1.3373  0.8864  0.5873
  568MOL0     H76630   2.848   9.090  11.222  0.8710  0.7912 -1.8324
  568MOL0     H76631   2.542   9.222  11.050 -0.9885  0.8498  1.1600
  568MOL0     H76632   2.258   9.110  11.070  1.0655 -0.1358  0.0663
  568MOL0     H76633   2.228   9.054  11.233  0.2308  0.1664  0.6369
  568MOL0     H76634   2.353   9.301  11.278 -0.5246  1.6911  1.9987
  568MOL0     H76635   2.178   9.296  11.272 -1.1889 -0.5655 -2.0112
  568MOL0     H76636   2.306   9.304  11.003  2.6130  2.0543  1.0361
  568MOL0     H76637   2.302   9.465  11.083 -0.1560  1.0957  3.6063
  568MOL0     H76638   2.048   9.293  11.037 -2.6180  1.1668 -0.5398
  568MOL0     H76639   2.107   9.414  10.938  1.0396  0.7144  1.1929
  568MOL0     H76640   1.863   9.264  11.127 -0.7503  0.7425 -0.3777
  568MOL0     H76641   1.541   9.252  11.021  0.7159  2.9615 -0.8302
  568MOL0     H76642   1.668   9.160  11.111  0.4780  0.3650 -4.1572
  568MOL0     H76643   1.532   9.234  11.198 -1.0776 -0.9768 -0.5763
  568MOL0     H76644   1.299   9.333  11.085 -1.2009 -2.9076 -1.3706
  568MOL0     H76645   1.052   9.304  11.081 -1.2823 -3.8119 -3.2869
  568MOL0     H76646   0.776   9.608  10.843 -3.0703 -0.6952 -4.6980
  568MOL0     H76647   0.866   9.519  10.736 -3.2373  3.2701 -1.8275
  568MOL0     H76648   0.725   9.320  10.752  0.2720  0.3989  0.7174
  568MOL0     H76649   0.643   9.402  10.892  1.0265 -3.5087  0.4738
  568MOL0     H76650   0.661   9.435  10.587  2.8046  0.3248  1.3752
  568MOL0     H76651   0.603   9.582  10.669 -1.5114 -0.2029 -2.5036
  568MOL0     H76652   0.484   9.303  10.665  1.7463  1.0566 -3.1633
  568MOL0     H76653   0.407   9.426  10.778 -0.8616  2.0076 -0.4669
  568MOL0     H76654   0.409   9.406  10.479  0.1541 -1.2066  0.0307
  568MOL0     H76655   0.351   9.551  10.561  0.1632 -0.6561  0.0111
  568MOL0     H76656   0.233   9.274  10.601  0.0369 -0.5026 -2.1603
  568MOL0     H76657   0.188   9.426  10.695 -0.4032 -1.9740  0.5937
  568MOL0     H76658   0.106   9.311  10.426 -2.1971 -1.6510  1.7876
  568MOL0     H76659   0.133   9.479  10.436  1.5731 -1.7328 -1.2400
  568MOL0     H76660  -0.107   9.399  10.501 -1.8051  2.8339  1.3566
  568MOL0     H76661  -0.030   9.464  10.648 -3.6061 -1.3416  0.0595
  568MOL0     H76662   1.016   9.648  10.839 -0.0889 -0.4510 -0.0947
  568MOL0     H76663   1.242   9.688  10.843 -1.0131  0.0865 -0.3774
  568MOL0     H76664   1.674   9.719  11.115  0.3066  0.2680  1.0692
  568MOL0     H76665   1.918   9.683  11.162  2.3830 -1.0500 -1.2620
  568MOL0     H76666   3.194   8.082  11.122  0.0699  3.5362  0.2796
  568MOL0     H76667   3.368   7.899  11.075 -1.6752 -0.2978 -0.1479
  568MOL0     H76668   3.561   7.638  10.553 -0.4763  3.5093  1.3146
  568MOL0     H76669   3.747   7.481  10.523  1.7046 -0.6525  0.6637
  568MOL0     H76670   4.085   7.344  10.583 -0.8298 -1.3890 -4.1726
  568MOL0     H76671   3.928   7.337  10.532 -0.0916  0.9310  0.2003
  568MOL0     H76672   4.094   7.593  10.520  1.0356 -0.1870 -1.2962
  568MOL0     H76673   3.939   7.576  10.440  1.2088  2.9016  1.1777
  568MOL0     H76674   4.064   7.522  10.266 -2.3030 -1.5260 -0.2221
  568MOL0     H76675   4.033   7.372  10.313 -0.0676  0.2229 -0.2060
  568MOL0     H76676   4.258   7.339  10.426  0.7310  0.9512 -0.0417
  568MOL0     H76677   4.278   7.514  10.411  0.9545  0.4025 -1.6407
  568MOL0     H76678   4.460   7.352  10.074 -3.2568 -0.9207 -2.1906
  568MOL0     H76679   3.913   7.601  10.908  1.1076 -0.5891 -1.2943
  568MOL0     H76680   3.708   7.748  10.939 -3.1283  0.7240 -0.3108
  569MOL0     O76681   1.828   4.374   4.486  0.4808  0.1413  0.1952
  569MOL0     C76682   1.821   4.404   4.604 -0.6586  0.2057  0.1330
  569MOL0     O76683   1.828   4.316   4.707 -0.2572  0.1990  0.7761
  569MOL0     C76684   1.779   4.196   4.681 -0.0588  0.0363  0.2145
  569MOL0     C76685   1.827   4.086   4.754 -0.1790  0.5877 -0.6810
  569MOL0     C76686   1.767   3.956   4.734 -0.6767 -0.3061 -0.6794
  569MOL0     C76687   1.672   3.931   4.639  0.7608  0.1867  1.3333
  569MOL0     O76688   1.621   3.809   4.619  0.3485  0.3287  0.4405
  569MOL0     C76689   1.484   3.781   4.567 -0.0503 -0.1218 -0.1881
  569MOL0     C76690   1.453   3.631   4.538  0.5860 -0.2409 -0.0967
  569MOL0     C76691   1.313   3.627   4.468 -0.7034  0.3159  0.2335
  569MOL0     C76692   1.251   3.483   4.457  0.4907  0.3155 -0.0928
  569MOL0     C76693   1.142   3.489   4.350  0.2798  0.2185  0.6925
  569MOL0     C76694   1.071   3.354   4.352 -0.0475 -0.2022 -0.9809
  569MOL0     C76695   1.117   3.257   4.250  0.2449 -0.3510 -0.5971
  569MOL0     C76696   1.117   3.112   4.302  0.1205  0.3837  0.3846
  569MOL0     N76697   1.211   3.079   4.408 -0.4325  1.3977 -0.3501
  569MOL0     C76698   1.191   3.053   4.537  0.1000 -0.1170  0.1866
  569MOL0     C76699   1.297   2.973   4.578  0.0441  0.3114 -0.3038
  569MOL0     C76700   1.318   2.894   4.705 -0.4609 -0.6500  0.3682
  569MOL0     C76701   1.356   2.997   4.806 -0.2045 -0.0279  0.2114
  569MOL0     C76702   1.496   2.973   4.851  0.2323 -0.7477  0.3215
  569MOL0     C76703   1.551   3.076   4.942  0.4997 -1.1460  0.5747
  569MOL0     O76704   1.446   3.137   5.025 -0.1613 -0.0292 -1.0666
  569MOL0     C76705   1.490   3.223   5.121 -0.4867 -1.4523  0.1017
  569MOL0     C76706   1.623   3.262   5.157 -0.1398  0.0551  0.6253
  569MOL0     C76707   1.656   3.352   5.265 -0.2909 -0.1197  0.0314
  569MOL0     C76708   1.790   3.411   5.278 -0.5473 -0.3016  0.1298
  569MOL0     C76709   1.549   3.406   5.338  0.9137  0.2947 -0.5531
  569MOL0     C76710   1.573   3.495   5.457 -1.0078  0.8730  0.3042
  569MOL0     O76711   1.700   3.498   5.510  0.8119 -0.7305  0.4085
  569MOL0     C76712   1.731   3.594   5.601  1.1710  0.4988 -0.0858
  569MOL0     C76713   1.849   3.666   5.586 -0.4070  1.0336 -0.4448
  569MOL0     C76714   1.886   3.768   5.684  0.7341  0.2004 -0.4492
  569MOL0     C76715   1.807   3.774   5.804  0.8258  0.3840  0.3818
  569MOL0     O76716   1.844   3.871   5.900  0.3551 -0.0712 -0.3522
  569MOL0     C76717   1.918   3.829   6.018  0.0516 -0.2110  0.0741
  569MOL0     C76718   2.017   3.936   6.076 -0.4516 -0.1006  0.4799
  569MOL0     C76719   2.111   3.873   6.188 -0.3068  0.5311  0.5114
  569MOL0     C76720   2.196   3.985   6.248 -0.9968 -0.5358  0.9603
  569MOL0     C76721   2.310   4.028   6.154 -0.0265 -1.0586 -0.9356
  569MOL0     C76722   2.393   4.156   6.196  0.6219 -0.7387  0.4399
  569MOL0     C76723   2.532   4.197   6.135  0.1164 -0.2241  0.2991
  569MOL0     C76724   2.554   4.152   5.986 -0.7062 -0.5735 -0.3504
  569MOL0    Cl76725   2.646   4.283   5.891 -0.1576  0.0635 -0.4980
  569MOL0     C76726   1.688   3.701   5.817 -0.1673  0.6544 -0.0355
  569MOL0     C76727   1.658   3.608   5.718  0.2879  0.4886  0.5998
  569MOL0     O76728   1.468   3.552   5.482  0.2491  0.8251 -0.3739
  569MOL0     C76729   1.416   3.375   5.305  0.4206 -0.4072 -0.2924
  569MOL0     C76730   1.389   3.285   5.201 -0.3134  0.9129 -0.3136
  569MOL0     N76731   1.388   2.967   4.473 -0.0004  0.1354 -0.0911
  569MOL0     N76732   1.342   3.034   4.374  1.3705  0.5458 -0.0807
  569MOL0     C76733   1.622   4.047   4.574 -0.2871  0.4935  0.6073
  569MOL0     C76734   1.680   4.172   4.580 -0.8923 -0.3958  0.3123
  569MOL0     C76735   1.853   4.541   4.625  0.5189  0.4527 -0.2595
  569MOL0     C76736   1.826   4.651   4.532  0.3352  0.5759 -0.7067
  569MOL0     C76737   1.871   4.781   4.563  0.0826  1.5659  1.4390
  569MOL0     C76738   1.928   4.808   4.691  0.2003  0.5034 -0.4546
  569MOL0     O76739   1.999   4.919   4.715  0.2613 -0.0689 -0.2233
  569MOL0     C76740   2.014   5.018   4.613  0.4386 -0.6238  0.1588
  569MOL0     C76741   2.080   5.150   4.658  0.8140  0.2420  0.1233
  569MOL0     C76742   1.985   5.227   4.755  0.0140  0.1894 -0.1621
  569MOL0     C76743   1.987   5.183   4.898  0.2836  0.5097  0.6185
  569MOL0     C76744   1.974   5.301   4.984  0.8073 -0.1519  1.5278
  569MOL0     C76745   1.949   5.394   5.059 -0.6805 -0.3422  0.4309
  569MOL0     C76746   1.924   4.709   4.786 -0.1870 -0.6812  0.4013
  569MOL0     C76747   1.889   4.584   4.755 -0.5278 -0.2634 -0.2364
  569MOL0     H76748   1.895   4.083   4.839 -2.6170 -1.5971  1.3456
  569MOL0     H76749   1.808   3.877   4.797  0.4865 -0.2211 -1.2952
  569MOL0     H76750   1.404   3.822   4.629  1.5186  4.0452 -0.5653
  569MOL0     H76751   1.481   3.838   4.473  1.6786  0.7829  0.2577
  569MOL0     H76752   1.518   3.596   4.457 -0.7001  0.2017 -1.3647
  569MOL0     H76753   1.439   3.574   4.631 -3.0495 -0.1922 -0.4689
  569MOL0     H76754   1.232   3.689   4.508 -1.8415 -0.8020 -0.2902
  569MOL0     H76755   1.331   3.651   4.363  1.7535  1.5836  0.8511
  569MOL0     H76756   1.333   3.415   4.432  2.6447  2.0878  1.7476
  569MOL0     H76757   1.203   3.457   4.552 -0.4407  1.3127 -0.2645
  569MOL0     H76758   1.071   3.571   4.362 -1.6466 -1.0353 -1.5094
  569MOL0     H76759   1.183   3.498   4.249 -1.1777 -2.2020 -0.1968
  569MOL0     H76760   1.076   3.315   4.454 -2.0871  1.7328 -0.0493
  569MOL0     H76761   0.964   3.377   4.346 -0.3709 -0.9127  1.1053
  569MOL0     H76762   1.049   3.268   4.165  0.1660  1.7422 -0.3195
  569MOL0     H76763   1.220   3.278   4.221 -0.3982  0.1684 -2.6460
  569MOL0     H76764   1.147   3.047   4.220  1.4872  3.1385 -1.4316
  569MOL0     H76765   1.016   3.092   4.340  0.4646 -1.8120  0.2450
  569MOL0     H76766   1.102   3.086   4.589 -0.0385  1.4128 -0.9614
  569MOL0     H76767   1.226   2.838   4.726  0.1920 -1.9744 -0.2130
  569MOL0     H76768   1.395   2.818   4.688 -0.3860 -0.5339  0.1836
  569MOL0     H76769   1.289   2.990   4.892  0.7169  0.4241  0.9972
  569MOL0     H76770   1.349   3.102   4.775 -0.6154  0.1817  0.9737
  569MOL0     H76771   1.561   2.961   4.764 -1.9776 -1.5198 -1.3106
  569MOL0     H76772   1.495   2.878   4.906 -0.0467 -1.7058 -1.2938
  569MOL0     H76773   1.600   3.160   4.892 -1.0554 -1.5784 -1.8566
  569MOL0     H76774   1.617   3.028   5.014  0.1336  1.3022  2.7039
  569MOL0     H76775   1.714   3.217   5.118  0.1554  2.0938 -1.2450
  569MOL0     H76776   1.832   3.381   5.374  1.8773 -0.7968 -1.0040
  569MOL0     H76777   1.864   3.365   5.212 -0.8914 -0.6918  0.0152
  569MOL0     H76778   1.781   3.520   5.277 -3.7700 -0.4306 -2.9783
  569MOL0     H76779   1.906   3.648   5.495  0.7730  0.6768  0.3425
  569MOL0     H76780   1.962   3.844   5.665  0.1483  0.4126 -2.0879
  569MOL0     H76781   1.856   3.805   6.104  2.1927  2.8337  2.6977
  569MOL0     H76782   1.977   3.742   5.987 -2.8601 -2.1138 -0.4949
  569MOL0     H76783   2.072   3.985   5.996 -0.9617  0.9702  0.7682
  569MOL0     H76784   1.959   4.015   6.126 -0.9373 -1.4894  2.2222
  569MOL0     H76785   2.174   3.802   6.135 -0.6024  0.4451  0.2743
  569MOL0     H76786   2.055   3.832   6.273  1.2896 -0.3491  1.1762
  569MOL0     H76787   2.130   4.067   6.277  2.7815  2.8574  0.6855
  569MOL0     H76788   2.244   3.944   6.337 -0.0817 -2.9225 -0.5291
  569MOL0     H76789   2.262   4.056   6.060 -1.6487 -1.2848 -0.2015
  569MOL0     H76790   2.382   3.945   6.148  1.9817  0.6770 -2.4099
  569MOL0     H76791   2.330   4.242   6.170  0.5042 -1.1540 -0.6762
  569MOL0     H76792   2.405   4.169   6.304  2.0152 -2.8348  0.5959
  569MOL0     H76793   2.606   4.142   6.194  0.5212 -1.1779 -1.0553
  569MOL0     H76794   2.544   4.306   6.130 -0.0548 -0.2190 -0.0699
  569MOL0     H76795   2.456   4.155   5.939 -0.7244  4.5190 -0.5421
  569MOL0     H76796   2.594   4.051   5.970  1.5485  0.7022 -4.1657
  569MOL0     H76797   1.619   3.696   5.900  0.7095  1.8455  0.8124
  569MOL0     H76798   1.576   3.538   5.731 -0.7133  0.5763 -3.7680
  569MOL0     H76799   1.334   3.422   5.357  1.9673  4.3733 -1.7229
  569MOL0     H76800   1.284   3.269   5.181 -1.0310  3.0523  1.3154
  569MOL0     H76801   1.548   4.029   4.496  0.2709  0.0993  0.1528
  569MOL0     H76802   1.627   4.244   4.517  0.7076  0.7190  0.1862
  569MOL0     H76803   1.776   4.638   4.436 -0.6394 -1.3125 -0.0019
  569MOL0     H76804   1.857   4.855   4.484  1.1010 -0.4235 -0.7226
  569MOL0     H76805   2.070   4.964   4.537 -1.6532 -2.7795  0.0182
  569MOL0     H76806   1.921   5.062   4.575  0.7015  0.2917  0.5676
  569MOL0     H76807   2.103   5.198   4.562 -0.2965 -1.2131 -0.9009
  569MOL0     H76808   2.176   5.121   4.702 -0.5394 -0.1612  3.0272
  569MOL0     H76809   1.888   5.253   4.711 -0.0588 -0.2397 -0.2626
  569MOL0     H76810   2.044   5.318   4.764  0.7609 -0.4854  3.3290
  569MOL0     H76811   2.081   5.130   4.914 -0.4298 -1.5207 -1.2932
  569MOL0     H76812   1.898   5.126   4.926 -1.2078  1.6239 -1.5093
  569MOL0     H76813   1.921   5.466   5.133  1.4437  1.6273 -0.5653
  569MOL0     H76814   1.950   4.719   4.891 -0.5080 -4.8260  1.0391
  569MOL0     H76815   1.879   4.517   4.840  3.1171 -2.0032 -0.9964
  570MOL0     O76816   1.403   1.295   4.835  0.2518  0.2721  0.5036
  570MOL0     C76817   1.291   1.274   4.785 -0.8250  0.3370  0.6889
  570MOL0     O76818   1.238   1.339   4.672  0.3100  0.3115 -0.6993
  570MOL0     C76819   1.300   1.446   4.614 -0.1607 -0.2103  0.4079
  570MOL0     C76820   1.346   1.544   4.698 -0.8407  0.5458 -0.2900
  570MOL0     C76821   1.382   1.663   4.639 -0.3312 -0.3783 -0.2175
  570MOL0     C76822   1.410   1.672   4.502 -0.5117  0.4276 -0.5292
  570MOL0     O76823   1.466   1.792   4.458 -0.4767 -0.2269  0.3548
  570MOL0     C76824   1.378   1.865   4.370 -0.2601 -0.6237  0.9531
  570MOL0     C76825   1.270   1.940   4.452 -0.1625  0.8148  0.5541
  570MOL0     C76826   1.319   2.056   4.547 -0.2864  0.1200  0.0550
  570MOL0     C76827   1.267   2.029   4.691 -0.3283 -0.0167  1.0128
  570MOL0     C76828   1.122   2.078   4.710 -0.6478 -1.6413 -1.4265
  570MOL0     C76829   1.073   1.995   4.834  0.4701 -0.7981 -0.0035
  570MOL0     C76830   0.964   2.069   4.910  0.4583  0.5067  0.7526
  570MOL0     C76831   0.840   2.080   4.822 -0.5293  0.5984 -0.5005
  570MOL0     N76832   0.724   2.145   4.887 -0.3608 -0.1890 -0.1916
  570MOL0     C76833   0.641   2.101   4.992 -1.4178  0.0754  0.8752
  570MOL0     C76834   0.544   2.198   5.004  1.1168 -0.0777 -1.0202
  570MOL0     C76835   0.419   2.187   5.100 -0.1176 -0.1742 -0.3032
  570MOL0     C76836   0.462   2.160   5.255  0.4998 -0.2219  1.1480
  570MOL0     C76837   0.468   2.015   5.297  0.7618 -0.5515 -0.2842
  570MOL0     C76838   0.479   1.983   5.444 -0.0850  0.1259 -0.5753
  570MOL0     O76839   0.370   2.035   5.522  0.1149 -0.5247 -0.0974
  570MOL0     C76840   0.400   2.068   5.650  0.5105 -0.1546 -0.2205
  570MOL0     C76841   0.468   1.984   5.740 -0.3411  0.6009  0.4687
  570MOL0     C76842   0.485   2.017   5.875  0.3044  0.4738  0.1736
  570MOL0     C76843   0.555   1.898   5.954  0.2076  0.3186  0.9355
  570MOL0     C76844   0.441   2.145   5.922 -0.5775 -0.4098 -0.0527
  570MOL0     C76845   0.441   2.182   6.063 -0.4904  0.7757  0.0376
  570MOL0     O76846   0.554   2.132   6.128  0.5014 -0.5581  0.3886
  570MOL0     C76847   0.554   2.163   6.259  0.0533 -0.5039  1.0900
  570MOL0     C76848   0.670   2.234   6.298 -0.0356 -0.6088 -0.3247
  570MOL0     C76849   0.688   2.282   6.425  0.3578 -0.4787 -0.5848
  570MOL0     C76850   0.591   2.246   6.523 -0.8076 -0.1071  0.9648
  570MOL0     O76851   0.623   2.296   6.646  0.1835 -0.5313 -0.4239
  570MOL0     C76852   0.548   2.232   6.756 -0.5859 -0.1325  0.0024
  570MOL0     C76853   0.624   2.229   6.891  0.5680  0.0152  0.7343
  570MOL0     C76854   0.554   2.147   6.999 -0.3383  0.0040 -0.7294
  570MOL0     C76855   0.415   2.207   7.036  0.2370 -0.2381  0.5519
  570MOL0     C76856   0.350   2.130   7.148  0.3160  0.2473 -0.6514
  570MOL0     C76857   0.200   2.149   7.170  1.0421  0.6775 -0.1532
  570MOL0     C76858   0.151   2.069   7.304 -0.3460  0.1631 -0.1366
  570MOL0     C76859   0.046   2.167   7.366  0.3043  0.3333  0.5052
  570MOL0    Cl76860  -0.011   2.091   7.522  0.3932 -0.0856 -0.0916
  570MOL0     C76861   0.473   2.175   6.488 -0.3203 -0.4734  0.7764
  570MOL0     C76862   0.463   2.132   6.355  0.1375  1.6549  0.8139
  570MOL0     O76863   0.348   2.243   6.111 -0.2331  0.8056 -0.3033
  570MOL0     C76864   0.367   2.220   5.831 -0.1445 -0.1153  0.8953
  570MOL0     C76865   0.349   2.186   5.698  0.4511  0.4114  0.3424
  570MOL0     N76866   0.557   2.294   4.904 -0.6303  0.3863 -0.7909
  570MOL0     N76867   0.667   2.261   4.846  0.1159 -0.2596  0.9934
  570MOL0     C76868   1.378   1.561   4.420 -1.3862 -0.3398  0.3416
  570MOL0     C76869   1.314   1.457   4.480  0.3271 -0.2774 -0.6083
  570MOL0     C76870   1.222   1.143   4.813  1.1903  0.0792 -0.2737
  570MOL0     C76871   1.094   1.114   4.759 -0.1938  0.3596 -0.2231
  570MOL0     C76872   1.033   0.990   4.778  0.4026  0.0029  0.3915
  570MOL0     C76873   1.084   0.900   4.875  0.6623 -0.5998 -0.1407
  570MOL0     O76874   1.001   0.795   4.911 -0.6447  0.4611 -0.2312
  570MOL0     C76875   1.041   0.721   5.026  0.2823  0.7385  0.1769
  570MOL0     C76876   0.938   0.604   5.046 -0.9051  0.4030 -0.0110
  570MOL0     C76877   0.911   0.533   4.914  0.1998 -0.5062 -0.1231
  570MOL0     C76878   0.833   0.407   4.951  0.3733  0.2049  0.2507
  570MOL0     C76879   0.804   0.329   4.832  0.6391  0.2301 -0.2391
  570MOL0     C76880   0.767   0.265   4.734 -0.1859  0.2503 -0.9938
  570MOL0     C76881   1.217   0.936   4.930 -0.2630 -0.5061  0.6036
  570MOL0     C76882   1.277   1.050   4.900 -0.3963  0.5567 -0.2793
  570MOL0     H76883   1.334   1.536   4.806  0.0028  2.8664  0.0254
  570MOL0     H76884   1.412   1.753   4.693 -0.4469 -0.6703  0.3356
  570MOL0     H76885   1.440   1.944   4.327 -0.3154 -0.9419  0.2808
  570MOL0     H76886   1.336   1.797   4.296 -4.3595  2.0174  0.5052
  570MOL0     H76887   1.213   1.991   4.373  0.0933  0.8292  0.3760
  570MOL0     H76888   1.199   1.876   4.504 -0.5418  0.7898  0.0206
  570MOL0     H76889   1.428   2.051   4.540 -0.1008  0.7771  1.9145
  570MOL0     H76890   1.282   2.153   4.513 -2.5203 -0.8222 -0.3694
  570MOL0     H76891   1.278   1.922   4.708  1.4633 -0.1060 -0.4141
  570MOL0     H76892   1.335   2.078   4.761 -0.4832  3.9052 -1.2871
  570MOL0     H76893   1.126   2.187   4.724 -1.3910 -1.8070  0.2833
  570MOL0     H76894   1.066   2.066   4.616 -1.7509  0.6934 -1.1512
  570MOL0     H76895   1.037   1.898   4.798  0.3299 -2.4564  4.0932
  570MOL0     H76896   1.160   1.981   4.899  0.1497  1.3401  0.9699
  570MOL0     H76897   0.944   2.015   5.003 -2.4733  1.1408  0.5801
  570MOL0     H76898   0.995   2.170   4.939  1.2948 -0.7433  4.8234
  570MOL0     H76899   0.815   1.984   4.777  2.3034  0.2481 -1.5646
  570MOL0     H76900   0.868   2.142   4.736  0.2867 -1.1904 -1.5867
  570MOL0     H76901   0.650   2.001   5.034 -0.2017 -1.0197 -1.7950
  570MOL0     H76902   0.367   2.283   5.086 -0.7204 -0.6512 -1.4961
  570MOL0     H76903   0.351   2.105   5.074  0.6394 -1.1765  0.7670
  570MOL0     H76904   0.394   2.210   5.324  1.2867  0.6121  1.3402
  570MOL0     H76905   0.554   2.215   5.279 -0.5535  1.9830  0.4417
  570MOL0     H76906   0.554   1.971   5.245 -0.9793 -1.9066 -2.1750
  570MOL0     H76907   0.374   1.968   5.268  0.8374 -0.2019 -1.1255
  570MOL0     H76908   0.564   2.039   5.483 -0.6839  3.6094 -3.7382
  570MOL0     H76909   0.498   1.878   5.469  1.4835  0.5781  0.2586
  570MOL0     H76910   0.491   1.882   5.709  1.6289  1.6062 -1.6912
  570MOL0     H76911   0.497   1.812   5.920 -3.5702  2.1884  2.0087
  570MOL0     H76912   0.662   1.881   5.944  0.0779  0.5011 -1.0032
  570MOL0     H76913   0.534   1.905   6.062 -0.1688  1.0267  0.8212
  570MOL0     H76914   0.746   2.246   6.222  3.9278  0.0518  3.3741
  570MOL0     H76915   0.770   2.349   6.449 -1.2651  2.5825 -2.9006
  570MOL0     H76916   0.460   2.296   6.763 -0.2643  0.7212 -2.5074
  570MOL0     H76917   0.524   2.127   6.736 -0.5606 -0.3252  0.9212
  570MOL0     H76918   0.718   2.176   6.874  0.6991  0.6038 -0.4681
  570MOL0     H76919   0.641   2.334   6.915 -4.9136  1.4252 -0.1352
  570MOL0     H76920   0.613   2.143   7.092 -0.8939  0.0918 -0.3691
  570MOL0     H76921   0.539   2.044   6.964 -4.6305 -0.2887  1.3266
  570MOL0     H76922   0.429   2.315   7.050  1.2932 -0.3932  0.7606
  570MOL0     H76923   0.349   2.194   6.950  1.5868  3.2581 -1.2133
  570MOL0     H76924   0.407   2.173   7.232  0.8240  1.0087 -1.3619
  570MOL0     H76925   0.360   2.022   7.148 -1.1630  0.0543  1.0375
  570MOL0     H76926   0.173   2.254   7.185 -3.6966 -0.1046 -1.4739
  570MOL0     H76927   0.139   2.094   7.098 -0.4093  0.4848  1.1526
  570MOL0     H76928   0.233   2.057   7.375 -1.7603 -3.4677  1.1455
  570MOL0     H76929   0.109   1.972   7.275  1.0211 -0.2743 -0.7310
  570MOL0     H76930  -0.034   2.199   7.298  1.6839  0.0056 -1.3582
  570MOL0     H76931   0.079   2.266   7.399 -1.2851  0.2716  2.4744
  570MOL0     H76932   0.393   2.148   6.556 -1.0657  0.4441  0.2911
  570MOL0     H76933   0.379   2.070   6.326  0.7420  0.4208  1.5981
  570MOL0     H76934   0.328   2.318   5.856  3.0729  1.4335  0.3856
  570MOL0     H76935   0.293   2.242   5.624 -3.2348 -5.5166 -2.1454
  570MOL0     H76936   1.401   1.571   4.315  1.1312 -1.2076  0.7449
  570MOL0     H76937   1.274   1.377   4.417 -1.0605  0.1425 -0.3089
  570MOL0     H76938   1.037   1.180   4.694 -0.4758 -0.1248 -0.4744
  570MOL0     H76939   0.931   0.971   4.747  0.6399  0.0750 -0.4889
  570MOL0     H76940   1.135   0.667   5.011 -0.4597 -0.3647 -0.6572
  570MOL0     H76941   1.049   0.779   5.119  4.1596 -0.0107  0.4869
  570MOL0     H76942   0.846   0.642   5.091 -0.1760  2.0775  0.1872
  570MOL0     H76943   0.986   0.540   5.120  0.6806 -0.3555 -1.6163
  570MOL0     H76944   1.005   0.524   4.859  1.4003  1.2787  1.5216
  570MOL0     H76945   0.843   0.592   4.851  1.9807  0.8177 -0.8643
  570MOL0     H76946   0.749   0.429   5.018  0.3837  0.5459  0.1547
  570MOL0     H76947   0.906   0.350   5.009  1.5517  1.8026  0.4117
  570MOL0     H76948   0.746   0.199   4.653  0.4294 -0.9334 -0.2150
  570MOL0     H76949   1.255   0.865   5.003 -2.7092 -1.0257  1.4746
  570MOL0     H76950   1.381   1.057   4.929  0.7791  0.0141 -3.8304
  571MOL0     O76951   2.451   0.442   7.955 -0.8103  0.7918  0.2799
  571MOL0     C76952   2.447   0.486   7.839  0.3842  0.5305  0.3968
  571MOL0     O76953   2.560   0.510   7.764 -0.2424 -0.1472  0.6276
  571MOL0     C76954   2.685   0.491   7.819 -0.9941  0.4956 -0.7883
  571MOL0     C76955   2.738   0.570   7.930  0.1266 -0.4527 -0.2965
  571MOL0     C76956   2.859   0.526   7.989 -0.0788  0.0293  0.0101
  571MOL0     C76957   2.921   0.403   7.954 -0.1365  0.3732 -0.0033
  571MOL0     O76958   3.021   0.332   8.008  0.0573  0.4381  0.6389
  571MOL0     C76959   3.054   0.365   8.145 -0.4172  0.6909 -0.3825
  571MOL0     C76960   3.168   0.283   8.205 -0.6965  0.0930  0.2302
  571MOL0     C76961   3.124   0.138   8.242 -0.0536 -0.1211 -0.0813
  571MOL0     C76962   3.245   0.057   8.295 -0.0179 -0.1648  0.2341
  571MOL0     C76963   3.272   0.084   8.444  1.0287 -0.3605  1.0087
  571MOL0     C76964   3.383   0.006   8.509 -0.3482  0.1482  0.3093
  571MOL0     C76965   3.514  -0.005   8.427  1.3937 -1.1205  0.0342
  571MOL0     C76966   3.626  -0.082   8.491 -0.3780 -0.7484  0.8372
  571MOL0     N76967   3.601  -0.227   8.480 -0.3704 -0.0314 -0.1426
  571MOL0     C76968   3.573  -0.286   8.366 -0.3402  0.8529 -0.1168
  571MOL0     C76969   3.565  -0.422   8.394  0.0838 -0.6419 -0.7831
  571MOL0     C76970   3.514  -0.533   8.311 -0.7121 -0.1912  0.5736
  571MOL0     C76971   3.570  -0.524   8.163  0.6567 -0.7992  0.4585
  571MOL0     C76972   3.551  -0.656   8.099  0.5868 -0.6855 -0.1458
  571MOL0     C76973   3.403  -0.678   8.058  0.2500  0.1079  0.1847
  571MOL0     O76974   3.356  -0.573   7.968  0.0087 -0.0968  0.2974
  571MOL0     C76975   3.320  -0.609   7.840 -0.2333  0.0483 -0.7354
  571MOL0     C76976   3.185  -0.605   7.806  1.4466 -0.2842  0.1105
  571MOL0     C76977   3.139  -0.657   7.681 -0.0191  0.7875 -0.1582
  571MOL0     C76978   2.990  -0.648   7.657  0.3420  0.4048  0.4400
  571MOL0     C76979   3.244  -0.700   7.587  0.8884  0.3449  0.0715
  571MOL0     C76980   3.202  -0.729   7.446  0.3399 -0.1909 -0.0961
  571MOL0     O76981   3.106  -0.823   7.428 -0.3176  0.0326  0.4339
  571MOL0     C76982   3.056  -0.843   7.299 -0.0020  0.2352 -0.6731
  571MOL0     C76983   3.035  -0.985   7.278 -0.3505  0.1827 -0.4381
  571MOL0     C76984   2.977  -1.035   7.162  0.2438  0.7031 -0.3778
  571MOL0     C76985   2.951  -0.957   7.056  0.0345 -0.1311 -0.0353
  571MOL0     O76986   2.892  -0.998   6.948 -0.1693  0.4916  0.5669
  571MOL0     C76987   2.861  -1.137   6.933  0.1854  0.3614  0.0241
  571MOL0     C76988   2.861  -1.182   6.786 -0.5633  0.2067  0.8322
  571MOL0     C76989   2.998  -1.209   6.723  0.0452 -0.3531 -0.4611
  571MOL0     C76990   2.982  -1.291   6.598  0.4741 -0.0174 -0.5799
  571MOL0     C76991   3.121  -1.336   6.545 -1.0294 -0.2449  0.0756
  571MOL0     C76992   3.135  -1.446   6.432  0.9965  0.5646 -0.2332
  571MOL0     C76993   3.057  -1.585   6.461  0.2032 -1.2031 -0.1347
  571MOL0     C76994   3.113  -1.634   6.593 -0.2380 -0.4586 -0.0961
  571MOL0    Cl76995   3.063  -1.803   6.623  0.3402  0.2775  0.0901
  571MOL0     C76996   2.988  -0.821   7.062 -0.8912 -0.3394  0.2703
  571MOL0     C76997   3.036  -0.764   7.185  0.6629 -0.2536 -0.1381
  571MOL0     O76998   3.273  -0.681   7.359  0.0326  0.3293 -0.4417
  571MOL0     C76999   3.373  -0.701   7.628 -0.2096  0.2346 -0.2372
  571MOL0     C77000   3.418  -0.669   7.751 -0.4364  0.1388 -0.2173
  571MOL0     N77001   3.593  -0.441   8.531 -0.7694  0.0317  0.7182
  571MOL0     N77002   3.625  -0.322   8.570 -0.2125  0.3074 -1.0088
  571MOL0     C77003   2.872   0.335   7.842 -0.3322 -0.7595  0.6173
  571MOL0     C77004   2.758   0.378   7.782  0.1022  0.3090  0.3015
  571MOL0     C77005   2.317   0.504   7.775 -0.6572  0.1969  0.2843
  571MOL0     C77006   2.314   0.582   7.659  0.1055 -0.5861 -0.3165
  571MOL0     C77007   2.192   0.618   7.595 -0.8094  0.1441 -0.7555
  571MOL0     C77008   2.071   0.573   7.638 -0.7897  0.1604 -1.3066
  571MOL0     O77009   1.961   0.593   7.558  0.5400 -0.5457 -0.4370
  571MOL0     C77010   1.832   0.545   7.612  0.9936  0.6468  0.6681
  571MOL0     C77011   1.730   0.603   7.514  0.0612 -0.0515  0.5955
  571MOL0     C77012   1.601   0.527   7.508  0.3268  0.2558  0.0071
  571MOL0     C77013   1.628   0.385   7.451  0.2211 -0.1928  0.5923
  571MOL0     C77014   1.536   0.280   7.505 -0.3578  0.4732  0.0794
  571MOL0     C77015   1.466   0.190   7.560 -0.9570  0.2993  0.8340
  571MOL0     C77016   2.077   0.480   7.750 -0.4219 -0.1404  0.1090
  571MOL0     C77017   2.198   0.458   7.822 -0.5342  0.0878  0.0131
  571MOL0     H77018   2.683   0.651   7.976  0.6445  1.7657 -3.3208
  571MOL0     H77019   2.890   0.593   8.068 -1.4485  1.5881 -0.7294
  571MOL0     H77020   3.078   0.471   8.159 -1.7126  0.7527  1.9658
  571MOL0     H77021   2.960   0.353   8.199 -0.2693  2.3861  0.3048
  571MOL0     H77022   3.256   0.276   8.140 -0.6422 -0.2655  0.3367
  571MOL0     H77023   3.208   0.331   8.294  2.5466 -4.7214  1.7933
  571MOL0     H77024   3.053   0.138   8.325 -0.4625  1.9596 -0.3959
  571MOL0     H77025   3.069   0.085   8.163 -1.1120 -0.8491  1.1105
  571MOL0     H77026   3.234  -0.051   8.281 -1.7500  0.0850 -0.5999
  571MOL0     H77027   3.331   0.071   8.229 -1.2054 -1.2081 -1.6680
  571MOL0     H77028   3.307   0.187   8.454 -0.9904  0.6339 -1.2426
  571MOL0     H77029   3.183   0.081   8.507 -0.6296  0.4401 -1.1596
  571MOL0     H77030   3.404   0.061   8.601 -0.8273  0.8305  0.0174
  571MOL0     H77031   3.340  -0.091   8.536 -1.2735  0.6714  0.7573
  571MOL0     H77032   3.497  -0.046   8.327  1.6209  3.5813 -2.1801
  571MOL0     H77033   3.551   0.095   8.405  0.1430  1.6747  7.6089
  571MOL0     H77034   3.659  -0.051   8.590  1.4863 -2.1688  0.7217
  571MOL0     H77035   3.714  -0.061   8.430  0.4536 -0.1283  2.2067
  571MOL0     H77036   3.562  -0.248   8.265  3.5976 -0.5831 -1.2667
  571MOL0     H77037   3.530  -0.634   8.350 -1.0678 -1.0586 -1.4112
  571MOL0     H77038   3.406  -0.519   8.306 -0.8458 -1.3165  0.1106
  571MOL0     H77039   3.677  -0.504   8.161  0.7304 -1.0065  1.5871
  571MOL0     H77040   3.519  -0.446   8.106 -0.2393 -1.5623  0.1819
  571MOL0     H77041   3.597  -0.735   8.158  0.2124  0.6471  2.0466
  571MOL0     H77042   3.605  -0.658   8.004 -0.2583 -1.9994 -0.6288
  571MOL0     H77043   3.334  -0.675   8.142 -1.5522 -0.2101 -1.2252
  571MOL0     H77044   3.394  -0.777   8.013  0.9739  0.0739  0.0957
  571MOL0     H77045   3.122  -0.576   7.890  3.3663 -0.0158  1.5328
  571MOL0     H77046   2.946  -0.594   7.741 -2.3636  1.0318 -1.2431
  571MOL0     H77047   2.977  -0.591   7.564  4.7143  1.3395  0.1721
  571MOL0     H77048   2.941  -0.745   7.656  2.1919 -0.5719 -0.1794
  571MOL0     H77049   3.071  -1.054   7.354  0.1179 -1.5858 -2.1682
  571MOL0     H77050   2.953  -1.140   7.166  0.9683  0.5748  0.9098
  571MOL0     H77051   2.927  -1.209   6.984  1.3877 -0.4950 -2.5445
  571MOL0     H77052   2.757  -1.144   6.964 -0.2627 -2.5060 -1.7325
  571MOL0     H77053   2.807  -1.276   6.797  1.5617 -0.9652  2.0232
  571MOL0     H77054   2.805  -1.106   6.731  0.7643  0.2748 -0.5025
  571MOL0     H77055   3.061  -1.256   6.800 -0.1013 -0.7891 -0.5987
  571MOL0     H77056   3.050  -1.116   6.700  2.4255 -1.7030 -0.8214
  571MOL0     H77057   2.916  -1.369   6.638  0.5588  1.2653  2.3163
  571MOL0     H77058   2.932  -1.237   6.518 -0.2954  1.3900  0.8034
  571MOL0     H77059   3.190  -1.351   6.628 -1.9730  2.2443  1.4181
  571MOL0     H77060   3.160  -1.250   6.489 -0.7213 -1.3370 -1.4600
  571MOL0     H77061   3.102  -1.403   6.338  4.2140  2.5207 -0.5920
  571MOL0     H77062   3.242  -1.463   6.421  0.9289  1.0515 -1.7457
  571MOL0     H77063   3.077  -1.658   6.382 -0.9965 -0.1579 -1.4525
  571MOL0     H77064   2.950  -1.568   6.480  0.3953 -1.7120  1.6054
  571MOL0     H77065   3.092  -1.566   6.676  0.6101 -0.2727 -0.0182
  571MOL0     H77066   3.221  -1.638   6.573 -0.6820  0.9952 -3.3216
  571MOL0     H77067   2.964  -0.752   6.982  0.2874 -0.2321 -0.0056
  571MOL0     H77068   3.061  -0.658   7.191 -3.6432  1.0031 -1.2079
  571MOL0     H77069   3.435  -0.748   7.553  1.8840  0.1718  1.4217
  571MOL0     H77070   3.521  -0.691   7.777 -0.2642 -1.9929 -2.3451
  571MOL0     H77071   2.935   0.252   7.813 -1.2386 -1.6025  0.9837
  571MOL0     H77072   2.718   0.323   7.697  0.5844  0.3357  0.0529
  571MOL0     H77073   2.403   0.612   7.605 -0.0636 -2.7678 -1.9620
  571MOL0     H77074   2.189   0.685   7.509 -5.4572  2.4352  0.8901
  571MOL0     H77075   1.824   0.437   7.624  1.0083  0.7544  1.8100
  571MOL0     H77076   1.797   0.600   7.700 -0.6085  0.2342  0.3195
  571MOL0     H77077   1.770   0.596   7.413 -0.1581  0.5928  0.4574
  571MOL0     H77078   1.708   0.709   7.530 -2.2603 -0.4661  0.5868
  571MOL0     H77079   1.529   0.574   7.440 -2.3632 -0.1250  2.3985
  571MOL0     H77080   1.548   0.530   7.604 -3.3083  2.6662 -1.8588
  571MOL0     H77081   1.730   0.357   7.479  1.1770  3.0227  0.7286
  571MOL0     H77082   1.618   0.397   7.343  1.8492 -0.9904  0.3133
  571MOL0     H77083   1.413   0.110   7.607  0.1073 -0.1333  1.3461
  571MOL0     H77084   1.982   0.436   7.782  0.8007 -1.7672  1.7437
  571MOL0     H77085   2.192   0.379   7.897 -1.5869 -0.9988 -1.1707
  572MOL0     O77086   2.077   6.912   3.648 -0.4670  0.3099 -0.2990
  572MOL0     C77087   1.967   6.856   3.645 -1.0041 -0.7772  0.1003
  572MOL0     O77088   1.941   6.724   3.652  0.2716  0.5522  0.5736
  572MOL0     C77089   2.032   6.621   3.689  0.6567  0.1089 -0.0885
  572MOL0     C77090   2.004   6.488   3.662 -0.1317 -0.1850  0.2342
  572MOL0     C77091   2.081   6.378   3.707 -0.1410 -0.1483  0.3280
  572MOL0     C77092   2.191   6.396   3.787 -1.0940 -0.7134 -1.1666
  572MOL0     O77093   2.275   6.298   3.839  0.2262  0.9662  0.2588
  572MOL0     C77094   2.205   6.189   3.905 -1.2865  0.7720 -1.0515
  572MOL0     C77095   2.184   6.062   3.813 -0.1212 -0.3926  0.2878
  572MOL0     C77096   2.298   5.966   3.826  0.1158  1.1479  0.0453
  572MOL0     C77097   2.409   5.969   3.722 -0.6243 -0.0447  0.4236
  572MOL0     C77098   2.365   5.945   3.573 -0.3566  0.4753  0.5131
  572MOL0     C77099   2.428   5.819   3.512 -0.0669  0.7426  0.1399
  572MOL0     C77100   2.378   5.778   3.369  0.3190 -0.6749 -0.1347
  572MOL0     C77101   2.365   5.896   3.262 -0.2217  0.2385 -0.8999
  572MOL0     N77102   2.364   5.840   3.125  0.0972  0.4896  0.6740
  572MOL0     C77103   2.444   5.880   3.026  0.4354 -0.0201  0.0463
  572MOL0     C77104   2.398   5.816   2.912 -0.2930 -0.3176  0.0758
  572MOL0     C77105   2.445   5.840   2.774 -0.4817 -0.2430 -0.0639
  572MOL0     C77106   2.557   5.738   2.733  0.6148 -0.2090  0.6583
  572MOL0     C77107   2.649   5.711   2.846 -0.2468 -0.7965 -0.1402
  572MOL0     C77108   2.768   5.632   2.790  0.4434 -0.1581  0.0615
  572MOL0     O77109   2.721   5.502   2.747  0.1154 -0.0368  0.6318
  572MOL0     C77110   2.809   5.407   2.719 -0.1689 -0.1118  0.7896
  572MOL0     C77111   2.930   5.423   2.644  1.2039  0.5195  0.1140
  572MOL0     C77112   2.990   5.308   2.588  0.2888  0.1528  0.4198
  572MOL0     C77113   3.111   5.349   2.506  0.2069 -0.9453  0.2431
  572MOL0     C77114   2.945   5.179   2.628  0.4615  0.2747 -0.4068
  572MOL0     C77115   3.021   5.058   2.597  0.3833 -0.0054  0.4581
  572MOL0     O77116   3.153   5.066   2.583  0.8592  0.0196  0.1311
  572MOL0     C77117   3.237   4.961   2.604  0.0186  0.7335  0.2798
  572MOL0     C77118   3.374   4.997   2.595  0.1903 -0.2821  0.3460
  572MOL0     C77119   3.477   4.914   2.622 -0.5682  1.3975  0.4300
  572MOL0     C77120   3.458   4.775   2.654  0.3609 -0.4896  0.2021
  572MOL0     O77121   3.559   4.700   2.681 -0.6175  0.1181  0.6129
  572MOL0     C77122   3.557   4.625   2.796 -0.0628  0.5508 -0.3240
  572MOL0     C77123   3.681   4.531   2.789 -0.1657  0.7765  0.4767
  572MOL0     C77124   3.656   4.421   2.673  0.2296  0.0140 -0.0283
  572MOL0     C77125   3.783   4.332   2.657  0.7949 -1.2508  0.4395
  572MOL0     C77126   3.782   4.241   2.532  0.2743 -0.6151  0.2206
  572MOL0     C77127   3.828   4.103   2.579 -0.9665 -0.8235  0.3623
  572MOL0     C77128   3.694   4.038   2.648 -0.5279  0.8813 -0.7504
  572MOL0     C77129   3.728   3.901   2.687  0.0464  0.4315  0.1356
  572MOL0    Cl77130   3.597   3.824   2.758 -0.0799  0.1589 -0.1091
  572MOL0     C77131   3.316   4.733   2.657  0.4695  0.2535 -1.2530
  572MOL0     C77132   3.210   4.823   2.640 -0.2572 -0.7191  0.8014
  572MOL0     O77133   2.950   4.952   2.590 -0.4585  1.1081  0.5800
  572MOL0     C77134   2.832   5.174   2.709  0.6614 -1.0406 -0.0272
  572MOL0     C77135   2.757   5.280   2.750 -0.5577 -0.7809  0.6173
  572MOL0     N77136   2.293   5.736   2.958 -0.1848  0.0459 -0.1346
  572MOL0     N77137   2.280   5.746   3.083 -0.4853 -0.4361 -1.0795
  572MOL0     C77138   2.229   6.531   3.818  0.5256  0.0026 -0.1454
  572MOL0     C77139   2.147   6.635   3.781 -0.0155  0.6665  0.1860
  572MOL0     C77140   1.860   6.948   3.611  0.4172  0.8899  0.0157
  572MOL0     C77141   1.876   7.090   3.605 -0.8179 -0.0286 -1.2049
  572MOL0     C77142   1.769   7.163   3.579  0.9579 -0.0215 -0.8124
  572MOL0     C77143   1.638   7.122   3.548 -0.0050  0.5597  0.2570
  572MOL0     O77144   1.531   7.205   3.521 -0.1219  0.9507  0.1367
  572MOL0     C77145   1.540   7.341   3.543 -0.1856  0.0282  0.0022
  572MOL0     C77146   1.565   7.378   3.687 -0.1202 -0.2327 -0.5147
  572MOL0     C77147   1.488   7.497   3.734 -0.7680 -0.7220  0.2278
  572MOL0     C77148   1.567   7.565   3.854 -0.5362  0.2876 -0.3934
  572MOL0     C77149   1.707   7.610   3.826  0.2123  0.1360 -0.2290
  572MOL0     C77150   1.819   7.645   3.792  0.8264 -0.2752  0.7670
  572MOL0     C77151   1.623   6.983   3.540  0.4316  0.1284  0.8295
  572MOL0     C77152   1.729   6.901   3.569 -1.1749  0.9273  0.4411
  572MOL0     H77153   1.930   6.463   3.586  0.8073  0.6902 -1.0105
  572MOL0     H77154   2.053   6.275   3.691  1.9427 -0.8509  0.8690
  572MOL0     H77155   2.264   6.155   3.990  0.5902  1.1543 -2.1584
  572MOL0     H77156   2.112   6.231   3.945 -0.4894  1.2859  0.3458
  572MOL0     H77157   2.097   6.016   3.861 -0.9949  0.9601  0.0629
  572MOL0     H77158   2.168   6.096   3.710 -0.5140  0.6228  0.6661
  572MOL0     H77159   2.352   5.975   3.921 -2.3393 -0.5572  1.7234
  572MOL0     H77160   2.263   5.862   3.833  2.2863  0.3952  0.9303
  572MOL0     H77161   2.453   6.069   3.719 -2.5446  0.8587 -2.7598
  572MOL0     H77162   2.484   5.891   3.742 -0.5047 -1.0206 -3.0838
  572MOL0     H77163   2.258   5.927   3.561 -0.8684  3.8904 -1.0667
  572MOL0     H77164   2.385   6.034   3.513 -0.4534  0.0175 -0.1985
  572MOL0     H77165   2.535   5.839   3.514  0.0564  0.3024 -1.2016
  572MOL0     H77166   2.407   5.732   3.576 -4.0786  1.8370  0.5829
  572MOL0     H77167   2.455   5.710   3.333  0.2370 -1.5508  1.2627
  572MOL0     H77168   2.280   5.730   3.378 -0.2395  0.3105 -0.7646
  572MOL0     H77169   2.446   5.966   3.284 -0.8833  1.0329 -0.9317
  572MOL0     H77170   2.273   5.953   3.282 -1.4503 -0.1881 -4.5452
  572MOL0     H77171   2.529   5.946   3.032  0.0548  0.5379 -0.5348
  572MOL0     H77172   2.368   5.843   2.697 -1.1386  3.9887  0.5085
  572MOL0     H77173   2.492   5.938   2.761 -0.9266 -0.0418 -0.1821
  572MOL0     H77174   2.610   5.773   2.644  0.6012 -1.8077 -0.0078
  572MOL0     H77175   2.491   5.659   2.696  1.5093 -0.5609 -0.2096
  572MOL0     H77176   2.601   5.663   2.931 -0.7719  2.1168  1.3312
  572MOL0     H77177   2.684   5.809   2.880  0.9126 -0.9529 -0.8243
  572MOL0     H77178   2.844   5.614   2.867  0.6736 -3.3585 -0.8097
  572MOL0     H77179   2.815   5.690   2.710 -0.4610  0.4883 -0.0179
  572MOL0     H77180   2.975   5.516   2.612 -1.0978  0.8557 -2.4404
  572MOL0     H77181   3.193   5.373   2.575  2.2597 -3.4065 -1.1950
  572MOL0     H77182   3.155   5.276   2.437  1.9989 -0.0300  0.3418
  572MOL0     H77183   3.069   5.431   2.448 -2.8399 -0.9774  2.1867
  572MOL0     H77184   3.400   5.098   2.563  0.7163 -0.0787  1.3831
  572MOL0     H77185   3.582   4.933   2.604  0.1411 -1.6891  0.7374
  572MOL0     H77186   3.566   4.701   2.875 -0.1063 -1.9561  2.2378
  572MOL0     H77187   3.463   4.579   2.829 -0.6061  2.3395  0.8090
  572MOL0     H77188   3.773   4.585   2.767  0.6594 -0.2534  1.3292
  572MOL0     H77189   3.705   4.484   2.885  2.7893  1.7373  0.2779
  572MOL0     H77190   3.655   4.481   2.581  3.3253 -1.4612 -1.1781
  572MOL0     H77191   3.558   4.372   2.673  0.8327 -1.2463  1.0539
  572MOL0     H77192   3.870   4.398   2.651  1.9772 -2.8889 -2.1714
  572MOL0     H77193   3.801   4.277   2.750  1.1723  1.0826  1.8355
  572MOL0     H77194   3.850   4.279   2.455 -0.5811  3.0925  1.1204
  572MOL0     H77195   3.685   4.225   2.483 -0.1431 -4.1172  1.8810
  572MOL0     H77196   3.861   4.035   2.499 -1.4334  0.7331 -1.2129
  572MOL0     H77197   3.915   4.125   2.641  1.1841  0.4598 -2.8278
  572MOL0     H77198   3.614   4.029   2.574  0.1783  1.7480 -1.6451
  572MOL0     H77199   3.660   4.095   2.735  1.9903  0.5444  0.5718
  572MOL0     H77200   3.797   3.903   2.772 -0.7833 -0.3497  0.8456
  572MOL0     H77201   3.776   3.846   2.606  1.5718 -0.3547  1.4981
  572MOL0     H77202   3.306   4.626   2.672  1.7678  0.2475 -0.2395
  572MOL0     H77203   3.110   4.781   2.635  0.2330 -2.1956  2.3203
  572MOL0     H77204   2.797   5.076   2.741 -0.8143 -1.1898 -1.9020
  572MOL0     H77205   2.682   5.274   2.828 -1.8004 -0.2562 -0.5030
  572MOL0     H77206   2.326   6.545   3.864  1.1363 -0.9614 -1.1041
  572MOL0     H77207   2.176   6.732   3.820  1.7506  0.5739 -0.8205
  572MOL0     H77208   1.962   7.145   3.643  1.4262 -3.6361 -0.5828
  572MOL0     H77209   1.789   7.269   3.590  0.1898  0.0033  0.5055
  572MOL0     H77210   1.609   7.387   3.473 -1.1365 -2.1427 -2.5271
  572MOL0     H77211   1.438   7.380   3.529  0.7206  3.6531  1.9532
  572MOL0     H77212   1.672   7.387   3.707 -0.3239 -1.0389  1.0553
  572MOL0     H77213   1.539   7.290   3.746 -0.2737  0.5657  0.6287
  572MOL0     H77214   1.396   7.458   3.777 -1.1637 -0.9096 -0.7579
  572MOL0     H77215   1.481   7.578   3.661  2.2256 -1.3760 -0.9383
  572MOL0     H77216   1.584   7.499   3.939  4.1583  1.1672 -0.3535
  572MOL0     H77217   1.521   7.653   3.900  1.0166  0.3701  1.0934
  572MOL0     H77218   1.916   7.678   3.760  0.4049  0.9385  0.6811
  572MOL0     H77219   1.523   6.949   3.514  0.7143  1.2082 -1.9633
  572MOL0     H77220   1.723   6.794   3.549  0.1683  1.5511 -4.8162
  573MOL0     O77221   8.259   0.465   2.208  0.2626 -0.3236 -0.3530
  573MOL0     C77222   8.341   0.427   2.294 -0.2789  0.1290  0.3787
  573MOL0     O77223   8.384   0.297   2.326 -0.1954  0.0641 -0.4701
  573MOL0     C77224   8.335   0.205   2.237 -0.4294  0.1879  0.1221
  573MOL0     C77225   8.234   0.125   2.270 -0.0599  0.5478  0.6630
  573MOL0     C77226   8.191   0.020   2.188  0.3920 -0.8163  0.3442
  573MOL0     C77227   8.250   0.015   2.066 -0.1375 -0.4392 -0.9167
  573MOL0     O77228   8.200  -0.073   1.980  0.5853 -0.5636  1.2634
  573MOL0     C77229   8.276  -0.185   1.940  0.0076  1.0569 -0.8853
  573MOL0     C77230   8.267  -0.195   1.783 -1.2112  0.0933 -0.2549
  573MOL0     C77231   8.326  -0.075   1.710 -0.6120 -0.6311 -0.1454
  573MOL0     C77232   8.284  -0.062   1.564  0.2604  1.2983  0.0337
  573MOL0     C77233   8.384  -0.014   1.465  0.3191 -0.1707 -0.0284
  573MOL0     C77234   8.331  -0.009   1.317 -0.5832  0.4070  0.5118
  573MOL0     C77235   8.439   0.009   1.217  0.0597 -0.0742  0.0382
  573MOL0     C77236   8.495   0.149   1.218  1.1427  0.1572  0.9514
  573MOL0     N77237   8.549   0.192   1.084 -0.8709 -0.2832  0.7074
  573MOL0     C77238   8.684   0.190   1.052 -0.1202  0.3462 -0.2776
  573MOL0     C77239   8.688   0.262   0.935  0.1676  1.0076  0.3407
  573MOL0     C77240   8.809   0.314   0.860 -0.5445 -0.5804  0.1878
  573MOL0     C77241   8.826   0.240   0.726 -0.6453 -0.3558 -0.2291
  573MOL0     C77242   8.949   0.298   0.655 -0.1903 -0.3579 -0.5112
  573MOL0     C77243   8.950   0.262   0.509 -0.3287 -0.3063  0.2149
  573MOL0     O77244   9.071   0.319   0.452 -0.2758  0.1825  0.1520
  573MOL0     C77245   9.080   0.325   0.320  0.4072 -0.0254 -0.0924
  573MOL0     C77246   9.207   0.382   0.276 -0.1245 -0.2669  0.4675
  573MOL0     C77247   9.226   0.406   0.139  0.3013  0.2595 -0.2685
  573MOL0     C77248   9.356   0.475   0.099 -0.4556 -1.0067  0.2494
  573MOL0     C77249   9.128   0.362   0.037  0.5139  0.6575 -0.7864
  573MOL0     C77250   9.144   0.367  -0.105 -1.3097  0.2616  0.9431
  573MOL0     O77251   9.057   0.297  -0.182  0.1381 -0.3067 -0.0313
  573MOL0     C77252   9.050   0.313  -0.323  0.0571  0.6596  0.8938
  573MOL0     C77253   8.931   0.256  -0.379  0.3369 -0.0483 -0.1618
  573MOL0     C77254   8.916   0.255  -0.519  0.2156 -0.3668  1.2983
  573MOL0     C77255   9.009   0.301  -0.612 -1.2016 -0.5733 -0.2313
  573MOL0     O77256   9.010   0.307  -0.753  0.5993  0.2594  0.2327
  573MOL0     C77257   8.896   0.270  -0.833 -0.2300 -0.1286 -0.5393
  573MOL0     C77258   8.902   0.353  -0.955 -0.3145 -0.4642 -0.5630
  573MOL0     C77259   8.792   0.328  -1.051 -0.2889  0.5966  0.5943
  573MOL0     C77260   8.817   0.207  -1.146 -0.1289 -0.5555 -0.9917
  573MOL0     C77261   8.691   0.187  -1.233  0.6566  0.0338  0.9928
  573MOL0     C77262   8.673   0.054  -1.291  0.6490  0.3512  0.3694
  573MOL0     C77263   8.775   0.038  -1.410 -0.5462 -0.1844 -0.2094
  573MOL0     C77264   8.810  -0.109  -1.457 -0.4315 -0.0565 -0.1980
  573MOL0    Cl77265   8.870  -0.211  -1.323  0.2437  0.1583  0.0688
  573MOL0     C77266   9.129   0.351  -0.556  0.2862  0.2494  0.1310
  573MOL0     C77267   9.141   0.367  -0.415  0.4078 -0.8419  0.7945
  573MOL0     O77268   9.215   0.462  -0.143  0.0500 -0.0349 -0.1235
  573MOL0     C77269   9.016   0.286   0.088  0.5530 -0.5135  0.3962
  573MOL0     C77270   8.983   0.274   0.229  0.2812 -0.8158  0.9827
  573MOL0     N77271   8.562   0.284   0.885  0.0369 -0.5255  0.5559
  573MOL0     N77272   8.481   0.237   0.980 -0.5979  0.3906  0.5803
  573MOL0     C77273   8.356   0.103   2.025  0.5889 -0.1671 -0.3214
  573MOL0     C77274   8.400   0.197   2.118 -0.5640  0.6554  0.8252
  573MOL0     C77275   8.397   0.540   2.366 -0.7793  0.2473  0.7018
  573MOL0     C77276   8.333   0.674   2.374  0.2122  0.3005 -0.8494
  573MOL0     C77277   8.394   0.777   2.439  0.0779 -0.5987 -0.6818
  573MOL0     C77278   8.523   0.760   2.495 -0.3816 -0.1029  0.6423
  573MOL0     O77279   8.586   0.875   2.534 -0.4018 -0.0020  0.0552
  573MOL0     C77280   8.508   0.954   2.630 -0.0057  0.1218  0.7891
  573MOL0     C77281   8.587   1.001   2.752 -0.1385  0.0312 -0.0547
  573MOL0     C77282   8.672   1.133   2.718  0.8581  1.4169 -0.9255
  573MOL0     C77283   8.754   1.162   2.847  0.7385 -0.0241 -0.1910
  573MOL0     C77284   8.868   1.076   2.864  0.3313 -0.3495 -0.2366
  573MOL0     C77285   8.960   1.003   2.891 -0.1078  1.1427  0.5279
  573MOL0     C77286   8.586   0.633   2.489  0.9963  0.5747  0.4735
  573MOL0     C77287   8.528   0.526   2.420  0.1193  0.2670 -0.1093
  573MOL0     H77288   8.190   0.149   2.367  1.7865  0.0163  1.6825
  573MOL0     H77289   8.117  -0.052   2.220  1.3264 -2.5028 -1.1239
  573MOL0     H77290   8.383  -0.185   1.965 -0.0011  0.9586 -0.8422
  573MOL0     H77291   8.238  -0.278   1.983 -0.1794  0.7529 -1.6860
  573MOL0     H77292   8.334  -0.276   1.753  0.2603 -0.1120  3.0668
  573MOL0     H77293   8.168  -0.227   1.749 -1.2773  0.5238 -0.4769
  573MOL0     H77294   8.288   0.017   1.756  1.0703  0.1531 -0.2775
  573MOL0     H77295   8.434  -0.071   1.722 -0.7570 -0.6361  1.3354
  573MOL0     H77296   8.247  -0.161   1.536  0.9787  1.6390 -2.3526
  573MOL0     H77297   8.192  -0.006   1.543 -1.1633 -0.8134  0.3663
  573MOL0     H77298   8.402   0.091   1.488  1.3351 -0.4549  0.5467
  573MOL0     H77299   8.479  -0.069   1.476  0.6551  0.3123 -0.4531
  573MOL0     H77300   8.273  -0.100   1.302 -0.4633  0.7855 -3.0704
  573MOL0     H77301   8.261   0.075   1.310 -2.2052 -0.8978  0.7260
  573MOL0     H77302   8.513  -0.071   1.216 -2.1705 -2.2467  0.1208
  573MOL0     H77303   8.391   0.000   1.119 -1.1631 -4.5329  0.8045
  573MOL0     H77304   8.577   0.156   1.291  2.1403  0.2277 -0.1544
  573MOL0     H77305   8.418   0.220   1.249  2.1551  1.9422 -0.4396
  573MOL0     H77306   8.766   0.165   1.118 -1.0488  3.9014  2.5281
  573MOL0     H77307   8.811   0.421   0.837  2.4285 -0.8683 -1.2840
  573MOL0     H77308   8.897   0.298   0.923 -1.5944  0.6949  2.1040
  573MOL0     H77309   8.736   0.267   0.671 -1.4161 -0.2090  1.0610
  573MOL0     H77310   8.822   0.131   0.740  0.2650 -0.6440 -1.9664
  573MOL0     H77311   9.038   0.248   0.696 -0.5778 -0.5845  0.0573
  573MOL0     H77312   8.957   0.407   0.662  0.5956 -0.4156 -0.4011
  573MOL0     H77313   8.864   0.312   0.463 -0.0409 -0.1598 -0.1717
  573MOL0     H77314   8.937   0.153   0.511 -0.3896 -0.3151 -0.5242
  573MOL0     H77315   9.288   0.414   0.341  2.1002 -0.4748 -2.0310
  573MOL0     H77316   9.347   0.575   0.058  3.8690  0.1166  1.5273
  573MOL0     H77317   9.420   0.502   0.183 -0.2908 -0.0162 -0.1837
  573MOL0     H77318   9.416   0.420   0.026 -1.1823  2.3603 -3.1471
  573MOL0     H77319   8.855   0.214  -0.314 -0.9127  2.8682  0.4356
  573MOL0     H77320   8.824   0.224  -0.568  0.8294  1.6775 -1.3789
  573MOL0     H77321   8.904   0.167  -0.868  3.7718 -0.0669 -0.3051
  573MOL0     H77322   8.806   0.280  -0.772  0.4558 -2.5361  0.9749
  573MOL0     H77323   8.882   0.454  -0.918 -0.2296 -0.2062 -1.1905
  573MOL0     H77324   8.993   0.361  -1.016 -1.6390 -0.8760 -2.6911
  573MOL0     H77325   8.777   0.414  -1.117  2.8034 -2.1852 -4.4098
  573MOL0     H77326   8.698   0.314  -0.997  0.9234 -0.2485  2.5975
  573MOL0     H77327   8.911   0.211  -1.201 -0.6556 -1.9665 -2.0472
  573MOL0     H77328   8.830   0.122  -1.079  1.9415 -0.0145 -0.6394
  573MOL0     H77329   8.686   0.262  -1.313  1.4523  0.5693  1.4270
  573MOL0     H77330   8.606   0.218  -1.173 -0.3698  0.1208 -0.4414
  573MOL0     H77331   8.684  -0.027  -1.218 -1.2136  1.6421  2.1966
  573MOL0     H77332   8.570   0.045  -1.326 -0.0678 -3.2815  2.7976
  573MOL0     H77333   8.873   0.083  -1.393 -0.2568 -0.4447 -1.1505
  573MOL0     H77334   8.736   0.087  -1.500  1.7512  1.1054 -0.5811
  573MOL0     H77335   8.888  -0.108  -1.534 -1.0405 -0.5566 -0.8276
  573MOL0     H77336   8.720  -0.151  -1.503 -0.5517  0.7443 -0.7135
  573MOL0     H77337   9.204   0.388  -0.625  0.7175 -1.0037 -0.1120
  573MOL0     H77338   9.230   0.414  -0.375  0.0994  0.5594 -0.1035
  573MOL0     H77339   8.941   0.249   0.019 -0.5942  1.8134  0.3132
  573MOL0     H77340   8.888   0.233   0.263 -0.4300 -1.2967 -1.3495
  573MOL0     H77341   8.409   0.101   1.930  3.8221 -1.8211  1.3631
  573MOL0     H77342   8.489   0.251   2.087  0.2142 -0.7409  0.5051
  573MOL0     H77343   8.238   0.693   2.326  0.7251  0.2914 -1.9065
  573MOL0     H77344   8.348   0.875   2.431  0.6412 -0.4657 -3.7220
  573MOL0     H77345   8.460   1.036   2.577 -1.6475 -1.9938 -1.2192
  573MOL0     H77346   8.425   0.892   2.665 -1.5925 -1.0597 -4.1687
  573MOL0     H77347   8.654   0.921   2.783 -1.3688 -1.3105 -0.7585
  573MOL0     H77348   8.516   1.022   2.832  2.5593  0.5844  2.3587
  573MOL0     H77349   8.594   1.208   2.698  0.4488  0.2280 -4.6224
  573MOL0     H77350   8.726   1.122   2.624  2.9944  1.4671  0.2397
  573MOL0     H77351   8.693   1.151   2.937  1.5226 -2.2450  0.1149
  573MOL0     H77352   8.798   1.262   2.837 -1.3590  0.7335 -2.8970
  573MOL0     H77353   9.045   0.941   2.911 -0.8794  0.6588  2.5876
  573MOL0     H77354   8.683   0.627   2.537  2.3574  0.5505 -2.0912
  573MOL0     H77355   8.572   0.427   2.416 -1.6234 -0.5199 -0.5633
  574MOL0     O77356   8.717   9.165   5.035 -0.8239 -0.8480 -0.1355
  574MOL0     C77357   8.598   9.145   5.053 -0.4030  0.5739 -0.9442
  574MOL0     O77358   8.534   9.031   5.036  0.5441  0.2438  0.5291
  574MOL0     C77359   8.600   8.913   5.039 -0.4188  1.1060 -0.3375
  574MOL0     C77360   8.646   8.861   4.921  0.1691  0.2654  0.3979
  574MOL0     C77361   8.716   8.741   4.938  1.1624  0.3015  0.1219
  574MOL0     C77362   8.730   8.669   5.062 -1.3361 -0.8765  0.1700
  574MOL0     O77363   8.808   8.550   5.072 -0.1150  0.0530  0.0581
  574MOL0     C77364   8.904   8.516   4.969 -0.4401 -0.0097 -0.2788
  574MOL0     C77365   9.045   8.569   5.001  0.1755  0.0375 -0.7271
  574MOL0     C77366   9.128   8.632   4.886  0.2380  0.8368 -0.0603
  574MOL0     C77367   9.282   8.608   4.881 -0.1520  0.5782  0.6131
  574MOL0     C77368   9.359   8.672   4.759  0.1829  0.1786 -0.1190
  574MOL0     C77369   9.505   8.625   4.742  0.9090 -0.1454 -1.2167
  574MOL0     C77370   9.595   8.680   4.849 -0.9393  0.0082  0.2965
  574MOL0     C77371   9.745   8.642   4.819 -0.2920  0.5978 -0.1112
  574MOL0     N77372   9.762   8.500   4.793 -0.6666  0.3225 -0.3286
  574MOL0     C77373   9.716   8.404   4.876 -0.5031  0.6218  0.3691
  574MOL0     C77374   9.727   8.282   4.816 -0.5532 -0.5472  0.6897
  574MOL0     C77375   9.673   8.151   4.861  0.5703 -0.8836 -0.1492
  574MOL0     C77376   9.784   8.044   4.881 -0.9115 -0.2970 -0.4839
  574MOL0     C77377   9.725   7.911   4.947  0.7225 -0.5527  0.1163
  574MOL0     C77378   9.839   7.833   5.022  0.3956  0.6376 -0.6211
  574MOL0     O77379   9.866   7.900   5.147  0.2285  0.4064  0.4780
  574MOL0     C77380   9.861   7.821   5.259  0.1526  0.6862  0.4138
  574MOL0     C77381   9.793   7.698   5.273  0.3385  1.2716 -0.1193
  574MOL0     C77382   9.778   7.634   5.397 -0.2941 -0.0861  0.6123
  574MOL0     C77383   9.679   7.518   5.404  0.8169 -0.1933 -0.5891
  574MOL0     C77384   9.856   7.680   5.501  0.2456  0.5834 -1.8157
  574MOL0     C77385   9.842   7.628   5.642  1.2742  0.2944  0.3782
  574MOL0     O77386   9.851   7.726   5.737  0.7756 -0.6351 -0.3310
  574MOL0     C77387   9.840   7.685   5.868  0.9683  0.0661 -0.2354
  574MOL0     C77388   9.946   7.640   5.942  0.1298 -0.0600 -0.2131
  574MOL0     C77389   9.927   7.581   6.067  0.2485  0.4914 -0.2334
  574MOL0     C77390   9.787   7.566   6.122 -0.4234  0.4518 -0.6330
  574MOL0     O77391   9.770   7.514   6.253  0.0575  0.8993  0.6158
  574MOL0     C77392   9.646   7.542   6.320  0.0965  0.5682 -0.5588
  574MOL0     C77393   9.651   7.491   6.464 -0.2441  1.7208  0.9321
  574MOL0     C77394   9.769   7.555   6.546 -0.1764 -0.1690 -0.1084
  574MOL0     C77395   9.733   7.527   6.687  0.9296  0.1183  0.8043
  574MOL0     C77396   9.839   7.538   6.794 -0.5703  0.2010 -0.5671
  574MOL0     C77397   9.793   7.508   6.936 -0.4804  0.5984  0.2679
  574MOL0     C77398   9.899   7.569   7.036  1.0148 -0.6845 -0.7050
  574MOL0     C77399   9.848   7.550   7.187 -0.3851  0.3447  0.1380
  574MOL0    Cl77400   9.690   7.641   7.196  0.0722 -0.0208  0.5157
  574MOL0     C77401   9.683   7.625   6.048 -0.5778 -0.0836 -0.4014
  574MOL0     C77402   9.716   7.678   5.925  0.4078 -0.0190  0.5569
  574MOL0     O77403   9.808   7.506   5.665  0.2962  0.6856  0.1006
  574MOL0     C77404   9.952   7.790   5.479 -0.1479 -1.3780 -0.2244
  574MOL0     C77405   9.948   7.863   5.359 -0.1290 -0.3884 -0.2032
  574MOL0     N77406   9.799   8.306   4.694  0.1920  0.8836  0.5265
  574MOL0     N77407   9.817   8.438   4.681  0.0342 -0.1924  0.1521
  574MOL0     C77408   8.692   8.743   5.178  0.6573 -0.6736 -0.5193
  574MOL0     C77409   8.627   8.869   5.166  0.9580  0.7876  0.6399
  574MOL0     C77410   8.519   9.244   5.122  0.1456  0.7013 -0.1778
  574MOL0     C77411   8.393   9.218   5.180 -0.6764  0.5169  0.1307
  574MOL0     C77412   8.322   9.310   5.254 -0.5146 -0.7495 -0.1182
  574MOL0     C77413   8.366   9.447   5.247  0.3858 -0.3027 -0.4058
  574MOL0     O77414   8.290   9.554   5.292 -0.7229 -0.4393 -0.1556
  574MOL0     C77415   8.212   9.536   5.412 -0.0882 -0.0106 -0.2023
  574MOL0     C77416   8.157   9.669   5.451  0.1411  0.7003  0.6406
  574MOL0     C77417   8.262   9.786   5.457 -0.3561  1.5496 -1.1679
  574MOL0     C77418   8.205   9.908   5.514 -0.0131 -0.4024  0.7365
  574MOL0     C77419   8.108   9.951   5.411 -0.2716 -0.5372 -0.3248
  574MOL0     C77420   8.044  10.000   5.316  1.4114  0.0389 -1.0718
  574MOL0     C77421   8.488   9.478   5.184 -0.1019  1.2361  0.6345
  574MOL0     C77422   8.565   9.373   5.132 -0.0072  0.3089 -0.2274
  574MOL0     H77423   8.632   8.901   4.821  0.0270  1.2907  0.8183
  574MOL0     H77424   8.752   8.701   4.844  2.9273 -2.3116  1.7654
  574MOL0     H77425   8.921   8.408   4.976 -1.1526 -0.1654 -0.8419
  574MOL0     H77426   8.864   8.535   4.870 -4.4753 -0.8425  1.0018
  574MOL0     H77427   9.034   8.650   5.074 -0.5012  0.9946 -1.8580
  574MOL0     H77428   9.104   8.492   5.052  2.6022  3.5523  2.3359
  574MOL0     H77429   9.093   8.580   4.796  0.4840  2.2673 -1.0016
  574MOL0     H77430   9.100   8.736   4.873  0.2213  0.8638  0.1930
  574MOL0     H77431   9.318   8.638   4.980  0.8643  0.8934  0.1661
  574MOL0     H77432   9.310   8.502   4.877  2.9732  1.2430 -4.8945
  574MOL0     H77433   9.297   8.647   4.672  0.0714 -0.8952  0.2512
  574MOL0     H77434   9.349   8.779   4.778 -2.7263 -0.2148  1.1864
  574MOL0     H77435   9.511   8.516   4.744  2.4011 -0.0735 -0.6110
  574MOL0     H77436   9.539   8.672   4.650 -0.9781  1.5601 -1.1150
  574MOL0     H77437   9.588   8.788   4.858  1.9769  0.2321  0.8858
  574MOL0     H77438   9.572   8.625   4.941 -0.2457 -4.7579 -2.0332
  574MOL0     H77439   9.813   8.676   4.898 -1.9180  0.4397  1.4301
  574MOL0     H77440   9.788   8.700   4.736  1.4838 -2.7136 -1.6941
  574MOL0     H77441   9.654   8.429   4.962 -2.0579 -2.5407  0.2951
  574MOL0     H77442   9.618   8.170   4.953 -1.0719 -0.4216 -1.1718
  574MOL0     H77443   9.600   8.124   4.783 -0.4346  1.3911 -0.0627
  574MOL0     H77444   9.867   8.080   4.942 -1.3218 -0.7975  0.3752
  574MOL0     H77445   9.819   8.007   4.784 -2.7636 -2.7413 -0.3327
  574MOL0     H77446   9.694   7.839   4.871  2.3336 -3.3955  1.9879
  574MOL0     H77447   9.644   7.950   5.009  1.1563  1.6386 -0.5997
  574MOL0     H77448   9.930   7.842   4.963  0.2542  3.0269 -0.5856
  574MOL0     H77449   9.811   7.727   5.025  0.2607  0.6529 -1.1259
  574MOL0     H77450   9.732   7.653   5.196 -1.1758 -1.3230  2.4185
  574MOL0     H77451   9.667   7.474   5.305 -0.8423  2.1219 -1.5297
  574MOL0     H77452   9.701   7.432   5.467 -1.7203 -1.2116 -0.9802
  574MOL0     H77453   9.579   7.556   5.430  1.1174  1.1174 -1.2534
  574MOL0     H77454  10.034   7.639   5.878 -0.8108  1.6377 -1.6301
  574MOL0     H77455  10.011   7.542   6.124 -0.8113 -1.8985 -0.1610
  574MOL0     H77456   9.632   7.650   6.322  3.9338  1.2414  2.7990
  574MOL0     H77457   9.555   7.497   6.280 -1.7726  1.3104  2.4640
  574MOL0     H77458   9.549   7.495   6.504 -0.4571 -2.3153  1.1962
  574MOL0     H77459   9.666   7.383   6.462 -3.5783  1.1634 -0.7653
  574MOL0     H77460   9.776   7.663   6.529  2.2227  0.3925  3.2563
  574MOL0     H77461   9.873   7.525   6.529  0.3948  0.6336  1.6226
  574MOL0     H77462   9.659   7.601   6.717 -0.5824 -0.6304 -0.8880
  574MOL0     H77463   9.705   7.421   6.688  0.7150  0.1334 -0.6479
  574MOL0     H77464   9.894   7.633   6.792 -0.4516  0.1424 -0.2598
  574MOL0     H77465   9.924   7.471   6.777  0.1145  1.7261 -4.0058
  574MOL0     H77466   9.709   7.578   6.939  0.3346  1.7255 -1.5847
  574MOL0     H77467   9.769   7.403   6.953  2.5226 -0.0442  1.1563
  574MOL0     H77468   9.914   7.676   7.019 -2.3106  0.3877  2.0401
  574MOL0     H77469   9.991   7.509   7.031  1.5745  0.0700  0.2264
  574MOL0     H77470   9.920   7.575   7.265  0.9364  0.9090 -1.2105
  574MOL0     H77471   9.824   7.443   7.194 -0.2711  0.3112  0.0225
  574MOL0     H77472   9.579   7.619   6.081 -0.4999  0.9810  0.1089
  574MOL0     H77473   9.631   7.708   5.864  1.1639 -1.3545 -1.2692
  574MOL0     H77474  10.012   7.818   5.565 -1.1225  0.6181 -0.1434
  574MOL0     H77475  10.012   7.950   5.345  1.1667 -1.0448  1.3977
  574MOL0     H77476   8.709   8.715   5.281 -2.1644  0.4627  0.3484
  574MOL0     H77477   8.585   8.936   5.241 -0.9244  2.3175 -1.6216
  574MOL0     H77478   8.346   9.121   5.169 -4.5219  2.2547 -0.1304
  574MOL0     H77479   8.221   9.278   5.279 -1.3759  2.0187  0.3304
  574MOL0     H77480   8.134   9.462   5.391 -1.1779  1.3259 -1.0156
  574MOL0     H77481   8.269   9.501   5.499  1.6115 -0.0286 -1.2887
  574MOL0     H77482   8.109   9.665   5.549 -2.2923  4.6626 -0.1304
  574MOL0     H77483   8.079   9.703   5.382  0.5914  2.0235  0.7454
  574MOL0     H77484   8.315   9.813   5.365  0.5542  4.1927  0.0198
  574MOL0     H77485   8.328   9.752   5.537 -3.2595  2.1861  1.6965
  574MOL0     H77486   8.295   9.970   5.522  1.3405 -2.1691 -0.0700
  574MOL0     H77487   8.159   9.888   5.611 -1.5566  0.0359  0.1265
  574MOL0     H77488   8.004  10.025   5.220 -0.2593 -2.4243 -1.1283
  574MOL0     H77489   8.530   9.578   5.184 -1.8048  1.9821  0.7374
  574MOL0     H77490   8.654   9.404   5.078 -0.6842  1.6895 -0.6099
  575MOL0     O77491   7.650   7.226   8.589  0.6708 -0.1766  0.1746
  575MOL0     C77492   7.610   7.155   8.493 -0.4049 -0.5177 -0.1412
  575MOL0     O77493   7.552   7.022   8.496 -0.1917 -0.2254 -0.8336
  575MOL0     C77494   7.517   6.954   8.610 -0.2833 -0.6554  0.7102
  575MOL0     C77495   7.508   6.812   8.613 -0.1776  0.3665  1.0213
  575MOL0     C77496   7.460   6.737   8.723  0.2322 -0.5837 -0.1259
  575MOL0     C77497   7.408   6.805   8.835 -0.3854  0.1056 -0.2725
  575MOL0     O77498   7.346   6.740   8.937  0.4105 -0.1287  0.5010
  575MOL0     C77499   7.428   6.651   9.006 -0.4088  0.4961  0.4216
  575MOL0     C77500   7.343   6.544   9.073 -0.4178 -0.3360 -1.4312
  575MOL0     C77501   7.443   6.461   9.166  0.2017  0.7409  0.5544
  575MOL0     C77502   7.380   6.324   9.218 -1.0794 -0.4374 -0.9151
  575MOL0     C77503   7.483   6.233   9.269 -0.7910 -0.9764 -0.7425
  575MOL0     C77504   7.571   6.183   9.156  0.2967 -0.4643 -1.0087
  575MOL0     C77505   7.605   6.034   9.165 -0.0836  0.3993 -0.0227
  575MOL0     C77506   7.487   5.945   9.128 -0.3315  0.7930  0.6189
  575MOL0     N77507   7.519   5.813   9.180  0.1289 -0.7868  0.6485
  575MOL0     C77508   7.596   5.711   9.127 -0.4408  0.3828  0.1566
  575MOL0     C77509   7.623   5.627   9.231  0.7349  0.0062 -0.4270
  575MOL0     C77510   7.705   5.504   9.226 -0.8313  0.3078 -0.1277
  575MOL0     C77511   7.838   5.519   9.142  0.9468  0.1965 -0.7619
  575MOL0     C77512   7.935   5.398   9.154  0.3978  0.6338  0.5556
  575MOL0     C77513   8.061   5.401   9.059  0.2667 -0.3485  0.0265
  575MOL0     O77514   8.044   5.372   8.926  0.4232 -0.2309  0.3153
  575MOL0     C77515   8.032   5.487   8.845  0.2747 -0.0812 -0.1911
  575MOL0     C77516   8.014   5.451   8.706  0.5538  0.0651 -0.8683
  575MOL0     C77517   8.030   5.541   8.610  0.5115 -1.0997  0.8833
  575MOL0     C77518   8.054   5.489   8.459  0.3533  0.0976  0.0921
  575MOL0     C77519   8.042   5.680   8.640 -0.2312  0.4316 -0.0213
  575MOL0     C77520   8.053   5.795   8.541  0.3142  1.1426 -0.3924
  575MOL0     O77521   8.025   5.915   8.590 -0.1214  0.2171 -0.2810
  575MOL0     C77522   8.059   6.030   8.523 -0.6532 -0.2709 -0.0030
  575MOL0     C77523   8.168   6.050   8.427  0.2418  0.0961 -0.5253
  575MOL0     C77524   8.206   6.181   8.394  0.1269  0.1361  0.4645
  575MOL0     C77525   8.132   6.286   8.460  0.0336 -0.0031  0.6443
  575MOL0     O77526   8.172   6.417   8.417  0.1388  0.5688 -0.1026
  575MOL0     C77527   8.176   6.522   8.509  0.8478  0.2029  0.0741
  575MOL0     C77528   8.311   6.538   8.567  0.8416  0.4923 -1.4127
  575MOL0     C77529   8.412   6.582   8.466  0.1442  0.4034  1.0540
  575MOL0     C77530   8.500   6.695   8.503  0.5891 -0.8932  0.7285
  575MOL0     C77531   8.574   6.763   8.393 -0.1826  0.2390 -0.1573
  575MOL0     C77532   8.496   6.832   8.277 -0.5807  0.9681 -0.2965
  575MOL0     C77533   8.399   6.938   8.326 -0.1616  0.2175 -1.0369
  575MOL0     C77534   8.328   7.003   8.204  1.5226 -0.1774 -0.6758
  575MOL0    Cl77535   8.449   7.085   8.095  0.7599  0.1064  0.1008
  575MOL0     C77536   8.027   6.267   8.558  0.5125 -0.3497  1.7239
  575MOL0     C77537   7.993   6.135   8.575 -0.1949 -0.9354  0.1611
  575MOL0     O77538   8.074   5.765   8.424 -0.3584  0.2539 -0.1878
  575MOL0     C77539   8.052   5.715   8.774  0.2714  0.5469 -0.7444
  575MOL0     C77540   8.043   5.625   8.879 -0.3978 -0.3586 -0.4414
  575MOL0     N77541   7.545   5.667   9.343 -0.1775  1.0680  0.1149
  575MOL0     N77542   7.494   5.777   9.307  0.1378 -0.8286 -0.4717
  575MOL0     C77543   7.416   6.943   8.825  0.2770 -0.6806 -0.1762
  575MOL0     C77544   7.470   7.021   8.722 -0.0175  0.2025  0.5314
  575MOL0     C77545   7.613   7.215   8.350 -0.9680 -0.5950  0.6221
  575MOL0     C77546   7.614   7.128   8.240  0.4385  0.3082  0.1790
  575MOL0     C77547   7.618   7.166   8.107  0.2615  0.2900 -0.3443
  575MOL0     C77548   7.600   7.305   8.080  0.1229  0.3336 -0.1417
  575MOL0     O77549   7.591   7.356   7.950  1.1054  0.5370  0.0372
  575MOL0     C77550   7.663   7.293   7.845 -0.0169 -0.8188  0.8217
  575MOL0     C77551   7.664   7.388   7.723  0.0608  0.2055 -0.7508
  575MOL0     C77552   7.529   7.383   7.643  0.5848 -0.3682  0.5812
  575MOL0     C77553   7.451   7.521   7.637  0.2694  0.2930  0.2058
  575MOL0     C77554   7.386   7.562   7.761 -0.8464 -0.2758 -0.9140
  575MOL0     C77555   7.344   7.592   7.868  0.4439  0.3137  0.7934
  575MOL0     C77556   7.581   7.392   8.189  0.8160 -0.1044  0.5475
  575MOL0     C77557   7.586   7.349   8.320 -0.0743 -0.2155  0.0884
  575MOL0     H77558   7.545   6.758   8.527  0.4650 -1.0856  2.1603
  575MOL0     H77559   7.468   6.629   8.720  3.0071 -0.4540  0.4825
  575MOL0     H77560   7.505   6.610   8.940 -0.9218  0.0205  0.1062
  575MOL0     H77561   7.472   6.702   9.092 -1.0662 -2.8717  2.9994
  575MOL0     H77562   7.256   6.572   9.134  1.8778 -2.7087  3.5549
  575MOL0     H77563   7.317   6.475   8.992 -1.9781 -0.2577 -1.0366
  575MOL0     H77564   7.536   6.439   9.113  0.3641  1.6871  0.4312
  575MOL0     H77565   7.478   6.506   9.259  6.1784 -3.8247  1.1550
  575MOL0     H77566   7.307   6.345   9.298  0.3063 -0.4923  0.4139
  575MOL0     H77567   7.329   6.277   9.134  1.5105 -1.3345 -2.0757
  575MOL0     H77568   7.551   6.276   9.343 -2.5193  0.2800  0.1576
  575MOL0     H77569   7.440   6.145   9.319  3.6693 -2.8035  0.3674
  575MOL0     H77570   7.529   6.205   9.058  1.9077  2.0276 -1.2253
  575MOL0     H77571   7.663   6.241   9.164 -0.6235  0.8995  0.2230
  575MOL0     H77572   7.689   6.018   9.096  1.0509 -2.2108  1.8018
  575MOL0     H77573   7.635   6.000   9.264  1.7710 -2.3722 -1.4311
  575MOL0     H77574   7.482   5.943   9.019  0.1214 -3.1108  0.5458
  575MOL0     H77575   7.387   5.971   9.163 -0.6488  2.1872 -1.1805
  575MOL0     H77576   7.643   5.707   9.030 -4.2687  0.5779 -1.8933
  575MOL0     H77577   7.716   5.470   9.329 -2.3766  1.4377  0.4466
  575MOL0     H77578   7.651   5.424   9.174 -0.4798 -1.7048  2.3886
  575MOL0     H77579   7.884   5.614   9.171 -3.5132  1.7026  2.4737
  575MOL0     H77580   7.811   5.524   9.036  1.0242  1.3767 -0.7436
  575MOL0     H77581   7.892   5.300   9.135 -0.9757  0.5647  3.5020
  575MOL0     H77582   7.961   5.396   9.260 -1.8495 -0.4452  1.1391
  575MOL0     H77583   8.132   5.325   9.094 -2.5749 -3.0146  0.3782
  575MOL0     H77584   8.106   5.501   9.071 -0.8524  0.5205 -2.3391
  575MOL0     H77585   8.002   5.344   8.692  2.2385 -0.8001  3.0202
  575MOL0     H77586   8.157   5.499   8.426  0.2286 -0.3285 -0.4504
  575MOL0     H77587   8.025   5.383   8.451 -1.2810  0.2619  2.6501
  575MOL0     H77588   7.983   5.542   8.395  0.6436  0.0169 -0.2962
  575MOL0     H77589   8.224   5.968   8.382 -1.6448 -1.3340 -0.3987
  575MOL0     H77590   8.273   6.194   8.310 -1.7951 -3.8046 -2.0165
  575MOL0     H77591   8.150   6.614   8.456 -0.0851 -0.7486 -1.1749
  575MOL0     H77592   8.100   6.514   8.587  1.9197  2.0883  1.3961
  575MOL0     H77593   8.310   6.599   8.658  3.2451 -4.4567  2.3979
  575MOL0     H77594   8.329   6.437   8.604 -2.3639  0.8708  1.6084
  575MOL0     H77595   8.359   6.600   8.372  0.8364 -0.8002  0.4085
  575MOL0     H77596   8.478   6.499   8.439 -0.3070 -0.1869  1.7225
  575MOL0     H77597   8.438   6.768   8.555 -0.4956 -0.5408 -0.9734
  575MOL0     H77598   8.571   6.659   8.579 -0.1562  0.4547  2.1134
  575MOL0     H77599   8.642   6.690   8.346  0.1410 -0.9174  1.9738
  575MOL0     H77600   8.640   6.837   8.440 -0.3433  0.6547 -0.5789
  575MOL0     H77601   8.566   6.875   8.204 -3.0775  4.7681 -0.7118
  575MOL0     H77602   8.429   6.756   8.237  0.6244 -2.6553  3.7567
  575MOL0     H77603   8.457   7.014   8.379 -1.7912  0.2054  0.8695
  575MOL0     H77604   8.329   6.896   8.398 -0.2185  2.1694  0.1200
  575MOL0     H77605   8.264   7.085   8.240  0.8623  0.2947 -2.8028
  575MOL0     H77606   8.264   6.932   8.151 -0.8388  2.1544 -1.1420
  575MOL0     H77607   7.977   6.344   8.616  1.7219  1.7378  0.1283
  575MOL0     H77608   7.908   6.120   8.641 -0.6582  1.0949  0.0684
  575MOL0     H77609   8.083   5.816   8.796  0.0068  0.2412  1.2526
  575MOL0     H77610   8.049   5.664   8.980  1.9683 -1.8698  0.0721
  575MOL0     H77611   7.375   6.997   8.910  3.4922  0.6749  0.6639
  575MOL0     H77612   7.487   7.128   8.727  1.3929  0.0908 -0.8710
  575MOL0     H77613   7.614   7.021   8.256  0.3036 -0.0718 -2.1298
  575MOL0     H77614   7.639   7.092   8.029  0.3946 -1.0746  0.9401
  575MOL0     H77615   7.763   7.265   7.880 -0.4262 -1.9657  1.1177
  575MOL0     H77616   7.616   7.200   7.814 -1.4831  0.7140 -1.9489
  575MOL0     H77617   7.750   7.362   7.660  0.6872  1.8940 -0.6717
  575MOL0     H77618   7.689   7.491   7.752  4.0381 -0.7251 -0.2859
  575MOL0     H77619   7.473   7.301   7.690  2.4288 -1.9980  0.0715
  575MOL0     H77620   7.549   7.352   7.540 -0.4764 -0.0301  0.2579
  575MOL0     H77621   7.375   7.520   7.558 -0.5836  1.3818  0.9684
  575MOL0     H77622   7.506   7.608   7.599  0.1418  0.7075  0.9341
  575MOL0     H77623   7.310   7.604   7.969  0.3617 -0.7801  0.9037
  575MOL0     H77624   7.538   7.486   8.154  1.4802  0.4564  1.2007
  575MOL0     H77625   7.565   7.418   8.402 -0.5773 -1.5097  1.0855
  576MOL0     O77626   9.590   7.169   3.660  0.8521  0.8498  0.4297
  576MOL0     C77627   9.659   7.205   3.563  0.4681 -0.1565 -0.8827
  576MOL0     O77628   9.795   7.202   3.560  0.8783 -0.0213  0.9428
  576MOL0     C77629   9.856   7.192   3.674 -0.4748  0.0235 -1.0203
  576MOL0     C77630   9.940   7.085   3.703  0.2034 -0.2512  0.2581
  576MOL0     C77631  10.013   7.071   3.818  0.1406  0.5073  0.4353
  576MOL0     C77632  10.005   7.171   3.918  0.2088 -0.6416  0.9044
  576MOL0     O77633  10.066   7.151   4.028 -0.2044 -0.2958 -0.0305
  576MOL0     C77634  10.199   7.094   4.028 -1.2236  0.6137  1.0435
  576MOL0     C77635  10.319   7.164   3.947 -0.4837 -0.7152 -0.9057
  576MOL0     C77636  10.345   7.301   4.008  0.2805 -0.8145 -0.2393
  576MOL0     C77637  10.470   7.385   3.972  0.4265  0.1049  0.8183
  576MOL0     C77638  10.474   7.421   3.827 -0.1213  0.5342  0.1120
  576MOL0     C77639  10.358   7.514   3.791  0.0989  0.7042  1.0931
  576MOL0     C77640  10.391   7.576   3.656  1.3188 -1.6224 -0.4743
  576MOL0     C77641  10.314   7.701   3.618 -0.0642 -0.1901  0.2951
  576MOL0     N77642  10.369   7.781   3.506  0.4253 -0.3811  0.1722
  576MOL0     C77643  10.299   7.863   3.426 -0.6737 -0.6115 -0.3340
  576MOL0     C77644  10.365   7.858   3.310  0.9992 -0.9612  0.1866
  576MOL0     C77645  10.324   7.923   3.185  0.2024  0.4075  0.0227
  576MOL0     C77646  10.252   7.818   3.097  0.5746 -0.7838  0.4248
  576MOL0     C77647  10.351   7.732   3.015  0.5462 -0.0806  1.6195
  576MOL0     C77648  10.278   7.631   2.923  0.6682  0.4119 -0.0183
  576MOL0     O77649  10.183   7.551   2.989 -0.2644  0.3463 -0.3409
  576MOL0     C77650  10.118   7.455   2.922  0.3694 -0.0215 -0.1889
  576MOL0     C77651  10.032   7.366   2.991 -0.5453 -0.5197 -0.8269
  576MOL0     C77652   9.967   7.260   2.924 -0.3758  0.4676 -0.0410
  576MOL0     C77653   9.877   7.162   2.995 -0.3204  0.7312 -0.5339
  576MOL0     C77654   9.992   7.238   2.785 -0.9945 -0.6102 -0.7600
  576MOL0     C77655   9.919   7.142   2.692 -0.4084 -0.1510  0.2997
  576MOL0     O77656   9.993   7.045   2.614  0.0043 -0.3980  0.5142
  576MOL0     C77657   9.939   6.977   2.509  1.2315 -0.0808  0.5441
  576MOL0     C77658  10.013   6.882   2.444 -0.6484 -0.9308  0.3405
  576MOL0     C77659   9.977   6.794   2.339  0.7368 -0.0254  0.4749
  576MOL0     C77660   9.846   6.800   2.289  0.2611 -0.0752 -0.1891
  576MOL0     O77661   9.824   6.715   2.186  0.3643  1.1744  0.0348
  576MOL0     C77662   9.702   6.731   2.111  0.5499 -0.0733 -0.3898
  576MOL0     C77663   9.709   6.657   1.972  0.5582 -0.2872  0.0127
  576MOL0     C77664   9.726   6.498   1.995  0.3153  0.1481 -0.6285
  576MOL0     C77665   9.876   6.468   1.999 -0.4665  0.8879 -0.0465
  576MOL0     C77666   9.919   6.362   2.101  0.4136  0.4183  0.0859
  576MOL0     C77667   9.932   6.411   2.244 -0.5104 -0.2318  0.4499
  576MOL0     C77668   9.998   6.308   2.339  0.2484 -0.6221  0.4316
  576MOL0     C77669  10.025   6.371   2.486  0.0495  0.6033  0.2555
  576MOL0    Cl77670  10.143   6.513   2.478 -0.1238  0.1568 -0.1553
  576MOL0     C77671   9.762   6.895   2.352  0.7717  0.8487 -0.5673
  576MOL0     C77672   9.803   6.977   2.463  0.3229 -0.4319  0.7409
  576MOL0     O77673   9.799   7.169   2.682  0.3639 -0.2976  0.2252
  576MOL0     C77674  10.074   7.328   2.720  0.8604 -0.6088  0.5035
  576MOL0     C77675  10.130   7.433   2.785  0.0098 -0.1216 -0.0202
  576MOL0     N77676  10.483   7.789   3.329  0.6481  0.8434  0.2810
  576MOL0     N77677  10.487   7.739   3.449  0.2527 -0.4426  0.1961
  576MOL0     C77678   9.938   7.284   3.891  0.4257 -0.4147 -1.5407
  576MOL0     C77679   9.863   7.297   3.775  0.5390 -0.1745  0.2449
  576MOL0     C77680   9.590   7.236   3.443 -0.2444 -0.2392 -0.6655
  576MOL0     C77681   9.457   7.267   3.446 -0.7432  0.3698  0.1148
  576MOL0     C77682   9.391   7.319   3.335 -0.6504  1.1865 -0.1815
  576MOL0     C77683   9.460   7.338   3.219  0.4197 -0.0614 -0.0225
  576MOL0     O77684   9.406   7.402   3.105 -0.0592 -0.2734  0.4129
  576MOL0     C77685   9.314   7.322   3.038  0.6983  0.9183  0.2604
  576MOL0     C77686   9.359   7.248   2.911 -0.3268 -0.0656  0.6135
  576MOL0     C77687   9.400   7.101   2.951  0.4576 -0.6395  1.3619
  576MOL0     C77688   9.442   7.021   2.827 -0.3105 -0.9516  0.6563
  576MOL0     C77689   9.336   7.013   2.724  0.0596 -0.2069 -0.5952
  576MOL0     C77690   9.244   7.004   2.643 -0.5692  0.1669  0.5387
  576MOL0     C77691   9.591   7.303   3.211  0.0422  0.5661 -0.0749
  576MOL0     C77692   9.657   7.260   3.320  0.0674 -0.0822  0.0908
  576MOL0     H77693   9.936   6.999   3.637  4.6856 -2.1654  2.0601
  576MOL0     H77694  10.058   6.974   3.835  1.0212  1.1202  1.8903
  576MOL0     H77695  10.238   7.094   4.130 -2.1738  0.7817  1.4093
  576MOL0     H77696  10.186   6.989   3.999 -1.7017  0.3429  2.1758
  576MOL0     H77697  10.409   7.101   3.945  1.5888  1.9347  0.6960
  576MOL0     H77698  10.299   7.168   3.839 -2.6905  2.3526 -0.5051
  576MOL0     H77699  10.253   7.359   4.002 -0.3805 -1.9971 -2.4800
  576MOL0     H77700  10.367   7.282   4.114  0.9160  5.3578  1.1021
  576MOL0     H77701  10.483   7.473   4.034  0.1288  0.7766 -0.0489
  576MOL0     H77702  10.557   7.319   3.981  1.8781  1.8535  0.0887
  576MOL0     H77703  10.570   7.470   3.808  0.0009  0.5351  0.6865
  576MOL0     H77704  10.473   7.327   3.772  2.0941 -0.2236  1.2227
  576MOL0     H77705  10.261   7.463   3.787  1.5882 -2.2641 -0.5945
  576MOL0     H77706  10.356   7.588   3.872 -2.9211  0.7782  1.0767
  576MOL0     H77707  10.498   7.600   3.661  0.8366  0.4715  1.1845
  576MOL0     H77708  10.372   7.507   3.573  0.1806 -0.2205 -1.4180
  576MOL0     H77709  10.299   7.764   3.707  1.9412 -1.8923  1.9276
  576MOL0     H77710  10.213   7.666   3.595 -0.4328  0.4713  0.8547
  576MOL0     H77711  10.204   7.911   3.449 -0.3992 -1.5139  3.1290
  576MOL0     H77712  10.263   8.012   3.197 -2.3058 -0.9277 -1.8406
  576MOL0     H77713  10.414   7.952   3.130 -0.3169  1.6155 -0.2163
  576MOL0     H77714  10.178   7.871   3.037  0.1340 -0.6340  1.0839
  576MOL0     H77715  10.200   7.748   3.163  1.9765 -3.0506 -0.7530
  576MOL0     H77716  10.412   7.668   3.079  1.0295 -0.7256  0.5324
  576MOL0     H77717  10.412   7.797   2.952  1.9405 -2.7492  0.0488
  576MOL0     H77718  10.354   7.564   2.882  0.3534 -0.4059  0.7112
  576MOL0     H77719  10.240   7.690   2.840  0.6549  0.3808 -0.0343
  576MOL0     H77720  10.017   7.385   3.096 -1.8894  2.9390 -1.5090
  576MOL0     H77721   9.900   7.157   3.102 -0.9493  3.4567 -0.1980
  576MOL0     H77722   9.774   7.190   2.971 -1.5630 -2.8993 -0.1626
  576MOL0     H77723   9.904   7.065   2.951  0.2581  0.7474 -0.2213
  576MOL0     H77724  10.111   6.870   2.488 -0.1318 -1.9699 -1.0446
  576MOL0     H77725  10.039   6.719   2.292  0.3470 -0.8265  1.2061
  576MOL0     H77726   9.618   6.687   2.165 -0.3683  1.1758 -0.7482
  576MOL0     H77727   9.681   6.836   2.090  3.4138  0.3328 -1.7353
  576MOL0     H77728   9.618   6.683   1.916 -0.8654 -0.4460  2.1370
  576MOL0     H77729   9.789   6.707   1.918  0.1001 -0.2952 -0.6875
  576MOL0     H77730   9.677   6.462   1.904  0.1034  4.9741 -2.7514
  576MOL0     H77731   9.674   6.481   2.089  0.9272  0.7044 -0.1765
  576MOL0     H77732   9.907   6.419   1.907 -0.0180  1.5657 -0.2626
  576MOL0     H77733   9.933   6.557   2.028  1.0110  0.3575 -1.2159
  576MOL0     H77734  10.013   6.316   2.072  1.2577  1.3119  1.2892
  576MOL0     H77735   9.843   6.283   2.093 -1.4514  1.9688  1.3023
  576MOL0     H77736   9.996   6.500   2.239 -1.6551  0.9061  3.7681
  576MOL0     H77737   9.833   6.446   2.272 -0.9377 -0.8628 -0.2444
  576MOL0     H77738  10.088   6.275   2.286 -0.8231  1.7516 -3.2581
  576MOL0     H77739   9.946   6.214   2.356  2.9578 -2.3039  0.0183
  576MOL0     H77740  10.073   6.291   2.542 -0.7575 -0.0349  0.0553
  576MOL0     H77741   9.932   6.391   2.541 -0.5058 -1.1877  0.0418
  576MOL0     H77742   9.656   6.904   2.334  0.5928 -0.7288 -0.4978
  576MOL0     H77743   9.740   7.064   2.482  1.8548  0.3373  2.7628
  576MOL0     H77744  10.081   7.312   2.613  1.5724 -0.8990  0.5914
  576MOL0     H77745  10.163   7.516   2.723  0.5430 -0.8109 -0.6980
  576MOL0     H77746   9.936   7.363   3.965 -0.0427 -2.5982  0.9476
  576MOL0     H77747   9.825   7.395   3.747  0.8558  0.2773  1.3625
  576MOL0     H77748   9.395   7.274   3.536  0.1543  0.2685  0.7561
  576MOL0     H77749   9.288   7.352   3.339 -0.1289  2.8110  0.6763
  576MOL0     H77750   9.279   7.242   3.105 -0.2126  0.5063 -0.6847
  576MOL0     H77751   9.224   7.376   3.007  1.2483  0.3247 -2.6586
  576MOL0     H77752   9.439   7.292   2.852  0.9181 -2.1799  0.6378
  576MOL0     H77753   9.277   7.232   2.840  0.7667 -0.0921 -0.6635
  576MOL0     H77754   9.313   7.057   3.000 -0.8686  0.3189 -0.0231
  576MOL0     H77755   9.487   7.101   3.018  1.8821 -2.3597 -0.3457
  576MOL0     H77756   9.476   6.922   2.858 -1.1308 -1.8700 -1.2520
  576MOL0     H77757   9.527   7.073   2.783 -0.7432  1.0507  2.0159
  576MOL0     H77758   9.163   6.999   2.573  2.4084  0.1047 -3.1904
  576MOL0     H77759   9.648   7.329   3.123  3.4962  0.6464  2.0263
  576MOL0     H77760   9.762   7.242   3.302 -0.5157 -1.3965 -2.3643
  577MOL0     O77761   8.895   4.159   6.323 -0.1708  0.2381  0.3662
  577MOL0     C77762   8.963   4.101   6.408 -0.1732  0.1143  0.2832
  577MOL0     O77763   9.098   4.082   6.398  0.1990  1.0533  0.1907
  577MOL0     C77764   9.168   4.139   6.304 -0.3842 -0.3912  0.9188
  577MOL0     C77765   9.204   4.282   6.316 -0.5368 -0.2589 -0.5830
  577MOL0     C77766   9.295   4.331   6.227 -0.7720 -0.3950 -0.6983
  577MOL0     C77767   9.372   4.238   6.141 -0.5916 -0.5571  0.3600
  577MOL0     O77768   9.474   4.292   6.060  0.5826  0.0086 -0.2676
  577MOL0     C77769   9.425   4.382   5.964 -0.6476 -0.0774 -0.8250
  577MOL0     C77770   9.476   4.318   5.833  0.3636 -0.3696  0.3762
  577MOL0     C77771   9.424   4.170   5.807  0.2698 -0.3793 -0.0700
  577MOL0     C77772   9.433   4.136   5.654 -1.8235 -0.2983  0.1852
  577MOL0     C77773   9.349   4.017   5.607 -0.5474  0.1470  1.3516
  577MOL0     C77774   9.374   3.967   5.463  0.1477 -0.3958  0.6053
  577MOL0     C77775   9.498   3.884   5.443  0.2535 -0.8332 -0.4208
  577MOL0     C77776   9.500   3.744   5.516 -0.1498 -0.1184  0.4342
  577MOL0     N77777   9.623   3.686   5.564 -0.9216  0.2801 -0.8642
  577MOL0     C77778   9.734   3.646   5.484  1.0039 -0.5404 -0.0416
  577MOL0     C77779   9.827   3.602   5.571  0.2228 -0.6490  0.4573
  577MOL0     C77780   9.960   3.564   5.520  0.1985  1.3167  1.1408
  577MOL0     C77781  10.027   3.474   5.625 -0.5742  0.7439 -0.4806
  577MOL0     C77782   9.991   3.321   5.611  0.6200  0.5518  0.0786
  577MOL0     C77783  10.021   3.244   5.735 -0.1916 -0.4215 -0.1763
  577MOL0     O77784  10.158   3.266   5.774 -0.6972 -0.2312  0.8536
  577MOL0     C77785  10.251   3.191   5.711 -0.0804  0.7517  0.0727
  577MOL0     C77786  10.383   3.220   5.723 -0.4498  0.3284 -0.3482
  577MOL0     C77787  10.484   3.162   5.657 -0.0708  0.9393  0.7514
  577MOL0     C77788  10.619   3.201   5.692  0.4194  0.1395  0.8598
  577MOL0     C77789  10.446   3.064   5.564  0.1935  0.5104  0.5776
  577MOL0     C77790  10.553   3.008   5.481 -0.0777  0.6389 -1.1433
  577MOL0     O77791  10.593   2.879   5.518  1.0109  0.1398  0.2456
  577MOL0     C77792  10.677   2.809   5.430  0.6442  0.1043  0.5024
  577MOL0     C77793  10.822   2.811   5.439  0.8509  0.7602  0.0618
  577MOL0     C77794  10.904   2.725   5.363 -0.7839 -0.1572 -0.4798
  577MOL0     C77795  10.853   2.638   5.272  1.0372 -0.4775 -0.5622
  577MOL0     O77796  10.924   2.551   5.195  0.4770  0.1068  0.1137
  577MOL0     C77797  11.065   2.548   5.205 -0.3820 -0.1293 -0.2349
  577MOL0     C77798  11.102   2.433   5.108 -0.1591  0.3774  0.2052
  577MOL0     C77799  11.046   2.293   5.156  0.2134  0.2526 -0.0683
  577MOL0     C77800  11.102   2.183   5.074  0.3483 -0.1460  0.8167
  577MOL0     C77801  11.024   2.167   4.937 -0.3112 -0.1313 -0.8200
  577MOL0     C77802  11.057   2.041   4.857 -0.2211 -0.7219 -0.5771
  577MOL0     C77803  10.974   2.023   4.724  0.2002 -0.5832  0.4773
  577MOL0     C77804  11.001   2.137   4.616  0.2627  0.3792  0.2788
  577MOL0    Cl77805  10.961   2.091   4.443  0.4280 -0.4899  0.5007
  577MOL0     C77806  10.712   2.637   5.258 -0.8522  0.2710  0.6354
  577MOL0     C77807  10.628   2.714   5.337 -0.7259 -0.0096 -0.0253
  577MOL0     O77808  10.610   3.077   5.397 -0.0702  0.1260 -0.0983
  577MOL0     C77809  10.313   3.029   5.537  0.1306  0.7267 -0.2948
  577MOL0     C77810  10.216   3.094   5.608 -1.2908 -0.4833  0.2111
  577MOL0     N77811   9.794   3.641   5.695  0.0660  0.2537  0.7986
  577MOL0     N77812   9.679   3.700   5.690  0.0681  0.0442 -0.1245
  577MOL0     C77813   9.346   4.103   6.139 -0.3399  0.0544  0.6290
  577MOL0     C77814   9.238   4.053   6.212 -0.0752 -0.5737 -0.2097
  577MOL0     C77815   8.899   4.065   6.534  0.1366  0.0335 -0.1501
  577MOL0     C77816   8.754   4.063   6.543  0.3051  0.0017  0.6516
  577MOL0     C77817   8.695   4.007   6.659 -0.0715 -0.6716  0.4104
  577MOL0     C77818   8.768   3.971   6.769  0.6660 -0.5458 -0.7629
  577MOL0     O77819   8.720   3.911   6.881  0.2787 -0.3836 -0.2867
  577MOL0     C77820   8.576   3.921   6.905 -0.3973  0.0217  0.6490
  577MOL0     C77821   8.527   3.897   7.046  0.0050 -0.8181 -0.1414
  577MOL0     C77822   8.604   3.988   7.134  0.2955 -0.8713  0.3004
  577MOL0     C77823   8.592   3.963   7.284 -0.8545  0.3924 -0.2266
  577MOL0     C77824   8.620   3.816   7.327  0.9386  1.1466 -0.1101
  577MOL0     C77825   8.622   3.697   7.352 -1.1096  0.2952 -0.1085
  577MOL0     C77826   8.908   3.987   6.759  0.8295 -0.0369 -0.3986
  577MOL0     C77827   8.972   4.042   6.649  1.0384 -0.4913  0.1457
  577MOL0     H77828   9.149   4.352   6.377  0.0828 -0.0297 -0.2808
  577MOL0     H77829   9.318   4.437   6.212 -0.5859  0.0820  2.3539
  577MOL0     H77830   9.318   4.405   5.967 -0.3464  1.7318 -2.0414
  577MOL0     H77831   9.465   4.483   5.977  0.4936 -0.2110 -2.8587
  577MOL0     H77832   9.444   4.385   5.753 -2.1128 -0.4648  1.1705
  577MOL0     H77833   9.585   4.319   5.837  0.3607 -0.1920  0.4184
  577MOL0     H77834   9.472   4.093   5.868  0.3460 -1.1828 -1.1216
  577MOL0     H77835   9.318   4.164   5.836 -0.8359  1.5601 -3.2052
  577MOL0     H77836   9.395   4.212   5.585  2.1358 -0.4225 -2.4468
  577MOL0     H77837   9.539   4.132   5.626 -2.3599 -1.8436 -1.8092
  577MOL0     H77838   9.360   3.940   5.684  2.6190 -1.4981 -0.5182
  577MOL0     H77839   9.248   4.057   5.598 -0.2966  0.4930 -0.2344
  577MOL0     H77840   9.287   3.915   5.424 -2.0238  0.0580  4.4104
  577MOL0     H77841   9.373   4.052   5.394 -0.0612  1.4448  2.7771
  577MOL0     H77842   9.507   3.870   5.335  4.6314 -3.2617  0.0199
  577MOL0     H77843   9.583   3.943   5.481  0.0428 -0.4175 -0.5893
  577MOL0     H77844   9.460   3.676   5.440 -0.5894  0.7429 -0.1141
  577MOL0     H77845   9.431   3.759   5.599  0.6546  0.5818  1.0011
  577MOL0     H77846   9.752   3.636   5.377  2.9293  0.4145  0.1617
  577MOL0     H77847   9.943   3.499   5.434 -0.3339  0.6061  1.7733
  577MOL0     H77848  10.030   3.647   5.504  0.9692  0.6725  1.1270
  577MOL0     H77849   9.996   3.499   5.727 -2.6219 -2.7312 -0.0863
  577MOL0     H77850  10.134   3.493   5.615 -0.7877  1.1396 -2.4708
  577MOL0     H77851  10.052   3.291   5.525 -1.2488  1.0228 -1.4999
  577MOL0     H77852   9.886   3.300   5.591  0.3921 -2.3980  3.3878
  577MOL0     H77853   9.999   3.139   5.717 -1.7269 -0.0240 -0.7737
  577MOL0     H77854   9.969   3.297   5.815  2.6808  1.5268  0.5883
  577MOL0     H77855  10.409   3.299   5.793  0.4981  0.5673 -0.9429
  577MOL0     H77856  10.690   3.148   5.629 -1.9574 -1.1227 -0.9242
  577MOL0     H77857  10.638   3.308   5.677 -2.2492  0.3449 -1.9140
  577MOL0     H77858  10.624   3.159   5.793 -1.0601 -0.4060  0.7379
  577MOL0     H77859  10.850   2.878   5.519  2.1639  3.4750 -2.4836
  577MOL0     H77860  11.012   2.729   5.373 -0.8575 -0.5057  0.5639
  577MOL0     H77861  11.118   2.638   5.174  0.8662 -0.6785  0.2296
  577MOL0     H77862  11.088   2.532   5.311  2.2806  0.8677 -0.5787
  577MOL0     H77863  11.070   2.469   5.009  1.7466  2.7332  0.3450
  577MOL0     H77864  11.209   2.423   5.088  0.5696  2.1152  2.7273
  577MOL0     H77865  10.937   2.296   5.146  0.2233 -0.0682 -0.2465
  577MOL0     H77866  11.071   2.273   5.261  2.3691  1.2058 -0.3503
  577MOL0     H77867  11.206   2.196   5.041  0.4354  0.6409  1.3553
  577MOL0     H77868  11.100   2.091   5.133 -0.3453 -0.7766 -0.1722
  577MOL0     H77869  11.053   2.256   4.880 -1.8834  0.7601 -0.2830
  577MOL0     H77870  10.915   2.171   4.946 -0.1314  0.8319  1.7139
  577MOL0     H77871  11.161   2.044   4.824  1.2370 -0.2559  3.4503
  577MOL0     H77872  11.049   1.953   4.922 -1.7377  0.3605  0.8063
  577MOL0     H77873  10.867   2.013   4.743  0.0551 -0.6550 -0.3331
  577MOL0     H77874  11.014   1.932   4.678 -0.3003 -1.5071  1.8286
  577MOL0     H77875  11.104   2.171   4.626  1.5635 -3.0448  0.0068
  577MOL0     H77876  10.934   2.219   4.644  0.2444 -0.8342  4.2979
  577MOL0     H77877  10.661   2.571   5.189 -2.4619  2.2933 -0.2342
  577MOL0     H77878  10.522   2.690   5.328  0.0019 -3.1059 -1.8189
  577MOL0     H77879  10.291   2.951   5.465  1.3471  0.4262 -0.3684
  577MOL0     H77880  10.117   3.056   5.584 -0.5761  0.8471 -6.8914
  577MOL0     H77881   9.405   4.039   6.073  1.4243 -1.3799  3.4098
  577MOL0     H77882   9.214   3.947   6.204  1.7972 -0.9643 -1.3795
  577MOL0     H77883   8.700   4.111   6.462  1.6147  0.0068 -0.2453
  577MOL0     H77884   8.587   4.014   6.658  0.0062  1.8462  1.1298
  577MOL0     H77885   8.518   4.005   6.865 -2.6064 -0.2902  2.9012
  577MOL0     H77886   8.534   3.837   6.850 -3.2150  2.0748 -0.5892
  577MOL0     H77887   8.557   3.795   7.075  0.6705  0.2525  3.3979
  577MOL0     H77888   8.419   3.915   7.048  0.5237  3.1522 -0.6222
  577MOL0     H77889   8.570   4.091   7.120  2.5004  0.0821  1.4112
  577MOL0     H77890   8.711   3.997   7.112  0.2136  1.2163  0.6053
  577MOL0     H77891   8.494   3.997   7.318 -1.4131 -3.0197  2.0610
  577MOL0     H77892   8.666   4.026   7.333 -1.1112  0.5301 -0.0104
  577MOL0     H77893   8.648   3.594   7.371 -0.3857  0.2595 -1.1860
  577MOL0     H77894   8.965   3.957   6.847  2.6809  2.0592 -0.7796
  577MOL0     H77895   9.080   4.057   6.645  1.0216 -0.5590 -1.2301
  578MOL0     O77896   6.098  10.746  10.428 -0.2623 -1.1188  0.2265
  578MOL0     C77897   5.973  10.745  10.445  0.3365  0.4905  0.4281
  578MOL0     O77898   5.877  10.780  10.355 -0.8312 -0.2112  0.1871
  578MOL0     C77899   5.914  10.799  10.222 -0.2977 -0.2352 -0.6084
  578MOL0     C77900   5.971  10.921  10.188  0.1052 -0.6690  1.3041
  578MOL0     C77901   6.017  10.944  10.061 -0.6008 -0.5470  0.0530
  578MOL0     C77902   5.996  10.840   9.966 -0.2574 -0.3796  0.7022
  578MOL0     O77903   6.041  10.864   9.834 -0.5205  1.0082 -0.7328
  578MOL0     C77904   5.941  10.833   9.731 -0.2575 -0.8908  0.8730
  578MOL0     C77905   6.024  10.811   9.590  0.5013  0.0037 -0.1935
  578MOL0     C77906   5.933  10.800   9.471  0.5992  0.6191  1.8035
  578MOL0     C77907   5.877  10.939   9.435  0.7921 -0.1120 -0.2510
  578MOL0     C77908   5.790  10.930   9.311  0.9526 -0.9345  0.2440
  578MOL0     C77909   5.728  11.072   9.276  0.7736 -0.7071 -1.2093
  578MOL0     C77910   5.846  11.167   9.238 -0.3416  0.2980 -0.3847
  578MOL0     C77911   5.808  11.300   9.181 -0.1227 -0.4807  0.6457
  578MOL0     N77912   5.924  11.391   9.157  0.1015 -0.3490 -0.1468
  578MOL0     C77913   5.978  11.485   9.242  0.0539 -0.5054 -0.7082
  578MOL0     C77914   6.077  11.548   9.175  0.7869  0.4144 -0.0521
  578MOL0     C77915   6.186  11.618   9.254  0.1619 -0.3988  0.4774
  578MOL0     C77916   6.308  11.520   9.264  1.8082 -0.0626  0.3309
  578MOL0     C77917   6.392  11.503   9.131  0.7524  0.5296 -0.6853
  578MOL0     C77918   6.499  11.393   9.153 -0.5955  0.2311 -0.5945
  578MOL0     O77919   6.432  11.286   9.226 -0.4980 -0.3707 -0.3223
  578MOL0     C77920   6.484  11.158   9.225  0.5418 -0.8258  0.1851
  578MOL0     C77921   6.383  11.066   9.217 -0.6157 -0.1081  0.4068
  578MOL0     C77922   6.416  10.924   9.232 -1.1286  0.9046 -0.1595
  578MOL0     C77923   6.307  10.817   9.224 -1.2908 -1.0687 -0.1797
  578MOL0     C77924   6.557  10.891   9.244 -0.6485 -0.2642 -0.6348
  578MOL0     C77925   6.618  10.764   9.283 -0.5953  0.2950  1.2286
  578MOL0     O77926   6.752  10.761   9.251 -0.8648  0.2114 -0.6664
  578MOL0     C77927   6.828  10.658   9.273 -0.2121  0.1033 -0.1130
  578MOL0     C77928   6.943  10.666   9.197  0.7153 -0.6809  0.4570
  578MOL0     C77929   7.033  10.554   9.203 -0.4310  0.8804 -0.0277
  578MOL0     C77930   7.028  10.453   9.299  0.1190 -0.7783  0.4814
  578MOL0     O77931   7.135  10.366   9.314  0.3529  0.3482  0.1092
  578MOL0     C77932   7.143  10.288   9.443 -0.3004  0.2060 -0.3419
  578MOL0     C77933   7.283  10.230   9.453 -0.3910  0.3732  0.3704
  578MOL0     C77934   7.308  10.153   9.584  0.1684 -0.2629  0.4010
  578MOL0     C77935   7.277  10.011   9.555 -0.2348  0.3561 -0.2179
  578MOL0     C77936   7.320   9.927   9.670  0.4149  0.2907 -0.3542
  578MOL0     C77937   7.318   9.781   9.642 -0.4195 -0.0305 -0.0129
  578MOL0     C77938   7.378   9.714   9.761  0.0031  0.0384  0.1680
  578MOL0     C77939   7.280   9.708   9.871 -0.3188  0.3651 -1.0636
  578MOL0    Cl77940   7.378   9.696  10.014  0.3655  0.2743  0.3279
  578MOL0     C77941   6.917  10.451   9.376 -0.1244 -0.3304  0.1803
  578MOL0     C77942   6.814  10.551   9.360 -0.3638  0.2209 -0.9056
  578MOL0     O77943   6.544  10.673   9.321  0.4003  1.1797 -0.2750
  578MOL0     C77944   6.652  11.001   9.238  0.4325 -0.5759  0.3359
  578MOL0     C77945   6.615  11.129   9.230  0.3829 -0.3557 -0.0341
  578MOL0     N77946   6.084  11.493   9.044  0.8203  0.1263  1.0516
  578MOL0     N77947   5.987  11.400   9.040 -0.5852  0.0108  0.2253
  578MOL0     C77948   5.952  10.712  10.001  0.6682 -0.3241  0.0390
  578MOL0     C77949   5.910  10.695  10.129 -0.8063 -0.4241 -0.5501
  578MOL0     C77950   5.929  10.725  10.587  0.6700 -0.7150 -1.0702
  578MOL0     C77951   5.796  10.739  10.625  0.3670  0.2816  0.1908
  578MOL0     C77952   5.754  10.717  10.761  0.7538 -0.4385  0.1550
  578MOL0     C77953   5.839  10.701  10.865 -0.2784  0.6533  0.4259
  578MOL0     O77954   5.799  10.684  10.992 -0.3441  0.4664  0.1967
  578MOL0     C77955   5.663  10.732  11.036  0.1218  0.2841 -0.2051
  578MOL0     C77956   5.660  10.711  11.191  0.5997 -0.9646  0.0746
  578MOL0     C77957   5.530  10.787  11.248 -0.9058  0.0644  0.2183
  578MOL0     C77958   5.409  10.697  11.230 -0.2694 -0.7026 -0.3935
  578MOL0     C77959   5.344  10.656  11.355  0.8408 -0.0343  0.1863
  578MOL0     C77960   5.295  10.602  11.446  0.1481  0.3300 -0.0264
  578MOL0     C77961   5.974  10.692  10.826  0.8976  0.0176 -0.0473
  578MOL0     C77962   6.017  10.707  10.695 -0.0413  0.1551 -0.4108
  578MOL0     H77963   5.988  10.994  10.266  3.3725  1.0011 -0.7637
  578MOL0     H77964   6.082  11.028  10.038  2.4814 -3.0314 -1.1576
  578MOL0     H77965   5.866  10.756   9.751  0.2303 -1.8836 -0.8443
  578MOL0     H77966   5.885  10.925   9.718  1.0224 -0.2191 -0.1851
  578MOL0     H77967   6.085  10.898   9.563  0.6865  0.2571  0.9887
  578MOL0     H77968   6.074  10.714   9.594 -1.5802 -1.1078  1.1330
  578MOL0     H77969   5.990  10.744   9.396 -0.1134 -0.4377  2.0295
  578MOL0     H77970   5.845  10.738   9.486  0.5809  0.4758  1.1232
  578MOL0     H77971   5.824  10.990   9.515  0.1288 -0.1940 -0.6278
  578MOL0     H77972   5.960  11.007   9.414  0.9341 -0.3761 -0.5569
  578MOL0     H77973   5.865  10.897   9.238  1.0120  0.2267 -0.2556
  578MOL0     H77974   5.707  10.860   9.308  0.4123 -0.2982  0.0278
  578MOL0     H77975   5.659  11.056   9.192 -0.1355  1.5495 -0.9672
  578MOL0     H77976   5.667  11.116   9.355  0.9386  1.4336 -2.1901
  578MOL0     H77977   5.906  11.189   9.327  0.1295 -1.3612 -0.2652
  578MOL0     H77978   5.901  11.101   9.170  0.4267 -1.7716  2.1135
  578MOL0     H77979   5.739  11.359   9.242  1.4822 -0.9593  3.0468
  578MOL0     H77980   5.764  11.279   9.083 -0.5060  2.1233  0.2086
  578MOL0     H77981   5.974  11.491   9.351  0.9338 -0.2284 -0.6870
  578MOL0     H77982   6.209  11.719   9.219 -1.4400 -0.6741 -1.5656
  578MOL0     H77983   6.144  11.635   9.354  1.6034 -1.9065  1.4060
  578MOL0     H77984   6.265  11.421   9.286 -0.3571  0.5093 -1.0472
  578MOL0     H77985   6.373  11.546   9.348  1.2453 -1.3474  1.2108
  578MOL0     H77986   6.436  11.596   9.095 -2.2360  1.1506 -3.0514
  578MOL0     H77987   6.323  11.462   9.058  0.1578  1.1457 -0.4718
  578MOL0     H77988   6.585  11.433   9.208 -2.2265  4.1762 -0.5876
  578MOL0     H77989   6.537  11.357   9.057 -1.6764  0.0855 -0.9831
  578MOL0     H77990   6.280  11.098   9.224 -1.1531 -0.7899 -3.0120
  578MOL0     H77991   6.279  10.784   9.324 -0.3230 -0.0985  0.4360
  578MOL0     H77992   6.220  10.862   9.176 -1.7727  1.1593  2.4988
  578MOL0     H77993   6.349  10.729   9.176  3.0947  0.9466 -0.5876
  578MOL0     H77994   6.950  10.759   9.142  1.3310 -0.6435  0.5952
  578MOL0     H77995   7.119  10.548   9.137 -0.5826  0.6814 -0.2091
  578MOL0     H77996   7.115  10.345   9.532  2.8710  0.8700  0.3812
  578MOL0     H77997   7.066  10.212   9.432  0.0033 -0.1426 -0.0765
  578MOL0     H77998   7.311  10.172   9.365  2.9362  1.6952  0.4112
  578MOL0     H77999   7.361  10.304   9.433  2.4220 -2.8386 -1.6031
  578MOL0     H78000   7.241  10.188   9.664 -2.8914 -3.4624 -0.5399
  578MOL0     H78001   7.412  10.167   9.616 -0.3142  0.2902  1.8105
  578MOL0     H78002   7.170  10.010   9.530  0.1954  0.9868 -2.2845
  578MOL0     H78003   7.345   9.980   9.475 -1.0405  1.6294 -1.4490
  578MOL0     H78004   7.230   9.933   9.732  0.8006 -1.9486  0.4885
  578MOL0     H78005   7.411   9.965   9.716  1.0314 -1.6244  0.0909
  578MOL0     H78006   7.222   9.732   9.624  0.8678 -3.8288  2.2158
  578MOL0     H78007   7.380   9.759   9.554  1.8078  0.8694  1.2400
  578MOL0     H78008   7.469   9.769   9.790 -2.4160  4.2016  0.7156
  578MOL0     H78009   7.409   9.611   9.740  1.0872  0.4616 -0.3712
  578MOL0     H78010   7.227   9.613   9.869  0.1742  0.0151  0.4746
  578MOL0     H78011   7.213   9.791   9.893  1.1431  1.2709  0.2365
  578MOL0     H78012   6.897  10.369   9.443  0.0729 -1.7393 -1.4127
  578MOL0     H78013   6.732  10.545   9.430  0.8064  0.6280  0.5715
  578MOL0     H78014   6.760  10.992   9.252  0.6756  2.1692  0.8027
  578MOL0     H78015   6.706  11.188   9.227  0.1917  0.0201  1.0333
  578MOL0     H78016   5.949  10.626   9.935 -1.1124 -2.9700  3.3170
  578MOL0     H78017   5.881  10.592  10.146 -0.6491 -0.4799 -0.6149
  578MOL0     H78018   5.719  10.767  10.554  0.1922  1.0032  0.6558
  578MOL0     H78019   5.649  10.738  10.776  1.6398  4.2902  1.4575
  578MOL0     H78020   5.640  10.836  11.010 -1.0506  0.3342  0.9395
  578MOL0     H78021   5.579  10.676  10.993 -0.4252 -0.0254  1.2206
  578MOL0     H78022   5.740  10.762  11.246  0.1401 -0.4449  0.2619
  578MOL0     H78023   5.644  10.603  11.197 -3.1385 -0.4619  1.4777
  578MOL0     H78024   5.520  10.878  11.188 -1.4716 -0.1820 -0.0675
  578MOL0     H78025   5.542  10.827  11.349 -1.1860  2.2665 -0.5716
  578MOL0     H78026   5.427  10.597  11.189 -4.2119 -0.9031 -2.1371
  578MOL0     H78027   5.346  10.740  11.151  2.0720  0.1938 -1.8938
  578MOL0     H78028   5.250  10.560  11.534 -0.6258  0.3062 -0.4215
  578MOL0     H78029   6.063  10.681  10.887  0.7387 -1.5281 -0.0717
  578MOL0     H78030   6.123  10.706  10.674 -0.5242 -1.9243 -3.3514
  579MOL0     O78031   9.027  10.582   2.713  1.0073 -0.2788 -0.7216
  579MOL0     C78032   9.086  10.512   2.794  0.2046  0.1811 -0.7297
  579MOL0     O78033   9.035  10.463   2.909  0.9437  0.1514 -0.1748
  579MOL0     C78034   8.898  10.468   2.924  0.3174 -0.2380 -0.2328
  579MOL0     C78035   8.847  10.500   3.051 -0.1278  0.8354 -0.3540
  579MOL0     C78036   8.703  10.491   3.070  0.1100 -0.1269  0.4409
  579MOL0     C78037   8.624  10.459   2.966 -0.3594 -0.1499  1.0314
  579MOL0     O78038   8.486  10.469   2.975 -0.4036 -0.2555  0.3932
  579MOL0     C78039   8.415  10.523   3.084  1.3246 -0.4763  0.4007
  579MOL0     C78040   8.272  10.559   3.053 -0.8758  0.1774 -0.2805
  579MOL0     C78041   8.256  10.687   2.969 -0.6516 -0.3570  0.4130
  579MOL0     C78042   8.277  10.804   3.071 -0.6148 -0.8739 -0.1940
  579MOL0     C78043   8.218  10.934   3.022 -0.4260  0.6342  0.2187
  579MOL0     C78044   8.237  11.041   3.128 -0.1861 -0.7814  0.3172
  579MOL0     C78045   8.160  11.173   3.083 -0.0497 -0.6032 -0.2019
  579MOL0     C78046   8.008  11.151   3.104  0.5448  0.5815  0.0988
  579MOL0     N78047   7.940  11.281   3.117  0.1612  0.4012 -0.8113
  579MOL0     C78048   7.956  11.379   3.026 -0.6380  0.9665 -0.2612
  579MOL0     C78049   7.888  11.481   3.077 -1.0890  0.7296 -0.1190
  579MOL0     C78050   7.889  11.614   3.002 -0.2927  0.1921 -0.3900
  579MOL0     C78051   7.830  11.731   3.086  0.1998  1.3161 -0.5653
  579MOL0     C78052   7.833  11.860   3.022 -0.7265 -0.5578 -0.0726
  579MOL0     C78053   7.725  11.879   2.907 -0.7548  0.6750  0.6624
  579MOL0     O78054   7.600  11.902   2.975 -0.9479 -1.5222  0.3100
  579MOL0     C78055   7.576  12.026   3.040  0.6342  0.4898 -0.2866
  579MOL0     C78056   7.452  12.037   3.103  0.6717  0.2687 -0.4619
  579MOL0     C78057   7.408  12.156   3.158 -0.3743  0.0473  0.0298
  579MOL0     C78058   7.269  12.160   3.215 -0.5564 -0.5293 -0.8990
  579MOL0     C78059   7.486  12.282   3.140 -1.0744 -0.9956  0.0473
  579MOL0     C78060   7.459  12.414   3.205  0.0951  0.0676 -0.0614
  579MOL0     O78061   7.493  12.530   3.129 -0.4889  0.6414  0.4406
  579MOL0     C78062   7.486  12.652   3.188 -0.6813  0.0829 -0.2888
  579MOL0     C78063   7.527  12.674   3.320  0.2883 -0.1331 -0.1337
  579MOL0     C78064   7.516  12.802   3.381  0.3286 -0.4884 -0.2571
  579MOL0     C78065   7.463  12.910   3.310  0.3103  0.4718  0.3886
  579MOL0     O78066   7.446  13.037   3.366  0.2799  0.4467 -0.0293
  579MOL0     C78067   7.306  13.069   3.397  0.1456 -0.2410 -0.1108
  579MOL0     C78068   7.298  13.209   3.458 -0.1874  0.2878  0.5177
  579MOL0     C78069   7.158  13.253   3.506  1.1281 -0.3674  0.3339
  579MOL0     C78070   7.061  13.256   3.385  0.5871  0.7912  0.2947
  579MOL0     C78071   6.956  13.369   3.413  0.5308  0.3165  0.1806
  579MOL0     C78072   6.879  13.405   3.280 -1.2239  0.9697  0.4846
  579MOL0     C78073   6.744  13.469   3.315  0.1124  0.4178  0.7151
  579MOL0     C78074   6.651  13.478   3.194  0.7938  0.1080  0.8954
  579MOL0    Cl78075   6.476  13.517   3.230  0.4167 -0.4739 -0.3419
  579MOL0     C78076   7.451  12.890   3.176  0.2931  0.6168 -0.0176
  579MOL0     C78077   7.459  12.771   3.112 -0.6653 -0.2376  1.1233
  579MOL0     O78078   7.406  12.412   3.314 -0.3450  0.0419  0.1710
  579MOL0     C78079   7.606  12.265   3.074  0.5417  0.0505  1.0368
  579MOL0     C78080   7.653  12.148   3.020  0.0373  0.6387 -0.0163
  579MOL0     N78081   7.833  11.447   3.204  0.2558 -0.1769  0.9017
  579MOL0     N78082   7.859  11.321   3.220 -1.3359  0.1665  0.0660
  579MOL0     C78083   8.682  10.426   2.843  0.0968 -0.3499  0.3615
  579MOL0     C78084   8.811  10.434   2.814 -1.6235  0.6844 -0.1942
  579MOL0     C78085   9.229  10.479   2.779 -0.0399 -0.2256  0.6260
  579MOL0     C78086   9.309  10.389   2.858  0.8428  0.1162  0.4340
  579MOL0     C78087   9.439  10.352   2.831 -0.2390  0.3708  0.4415
  579MOL0     C78088   9.506  10.412   2.733 -0.6835 -0.2470 -0.5957
  579MOL0     O78089   9.624  10.369   2.681 -0.2046 -0.0115  0.2973
  579MOL0     C78090   9.658  10.223   2.689  0.3005 -0.2175  0.2042
  579MOL0     C78091   9.781  10.186   2.607  0.2934  0.3146  0.3616
  579MOL0     C78092   9.769  10.228   2.455 -0.1428  0.5263 -0.4027
  579MOL0     C78093   9.654  10.154   2.388  0.0546  0.1628  0.4222
  579MOL0     C78094   9.664  10.169   2.236  0.0117  0.2658 -0.1060
  579MOL0     C78095   9.678  10.185   2.114 -0.5104 -0.6559 -0.2639
  579MOL0     C78096   9.439  10.522   2.669 -0.2183 -0.1643 -0.5355
  579MOL0     C78097   9.304  10.553   2.686  0.1833  0.3113 -0.5852
  579MOL0     H78098   8.914  10.525   3.133  2.4832 -1.6052 -1.5750
  579MOL0     H78099   8.662  10.536   3.159  1.2672  2.2495 -0.1640
  579MOL0     H78100   8.398  10.442   3.155  2.0521 -1.2295 -0.2574
  579MOL0     H78101   8.463  10.601   3.144 -1.5128  1.0633  0.8546
  579MOL0     H78102   8.244  10.482   2.981  0.7026 -1.7933  1.1067
  579MOL0     H78103   8.214  10.565   3.145  0.6195  0.1509  0.7033
  579MOL0     H78104   8.330  10.690   2.889 -2.2016 -0.3843 -1.0683
  579MOL0     H78105   8.156  10.697   2.925 -0.2554 -1.6281 -0.8721
  579MOL0     H78106   8.241  10.790   3.173 -0.5752 -0.3206 -0.1004
  579MOL0     H78107   8.382  10.829   3.091 -1.3371  0.1364  2.9407
  579MOL0     H78108   8.264  10.962   2.927 -1.7470 -0.9762 -0.9474
  579MOL0     H78109   8.110  10.917   3.014 -0.4183 -0.7580  2.3242
  579MOL0     H78110   8.203  11.008   3.226  0.5535 -0.5052  0.6755
  579MOL0     H78111   8.342  11.063   3.150 -0.6218  2.1641 -0.2344
  579MOL0     H78112   8.194  11.246   3.157 -3.0390  1.0922 -0.3456
  579MOL0     H78113   8.176  11.209   2.981 -1.6656  1.4896  0.2120
  579MOL0     H78114   7.986  11.102   3.199  2.8435  1.0791  0.9593
  579MOL0     H78115   7.973  11.091   3.020  0.3423 -0.3789  0.8620
  579MOL0     H78116   8.014  11.361   2.936  0.2764  0.0588  0.4892
  579MOL0     H78117   7.993  11.631   2.973  0.9492 -0.8515  3.0634
  579MOL0     H78118   7.822  11.602   2.916 -0.1662  5.3220 -1.5774
  579MOL0     H78119   7.905  11.731   3.165  0.6346 -1.7848 -0.8709
  579MOL0     H78120   7.728  11.714   3.121  0.5564  0.9126  0.2848
  579MOL0     H78121   7.933  11.881   2.984 -1.2301  1.1447 -0.5476
  579MOL0     H78122   7.804  11.934   3.098 -1.9149 -1.2783  0.2164
  579MOL0     H78123   7.715  11.789   2.845 -2.6183 -0.5187  2.5437
  579MOL0     H78124   7.741  11.961   2.837 -3.7612  1.7930  1.1342
  579MOL0     H78125   7.392  11.946   3.111 -1.6122  1.5895 -1.6890
  579MOL0     H78126   7.213  12.067   3.211 -0.1027 -0.8684  0.1438
  579MOL0     H78127   7.286  12.175   3.322  1.9712  0.2429 -1.3301
  579MOL0     H78128   7.218  12.247   3.173  3.0430  2.0529 -0.3883
  579MOL0     H78129   7.569  12.594   3.381  0.2549 -1.3762 -1.6659
  579MOL0     H78130   7.529  12.828   3.486 -0.5278  0.3891 -0.3586
  579MOL0     H78131   7.241  13.050   3.310 -0.7479  0.3682  0.4128
  579MOL0     H78132   7.279  12.992   3.470 -0.7476 -0.5477 -0.7434
  579MOL0     H78133   7.376  13.220   3.534  1.7674  1.0293 -1.4695
  579MOL0     H78134   7.332  13.277   3.379 -0.2464  0.8281  0.9513
  579MOL0     H78135   7.169  13.353   3.548  1.9121  0.1335 -1.0245
  579MOL0     H78136   7.099  13.197   3.580 -3.7647  0.7999 -2.2216
  579MOL0     H78137   7.113  13.263   3.289  0.5026 -1.2335  0.0492
  579MOL0     H78138   7.003  13.163   3.375  0.3140  1.1770 -3.0163
  579MOL0     H78139   7.014  13.453   3.453  1.2310 -0.4219  0.7394
  579MOL0     H78140   6.889  13.345   3.496 -0.1237 -1.5272 -0.8250
  579MOL0     H78141   6.940  13.476   3.223  1.4213 -2.2129 -1.0683
  579MOL0     H78142   6.881  13.311   3.223  1.5021 -0.7058  3.0196
  579MOL0     H78143   6.752  13.569   3.357 -3.0960  0.6386  1.0415
  579MOL0     H78144   6.690  13.403   3.383 -2.3190 -3.3734 -4.2149
  579MOL0     H78145   6.647  13.381   3.143  0.5674 -1.4079  3.5920
  579MOL0     H78146   6.694  13.550   3.124 -0.0862  1.1155  1.3519
  579MOL0     H78147   7.439  12.973   3.107  1.1247  0.0619 -0.8640
  579MOL0     H78148   7.429  12.770   3.007 -1.4494 -1.8677  1.3281
  579MOL0     H78149   7.653  12.360   3.052 -0.7165  0.2576 -0.9988
  579MOL0     H78150   7.737  12.159   2.952 -0.1533  3.0023  0.0409
  579MOL0     H78151   8.608  10.401   2.768 -0.2255  0.5622  0.3588
  579MOL0     H78152   8.842  10.380   2.725 -1.4729 -2.0825  1.4090
  579MOL0     H78153   9.271  10.340   2.947  0.1338  1.5549  0.9540
  579MOL0     H78154   9.477  10.262   2.878 -1.1218 -0.2705 -0.0289
  579MOL0     H78155   9.664  10.201   2.796 -0.3498 -0.6727  0.1527
  579MOL0     H78156   9.574  10.164   2.651  0.0614 -0.5663  1.2284
  579MOL0     H78157   9.801  10.079   2.621  0.2051 -0.2408 -3.0083
  579MOL0     H78158   9.862  10.253   2.637  1.3495  0.2030 -2.0343
  579MOL0     H78159   9.859  10.201   2.398 -0.3592 -1.1569  0.0173
  579MOL0     H78160   9.747  10.335   2.448 -2.5079  0.1431  0.3214
  579MOL0     H78161   9.554  10.192   2.412 -1.0764 -0.2411 -3.0432
  579MOL0     H78162   9.658  10.048   2.415  0.0140 -0.4934 -1.9178
  579MOL0     H78163   9.695  10.195   2.009 -0.8652 -1.6519 -0.4222
  579MOL0     H78164   9.487  10.578   2.589  0.5271  0.3221  0.2374
  579MOL0     H78165   9.248  10.619   2.621 -0.4480 -0.8684 -1.2699
  580MOL0     O78166   4.852   9.090   3.941  0.2485 -1.5524  0.5360
  580MOL0     C78167   4.829   9.208   3.930  0.1092  1.0315  0.7091
  580MOL0     O78168   4.904   9.309   3.985 -1.1226  0.0327  0.3832
  580MOL0     C78169   5.027   9.293   4.048  0.0850  0.5984  0.3803
  580MOL0     C78170   5.068   9.179   4.119  0.2952 -0.1618  0.2016
  580MOL0     C78171   5.188   9.179   4.198 -0.2738  0.0435 -0.0561
  580MOL0     C78172   5.265   9.299   4.206  0.1499  0.5817  0.1702
  580MOL0     O78173   5.375   9.298   4.293 -0.1113 -0.5079  0.9913
  580MOL0     C78174   5.485   9.369   4.240  0.0947  0.3518 -0.2589
  580MOL0     C78175   5.609   9.313   4.311 -0.0562 -0.2112 -0.6551
  580MOL0     C78176   5.637   9.396   4.446 -0.1698 -0.8671 -0.2421
  580MOL0     C78177   5.773   9.366   4.505  0.4419  0.3444 -1.3225
  580MOL0     C78178   5.825   9.470   4.616 -0.3703  0.2318 -0.1884
  580MOL0     C78179   5.766   9.449   4.749  0.1561 -0.6925  0.5738
  580MOL0     C78180   5.831   9.547   4.854 -1.1344 -0.0903 -0.4029
  580MOL0     C78181   5.956   9.481   4.920  0.2154 -0.0892 -0.8736
  580MOL0     N78182   6.073   9.486   4.829  0.3135  0.0214 -0.0417
  580MOL0     C78183   6.125   9.377   4.765 -0.5241 -0.5864  0.2532
  580MOL0     C78184   6.213   9.438   4.684  0.0145 -0.9861  1.0681
  580MOL0     C78185   6.298   9.360   4.591 -0.4155 -0.0297 -0.8467
  580MOL0     C78186   6.216   9.314   4.463 -0.2469  0.1575  0.3854
  580MOL0     C78187   6.160   9.425   4.370 -0.1838  0.3296 -1.1327
  580MOL0     C78188   6.271   9.473   4.284  0.1620  0.0134  0.3938
  580MOL0     O78189   6.306   9.373   4.182  0.5217  0.3185  0.2898
  580MOL0     C78190   6.229   9.359   4.067  0.3502 -0.2629 -0.1623
  580MOL0     C78191   6.259   9.251   3.983  0.3919 -0.8556 -0.5834
  580MOL0     C78192   6.193   9.224   3.858 -0.3035 -0.4558  0.4253
  580MOL0     C78193   6.201   9.088   3.783  0.3516  0.2329  0.0233
  580MOL0     C78194   6.094   9.325   3.821 -1.1669  0.6428  0.5819
  580MOL0     C78195   6.012   9.329   3.699  0.2599 -0.6731 -1.5730
  580MOL0     O78196   5.887   9.391   3.712  0.1609 -0.3721 -0.3127
  580MOL0     C78197   5.798   9.385   3.602 -0.6401 -0.4228 -0.4262
  580MOL0     C78198   5.755   9.267   3.541 -0.8611  0.0787 -0.1294
  580MOL0     C78199   5.685   9.268   3.424  0.7251 -0.3991 -0.5435
  580MOL0     C78200   5.624   9.397   3.388 -0.9180  0.4107  0.4369
  580MOL0     O78201   5.534   9.401   3.280 -1.0297 -0.0840 -0.2271
  580MOL0     C78202   5.599   9.424   3.154 -0.5487 -0.6036  0.1262
  580MOL0     C78203   5.493   9.465   3.052  0.0203 -0.0811 -0.1680
  580MOL0     C78204   5.354   9.401   3.074 -0.3583  0.1205 -0.2379
  580MOL0     C78205   5.253   9.467   2.985  0.6308  0.1352 -0.1161
  580MOL0     C78206   5.130   9.381   2.956 -0.4772  0.2286 -0.1461
  580MOL0     C78207   5.070   9.415   2.831  0.3433 -0.6813 -0.1446
  580MOL0     C78208   4.942   9.334   2.798  1.4235  0.5641  0.1782
  580MOL0     C78209   4.815   9.414   2.848 -0.4682 -0.4535  0.4186
  580MOL0    Cl78210   4.773   9.560   2.760 -0.2302  0.1774  0.1103
  580MOL0     C78211   5.639   9.508   3.462  0.0938 -0.7838 -0.6244
  580MOL0     C78212   5.732   9.509   3.568 -0.6393  0.3072  0.2693
  580MOL0     O78213   6.066   9.286   3.603  0.7783 -0.4067  0.3210
  580MOL0     C78214   6.082   9.434   3.907  0.2604  0.5377  0.6403
  580MOL0     C78215   6.145   9.456   4.020 -0.6736 -0.6856 -0.2477
  580MOL0     N78216   6.212   9.570   4.694 -0.9044  0.8374  0.9336
  580MOL0     N78217   6.118   9.602   4.777 -0.1933 -0.3726  0.2870
  580MOL0     C78218   5.234   9.397   4.121  0.5746 -0.8783 -0.0293
  580MOL0     C78219   5.123   9.395   4.040 -0.5682 -0.0735  0.4398
  580MOL0     C78220   4.706   9.250   3.858  0.7710  0.3732 -0.4779
  580MOL0     C78221   4.625   9.154   3.793 -0.4970 -0.2050  0.2287
  580MOL0     C78222   4.507   9.194   3.727 -0.3748  0.1728  0.2455
  580MOL0     C78223   4.477   9.332   3.730 -0.4754 -0.4089 -0.5471
  580MOL0     O78224   4.353   9.383   3.694 -0.5223  0.3853  0.4868
  580MOL0     C78225   4.329   9.526   3.666 -0.0952  0.1124  0.8802
  580MOL0     C78226   4.197   9.532   3.578  0.2350 -1.5736  0.1979
  580MOL0     C78227   4.217   9.471   3.439 -0.2884  0.7113  0.3475
  580MOL0     C78228   4.090   9.490   3.351 -0.0026 -0.2514  0.9321
  580MOL0     C78229   4.035   9.624   3.359  0.3924 -0.6938  0.3255
  580MOL0     C78230   3.986   9.735   3.368 -0.3150 -0.1907 -0.6620
  580MOL0     C78231   4.568   9.420   3.794  0.2513  0.2290  0.1105
  580MOL0     C78232   4.678   9.384   3.855 -0.2618  0.1369  0.4409
  580MOL0     H78233   5.003   9.092   4.119  0.3523 -0.2926 -2.2507
  580MOL0     H78234   5.204   9.091   4.260  0.3907  0.7462  0.8091
  580MOL0     H78235   5.494   9.340   4.135  0.5681 -2.0499  0.3845
  580MOL0     H78236   5.475   9.477   4.255 -1.5196  0.7693 -3.6011
  580MOL0     H78237   5.579   9.210   4.335  0.7319  0.5476  5.0194
  580MOL0     H78238   5.707   9.309   4.261 -0.3550 -3.0331 -1.1889
  580MOL0     H78239   5.642   9.499   4.409  1.6142 -0.3447  1.2938
  580MOL0     H78240   5.559   9.381   4.520  0.6778 -0.5788  0.7438
  580MOL0     H78241   5.759   9.267   4.551 -1.7836  1.0434 -0.3052
  580MOL0     H78242   5.852   9.339   4.436  2.0392 -1.8119  1.1621
  580MOL0     H78243   5.934   9.465   4.626 -0.5979 -2.2175  2.8564
  580MOL0     H78244   5.793   9.572   4.595 -0.4372  0.6023  1.5375
  580MOL0     H78245   5.659   9.468   4.761  0.6481  1.1223  3.0731
  580MOL0     H78246   5.771   9.342   4.767  2.2686 -1.4242 -3.4060
  580MOL0     H78247   5.856   9.648   4.822  3.0008 -1.6679 -3.0194
  580MOL0     H78248   5.753   9.555   4.931  0.2753 -0.3568  1.1180
  580MOL0     H78249   5.926   9.379   4.943  2.4107 -0.3507  1.2325
  580MOL0     H78250   5.971   9.520   5.021 -3.6262 -2.7327  0.9550
  580MOL0     H78251   6.109   9.272   4.784 -0.3023 -1.2636 -2.7356
  580MOL0     H78252   6.390   9.411   4.561 -0.5530 -0.7722 -2.6292
  580MOL0     H78253   6.338   9.278   4.651 -1.2067 -0.2741 -0.6379
  580MOL0     H78254   6.138   9.242   4.490  2.0238 -3.1534 -1.1904
  580MOL0     H78255   6.261   9.242   4.394 -4.5038 -1.1190 -1.4445
  580MOL0     H78256   6.119   9.507   4.430 -1.8996 -0.8212 -0.6395
  580MOL0     H78257   6.069   9.391   4.319 -1.3725  0.2999  0.8843
  580MOL0     H78258   6.352   9.482   4.356  1.6179 -2.6642 -0.7811
  580MOL0     H78259   6.242   9.571   4.246 -0.7096 -0.2392  0.3916
  580MOL0     H78260   6.328   9.186   4.036 -1.3251 -1.6788  0.7447
  580MOL0     H78261   6.106   9.033   3.784  0.2578  0.2259  3.3254
  580MOL0     H78262   6.239   9.113   3.684  2.1401  0.1057  0.6517
  580MOL0     H78263   6.283   9.020   3.808  0.9599  0.6180 -0.8920
  580MOL0     H78264   5.788   9.169   3.573 -1.1968 -0.0469 -0.1676
  580MOL0     H78265   5.661   9.175   3.373  0.3746  0.1056 -1.3105
  580MOL0     H78266   5.667   9.510   3.151 -1.5114  0.1732 -0.1870
  580MOL0     H78267   5.661   9.342   3.116  2.5377  1.9628 -0.8681
  580MOL0     H78268   5.487   9.575   3.054 -1.3858 -0.1367 -0.2551
  580MOL0     H78269   5.529   9.440   2.951  0.1929  2.1721 -0.7193
  580MOL0     H78270   5.306   9.397   3.172 -2.3752  2.5927 -1.0113
  580MOL0     H78271   5.352   9.302   3.027  1.3755  1.4899 -3.4897
  580MOL0     H78272   5.210   9.560   3.023 -2.5926 -1.0810 -0.4359
  580MOL0     H78273   5.304   9.498   2.893 -1.8956  4.8699 -0.2338
  580MOL0     H78274   5.067   9.381   3.046  2.2785 -1.1489  1.9743
  580MOL0     H78275   5.160   9.276   2.956  0.6386  0.5295 -1.4098
  580MOL0     H78276   5.042   9.520   2.817 -1.1428 -1.0144  0.1837
  580MOL0     H78277   5.151   9.404   2.758 -0.0992 -2.4100 -0.4054
  580MOL0     H78278   4.941   9.231   2.836  0.2765 -0.2114 -1.7973
  580MOL0     H78279   4.936   9.325   2.689  2.5239 -0.4885  0.1755
  580MOL0     H78280   4.826   9.442   2.953 -1.5434  0.8641  0.2120
  580MOL0     H78281   4.732   9.344   2.832 -0.0026 -0.8024 -0.5953
  580MOL0     H78282   5.590   9.599   3.429 -2.6984 -1.3173  1.6247
  580MOL0     H78283   5.744   9.607   3.613 -1.8148  1.6084 -2.0413
  580MOL0     H78284   5.995   9.499   3.896  0.1507  0.2517 -0.2314
  580MOL0     H78285   6.135   9.544   4.083  0.9417  0.1923 -1.1491
  580MOL0     H78286   5.303   9.481   4.131  1.7785 -1.9231  0.9594
  580MOL0     H78287   5.095   9.477   3.975 -1.1745  0.0109  0.7979
  580MOL0     H78288   4.663   9.052   3.782  1.3713 -0.0272  3.5781
  580MOL0     H78289   4.446   9.130   3.665  1.4606 -1.6641  0.2355
  580MOL0     H78290   4.320   9.593   3.752  0.0991 -1.9373  2.5845
  580MOL0     H78291   4.412   9.565   3.607 -0.4449  0.1092  0.3857
  580MOL0     H78292   4.179   9.639   3.565  2.3281 -1.4810 -3.1608
  580MOL0     H78293   4.118   9.486   3.638  0.3452  2.0024  3.4575
  580MOL0     H78294   4.230   9.363   3.451  0.9832  0.8141  0.0392
  580MOL0     H78295   4.308   9.511   3.394 -1.3771  1.9635 -0.8273
  580MOL0     H78296   4.021   9.409   3.375  0.8796 -0.3165  3.4870
  580MOL0     H78297   4.114   9.479   3.245  0.3721  1.8422  0.7513
  580MOL0     H78298   3.951   9.835   3.376  0.2772  0.5542 -4.8990
  580MOL0     H78299   4.541   9.525   3.792 -2.1168 -0.3315 -0.5295
  580MOL0     H78300   4.739   9.459   3.905  0.4622 -0.8059  1.0261
  581MOL0     O78301   9.609   7.092   9.195  0.0215  0.7741  0.2764
  581MOL0     C78302   9.559   7.049   9.300  0.4210 -0.1239 -0.1569
  581MOL0     O78303   9.446   7.095   9.359  0.1240  0.3639  0.3709
  581MOL0     C78304   9.366   7.187   9.296  0.4204 -0.7709  0.0905
  581MOL0     C78305   9.307   7.275   9.383  1.1541  0.4621 -0.7529
  581MOL0     C78306   9.235   7.382   9.330 -0.5770 -0.8298 -0.0063
  581MOL0     C78307   9.201   7.398   9.199 -0.1493  0.4357  0.9302
  581MOL0     O78308   9.115   7.505   9.174 -0.2457 -0.2398 -0.2490
  581MOL0     C78309   9.140   7.563   9.051  0.6368  0.5838 -0.1614
  581MOL0     C78310   9.069   7.699   9.047 -0.4587 -0.7759  0.3687
  581MOL0     C78311   9.088   7.795   9.165 -0.5644 -0.3159  0.8349
  581MOL0     C78312   8.994   7.917   9.169  0.5789  0.3370 -0.5340
  581MOL0     C78313   8.982   7.991   9.031  0.7829 -0.1844  0.1444
  581MOL0     C78314   9.118   8.048   8.980 -0.1381 -0.0644  0.2774
  581MOL0     C78315   9.106   8.149   8.862 -0.0709 -0.2527 -0.0904
  581MOL0     C78316   9.055   8.068   8.745 -0.8814 -0.0289  0.5350
  581MOL0     N78317   9.052   8.131   8.611 -1.0481 -0.2151  0.7145
  581MOL0     C78318   9.150   8.207   8.544  0.3359 -0.0355 -0.0154
  581MOL0     C78319   9.102   8.222   8.419  0.0950  0.3373 -0.0930
  581MOL0     C78320   9.167   8.299   8.304  0.0408  0.5098 -0.1266
  581MOL0     C78321   9.187   8.208   8.174  0.0124  0.8407 -1.2792
  581MOL0     C78322   9.214   8.289   8.051  0.5142 -0.9925  0.4044
  581MOL0     C78323   9.242   8.212   7.922 -0.3203  0.4897  0.7932
  581MOL0     O78324   9.236   8.313   7.809  0.5753 -0.4353 -0.9319
  581MOL0     C78325   9.303   8.286   7.694  1.0727 -0.4116 -0.8412
  581MOL0     C78326   9.319   8.396   7.602  0.2877 -0.2811 -1.3500
  581MOL0     C78327   9.367   8.378   7.478 -0.5444 -0.1756 -0.4606
  581MOL0     C78328   9.365   8.503   7.387  0.2167 -0.2222 -0.6305
  581MOL0     C78329   9.403   8.241   7.437 -0.2067 -0.4251  0.0787
  581MOL0     C78330   9.468   8.209   7.307  0.3832  0.2507 -0.4330
  581MOL0     O78331   9.477   8.071   7.269 -0.1749 -0.7749 -0.3556
  581MOL0     C78332   9.505   8.044   7.137  0.3518 -0.3790 -0.0646
  581MOL0     C78333   9.595   7.936   7.110 -0.8818  0.2050 -0.8723
  581MOL0     C78334   9.623   7.894   6.978  0.1406 -0.7963 -0.3463
  581MOL0     C78335   9.562   7.969   6.875 -0.3239  0.4585  0.4758
  581MOL0     O78336   9.596   7.911   6.757  0.1838  0.4831 -0.2491
  581MOL0     C78337   9.592   7.984   6.633 -0.5856  0.1555  0.2598
  581MOL0     C78338   9.729   8.047   6.619 -0.0897 -0.0002  0.8030
  581MOL0     C78339   9.719   8.171   6.530  0.0949 -0.1085  0.3272
  581MOL0     C78340   9.736   8.297   6.604  1.4194 -0.1655  0.2459
  581MOL0     C78341   9.622   8.338   6.703 -0.1226 -0.1585  0.3523
  581MOL0     C78342   9.645   8.490   6.745 -0.8761  0.5771  0.3004
  581MOL0     C78343   9.568   8.529   6.875 -0.0359  0.5081 -0.1001
  581MOL0     C78344   9.599   8.664   6.927 -0.2461  0.8054  0.1779
  581MOL0    Cl78345   9.570   8.790   6.800 -0.2852  0.1696 -0.4205
  581MOL0     C78346   9.473   8.074   6.894  0.0267 -0.4270 -1.1354
  581MOL0     C78347   9.441   8.111   7.023 -0.7151 -0.2816 -0.3295
  581MOL0     O78348   9.520   8.304   7.240  0.0111  0.3406 -0.6465
  581MOL0     C78349   9.380   8.139   7.528  0.2198 -0.7075 -0.3542
  581MOL0     C78350   9.324   8.161   7.650 -0.1125  0.3907  0.1724
  581MOL0     N78351   8.983   8.152   8.415 -0.4471 -0.4575  0.4303
  581MOL0     N78352   8.951   8.112   8.528 -0.4463 -0.8274 -0.2345
  581MOL0     C78353   9.260   7.307   9.108  0.0136  0.0456 -0.0680
  581MOL0     C78354   9.344   7.206   9.157  0.1271 -0.5740  0.3764
  581MOL0     C78355   9.633   6.942   9.365 -0.0532 -0.9148 -1.3426
  581MOL0     C78356   9.584   6.889   9.492  0.8613 -0.0935 -0.2363
  581MOL0     C78357   9.663   6.796   9.572  0.8454 -0.6734  0.7719
  581MOL0     C78358   9.785   6.744   9.519 -0.1718 -0.3762 -0.3505
  581MOL0     O78359   9.853   6.669   9.609  0.2290 -0.2781 -0.1614
  581MOL0     C78360   9.997   6.687   9.607 -0.3495  0.2847 -0.4369
  581MOL0     C78361  10.057   6.633   9.732  0.7724  0.2211 -0.6925
  581MOL0     C78362  10.029   6.486   9.764 -0.3684  0.3156  0.7918
  581MOL0     C78363  10.063   6.398   9.638 -0.6654  0.0536 -0.1327
  581MOL0     C78364  10.084   6.259   9.699  0.4681  0.8303  0.2620
  581MOL0     C78365  10.083   6.144   9.734 -0.7440  0.2392  0.0666
  581MOL0     C78366   9.825   6.786   9.391  0.1800 -0.7916 -0.3080
  581MOL0     C78367   9.752   6.880   9.321  0.5749  0.0941 -0.3474
  581MOL0     H78368   9.318   7.257   9.490 -0.8086  1.3145 -0.3677
  581MOL0     H78369   9.196   7.457   9.399  0.8951 -0.9412  0.9865
  581MOL0     H78370   9.247   7.568   9.027  0.8258 -2.6397 -0.4646
  581MOL0     H78371   9.092   7.506   8.971 -0.3245  1.4688 -0.2357
  581MOL0     H78372   9.109   7.747   8.957  0.1358 -0.0919  0.9932
  581MOL0     H78373   8.962   7.684   9.031 -0.2931 -0.1497 -1.6572
  581MOL0     H78374   9.081   7.754   9.267 -4.0190  1.2764  1.3949
  581MOL0     H78375   9.191   7.829   9.150 -1.6345  1.8270 -2.9489
  581MOL0     H78376   8.893   7.887   9.196 -0.7029  1.6261 -3.5169
  581MOL0     H78377   9.015   8.001   9.236  2.2950  1.7840 -2.7177
  581MOL0     H78378   8.949   7.925   8.950  0.4208  1.3457 -0.9989
  581MOL0     H78379   8.911   8.074   9.041 -0.4146 -1.2848  1.2429
  581MOL0     H78380   9.150   8.112   9.063 -1.1023  1.9787 -0.8551
  581MOL0     H78381   9.190   7.968   8.959 -0.9268 -0.7173  0.0107
  581MOL0     H78382   9.037   8.231   8.886 -1.9982 -1.6867 -0.5298
  581MOL0     H78383   9.203   8.198   8.854 -1.4392  2.5788 -0.8575
  581MOL0     H78384   8.955   8.022   8.753 -1.5855  1.5250  1.0933
  581MOL0     H78385   9.129   7.989   8.730  0.3775  0.9120  1.5978
  581MOL0     H78386   9.243   8.250   8.580  2.4010 -2.5980 -1.8877
  581MOL0     H78387   9.120   8.394   8.276  2.3630  1.2900 -1.6388
  581MOL0     H78388   9.265   8.323   8.346  0.5669  0.7033 -1.4421
  581MOL0     H78389   9.100   8.145   8.158 -2.0263  3.2259 -0.2766
  581MOL0     H78390   9.279   8.149   8.182  1.6357  3.2511 -0.8294
  581MOL0     H78391   9.293   8.362   8.073  2.1684 -2.7275  0.4911
  581MOL0     H78392   9.120   8.335   8.021  0.5735 -0.9747  0.2450
  581MOL0     H78393   9.167   8.134   7.908  0.4976 -0.4574  1.5407
  581MOL0     H78394   9.339   8.163   7.925 -2.6381 -4.7044  2.7599
  581MOL0     H78395   9.289   8.497   7.630  1.3285  0.2173 -1.9564
  581MOL0     H78396   9.313   8.485   7.293 -3.0264  0.5361  0.8674
  581MOL0     H78397   9.298   8.576   7.433 -4.0893 -3.6604 -0.7280
  581MOL0     H78398   9.471   8.526   7.370  0.4197 -2.2144 -2.6448
  581MOL0     H78399   9.630   7.878   7.194 -2.3159  1.1837  0.4499
  581MOL0     H78400   9.692   7.813   6.955  1.7830  0.7222 -0.9687
  581MOL0     H78401   9.565   7.916   6.552 -3.0630  1.3002  0.0438
  581MOL0     H78402   9.522   8.067   6.629  0.7725  1.2815 -0.8877
  581MOL0     H78403   9.784   8.065   6.711  0.7949 -0.1369  0.3126
  581MOL0     H78404   9.783   7.975   6.557  1.1236 -0.3566  2.2491
  581MOL0     H78405   9.630   8.169   6.465 -0.3042 -2.0461  0.8660
  581MOL0     H78406   9.812   8.175   6.472  0.3532 -3.4592  0.3375
  581MOL0     H78407   9.833   8.299   6.656  0.1136 -0.8601  2.8543
  581MOL0     H78408   9.722   8.377   6.530  0.4646  0.0146  0.6058
  581MOL0     H78409   9.617   8.279   6.795 -3.7736  3.0696  2.5486
  581MOL0     H78410   9.522   8.339   6.659  0.1806  0.4445 -0.3658
  581MOL0     H78411   9.750   8.504   6.772 -0.1342 -1.6887 -1.0430
  581MOL0     H78412   9.626   8.553   6.658  1.3623 -1.8367 -2.1335
  581MOL0     H78413   9.584   8.450   6.948 -1.1744 -0.3603 -0.7575
  581MOL0     H78414   9.467   8.536   6.834  0.7140 -1.0948 -2.3932
  581MOL0     H78415   9.705   8.667   6.953 -0.5546 -3.3595  2.9071
  581MOL0     H78416   9.543   8.681   7.019  0.5002  2.3839  0.3653
  581MOL0     H78417   9.432   8.131   6.811  0.1731  0.3117 -0.7172
  581MOL0     H78418   9.385   8.203   7.036 -1.6959 -1.0414  1.0763
  581MOL0     H78419   9.402   8.037   7.499  0.9865 -0.5277 -0.4199
  581MOL0     H78420   9.289   8.071   7.699 -3.8467 -0.2654 -3.1922
  581MOL0     H78421   9.241   7.299   9.002 -1.5789  1.1185  0.0990
  581MOL0     H78422   9.389   7.120   9.107  1.8731 -1.7483  3.6770
  581MOL0     H78423   9.486   6.925   9.519  0.4776 -0.2245 -1.3834
  581MOL0     H78424   9.626   6.767   9.671 -2.6124 -1.3023 -0.5644
  581MOL0     H78425  10.043   6.631   9.525 -1.5365  0.7829 -1.4614
  581MOL0     H78426  10.020   6.793   9.597  1.2602  0.0872  0.7488
  581MOL0     H78427   9.999   6.685   9.809 -0.6395 -3.2008  0.7334
  581MOL0     H78428  10.162   6.664   9.720  0.2401  1.3112 -3.1930
  581MOL0     H78429   9.923   6.475   9.790 -0.3712  0.9136  1.0403
  581MOL0     H78430  10.089   6.475   9.855  1.8454 -0.5802 -0.6763
  581MOL0     H78431  10.158   6.432   9.596 -0.6465  0.0490 -0.0926
  581MOL0     H78432   9.989   6.400   9.557  0.0880 -0.1461 -0.8394
  581MOL0     H78433  10.084   6.040   9.758 -0.7486  0.6001  1.7725
  581MOL0     H78434   9.923   6.753   9.358  1.4434  3.2163 -1.1221
  581MOL0     H78435   9.795   6.921   9.230  0.9398 -2.0951 -1.2491
  582MOL0     O78436   9.687   9.323   6.055  0.1067  0.1576  0.3434
  582MOL0     C78437   9.576   9.281   6.081 -0.5295 -0.1471  0.0622
  582MOL0     O78438   9.453   9.340   6.036 -0.2507  0.7423 -0.4845
  582MOL0     C78439   9.461   9.474   6.003 -0.7731  0.4264 -0.1193
  582MOL0     C78440   9.396   9.517   5.887 -0.3233  0.3611 -0.8015
  582MOL0     C78441   9.396   9.649   5.856 -0.4713 -0.4621  0.1705
  582MOL0     C78442   9.471   9.744   5.927 -0.1306  0.4913  0.1579
  582MOL0     O78443   9.469   9.879   5.894 -0.5655 -0.0340  0.5751
  582MOL0     C78444   9.345   9.935   5.862  0.5040 -0.1187 -0.1479
  582MOL0     C78445   9.346  10.089   5.876  0.3824 -0.8137  0.4965
  582MOL0     C78446   9.360  10.146   6.020 -0.4317 -0.0753  0.2173
  582MOL0     C78447   9.397  10.300   6.008  0.1222 -1.0179  0.0069
  582MOL0     C78448   9.552  10.312   5.977 -0.1694  0.5815  0.3120
  582MOL0     C78449   9.585  10.437   5.901  0.9525 -0.1812 -0.5273
  582MOL0     C78450   9.728  10.495   5.918 -0.6251 -0.2446  0.5835
  582MOL0     C78451   9.741  10.591   6.053 -0.6886  0.0249  0.5019
  582MOL0     N78452   9.737  10.521   6.185 -0.2260 -0.4679 -0.0859
  582MOL0     C78453   9.835  10.432   6.232 -0.1972  0.3522 -0.6403
  582MOL0     C78454   9.770  10.366   6.330  1.0203  0.0709  0.1357
  582MOL0     C78455   9.814  10.252   6.411 -1.1157  0.0733  0.2794
  582MOL0     C78456   9.731  10.133   6.409  0.6685 -0.0018 -0.0929
  582MOL0     C78457   9.789  10.021   6.491 -0.1453  1.2166  0.2191
  582MOL0     C78458   9.739   9.877   6.460  1.2895 -0.4438 -0.7722
  582MOL0     O78459   9.602   9.894   6.427 -0.1140 -0.9241 -0.4999
  582MOL0     C78460   9.525   9.785   6.417  0.0534 -1.1729 -0.7616
  582MOL0     C78461   9.414   9.792   6.335 -0.0369  0.7615 -0.7400
  582MOL0     C78462   9.334   9.680   6.318 -0.3247  0.1881 -0.7013
  582MOL0     C78463   9.229   9.690   6.222  0.7811 -0.4568 -0.3378
  582MOL0     C78464   9.364   9.556   6.380 -0.3960  0.1325  0.0712
  582MOL0     C78465   9.274   9.445   6.371 -0.6104  0.9857  1.0378
  582MOL0     O78466   9.223   9.400   6.493  0.5225 -0.6774  0.6362
  582MOL0     C78467   9.177   9.268   6.492  0.8709 -0.9315  0.8031
  582MOL0     C78468   9.041   9.241   6.482 -0.7060  0.0059  0.1948
  582MOL0     C78469   8.996   9.110   6.471  0.3364  0.7420 -0.1792
  582MOL0     C78470   9.081   9.002   6.498  0.7613  0.8147  0.0104
  582MOL0     O78471   9.026   8.880   6.504  0.4477  0.6956 -0.3881
  582MOL0     C78472   9.088   8.761   6.459  0.0943  1.0079 -0.9116
  582MOL0     C78473   9.079   8.762   6.307  0.1360 -0.6626  0.1335
  582MOL0     C78474   9.128   8.629   6.254 -0.0618  0.8586 -0.7796
  582MOL0     C78475   9.140   8.625   6.102  0.3803  0.7464  0.5417
  582MOL0     C78476   9.228   8.505   6.057 -0.1317  0.1857  0.1950
  582MOL0     C78477   9.214   8.485   5.906 -0.2170  0.8810 -0.4278
  582MOL0     C78478   9.093   8.399   5.869 -0.9424  0.1060  0.7844
  582MOL0     C78479   9.098   8.252   5.905 -0.0162 -0.1906 -0.7878
  582MOL0    Cl78480   9.003   8.144   5.792  0.3736  0.0975 -0.5830
  582MOL0     C78481   9.218   9.033   6.515  0.8154  0.8658  1.0816
  582MOL0     C78482   9.268   9.165   6.521 -0.2269 -0.1229  0.0948
  582MOL0     O78483   9.264   9.375   6.266  0.0465 -1.1833  0.3714
  582MOL0     C78484   9.477   9.549   6.459  0.3178  0.3217 -0.6801
  582MOL0     C78485   9.548   9.655   6.476 -0.1858 -0.2522 -0.5973
  582MOL0     N78486   9.639  10.412   6.341  0.1935 -0.8619 -0.4432
  582MOL0     N78487   9.612  10.489   6.237  0.0130 -0.1767  0.2301
  582MOL0     C78488   9.532   9.708   6.041 -0.2920 -0.0174 -0.2665
  582MOL0     C78489   9.534   9.572   6.082 -0.1471 -0.9250  0.6872
  582MOL0     C78490   9.574   9.144   6.132  0.0166  0.4369 -0.5377
  582MOL0     C78491   9.684   9.059   6.146 -0.6934 -0.6634  0.0969
  582MOL0     C78492   9.674   8.936   6.214  0.0392  0.1466 -0.5887
  582MOL0     C78493   9.554   8.895   6.254  0.7504 -0.0671  0.3809
  582MOL0     O78494   9.526   8.784   6.330 -0.2403  0.4198 -0.5342
  582MOL0     C78495   9.631   8.686   6.370  0.9188  0.5552 -0.1783
  582MOL0     C78496   9.643   8.568   6.267  0.6749  0.5777  1.6791
  582MOL0     C78497   9.550   8.453   6.291 -0.4788  0.1829 -0.3144
  582MOL0     C78498   9.559   8.328   6.192  0.1511  0.6280  0.5212
  582MOL0     C78499   9.437   8.250   6.201  0.8341  0.8106  0.1040
  582MOL0     C78500   9.337   8.182   6.206  0.0922  1.3424 -0.2038
  582MOL0     C78501   9.445   8.979   6.237 -0.4644  0.1884  0.3050
  582MOL0     C78502   9.450   9.108   6.182  0.5303  0.5287 -0.0470
  582MOL0     H78503   9.344   9.437   5.836 -3.4607  0.3664  2.0645
  582MOL0     H78504   9.345   9.686   5.767  1.1943  1.5503 -0.0063
  582MOL0     H78505   9.317   9.908   5.759  0.8448 -1.2024  0.0338
  582MOL0     H78506   9.266   9.884   5.917 -0.1524 -2.0158 -2.6638
  582MOL0     H78507   9.429  10.129   5.815  2.1325 -2.9623  1.3354
  582MOL0     H78508   9.249  10.117   5.834  0.3753 -0.7250  0.5711
  582MOL0     H78509   9.262  10.137   6.067 -0.8322 -2.6940 -0.9126
  582MOL0     H78510   9.435  10.099   6.085  0.6646  2.8567  1.2332
  582MOL0     H78511   9.346  10.342   5.921 -2.4917 -0.2175  1.7969
  582MOL0     H78512   9.376  10.364   6.094  0.4563  0.9727 -1.3270
  582MOL0     H78513   9.606  10.301   6.072 -1.5832  0.4762  1.1271
  582MOL0     H78514   9.585  10.243   5.898 -3.7097  0.2144 -0.9990
  582MOL0     H78515   9.562  10.423   5.795 -2.1972  0.6259 -0.0699
  582MOL0     H78516   9.509  10.510   5.932 -0.3781 -1.7382  0.0437
  582MOL0     H78517   9.795  10.411   5.937  0.5959  1.4566  5.0617
  582MOL0     H78518   9.764  10.539   5.825 -0.9756 -0.0065  0.5565
  582MOL0     H78519   9.674  10.677   6.049 -1.6037 -0.6645  0.9254
  582MOL0     H78520   9.839  10.640   6.053 -1.0109  0.6921 -0.2182
  582MOL0     H78521   9.934  10.420   6.187  0.2141 -1.1703  0.5879
  582MOL0     H78522   9.917  10.222   6.385 -2.0084 -0.4175 -3.3438
  582MOL0     H78523   9.806  10.290   6.513  0.0236  0.5079  0.2271
  582MOL0     H78524   9.714  10.098   6.306 -0.2217  1.4791 -0.4823
  582MOL0     H78525   9.630  10.162   6.439  1.4532  4.8615 -1.2731
  582MOL0     H78526   9.757  10.047   6.592 -2.4228 -1.7573  0.3795
  582MOL0     H78527   9.898  10.007   6.490 -0.3380 -1.4044 -3.3205
  582MOL0     H78528   9.762   9.820   6.550 -0.0729  0.7806  0.4020
  582MOL0     H78529   9.783   9.833   6.370 -1.8721 -4.8772 -0.4584
  582MOL0     H78530   9.395   9.890   6.292 -0.1257  0.6761 -0.8994
  582MOL0     H78531   9.165   9.770   6.262  1.2129 -1.7930  3.4284
  582MOL0     H78532   9.264   9.722   6.124 -1.6339  2.6868 -0.3349
  582MOL0     H78533   9.169   9.599   6.215 -1.5974  1.0457 -0.8991
  582MOL0     H78534   8.980   9.322   6.443 -0.1485  0.6825  0.7220
  582MOL0     H78535   8.900   9.081   6.430  0.0038  2.0881 -0.3906
  582MOL0     H78536   9.190   8.752   6.497 -0.6530  3.8114  2.2052
  582MOL0     H78537   9.031   8.674   6.493  0.8588  1.4769  1.8083
  582MOL0     H78538   8.978   8.777   6.267  1.2045 -1.3596 -3.1706
  582MOL0     H78539   9.149   8.837   6.269  0.4172 -0.9258  0.1228
  582MOL0     H78540   9.063   8.547   6.288 -0.9021  1.5416 -0.6941
  582MOL0     H78541   9.229   8.610   6.292  0.2724 -3.9787 -3.3192
  582MOL0     H78542   9.040   8.617   6.058  0.5138  4.3267 -0.7470
  582MOL0     H78543   9.183   8.708   6.046 -0.6885  0.4183 -0.8392
  582MOL0     H78544   9.208   8.419   6.122  1.8719  0.2392  0.9575
  582MOL0     H78545   9.332   8.525   6.086  0.2208 -0.0586 -0.8492
  582MOL0     H78546   9.218   8.583   5.856  1.9206 -0.0847 -2.3264
  582MOL0     H78547   9.301   8.426   5.878 -0.5308 -0.2495  0.9043
  582MOL0     H78548   9.111   8.403   5.761  3.2319 -0.0602  1.2895
  582MOL0     H78549   8.999   8.452   5.888 -0.7818  1.1460 -0.9878
  582MOL0     H78550   9.061   8.253   6.008 -1.0446  1.2468 -1.1397
  582MOL0     H78551   9.203   8.222   5.916  0.5110  2.2030  2.1297
  582MOL0     H78552   9.288   8.954   6.539 -1.3676 -0.5120  3.3687
  582MOL0     H78553   9.369   9.202   6.535  0.3576 -1.1109 -1.2062
  582MOL0     H78554   9.512   9.459   6.507 -3.8488 -0.5039  1.2379
  582MOL0     H78555   9.624   9.652   6.554 -2.2675 -0.3270  1.5407
  582MOL0     H78556   9.578   9.789   6.097 -2.6008  1.3793 -0.2983
  582MOL0     H78557   9.595   9.535   6.164 -0.6766 -1.7222  0.7393
  582MOL0     H78558   9.771   9.110   6.108 -1.7760  1.9166  0.8283
  582MOL0     H78559   9.761   8.874   6.233  0.2107  1.3315  3.3286
  582MOL0     H78560   9.729   8.735   6.373  2.4456 -2.2621 -0.5657
  582MOL0     H78561   9.607   8.638   6.465 -0.1027 -0.5469 -0.9633
  582MOL0     H78562   9.747   8.534   6.265  1.4825  2.8262 -1.8410
  582MOL0     H78563   9.627   8.609   6.168 -3.3662 -3.0684  0.5139
  582MOL0     H78564   9.453   8.502   6.279  0.2973  1.3846 -2.0666
  582MOL0     H78565   9.551   8.425   6.397  0.7372  1.5654  0.0715
  582MOL0     H78566   9.652   8.275   6.215  2.3402  4.1842  0.5643
  582MOL0     H78567   9.571   8.371   6.092 -0.6093  0.6809  0.4454
  582MOL0     H78568   9.253   8.115   6.201  0.9198  0.1997  0.5457
  582MOL0     H78569   9.356   8.946   6.290 -0.3941 -0.9917 -0.3014
  582MOL0     H78570   9.367   9.177   6.193  0.4075  0.1678  1.5207
  583MOL0     O78571   5.915   2.365   7.533 -0.9284 -0.6283  0.5068
  583MOL0     C78572   5.922   2.245   7.538 -0.5078  0.7617  1.4330
  583MOL0     O78573   5.819   2.158   7.565  0.3578  0.0726 -0.0916
  583MOL0     C78574   5.698   2.212   7.574 -0.9485 -1.4039 -0.3044
  583MOL0     C78575   5.654   2.251   7.694 -0.3113 -0.0044 -0.3574
  583MOL0     C78576   5.527   2.301   7.706  0.0564 -0.0135 -0.1308
  583MOL0     C78577   5.446   2.324   7.598  0.4774  0.1959  0.6668
  583MOL0     O78578   5.309   2.352   7.606 -0.4472  0.1619  0.0485
  583MOL0     C78579   5.271   2.439   7.711 -0.5621  0.3079 -0.3600
  583MOL0     C78580   5.125   2.484   7.696  0.6155 -0.1466 -0.0437
  583MOL0     C78581   5.101   2.526   7.558  0.1236 -0.5204  0.0714
  583MOL0     C78582   5.202   2.624   7.495 -0.3491  0.5734 -0.1291
  583MOL0     C78583   5.162   2.685   7.361  0.2217 -0.0604  0.0943
  583MOL0     C78584   5.074   2.807   7.384  1.2877  1.1688 -0.3478
  583MOL0     C78585   5.108   2.917   7.286 -0.0315 -0.7479  0.1737
  583MOL0     C78586   5.035   3.039   7.321  0.4108  0.0053  0.0889
  583MOL0     N78587   5.062   3.150   7.235 -0.9561  0.4597 -0.8919
  583MOL0     C78588   5.179   3.190   7.175 -0.1881 -0.0955  0.1637
  583MOL0     C78589   5.159   3.312   7.119  0.0089 -0.1606  0.3371
  583MOL0     C78590   5.251   3.371   7.013  0.0888  0.2572  0.5415
  583MOL0     C78591   5.195   3.400   6.873 -0.6643 -0.4160  0.3682
  583MOL0     C78592   5.294   3.476   6.785 -0.8567 -0.6135  0.4767
  583MOL0     C78593   5.272   3.467   6.629  0.0656  0.2559  0.0215
  583MOL0     O78594   5.364   3.550   6.551  1.0000  0.3661 -0.6365
  583MOL0     C78595   5.322   3.599   6.432 -0.3696  0.3277  0.2199
  583MOL0     C78596   5.197   3.643   6.405 -0.5364 -0.0008 -0.4134
  583MOL0     C78597   5.160   3.694   6.280  1.1001 -0.8378 -1.0856
  583MOL0     C78598   5.017   3.753   6.260 -0.0882 -0.4098  0.0286
  583MOL0     C78599   5.266   3.704   6.182  0.3715  0.8524  0.4607
  583MOL0     C78600   5.249   3.743   6.036 -0.4677  0.2519  0.9191
  583MOL0     O78601   5.361   3.757   5.952 -0.2786 -0.0580 -0.5863
  583MOL0     C78602   5.348   3.769   5.817  1.0034 -0.0198  1.1722
  583MOL0     C78603   5.239   3.727   5.739  1.7263  0.4276 -0.4214
  583MOL0     C78604   5.237   3.731   5.595  0.3957 -0.6184  0.1719
  583MOL0     C78605   5.354   3.777   5.530 -0.2074  0.0969  0.1841
  583MOL0     O78606   5.337   3.766   5.392 -0.5154 -0.4297  0.2509
  583MOL0     C78607   5.450   3.754   5.313 -0.5318 -0.3200 -0.1058
  583MOL0     C78608   5.439   3.646   5.206  1.0843  0.1203  0.1530
  583MOL0     C78609   5.538   3.657   5.099 -0.3028 -0.4560  0.1639
  583MOL0     C78610   5.505   3.778   5.000 -0.2055 -0.0726  0.2960
  583MOL0     C78611   5.568   3.751   4.863  0.0522 -0.2923 -0.5357
  583MOL0     C78612   5.554   3.872   4.763  0.9031 -0.4666 -0.1437
  583MOL0     C78613   5.633   3.992   4.811 -0.6855 -0.6739 -0.0193
  583MOL0     C78614   5.627   4.101   4.713  0.8441  0.5585 -0.1089
  583MOL0    Cl78615   5.734   4.050   4.568 -0.0424 -0.2077  0.0252
  583MOL0     C78616   5.465   3.818   5.604  0.5484  0.1884  0.6245
  583MOL0     C78617   5.458   3.817   5.745  0.3824  0.2465 -0.1456
  583MOL0     O78618   5.137   3.772   6.001 -0.1072 -0.1630 -0.0239
  583MOL0     C78619   5.390   3.659   6.207 -0.3158  1.1392 -0.5908
  583MOL0     C78620   5.416   3.606   6.331  0.1661  0.8546 -0.0117
  583MOL0     N78621   5.017   3.346   7.135 -0.3136 -0.4061  0.4463
  583MOL0     N78622   4.970   3.246   7.206  0.2362 -0.3838 -0.0548
  583MOL0     C78623   5.504   2.316   7.470  0.6255  0.1598 -0.6074
  583MOL0     C78624   5.624   2.250   7.458  0.8515 -0.2050  0.2744
  583MOL0     C78625   6.036   2.175   7.478 -0.2483  0.6372 -0.3382
  583MOL0     C78626   6.050   2.039   7.459 -1.0734 -0.2805  0.8958
  583MOL0     C78627   6.158   1.987   7.391 -0.4568  0.4387 -1.0916
  583MOL0     C78628   6.264   2.065   7.339 -0.0168 -0.1771  0.5737
  583MOL0     O78629   6.359   2.013   7.258 -0.3092 -0.6617 -0.3377
  583MOL0     C78630   6.482   2.004   7.319  0.8188  0.2257  0.5873
  583MOL0     C78631   6.583   2.093   7.254  0.0108 -0.1772  0.4338
  583MOL0     C78632   6.623   2.054   7.106  0.2414 -0.1770 -0.0005
  583MOL0     C78633   6.715   2.151   7.029  0.5890 -0.0184 -0.2917
  583MOL0     C78634   6.831   2.188   7.112 -0.7860  0.2684  0.1052
  583MOL0     C78635   6.930   2.202   7.185  0.1751 -0.4894  0.1705
  583MOL0     C78636   6.252   2.202   7.356  0.7636  0.0928 -1.0595
  583MOL0     C78637   6.142   2.259   7.423  0.6448 -1.0859  0.2544
  583MOL0     H78638   5.699   2.245   7.793  0.3847 -0.3626 -0.6901
  583MOL0     H78639   5.484   2.310   7.806 -0.3212  3.5681 -0.4642
  583MOL0     H78640   5.280   2.374   7.798 -0.0731  1.6604  0.6305
  583MOL0     H78641   5.336   2.527   7.725 -0.8276  0.6178 -1.0403
  583MOL0     H78642   5.067   2.394   7.719 -0.4302  1.1320  2.6366
  583MOL0     H78643   5.117   2.572   7.760  0.3564 -0.7169  0.7188
  583MOL0     H78644   5.085   2.438   7.496  0.4119 -0.0281 -0.7144
  583MOL0     H78645   5.009   2.585   7.559  2.1795  2.9873  0.4781
  583MOL0     H78646   5.233   2.698   7.570  2.8901 -1.0569  0.3163
  583MOL0     H78647   5.300   2.580   7.477 -0.2382  0.6258  0.3386
  583MOL0     H78648   5.251   2.729   7.316 -1.1854  1.8297 -1.0163
  583MOL0     H78649   5.120   2.618   7.286 -1.8846  3.3502 -2.0295
  583MOL0     H78650   4.968   2.788   7.365  1.4966 -0.8348  0.2252
  583MOL0     H78651   5.088   2.845   7.485 -0.6426  2.2424 -0.4299
  583MOL0     H78652   5.216   2.934   7.293 -0.0562 -1.1376  1.8441
  583MOL0     H78653   5.070   2.874   7.193 -2.9632 -0.7796  1.2793
  583MOL0     H78654   5.066   3.061   7.424 -1.8315 -2.0187  1.3172
  583MOL0     H78655   4.927   3.022   7.325  0.2568  0.7156 -0.6832
  583MOL0     H78656   5.270   3.131   7.164 -1.8335 -3.0192  1.0840
  583MOL0     H78657   5.289   3.467   7.049  2.3119  0.9897 -3.2153
  583MOL0     H78658   5.332   3.299   6.997  1.4790  1.9616 -0.4046
  583MOL0     H78659   5.102   3.458   6.877 -0.7377 -0.0595 -3.1725
  583MOL0     H78660   5.157   3.310   6.824 -1.3977  1.0917 -2.0373
  583MOL0     H78661   5.394   3.445   6.816 -1.2124 -0.2248  2.1254
  583MOL0     H78662   5.289   3.582   6.812 -0.6604 -0.4993  0.0742
  583MOL0     H78663   5.168   3.494   6.611 -0.5454  0.7792  3.5491
  583MOL0     H78664   5.272   3.364   6.593 -1.1495  0.8895 -1.8899
  583MOL0     H78665   5.113   3.648   6.474 -2.0565 -0.4677 -2.1406
  583MOL0     H78666   4.970   3.769   6.358  1.1586 -1.9415  0.9221
  583MOL0     H78667   5.009   3.854   6.220 -1.0941  0.3029  1.9145
  583MOL0     H78668   4.960   3.676   6.205  1.4241 -1.0458 -0.6929
  583MOL0     H78669   5.153   3.686   5.790 -1.0909  2.7406 -2.9003
  583MOL0     H78670   5.147   3.717   5.536 -2.1880  1.3434  3.3202
  583MOL0     H78671   5.470   3.845   5.256  2.4059 -1.5536 -1.2211
  583MOL0     H78672   5.536   3.727   5.375 -1.6709  0.9975  2.2007
  583MOL0     H78673   5.453   3.544   5.244 -0.4805  0.1117  0.8022
  583MOL0     H78674   5.336   3.655   5.171  2.0141  2.3554 -2.3003
  583MOL0     H78675   5.558   3.563   5.048 -0.9937  0.5834 -2.1633
  583MOL0     H78676   5.634   3.690   5.139 -0.4111  0.3325 -0.1915
  583MOL0     H78677   5.396   3.788   5.001 -0.4745 -2.3321  2.0582
  583MOL0     H78678   5.529   3.876   5.042 -1.8162  0.4075  0.1664
  583MOL0     H78679   5.531   3.659   4.817  2.6505 -1.7078  0.0228
  583MOL0     H78680   5.673   3.731   4.888  0.5237  0.3753 -1.8639
  583MOL0     H78681   5.588   3.853   4.661  3.8230  2.3542  0.1623
  583MOL0     H78682   5.448   3.895   4.749  1.0735 -0.6878 -2.0808
  583MOL0     H78683   5.733   3.949   4.820 -1.2285 -1.6971  1.8148
  583MOL0     H78684   5.598   4.031   4.907 -2.9840  0.3323 -1.1702
  583MOL0     H78685   5.669   4.193   4.754  0.4959  1.4907 -1.7288
  583MOL0     H78686   5.522   4.125   4.692  0.0563 -2.5068 -0.2448
  583MOL0     H78687   5.562   3.843   5.561  1.7341  0.4704  3.2912
  583MOL0     H78688   5.546   3.835   5.806 -0.6822  2.6442  0.7965
  583MOL0     H78689   5.477   3.656   6.142  1.4635 -0.6893  1.6638
  583MOL0     H78690   5.516   3.571   6.354 -0.5420 -1.5051 -0.2468
  583MOL0     H78691   5.444   2.322   7.380 -3.3578 -2.4518  1.6002
  583MOL0     H78692   5.663   2.209   7.365  0.9816 -0.1254  0.2940
  583MOL0     H78693   5.964   1.979   7.486 -1.1984 -1.5735 -2.0111
  583MOL0     H78694   6.178   1.881   7.380  2.3571  0.8978 -0.9816
  583MOL0     H78695   6.483   2.037   7.423 -0.0071  0.4471  0.5298
  583MOL0     H78696   6.512   1.899   7.315  0.8249  0.2551 -2.7462
  583MOL0     H78697   6.675   2.078   7.311  0.5900 -0.3976 -0.5257
  583MOL0     H78698   6.545   2.195   7.267 -1.9681 -0.7548 -0.5170
  583MOL0     H78699   6.527   2.058   7.055 -0.1785 -0.7953  0.7227
  583MOL0     H78700   6.658   1.951   7.113 -1.9555 -1.0736 -1.1860
  583MOL0     H78701   6.662   2.243   7.000  0.1592 -0.2404 -0.2115
  583MOL0     H78702   6.752   2.109   6.935 -0.8591 -4.7256  1.0085
  583MOL0     H78703   7.003   2.254   7.245  0.1936 -0.2188 -0.0837
  583MOL0     H78704   6.322   2.268   7.308  2.1369 -0.0490  0.6416
  583MOL0     H78705   6.142   2.367   7.429 -1.9295 -1.0855  1.9746
  584MOL0     O78706   9.966  10.822   1.769 -0.2066  0.3426  0.1617
  584MOL0     C78707  10.009  10.881   1.667 -1.0879  0.9300 -0.9417
  584MOL0     O78708   9.941  10.913   1.556 -0.1868 -0.3109 -0.3484
  584MOL0     C78709   9.815  10.866   1.552  0.2790 -0.8319  0.4864
  584MOL0     C78710   9.774  10.800   1.435  0.4873  0.2368  0.1780
  584MOL0     C78711   9.647  10.739   1.418 -0.4057  0.2783  0.4353
  584MOL0     C78712   9.559  10.758   1.533  0.4217 -0.4418 -0.9345
  584MOL0     O78713   9.432  10.702   1.539  0.2709 -0.2547  0.6365
  584MOL0     C78714   9.318  10.769   1.468  0.3330 -0.1479 -0.4286
  584MOL0     C78715   9.366  10.824   1.336 -0.0088 -0.4810  0.6284
  584MOL0     C78716   9.254  10.890   1.256  0.0118 -0.3416 -0.1852
  584MOL0     C78717   9.122  10.810   1.241 -0.3872 -0.7675 -0.4975
  584MOL0     C78718   9.140  10.674   1.185  0.1408  0.1777 -0.2797
  584MOL0     C78719   9.164  10.680   1.038 -0.0040  0.6405  0.2155
  584MOL0     C78720   9.157  10.536   0.992  0.2727  0.5498  0.5365
  584MOL0     C78721   9.302  10.474   0.987 -0.6721  0.1766  0.2208
  584MOL0     N78722   9.350  10.397   1.106 -0.1492 -0.1576  0.1177
  584MOL0     C78723   9.488  10.388   1.138  0.2492  0.0461 -0.8561
  584MOL0     C78724   9.490  10.293   1.239 -0.1094 -1.2114  0.1112
  584MOL0     C78725   9.612  10.245   1.311 -0.9843 -0.3765  0.0601
  584MOL0     C78726   9.656  10.352   1.419  0.6229  0.0426 -0.3755
  584MOL0     C78727   9.781  10.309   1.496  0.3895  0.2212 -0.4359
  584MOL0     C78728   9.802  10.396   1.624  0.7034 -0.0324 -0.1939
  584MOL0     O78729   9.702  10.353   1.714  0.1046 -0.1519 -0.1102
  584MOL0     C78730   9.662  10.441   1.809  0.4358 -0.0861  0.3438
  584MOL0     C78731   9.716  10.561   1.844 -0.6310 -0.1428  0.1780
  584MOL0     C78732   9.668  10.639   1.950  0.4300  0.3090  0.4542
  584MOL0     C78733   9.737  10.769   1.993 -0.8998 -0.4496  1.0369
  584MOL0     C78734   9.554  10.593   2.027 -0.4882 -0.3985 -0.6371
  584MOL0     C78735   9.496  10.669   2.143 -1.1662  0.1498 -0.0216
  584MOL0     O78736   9.429  10.591   2.237 -0.0231 -0.6057 -0.2848
  584MOL0     C78737   9.317  10.648   2.291  0.3587  0.2063  0.4927
  584MOL0     C78738   9.322  10.762   2.372 -1.0440  0.4978  0.0546
  584MOL0     C78739   9.205  10.827   2.410  1.0162 -0.5591  0.0523
  584MOL0     C78740   9.076  10.770   2.386 -0.6822  0.2893 -0.4518
  584MOL0     O78741   8.955  10.802   2.450  0.3064 -1.0190  0.6200
  584MOL0     C78742   8.964  10.932   2.513 -0.1163 -0.5704  0.0806
  584MOL0     C78743   8.819  10.952   2.581  0.6165 -0.3083  0.3049
  584MOL0     C78744   8.790  10.858   2.701 -1.3152  0.1881  0.1798
  584MOL0     C78745   8.646  10.855   2.754  0.1823  0.5109 -0.7823
  584MOL0     C78746   8.614  10.955   2.883 -0.5259 -0.1068  0.6199
  584MOL0     C78747   8.615  11.108   2.855 -0.0658 -0.1191 -0.4690
  584MOL0     C78748   8.479  11.166   2.803  0.3629  0.3393 -1.0311
  584MOL0     C78749   8.498  11.308   2.763  0.5157 -0.0479 -0.5418
  584MOL0    Cl78750   8.333  11.363   2.743  0.1246 -0.1155 -0.2788
  584MOL0     C78751   9.082  10.650   2.303  0.0442  0.5823  0.2691
  584MOL0     C78752   9.200  10.586   2.247  0.1424  0.1524  0.0830
  584MOL0     O78753   9.490  10.790   2.127 -0.0695  0.0443 -0.2977
  584MOL0     C78754   9.499  10.474   1.983 -0.0729  0.6771 -0.5485
  584MOL0     C78755   9.551  10.397   1.877  0.7185 -1.1627 -0.0285
  584MOL0     N78756   9.355  10.257   1.263  1.1141  0.2219 -1.2847
  584MOL0     N78757   9.273  10.317   1.187 -0.1501 -0.0489 -0.1177
  584MOL0     C78758   9.591  10.842   1.645 -0.1206 -0.3204  0.9300
  584MOL0     C78759   9.716  10.886   1.658  0.1515  0.3489 -1.1036
  584MOL0     C78760  10.149  10.933   1.681 -0.1251  0.6750 -0.0795
  584MOL0     C78761  10.198  11.039   1.594  0.7904  0.1730 -0.3200
  584MOL0     C78762  10.321  11.097   1.604 -0.0877  0.1368 -0.2233
  584MOL0     C78763  10.417  11.044   1.695  0.4872  0.9307 -0.6670
  584MOL0     O78764  10.550  11.085   1.696 -0.2767  0.9542  0.0500
  584MOL0     C78765  10.580  11.209   1.641 -0.5139 -0.5377 -0.3144
  584MOL0     C78766  10.716  11.245   1.689 -1.0220 -0.3812 -1.4921
  584MOL0     C78767  10.701  11.287   1.840  0.1128 -0.4765 -0.0109
  584MOL0     C78768  10.822  11.350   1.905 -0.0243  0.0843 -0.0758
  584MOL0     C78769  10.952  11.305   1.854 -0.9656  0.3827  0.1691
  584MOL0     C78770  11.054  11.244   1.844  0.8716 -0.6508 -0.0348
  584MOL0     C78771  10.368  10.940   1.782 -1.0124  0.7816  0.3814
  584MOL0     C78772  10.237  10.898   1.775  0.0196  0.6429 -0.5736
  584MOL0     H78773   9.859  10.781   1.370  1.7816 -0.8843  2.0901
  584MOL0     H78774   9.638  10.679   1.329  1.0573  0.1228  0.3676
  584MOL0     H78775   9.231  10.704   1.453  1.1367 -1.8001  1.5477
  584MOL0     H78776   9.303  10.857   1.532  2.4277 -0.8908  1.2143
  584MOL0     H78777   9.440  10.901   1.356  0.8785 -1.8203  2.8130
  584MOL0     H78778   9.421  10.749   1.279  0.3978  0.7507 -0.6741
  584MOL0     H78779   9.225  10.981   1.308  0.1741 -1.2206  1.5289
  584MOL0     H78780   9.299  10.933   1.167  0.1796  1.7621  0.8614
  584MOL0     H78781   9.086  10.797   1.344  3.6359 -1.8102  0.9880
  584MOL0     H78782   9.047  10.874   1.194 -0.1594 -0.7197 -0.7982
  584MOL0     H78783   9.220  10.632   1.247  1.0845  3.0772  0.5992
  584MOL0     H78784   9.047  10.618   1.201  0.2293  0.0533 -0.1969
  584MOL0     H78785   9.084  10.742   0.996 -1.9934 -0.6402  1.9260
  584MOL0     H78786   9.259  10.725   1.010  1.0417 -1.9257 -0.6692
  584MOL0     H78787   9.087  10.477   1.052 -1.9984  1.8603 -0.6872
  584MOL0     H78788   9.116  10.532   0.890  0.6580  2.3018  0.2907
  584MOL0     H78789   9.385  10.540   0.961 -1.5991  1.8240  1.3224
  584MOL0     H78790   9.308  10.409   0.899  2.7909  0.9941 -0.2786
  584MOL0     H78791   9.573  10.434   1.087  1.0156 -0.3776  0.0083
  584MOL0     H78792   9.604  10.142   1.347  4.5334 -1.7425 -1.6544
  584MOL0     H78793   9.693  10.242   1.239 -1.1326 -2.9621 -0.0776
  584MOL0     H78794   9.574  10.373   1.488  1.1561  3.8675 -0.6990
  584MOL0     H78795   9.665  10.447   1.366 -3.3425  0.9300  0.1897
  584MOL0     H78796   9.860  10.305   1.421 -0.7986  2.8078 -1.9675
  584MOL0     H78797   9.766  10.205   1.527 -0.1775  0.1363 -0.9683
  584MOL0     H78798   9.789  10.501   1.600  0.9512  0.0968  0.2193
  584MOL0     H78799   9.896  10.386   1.679 -0.0665 -1.8964  0.8850
  584MOL0     H78800   9.806  10.593   1.791 -1.0714  0.4680 -0.2110
  584MOL0     H78801   9.841  10.762   1.961 -0.9969  0.3797  0.5256
  584MOL0     H78802   9.688  10.853   1.943  1.4754 -0.8251 -2.2470
  584MOL0     H78803   9.741  10.794   2.099  5.0070  1.0086  0.7915
  584MOL0     H78804   9.419  10.808   2.387 -0.0555 -0.6800 -2.1655
  584MOL0     H78805   9.220  10.922   2.461  1.4136 -0.3598 -0.4232
  584MOL0     H78806   9.042  10.946   2.588  1.1348  1.3258 -1.4830
  584MOL0     H78807   8.969  11.005   2.431 -0.7494 -1.3112 -0.6410
  584MOL0     H78808   8.794  11.054   2.612 -0.1227 -0.9254  1.8017
  584MOL0     H78809   8.748  10.933   2.500 -3.3235  0.1829  3.3686
  584MOL0     H78810   8.853  10.883   2.787 -2.6935 -1.6461  1.8359
  584MOL0     H78811   8.815  10.753   2.685 -1.5611 -0.4235  3.1594
  584MOL0     H78812   8.570  10.872   2.678 -1.8778  0.3435  1.1405
  584MOL0     H78813   8.615  10.755   2.788 -0.2910  1.5777  2.3064
  584MOL0     H78814   8.681  10.937   2.967 -1.4289 -0.7176  1.2232
  584MOL0     H78815   8.512  10.943   2.921 -0.5934  0.7205  0.7085
  584MOL0     H78816   8.635  11.157   2.950  1.5532  0.2320 -0.9521
  584MOL0     H78817   8.701  11.135   2.792  0.5943 -0.4408  0.2838
  584MOL0     H78818   8.394  11.160   2.872  0.5025 -0.3821 -0.9065
  584MOL0     H78819   8.452  11.115   2.710 -0.1855  0.4922 -0.9598
  584MOL0     H78820   8.537  11.309   2.661 -3.5422  1.0976 -2.3242
  584MOL0     H78821   8.546  11.369   2.840  0.5291  0.1644 -0.7185
  584MOL0     H78822   8.990  10.600   2.273  2.3110 -2.9680 -1.4716
  584MOL0     H78823   9.194  10.491   2.196  0.3762  0.7915 -1.1604
  584MOL0     H78824   9.423  10.417   2.036 -2.3297 -0.0387 -4.2226
  584MOL0     H78825   9.512  10.297   1.856  3.0112 -1.8957 -1.1730
  584MOL0     H78826   9.526  10.866   1.729  0.0810 -1.9885  1.5991
  584MOL0     H78827   9.739  10.943   1.747 -0.5097  0.2569 -0.8744
  584MOL0     H78828  10.128  11.088   1.527 -2.4879  2.1776  4.0728
  584MOL0     H78829  10.357  11.177   1.541 -1.1666  2.3907  1.8489
  584MOL0     H78830  10.565  11.210   1.533 -1.7590  0.0169 -0.1649
  584MOL0     H78831  10.519  11.297   1.668  1.3912  1.9042 -3.2719
  584MOL0     H78832  10.754  11.331   1.634  1.9306  0.5977  1.7194
  584MOL0     H78833  10.797  11.172   1.687  2.9996  3.5810 -0.0906
  584MOL0     H78834  10.682  11.206   1.911 -1.3934  1.9066  2.5561
  584MOL0     H78835  10.620  11.360   1.855  2.3193  1.7038  2.3890
  584MOL0     H78836  10.821  11.326   2.011  0.5425  0.1403 -0.0596
  584MOL0     H78837  10.827  11.459   1.904 -1.8789  0.3135  3.0416
  584MOL0     H78838  11.148  11.194   1.836  1.3223  0.4476 -2.2046
  584MOL0     H78839  10.434  10.885   1.848 -2.2994  0.0973  1.1307
  584MOL0     H78840  10.217  10.809   1.834  2.9099  1.1940  1.4239
  585MOL0     O78841   3.512   1.089   7.146 -0.2100  0.3740  0.3519
  585MOL0     C78842   3.468   1.129   7.250 -0.4047 -0.6595  0.4122
  585MOL0     O78843   3.495   1.253   7.307 -0.2090 -0.3068  0.4276
  585MOL0     C78844   3.584   1.346   7.257 -0.9844  0.9537  0.0247
  585MOL0     C78845   3.542   1.472   7.246  0.1508 -1.4493  0.0620
  585MOL0     C78846   3.619   1.574   7.181  1.1540  0.1040 -0.3894
  585MOL0     C78847   3.735   1.536   7.119 -0.7442 -0.8791  0.3872
  585MOL0     O78848   3.782   1.634   7.030 -0.0235  0.2704  0.1221
  585MOL0     C78849   3.856   1.592   6.912 -0.0336 -0.5335 -0.1254
  585MOL0     C78850   3.995   1.656   6.914 -0.5404  0.7848  0.1421
  585MOL0     C78851   4.093   1.592   6.801  0.6181  0.0693 -0.5555
  585MOL0     C78852   4.183   1.482   6.859  0.5282  0.6921 -0.4009
  585MOL0     C78853   4.248   1.391   6.752  0.2636 -0.2690 -0.4740
  585MOL0     C78854   4.358   1.454   6.661  0.3684 -0.0879 -0.3029
  585MOL0     C78855   4.394   1.361   6.537  0.1823 -0.6404 -0.0956
  585MOL0     C78856   4.448   1.233   6.579 -0.3341 -0.7147 -0.5594
  585MOL0     N78857   4.513   1.169   6.462  0.9139  0.7401  0.5351
  585MOL0     C78858   4.461   1.118   6.344  0.4000  0.0208 -0.0670
  585MOL0     C78859   4.562   1.093   6.261  0.3860 -0.0507  1.5407
  585MOL0     C78860   4.565   1.007   6.132 -0.2782  0.5436 -0.0727
  585MOL0     C78861   4.584   0.850   6.175  0.8343 -0.3479 -0.9979
  585MOL0     C78862   4.446   0.782   6.189 -0.4590  0.1643 -0.3140
  585MOL0     C78863   4.354   0.793   6.067 -0.2193 -0.4777 -0.1638
  585MOL0     O78864   4.430   0.789   5.939  0.4426  0.4226 -0.1050
  585MOL0     C78865   4.374   0.733   5.822 -1.0054  0.2007  0.2229
  585MOL0     C78866   4.242   0.748   5.805 -0.2424  0.3680 -0.3903
  585MOL0     C78867   4.168   0.702   5.696  0.1319  0.6876 -0.9413
  585MOL0     C78868   4.022   0.762   5.686  0.3270 -1.3019  0.0786
  585MOL0     C78869   4.232   0.620   5.599  0.4351 -1.3528 -1.3352
  585MOL0     C78870   4.162   0.579   5.472 -0.7003 -0.4964  0.4147
  585MOL0     O78871   4.187   0.448   5.434  0.8088 -0.4193  0.1992
  585MOL0     C78872   4.142   0.424   5.308  0.3654  0.1369  0.1466
  585MOL0     C78873   4.228   0.414   5.202  0.1598  0.0420 -0.0972
  585MOL0     C78874   4.172   0.407   5.077  0.4912 -0.1385 -0.3762
  585MOL0     C78875   4.029   0.406   5.055 -0.3716 -0.9024 -0.6158
  585MOL0     O78876   3.967   0.406   4.935 -0.5782 -0.0100 -0.0398
  585MOL0     C78877   4.037   0.432   4.814 -0.7899  0.0757  0.2484
  585MOL0     C78878   3.952   0.378   4.697 -0.9687  0.1050 -0.3589
  585MOL0     C78879   4.022   0.421   4.565 -0.0530 -0.2295  0.2139
  585MOL0     C78880   4.041   0.312   4.461 -0.2487 -0.5313  0.8437
  585MOL0     C78881   3.915   0.280   4.382 -0.1802 -0.1783 -0.3655
  585MOL0     C78882   3.921   0.175   4.271  0.0842 -0.1622  0.0284
  585MOL0     C78883   4.012   0.198   4.150 -0.2806 -0.2807 -0.0112
  585MOL0     C78884   3.971   0.330   4.084  0.6371 -0.3180  0.3569
  585MOL0    Cl78885   3.797   0.317   4.031  0.0673 -0.6146  0.5913
  585MOL0     C78886   3.942   0.405   5.166 -0.1775  0.8724 -0.3570
  585MOL0     C78887   3.999   0.411   5.293 -0.6047  0.1236  1.0259
  585MOL0     O78888   4.086   0.658   5.419  0.0342 -0.0389  0.0940
  585MOL0     C78889   4.363   0.601   5.616 -1.3362 -0.1131 -0.4110
  585MOL0     C78890   4.430   0.653   5.726 -0.7247  0.1814  0.4620
  585MOL0     N78891   4.679   1.117   6.332  0.7898  0.0853  0.0734
  585MOL0     N78892   4.647   1.145   6.449  0.7940  0.2098  0.2334
  585MOL0     C78893   3.788   1.409   7.137 -0.7789 -0.0858  0.0011
  585MOL0     C78894   3.714   1.313   7.214 -0.2517 -0.5201  0.2926
  585MOL0     C78895   3.384   1.048   7.332  0.5784 -0.6178  0.7450
  585MOL0     C78896   3.345   0.926   7.277  0.1343 -0.0838  0.0440
  585MOL0     C78897   3.271   0.832   7.350  0.0380 -1.1931  0.6159
  585MOL0     C78898   3.248   0.855   7.479  0.0088 -0.1092  0.2889
  585MOL0     O78899   3.189   0.755   7.553  0.0898  0.6372 -0.1973
  585MOL0     C78900   3.061   0.773   7.620  0.9298  0.4401 -0.5438
  585MOL0     C78901   3.028   0.697   7.748 -0.2701  0.2551 -0.1258
  585MOL0     C78902   3.138   0.720   7.859  0.6083 -0.2336 -0.4913
  585MOL0     C78903   3.101   0.836   7.963 -1.1574 -0.3578 -0.2084
  585MOL0     C78904   3.209   0.843   8.063  0.3354 -0.0151  0.4359
  585MOL0     C78905   3.278   0.844   8.170 -0.3064 -0.0409  0.6353
  585MOL0     C78906   3.287   0.969   7.536 -0.0800 -0.7388 -0.2610
  585MOL0     C78907   3.352   1.072   7.465  0.3046 -1.6312  0.0826
  585MOL0     H78908   3.445   1.506   7.282 -0.2660 -1.2017 -1.2499
  585MOL0     H78909   3.567   1.667   7.162  0.4054  0.3129  2.3309
  585MOL0     H78910   3.870   1.484   6.899  1.0120 -0.4508  0.2111
  585MOL0     H78911   3.804   1.625   6.822  1.2484 -0.4671 -0.8587
  585MOL0     H78912   3.994   1.763   6.891 -1.1829  0.4387 -1.6556
  585MOL0     H78913   4.047   1.653   7.010  2.6036  1.5848 -1.4087
  585MOL0     H78914   4.027   1.557   6.721 -0.6681  1.8601 -0.3372
  585MOL0     H78915   4.165   1.666   6.764  1.5034  0.6391  2.0696
  585MOL0     H78916   4.260   1.530   6.920  1.4238 -1.5286  0.3008
  585MOL0     H78917   4.123   1.416   6.922 -0.1540  1.9576  0.3268
  585MOL0     H78918   4.294   1.313   6.814  3.9254  2.9236  1.2326
  585MOL0     H78919   4.176   1.352   6.678 -1.0750  1.0923  0.0547
  585MOL0     H78920   4.336   1.553   6.620  2.6832  0.8350  0.5428
  585MOL0     H78921   4.451   1.459   6.719 -0.6364  0.2228  1.3781
  585MOL0     H78922   4.311   1.351   6.466 -2.4844  0.5973  2.6163
  585MOL0     H78923   4.465   1.421   6.480 -1.4660  0.2033 -1.3429
  585MOL0     H78924   4.363   1.168   6.602  0.6214 -1.5969  0.6762
  585MOL0     H78925   4.504   1.242   6.673  0.2608 -1.1148 -0.8693
  585MOL0     H78926   4.356   1.110   6.314  0.8301  1.0986 -2.0284
  585MOL0     H78927   4.480   1.025   6.065 -0.1839 -2.9234 -1.3298
  585MOL0     H78928   4.657   1.030   6.077  1.3522  0.2102  2.3911
  585MOL0     H78929   4.637   0.847   6.270  1.0770  1.4367 -1.0451
  585MOL0     H78930   4.644   0.799   6.099  4.8692 -0.4148  1.9140
  585MOL0     H78931   4.391   0.814   6.279 -0.0680 -0.7257  0.2577
  585MOL0     H78932   4.468   0.677   6.211 -0.2229  0.7332  2.5993
  585MOL0     H78933   4.303   0.890   6.074  0.7959  0.3282 -2.7834
  585MOL0     H78934   4.292   0.703   6.076 -1.2120  0.0653 -1.2751
  585MOL0     H78935   4.180   0.813   5.867 -1.7223 -0.8025 -0.5969
  585MOL0     H78936   4.042   0.869   5.676  1.3661 -1.6814 -2.9028
  585MOL0     H78937   3.953   0.716   5.614 -1.2545 -0.5077  1.0429
  585MOL0     H78938   3.972   0.763   5.783 -0.7569 -0.8263 -0.4608
  585MOL0     H78939   4.336   0.401   5.211 -0.0140 -1.3341  0.2094
  585MOL0     H78940   4.244   0.395   4.996  0.4222  0.4865 -0.5397
  585MOL0     H78941   4.045   0.541   4.810  0.8688  0.0730  1.9868
  585MOL0     H78942   4.136   0.385   4.815  0.5535  2.6785  2.2360
  585MOL0     H78943   3.957   0.269   4.710  1.0207 -0.3297 -3.7161
  585MOL0     H78944   3.846   0.407   4.702 -0.9130  0.2316  3.3946
  585MOL0     H78945   4.119   0.464   4.590  0.1086 -2.1529  3.4404
  585MOL0     H78946   3.963   0.498   4.515  0.4529  0.3492  0.5051
  585MOL0     H78947   4.097   0.354   4.378 -3.6172  0.6523 -1.0392
  585MOL0     H78948   4.097   0.231   4.509  0.3275  0.3662  1.7163
  585MOL0     H78949   3.868   0.368   4.338 -0.8052 -0.7366 -0.8375
  585MOL0     H78950   3.843   0.241   4.455 -0.9680 -0.1793 -1.1322
  585MOL0     H78951   3.968   0.092   4.324  0.5428 -0.0392 -0.1860
  585MOL0     H78952   3.826   0.136   4.232  2.3000 -3.5661 -2.5701
  585MOL0     H78953   4.003   0.107   4.090  0.3455 -1.2220  1.2674
  585MOL0     H78954   4.113   0.202   4.191 -0.9488 -2.8399  2.2417
  585MOL0     H78955   4.037   0.357   4.000  2.5307 -0.0587  1.8568
  585MOL0     H78956   3.970   0.415   4.153 -0.4170  0.8411 -1.0274
  585MOL0     H78957   3.834   0.402   5.152 -0.0234 -0.8621 -1.5347
  585MOL0     H78958   3.959   0.414   5.394  0.0325  2.2664  1.2567
  585MOL0     H78959   4.393   0.540   5.531 -3.1244  0.6907 -1.6782
  585MOL0     H78960   4.537   0.636   5.723 -0.3811  2.1163 -2.3182
  585MOL0     H78961   3.889   1.383   7.108 -1.6589 -3.0364 -0.7787
  585MOL0     H78962   3.767   1.219   7.226 -1.0862 -0.9911  0.3889
  585MOL0     H78963   3.357   0.898   7.173  2.2674  1.8851 -0.3236
  585MOL0     H78964   3.248   0.734   7.310 -1.4567 -3.0973  5.3331
  585MOL0     H78965   3.051   0.881   7.634  0.2889  0.1453  1.7575
  585MOL0     H78966   2.984   0.742   7.548  0.9477  0.0088 -0.3820
  585MOL0     H78967   3.026   0.589   7.729  3.2553  0.0438  0.0274
  585MOL0     H78968   2.932   0.737   7.783 -0.8610 -0.4884 -0.8283
  585MOL0     H78969   3.239   0.735   7.818  0.1254 -1.1865 -2.0995
  585MOL0     H78970   3.159   0.633   7.922 -0.5344 -1.4171 -1.6825
  585MOL0     H78971   3.002   0.815   8.004 -2.2011  2.5392 -1.0265
  585MOL0     H78972   3.091   0.928   7.904  1.6019  0.4293  0.3774
  585MOL0     H78973   3.340   0.883   8.247 -1.2828  1.1793  0.8380
  585MOL0     H78974   3.294   0.976   7.644  0.2707 -2.1055 -0.1806
  585MOL0     H78975   3.400   1.154   7.518  2.4121 -0.6436 -3.0731
  586MOL0     O78976   3.382   9.725   5.160 -0.1856  0.1037 -0.1099
  586MOL0     C78977   3.438   9.795   5.078  0.2403  0.3874 -1.1684
  586MOL0     O78978   3.378   9.831   4.961  0.5179  0.6397 -0.0312
  586MOL0     C78979   3.262   9.774   4.925  0.8099  0.0657 -0.4299
  586MOL0     C78980   3.263   9.643   4.876 -0.1491  0.0621 -0.8154
  586MOL0     C78981   3.156   9.596   4.810  0.0925  0.7174  0.3823
  586MOL0     C78982   3.028   9.668   4.795 -0.7104 -0.2888  0.0494
  586MOL0     O78983   2.913   9.627   4.732 -0.0566 -0.3412  0.0313
  586MOL0     C78984   2.875   9.488   4.702  0.7296 -0.4844 -0.5705
  586MOL0     C78985   2.735   9.465   4.740  0.7109  0.7385  0.8234
  586MOL0     C78986   2.697   9.317   4.693 -0.6669  0.1087 -0.1786
  586MOL0     C78987   2.540   9.294   4.694 -0.2013  0.6515  0.8728
  586MOL0     C78988   2.494   9.151   4.651  0.0066 -1.1909  0.1645
  586MOL0     C78989   2.339   9.145   4.659 -0.4414 -0.1133 -0.8086
  586MOL0     C78990   2.287   9.035   4.583  0.0019 -0.3048 -0.4745
  586MOL0     C78991   2.136   9.032   4.563 -1.0641  0.9919 -0.1050
  586MOL0     N78992   2.101   9.125   4.457  0.9974  0.2344 -0.3040
  586MOL0     C78993   2.032   9.106   4.343 -0.4446  0.9872 -0.7330
  586MOL0     C78994   1.996   9.228   4.300  0.2491 -0.6317 -0.7083
  586MOL0     C78995   1.933   9.256   4.171  0.3825 -0.4552 -0.2670
  586MOL0     C78996   2.036   9.251   4.060 -1.0726  1.0484  0.1161
  586MOL0     C78997   2.092   9.107   4.040 -0.0348 -0.2796  0.4568
  586MOL0     C78998   2.148   9.083   3.894  1.0141 -0.4955 -0.9371
  586MOL0     O78999   2.266   9.154   3.864  1.2749 -0.1445  0.7808
  586MOL0     C79000   2.283   9.223   3.748 -0.5660  0.4808 -0.3447
  586MOL0     C79001   2.207   9.208   3.636 -0.2995  0.1249  0.6364
  586MOL0     C79002   2.242   9.274   3.514  0.0600 -0.1986  0.5786
  586MOL0     C79003   2.125   9.275   3.416 -0.8608 -0.6199 -0.8130
  586MOL0     C79004   2.351   9.365   3.506 -0.5396  0.2987 -0.3771
  586MOL0     C79005   2.386   9.462   3.394  0.6730  0.1838 -0.4330
  586MOL0     O79006   2.511   9.485   3.367 -0.5760 -0.3102 -0.4077
  586MOL0     C79007   2.551   9.564   3.259  0.0177 -0.5817  0.3699
  586MOL0     C79008   2.521   9.537   3.120  0.1729  0.3887  0.4021
  586MOL0     C79009   2.549   9.628   3.024  0.3210  0.0984  1.0236
  586MOL0     C79010   2.602   9.748   3.053  0.0585 -1.3281  0.7253
  586MOL0     O79011   2.639   9.836   2.950 -0.0601  0.7226  0.9585
  586MOL0     C79012   2.727   9.791   2.847 -0.0346  0.0998  0.1145
  586MOL0     C79013   2.859   9.865   2.886  0.3869 -0.7743 -0.4169
  586MOL0     C79014   2.827  10.014   2.904 -0.1921 -0.0967  0.8239
  586MOL0     C79015   2.954  10.099   2.931 -0.0276 -0.4515 -0.2976
  586MOL0     C79016   2.927  10.256   2.938  0.9905 -0.5478  0.2548
  586MOL0     C79017   2.787  10.290   2.993  0.0969 -0.1775 -0.1566
  586MOL0     C79018   2.756  10.442   3.005  0.5036 -0.1298 -0.5248
  586MOL0     C79019   2.614  10.468   3.013 -0.3658 -0.1779  0.3965
  586MOL0    Cl79020   2.591  10.630   2.929 -0.3642 -0.2195 -0.7045
  586MOL0     C79021   2.632   9.769   3.184 -0.3824 -0.4108  0.0485
  586MOL0     C79022   2.608   9.685   3.293  0.1253  0.2255 -0.4817
  586MOL0     O79023   2.287   9.510   3.332 -0.7629  0.5786  0.0431
  586MOL0     C79024   2.428   9.377   3.625 -1.1805  0.3746  0.6669
  586MOL0     C79025   2.402   9.301   3.740 -0.4887 -0.7416 -0.3647
  586MOL0     N79026   2.043   9.320   4.390 -0.4031 -1.1936 -0.1224
  586MOL0     N79027   2.098   9.261   4.483 -0.4526  0.1697  0.2570
  586MOL0     C79028   3.015   9.781   4.866  0.8791  0.0883 -0.5822
  586MOL0     C79029   3.130   9.838   4.933 -0.9597 -0.1546 -0.4108
  586MOL0     C79030   3.572   9.850   5.102 -0.2122  0.8201  0.1905
  586MOL0     C79031   3.654   9.801   5.202  0.3120  0.0770 -0.6054
  586MOL0     C79032   3.763   9.867   5.249  0.2423 -0.8632 -0.2379
  586MOL0     C79033   3.814   9.983   5.180  0.0955 -0.2173  0.1774
  586MOL0     O79034   3.936  10.038   5.202 -0.3891 -0.2413 -0.4784
  586MOL0     C79035   4.001  10.028   5.325 -0.1463 -0.7077 -0.3561
  586MOL0     C79036   3.920  10.067   5.459 -1.4191  0.4089 -0.4192
  586MOL0     C79037   4.002  10.172   5.536  0.6976  0.0971 -1.0328
  586MOL0     C79038   3.929  10.199   5.671 -0.4245  0.1720  0.1818
  586MOL0     C79039   3.947  10.089   5.762  0.0178  0.6652 -0.7801
  586MOL0     C79040   3.966  10.000   5.837  0.4165 -2.1619 -0.4229
  586MOL0     C79041   3.731  10.024   5.073  0.2656  0.7622 -0.1863
  586MOL0     C79042   3.606   9.967   5.036 -0.2578  0.4057 -0.0608
  586MOL0     H79043   3.355   9.586   4.879  0.5570  0.9597 -3.0987
  586MOL0     H79044   3.163   9.502   4.757 -2.6159 -1.2300  3.0825
  586MOL0     H79045   2.898   9.465   4.598  0.7065  0.8041 -0.8804
  586MOL0     H79046   2.927   9.429   4.778 -2.3140  0.1106  2.2174
  586MOL0     H79047   2.717   9.490   4.845 -1.0162  2.8235  0.1212
  586MOL0     H79048   2.668   9.536   4.689  0.2620 -1.4577 -1.9292
  586MOL0     H79049   2.734   9.298   4.591  2.0856 -1.2038  0.9648
  586MOL0     H79050   2.752   9.246   4.756 -0.2140  1.1628  0.6291
  586MOL0     H79051   2.492   9.313   4.790  1.4395  0.8340  1.6790
  586MOL0     H79052   2.483   9.360   4.628  1.0473 -2.0701 -3.3148
  586MOL0     H79053   2.538   9.134   4.553  0.5464  2.3371 -0.3079
  586MOL0     H79054   2.546   9.086   4.722 -1.3650 -1.2489  1.1602
  586MOL0     H79055   2.318   9.131   4.766  1.5361  2.9795  0.1506
  586MOL0     H79056   2.314   9.246   4.625 -0.8657  0.1404  0.2042
  586MOL0     H79057   2.340   9.028   4.487  1.2332  2.8018 -0.1363
  586MOL0     H79058   2.303   8.946   4.645 -1.8212 -1.0437 -0.9985
  586MOL0     H79059   2.094   9.063   4.658 -0.0557  1.4430  0.2082
  586MOL0     H79060   2.105   8.929   4.546 -0.0819  0.8808 -1.4110
  586MOL0     H79061   2.007   9.012   4.294  4.6872 -0.2097 -1.7435
  586MOL0     H79062   1.845   9.193   4.159  0.7231 -1.3551  1.6048
  586MOL0     H79063   1.898   9.358   4.189  2.0909 -0.4011  3.9382
  586MOL0     H79064   2.109   9.332   4.072 -0.9873  0.9965 -0.0454
  586MOL0     H79065   1.986   9.278   3.967 -0.5146 -1.9864 -1.1843
  586MOL0     H79066   2.016   9.029   4.054  0.1940 -1.7916 -4.6116
  586MOL0     H79067   2.172   9.087   4.111  0.6831 -1.7172 -0.6921
  586MOL0     H79068   2.069   9.118   3.827  2.2462  0.5967 -1.8811
  586MOL0     H79069   2.161   8.977   3.869  0.5475 -0.3433 -1.8769
  586MOL0     H79070   2.117   9.148   3.633 -0.1259 -0.1190  0.2377
  586MOL0     H79071   2.072   9.361   3.457 -0.5511 -0.1088 -1.4658
  586MOL0     H79072   2.148   9.286   3.310  2.3292  1.7808 -0.0347
  586MOL0     H79073   2.054   9.193   3.430  0.2510 -1.5563 -0.5075
  586MOL0     H79074   2.498   9.435   3.089 -0.7676  0.7090 -0.0082
  586MOL0     H79075   2.538   9.599   2.920 -0.3799  5.9896 -0.9172
  586MOL0     H79076   2.749   9.684   2.848 -1.4932 -0.2999 -2.0605
  586MOL0     H79077   2.673   9.810   2.753 -0.5622 -1.6510  0.0128
  586MOL0     H79078   2.912   9.833   2.977 -0.1938  1.9249  0.9707
  586MOL0     H79079   2.937   9.858   2.810  2.3195 -0.3288  1.4128
  586MOL0     H79080   2.762  10.042   2.987 -1.6348  5.8704 -1.7936
  586MOL0     H79081   2.791  10.054   2.809 -1.3216  0.8169  1.6078
  586MOL0     H79082   2.986  10.058   3.027 -1.2889 -0.2338  0.2289
  586MOL0     H79083   3.030  10.085   2.853  0.0892  0.2143 -0.3010
  586MOL0     H79084   2.941  10.296   2.837 -0.7809 -2.5814 -0.8827
  586MOL0     H79085   3.001  10.299   3.006  0.2402  0.4270  0.4712
  586MOL0     H79086   2.715  10.248   2.922  1.1270  0.9040 -1.9066
  586MOL0     H79087   2.775  10.258   3.097 -1.1824  1.4037  0.2157
  586MOL0     H79088   2.789  10.481   2.908 -0.3070 -2.1777 -1.6964
  586MOL0     H79089   2.801  10.497   3.088  2.9333 -2.9302  0.1850
  586MOL0     H79090   2.573  10.481   3.114 -3.0353  0.4390 -0.6862
  586MOL0     H79091   2.559  10.387   2.965 -0.1105 -1.5568  2.3066
  586MOL0     H79092   2.657   9.868   3.221 -1.9853 -0.9554  2.9334
  586MOL0     H79093   2.632   9.708   3.396  0.7007  2.3559 -1.0367
  586MOL0     H79094   2.511   9.447   3.630 -2.5811  2.0623  1.4000
  586MOL0     H79095   2.462   9.313   3.829  0.6242 -2.6580 -0.7966
  586MOL0     H79096   2.923   9.836   4.852  1.9126  2.0628 -0.0251
  586MOL0     H79097   3.123   9.934   4.984  1.7958 -0.1173  0.0475
  586MOL0     H79098   3.630   9.713   5.260  3.2289  1.3015  2.8335
  586MOL0     H79099   3.824   9.825   5.329  1.0734 -2.7707 -1.8056
  586MOL0     H79100   4.048   9.929   5.336  0.5521 -0.1743  1.9021
  586MOL0     H79101   4.089  10.091   5.309  1.2740 -1.9971  1.8534
  586MOL0     H79102   3.911   9.969   5.506 -0.4729  0.7552  0.5246
  586MOL0     H79103   3.821  10.105   5.433 -0.6323  0.6425 -3.5565
  586MOL0     H79104   3.999  10.270   5.486 -0.7124  0.7270  0.2055
  586MOL0     H79105   4.106  10.157   5.566  0.8733  3.6498  0.7337
  586MOL0     H79106   3.822  10.220   5.655 -0.2259  0.6145 -0.6370
  586MOL0     H79107   3.973  10.286   5.720  0.1490  0.0057 -0.0333
  586MOL0     H79108   3.990   9.922   5.906  3.6056 -1.0598 -0.0989
  586MOL0     H79109   3.776  10.101   5.011  3.4444 -1.4824 -0.9009
  586MOL0     H79110   3.539  10.013   4.964 -1.2398 -0.8465  0.0260
  587MOL0     O79111   1.411  10.599   7.922 -0.1676 -0.3615 -0.5966
  587MOL0     C79112   1.319  10.678   7.917 -0.0037 -0.1767  0.2688
  587MOL0     O79113   1.202  10.658   7.854  0.3634 -0.0723 -0.4941
  587MOL0     C79114   1.163  10.526   7.809 -0.4738  0.9409 -0.6127
  587MOL0     C79115   1.243  10.406   7.802 -0.1649 -0.7466  0.3694
  587MOL0     C79116   1.203  10.292   7.732 -0.7166 -0.3214  0.3432
  587MOL0     C79117   1.083  10.284   7.669 -0.0890  0.0031  0.8123
  587MOL0     O79118   1.040  10.173   7.609  0.4057 -0.3133  0.3654
  587MOL0     C79119   1.118  10.141   7.495 -0.2530  0.5110  0.6741
  587MOL0     C79120   1.070  10.180   7.360  1.2619 -0.4946 -0.3003
  587MOL0     C79121   0.947  10.106   7.322 -0.4161 -0.4656 -0.1043
  587MOL0     C79122   0.870  10.173   7.205  0.3631 -0.0921 -0.1696
  587MOL0     C79123   0.940  10.158   7.070 -0.8246  0.1401 -0.1960
  587MOL0     C79124   0.864  10.225   6.961  0.9831  0.1919 -0.6224
  587MOL0     C79125   0.828  10.372   6.966  0.9870  0.3594  0.0661
  587MOL0     C79126   0.957  10.448   6.936  0.5395 -0.2228  0.2246
  587MOL0     N79127   1.045  10.475   7.054  0.2905  0.2549  0.9628
  587MOL0     C79128   1.029  10.559   7.161 -0.3197 -0.6813  0.0869
  587MOL0     C79129   1.148  10.556   7.230 -0.0101  1.2771  0.3177
  587MOL0     C79130   1.183  10.602   7.363 -0.5684 -1.1820  0.1910
  587MOL0     C79131   1.191  10.752   7.382  0.3331 -0.6208 -1.1118
  587MOL0     C79132   1.275  10.813   7.269  0.5670 -0.2298  0.1183
  587MOL0     C79133   1.348  10.949   7.290 -0.3970 -0.7013 -0.7789
  587MOL0     O79134   1.433  10.950   7.413 -0.5285  0.3558 -0.4876
  587MOL0     C79135   1.535  11.040   7.422 -0.0944 -0.3600 -0.7839
  587MOL0     C79136   1.533  11.165   7.356  0.2418  0.1669 -0.6855
  587MOL0     C79137   1.625  11.268   7.399  0.0984 -0.5808  0.5726
  587MOL0     C79138   1.594  11.404   7.339 -0.2537 -0.0042  0.0480
  587MOL0     C79139   1.721  11.242   7.491 -0.6350 -0.1754 -0.8371
  587MOL0     C79140   1.835  11.332   7.536 -0.5506 -0.4559 -0.2970
  587MOL0     O79141   1.874  11.316   7.669 -0.1102 -0.3470 -0.9235
  587MOL0     C79142   1.960  11.394   7.732  0.0300  0.6766  0.0828
  587MOL0     C79143   1.936  11.529   7.750 -0.1655 -0.0527  0.2029
  587MOL0     C79144   2.036  11.612   7.787  0.5151  0.4467 -0.4891
  587MOL0     C79145   2.161  11.573   7.807 -0.0426  0.8759 -0.2485
  587MOL0     O79146   2.262  11.662   7.818 -0.0378  0.4108 -0.8171
  587MOL0     C79147   2.378  11.630   7.739  1.4868  0.0241 -0.0921
  587MOL0     C79148   2.344  11.596   7.595  0.8489  1.0480  0.5881
  587MOL0     C79149   2.266  11.711   7.522 -0.6441  0.1362  0.2698
  587MOL0     C79150   2.197  11.669   7.395  0.7022 -0.8078  0.6409
  587MOL0     C79151   2.162  11.767   7.290 -0.1013  0.7269  0.2790
  587MOL0     C79152   2.072  11.876   7.339 -1.0802 -0.3521 -0.2646
  587MOL0     C79153   2.073  12.001   7.243  0.2515  0.4021 -0.0007
  587MOL0     C79154   1.971  11.997   7.132 -0.2769  1.0633  0.1565
  587MOL0    Cl79155   1.974  12.163   7.065  0.3744  0.6656  0.0157
  587MOL0     C79156   2.184  11.427   7.804 -0.2478 -0.2459 -0.7369
  587MOL0     C79157   2.087  11.344   7.763 -0.0871  0.2432  0.2872
  587MOL0     O79158   1.914  11.390   7.454 -0.1428 -0.3078  0.4194
  587MOL0     C79159   1.719  11.115   7.555  0.4824  0.2533  0.2381
  587MOL0     C79160   1.623  11.019   7.530  1.2244 -0.6508 -0.1997
  587MOL0     N79161   1.239  10.465   7.171  0.4393 -0.2951  0.6225
  587MOL0     N79162   1.174  10.424   7.062 -0.5003 -0.7723  0.3992
  587MOL0     C79163   1.008  10.410   7.666 -0.0808  0.4395  0.4609
  587MOL0     C79164   1.054  10.523   7.723 -0.6410 -0.0296 -1.0557
  587MOL0     C79165   1.354  10.810   7.979  0.4801  1.2456  0.3780
  587MOL0     C79166   1.254  10.907   7.968 -0.3926 -1.0971 -0.4504
  587MOL0     C79167   1.270  11.038   8.036  0.6743  0.6191  0.2765
  587MOL0     C79168   1.385  11.074   8.108 -0.2228 -0.4952  0.3367
  587MOL0     O79169   1.383  11.207   8.150  0.0156  0.0584  0.2754
  587MOL0     C79170   1.481  11.244   8.251  0.3326  0.0080 -0.6813
  587MOL0     C79171   1.429  11.212   8.389 -0.0221 -0.1030 -1.0829
  587MOL0     C79172   1.528  11.223   8.496  0.0112  0.2334 -0.2880
  587MOL0     C79173   1.464  11.284   8.620  0.6212  0.6142  0.2831
  587MOL0     C79174   1.553  11.275   8.727  0.0808  0.4546 -0.3423
  587MOL0     C79175   1.628  11.283   8.817 -0.3723 -0.5368  0.4767
  587MOL0     C79176   1.485  10.969   8.121 -0.1014 -0.6590  0.1538
  587MOL0     C79177   1.465  10.847   8.051 -0.4627 -0.2137  0.6378
  587MOL0     H79178   1.341  10.407   7.848  0.0926 -3.1920  0.0483
  587MOL0     H79179   1.265  10.203   7.726  1.2943  1.0576 -0.9885
  587MOL0     H79180   1.218  10.184   7.506 -0.3662  1.1845 -0.5848
  587MOL0     H79181   1.125  10.033   7.487  2.9756  0.7051 -0.5001
  587MOL0     H79182   1.057  10.287   7.381  3.0693 -0.4351  0.7470
  587MOL0     H79183   1.144  10.174   7.280 -0.9195 -1.0365 -2.3886
  587MOL0     H79184   0.968  10.001   7.298  0.3883 -0.9708  2.5097
  587MOL0     H79185   0.886  10.116   7.412 -3.3298  1.0220 -2.0489
  587MOL0     H79186   0.767  10.139   7.195 -1.1668  2.0304  5.2677
  587MOL0     H79187   0.862  10.274   7.246  1.6728 -1.8936  5.3959
  587MOL0     H79188   1.045  10.190   7.073 -0.7616  0.2207 -1.9706
  587MOL0     H79189   0.938  10.052   7.045 -2.4923 -0.1396  1.0157
  587MOL0     H79190   0.920  10.206   6.869  0.7075  0.5222 -0.8608
  587MOL0     H79191   0.771  10.167   6.954  0.9915 -0.0801  1.0101
  587MOL0     H79192   0.749  10.387   6.891  0.0327 -2.2708  0.4603
  587MOL0     H79193   0.794  10.396   7.067  5.3021 -2.5938  2.5398
  587MOL0     H79194   0.928  10.550   6.912 -1.4284 -1.0624 -1.2164
  587MOL0     H79195   1.012  10.400   6.855 -0.2241  0.6986 -0.8777
  587MOL0     H79196   0.938  10.614   7.186  0.6487  0.5235  1.1027
  587MOL0     H79197   1.113  10.560   7.436 -0.7643 -1.9857 -0.4447
  587MOL0     H79198   1.283  10.562   7.381  0.2785  1.7386  2.8052
  587MOL0     H79199   1.254  10.763   7.470  0.6870 -2.3206 -1.1099
  587MOL0     H79200   1.101  10.814   7.382  1.5341  1.3234 -4.2055
  587MOL0     H79201   1.217  10.820   7.176  0.9483 -1.2240 -0.2017
  587MOL0     H79202   1.355  10.742   7.245 -0.6414 -0.7952 -2.7058
  587MOL0     H79203   1.277  11.032   7.291  0.4739  0.0810 -1.5309
  587MOL0     H79204   1.421  10.967   7.210  1.0062  4.6089  1.2287
  587MOL0     H79205   1.460  11.190   7.280  0.3903  3.3762  0.0802
  587MOL0     H79206   1.639  11.421   7.241 -0.5110  0.7399  0.0535
  587MOL0     H79207   1.487  11.420   7.326  0.2499  1.3906 -3.9820
  587MOL0     H79208   1.636  11.483   7.402  1.0496 -0.2109 -0.5282
  587MOL0     H79209   1.840  11.575   7.731 -0.1355 -0.8933 -2.4485
  587MOL0     H79210   2.031  11.713   7.828 -2.8022 -0.7062  2.4332
  587MOL0     H79211   2.445  11.715   7.728 -2.5922  3.2724 -3.3447
  587MOL0     H79212   2.431  11.546   7.785  0.9987 -0.3907 -0.2832
  587MOL0     H79213   2.442  11.568   7.555  1.0103  0.7723  1.1646
  587MOL0     H79214   2.287  11.504   7.577  0.4586  1.8651 -3.2552
  587MOL0     H79215   2.336  11.791   7.496 -1.2904  0.8320  0.6340
  587MOL0     H79216   2.187  11.745   7.590 -0.6910 -0.4137  0.4928
  587MOL0     H79217   2.246  11.585   7.345  0.7735 -0.6873  0.5082
  587MOL0     H79218   2.096  11.636   7.423  0.2945  0.4126  0.6524
  587MOL0     H79219   2.109  11.715   7.210  1.6898 -0.5553 -0.1423
  587MOL0     H79220   2.261  11.800   7.257  0.8119 -1.9374  0.1054
  587MOL0     H79221   1.976  11.835   7.369 -0.0377 -1.9275  1.1170
  587MOL0     H79222   2.110  11.911   7.435 -0.6222 -4.0104  1.0528
  587MOL0     H79223   2.173  12.031   7.212 -0.8080  3.5685 -0.7830
  587MOL0     H79224   2.040  12.082   7.309 -3.6950 -2.1692  1.5551
  587MOL0     H79225   1.869  11.973   7.161 -0.3963  1.9792  0.5194
  587MOL0     H79226   2.005  11.924   7.057  0.1050 -1.0139  2.2528
  587MOL0     H79227   2.273  11.378   7.841 -0.2722 -1.8450 -2.6181
  587MOL0     H79228   2.110  11.238   7.759 -1.7879 -0.1382 -0.3833
  587MOL0     H79229   1.781  11.089   7.639 -0.2152  0.3168  0.7818
  587MOL0     H79230   1.608  10.923   7.578 -3.0041 -0.7074 -1.2400
  587MOL0     H79231   0.922  10.418   7.600  1.4385  3.9129 -1.3711
  587MOL0     H79232   1.002  10.618   7.711  0.1672  0.4809 -0.6120
  587MOL0     H79233   1.155  10.895   7.925 -0.6869  3.4565 -1.5832
  587MOL0     H79234   1.186  11.106   8.024  0.5149  0.2587 -0.7988
  587MOL0     H79235   1.581  11.201   8.240 -0.1475 -1.2602 -0.2486
  587MOL0     H79236   1.494  11.351   8.228  1.2760 -0.6066 -3.3537
  587MOL0     H79237   1.394  11.109   8.400 -0.1744  0.1585  1.4875
  587MOL0     H79238   1.340  11.274   8.400 -0.8096 -1.0638 -1.8328
  587MOL0     H79239   1.604  11.296   8.468 -0.0595  0.1724 -0.6419
  587MOL0     H79240   1.560  11.121   8.520 -0.4214  0.0792 -0.3640
  587MOL0     H79241   1.364  11.244   8.639 -0.0739  1.6278 -1.0636
  587MOL0     H79242   1.447  11.391   8.604  1.6502  1.2560  3.0687
  587MOL0     H79243   1.691  11.305   8.900 -1.7214  0.8398  1.2086
  587MOL0     H79244   1.575  10.987   8.179 -1.0581  2.5411  0.8562
  587MOL0     H79245   1.539  10.772   8.077  0.3950  0.9797  1.7128
  588MOL0     O79246   2.085   8.822  11.110  0.4640 -0.4517  0.0422
  588MOL0     C79247   2.096   8.706  11.089  0.1851 -0.5219 -1.4690
  588MOL0     O79248   2.055   8.641  10.977  0.5047 -0.7232  0.5750
  588MOL0     C79249   1.973   8.702  10.890  0.1282 -0.4865  0.6109
  588MOL0     C79250   1.839   8.722  10.929 -0.1922  0.7122 -0.4623
  588MOL0     C79251   1.743   8.778  10.845  0.5109 -0.8196 -0.0091
  588MOL0     C79252   1.793   8.830  10.727 -0.3076 -0.8389  0.0377
  588MOL0     O79253   1.704   8.906  10.652 -0.0212 -0.4739  0.3408
  588MOL0     C79254   1.735   9.043  10.652 -0.8405 -0.3755 -0.0935
  588MOL0     C79255   1.625   9.104  10.731 -0.0099  0.6170 -0.8893
  588MOL0     C79256   1.486   9.120  10.672  0.4964  0.6042 -0.6032
  588MOL0     C79257   1.377   9.189  10.762 -0.6524 -0.9356  0.1697
  588MOL0     C79258   1.266   9.266  10.686  0.2999  0.0974  0.4449
  588MOL0     C79259   1.181   9.191  10.577 -0.2306 -0.0761  0.2099
  588MOL0     C79260   1.050   9.270  10.547 -0.3335 -0.1511  0.8508
  588MOL0     C79261   1.089   9.391  10.460 -0.3893  0.3966 -0.3654
  588MOL0     N79262   0.978   9.461  10.398  0.6517 -0.2750  0.3440
  588MOL0     C79263   0.914   9.417  10.285  0.6203 -0.5004  0.0567
  588MOL0     C79264   0.813   9.508  10.269 -0.1487  0.3656  0.3295
  588MOL0     C79265   0.720   9.511  10.144 -0.4390  0.4234  0.8137
  588MOL0     C79266   0.568   9.478  10.143 -0.0378  0.3454  0.0678
  588MOL0     C79267   0.539   9.346  10.217 -0.2836  0.1378 -0.0069
  588MOL0     C79268   0.391   9.315  10.185 -0.9624 -0.0233 -0.2424
  588MOL0     O79269   0.306   9.436  10.186  0.8613  0.3874  0.4858
  588MOL0     C79270   0.184   9.429  10.124 -0.0292  0.5483  1.2076
  588MOL0     C79271   0.114   9.552  10.116 -0.0504 -0.3794  0.2717
  588MOL0     C79272  -0.011   9.560  10.057  0.6635 -0.0490  1.2448
  588MOL0     C79273  -0.083   9.695  10.063 -0.2791 -0.0656  0.3734
  588MOL0     C79274  -0.061   9.444   9.986  0.4544 -0.1151 -0.2468
  588MOL0     C79275  -0.188   9.440   9.906  0.3760 -0.2161  0.0713
  588MOL0     O79276  -0.185   9.354   9.800 -0.3730 -0.4575  0.3829
  588MOL0     C79277  -0.287   9.344   9.698 -0.1429 -0.4746 -0.5828
  588MOL0     C79278  -0.337   9.219   9.655 -0.4897  0.4834  0.6421
  588MOL0     C79279  -0.408   9.223   9.536  0.1111 -0.6267  0.4894
  588MOL0     C79280  -0.435   9.338   9.467 -0.4666  0.6613  0.1834
  588MOL0     O79281  -0.494   9.348   9.343  1.0454 -0.6484 -0.2674
  588MOL0     C79282  -0.528   9.231   9.272  0.1289  0.0267  0.4500
  588MOL0     C79283  -0.575   9.269   9.131 -0.4399 -0.3258  1.2125
  588MOL0     C79284  -0.581   9.142   9.034  0.0780  0.0385 -0.0707
  588MOL0     C79285  -0.631   9.174   8.893  0.1157 -0.3266  0.7317
  588MOL0     C79286  -0.657   9.039   8.818 -0.3704  0.6818  0.4319
  588MOL0     C79287  -0.687   9.056   8.667 -0.2073  1.3540  1.4033
  588MOL0     C79288  -0.725   8.917   8.609 -0.4161 -1.7809  0.3815
  588MOL0     C79289  -0.751   8.924   8.454  0.7062  0.7057 -0.0357
  588MOL0    Cl79290  -0.848   8.790   8.432  0.5444 -0.6929 -0.1644
  588MOL0     C79291  -0.410   9.462   9.532 -0.1039  0.8988 -0.6017
  588MOL0     C79292  -0.332   9.466   9.652 -1.6469 -0.1010  0.3543
  588MOL0     O79293  -0.269   9.529   9.919  0.2178 -0.1624  0.5240
  588MOL0     C79294   0.012   9.325   9.997 -0.7630 -0.1323  0.3468
  588MOL0     C79295   0.135   9.314  10.062  0.6437 -0.1868 -0.3374
  588MOL0     N79296   0.816   9.607  10.368  0.6757  1.3910  0.3931
  588MOL0     N79297   0.914   9.572  10.444  0.0037 -0.7260  0.4309
  588MOL0     C79298   1.926   8.811  10.682 -0.8603 -0.0318  0.3662
  588MOL0     C79299   2.013   8.746  10.762  0.7455 -0.0825 -0.1843
  588MOL0     C79300   2.162   8.633  11.197  0.6112  0.1613  1.1549
  588MOL0     C79301   2.152   8.495  11.197 -0.4454 -0.2142  0.1865
  588MOL0     C79302   2.209   8.410  11.293  0.6624 -0.0773 -0.0089
  588MOL0     C79303   2.268   8.465  11.402 -0.5361 -1.0325  0.4979
  588MOL0     O79304   2.326   8.390  11.496  0.4785  0.0020  0.0199
  588MOL0     C79305   2.282   8.422  11.628 -0.6003 -0.9833  0.8791
  588MOL0     C79306   2.201   8.311  11.693  0.1222 -0.0883  0.6498
  588MOL0     C79307   2.285   8.214  11.776  0.1199  0.2945  0.2488
  588MOL0     C79308   2.203   8.108  11.857  0.6258 -1.2860 -0.0762
  588MOL0     C79309   2.155   8.011  11.756  0.6697  0.6650  0.3432
  588MOL0     C79310   2.103   7.920  11.698 -0.1059  0.5248  0.5715
  588MOL0     C79311   2.281   8.603  11.403 -0.1577  0.9738 -0.3291
  588MOL0     C79312   2.227   8.689  11.307  0.4223 -0.3681 -0.1325
  588MOL0     H79313   1.819   8.681  11.028  0.3761 -1.9699 -1.3772
  588MOL0     H79314   1.636   8.770  10.856 -0.2044  0.4159 -4.1540
  588MOL0     H79315   1.832   9.069  10.694  1.0388 -1.2018 -3.5308
  588MOL0     H79316   1.724   9.095  10.556  3.9309  0.5424 -0.3584
  588MOL0     H79317   1.625   9.045  10.823  1.3616  1.7382 -0.1264
  588MOL0     H79318   1.658   9.205  10.760  1.1962  0.0299 -0.1308
  588MOL0     H79319   1.491   9.195  10.592 -0.9823 -0.2958 -1.5853
  588MOL0     H79320   1.451   9.025  10.632  1.1686 -0.1359  0.5168
  588MOL0     H79321   1.345   9.103  10.821 -0.8985 -1.5461 -0.8181
  588MOL0     H79322   1.423   9.260  10.831  0.0811 -0.7318 -0.5076
  588MOL0     H79323   1.200   9.277  10.772 -1.3292 -1.7754 -0.4831
  588MOL0     H79324   1.315   9.359  10.658  1.0463  0.1198  1.7564
  588MOL0     H79325   1.244   9.172  10.490 -0.0015 -0.5239  0.4683
  588MOL0     H79326   1.156   9.093  10.620 -2.4913  0.4124  0.1160
  588MOL0     H79327   0.992   9.204  10.482  0.5372 -0.1094  0.0125
  588MOL0     H79328   0.992   9.299  10.635 -2.4439 -0.7800 -0.2653
  588MOL0     H79329   1.153   9.351  10.380 -0.3769  0.0397 -0.1773
  588MOL0     H79330   1.140   9.461  10.526 -1.0081 -1.9257  2.8310
  588MOL0     H79331   0.933   9.334  10.218  2.1739 -0.6758  0.6763
  588MOL0     H79332   0.742   9.610  10.103  0.8801 -0.3238 -0.3729
  588MOL0     H79333   0.765   9.451  10.065 -2.0855  1.3709 -0.9404
  588MOL0     H79334   0.541   9.474  10.037  3.5680 -0.8514 -0.9474
  588MOL0     H79335   0.526   9.565  10.195  0.4042  1.2211 -0.9991
  588MOL0     H79336   0.566   9.351  10.323 -1.4301  1.9488  0.2422
  588MOL0     H79337   0.593   9.264  10.169 -1.2575 -0.8820  0.6046
  588MOL0     H79338   0.354   9.232  10.245  0.2273  0.3034  1.0105
  588MOL0     H79339   0.399   9.267  10.087  2.2427  0.1246 -0.1576
  588MOL0     H79340   0.163   9.627  10.176 -0.9667 -3.0646  4.8093
  588MOL0     H79341  -0.171   9.699  10.128 -0.7417 -0.1394 -0.2458
  588MOL0     H79342  -0.010   9.774  10.084  2.6844 -2.5784  0.3120
  588MOL0     H79343  -0.128   9.718   9.966  0.2147 -1.9051 -0.3486
  588MOL0     H79344  -0.306   9.125   9.699 -0.7921  0.2116  0.2879
  588MOL0     H79345  -0.425   9.128   9.487  0.7483  0.2533 -1.5487
  588MOL0     H79346  -0.431   9.182   9.255 -0.4460 -0.5412 -1.4006
  588MOL0     H79347  -0.600   9.166   9.323 -1.5102 -1.0420 -2.9755
  588MOL0     H79348  -0.673   9.317   9.121 -0.9068 -1.6247 -1.3850
  588MOL0     H79349  -0.503   9.343   9.096  0.4005 -0.3400  2.8029
  588MOL0     H79350  -0.642   9.065   9.082  1.1611  0.4292  2.0516
  588MOL0     H79351  -0.487   9.088   9.019 -0.0446 -0.4134  0.7544
  588MOL0     H79352  -0.723   9.232   8.885 -0.5842 -1.6288 -1.4122
  588MOL0     H79353  -0.544   9.218   8.843 -0.2460 -1.2934 -0.8192
  588MOL0     H79354  -0.734   8.981   8.868 -0.0524 -0.7129 -0.6203
  588MOL0     H79355  -0.563   8.982   8.822 -1.0558 -0.5498 -0.2726
  588MOL0     H79356  -0.771   9.127   8.666  0.7119  2.4709  0.3922
  588MOL0     H79357  -0.605   9.099   8.609  0.7399  0.7137  2.2291
  588MOL0     H79358  -0.803   8.854   8.653 -1.6202 -2.3850 -2.4147
  588MOL0     H79359  -0.632   8.862   8.626  0.7860 -0.0775 -0.3294
  588MOL0     H79360  -0.659   8.922   8.395 -1.2317  1.8567 -3.3658
  588MOL0     H79361  -0.817   9.003   8.418  0.7246  0.4598 -0.6169
  588MOL0     H79362  -0.445   9.555   9.488 -0.0281  2.0852  1.6463
  588MOL0     H79363  -0.304   9.568   9.678 -0.0096  0.9458 -4.4796
  588MOL0     H79364  -0.035   9.239   9.951 -1.2066 -0.6429  1.6916
  588MOL0     H79365   0.185   9.219  10.078  3.9437  1.2019 -1.4882
  588MOL0     H79366   1.973   8.840  10.588  0.7525  2.3286  1.7863
  588MOL0     H79367   2.114   8.723  10.729  0.8666 -1.1141  0.8202
  588MOL0     H79368   2.107   8.442  11.113  0.6447 -2.0188  0.6727
  588MOL0     H79369   2.173   8.309  11.303 -1.6331  0.6953  0.0813
  588MOL0     H79370   2.378   8.443  11.676  1.5576 -0.9985 -3.0420
  588MOL0     H79371   2.218   8.511  11.625  0.7097 -0.0037  1.2023
  588MOL0     H79372   2.147   8.258  11.614  0.0217 -1.3257  1.5226
  588MOL0     H79373   2.118   8.358  11.746  2.2548  3.7544  0.9736
  588MOL0     H79374   2.338   8.268  11.855 -1.4762  4.8922 -1.4352
  588MOL0     H79375   2.367   8.163  11.725  0.8717  0.3284  1.3866
  588MOL0     H79376   2.116   8.156  11.903  1.0935 -1.5503  1.1204
  588MOL0     H79377   2.257   8.053  11.935  1.5656 -0.6595 -0.2690
  588MOL0     H79378   2.062   7.838  11.642  1.7573 -2.9291  3.7533
  588MOL0     H79379   2.332   8.649  11.487 -1.5404 -3.6597  3.4874
  588MOL0     H79380   2.247   8.795  11.316  0.5868 -0.1032 -2.8227
  589MOL0     O79381   5.569   6.152   0.078 -0.2233  0.2552  0.5282
  589MOL0     C79382   5.652   6.213   0.005  0.0725  0.4485  0.2869
  589MOL0     O79383   5.636   6.337  -0.042  0.4983  0.4864  0.6471
  589MOL0     C79384   5.520   6.413  -0.008 -0.2582  0.2462  0.3175
  589MOL0     C79385   5.409   6.430  -0.093  0.3941 -0.4710  0.8780
  589MOL0     C79386   5.311   6.528  -0.061  0.1209  0.0021  0.8233
  589MOL0     C79387   5.319   6.606   0.057  0.1763  0.2748  0.2657
  589MOL0     O79388   5.248   6.716   0.085  0.1757 -0.2980 -0.1292
  589MOL0     C79389   5.298   6.834   0.015 -0.6402  0.0846  0.6216
  589MOL0     C79390   5.180   6.936  -0.002 -0.4394 -0.7391 -0.6510
  589MOL0     C79391   5.218   7.058  -0.096  0.0980 -0.0331  0.6802
  589MOL0     C79392   5.340   7.133  -0.047  0.0201 -0.2130 -0.7665
  589MOL0     C79393   5.466   7.111  -0.129  0.6037  0.4286 -0.8176
  589MOL0     C79394   5.589   7.202  -0.084  0.3996  0.0354  0.3522
  589MOL0     C79395   5.718   7.127  -0.124 -0.7739 -0.2418 -0.1846
  589MOL0     C79396   5.815   7.227  -0.185  0.4895  0.1583 -0.2991
  589MOL0     N79397   5.936   7.149  -0.188 -1.2094  0.3386 -0.6870
  589MOL0     C79398   6.043   7.135  -0.094  0.4099 -0.2221  0.3295
  589MOL0     C79399   6.141   7.056  -0.157 -0.9755  0.9956  0.5442
  589MOL0     C79400   6.264   6.997  -0.087  0.5711 -0.0134  0.6234
  589MOL0     C79401   6.397   7.029  -0.152 -0.3648  0.0569  1.0148
  589MOL0     C79402   6.448   7.180  -0.149 -0.0409 -0.5094 -0.2505
  589MOL0     C79403   6.597   7.196  -0.126 -0.1886  0.7355 -0.1003
  589MOL0     O79404   6.626   7.332  -0.117  0.2969  0.0084 -1.2984
  589MOL0     C79405   6.679   7.401  -0.228  0.0999  0.1465 -0.6862
  589MOL0     C79406   6.705   7.341  -0.353  0.4009 -0.0004 -0.0771
  589MOL0     C79407   6.767   7.405  -0.465 -0.0949 -0.0291 -0.9586
  589MOL0     C79408   6.782   7.316  -0.584 -0.4235  0.3248 -0.5666
  589MOL0     C79409   6.800   7.544  -0.443  0.2550  0.5198 -0.5060
  589MOL0     C79410   6.878   7.622  -0.548 -0.5115  0.1227 -0.2261
  589MOL0     O79411   6.965   7.706  -0.486  0.5771  0.9322 -0.1461
  589MOL0     C79412   7.068   7.772  -0.542 -1.0313 -0.2923 -0.2186
  589MOL0     C79413   7.133   7.742  -0.659  0.6357 -0.7143  0.6693
  589MOL0     C79414   7.252   7.805  -0.691  0.0658  0.6577 -0.9261
  589MOL0     C79415   7.301   7.908  -0.614  0.5311  0.5757 -0.9071
  589MOL0     O79416   7.406   7.970  -0.663  0.0405  1.1926  0.5927
  589MOL0     C79417   7.454   8.088  -0.608  0.5316  0.6821 -1.2238
  589MOL0     C79418   7.574   8.143  -0.686  0.4673 -0.0435 -0.4960
  589MOL0     C79419   7.515   8.220  -0.808 -0.1377  0.3336  0.6290
  589MOL0     C79420   7.472   8.145  -0.938  0.9577  0.2452 -1.3044
  589MOL0     C79421   7.590   8.078  -1.013  0.7927 -0.0506  0.1741
  589MOL0     C79422   7.680   8.185  -1.080  0.3712 -0.0246 -0.1803
  589MOL0     C79423   7.822   8.125  -1.129  0.0333  0.1189  0.4562
  589MOL0     C79424   7.817   8.112  -1.283 -0.9885 -0.3567  0.5503
  589MOL0    Cl79425   7.703   7.974  -1.336 -0.0336 -0.2483  0.2656
  589MOL0     C79426   7.228   7.951  -0.496  1.0049 -0.9844 -0.3301
  589MOL0     C79427   7.113   7.883  -0.464  0.2888 -0.2081 -0.3078
  589MOL0     O79428   6.873   7.602  -0.665 -0.5422 -0.0819 -0.3686
  589MOL0     C79429   6.762   7.606  -0.319  0.2133 -0.1587 -1.0478
  589MOL0     C79430   6.702   7.535  -0.217 -0.2414 -0.6418  0.1802
  589MOL0     N79431   6.094   7.020  -0.281  0.0440 -0.3438 -0.3757
  589MOL0     N79432   5.983   7.082  -0.294  0.6214  0.9408  1.4636
  589MOL0     C79433   5.417   6.562   0.151  0.0056  0.1905  0.2051
  589MOL0     C79434   5.522   6.475   0.106  0.8133 -0.8827  0.1757
  589MOL0     C79435   5.772   6.138  -0.032 -0.6602  0.8186 -0.0855
  589MOL0     C79436   5.889   6.193  -0.095 -0.7573 -0.2368 -0.0521
  589MOL0     C79437   5.997   6.113  -0.122 -0.3043 -0.2620 -0.1197
  589MOL0     C79438   5.988   5.972  -0.093 -0.4339 -0.2694  0.6878
  589MOL0     O79439   6.098   5.903  -0.134 -0.1462 -0.1335 -0.7024
  589MOL0     C79440   6.099   5.763  -0.163  0.0440  0.1480 -0.0236
  589MOL0     C79441   6.016   5.732  -0.294  0.7653  1.0549  0.2919
  589MOL0     C79442   6.066   5.816  -0.417  0.7535  0.1630 -0.1152
  589MOL0     C79443   5.992   5.771  -0.536 -0.4246 -0.0283  0.0210
  589MOL0     C79444   6.027   5.858  -0.648 -0.0217 -0.2057 -0.7034
  589MOL0     C79445   6.068   5.918  -0.744 -0.2920  0.1350  0.9371
  589MOL0     C79446   5.887   5.927  -0.024 -0.0206 -0.1904 -0.4036
  589MOL0     C79447   5.777   6.009   0.012  0.0394 -0.3343 -0.4083
  589MOL0     H79448   5.403   6.390  -0.194  0.8166 -0.0445  0.6779
  589MOL0     H79449   5.237   6.546  -0.139  1.9638 -1.2523 -1.3396
  589MOL0     H79450   5.382   6.881   0.067 -0.3642 -0.2490  0.4820
  589MOL0     H79451   5.344   6.814  -0.082 -1.0298 -0.0248  0.4552
  589MOL0     H79452   5.089   6.884  -0.034 -2.1265  1.0641  0.9449
  589MOL0     H79453   5.162   6.971   0.100 -0.4815  1.0394 -1.2340
  589MOL0     H79454   5.239   7.015  -0.195  0.7219 -1.3150  1.3422
  589MOL0     H79455   5.137   7.131  -0.105  2.5322  2.7884  0.1119
  589MOL0     H79456   5.323   7.241  -0.040  1.6792 -0.0063  2.0624
  589MOL0     H79457   5.353   7.102   0.058 -1.6513 -1.1432 -0.8031
  589MOL0     H79458   5.492   7.011  -0.096 -2.1319 -0.9511 -2.4148
  589MOL0     H79459   5.445   7.119  -0.236 -0.3448  0.0331 -0.6761
  589MOL0     H79460   5.597   7.295  -0.140 -1.3442  0.5423  0.8675
  589MOL0     H79461   5.581   7.226   0.023 -3.4801 -2.6387  0.8859
  589MOL0     H79462   5.757   7.069  -0.040 -2.4684 -4.5783 -2.1014
  589MOL0     H79463   5.701   7.058  -0.206  3.7009 -1.1042 -0.6210
  589MOL0     H79464   5.815   7.323  -0.133 -1.8581  0.8054 -1.3439
  589MOL0     H79465   5.788   7.243  -0.290 -0.9455  4.3191  0.5164
  589MOL0     H79466   6.046   7.186   0.002 -2.0232 -0.8141  0.7648
  589MOL0     H79467   6.257   7.050   0.008 -0.1949 -0.3736  0.7765
  589MOL0     H79468   6.281   6.891  -0.068  3.3223  0.0765 -0.7697
  589MOL0     H79469   6.392   7.002  -0.257 -0.5470 -2.0074  1.5083
  589MOL0     H79470   6.473   6.967  -0.103  0.4827  1.3173  1.3595
  589MOL0     H79471   6.390   7.241  -0.081  2.4063  0.7009  0.8854
  589MOL0     H79472   6.435   7.220  -0.250  0.4044  0.8011  0.1907
  589MOL0     H79473   6.656   7.141  -0.201  0.8182 -0.4679  1.4984
  589MOL0     H79474   6.620   7.147  -0.031  0.2922 -2.9252 -1.8843
  589MOL0     H79475   6.676   7.238  -0.374 -0.4319 -0.1797  1.7587
  589MOL0     H79476   6.697   7.340  -0.648  1.0252  1.8050 -2.0209
  589MOL0     H79477   6.876   7.333  -0.638 -0.3784 -0.5783 -0.7921
  589MOL0     H79478   6.783   7.212  -0.548  1.2317  1.0991  1.8533
  589MOL0     H79479   7.090   7.679  -0.736 -1.6642  1.6941 -0.1805
  589MOL0     H79480   7.304   7.793  -0.786 -0.5183  0.1553 -1.1907
  589MOL0     H79481   7.381   8.169  -0.609  2.0951  2.2796  1.7696
  589MOL0     H79482   7.475   8.069  -0.503  1.1500 -0.9344 -1.6014
  589MOL0     H79483   7.626   8.218  -0.625 -2.2320 -1.2255  3.6554
  589MOL0     H79484   7.628   8.055  -0.723 -1.9914 -0.2414 -4.1205
  589MOL0     H79485   7.597   8.291  -0.821 -0.4754  0.5918 -0.1855
  589MOL0     H79486   7.423   8.275  -0.785 -1.8755 -2.3915  0.6883
  589MOL0     H79487   7.416   8.059  -0.901  1.9882 -0.6371 -1.7644
  589MOL0     H79488   7.415   8.214  -1.001 -1.7049 -1.4022 -0.8626
  589MOL0     H79489   7.549   8.009  -1.087  0.7957 -0.7148  0.7830
  589MOL0     H79490   7.649   8.017  -0.944 -1.5047 -1.0126  1.3734
  589MOL0     H79491   7.625   8.215  -1.169  0.0954 -4.4220 -1.7267
  589MOL0     H79492   7.688   8.274  -1.016 -1.6657  0.8056 -0.9733
  589MOL0     H79493   7.838   8.022  -1.095  3.4093  1.2677  2.8392
  589MOL0     H79494   7.897   8.190  -1.084  0.2646  0.5402 -0.5050
  589MOL0     H79495   7.921   8.116  -1.319 -0.4393 -0.5916  2.0664
  589MOL0     H79496   7.780   8.204  -1.330  0.3748 -0.2725 -0.4385
  589MOL0     H79497   7.266   8.026  -0.428 -1.1505 -0.9708  0.9664
  589MOL0     H79498   7.065   7.914  -0.372  0.4482 -2.3652  0.5662
  589MOL0     H79499   6.776   7.711  -0.298 -2.9702  0.0553  0.5545
  589MOL0     H79500   6.695   7.588  -0.123 -0.3540  2.5772 -1.4687
  589MOL0     H79501   5.439   6.600   0.251  4.9593 -0.9861 -0.1985
  589MOL0     H79502   5.606   6.437   0.164  0.0765 -3.8463 -0.5237
  589MOL0     H79503   5.885   6.297  -0.127 -0.6963 -1.2053 -3.7461
  589MOL0     H79504   6.092   6.151  -0.159  1.1129 -2.8633  0.6264
  589MOL0     H79505   6.203   5.737  -0.184  0.2413 -0.8312  1.9631
  589MOL0     H79506   6.067   5.708  -0.074  0.2598 -1.3379 -0.8230
  589MOL0     H79507   5.908   5.750  -0.286  0.6756  0.1750  1.2300
  589MOL0     H79508   6.025   5.625  -0.310  4.5919  1.1254  1.0446
  589MOL0     H79509   6.173   5.798  -0.434  0.1997 -2.9925 -0.8226
  589MOL0     H79510   6.040   5.920  -0.398  2.6684  1.0730 -2.0880
  589MOL0     H79511   5.883   5.770  -0.523 -0.3178 -2.1960  1.2662
  589MOL0     H79512   6.010   5.665  -0.555  1.6476  0.2799  0.0627
  589MOL0     H79513   6.074   5.988  -0.825 -3.5160 -1.3350 -0.7636
  589MOL0     H79514   5.876   5.820  -0.011 -2.6955  0.2257  1.5089
  589MOL0     H79515   5.711   5.964   0.085 -1.5901 -0.1345 -1.6934
  590MOL0     O79516   0.599   8.580   8.594 -0.6487 -0.7052  0.1132
  590MOL0     C79517   0.527   8.522   8.667 -0.3863 -0.2202  0.0879
  590MOL0     O79518   0.471   8.575   8.781 -0.1126 -0.5621  0.1548
  590MOL0     C79519   0.507   8.690   8.840  1.0008 -0.1287 -0.1842
  590MOL0     C79520   0.445   8.808   8.793 -0.1103  0.3619 -0.3382
  590MOL0     C79521   0.461   8.933   8.865  0.3480  0.5244 -0.6753
  590MOL0     C79522   0.542   8.944   8.977 -0.0391 -1.5878 -0.9929
  590MOL0     O79523   0.562   9.072   9.039  0.3588  0.1311 -0.1263
  590MOL0     C79524   0.684   9.093   9.121  0.3457  0.1428 -0.1659
  590MOL0     C79525   0.672   9.213   9.217  0.0324  0.2428  0.2587
  590MOL0     C79526   0.774   9.210   9.328 -1.6337 -0.9138  0.1034
  590MOL0     C79527   0.921   9.226   9.265  0.0635 -1.3968  0.3300
  590MOL0     C79528   1.013   9.271   9.380 -0.0457  0.2543 -0.5062
  590MOL0     C79529   1.158   9.284   9.337 -0.4132 -0.1498  0.2098
  590MOL0     C79530   1.224   9.154   9.291  0.2202  0.0613 -0.5673
  590MOL0     C79531   1.374   9.190   9.288 -0.1041 -0.5914 -0.0495
  590MOL0     N79532   1.438   9.066   9.254  0.0472 -0.0076 -0.2292
  590MOL0     C79533   1.506   8.981   9.340 -1.4456 -0.8427  0.4884
  590MOL0     C79534   1.580   8.908   9.254 -0.1048 -0.4353  0.7833
  590MOL0     C79535   1.646   8.782   9.297  0.4426 -0.3441  0.4295
  590MOL0     C79536   1.786   8.787   9.256 -0.2238 -0.5978 -0.1466
  590MOL0     C79537   1.865   8.691   9.338 -0.8694  0.9652  0.5764
  590MOL0     C79538   2.005   8.670   9.300  0.4057  0.7958  1.4778
  590MOL0     O79539   2.087   8.796   9.274  0.0250 -1.1300  0.6890
  590MOL0     C79540   2.218   8.799   9.311  0.6930 -1.0756 -0.2007
  590MOL0     C79541   2.262   8.929   9.334  0.2839 -1.2802 -0.2529
  590MOL0     C79542   2.397   8.956   9.364  0.0921 -0.4523  0.4510
  590MOL0     C79543   2.444   9.096   9.357 -0.1358  0.3237  0.8202
  590MOL0     C79544   2.480   8.840   9.362 -0.1305 -0.5282  0.0431
  590MOL0     C79545   2.627   8.858   9.364 -0.1682  0.6679  0.6767
  590MOL0     O79546   2.685   8.927   9.259 -0.2375 -0.3389 -0.4150
  590MOL0     C79547   2.816   8.941   9.239  0.0908  0.3795  0.5698
  590MOL0     C79548   2.864   8.960   9.108  0.1568 -0.4116  0.7934
  590MOL0     C79549   2.998   8.968   9.073  0.9706  0.3579 -0.1374
  590MOL0     C79550   3.094   8.976   9.172 -0.1063 -0.5702 -0.4311
  590MOL0     O79551   3.232   9.003   9.161  0.5981 -0.0876 -0.3197
  590MOL0     C79552   3.273   9.096   9.057  0.6704  0.3655 -0.8227
  590MOL0     C79553   3.425   9.121   9.059  0.2256 -0.1404 -0.7222
  590MOL0     C79554   3.446   9.256   8.978 -0.0953  0.0245 -0.2020
  590MOL0     C79555   3.563   9.251   8.887 -0.1462  0.3716  0.1771
  590MOL0     C79556   3.556   9.359   8.785  0.1037 -0.4674 -0.8327
  590MOL0     C79557   3.674   9.346   8.683  1.5868  0.2481  0.8936
  590MOL0     C79558   3.688   9.472   8.587  0.2063 -0.4433 -0.4539
  590MOL0     C79559   3.706   9.440   8.445 -0.1507 -0.6473  0.6818
  590MOL0    Cl79560   3.687   9.600   8.354 -0.1132 -0.2105  0.0308
  590MOL0     C79561   3.053   8.959   9.305  0.1285  0.1168 -0.2211
  590MOL0     C79562   2.915   8.939   9.337  0.2200 -0.5473 -0.8536
  590MOL0     O79563   2.692   8.795   9.445  0.1301 -1.0823 -0.0252
  590MOL0     C79564   2.424   8.713   9.347 -0.1616 -0.6069 -0.0295
  590MOL0     C79565   2.295   8.686   9.317  0.4348  0.1427 -0.4710
  590MOL0     N79566   1.558   8.940   9.118 -0.1613 -0.0163 -0.5895
  590MOL0     N79567   1.477   9.037   9.122  0.7720  1.1682 -0.0034
  590MOL0     C79568   0.599   8.823   9.023  0.6992  0.0419  0.0104
  590MOL0     C79569   0.577   8.702   8.956  0.7990  0.1674 -0.2042
  590MOL0     C79570   0.479   8.400   8.619  0.0345 -0.7689  0.4359
  590MOL0     C79571   0.427   8.296   8.704  0.4272  0.7157 -0.4345
  590MOL0     C79572   0.381   8.174   8.651  0.0718  0.2507 -0.0754
  590MOL0     C79573   0.389   8.156   8.516  0.5674  0.7810  0.5912
  590MOL0     O79574   0.360   8.035   8.453 -0.6393  1.2526 -0.0999
  590MOL0     C79575   0.227   8.029   8.399  0.5853 -0.5670 -0.4857
  590MOL0     C79576   0.155   7.914   8.448 -1.1585 -0.8365 -0.6505
  590MOL0     C79577   0.080   7.930   8.581  0.1952 -0.4415 -0.0117
  590MOL0     C79578  -0.010   7.819   8.622  0.0101 -0.7700  0.2796
  590MOL0     C79579  -0.133   7.831   8.557  0.0682 -0.6373  0.3253
  590MOL0     C79580  -0.239   7.853   8.510 -0.2220  0.6310  0.4552
  590MOL0     C79581   0.438   8.252   8.432 -0.7362  1.2925  0.5252
  590MOL0     C79582   0.484   8.373   8.481 -0.5693 -0.1718 -0.7178
  590MOL0     H79583   0.389   8.809   8.700 -0.3387  4.3408 -0.3258
  590MOL0     H79584   0.418   9.016   8.810 -4.6846 -2.2006 -1.4249
  590MOL0     H79585   0.707   9.013   9.193  2.1761  0.7971  0.0247
  590MOL0     H79586   0.764   9.107   9.049  0.1155 -0.5997 -0.5768
  590MOL0     H79587   0.680   9.299   9.150  1.9457 -0.4139 -0.4427
  590MOL0     H79588   0.569   9.204   9.253 -0.6951  1.2778 -1.4585
  590MOL0     H79589   0.747   9.299   9.385 -2.2983  0.0299 -1.6171
  590MOL0     H79590   0.769   9.120   9.390  4.3224 -0.9969  1.0401
  590MOL0     H79591   0.954   9.134   9.216 -1.2479 -1.0655 -1.2660
  590MOL0     H79592   0.910   9.306   9.190 -1.4342 -0.7699  1.1856
  590MOL0     H79593   0.982   9.358   9.439 -2.2374 -0.2217 -0.8643
  590MOL0     H79594   1.018   9.182   9.444 -0.1373 -0.4324 -1.4289
  590MOL0     H79595   1.163   9.354   9.253  4.4748 -0.1633  0.1748
  590MOL0     H79596   1.212   9.333   9.419  1.5901  1.2324 -1.7961
  590MOL0     H79597   1.209   9.079   9.369 -3.1432  0.3797 -0.7729
  590MOL0     H79598   1.185   9.124   9.193  1.3010 -0.7507 -0.7640
  590MOL0     H79599   1.404   9.233   9.384 -0.7038 -0.0780 -0.0867
  590MOL0     H79600   1.396   9.270   9.217  0.2996  1.1471  1.9473
  590MOL0     H79601   1.515   8.972   9.447  2.3382 -1.2057  0.2896
  590MOL0     H79602   1.637   8.761   9.404  1.7690 -4.2387 -0.0599
  590MOL0     H79603   1.586   8.701   9.255 -1.6715  0.5850  1.5114
  590MOL0     H79604   1.825   8.887   9.278  0.5698 -0.3011 -2.6175
  590MOL0     H79605   1.796   8.770   9.149 -0.1642 -0.1135 -0.2170
  590MOL0     H79606   1.805   8.600   9.333 -1.8489  1.6715 -2.6965
  590MOL0     H79607   1.875   8.734   9.438  0.7643  1.8407  0.0643
  590MOL0     H79608   2.009   8.614   9.206 -0.0341  2.2582  0.5577
  590MOL0     H79609   2.050   8.603   9.374 -0.5521  0.7440  2.0200
  590MOL0     H79610   2.197   9.012   9.308  3.3608  1.9095  1.4434
  590MOL0     H79611   2.546   9.097   9.395  0.1114 -1.6988  0.3037
  590MOL0     H79612   2.469   9.122   9.254  5.0678  0.3605  1.8012
  590MOL0     H79613   2.377   9.166   9.409  0.3425  1.4172  0.0046
  590MOL0     H79614   2.795   8.952   9.024  1.1421 -0.5894 -0.0291
  590MOL0     H79615   3.037   8.979   8.972 -0.9034  0.3424 -0.9099
  590MOL0     H79616   3.262   9.058   8.955  3.6019 -4.1690  0.2607
  590MOL0     H79617   3.213   9.185   9.079  1.6042  0.3322  2.4396
  590MOL0     H79618   3.464   9.133   9.161  1.4703 -2.5850 -0.8363
  590MOL0     H79619   3.480   9.032   9.030 -1.6823 -0.9509 -2.0484
  590MOL0     H79620   3.434   9.336   9.052 -1.7193  0.4597 -0.8937
  590MOL0     H79621   3.364   9.267   8.907 -0.7450  1.9554  0.7750
  590MOL0     H79622   3.660   9.252   8.938  0.1548  3.2409 -0.2512
  590MOL0     H79623   3.562   9.153   8.839  0.2686 -0.6884  2.1854
  590MOL0     H79624   3.570   9.461   8.823 -0.2484  0.0265 -1.9571
  590MOL0     H79625   3.464   9.359   8.726 -0.6550 -0.4919  0.3306
  590MOL0     H79626   3.760   9.320   8.745  3.4675 -1.7055 -2.2515
  590MOL0     H79627   3.656   9.260   8.618 -2.2503  0.3418  1.5508
  590MOL0     H79628   3.779   9.524   8.619  0.6618 -1.2431 -0.4293
  590MOL0     H79629   3.604   9.542   8.589  0.9518  0.4616 -0.0119
  590MOL0     H79630   3.627   9.368   8.422 -1.2439  1.1557 -1.5113
  590MOL0     H79631   3.804   9.395   8.427 -0.5229 -0.1318 -3.6712
  590MOL0     H79632   3.120   8.955   9.391 -1.3360 -0.9598  0.9358
  590MOL0     H79633   2.890   8.935   9.442 -1.1259  3.5041 -0.8125
  590MOL0     H79634   2.491   8.628   9.341  1.9220  1.0390 -1.5835
  590MOL0     H79635   2.253   8.590   9.289 -1.3415  0.1728  1.7497
  590MOL0     H79636   0.664   8.825   9.109  1.3699  1.4044 -0.4968
  590MOL0     H79637   0.617   8.610   8.997 -2.8937 -1.0936  0.9963
  590MOL0     H79638   0.418   8.314   8.810  0.5537 -0.1326 -0.2741
  590MOL0     H79639   0.354   8.094   8.719  2.3466  1.1104  1.9678
  590MOL0     H79640   0.170   8.119   8.426 -0.3067 -0.9944 -0.8905
  590MOL0     H79641   0.241   8.024   8.291  1.6302  2.0470 -0.5578
  590MOL0     H79642   0.234   7.843   8.471  1.6973  2.3667  0.2854
  590MOL0     H79643   0.086   7.887   8.368 -1.9383  0.9671 -0.6589
  590MOL0     H79644   0.028   8.026   8.586 -0.8908 -0.9734 -0.6539
  590MOL0     H79645   0.149   7.931   8.666  2.0222  1.2384 -1.4214
  590MOL0     H79646  -0.023   7.818   8.731  1.8154  0.3021  0.5431
  590MOL0     H79647   0.042   7.728   8.590  0.8393  0.3901 -1.8410
  590MOL0     H79648  -0.332   7.884   8.468  0.2024 -0.0769 -1.0674
  590MOL0     H79649   0.444   8.225   8.327  4.2175 -0.8332  1.0856
  590MOL0     H79650   0.529   8.446   8.414 -3.2845  2.4761  0.0910
  591MOL0     O79651   1.524   2.449  10.003  0.0714 -0.2897 -0.2167
  591MOL0     C79652   1.528   2.536   9.920 -0.4455 -0.1692 -0.4631
  591MOL0     O79653   1.421   2.617   9.872  0.6385 -0.2735  0.1719
  591MOL0     C79654   1.302   2.603   9.939  0.9180 -0.1318  0.3735
  591MOL0     C79655   1.226   2.486   9.922  1.1645  0.6097  0.1423
  591MOL0     C79656   1.101   2.474   9.985 -0.0125 -0.6614  0.3406
  591MOL0     C79657   1.044   2.580  10.064 -0.4167  0.8454 -0.7073
  591MOL0     O79658   0.928   2.546  10.137 -0.0533  0.7309 -0.8084
  591MOL0     C79659   0.834   2.652  10.156  0.5256 -0.0533  0.5533
  591MOL0     C79660   0.723   2.592  10.244  0.2575  0.0939  0.1788
  591MOL0     C79661   0.656   2.697  10.324  0.4577  0.5781  0.1948
  591MOL0     C79662   0.531   2.751  10.256  0.9616  0.3864 -0.1853
  591MOL0     C79663   0.410   2.774  10.342  0.0604 -0.6324  0.8773
  591MOL0     C79664   0.290   2.822  10.261 -0.0099  0.4139  0.9451
  591MOL0     C79665   0.173   2.851  10.356  0.1373  1.2522  1.1079
  591MOL0     C79666   0.066   2.919  10.273 -0.2586 -0.3941  1.2082
  591MOL0     N79667  -0.051   2.967  10.346  0.0729  0.1392 -0.2737
  591MOL0     C79668  -0.051   3.062  10.445  0.9769  0.2404 -0.3746
  591MOL0     C79669  -0.173   3.057  10.501 -0.8282 -0.1292  0.4891
  591MOL0     C79670  -0.207   3.148  10.617 -0.5538 -0.3788  1.2324
  591MOL0     C79671  -0.109   3.133  10.738  0.5583  0.2858 -0.3645
  591MOL0     C79672  -0.173   3.163  10.875  0.9621 -0.1150  0.6897
  591MOL0     C79673  -0.255   3.290  10.884 -0.2939  0.0482  0.1792
  591MOL0     O79674  -0.180   3.408  10.837 -0.5939  0.1404  0.1880
  591MOL0     C79675  -0.084   3.469  10.918 -0.7355 -0.4985 -0.0496
  591MOL0     C79676   0.011   3.561  10.864 -1.1667 -0.0080 -0.1322
  591MOL0     C79677   0.122   3.621  10.924  0.6978 -0.0224  0.3069
  591MOL0     C79678   0.213   3.685  10.830 -0.4281 -0.1569 -0.1727
  591MOL0     C79679   0.136   3.604  11.057  0.4173 -0.1220 -1.6637
  591MOL0     C79680   0.251   3.640  11.134 -0.0135  0.8188 -0.1477
  591MOL0     O79681   0.271   3.588  11.266  0.4546 -1.4569  0.6690
  591MOL0     C79682   0.395   3.596  11.317  0.1428 -0.5298  0.7451
  591MOL0     C79683   0.512   3.556  11.257 -0.2504  0.3885  0.3481
  591MOL0     C79684   0.626   3.548  11.328 -0.1299 -0.0323 -0.2575
  591MOL0     C79685   0.631   3.559  11.474 -0.8092  0.1205 -0.1439
  591MOL0     O79686   0.744   3.516  11.531 -0.0431 -0.3871 -0.0829
  591MOL0     C79687   0.771   3.547  11.669  0.1035  1.1734 -0.5333
  591MOL0     C79688   0.908   3.482  11.691 -0.1555 -0.4246  0.6075
  591MOL0     C79689   1.025   3.560  11.628 -0.5632 -0.3316 -0.3270
  591MOL0     C79690   1.149   3.485  11.671 -0.2821 -0.0607  0.0944
  591MOL0     C79691   1.216   3.542  11.800  0.6946 -1.0387  0.7016
  591MOL0     C79692   1.334   3.456  11.855  1.0022 -0.6114  1.3812
  591MOL0     C79693   1.303   3.305  11.872  1.1345  0.0275  0.0819
  591MOL0     C79694   1.371   3.232  11.755 -0.2126 -0.0447  0.3838
  591MOL0    Cl79695   1.283   3.086  11.758 -0.1989  0.0601 -0.2854
  591MOL0     C79696   0.512   3.604  11.538 -0.4684  0.2429  0.3197
  591MOL0     C79697   0.399   3.614  11.458  0.8489  0.2496 -0.6255
  591MOL0     O79698   0.343   3.696  11.078 -0.2022 -0.4244  0.4717
  591MOL0     C79699   0.043   3.518  11.121  0.2635  0.0897  1.0532
  591MOL0     C79700  -0.056   3.444  11.054  0.3692 -0.1657 -0.2142
  591MOL0     N79701  -0.254   2.971  10.422  0.3686  0.7954 -0.6984
  591MOL0     N79702  -0.184   2.921  10.329 -0.1427 -1.0201 -0.0087
  591MOL0     C79703   1.110   2.702  10.069 -0.3867  0.9017 -0.7300
  591MOL0     C79704   1.238   2.710  10.010  0.0668  0.0180 -0.0355
  591MOL0     C79705   1.664   2.561   9.872  0.3851  0.4908  0.1698
  591MOL0     C79706   1.774   2.521   9.954  0.3825  0.0219 -0.2882
  591MOL0     C79707   1.904   2.533   9.903 -0.3188  0.0974  0.5276
  591MOL0     C79708   1.929   2.584   9.773  0.1819  0.2158 -0.4565
  591MOL0     O79709   2.054   2.586   9.725  0.2653  0.3953 -0.2707
  591MOL0     C79710   2.090   2.456   9.691 -0.0569  0.4449  0.5132
  591MOL0     C79711   2.227   2.450   9.634 -0.3827 -0.1042  0.7749
  591MOL0     C79712   2.331   2.524   9.711 -0.2658 -0.7873  0.7809
  591MOL0     C79713   2.366   2.675   9.692 -1.1188 -0.5742 -0.0148
  591MOL0     C79714   2.362   2.725   9.552 -0.8996 -1.0693  0.2254
  591MOL0     C79715   2.357   2.752   9.437 -0.0657  0.1524 -0.1024
  591MOL0     C79716   1.820   2.633   9.697  0.7156  0.8749 -0.6239
  591MOL0     C79717   1.686   2.619   9.748 -0.0460  0.0226  0.5344
  591MOL0     H79718   1.277   2.405   9.871 -1.3444 -1.1734  0.2887
  591MOL0     H79719   1.053   2.377   9.976 -0.4958 -0.4699  0.7992
  591MOL0     H79720   0.881   2.738  10.204 -2.2738  1.5357  0.6185
  591MOL0     H79721   0.781   2.687  10.067 -0.2899 -1.0584  0.6288
  591MOL0     H79722   0.650   2.527  10.195  2.4288 -1.8778 -0.6015
  591MOL0     H79723   0.780   2.528  10.311 -0.2181 -0.0379  0.4587
  591MOL0     H79724   0.616   2.645  10.411 -2.2406  1.9765 -0.1136
  591MOL0     H79725   0.729   2.772  10.356 -0.0927  1.4131 -0.4878
  591MOL0     H79726   0.556   2.838  10.195  0.1129  0.6211 -0.2106
  591MOL0     H79727   0.490   2.688  10.176 -3.8350 -1.5223  3.2634
  591MOL0     H79728   0.382   2.677  10.385 -2.1302 -0.8844 -0.9660
  591MOL0     H79729   0.439   2.850  10.416  0.4116  0.1497 -0.0424
  591MOL0     H79730   0.300   2.914  10.203 -0.1242  0.5526  1.1448
  591MOL0     H79731   0.268   2.753  10.179  2.0167  2.0920 -1.1474
  591MOL0     H79732   0.135   2.761  10.406  0.0280  1.1054  0.7658
  591MOL0     H79733   0.211   2.920  10.432  1.7949  0.4306  1.0805
  591MOL0     H79734   0.042   2.847  10.194 -1.3436  1.6605 -0.4596
  591MOL0     H79735   0.111   3.013  10.238 -3.7588  1.5125  1.3060
  591MOL0     H79736   0.034   3.126  10.464  1.3727  0.0438 -1.3884
  591MOL0     H79737  -0.186   3.244  10.569 -0.4394 -1.4841 -1.0491
  591MOL0     H79738  -0.311   3.128  10.647 -1.5220  2.9022  0.4393
  591MOL0     H79739  -0.021   3.194  10.717 -0.9697  2.6075 -0.3682
  591MOL0     H79740  -0.085   3.026  10.749  0.6537 -0.1070 -3.4697
  591MOL0     H79741  -0.099   3.155  10.955 -2.1857 -0.3472  3.7972
  591MOL0     H79742  -0.240   3.083  10.907 -0.0381  0.6295  0.5153
  591MOL0     H79743  -0.285   3.309  10.988  0.0602  2.3884 -0.0984
  591MOL0     H79744  -0.348   3.276  10.828  0.7800 -0.8296 -1.4577
  591MOL0     H79745   0.009   3.586  10.758  3.9566  3.0715  0.1543
  591MOL0     H79746   0.295   3.613  10.817 -0.5086 -0.2370 -0.2386
  591MOL0     H79747   0.170   3.709  10.732  1.8878  0.6153 -1.0701
  591MOL0     H79748   0.244   3.782  10.869 -1.7426  2.0910 -4.1766
  591MOL0     H79749   0.511   3.533  11.151  2.5781  0.2875  0.2718
  591MOL0     H79750   0.714   3.506  11.280 -0.6912 -1.2974 -0.2170
  591MOL0     H79751   0.774   3.656  11.679 -0.1354  1.3911 -2.3873
  591MOL0     H79752   0.686   3.502  11.721  0.6257  0.9019  0.0960
  591MOL0     H79753   0.926   3.476  11.799 -0.2156  0.2928  0.6594
  591MOL0     H79754   0.897   3.378  11.657  2.3517 -0.7621  0.6027
  591MOL0     H79755   1.025   3.667  11.651  0.1143 -0.3038 -0.4395
  591MOL0     H79756   1.017   3.548  11.520 -0.4337 -0.6995 -0.2975
  591MOL0     H79757   1.120   3.381  11.685  0.2892 -0.2415 -0.0451
  591MOL0     H79758   1.223   3.491  11.591  1.3554 -6.1303  0.6419
  591MOL0     H79759   1.147   3.534  11.885 -0.3195 -0.3594 -0.0316
  591MOL0     H79760   1.250   3.644  11.780 -3.0312  0.7982  2.6278
  591MOL0     H79761   1.422   3.466  11.792 -0.9159  0.3851 -1.3055
  591MOL0     H79762   1.363   3.499  11.951  1.3129 -0.8169  1.3810
  591MOL0     H79763   1.194   3.293  11.870  1.2050 -0.5209 -1.8814
  591MOL0     H79764   1.350   3.287  11.970 -1.1347  1.9337  1.6431
  591MOL0     H79765   1.479   3.224  11.774  0.0721  2.2366  0.0044
  591MOL0     H79766   1.358   3.283  11.659 -5.6157  0.2835  0.9868
  591MOL0     H79767   0.517   3.640  11.640 -0.5510 -0.5534  0.6094
  591MOL0     H79768   0.318   3.651  11.520  1.6042 -2.3852  2.2143
  591MOL0     H79769   0.050   3.491  11.226  2.4022 -0.2671  0.8702
  591MOL0     H79770  -0.119   3.369  11.101  0.1513 -1.1762 -2.0201
  591MOL0     H79771   1.078   2.790  10.125  0.5136 -0.0295  1.3555
  591MOL0     H79772   1.295   2.801  10.029  0.6821  0.0542 -1.8666
  591MOL0     H79773   1.763   2.467  10.048  0.7339  0.3334 -0.0636
  591MOL0     H79774   1.991   2.508   9.962  0.9473  0.3605 -1.1559
  591MOL0     H79775   2.102   2.394   9.781  0.7542  0.8152  0.6693
  591MOL0     H79776   2.016   2.419   9.620 -0.8111  2.9069 -0.0792
  591MOL0     H79777   2.246   2.473   9.529  1.0770  2.1304  1.4455
  591MOL0     H79778   2.262   2.346   9.642 -1.3287 -0.5895 -0.9179
  591MOL0     H79779   2.424   2.469   9.697  0.3178 -0.7261  3.7999
  591MOL0     H79780   2.310   2.511   9.818 -1.3113  1.3001  0.8871
  591MOL0     H79781   2.465   2.698   9.735 -0.8286  1.0117 -1.4012
  591MOL0     H79782   2.300   2.738   9.752 -0.3647  0.2720 -0.0493
  591MOL0     H79783   2.354   2.776   9.333 -0.3652  0.6934  0.0255
  591MOL0     H79784   1.836   2.660   9.593  0.1483  0.7796 -0.7393
  591MOL0     H79785   1.601   2.639   9.684 -0.1268  5.0331  1.8021
  592MOL0     O79786   5.134   6.517   3.109 -0.1421  0.1023 -0.4318
  592MOL0     C79787   5.181   6.585   3.209  0.9148 -0.1185  0.7190
  592MOL0     O79788   5.120   6.590   3.330 -0.3471 -0.2975  0.0457
  592MOL0     C79789   5.018   6.513   3.373 -0.6065 -0.2179  0.4714
  592MOL0     C79790   4.958   6.550   3.493  0.3726  0.1073 -0.0208
  592MOL0     C79791   4.851   6.474   3.548  0.2802 -0.1367  0.1323
  592MOL0     C79792   4.791   6.372   3.475 -0.5894  0.4060 -1.0068
  592MOL0     O79793   4.686   6.287   3.517 -0.6028 -0.5204  0.1052
  592MOL0     C79794   4.625   6.313   3.648 -0.9104  0.9201  1.0476
  592MOL0     C79795   4.476   6.280   3.643  0.8585 -0.0623  0.2848
  592MOL0     C79796   4.444   6.145   3.601  0.2299 -0.4735  0.5673
  592MOL0     C79797   4.479   6.036   3.702 -0.1936 -0.3858  0.1883
  592MOL0     C79798   4.454   5.892   3.659 -0.3037 -0.8270 -0.6288
  592MOL0     C79799   4.464   5.792   3.784  1.2392 -1.3672 -0.3994
  592MOL0     C79800   4.440   5.656   3.725 -0.3185  0.0598  0.3446
  592MOL0     C79801   4.521   5.601   3.602 -0.6970  0.4670  0.2659
  592MOL0     N79802   4.503   5.456   3.587  0.6398  0.3728 -0.4164
  592MOL0     C79803   4.386   5.398   3.533  0.1923  0.1279  0.2451
  592MOL0     C79804   4.416   5.271   3.502  0.4312 -0.3151 -0.2866
  592MOL0     C79805   4.320   5.162   3.440  0.0652 -0.6561  0.1795
  592MOL0     C79806   4.308   5.044   3.537 -0.0832 -0.6101  0.7027
  592MOL0     C79807   4.251   5.087   3.670 -1.0791  0.3472  0.3946
  592MOL0     C79808   4.287   4.974   3.773 -1.0032  0.1831 -0.6484
  592MOL0     O79809   4.425   4.991   3.814  0.4116  0.1414 -0.3781
  592MOL0     C79810   4.468   4.916   3.923  1.0175 -0.6812  0.4134
  592MOL0     C79811   4.570   4.960   4.003  0.2544  0.1464 -0.7364
  592MOL0     C79812   4.640   4.880   4.104  0.4925 -0.0203  0.5385
  592MOL0     C79813   4.762   4.943   4.161 -0.1538 -1.0191 -0.2273
  592MOL0     C79814   4.584   4.746   4.135  0.8291  1.1490  0.7515
  592MOL0     C79815   4.634   4.641   4.234 -1.2023 -0.3466 -0.2285
  592MOL0     O79816   4.695   4.704   4.336  0.0436 -0.1884  0.6023
  592MOL0     C79817   4.715   4.633   4.452  0.4060 -0.8110  0.4369
  592MOL0     C79818   4.824   4.550   4.475  0.2414  1.3413  0.0278
  592MOL0     C79819   4.837   4.493   4.603 -0.3967  0.3712 -0.6068
  592MOL0     C79820   4.749   4.520   4.708  0.2693 -0.2147  0.6771
  592MOL0     O79821   4.746   4.473   4.841  0.2979  0.2026  0.6537
  592MOL0     C79822   4.851   4.395   4.891  0.1172  0.3300 -0.4086
  592MOL0     C79823   4.822   4.354   5.040  0.1683 -0.4387 -1.0747
  592MOL0     C79824   4.735   4.229   5.071 -0.3477  0.2151  0.2055
  592MOL0     C79825   4.619   4.206   4.977  1.1054 -0.3373 -0.2608
  592MOL0     C79826   4.491   4.282   4.996 -0.1237  0.1766  0.6129
  592MOL0     C79827   4.419   4.272   5.131 -0.0479  0.1263  0.9655
  592MOL0     C79828   4.301   4.376   5.140 -0.3673  0.6741  0.3943
  592MOL0     C79829   4.180   4.287   5.159  0.4778  0.0048 -0.1768
  592MOL0    Cl79830   4.193   4.205   5.315  0.0204 -0.3151 -0.3677
  592MOL0     C79831   4.651   4.607   4.682  0.0287  0.2830 -0.3669
  592MOL0     C79832   4.625   4.662   4.559  0.5729 -0.5764 -0.5974
  592MOL0     O79833   4.589   4.525   4.238 -0.0296 -0.1082 -0.2583
  592MOL0     C79834   4.487   4.699   4.036 -0.3413 -0.4396 -0.5286
  592MOL0     C79835   4.431   4.781   3.933 -0.1435 -0.1248 -0.9787
  592MOL0     N79836   4.547   5.252   3.529 -0.7048  0.2438  0.1584
  592MOL0     N79837   4.603   5.363   3.572 -0.8400 -0.0428  0.7186
  592MOL0     C79838   4.864   6.322   3.364 -0.1359 -0.3241  0.1187
  592MOL0     C79839   4.975   6.395   3.308  0.2250  1.1158 -0.0220
  592MOL0     C79840   5.312   6.649   3.186 -0.0342 -0.7964  0.0758
  592MOL0     C79841   5.395   6.673   3.296  0.0414 -0.2841  1.5681
  592MOL0     C79842   5.514   6.744   3.269  0.6158 -0.1192  0.2541
  592MOL0     C79843   5.553   6.788   3.144 -0.2279 -0.6360 -0.3287
  592MOL0     O79844   5.670   6.867   3.113 -0.4350  0.4126  0.1062
  592MOL0     C79845   5.746   6.913   3.235 -0.8798 -0.7160 -1.6423
  592MOL0     C79846   5.695   7.045   3.293  0.4263  0.6923  0.7306
  592MOL0     C79847   5.779   7.099   3.409 -0.7398  0.4375  0.7351
  592MOL0     C79848   5.750   7.024   3.545  0.7864  0.0417  0.7549
  592MOL0     C79849   5.608   7.006   3.564 -0.0614  0.3116  0.5528
  592MOL0     C79850   5.487   6.980   3.579  0.1785  0.2763  0.4257
  592MOL0     C79851   5.480   6.749   3.040 -0.0072  0.6169 -0.1214
  592MOL0     C79852   5.367   6.677   3.063  0.7155  0.3142 -0.0526
  592MOL0     H79853   4.981   6.645   3.541  3.1844 -0.6726  0.3023
  592MOL0     H79854   4.810   6.511   3.641  0.1631  0.0323  0.0139
  592MOL0     H79855   4.685   6.259   3.722  1.9959  1.2225 -0.9460
  592MOL0     H79856   4.621   6.422   3.653 -0.9861  1.0113 -0.5557
  592MOL0     H79857   4.435   6.303   3.742  2.4871 -0.9042  1.1891
  592MOL0     H79858   4.432   6.356   3.578  3.4172  0.8618 -0.4822
  592MOL0     H79859   4.336   6.138   3.585  0.2878  0.1389 -0.1381
  592MOL0     H79860   4.488   6.111   3.507  2.5282 -0.8544  1.7163
  592MOL0     H79861   4.580   6.053   3.740  0.6532 -1.6415 -1.3715
  592MOL0     H79862   4.419   6.068   3.788  2.5357 -0.4705  2.2686
  592MOL0     H79863   4.348   5.892   3.634 -0.4717  0.0419  0.0112
  592MOL0     H79864   4.519   5.869   3.575 -1.6885  0.0017 -1.9758
  592MOL0     H79865   4.561   5.804   3.833  1.7059 -2.8756 -0.8993
  592MOL0     H79866   4.387   5.819   3.857  1.8724 -0.7834  0.0620
  592MOL0     H79867   4.442   5.581   3.804 -3.7835  0.6682  1.1876
  592MOL0     H79868   4.335   5.652   3.694 -0.2739  0.2431  0.1649
  592MOL0     H79869   4.625   5.621   3.630 -1.0936  1.2318  1.2250
  592MOL0     H79870   4.495   5.635   3.502  0.4430  1.5583  0.3187
  592MOL0     H79871   4.302   5.458   3.498  1.8510  4.2797  2.6779
  592MOL0     H79872   4.223   5.204   3.413 -0.1398 -2.2252 -1.7082
  592MOL0     H79873   4.354   5.128   3.342 -1.9825 -0.2713 -0.7158
  592MOL0     H79874   4.402   4.996   3.566 -0.8525 -1.4322  1.9411
  592MOL0     H79875   4.231   4.989   3.483  1.0794  1.2481 -3.2237
  592MOL0     H79876   4.142   5.093   3.661 -1.1843 -2.7285 -2.4192
  592MOL0     H79877   4.293   5.183   3.701  0.1836 -0.3518  0.9575
  592MOL0     H79878   4.267   4.872   3.740 -0.1124 -2.0984  4.8122
  592MOL0     H79879   4.225   4.987   3.863 -0.5960 -0.2284 -0.3071
  592MOL0     H79880   4.614   5.057   3.981  0.2846 -0.2954 -2.8564
  592MOL0     H79881   4.848   4.879   4.137  1.8150  0.3456  2.6502
  592MOL0     H79882   4.773   5.043   4.116 -4.7995  0.0152  0.4342
  592MOL0     H79883   4.742   4.950   4.268 -0.6515  1.6229 -0.4169
  592MOL0     H79884   4.902   4.532   4.402  1.1319  0.7202  1.0880
  592MOL0     H79885   4.918   4.424   4.622 -0.2785  0.0261 -2.1784
  592MOL0     H79886   4.870   4.299   4.842  0.9915  0.2568  0.0526
  592MOL0     H79887   4.943   4.453   4.897 -0.7559  2.0673 -2.5270
  592MOL0     H79888   4.909   4.324   5.099 -1.5260  0.5041  2.1445
  592MOL0     H79889   4.777   4.441   5.088  1.2020 -0.2223 -0.4724
  592MOL0     H79890   4.707   4.227   5.177 -0.6051 -0.8525  0.1284
  592MOL0     H79891   4.801   4.142   5.067 -1.2646 -0.5823  1.5229
  592MOL0     H79892   4.643   4.224   4.872  0.0618  2.2816 -0.1469
  592MOL0     H79893   4.593   4.102   4.998  3.2903 -1.0807 -0.9801
  592MOL0     H79894   4.427   4.250   4.913  4.3220 -1.7068 -2.4602
  592MOL0     H79895   4.512   4.389   4.988 -2.9185  0.7314 -0.1927
  592MOL0     H79896   4.382   4.169   5.134 -0.0509  0.0580 -0.5541
  592MOL0     H79897   4.490   4.278   5.214  0.4973  1.3300  0.4323
  592MOL0     H79898   4.288   4.421   5.041  1.2989 -0.9428 -0.6327
  592MOL0     H79899   4.328   4.458   5.207  2.7697  2.4834 -2.7238
  592MOL0     H79900   4.169   4.216   5.077 -1.1047  1.1756 -1.0065
  592MOL0     H79901   4.100   4.358   5.138  2.7921  2.9550  0.2224
  592MOL0     H79902   4.576   4.636   4.754 -0.5170  1.8694 -1.5420
  592MOL0     H79903   4.546   4.735   4.546  0.7354 -0.2453  0.2660
  592MOL0     H79904   4.450   4.597   4.048 -0.1553 -0.2338  2.7683
  592MOL0     H79905   4.362   4.735   3.863 -1.5599  1.6193 -0.8117
  592MOL0     H79906   4.823   6.233   3.316 -5.3041  2.5518 -1.5508
  592MOL0     H79907   5.007   6.351   3.214 -0.5212  1.1975 -0.3248
  592MOL0     H79908   5.365   6.648   3.397  0.8454 -2.8154  1.2577
  592MOL0     H79909   5.573   6.769   3.357  3.8578  0.3752 -1.8815
  592MOL0     H79910   5.746   6.840   3.317  2.9720  0.7308 -0.0846
  592MOL0     H79911   5.847   6.945   3.206 -2.2450  6.3673 -0.4398
  592MOL0     H79912   5.588   7.040   3.316  0.6856 -0.1560  1.8575
  592MOL0     H79913   5.695   7.120   3.213  0.2512 -2.3696 -2.3767
  592MOL0     H79914   5.766   7.208   3.417  0.9611  0.7189  0.0752
  592MOL0     H79915   5.880   7.079   3.371  0.2048 -3.5012  4.5093
  592MOL0     H79916   5.784   7.077   3.634  2.1650 -0.1758  0.3757
  592MOL0     H79917   5.790   6.922   3.538  0.7956  0.0320  0.9661
  592MOL0     H79918   5.381   6.982   3.595  0.0593 -0.0773 -0.3026
  592MOL0     H79919   5.515   6.748   2.937 -2.6337 -4.0202 -1.2762
  592MOL0     H79920   5.317   6.658   2.968 -0.3625  3.4869 -0.2239
  593MOL0     O79921   0.793   3.274   7.520 -0.5305  0.1445  0.0784
  593MOL0     C79922   0.860   3.308   7.626 -0.6011  0.3552  0.6901
  593MOL0     O79923   0.853   3.426   7.693  0.2182  0.6885  0.4814
  593MOL0     C79924   0.754   3.524   7.684  0.2481  0.2734 -0.0042
  593MOL0     C79925   0.682   3.542   7.567 -0.2424  0.1773 -0.6236
  593MOL0     C79926   0.591   3.654   7.562 -0.4927  0.6409 -1.3219
  593MOL0     C79927   0.562   3.724   7.682  0.8840 -0.9425 -0.2988
  593MOL0     O79928   0.461   3.813   7.690 -0.5991 -0.3901  0.5731
  593MOL0     C79929   0.457   3.908   7.584  0.3901 -1.1569  1.2360
  593MOL0     C79930   0.321   3.890   7.516 -0.9784  0.0755  0.4704
  593MOL0     C79931   0.215   3.945   7.610 -0.0051  0.3783 -0.4084
  593MOL0     C79932   0.077   3.931   7.536  0.3795 -0.0512  0.6248
  593MOL0     C79933  -0.039   3.963   7.635  0.5181  0.2161  1.0962
  593MOL0     C79934  -0.147   4.047   7.566  0.0119  0.9211 -0.9393
  593MOL0     C79935  -0.271   4.072   7.661  0.3248  0.1803 -0.0365
  593MOL0     C79936  -0.407   4.079   7.592 -0.1234  1.3009 -0.1955
  593MOL0     N79937  -0.508   4.156   7.660  0.5517  0.0203 -0.3254
  593MOL0     C79938  -0.495   4.288   7.702  0.4780  0.8921  0.8118
  593MOL0     C79939  -0.617   4.326   7.729  0.1790 -0.5244 -0.1937
  593MOL0     C79940  -0.671   4.461   7.767  0.6815 -0.7593  0.3389
  593MOL0     C79941  -0.741   4.467   7.910  0.3613  0.4957 -0.4136
  593MOL0     C79942  -0.628   4.453   8.024  0.7132  0.6368  0.0518
  593MOL0     C79943  -0.541   4.576   8.036  0.0568 -0.2002  0.0716
  593MOL0     O79944  -0.411   4.550   7.979  0.2113  0.7097  0.5958
  593MOL0     C79945  -0.324   4.652   7.947  0.5006  0.4592  0.3710
  593MOL0     C79946  -0.221   4.613   7.869 -0.6106  0.1976 -0.7335
  593MOL0     C79947  -0.116   4.695   7.831 -0.2810 -1.1273 -0.4051
  593MOL0     C79948  -0.001   4.631   7.756  0.4063 -0.3868 -0.3418
  593MOL0     C79949  -0.134   4.833   7.866  0.1318  0.0029  0.4625
  593MOL0     C79950  -0.039   4.946   7.835  0.7186  0.7015 -0.2646
  593MOL0     O79951  -0.073   5.079   7.856  0.2355  0.8822  0.3213
  593MOL0     C79952   0.011   5.175   7.803 -1.0427  0.3389  0.7757
  593MOL0     C79953   0.074   5.262   7.889  0.9550 -0.0405 -0.3523
  593MOL0     C79954   0.153   5.369   7.832  0.0110 -0.4901  0.8394
  593MOL0     C79955   0.172   5.379   7.693  0.4410  0.9211  0.5611
  593MOL0     O79956   0.254   5.482   7.663 -0.2080 -0.0552 -0.0013
  593MOL0     C79957   0.267   5.515   7.520  0.2674  0.4127 -0.1550
  593MOL0     C79958   0.373   5.619   7.520  0.0127 -0.5027 -0.1242
  593MOL0     C79959   0.437   5.638   7.389  0.3514 -0.0015 -0.2087
  593MOL0     C79960   0.343   5.713   7.289 -0.2139 -0.4164  0.3705
  593MOL0     C79961   0.413   5.747   7.165  0.2618  0.2840  0.6293
  593MOL0     C79962   0.331   5.825   7.064 -0.0003 -0.2915  0.7200
  593MOL0     C79963   0.190   5.774   7.021 -0.4647 -0.4363  0.1290
  593MOL0     C79964   0.197   5.632   6.984  0.8763 -0.1353 -0.1582
  593MOL0    Cl79965   0.046   5.568   6.926 -0.7205 -0.2288  0.1241
  593MOL0     C79966   0.105   5.285   7.611 -0.5550  0.4375 -0.1200
  593MOL0     C79967   0.020   5.193   7.659  0.2877  0.6610  1.3797
  593MOL0     O79968   0.071   4.914   7.783 -0.1304  0.8735 -0.6101
  593MOL0     C79969  -0.240   4.878   7.942  0.6356 -0.0591 -0.7777
  593MOL0     C79970  -0.334   4.781   7.989  0.1333  0.0938  0.1794
  593MOL0     N79971  -0.700   4.223   7.719 -0.0087  0.7417  0.6101
  593MOL0     N79972  -0.638   4.114   7.691 -0.0853  0.1102 -0.7374
  593MOL0     C79973   0.625   3.687   7.797  0.4112  0.0078 -0.1749
  593MOL0     C79974   0.726   3.590   7.795  0.0075  0.1916  0.1173
  593MOL0     C79975   0.966   3.216   7.672  0.4687 -0.5067  0.2297
  593MOL0     C79976   1.018   3.223   7.804  0.1816 -0.0617  0.5541
  593MOL0     C79977   1.120   3.135   7.839 -0.5165  0.4816 -0.3856
  593MOL0     C79978   1.187   3.063   7.743 -0.5993  0.9585  1.0063
  593MOL0     O79979   1.295   2.974   7.768  0.0356  0.0287 -0.1634
  593MOL0     C79980   1.321   2.924   7.903 -0.0878 -0.1357 -0.1975
  593MOL0     C79981   1.424   2.813   7.894 -0.1902  1.5275 -0.1158
  593MOL0     C79982   1.561   2.847   7.837 -0.1209 -0.0229  0.1397
  593MOL0     C79983   1.654   2.876   7.956 -0.6330  0.9525 -0.3305
  593MOL0     C79984   1.755   2.974   7.935 -0.4796 -0.6125  0.3556
  593MOL0     C79985   1.833   3.051   7.894 -0.1376  1.7956 -0.2918
  593MOL0     C79986   1.133   3.051   7.614 -0.1112  0.3414 -0.2457
  593MOL0     C79987   1.020   3.126   7.579  0.1886  0.0421 -0.2823
  593MOL0     H79988   0.700   3.482   7.479 -1.0382 -0.2167 -0.5230
  593MOL0     H79989   0.540   3.687   7.472  0.8981  0.4648 -2.2094
  593MOL0     H79990   0.467   4.013   7.615 -2.0406 -0.2958 -0.5301
  593MOL0     H79991   0.533   3.899   7.506 -1.0496 -0.6232 -0.2860
  593MOL0     H79992   0.322   3.957   7.429 -0.3558  1.8276  1.7597
  593MOL0     H79993   0.306   3.782   7.506 -1.6605  0.2109 -0.0082
  593MOL0     H79994   0.222   3.892   7.706 -1.1020 -0.8236 -0.9563
  593MOL0     H79995   0.231   4.051   7.632 -1.3885  0.4019  0.6487
  593MOL0     H79996   0.071   3.997   7.449 -3.3063  0.1070  0.8462
  593MOL0     H79997   0.060   3.831   7.494  0.9899  0.5569 -1.1669
  593MOL0     H79998  -0.091   3.874   7.671 -0.1109  1.1150  2.4539
  593MOL0     H79999  -0.017   4.029   7.719  0.6957  3.6831 -1.4467
  593MOL0     H80000  -0.100   4.143   7.546  1.2909  1.2817  3.0368
  593MOL0     H80001  -0.185   4.012   7.469 -1.7343 -0.1307  0.0610
  593MOL0     H80002  -0.280   3.998   7.742 -3.5085  2.8216  2.3265
  593MOL0     H80003  -0.248   4.172   7.699  0.5414  0.0655  0.1339
  593MOL0     H80004  -0.439   3.974   7.594  0.5567  1.0856 -0.3598
  593MOL0     H80005  -0.396   4.094   7.484  1.3993 -1.9498 -0.6259
  593MOL0     H80006  -0.396   4.332   7.697  0.3508  1.1152  0.2030
  593MOL0     H80007  -0.595   4.539   7.752 -1.2446  0.9992 -0.9623
  593MOL0     H80008  -0.753   4.479   7.697  1.5128  2.4820  0.0463
  593MOL0     H80009  -0.809   4.382   7.921  1.6562 -0.4371  0.8487
  593MOL0     H80010  -0.792   4.563   7.927  1.5610  1.0938 -0.0752
  593MOL0     H80011  -0.572   4.360   8.011 -0.7219  0.1310 -3.4065
  593MOL0     H80012  -0.693   4.450   8.112 -0.6752 -0.7688 -0.9568
  593MOL0     H80013  -0.534   4.611   8.140  1.9965 -1.2814  0.3646
  593MOL0     H80014  -0.589   4.658   7.982 -0.9202  0.1094  1.3582
  593MOL0     H80015  -0.229   4.512   7.828  0.7815 -2.5547  4.7337
  593MOL0     H80016  -0.001   4.646   7.648 -0.6011 -4.3920 -1.0798
  593MOL0     H80017   0.090   4.667   7.805  0.4964  1.5891 -1.8393
  593MOL0     H80018  -0.013   4.523   7.771 -3.8901  0.1986  1.7703
  593MOL0     H80019   0.053   5.228   7.989  1.0222 -1.1506 -0.7030
  593MOL0     H80020   0.183   5.452   7.896  2.8933  0.5576 -1.6255
  593MOL0     H80021   0.281   5.431   7.451  2.3622  0.4337  0.1987
  593MOL0     H80022   0.175   5.555   7.476  0.1247  0.3626  0.0970
  593MOL0     H80023   0.313   5.708   7.543 -1.0841 -1.3112  0.2610
  593MOL0     H80024   0.449   5.594   7.594  0.9605  3.8031  0.6280
  593MOL0     H80025   0.466   5.543   7.343  0.7317  0.1546 -0.3036
  593MOL0     H80026   0.530   5.695   7.401  1.0329 -1.3816  1.6066
  593MOL0     H80027   0.259   5.645   7.272 -3.0174  2.9830 -0.3200
  593MOL0     H80028   0.313   5.806   7.338 -1.9261  0.3697 -2.0079
  593MOL0     H80029   0.436   5.652   7.117 -0.6222  0.0016  0.7383
  593MOL0     H80030   0.505   5.801   7.189 -0.9310  1.4360  3.0179
  593MOL0     H80031   0.311   5.925   7.102 -2.7721 -1.1678  1.8632
  593MOL0     H80032   0.397   5.828   6.976  0.3094  2.9982  0.9621
  593MOL0     H80033   0.157   5.835   6.937  3.4615  0.3388 -1.0636
  593MOL0     H80034   0.114   5.796   7.097 -0.8213 -2.0095  0.2549
  593MOL0     H80035   0.224   5.568   7.069 -2.3681 -3.2973 -1.2431
  593MOL0     H80036   0.268   5.613   6.902  0.8548 -2.3914  0.2679
  593MOL0     H80037   0.119   5.283   7.503  0.0976 -1.2064 -0.0436
  593MOL0     H80038  -0.025   5.131   7.582  0.3809  3.5995 -1.2554
  593MOL0     H80039  -0.245   4.978   7.984  0.0021 -1.0135  1.5907
  593MOL0     H80040  -0.409   4.808   8.063 -0.9297 -2.2060  0.0287
  593MOL0     H80041   0.623   3.739   7.892  2.8981 -1.8119  0.9744
  593MOL0     H80042   0.774   3.559   7.887  1.1276 -0.6116 -0.7092
  593MOL0     H80043   0.964   3.284   7.875 -0.9498  1.4391 -1.5024
  593MOL0     H80044   1.154   3.125   7.941  1.7132  1.7071 -0.9530
  593MOL0     H80045   1.367   3.009   7.954 -0.9540  1.4914 -1.9791
  593MOL0     H80046   1.238   2.882   7.960  0.5263 -1.9364 -0.5609
  593MOL0     H80047   1.382   2.729   7.838  1.4461 -2.4419  4.0380
  593MOL0     H80048   1.431   2.775   7.996  1.1043 -0.2700 -0.8232
  593MOL0     H80049   1.549   2.937   7.776 -1.6280  0.1237  0.6048
  593MOL0     H80050   1.599   2.766   7.774  0.9000  0.6071 -0.0763
  593MOL0     H80051   1.700   2.789   8.004 -0.6033 -0.7147 -3.1376
  593MOL0     H80052   1.583   2.922   8.025 -1.6532 -1.2864  0.2087
  593MOL0     H80053   1.898   3.126   7.854  1.7799  1.0994  1.3411
  593MOL0     H80054   1.178   2.980   7.546 -0.3248 -0.4335  0.3953
  593MOL0     H80055   0.990   3.137   7.475  0.3794  1.4620 -0.2185
  594MOL0     O80056  10.574   4.548  10.738 -0.4634  0.1722  0.2594
  594MOL0     C80057  10.694   4.557  10.731  0.4785 -0.4767 -0.7280
  594MOL0     O80058  10.771   4.569  10.624  1.1323 -0.6183  0.3027
  594MOL0     C80059  10.707   4.585  10.507 -0.2170  0.2865  0.7226
  594MOL0     C80060  10.624   4.702  10.493  1.5543 -0.0937  0.7116
  594MOL0     C80061  10.575   4.710  10.368 -0.3133  0.3660  0.2930
  594MOL0     C80062  10.599   4.623  10.260 -0.3985 -0.8628  0.3158
  594MOL0     O80063  10.550   4.675  10.145 -0.3609  0.5987  0.2632
  594MOL0     C80064  10.505   4.568  10.050  0.3458  0.6200 -0.9033
  594MOL0     C80065  10.466   4.653   9.932 -0.8135  0.3742  0.0277
  594MOL0     C80066  10.361   4.598   9.830  0.6002 -0.5113 -0.7657
  594MOL0     C80067  10.425   4.531   9.704 -0.0754 -0.4827  0.6834
  594MOL0     C80068  10.482   4.389   9.733  0.1510 -0.4147 -0.0404
  594MOL0     C80069  10.372   4.296   9.788 -0.2614  0.1100 -0.1841
  594MOL0     C80070  10.445   4.156   9.813 -0.1739  0.4846 -0.5030
  594MOL0     C80071  10.347   4.073   9.889  0.3343  0.3263 -1.0426
  594MOL0     N80072  10.307   4.122  10.021 -0.1216 -1.2162  0.3729
  594MOL0     C80073  10.386   4.187  10.108 -0.2893  0.2228 -0.1868
  594MOL0     C80074  10.307   4.248  10.201 -0.1586  0.6985  1.2446
  594MOL0     C80075  10.343   4.330  10.314  0.4616 -0.5041  0.1309
  594MOL0     C80076  10.235   4.434  10.350  0.8377 -0.4178  0.5288
  594MOL0     C80077  10.289   4.525  10.457 -0.4652  0.9390 -0.8752
  594MOL0     C80078  10.310   4.460  10.601  0.0316 -0.1692  1.2040
  594MOL0     O80079  10.204   4.368  10.626  0.0078 -0.0136 -0.0555
  594MOL0     C80080  10.196   4.330  10.759 -0.3546 -0.3497 -0.6453
  594MOL0     C80081  10.263   4.383  10.880 -0.0083  0.1558 -0.0223
  594MOL0     C80082  10.235   4.337  11.016  0.1689  0.3376  1.0011
  594MOL0     C80083  10.285   4.429  11.120  0.0483  0.1903  0.2635
  594MOL0     C80084  10.160   4.214  11.018  0.0290  0.1195 -0.6072
  594MOL0     C80085  10.140   4.128  11.142  0.1731  0.2849 -0.7503
  594MOL0     O80086  10.059   4.010  11.122  0.1181 -0.2102 -0.8530
  594MOL0     C80087  10.035   3.915  11.224 -0.2742  0.2014 -0.7507
  594MOL0     C80088   9.947   3.943  11.327  0.1210 -0.6296 -0.4548
  594MOL0     C80089   9.924   3.854  11.436  1.0945  0.3305 -0.8164
  594MOL0     C80090   9.990   3.734  11.436  0.0238  0.0758  0.0590
  594MOL0     O80091   9.977   3.665  11.555  1.4323  0.3832  0.2462
  594MOL0     C80092   9.964   3.525  11.558 -0.3460 -0.8210 -0.4709
  594MOL0     C80093   9.852   3.458  11.467  0.0515 -0.8308 -0.1990
  594MOL0     C80094   9.710   3.513  11.488 -0.7071 -0.0548  0.6806
  594MOL0     C80095   9.613   3.467  11.368 -0.5905 -0.3701 -0.4377
  594MOL0     C80096   9.466   3.503  11.395  0.3414 -0.1964 -0.0004
  594MOL0     C80097   9.404   3.639  11.372  0.6166  1.2524  0.0913
  594MOL0     C80098   9.423   3.702  11.235  0.2866  1.0940  0.9504
  594MOL0     C80099   9.379   3.621  11.115 -0.5717  0.3190  0.7351
  594MOL0    Cl80100   9.236   3.700  11.041 -0.2101  0.0759 -0.7422
  594MOL0     C80101  10.075   3.699  11.330  0.4451  1.4673 -0.7587
  594MOL0     C80102  10.086   3.784  11.217  0.3945  0.2500  0.2549
  594MOL0     O80103  10.171   4.167  11.255 -0.3006 -1.2571 -0.4403
  594MOL0     C80104  10.104   4.160  10.903 -0.1495  0.7451 -0.5848
  594MOL0     C80105  10.112   4.224  10.780 -1.0925 -0.1382 -0.1978
  594MOL0     N80106  10.180   4.237  10.158 -1.0088 -0.0653  0.4164
  594MOL0     N80107  10.183   4.147  10.065  0.4699 -0.3151  0.0842
  594MOL0     C80108  10.686   4.519  10.272  0.6335 -0.3285 -0.1078
  594MOL0     C80109  10.740   4.498  10.402 -0.0710 -0.0283  0.5295
  594MOL0     C80110  10.770   4.532  10.853 -0.6286 -0.6027  0.1969
  594MOL0     C80111  10.711   4.568  10.973 -0.0359 -0.4534  0.4134
  594MOL0     C80112  10.777   4.541  11.098 -0.7558  0.4425  0.0613
  594MOL0     C80113  10.899   4.477  11.100  0.3933  0.3531  1.4195
  594MOL0     O80114  10.976   4.432  11.207  0.1339 -0.6994  0.3581
  594MOL0     C80115  10.945   4.487  11.345 -0.2715  0.0686  0.8493
  594MOL0     C80116  11.016   4.376  11.433  0.1994 -0.2261 -0.1928
  594MOL0     C80117  11.010   4.401  11.582  0.2053  0.3697 -1.0703
  594MOL0     C80118  11.092   4.292  11.660 -0.3283 -1.0745 -0.1962
  594MOL0     C80119  11.046   4.157  11.622  0.2183 -0.1662  0.9364
  594MOL0     C80120  11.018   4.045  11.581  0.1589 -0.2730 -0.3217
  594MOL0     C80121  10.956   4.448  10.967 -0.2628  0.4175 -0.7826
  594MOL0     C80122  10.897   4.472  10.851 -0.6308 -1.3426 -0.2786
  594MOL0     H80123  10.598   4.783  10.560 -2.2535  2.6288 -3.4951
  594MOL0     H80124  10.521   4.799  10.338 -1.3556  0.1071  1.3304
  594MOL0     H80125  10.580   4.493  10.024  1.1056  1.3548 -0.8881
  594MOL0     H80126  10.425   4.511  10.099  1.6896 -1.3994 -0.9578
  594MOL0     H80127  10.431   4.752   9.963  3.4905  1.4411  2.2643
  594MOL0     H80128  10.559   4.674   9.879 -0.8538  0.2085 -0.1094
  594MOL0     H80129  10.290   4.538   9.888 -1.1953  1.2259 -1.0362
  594MOL0     H80130  10.314   4.689   9.792  0.1433 -1.4657 -2.5736
  594MOL0     H80131  10.344   4.538   9.630  1.4829 -1.6032 -1.2148
  594MOL0     H80132  10.508   4.589   9.663  1.4772 -1.7929  1.8622
  594MOL0     H80133  10.517   4.344   9.639 -1.0452 -0.5160 -0.4474
  594MOL0     H80134  10.569   4.415   9.794 -0.8397  0.9410  0.8447
  594MOL0     H80135  10.339   4.323   9.888 -4.3194  0.0946 -1.3513
  594MOL0     H80136  10.286   4.288   9.720  0.9718 -1.8654 -1.6276
  594MOL0     H80137  10.481   4.110   9.720  0.5370 -1.0851  0.5114
  594MOL0     H80138  10.533   4.169   9.875  0.8108 -0.1491 -1.7105
  594MOL0     H80139  10.397   3.978   9.909  2.4713  1.2132 -1.8464
  594MOL0     H80140  10.260   4.045   9.829  2.1250 -2.7923 -2.4459
  594MOL0     H80141  10.495   4.187  10.100 -0.1327  3.0410  0.6033
  594MOL0     H80142  10.366   4.262  10.397  0.1774  0.8704  1.3759
  594MOL0     H80143  10.433   4.388  10.293  1.3453 -1.1155  2.0331
  594MOL0     H80144  10.146   4.381  10.387  0.2222  1.8317  2.5627
  594MOL0     H80145  10.212   4.489  10.258 -2.3594 -0.9097  0.9260
  594MOL0     H80146  10.210   4.598  10.479 -0.1022  0.4955  2.5610
  594MOL0     H80147  10.378   4.584  10.434 -0.1219  1.2372  1.0131
  594MOL0     H80148  10.313   4.545  10.670  1.9061  1.3827 -0.6615
  594MOL0     H80149  10.410   4.416  10.606  0.4087  0.2463 -1.2781
  594MOL0     H80150  10.324   4.471  10.865  0.3506 -0.0502  0.2095
  594MOL0     H80151  10.348   4.374  11.190 -1.1918 -1.6665  0.0215
  594MOL0     H80152  10.348   4.504  11.071 -0.2315 -1.0865 -2.2577
  594MOL0     H80153  10.203   4.478  11.174  0.8503  2.0967 -0.1777
  594MOL0     H80154   9.912   4.046  11.333  0.1385 -0.7160  2.1794
  594MOL0     H80155   9.856   3.894  11.510  0.8366 -1.2433 -0.1559
  594MOL0     H80156  10.058   3.483  11.522 -1.3204 -3.5017 -0.1245
  594MOL0     H80157   9.951   3.485  11.659 -3.6682 -0.0126 -0.4624
  594MOL0     H80158   9.883   3.455  11.362 -0.8700 -1.8707 -0.4531
  594MOL0     H80159   9.844   3.352  11.492 -1.9565 -0.7280 -0.2277
  594MOL0     H80160   9.713   3.622  11.490  0.2175 -0.0655  3.4384
  594MOL0     H80161   9.676   3.471  11.583 -1.0684  0.3285  0.7254
  594MOL0     H80162   9.649   3.505  11.272  0.3049  2.3915  0.8948
  594MOL0     H80163   9.610   3.357  11.369  1.3135 -0.5693  3.8580
  594MOL0     H80164   9.455   3.476  11.501 -1.0959 -0.9410 -0.3130
  594MOL0     H80165   9.405   3.429  11.342 -2.9744 -0.7196  3.9915
  594MOL0     H80166   9.295   3.633  11.367  0.5569  0.5158  1.7664
  594MOL0     H80167   9.425   3.713  11.450 -0.5612  1.4981  0.1883
  594MOL0     H80168   9.525   3.734  11.213 -0.3539  3.8070  1.5985
  594MOL0     H80169   9.362   3.792  11.235  0.6706  1.3555  0.9576
  594MOL0     H80170   9.344   3.520  11.140 -0.5314  0.1508  0.1230
  594MOL0     H80171   9.448   3.601  11.033 -1.4304 -0.6735  0.2337
  594MOL0     H80172  10.117   3.599  11.335 -0.3591  1.1673  0.1539
  594MOL0     H80173  10.153   3.754  11.137 -0.3291 -1.6342  0.2931
  594MOL0     H80174  10.040   4.072  10.896 -0.7329  0.9998  1.1736
  594MOL0     H80175  10.063   4.179  10.695  0.2595 -3.2205  0.5105
  594MOL0     H80176  10.709   4.461  10.184  0.9417  1.1253 -1.0143
  594MOL0     H80177  10.799   4.407  10.408 -1.5348 -1.0006  0.8454
  594MOL0     H80178  10.607   4.594  10.989 -0.4771 -0.2912 -2.3152
  594MOL0     H80179  10.718   4.539  11.189 -3.6241 -0.4860 -1.6886
  594MOL0     H80180  10.977   4.589  11.367 -1.0569  1.0745 -2.1535
  594MOL0     H80181  10.837   4.479  11.357 -0.3155  1.9747  2.1082
  594MOL0     H80182  11.118   4.360  11.398  0.2801  0.3113 -0.2160
  594MOL0     H80183  10.972   4.279  11.409 -0.2803 -0.3718  1.1874
  594MOL0     H80184  10.909   4.403  11.624  1.3737  0.1693  2.0036
  594MOL0     H80185  11.051   4.499  11.608 -1.6182  1.3935 -1.8613
  594MOL0     H80186  11.072   4.303  11.767  1.2392  1.1508 -0.0540
  594MOL0     H80187  11.193   4.303  11.619  0.4670  0.2306  1.9807
  594MOL0     H80188  10.991   3.946  11.551 -1.5687  0.3790 -1.0223
  594MOL0     H80189  11.052   4.398  10.960  1.4288  3.3543 -0.5253
  594MOL0     H80190  10.962   4.445  10.768  1.3308  2.2416 -0.1116
  595MOL0     O80191   1.804   8.718   5.219  0.6530 -0.5250  0.0446
  595MOL0     C80192   1.881   8.628   5.201 -1.1325 -0.3631 -0.3678
  595MOL0     O80193   1.935   8.585   5.081  0.5219  0.4489  0.7132
  595MOL0     C80194   1.923   8.664   4.961 -0.0129  0.1087 -0.4089
  595MOL0     C80195   1.909   8.797   4.957 -0.6984  0.0454 -0.6266
  595MOL0     C80196   1.904   8.870   4.838  0.0515  0.1800 -0.6891
  595MOL0     C80197   1.912   8.797   4.720  0.2727  0.6375  0.4469
  595MOL0     O80198   1.889   8.846   4.596  0.4579 -0.3483  0.0062
  595MOL0     C80199   1.782   8.952   4.567 -0.2838 -1.0053  0.2554
  595MOL0     C80200   1.696   8.923   4.447  0.5385 -0.1864 -0.3540
  595MOL0     C80201   1.573   9.032   4.424 -0.7566 -0.4339 -0.3952
  595MOL0     C80202   1.468   8.987   4.329  0.1699 -0.0936 -0.4467
  595MOL0     C80203   1.374   9.102   4.297 -0.2184 -0.6582  0.9299
  595MOL0     C80204   1.425   9.247   4.281  0.0752  0.0252  0.5988
  595MOL0     C80205   1.330   9.342   4.214 -0.0711 -0.1793 -0.3122
  595MOL0     C80206   1.192   9.354   4.291 -0.4904  1.3496  0.1288
  595MOL0     N80207   1.096   9.461   4.246 -0.0980  0.0283  0.4147
  595MOL0     C80208   1.101   9.581   4.308  0.0499  0.2417  0.0612
  595MOL0     C80209   1.030   9.672   4.235 -0.1013  0.5079 -0.4861
  595MOL0     C80210   1.009   9.816   4.262  1.0267 -0.2002  0.0537
  595MOL0     C80211   0.870   9.848   4.328 -0.6106  0.5660 -0.0305
  595MOL0     C80212   0.749   9.833   4.233 -0.2661 -0.4531  0.5939
  595MOL0     C80213   0.758   9.908   4.090 -0.1119 -0.1195  0.1075
  595MOL0     O80214   0.628   9.908   4.038 -0.5663 -0.6911  0.2560
  595MOL0     C80215   0.582   9.812   3.960  0.3767  0.0366  0.2338
  595MOL0     C80216   0.654   9.698   3.917  0.2188 -0.0711 -0.0482
  595MOL0     C80217   0.591   9.592   3.860 -0.7042 -0.1207  0.1934
  595MOL0     C80218   0.658   9.460   3.850 -0.4180 -0.3297  0.5251
  595MOL0     C80219   0.455   9.604   3.813 -0.5063  0.2143  0.6083
  595MOL0     C80220   0.373   9.502   3.731  0.1013 -0.8641 -0.2311
  595MOL0     O80221   0.251   9.540   3.674 -0.0333  1.0297  0.0097
  595MOL0     C80222   0.200   9.445   3.591  0.7416  0.2116 -0.3309
  595MOL0     C80223   0.253   9.434   3.456  0.3886 -0.5036 -0.1426
  595MOL0     C80224   0.222   9.328   3.372 -0.0362 -0.4120  0.3095
  595MOL0     C80225   0.125   9.238   3.407  0.0452 -1.3490  0.1451
  595MOL0     O80226   0.069   9.143   3.328 -0.9651 -0.5099  0.0510
  595MOL0     C80227   0.157   9.091   3.221 -0.3452  0.5189  0.2187
  595MOL0     C80228   0.088   8.970   3.153  0.0569  0.3389  0.5528
  595MOL0     C80229   0.169   8.937   3.030  0.8452  0.5644  0.1088
  595MOL0     C80230   0.130   8.795   2.986  0.8315  0.7352 -0.3136
  595MOL0     C80231   0.181   8.674   3.079  0.9488 -0.2708 -0.2445
  595MOL0     C80232   0.245   8.555   2.999  0.3798 -0.1985 -0.1548
  595MOL0     C80233   0.155   8.496   2.880  0.2696  0.0320 -1.0053
  595MOL0     C80234   0.234   8.383   2.804  0.9947 -0.6709 -0.4435
  595MOL0    Cl80235   0.332   8.458   2.677 -0.1473 -0.4360  0.0909
  595MOL0     C80236   0.062   9.256   3.526  0.3205  0.3257 -0.7083
  595MOL0     C80237   0.102   9.346   3.619 -0.1924 -0.0172 -1.1104
  595MOL0     O80238   0.419   9.387   3.733 -1.0793 -0.0934  0.1610
  595MOL0     C80239   0.390   9.719   3.853 -0.1112 -0.0016 -0.2244
  595MOL0     C80240   0.453   9.821   3.923 -0.4133  0.2350  0.2039
  595MOL0     N80241   0.988   9.609   4.122  0.9045  0.4066 -0.4089
  595MOL0     N80242   1.022   9.483   4.133  0.0816  0.4349  0.8210
  595MOL0     C80243   1.929   8.660   4.721 -0.8832 -0.7020 -0.1369
  595MOL0     C80244   1.933   8.593   4.846 -0.4554  0.6623  0.7089
  595MOL0     C80245   1.950   8.577   5.319 -0.8568  0.1193  0.0068
  595MOL0     C80246   1.947   8.651   5.444  0.2858  0.6246  0.2012
  595MOL0     C80247   2.012   8.604   5.557 -0.1821  0.4614 -0.3490
  595MOL0     C80248   2.087   8.484   5.549  0.8401  0.7633  0.2291
  595MOL0     O80249   2.126   8.444   5.678  0.4826  0.6425 -0.5992
  595MOL0     C80250   2.174   8.308   5.692 -0.0258 -0.4333 -0.4516
  595MOL0     C80251   2.229   8.300   5.835  0.0917  0.0231 -0.5884
  595MOL0     C80252   2.360   8.220   5.834  0.2418 -1.6660  0.6282
  595MOL0     C80253   2.415   8.204   5.978  0.0755  0.0669 -0.4862
  595MOL0     C80254   2.558   8.219   5.988 -0.8019  0.9836 -0.2117
  595MOL0     C80255   2.683   8.226   5.987  0.4775  0.0214  0.2513
  595MOL0     C80256   2.099   8.409   5.425  0.1322  0.3134  0.1220
  595MOL0     C80257   2.021   8.456   5.316  0.4787  0.1728  0.3202
  595MOL0     H80258   1.893   8.854   5.048 -0.7636  0.5693 -0.9612
  595MOL0     H80259   1.890   8.978   4.841  2.6189  0.5882  2.4102
  595MOL0     H80260   1.728   8.975   4.658  0.1504  0.9694  0.0639
  595MOL0     H80261   1.834   9.045   4.544 -1.2275 -0.5717 -0.1750
  595MOL0     H80262   1.765   8.918   4.363  0.6475 -2.2246 -0.2024
  595MOL0     H80263   1.642   8.831   4.474  2.1656 -0.2203  3.4973
  595MOL0     H80264   1.535   9.052   4.525 -0.6385  3.2754 -0.9241
  595MOL0     H80265   1.614   9.128   4.390  0.9184 -0.8584  0.3160
  595MOL0     H80266   1.493   8.925   4.243 -4.1250 -1.4183 -0.9491
  595MOL0     H80267   1.403   8.918   4.384  0.5325 -0.3779 -0.3709
  595MOL0     H80268   1.329   9.078   4.200  1.6075  0.6291 -0.2993
  595MOL0     H80269   1.295   9.093   4.372 -1.8385  0.5456 -0.5262
  595MOL0     H80270   1.464   9.299   4.369  1.5650  1.7654 -0.9875
  595MOL0     H80271   1.516   9.242   4.221 -0.9772 -0.4999 -1.0270
  595MOL0     H80272   1.377   9.441   4.214 -2.6371  1.1398  1.2769
  595MOL0     H80273   1.296   9.311   4.115 -0.3252 -1.4771  0.1674
  595MOL0     H80274   1.214   9.372   4.397  1.1374  1.9488 -0.2851
  595MOL0     H80275   1.139   9.259   4.288  2.3270 -0.7036  4.6119
  595MOL0     H80276   1.156   9.618   4.394  4.1310 -1.3410 -1.6276
  595MOL0     H80277   1.094   9.852   4.320  2.1329 -0.8333 -1.1328
  595MOL0     H80278   1.018   9.865   4.164 -0.0021  1.2643  0.6495
  595MOL0     H80279   0.881   9.951   4.362 -0.4907 -0.6511  4.0730
  595MOL0     H80280   0.856   9.791   4.420  2.4346 -2.7625 -1.3947
  595MOL0     H80281   0.665   9.887   4.278 -1.1024  2.1834 -3.6005
  595MOL0     H80282   0.713   9.732   4.211 -0.3107  0.3124 -3.8349
  595MOL0     H80283   0.827   9.873   4.013 -3.0155 -0.4357 -2.5631
  595MOL0     H80284   0.798  10.005   4.123 -0.7934 -0.1521  1.0800
  595MOL0     H80285   0.757   9.694   3.951  0.5509  0.1180 -1.0010
  595MOL0     H80286   0.764   9.451   3.874 -0.4014 -0.2487  0.4825
  595MOL0     H80287   0.607   9.387   3.914 -0.0501  1.4056  2.9847
  595MOL0     H80288   0.653   9.410   3.754  0.2315 -2.9655  1.7767
  595MOL0     H80289   0.315   9.519   3.428 -1.3096  1.4435  1.6219
  595MOL0     H80290   0.260   9.325   3.270 -1.2082  1.2128 -0.2179
  595MOL0     H80291   0.184   9.173   3.154  0.5431 -0.5857 -0.8038
  595MOL0     H80292   0.250   9.054   3.265 -1.1309 -0.5203  1.0626
  595MOL0     H80293   0.092   8.890   3.227  2.1923  0.2175  0.3462
  595MOL0     H80294  -0.016   9.003   3.136 -0.2743  0.2330  2.2026
  595MOL0     H80295   0.273   8.933   3.061  0.4249 -4.9407  1.9069
  595MOL0     H80296   0.148   9.019   2.960 -2.5755  0.6669  1.0578
  595MOL0     H80297   0.021   8.800   2.995  0.9097  5.2523  0.3820
  595MOL0     H80298   0.168   8.774   2.886  1.5093 -0.1171  0.1152
  595MOL0     H80299   0.100   8.634   3.142 -0.8644 -1.1499 -2.9596
  595MOL0     H80300   0.258   8.712   3.147  1.8576 -0.9547 -0.8684
  595MOL0     H80301   0.338   8.593   2.957  1.9643 -3.4988  0.0457
  595MOL0     H80302   0.269   8.472   3.067  2.5395 -0.2042 -0.8653
  595MOL0     H80303   0.125   8.575   2.811  0.2903 -1.8699 -3.2752
  595MOL0     H80304   0.060   8.459   2.919 -1.0797  2.5872 -1.6610
  595MOL0     H80305   0.170   8.322   2.739  0.2177  2.3715 -2.7881
  595MOL0     H80306   0.274   8.323   2.887 -2.4246  1.2986  2.9513
  595MOL0     H80307  -0.018   9.188   3.554 -0.3401  2.3227  2.8529
  595MOL0     H80308   0.058   9.334   3.717  1.3809 -3.6492 -0.7078
  595MOL0     H80309   0.285   9.733   3.829 -0.6286 -2.2082  0.5113
  595MOL0     H80310   0.395   9.909   3.952  0.4491 -0.2487  3.8560
  595MOL0     H80311   1.931   8.604   4.628 -2.2936 -1.7492  0.4493
  595MOL0     H80312   1.936   8.485   4.838 -3.4560  0.6486 -2.9878
  595MOL0     H80313   1.877   8.732   5.466 -0.7142 -0.7596  2.5088
  595MOL0     H80314   1.997   8.638   5.659  1.2932 -2.9939  1.1924
  595MOL0     H80315   2.096   8.232   5.680 -0.7655 -0.1299  1.8916
  595MOL0     H80316   2.247   8.288   5.614  1.2183 -0.7762  0.7653
  595MOL0     H80317   2.145   8.264   5.896 -0.6893  0.2890 -1.4715
  595MOL0     H80318   2.245   8.399   5.878 -1.4246  0.0318  0.0321
  595MOL0     H80319   2.425   8.283   5.772 -2.6579 -0.1410 -1.0975
  595MOL0     H80320   2.347   8.121   5.789 -1.6473 -0.9982 -0.4109
  595MOL0     H80321   2.403   8.106   6.025  1.7530  0.1609  0.2256
  595MOL0     H80322   2.381   8.285   6.042  3.7993  0.8104  0.8232
  595MOL0     H80323   2.790   8.231   5.979  0.6123  0.6761  1.9834
  595MOL0     H80324   2.158   8.318   5.430 -3.6131 -2.2844  3.4050
  595MOL0     H80325   2.029   8.409   5.218 -1.4597  1.7085 -0.6690
  596MOL0     O80326   5.970   1.200   1.629  0.6298  0.6627 -0.0231
  596MOL0     C80327   5.970   1.243   1.746  0.9451  0.6070  0.4206
  596MOL0     O80328   6.022   1.356   1.801 -0.5493 -0.6634  0.2625
  596MOL0     C80329   6.049   1.472   1.725  0.0649 -0.2036  1.0102
  596MOL0     C80330   6.025   1.599   1.776  0.5902  0.2658 -0.8008
  596MOL0     C80331   6.038   1.714   1.696  0.2495 -0.1543 -0.0620
  596MOL0     C80332   6.071   1.698   1.563  0.0858 -0.2531  0.2843
  596MOL0     O80333   6.092   1.818   1.499  0.5538  0.0613 -0.0916
  596MOL0     C80334   6.042   1.819   1.361  0.1070  0.4056 -0.6616
  596MOL0     C80335   5.963   1.947   1.347  0.1784 -1.0380 -0.3724
  596MOL0     C80336   6.067   2.051   1.304  0.5263  0.5006  0.7858
  596MOL0     C80337   6.105   2.043   1.159  0.0715 -0.7503  0.1041
  596MOL0     C80338   6.168   2.177   1.108 -0.2177 -0.0573 -0.6905
  596MOL0     C80339   6.318   2.195   1.135 -1.1894  0.6068  0.7126
  596MOL0     C80340   6.383   2.320   1.048 -0.8281  0.4788  0.2221
  596MOL0     C80341   6.532   2.324   1.063 -1.1545 -0.4536  0.2534
  596MOL0     N80342   6.590   2.315   1.195  0.2411  0.1512  0.3548
  596MOL0     C80343   6.649   2.209   1.257  0.0193 -0.5522  0.0776
  596MOL0     C80344   6.697   2.264   1.369 -0.2169 -0.0519 -0.9120
  596MOL0     C80345   6.784   2.208   1.488  0.3696  0.2268 -0.4981
  596MOL0     C80346   6.675   2.153   1.589 -0.1278 -0.0317  0.4484
  596MOL0     C80347   6.740   2.064   1.702  0.6279  0.1142  0.6041
  596MOL0     C80348   6.850   1.958   1.663  0.1136 -0.9110  0.1690
  596MOL0     O80349   6.777   1.884   1.557 -0.7677 -0.3323  0.2280
  596MOL0     C80350   6.798   1.757   1.563  0.1775 -0.1892 -0.2503
  596MOL0     C80351   6.686   1.678   1.539 -0.5454  0.9714 -0.4016
  596MOL0     C80352   6.697   1.539   1.530  0.2574 -0.4806  0.4494
  596MOL0     C80353   6.569   1.466   1.518 -0.2455 -1.1695  0.3631
  596MOL0     C80354   6.822   1.478   1.544  0.1256  0.1233  0.1580
  596MOL0     C80355   6.837   1.334   1.557 -0.7952  0.4994 -0.3506
  596MOL0     O80356   6.762   1.254   1.645  0.4716  0.1767 -0.7773
  596MOL0     C80357   6.757   1.119   1.622  0.4895  0.3518  0.2900
  596MOL0     C80358   6.871   1.034   1.625 -0.0596  0.5482  0.4317
  596MOL0     C80359   6.863   0.898   1.605  0.3691 -1.3466 -1.2894
  596MOL0     C80360   6.743   0.838   1.585 -0.1311 -0.0524  0.1631
  596MOL0     O80361   6.742   0.699   1.559  0.1967 -1.0637 -0.1845
  596MOL0     C80362   6.631   0.650   1.483 -0.5615  0.2052 -0.1928
  596MOL0     C80363   6.636   0.701   1.335 -0.4590 -0.1089  0.4538
  596MOL0     C80364   6.537   0.620   1.251  0.5369  0.6422  0.4905
  596MOL0     C80365   6.539   0.664   1.101 -0.3839 -0.1447 -0.6408
  596MOL0     C80366   6.403   0.631   1.050 -0.9567 -0.4705  0.7236
  596MOL0     C80367   6.388   0.643   0.903  0.2785  0.9697  0.4433
  596MOL0     C80368   6.375   0.788   0.862 -0.0902 -0.3485  0.6539
  596MOL0     C80369   6.419   0.803   0.714 -0.5667  0.3175 -0.5337
  596MOL0    Cl80370   6.302   0.706   0.618 -0.0426  0.3428 -0.3721
  596MOL0     C80371   6.632   0.921   1.567 -0.4308  0.6838 -0.2582
  596MOL0     C80372   6.638   1.061   1.585  0.6130 -1.1388 -0.1632
  596MOL0     O80373   6.934   1.290   1.487 -0.3822 -0.6628  0.6400
  596MOL0     C80374   6.934   1.554   1.574 -0.0875  0.1701  0.4296
  596MOL0     C80375   6.921   1.690   1.575 -0.4159 -0.8345  0.6283
  596MOL0     N80376   6.669   2.400   1.384  0.3889  0.0481 -0.0598
  596MOL0     N80377   6.598   2.422   1.279 -0.0517  0.1956  0.4397
  596MOL0     C80378   6.103   1.572   1.509  0.8474  0.8888  0.2082
  596MOL0     C80379   6.091   1.459   1.593  0.6325 -0.0783  0.2451
  596MOL0     C80380   5.922   1.151   1.852 -0.1675  1.1971 -0.6054
  596MOL0     C80381   5.968   1.148   1.992  0.2030  0.9622  0.6968
  596MOL0     C80382   5.917   1.056   2.088  0.0821 -0.0996  0.1231
  596MOL0     C80383   5.813   0.969   2.057  0.2820  0.0671  0.0189
  596MOL0     O80384   5.768   0.869   2.144  0.1643 -0.3526  1.0637
  596MOL0     C80385   5.841   0.826   2.264 -0.0116  0.1409 -0.0349
  596MOL0     C80386   5.976   0.756   2.227  0.5131 -0.9020  0.1770
  596MOL0     C80387   5.946   0.623   2.162 -0.2470 -0.2705  0.4841
  596MOL0     C80388   6.075   0.540   2.126  0.6698  0.8268  0.1695
  596MOL0     C80389   6.023   0.416   2.076 -0.1890  0.2994 -0.5426
  596MOL0     C80390   5.970   0.309   2.041 -0.0318  0.4379  0.0439
  596MOL0     C80391   5.767   0.976   1.927  0.2932  0.2288  0.3785
  596MOL0     C80392   5.817   1.061   1.826 -0.6708 -0.0158  0.3231
  596MOL0     H80393   5.986   1.599   1.877 -0.4357 -4.1068 -1.0080
  596MOL0     H80394   6.021   1.812   1.739  1.7382  0.3457 -0.5549
  596MOL0     H80395   6.128   1.809   1.293 -0.5395  2.4675 -1.8748
  596MOL0     H80396   5.975   1.736   1.335 -0.6329  1.0531 -0.8525
  596MOL0     H80397   5.881   1.932   1.276 -1.9102  1.1654  1.4068
  596MOL0     H80398   5.914   1.962   1.444 -0.1571 -1.4567 -0.4752
  596MOL0     H80399   6.021   2.149   1.317 -0.8432  0.2375 -1.6027
  596MOL0     H80400   6.157   2.041   1.366  2.2503 -0.3904 -1.6998
  596MOL0     H80401   6.178   1.962   1.146 -0.9221 -1.7781  0.7542
  596MOL0     H80402   6.019   2.024   1.094  0.5003 -4.2354  0.3538
  596MOL0     H80403   6.156   2.169   0.999 -0.5611  0.6922 -0.7167
  596MOL0     H80404   6.122   2.269   1.147  1.2819 -0.2151  1.6534
  596MOL0     H80405   6.332   2.198   1.243  1.5544 -2.0988  0.5863
  596MOL0     H80406   6.368   2.105   1.096 -1.8597  1.6872 -3.0362
  596MOL0     H80407   6.355   2.298   0.944  1.4814  0.0862 -0.3605
  596MOL0     H80408   6.332   2.414   1.070 -0.8409  0.0514  2.1934
  596MOL0     H80409   6.576   2.414   1.020 -0.6810 -0.5079  0.6127
  596MOL0     H80410   6.580   2.243   1.007 -0.4904  0.4901 -0.5756
  596MOL0     H80411   6.661   2.110   1.215  4.7006  1.1832 -3.5691
  596MOL0     H80412   6.857   2.132   1.460  2.3217  2.1965 -0.9984
  596MOL0     H80413   6.836   2.297   1.522 -1.0656  1.3919 -1.2171
  596MOL0     H80414   6.614   2.096   1.518 -3.2810  5.1411 -1.5803
  596MOL0     H80415   6.602   2.216   1.640 -1.0249 -1.9535  1.6559
  596MOL0     H80416   6.651   2.015   1.741  0.5278 -0.1989 -0.0044
  596MOL0     H80417   6.777   2.126   1.784  1.5880  0.3345  0.0228
  596MOL0     H80418   6.871   1.897   1.751 -0.8754 -0.3088  0.8382
  596MOL0     H80419   6.936   2.008   1.616 -0.8429  0.1529 -0.5080
  596MOL0     H80420   6.586   1.719   1.524  0.2779  3.5229  0.5917
  596MOL0     H80421   6.500   1.537   1.472 -0.2132  0.7610  3.0450
  596MOL0     H80422   6.580   1.374   1.460 -1.1620 -1.9073  1.3198
  596MOL0     H80423   6.538   1.441   1.620  2.0309  0.2720  1.5046
  596MOL0     H80424   6.957   1.089   1.664 -2.0551  3.1310  1.4657
  596MOL0     H80425   6.953   0.844   1.633 -0.1374 -0.9204  1.5412
  596MOL0     H80426   6.631   0.540   1.479  0.0976 -0.0716  3.7601
  596MOL0     H80427   6.540   0.656   1.543  1.8859 -1.7786  4.2090
  596MOL0     H80428   6.596   0.802   1.320  1.4315  0.3758 -2.1502
  596MOL0     H80429   6.740   0.685   1.304 -0.4287 -3.4249  1.8540
  596MOL0     H80430   6.440   0.631   1.300 -0.4969  0.4679 -1.4371
  596MOL0     H80431   6.574   0.517   1.251 -1.6117 -0.1944 -0.7057
  596MOL0     H80432   6.560   0.771   1.096 -0.8170  0.0598  1.3968
  596MOL0     H80433   6.624   0.619   1.049  1.5616  0.6337  1.6871
  596MOL0     H80434   6.328   0.683   1.110 -0.1850  0.1363  1.1789
  596MOL0     H80435   6.391   0.523   1.069  0.5601 -0.9052 -0.5958
  596MOL0     H80436   6.472   0.587   0.860  0.8297  0.6153  1.9215
  596MOL0     H80437   6.307   0.575   0.878  1.6822 -0.1065 -1.4560
  596MOL0     H80438   6.431   0.865   0.915 -2.4452  1.0118  1.3154
  596MOL0     H80439   6.271   0.821   0.865 -0.5868 -1.8799  1.3289
  596MOL0     H80440   6.524   0.777   0.702 -1.2605 -2.4135 -1.5341
  596MOL0     H80441   6.417   0.909   0.688 -1.1305  0.0568 -1.6336
  596MOL0     H80442   6.536   0.871   1.557  0.8598 -2.4224  1.6353
  596MOL0     H80443   6.548   1.121   1.581  2.4250  1.8660  0.9088
  596MOL0     H80444   7.029   1.508   1.602 -0.3808  1.2244  3.5878
  596MOL0     H80445   7.014   1.746   1.584 -1.1850  0.1748  3.1957
  596MOL0     H80446   6.137   1.557   1.407 -1.7172 -1.0278 -0.4830
  596MOL0     H80447   6.118   1.363   1.550 -1.4409 -1.2181  1.3830
  596MOL0     H80448   6.045   1.217   2.023  1.4364 -0.3410  0.6351
  596MOL0     H80449   5.963   1.052   2.186  3.3019 -4.7266 -1.2130
  596MOL0     H80450   5.864   0.911   2.328  3.6511 -1.1150  0.5274
  596MOL0     H80451   5.770   0.766   2.322 -0.1391 -0.6965 -1.0350
  596MOL0     H80452   6.035   0.736   2.317 -1.2527 -2.2746  1.0828
  596MOL0     H80453   6.042   0.821   2.168  2.3212 -1.3193  1.6359
  596MOL0     H80454   5.889   0.650   2.073  2.7260  1.8208 -0.9374
  596MOL0     H80455   5.878   0.558   2.218 -2.5465 -0.4465 -2.3204
  596MOL0     H80456   6.134   0.529   2.217  0.5185  2.4064  0.4932
  596MOL0     H80457   6.143   0.582   2.052  0.5627  2.4243  0.9399
  596MOL0     H80458   5.939   0.220   1.991  0.7244  0.8228 -1.1434
  596MOL0     H80459   5.716   0.889   1.888  2.4532  0.0836 -2.3883
  596MOL0     H80460   5.775   1.051   1.726 -3.9048 -1.4629  1.6787
  597MOL0     O80461   6.837  10.306  10.603  0.5009  0.3821  0.6089
  597MOL0     C80462   6.927  10.224  10.612 -0.5358 -1.0547 -0.3402
  597MOL0     O80463   7.059  10.248  10.640 -0.3708 -1.1837 -0.6456
  597MOL0     C80464   7.085  10.382  10.629 -0.4365  0.2387  0.4045
  597MOL0     C80465   7.093  10.442  10.501  0.3288 -0.4064  0.0011
  597MOL0     C80466   7.161  10.567  10.489  0.8388  0.0815  0.5015
  597MOL0     C80467   7.194  10.644  10.608 -0.4669  1.3762  0.5344
  597MOL0     O80468   7.249  10.764  10.588  0.3025  0.0861 -0.0786
  597MOL0     C80469   7.382  10.772  10.541  0.8343  0.4815 -0.1279
  597MOL0     C80470   7.448  10.916  10.588  0.6645  0.6264  0.3359
  597MOL0     C80471   7.362  11.038  10.518  0.2807  0.3946  0.1215
  597MOL0     C80472   7.272  11.112  10.630  0.4093 -0.1788 -0.3794
  597MOL0     C80473   7.156  11.202  10.566 -0.1969 -0.3987 -0.8192
  597MOL0     C80474   7.111  11.308  10.669  0.7091 -0.4523  1.0655
  597MOL0     C80475   6.962  11.332  10.683  0.3858 -1.3029 -0.2403
  597MOL0     C80476   6.901  11.416  10.572  0.5009 -1.0276 -0.0619
  597MOL0     N80477   6.765  11.472  10.591 -1.1046  0.2278  0.2719
  597MOL0     C80478   6.694  11.497  10.711 -0.4812  0.4676 -0.0103
  597MOL0     C80479   6.567  11.525  10.669 -0.1011  0.4531 -0.0579
  597MOL0     C80480   6.454  11.586  10.764 -0.2691  0.5707  0.7066
  597MOL0     C80481   6.343  11.641  10.674  0.0919 -0.1350 -0.3268
  597MOL0     C80482   6.380  11.787  10.642  0.4468  0.9665 -0.2429
  597MOL0     C80483   6.284  11.849  10.546  0.5162 -0.2168  0.0184
  597MOL0     O80484   6.343  11.957  10.480 -0.5684 -0.5955  0.2366
  597MOL0     C80485   6.264  12.030  10.389 -1.0856  0.3534 -0.7929
  597MOL0     C80486   6.123  12.014  10.386  0.3352 -1.0828 -0.3747
  597MOL0     C80487   6.054  12.096  10.300  0.2164  0.3551  0.3725
  597MOL0     C80488   5.899  12.082  10.311  0.0576  0.9596  0.6058
  597MOL0     C80489   6.111  12.188  10.214 -0.2712 -0.5112  1.4627
  597MOL0     C80490   6.032  12.255  10.111  1.0911  0.0642  0.3181
  597MOL0     O80491   5.978  12.375  10.136  0.1839 -0.1278  0.2059
  597MOL0     C80492   6.009  12.442  10.252 -0.2329 -0.5502  0.6939
  597MOL0     C80493   5.913  12.452  10.360 -0.6551  1.0858  0.0195
  597MOL0     C80494   5.946  12.529  10.469  0.4735 -0.1977  0.1391
  597MOL0     C80495   6.073  12.584  10.481  0.4755  0.1615  0.0425
  597MOL0     O80496   6.116  12.666  10.583  0.5130  0.0224  0.3054
  597MOL0     C80497   6.017  12.706  10.677  0.4961  0.0669 -0.3637
  597MOL0     C80498   6.063  12.805  10.782  0.4012 -0.4182 -0.3986
  597MOL0     C80499   6.202  12.752  10.844  0.3907  0.1774 -0.6033
  597MOL0     C80500   6.265  12.851  10.939  0.1643  0.6201 -0.0827
  597MOL0     C80501   6.405  12.796  10.980  0.7956  0.2936 -0.3099
  597MOL0     C80502   6.479  12.893  11.081  0.3186  0.2687 -0.2776
  597MOL0     C80503   6.463  12.872  11.229  0.2109 -0.2692 -0.6846
  597MOL0     C80504   6.459  12.997  11.312 -0.6531  0.5169  0.5031
  597MOL0    Cl80505   6.607  13.102  11.277  0.2605  0.1302  0.2581
  597MOL0     C80506   6.164  12.571  10.384 -0.3685  0.9714 -0.3230
  597MOL0     C80507   6.132  12.507  10.267  0.0867 -0.2353  0.1970
  597MOL0     O80508   6.048  12.214   9.996  0.6759 -0.1722  0.4684
  597MOL0     C80509   6.250  12.195  10.196  0.6788 -0.2969 -0.5754
  597MOL0     C80510   6.322  12.114  10.293  0.0800 -0.1357  0.6177
  597MOL0     N80511   6.570  11.521  10.530 -0.1888  0.5619 -0.2174
  597MOL0     N80512   6.681  11.478  10.481  0.0943  0.1131 -0.4431
  597MOL0     C80513   7.172  10.578  10.727 -0.2608 -0.7620  0.8607
  597MOL0     C80514   7.118  10.457  10.740  0.1567  1.0554 -0.1448
  597MOL0     C80515   6.877  10.090  10.629  0.2351 -0.4749 -0.3444
  597MOL0     C80516   6.787  10.036  10.529 -0.1987 -0.2421  0.1240
  597MOL0     C80517   6.726   9.915  10.553 -0.1646 -0.0910  0.5810
  597MOL0     C80518   6.770   9.830  10.655 -0.6391 -0.4423  0.7912
  597MOL0     O80519   6.723   9.700  10.651  0.2006 -0.0167 -0.0598
  597MOL0     C80520   6.771   9.623  10.538  0.0585 -0.7475 -0.5409
  597MOL0     C80521   6.890   9.532  10.599  0.2204  0.6375  0.2145
  597MOL0     C80522   6.842   9.434  10.706  0.6189 -0.7087  0.2804
  597MOL0     C80523   6.926   9.322  10.726  0.5004  0.5620  0.3077
  597MOL0     C80524   6.895   9.225  10.616 -0.1021  0.1226 -0.4623
  597MOL0     C80525   6.886   9.143  10.531 -0.0560  0.1012  0.2875
  597MOL0     C80526   6.865   9.875  10.750 -0.4898  0.9747 -0.3890
  597MOL0     C80527   6.903  10.015  10.739  0.3224 -0.4695 -0.2880
  597MOL0     H80528   7.061  10.388  10.413  2.7598 -1.7631 -0.1205
  597MOL0     H80529   7.181  10.610  10.391 -2.4435 -1.0691 -0.7874
  597MOL0     H80530   7.436  10.690  10.589 -2.7989 -0.1413  3.4950
  597MOL0     H80531   7.383  10.769  10.432  2.8361  3.5003 -0.2927
  597MOL0     H80532   7.443  10.914  10.698 -4.1997 -0.7169  0.3228
  597MOL0     H80533   7.554  10.914  10.562  1.1503  0.4459  2.1728
  597MOL0     H80534   7.432  11.107  10.469 -0.4596  0.9918 -0.1104
  597MOL0     H80535   7.304  10.997  10.435  3.0430  0.7948 -2.1583
  597MOL0     H80536   7.224  11.043  10.700 -0.4351  1.6387  0.9133
  597MOL0     H80537   7.341  11.174  10.688 -0.9955  0.9273  0.1747
  597MOL0     H80538   7.191  11.244  10.471  0.7995 -0.9090 -0.6980
  597MOL0     H80539   7.079  11.132  10.534  0.8461 -1.1314 -1.8374
  597MOL0     H80540   7.160  11.283  10.764  4.7627 -1.8360 -1.1426
  597MOL0     H80541   7.155  11.402  10.634  0.1227 -1.0514 -1.4126
  597MOL0     H80542   6.913  11.235  10.691  2.2928 -2.2529  0.4580
  597MOL0     H80543   6.954  11.388  10.777  0.8538 -2.0484  0.2544
  597MOL0     H80544   6.894  11.364  10.475 -2.3540 -3.9395  1.5142
  597MOL0     H80545   6.959  11.507  10.556 -1.5728  0.4247  0.4199
  597MOL0     H80546   6.718  11.484  10.816  2.2978  1.4501 -0.4218
  597MOL0     H80547   6.405  11.503  10.817 -0.4176 -0.3947 -0.8551
  597MOL0     H80548   6.498  11.660  10.831  0.2048  0.5828  0.3916
  597MOL0     H80549   6.246  11.623  10.720 -0.5162  0.8260 -1.2003
  597MOL0     H80550   6.345  11.584  10.581 -2.9374 -1.9983  0.6261
  597MOL0     H80551   6.481  11.781  10.601  1.0411  2.8760  0.8391
  597MOL0     H80552   6.380  11.849  10.732  0.9408 -1.0522  1.2255
  597MOL0     H80553   6.194  11.878  10.601  1.9086  1.2521  1.6712
  597MOL0     H80554   6.247  11.785  10.465 -1.5241  0.4343  0.3837
  597MOL0     H80555   6.055  11.943  10.433 -2.2730  0.3995 -1.6339
  597MOL0     H80556   5.837  12.117  10.228 -1.0427  0.0835  1.0259
  597MOL0     H80557   5.864  11.979  10.321  1.3605  0.3615 -0.6539
  597MOL0     H80558   5.875  12.147  10.396  3.1379  3.7927 -0.4571
  597MOL0     H80559   5.824  12.391  10.353  1.6856 -2.8345  1.4508
  597MOL0     H80560   5.870  12.528  10.547 -1.2515 -1.8598 -1.4496
  597MOL0     H80561   5.918  12.737  10.643 -0.5678 -2.0491  0.5916
  597MOL0     H80562   5.985  12.613  10.725 -1.5768 -0.1392 -2.0238
  597MOL0     H80563   6.084  12.902  10.736 -0.2771 -0.5800 -1.0693
  597MOL0     H80564   5.981  12.814  10.854  0.0290 -1.0393 -0.7373
  597MOL0     H80565   6.276  12.735  10.765  1.4023 -0.5626  0.4732
  597MOL0     H80566   6.188  12.663  10.905  2.1492  0.2282 -0.0841
  597MOL0     H80567   6.284  12.940  10.877  2.9275 -0.7208 -1.2985
  597MOL0     H80568   6.190  12.867  11.017 -1.7485  1.2107 -1.9324
  597MOL0     H80569   6.480  12.791  10.900  3.1638  3.5005  1.4727
  597MOL0     H80570   6.391  12.709  11.045 -0.9122  2.2362  2.0912
  597MOL0     H80571   6.586  12.868  11.075  0.7009 -0.4103  4.8025
  597MOL0     H80572   6.464  12.998  11.055  2.7538  1.0873  1.2939
  597MOL0     H80573   6.545  12.804  11.255  0.2812  0.5865  1.5608
  597MOL0     H80574   6.373  12.812  11.246  0.6989 -0.4953  1.2726
  597MOL0     H80575   6.445  12.968  11.416  0.1081 -0.2817  0.3839
  597MOL0     H80576   6.360  13.040  11.290 -0.4278  1.7692  1.7495
  597MOL0     H80577   6.263  12.617  10.381 -0.8622  2.0267 -1.9731
  597MOL0     H80578   6.202  12.504  10.184  3.4963 -1.0718  2.8944
  597MOL0     H80579   6.305  12.249  10.119  2.6736  0.5637  1.3732
  597MOL0     H80580   6.431  12.119  10.288  0.1433 -1.7103 -2.7157
  597MOL0     H80581   7.189  10.640  10.815 -0.2558  0.2619  0.1616
  597MOL0     H80582   7.111  10.393  10.827 -2.9664 -0.0903 -1.1247
  597MOL0     H80583   6.765  10.094  10.440  0.3038  1.2502  0.9213
  597MOL0     H80584   6.638   9.893  10.494 -0.1591  0.0005  0.5388
  597MOL0     H80585   6.688   9.560  10.503 -1.3932  0.1747  1.1184
  597MOL0     H80586   6.789   9.693  10.456 -0.6475 -0.6004 -0.5819
  597MOL0     H80587   6.978   9.593  10.624 -0.9745  2.3210  0.4665
  597MOL0     H80588   6.919   9.471  10.514  0.1034  0.2679  0.4387
  597MOL0     H80589   6.739   9.401  10.690  0.5699 -0.9796  1.0981
  597MOL0     H80590   6.846   9.499  10.794 -1.2721 -1.8189  1.2733
  597MOL0     H80591   6.902   9.266  10.817 -1.0110  0.7016  0.0211
  597MOL0     H80592   7.033   9.342  10.736  1.1918 -3.0066  1.6051
  597MOL0     H80593   6.879   9.074  10.449 -1.2583  1.9217 -1.2323
  597MOL0     H80594   6.896   9.813  10.833 -3.9459 -4.4847 -2.6236
  597MOL0     H80595   6.960  10.060  10.820 -0.3761 -1.4124  0.7718
  598MOL0     O80596   4.821   5.576   6.967  0.0062  0.2371  0.6761
  598MOL0     C80597   4.858   5.681   7.019 -0.0255  0.9818 -0.1821
  598MOL0     O80598   4.918   5.689   7.145 -1.0145 -0.0618 -0.2266
  598MOL0     C80599   4.958   5.573   7.197  0.8794  0.1164  0.1384
  598MOL0     C80600   4.880   5.497   7.276 -0.1826  0.1819 -0.0259
  598MOL0     C80601   4.922   5.381   7.341  0.3210  0.0040  0.6650
  598MOL0     C80602   5.058   5.346   7.347  0.5418  0.3382  0.2193
  598MOL0     O80603   5.094   5.242   7.425 -0.6874  0.2081 -0.6000
  598MOL0     C80604   5.215   5.157   7.412  0.8777 -0.2797  0.8853
  598MOL0     C80605   5.160   5.017   7.370  1.2660  0.8209  0.0320
  598MOL0     C80606   5.040   4.973   7.456  0.8856 -0.0471  0.7174
  598MOL0     C80607   4.916   4.955   7.373  0.6088 -0.8146 -0.9294
  598MOL0     C80608   4.931   4.833   7.275  0.3384  1.2944  0.3204
  598MOL0     C80609   4.924   4.700   7.351  0.1744  0.3122 -1.1027
  598MOL0     C80610   4.907   4.585   7.262 -0.6562 -0.0565  0.5638
  598MOL0     C80611   4.918   4.446   7.331 -0.5905 -0.2423 -0.0190
  598MOL0     N80612   5.050   4.406   7.364  0.5179  0.2635  0.8241
  598MOL0     C80613   5.149   4.375   7.275  0.3841 -0.0366  0.0484
  598MOL0     C80614   5.245   4.318   7.351  0.1228  0.4061  0.1771
  598MOL0     C80615   5.374   4.263   7.298  0.0492  0.0102  0.2786
  598MOL0     C80616   5.469   4.373   7.250 -0.7042 -0.4082  0.5719
  598MOL0     C80617   5.574   4.323   7.151  0.3639  0.0845  0.3745
  598MOL0     C80618   5.693   4.412   7.129 -0.6160 -0.2173  0.7781
  598MOL0     O80619   5.650   4.543   7.095  0.4293  0.1616 -0.3770
  598MOL0     C80620   5.696   4.613   6.988 -0.4294 -0.4871  0.4710
  598MOL0     C80621   5.780   4.723   7.024 -0.1917 -1.3915  0.1435
  598MOL0     C80622   5.811   4.815   6.920  0.0551 -0.7247  1.2521
  598MOL0     C80623   5.882   4.938   6.976 -0.4908  0.0558  0.9556
  598MOL0     C80624   5.787   4.786   6.782  0.8694  0.0094 -0.1607
  598MOL0     C80625   5.835   4.869   6.674 -0.3319 -0.6711 -0.9174
  598MOL0     O80626   5.904   4.991   6.702 -0.3776  1.2487 -0.4340
  598MOL0     C80627   5.885   5.084   6.614 -0.5680 -0.2621 -0.4656
  598MOL0     C80628   5.814   5.192   6.659 -0.1885 -0.1064  0.4168
  598MOL0     C80629   5.794   5.308   6.578  0.1041  0.4652 -0.1736
  598MOL0     C80630   5.862   5.328   6.453 -0.4378  0.1600 -0.1873
  598MOL0     O80631   5.864   5.448   6.395  0.0454  0.3097 -0.5170
  598MOL0     C80632   5.787   5.447   6.269 -1.0700 -0.2873  0.6665
  598MOL0     C80633   5.651   5.517   6.303 -0.1499  0.3968 -0.6625
  598MOL0     C80634   5.574   5.562   6.181 -0.5120 -0.1862  0.1135
  598MOL0     C80635   5.433   5.605   6.216 -0.0379 -0.7285  1.0876
  598MOL0     C80636   5.378   5.707   6.107 -0.0244  0.4933 -0.0555
  598MOL0     C80637   5.381   5.660   5.966 -0.1056  0.0886  0.5509
  598MOL0     C80638   5.300   5.536   5.946 -0.9556  0.4704  0.1113
  598MOL0     C80639   5.153   5.569   5.959  0.0059 -0.5066 -0.1993
  598MOL0    Cl80640   5.086   5.549   6.133 -0.3623 -0.6455  0.0818
  598MOL0     C80641   5.940   5.220   6.414 -0.8045 -0.1271 -0.4727
  598MOL0     C80642   5.936   5.099   6.486 -1.1866  0.0229 -1.4242
  598MOL0     O80643   5.819   4.824   6.561 -0.3035 -0.4810 -0.3269
  598MOL0     C80644   5.707   4.673   6.753 -0.5685 -0.1161 -0.6387
  598MOL0     C80645   5.668   4.586   6.849 -0.1845 -0.0382 -1.0717
  598MOL0     N80646   5.202   4.312   7.482  0.6648  0.5860 -0.7395
  598MOL0     N80647   5.082   4.364   7.483  0.1287  0.1643  0.4940
  598MOL0     C80648   5.146   5.426   7.264  0.5770  0.6955  0.0834
  598MOL0     C80649   5.100   5.542   7.200 -0.9081  0.6484  0.4385
  598MOL0     C80650   4.854   5.803   6.943  0.4874 -1.0068 -0.4350
  598MOL0     C80651   4.895   5.921   6.994  0.4864 -1.7804 -1.0422
  598MOL0     C80652   4.921   6.034   6.917 -0.1637  0.2115 -0.2181
  598MOL0     C80653   4.915   6.027   6.780 -0.6904  1.1429 -0.3136
  598MOL0     O80654   4.927   6.130   6.698 -0.2602 -1.2154 -0.2013
  598MOL0     C80655   4.987   6.250   6.756  0.4659  0.6087  0.4198
  598MOL0     C80656   4.963   6.380   6.678 -0.0895 -0.4366 -0.8198
  598MOL0     C80657   5.010   6.383   6.537 -0.1933 -0.2213 -0.0570
  598MOL0     C80658   5.159   6.447   6.520  0.0005 -0.0822 -0.9411
  598MOL0     C80659   5.161   6.594   6.547  0.7613 -0.0353  0.2998
  598MOL0     C80660   5.186   6.709   6.566  0.3073 -1.1777  0.7339
  598MOL0     C80661   4.861   5.908   6.725  0.0508 -1.1166  0.3340
  598MOL0     C80662   4.832   5.795   6.806  0.0327 -0.8219  0.5046
  598MOL0     H80663   4.779   5.538   7.277  0.7621  2.6581  0.8496
  598MOL0     H80664   4.862   5.312   7.400 -0.5680 -0.1153 -0.3358
  598MOL0     H80665   5.301   5.195   7.357  0.2959  0.0698  0.2060
  598MOL0     H80666   5.252   5.153   7.515  3.5255 -1.5593 -0.0161
  598MOL0     H80667   5.143   5.003   7.263 -3.1590  0.4689  0.5957
  598MOL0     H80668   5.239   4.944   7.390  0.9910  1.0386  2.1418
  598MOL0     H80669   5.047   4.879   7.512 -2.8890 -1.0969 -0.2775
  598MOL0     H80670   5.012   5.044   7.535 -2.3787 -0.5271  0.1136
  598MOL0     H80671   4.828   4.953   7.438 -1.6630  2.5421 -3.5044
  598MOL0     H80672   4.899   5.049   7.319 -0.6890 -0.2947  0.3047
  598MOL0     H80673   4.846   4.820   7.207  0.2945 -2.5477  0.8565
  598MOL0     H80674   5.023   4.841   7.217  1.8324  2.2443  2.6902
  598MOL0     H80675   5.016   4.697   7.411 -0.7240  2.2728  0.4891
  598MOL0     H80676   4.848   4.685   7.429  0.2833 -0.5372 -1.1471
  598MOL0     H80677   4.808   4.592   7.216 -0.1701 -2.2255 -0.9496
  598MOL0     H80678   4.988   4.589   7.189  1.5217  0.0090  2.8426
  598MOL0     H80679   4.886   4.378   7.251 -1.6557 -0.6540  0.7343
  598MOL0     H80680   4.852   4.435   7.418 -2.7930 -1.2162 -1.6960
  598MOL0     H80681   5.160   4.393   7.169  2.9720 -0.1957  0.2261
  598MOL0     H80682   5.424   4.197   7.369 -1.2895 -1.5956 -0.2079
  598MOL0     H80683   5.356   4.205   7.207 -1.3400 -0.8926  1.0828
  598MOL0     H80684   5.521   4.416   7.336 -2.6174  0.5669  1.2965
  598MOL0     H80685   5.410   4.448   7.197 -1.4395 -0.1444  1.7189
  598MOL0     H80686   5.531   4.313   7.051  0.3063  4.6014 -0.2576
  598MOL0     H80687   5.606   4.226   7.190  1.3225  0.9821  1.9223
  598MOL0     H80688   5.744   4.364   7.046 -2.1465 -2.1980  0.9145
  598MOL0     H80689   5.768   4.417   7.208  0.0650 -5.1626  0.7213
  598MOL0     H80690   5.811   4.759   7.122  1.7534 -2.4638 -0.0163
  598MOL0     H80691   5.868   5.031   6.922 -1.4964 -1.4085 -1.4761
  598MOL0     H80692   5.856   4.966   7.079  1.4578  3.4426  0.6475
  598MOL0     H80693   5.989   4.917   6.969 -0.7714 -0.9409 -0.8713
  598MOL0     H80694   5.777   5.175   6.759 -0.5487 -2.4937 -0.0491
  598MOL0     H80695   5.737   5.388   6.623  1.4708  0.9949  0.6787
  598MOL0     H80696   5.840   5.520   6.207  0.2479 -0.6189  1.3651
  598MOL0     H80697   5.774   5.358   6.207 -3.0629  2.4634 -3.2835
  598MOL0     H80698   5.598   5.441   6.361 -4.0957  1.1870 -2.8414
  598MOL0     H80699   5.667   5.610   6.357  0.6742 -0.7028  1.0776
  598MOL0     H80700   5.563   5.482   6.107 -0.0120  1.3402 -1.7094
  598MOL0     H80701   5.632   5.635   6.122 -0.9766  2.1646  2.3858
  598MOL0     H80702   5.367   5.518   6.229 -1.5876 -1.2054 -6.0001
  598MOL0     H80703   5.448   5.648   6.316 -1.3267  2.2213  0.1171
  598MOL0     H80704   5.439   5.798   6.103  0.4345  0.2952  1.5470
  598MOL0     H80705   5.282   5.744   6.144 -0.2190 -2.2514  2.6009
  598MOL0     H80706   5.344   5.739   5.900  0.7716 -0.2877 -0.4240
  598MOL0     H80707   5.480   5.647   5.922 -0.5715 -2.2628  0.0455
  598MOL0     H80708   5.320   5.450   6.011 -0.9203 -1.9380 -2.8561
  598MOL0     H80709   5.321   5.496   5.846  2.5004  0.8797  0.5530
  598MOL0     H80710   5.093   5.521   5.882 -0.9559 -1.1938  0.9434
  598MOL0     H80711   5.125   5.673   5.936 -0.4456 -0.3548  0.9563
  598MOL0     H80712   5.996   5.235   6.322 -1.6894  0.6309 -0.9115
  598MOL0     H80713   5.987   5.014   6.440  1.6911  1.4172 -1.0288
  598MOL0     H80714   5.660   4.657   6.657 -2.1815  1.9592 -0.2706
  598MOL0     H80715   5.593   4.510   6.830 -0.2883 -0.1923 -0.1029
  598MOL0     H80716   5.253   5.408   7.260  1.1220  3.0483  1.6468
  598MOL0     H80717   5.165   5.605   7.140 -0.7815 -0.2016 -0.3345
  598MOL0     H80718   4.909   5.938   7.100 -2.8585  1.6681 -0.9243
  598MOL0     H80719   4.954   6.119   6.977 -1.4044 -0.5596  1.6445
  598MOL0     H80720   4.956   6.268   6.859 -0.8803 -0.1152  0.1641
  598MOL0     H80721   5.092   6.225   6.770  0.1229 -1.7429 -0.7631
  598MOL0     H80722   4.985   6.465   6.742 -2.9154 -0.2886  0.0891
  598MOL0     H80723   4.855   6.368   6.668 -0.0685 -2.7234  0.9513
  598MOL0     H80724   4.937   6.433   6.472  1.0972  0.4300 -1.0493
  598MOL0     H80725   5.011   6.276   6.512 -0.3404 -0.0190 -0.9728
  598MOL0     H80726   5.197   6.429   6.419 -2.4476 -2.0827 -1.6290
  598MOL0     H80727   5.221   6.401   6.597 -1.0343  0.3595  0.1966
  598MOL0     H80728   5.219   6.807   6.594 -1.9977 -0.4983  1.2840
  598MOL0     H80729   4.822   5.905   6.624  2.1620 -1.4989 -0.5376
  598MOL0     H80730   4.795   5.709   6.751 -1.6153  0.1272  0.0555
  599MOL0     O80731   2.841   0.707   5.494  0.9392 -0.1003  0.1162
  599MOL0     C80732   2.751   0.714   5.575 -0.4625  1.0174  0.4021
  599MOL0     O80733   2.619   0.730   5.536  0.3728  0.0580  0.5371
  599MOL0     C80734   2.600   0.760   5.408  0.1710 -0.4101 -0.2611
  599MOL0     C80735   2.607   0.669   5.299  0.4510 -0.4209 -0.4093
  599MOL0     C80736   2.587   0.696   5.164  0.2882  0.8056 -0.0952
  599MOL0     C80737   2.573   0.826   5.129  0.5035 -0.7946 -0.4403
  599MOL0     O80738   2.558   0.867   4.997  0.7714 -0.7140 -0.2162
  599MOL0     C80739   2.577   0.773   4.890 -0.8324 -0.4543  0.7870
  599MOL0     C80740   2.606   0.843   4.754  0.6007 -0.4884 -1.1776
  599MOL0     C80741   2.608   0.736   4.643 -0.0323 -0.6179  0.4877
  599MOL0     C80742   2.660   0.800   4.509 -0.2711 -0.3706 -0.1323
  599MOL0     C80743   2.658   0.702   4.394 -0.1104  0.1548  0.8446
  599MOL0     C80744   2.706   0.771   4.263 -0.5836 -1.2902 -0.1743
  599MOL0     C80745   2.685   0.680   4.141  1.0313  0.1847  0.5317
  599MOL0     C80746   2.687   0.743   4.005  0.4038  0.1569 -0.0252
  599MOL0     N80747   2.823   0.796   3.974  1.0375 -0.7233 -0.1175
  599MOL0     C80748   2.924   0.714   3.918  0.0751 -0.1541 -1.3357
  599MOL0     C80749   3.039   0.779   3.948 -0.0940  0.6414  0.0965
  599MOL0     C80750   3.178   0.756   3.900  0.1019 -0.3737 -0.8372
  599MOL0     C80751   3.256   0.676   4.000 -0.4017  0.5162  0.0030
  599MOL0     C80752   3.198   0.537   4.018  0.6571  0.7770  0.4607
  599MOL0     C80753   3.311   0.439   4.061 -0.1877 -0.2713  0.1422
  599MOL0     O80754   3.257   0.320   4.124 -0.0406 -0.7207  0.2677
  599MOL0     C80755   3.345   0.210   4.150  0.4932 -0.7297  0.1686
  599MOL0     C80756   3.449   0.178   4.061 -0.2090 -1.3555 -0.0225
  599MOL0     C80757   3.522   0.062   4.059 -1.5019  0.2983  0.3323
  599MOL0     C80758   3.643   0.028   3.961 -0.3109 -0.3980  0.2543
  599MOL0     C80759   3.500  -0.033   4.173  0.0870 -0.8856 -0.7378
  599MOL0     C80760   3.593  -0.152   4.196  0.0597 -0.4444 -0.1886
  599MOL0     O80761   3.591  -0.192   4.325 -0.1157 -0.6213  0.5432
  599MOL0     C80762   3.643  -0.320   4.353 -0.6520 -0.2908  0.5619
  599MOL0     C80763   3.569  -0.437   4.347 -0.5419  0.9813  0.8848
  599MOL0     C80764   3.619  -0.566   4.380  0.2808  0.2750 -0.2061
  599MOL0     C80765   3.760  -0.568   4.408 -0.0327  0.5911 -0.7298
  599MOL0     O80766   3.816  -0.692   4.441 -0.3575 -0.8301  0.4668
  599MOL0     C80767   3.935  -0.748   4.382 -0.1394 -0.2008  0.5839
  599MOL0     C80768   3.912  -0.771   4.234  0.3473  0.3627 -0.2193
  599MOL0     C80769   3.803  -0.870   4.206 -0.7464 -0.7544 -0.4391
  599MOL0     C80770   3.764  -0.868   4.055 -0.2755  0.4939 -0.4405
  599MOL0     C80771   3.645  -0.959   4.028 -0.0679 -0.5427 -0.1632
  599MOL0     C80772   3.596  -0.956   3.881 -0.3489  0.4516 -1.8133
  599MOL0     C80773   3.687  -0.945   3.760 -0.0240  0.6107  0.8613
  599MOL0     C80774   3.791  -1.051   3.742 -0.2495 -0.1242  1.0933
  599MOL0    Cl80775   3.889  -1.012   3.588  0.8988 -0.0083 -0.2462
  599MOL0     C80776   3.838  -0.453   4.399 -0.6289 -0.1943 -0.7630
  599MOL0     C80777   3.778  -0.332   4.381 -0.1512 -1.5991  0.6911
  599MOL0     O80778   3.659  -0.214   4.104  0.3251  0.0332 -0.6077
  599MOL0     C80779   3.390  -0.006   4.262  0.6632  0.1479 -0.0315
  599MOL0     C80780   3.317   0.115   4.247  0.6195 -0.8793 -1.0538
  599MOL0     N80781   3.008   0.903   4.007 -0.8499  0.7098  0.9025
  599MOL0     N80782   2.886   0.909   4.028 -0.4034  0.1312 -0.6317
  599MOL0     C80783   2.578   0.929   5.231  0.4769 -0.2005  0.4082
  599MOL0     C80784   2.590   0.897   5.366 -0.1546  0.0849 -0.0502
  599MOL0     C80785   2.786   0.700   5.715 -0.1228 -0.2527  0.3337
  599MOL0     C80786   2.924   0.697   5.757 -0.6076 -0.6596 -0.4893
  599MOL0     C80787   2.956   0.693   5.891 -0.7581  0.2391 -0.7547
  599MOL0     C80788   2.855   0.686   5.987 -0.7995 -1.3299 -0.9420
  599MOL0     O80789   2.887   0.692   6.120 -0.6494  0.3847 -0.2615
  599MOL0     C80790   2.942   0.815   6.171 -0.5714 -0.2136 -0.3220
  599MOL0     C80791   2.882   0.939   6.139  0.4220 -1.4000 -0.4524
  599MOL0     C80792   2.735   0.941   6.175  0.2766  0.4172  0.1015
  599MOL0     C80793   2.661   1.062   6.117  0.3422  0.8160 -0.1141
  599MOL0     C80794   2.713   1.193   6.158 -1.1798 -0.5223 -0.5376
  599MOL0     C80795   2.763   1.301   6.186  0.1294 -0.0808 -0.0906
  599MOL0     C80796   2.726   0.664   5.942  0.0604 -0.4053  0.3645
  599MOL0     C80797   2.687   0.668   5.812 -0.2047 -0.5587  0.3713
  599MOL0     H80798   2.633   0.566   5.320  1.1825 -0.3053 -0.7496
  599MOL0     H80799   2.596   0.619   5.088 -2.0455  0.2302  0.1228
  599MOL0     H80800   2.659   0.701   4.895  1.9951  2.4129 -0.7248
  599MOL0     H80801   2.476   0.733   4.877 -0.0884 -1.2961 -5.3570
  599MOL0     H80802   2.524   0.913   4.736 -0.5108 -1.1088  1.1463
  599MOL0     H80803   2.703   0.894   4.756 -0.8198  2.3915  1.3725
  599MOL0     H80804   2.679   0.657   4.671  1.7509  1.0633  0.9217
  599MOL0     H80805   2.509   0.690   4.629  1.0017 -2.5129 -1.1514
  599MOL0     H80806   2.595   0.882   4.476 -1.5843 -0.9055  1.0118
  599MOL0     H80807   2.763   0.827   4.535 -0.5505  0.9813 -0.3520
  599MOL0     H80808   2.723   0.622   4.431  1.3531  2.1428  2.8358
  599MOL0     H80809   2.561   0.654   4.375 -0.1347 -0.8312  3.1284
  599MOL0     H80810   2.650   0.864   4.248  1.1861 -0.4439 -2.0024
  599MOL0     H80811   2.812   0.798   4.266 -1.1757  1.6828 -2.2499
  599MOL0     H80812   2.756   0.597   4.144  1.8239  0.8062 -0.4684
  599MOL0     H80813   2.585   0.640   4.158 -0.1632  2.6481 -0.3343
  599MOL0     H80814   2.614   0.824   4.001 -0.4286 -0.4549  1.6546
  599MOL0     H80815   2.671   0.665   3.930 -0.9973  1.0520 -0.6968
  599MOL0     H80816   2.908   0.620   3.866  0.5114 -0.2217 -1.3488
  599MOL0     H80817   3.188   0.728   3.795 -0.9770 -0.7793 -0.8434
  599MOL0     H80818   3.229   0.851   3.919  0.9182 -0.8957 -0.3173
  599MOL0     H80819   3.266   0.724   4.098 -0.9110  3.0886 -1.1161
  599MOL0     H80820   3.360   0.667   3.966 -0.1634  1.9286  0.2913
  599MOL0     H80821   3.155   0.503   3.923  0.3846  1.2371  0.4122
  599MOL0     H80822   3.119   0.549   4.093 -0.6894 -0.9664 -0.6178
  599MOL0     H80823   3.375   0.486   4.136 -1.3753  2.6810 -0.5619
  599MOL0     H80824   3.361   0.419   3.965 -0.1843 -1.7277  0.4259
  599MOL0     H80825   3.480   0.244   3.979  0.4658 -3.3653 -1.4636
  599MOL0     H80826   3.735   0.034   4.018 -1.0185 -0.7575  1.4617
  599MOL0     H80827   3.638  -0.063   3.900 -0.4017  0.1108 -0.5240
  599MOL0     H80828   3.657   0.102   3.881  4.1287 -0.5883  0.6037
  599MOL0     H80829   3.464  -0.429   4.322 -0.1195  0.0269 -1.5573
  599MOL0     H80830   3.559  -0.656   4.380  1.4006 -0.5326  1.8212
  599MOL0     H80831   4.016  -0.680   4.411 -0.8296  0.8469  0.1306
  599MOL0     H80832   3.981  -0.835   4.430 -1.7953 -0.2811  2.1262
  599MOL0     H80833   3.905  -0.673   4.186 -2.0454  0.6863  0.6546
  599MOL0     H80834   3.991  -0.833   4.190  1.3459 -0.5263  2.5958
  599MOL0     H80835   3.711  -0.846   4.260  2.2715  1.5396  4.3019
  599MOL0     H80836   3.827  -0.974   4.227 -1.5048 -0.8369  0.0914
  599MOL0     H80837   3.741  -0.766   4.024 -1.6337 -0.6510 -3.6270
  599MOL0     H80838   3.852  -0.902   3.999 -0.1023 -0.0739  0.1575
  599MOL0     H80839   3.569  -0.940   4.104 -0.0704 -0.6765 -0.1325
  599MOL0     H80840   3.674  -1.060   4.056 -0.4632 -0.0947  2.0765
  599MOL0     H80841   3.555  -1.057   3.881 -2.1730  1.0821  0.9623
  599MOL0     H80842   3.507  -0.893   3.878 -2.8663 -2.8848 -3.6908
  599MOL0     H80843   3.734  -0.847   3.771 -3.9849  2.5996  1.6480
  599MOL0     H80844   3.622  -0.948   3.672  0.7358 -2.0339  0.2841
  599MOL0     H80845   3.732  -1.143   3.736 -0.2818 -0.0945  0.9640
  599MOL0     H80846   3.861  -1.051   3.826 -0.5045  1.2558  1.3275
  599MOL0     H80847   3.945  -0.463   4.413 -0.4233  1.7920 -0.5689
  599MOL0     H80848   3.832  -0.238   4.389 -2.6911  0.4282 -3.2107
  599MOL0     H80849   3.369  -0.074   4.344 -0.1390  0.2931 -0.1113
  599MOL0     H80850   3.226   0.133   4.305 -0.0277 -0.6907 -2.1120
  599MOL0     H80851   2.576   1.032   5.196 -0.1282 -0.4608 -0.3611
  599MOL0     H80852   2.598   0.968   5.448  0.9376  0.7446 -0.7022
  599MOL0     H80853   3.003   0.681   5.684  0.6032  0.8042  0.4341
  599MOL0     H80854   3.060   0.707   5.918 -1.4798  2.8880  1.0870
  599MOL0     H80855   2.956   0.812   6.280 -1.0363  2.9227 -0.0823
  599MOL0     H80856   3.044   0.820   6.132 -1.4034  0.9923 -2.4706
  599MOL0     H80857   2.896   0.962   6.033 -2.2986 -0.0628 -0.6122
  599MOL0     H80858   2.933   1.024   6.185  1.0142 -3.1100  2.2816
  599MOL0     H80859   2.736   0.915   6.281  1.5023  1.9736  0.5115
  599MOL0     H80860   2.687   0.856   6.125 -0.2934  0.3790  0.7032
  599MOL0     H80861   2.563   1.063   6.166  0.9613  3.3227  1.2248
  599MOL0     H80862   2.658   1.053   6.008  2.7505  2.2117 -0.3611
  599MOL0     H80863   2.789   1.401   6.215  2.9430 -0.8543  0.3804
  599MOL0     H80864   2.648   0.660   6.018 -1.4243  0.2746 -1.0681
  599MOL0     H80865   2.590   0.664   5.764  0.9850  1.1353 -2.4217
  600MOL0     O80866   8.772  10.154  10.831 -0.2660 -0.4985 -0.3364
  600MOL0     C80867   8.712  10.253  10.868  0.9603 -0.8047  0.4188
  600MOL0     O80868   8.643  10.272  10.977  0.3162 -0.3506  0.2488
  600MOL0     C80869   8.617  10.176  11.061  0.4155  0.9377 -0.8174
  600MOL0     C80870   8.529  10.069  11.038 -0.3190 -0.3411 -0.6024
  600MOL0     C80871   8.517   9.969  11.130  0.7131  0.0642  0.1257
  600MOL0     C80872   8.587   9.966  11.255 -0.6378  0.5828 -0.8322
  600MOL0     O80873   8.562   9.873  11.348 -0.2369  0.5162 -0.8780
  600MOL0     C80874   8.434   9.872  11.403  0.5335 -0.1738 -0.7074
  600MOL0     C80875   8.439   9.836  11.551 -0.0158 -0.2317  0.0909
  600MOL0     C80876   8.498   9.953  11.644  0.2708 -0.1753  0.4173
  600MOL0     C80877   8.493   9.931  11.799 -0.0317 -0.7713  0.8460
  600MOL0     C80878   8.506  10.064  11.865  0.6806 -0.8255 -0.2132
  600MOL0     C80879   8.640  10.131  11.834 -0.4569 -0.1711 -0.3010
  600MOL0     C80880   8.763  10.066  11.897 -0.8111 -0.0576  0.6855
  600MOL0     C80881   8.862   9.995  11.814 -0.5714  0.2875  0.6713
  600MOL0     N80882   8.986   9.972  11.887  0.5883 -0.0030 -0.4876
  600MOL0     C80883   9.104  10.042  11.878  0.2302  0.2815  0.0229
  600MOL0     C80884   9.181   9.956  11.959  0.3503  0.3018  0.1785
  600MOL0     C80885   9.319   9.988  12.000 -0.3056 -0.1250 -0.8087
  600MOL0     C80886   9.403  10.053  11.892 -0.4082  0.5381 -0.5168
  600MOL0     C80887   9.424   9.963  11.777  0.4955  0.9761 -0.7328
  600MOL0     C80888   9.491  10.043  11.666  0.7434 -0.7576  0.1063
  600MOL0     O80889   9.623  10.074  11.706 -0.0221 -0.1767  0.2402
  600MOL0     C80890   9.714  10.127  11.615  0.1171  0.1620 -0.0430
  600MOL0     C80891   9.844  10.138  11.666 -0.1634 -0.3988 -0.2276
  600MOL0     C80892   9.950  10.183  11.588  0.0779  0.5520 -0.1888
  600MOL0     C80893  10.086  10.193  11.654  0.1874  0.4162 -0.7227
  600MOL0     C80894   9.923  10.235  11.458 -0.1380  0.5007  0.6057
  600MOL0     C80895  10.022  10.291  11.365 -0.7530 -0.2593  0.1399
  600MOL0     O80896   9.970  10.319  11.239 -0.3040 -0.3404 -0.2789
  600MOL0     C80897  10.053  10.315  11.132 -0.2570 -0.0620 -0.2788
  600MOL0     C80898  10.187  10.292  11.124 -0.3566 -0.4127 -1.3018
  600MOL0     C80899  10.266  10.291  11.011  0.3836  0.6078  1.1885
  600MOL0     C80900  10.206  10.297  10.885 -0.2198  0.0053  0.6500
  600MOL0     O80901  10.269  10.313  10.764 -0.3672 -0.1075 -1.7284
  600MOL0     C80902  10.413  10.302  10.753 -0.5098  0.2061  0.7723
  600MOL0     C80903  10.454  10.321  10.606  0.7187 -0.6258 -0.7386
  600MOL0     C80904  10.603  10.328  10.607  0.8642 -0.1017 -0.0467
  600MOL0     C80905  10.654  10.323  10.456  0.2445 -0.2956 -1.1663
  600MOL0     C80906  10.799  10.271  10.451 -0.2554  0.5690  0.5648
  600MOL0     C80907  10.901  10.379  10.497  0.7975 -0.9641 -0.1732
  600MOL0     C80908  11.037  10.323  10.517 -0.1145  0.2036 -0.1546
  600MOL0     C80909  11.096  10.278  10.395  0.0359 -0.4309  0.5478
  600MOL0    Cl80910  11.240  10.375  10.339  0.0860 -0.0887  0.0775
  600MOL0     C80911  10.064  10.299  10.883 -0.8014  0.9002  0.4430
  600MOL0     C80912   9.990  10.313  11.003  0.0349  0.4207  0.7566
  600MOL0     O80913  10.139  10.325  11.405 -0.1916  0.2702  0.0386
  600MOL0     C80914   9.786  10.230  11.415  0.4378 -0.1229  0.5794
  600MOL0     C80915   9.691  10.167  11.482  0.2412 -0.7465  0.3181
  600MOL0     N80916   9.111   9.861  12.019 -0.3926 -0.1126 -0.8071
  600MOL0     N80917   8.986   9.872  11.977 -0.0813  0.7837 -0.2200
  600MOL0     C80918   8.679  10.069  11.282 -0.3097  0.4807  0.0989
  600MOL0     C80919   8.686  10.173  11.188 -0.0394 -0.0177 -0.2484
  600MOL0     C80920   8.702  10.366  10.767 -0.1544  0.2373 -0.6970
  600MOL0     C80921   8.594  10.461  10.773  0.0093  0.1479  0.4673
  600MOL0     C80922   8.588  10.575  10.686 -0.4198  0.6961 -0.0153
  600MOL0     C80923   8.688  10.583  10.588  0.4421  0.6772 -0.9331
  600MOL0     O80924   8.674  10.692  10.508 -0.2436 -0.6515 -0.1034
  600MOL0     C80925   8.791  10.728  10.425 -0.0516 -1.4459  0.4521
  600MOL0     C80926   8.753  10.843  10.321  0.5707 -0.4076 -0.2802
  600MOL0     C80927   8.634  10.791  10.241 -0.1029  0.8185 -0.3274
  600MOL0     C80928   8.608  10.882  10.130 -0.7486 -0.2012  0.0212
  600MOL0     C80929   8.582  11.016  10.173 -0.3730  0.2169 -0.5104
  600MOL0     C80930   8.569  11.133  10.192  0.4855 -0.4521 -0.8097
  600MOL0     C80931   8.794  10.496  10.582 -0.7913  0.1470 -0.2524
  600MOL0     C80932   8.807  10.390  10.672 -0.0551  0.9170  0.0899
  600MOL0     H80933   8.465  10.075  10.951  2.5703 -0.9186 -2.9340
  600MOL0     H80934   8.449   9.890  11.098 -0.3200  1.1919 -0.5787
  600MOL0     H80935   8.383   9.968  11.389  1.2288  0.6104  1.6906
  600MOL0     H80936   8.375   9.798  11.348  2.3097 -1.9543 -0.3243
  600MOL0     H80937   8.336   9.818  11.583  0.6004 -0.4469  2.0884
  600MOL0     H80938   8.498   9.746  11.571 -1.5882 -1.0917  1.0170
  600MOL0     H80939   8.600   9.962  11.606 -0.7217  1.8513 -1.9957
  600MOL0     H80940   8.440  10.041  11.615 -1.6479 -1.5386 -0.0561
  600MOL0     H80941   8.394   9.897  11.829 -1.0817  0.7962 -0.6849
  600MOL0     H80942   8.563   9.854  11.833 -1.0358 -1.8798  0.4887
  600MOL0     H80943   8.417  10.127  11.852 -0.0864 -1.7913  0.2160
  600MOL0     H80944   8.501  10.052  11.974 -2.5940 -0.4860 -0.2133
  600MOL0     H80945   8.657  10.143  11.727 -0.3762 -0.8120 -0.3654
  600MOL0     H80946   8.643  10.236  11.865  1.4067  0.2115 -1.5727
  600MOL0     H80947   8.824  10.141  11.948  2.0802  1.3407 -4.1413
  600MOL0     H80948   8.722   9.990  11.964  0.1203 -0.2922  1.0069
  600MOL0     H80949   8.885  10.046  11.719 -0.5333 -3.5003 -1.5588
  600MOL0     H80950   8.827   9.895  11.787  0.1476  1.1633 -4.6348
  600MOL0     H80951   9.133  10.133  11.827  0.3211 -0.3615 -1.1200
  600MOL0     H80952   9.326  10.056  12.086 -2.4993 -0.0651 -0.6164
  600MOL0     H80953   9.374   9.897  12.027  0.9625  1.0625  0.8213
  600MOL0     H80954   9.495  10.086  11.941 -1.1781  1.2643  0.4983
  600MOL0     H80955   9.346  10.140  11.857 -0.0910  1.3375  0.8823
  600MOL0     H80956   9.332   9.916  11.740  0.5008 -0.2491  0.7293
  600MOL0     H80957   9.489   9.884  11.813 -0.6332  1.0071  1.5688
  600MOL0     H80958   9.428  10.129  11.640  2.0102  0.6471  1.4884
  600MOL0     H80959   9.490   9.985  11.573  2.2627 -1.4596  0.5052
  600MOL0     H80960   9.868  10.094  11.762 -0.7086 -2.6017 -1.0277
  600MOL0     H80961  10.090  10.296  11.690  0.1673 -0.7019  2.9257
  600MOL0     H80962  10.086  10.138  11.749  2.6613  3.1389  0.9919
  600MOL0     H80963  10.173  10.165  11.594  2.6942 -2.1527  3.6060
  600MOL0     H80964  10.241  10.272  11.216 -0.5344 -1.7768 -1.4836
  600MOL0     H80965  10.373  10.300  11.028  0.3735  1.5945  0.7870
  600MOL0     H80966  10.472  10.362  10.823  1.1443  0.6333 -0.9142
  600MOL0     H80967  10.435  10.200  10.785 -1.8684  0.3454  2.2478
  600MOL0     H80968  10.411  10.236  10.552  0.9993 -0.0453 -1.9101
  600MOL0     H80969  10.420  10.419  10.571 -0.5095  0.6576  3.4954
  600MOL0     H80970  10.631  10.235  10.656 -1.6495 -1.2718 -0.6459
  600MOL0     H80971  10.628  10.416  10.667 -1.2987 -0.4675  1.5340
  600MOL0     H80972  10.592  10.250  10.403 -1.0907  0.1250 -0.2513
  600MOL0     H80973  10.653  10.418  10.403  1.4919  0.3279 -0.1178
  600MOL0     H80974  10.809  10.240  10.346 -0.0968  1.0247  0.4434
  600MOL0     H80975  10.819  10.176  10.502  0.9260  0.4879 -0.0259
  600MOL0     H80976  10.900  10.458  10.421  2.0587  2.4537  3.0420
  600MOL0     H80977  10.874  10.439  10.585 -3.4887  0.7460 -2.3312
  600MOL0     H80978  11.023  10.242  10.588 -0.3703  2.1525  2.1372
  600MOL0     H80979  11.100  10.404  10.555  0.1340  0.3217 -0.7958
  600MOL0     H80980  11.025  10.265  10.313  0.3438 -1.4815  0.4249
  600MOL0     H80981  11.138  10.179  10.417 -1.4736 -1.8983 -2.4489
  600MOL0     H80982  10.017  10.284  10.786 -0.2988 -2.3578  0.5893
  600MOL0     H80983   9.882  10.316  10.999  0.0228 -1.0069 -1.3984
  600MOL0     H80984   9.757  10.260  11.315  1.2845  2.3234  1.0004
  600MOL0     H80985   9.585  10.169  11.458 -0.3909 -0.3909  2.8250
  600MOL0     H80986   8.745  10.063  11.368 -1.9353  2.0788  1.5462
  600MOL0     H80987   8.759  10.250  11.209 -0.8667  1.3140 -1.9955
  600MOL0     H80988   8.523  10.446  10.853  0.0186  1.3512  0.7132
  600MOL0     H80989   8.513  10.652  10.699 -0.2878  1.7721 -4.2210
  600MOL0     H80990   8.872  10.773  10.484  1.9199 -2.2919 -1.4716
  600MOL0     H80991   8.840  10.650  10.366 -0.3820 -1.6558  0.4577
  600MOL0     H80992   8.835  10.863  10.252 -0.1779 -0.3961 -1.1893
  600MOL0     H80993   8.728  10.934  10.377 -1.2430 -1.5175  0.8337
  600MOL0     H80994   8.545  10.786  10.304 -1.6941  4.3981 -2.0013
  600MOL0     H80995   8.660  10.690  10.208  0.9615  1.2910 -0.9954
  600MOL0     H80996   8.539  10.838  10.057 -0.0781  0.9808 -1.3680
  600MOL0     H80997   8.704  10.879  10.077 -0.5740 -0.4222  0.3533
  600MOL0     H80998   8.568  11.240  10.197  1.3225 -0.4777  1.8249
  600MOL0     H80999   8.876  10.505  10.513 -0.0334 -0.7737  0.5002
  600MOL0     H81000   8.889  10.319  10.673  0.6843  1.7655  0.6344
  601MOL0     O81001   4.721   0.751   5.081  0.5419  0.4676  0.1524
  601MOL0     C81002   4.654   0.742   5.181 -0.1541 -0.0897  0.7453
  601MOL0     O81003   4.515   0.722   5.176  0.0818 -0.4517 -1.1394
  601MOL0     C81004   4.461   0.693   5.059  0.0087  0.1556 -0.2540
  601MOL0     C81005   4.492   0.572   4.991  0.2387  0.5765 -0.7635
  601MOL0     C81006   4.433   0.547   4.872 -0.2484  0.4862 -0.9151
  601MOL0     C81007   4.341   0.636   4.809  0.0413  0.0099 -0.0753
  601MOL0     O81008   4.287   0.601   4.693  0.3447  0.1902  0.2790
  601MOL0     C81009   4.318   0.686   4.577 -0.1034  0.5831 -0.0238
  601MOL0     C81010   4.410   0.615   4.476 -0.2568  0.0820 -1.0798
  601MOL0     C81011   4.343   0.506   4.402  0.7013  0.7395 -0.2688
  601MOL0     C81012   4.420   0.444   4.282 -0.9419 -0.2357 -0.5658
  601MOL0     C81013   4.333   0.365   4.188  0.8335  1.0201 -0.7888
  601MOL0     C81014   4.411   0.306   4.066  0.6850 -0.5268 -0.3486
  601MOL0     C81015   4.427   0.418   3.957 -0.8595  0.9248  0.3960
  601MOL0     C81016   4.512   0.374   3.831  0.7264  0.0199 -0.4181
  601MOL0     N81017   4.443   0.363   3.699 -0.5310  0.3525 -0.3685
  601MOL0     C81018   4.335   0.288   3.662 -0.0107 -0.0296 -0.3514
  601MOL0     C81019   4.324   0.292   3.532  0.2088 -0.1574  0.2284
  601MOL0     C81020   4.206   0.236   3.460 -0.3873  0.1921  0.3241
  601MOL0     C81021   4.239   0.178   3.323  0.2579  1.1434  0.2393
  601MOL0     C81022   4.320   0.052   3.319 -0.8515 -0.4468  0.1390
  601MOL0     C81023   4.458   0.048   3.389 -0.0738 -0.5058  0.5391
  601MOL0     O81024   4.551   0.139   3.330  0.2328  0.3415  0.1075
  601MOL0     C81025   4.684   0.117   3.346 -0.0171 -0.2441  0.4894
  601MOL0     C81026   4.749   0.008   3.404  0.1731 -0.1210  0.2296
  601MOL0     C81027   4.893  -0.002   3.406  0.6343 -0.0478 -0.0834
  601MOL0     C81028   4.951  -0.131   3.467  0.2830  0.5411 -0.4917
  601MOL0     C81029   4.973   0.099   3.353  0.8507  0.7509  0.0745
  601MOL0     C81030   5.116   0.103   3.347  0.2779  0.0006  0.1855
  601MOL0     O81031   5.167   0.224   3.316 -0.0168  0.0892  0.0778
  601MOL0     C81032   5.307   0.238   3.296 -0.3692 -0.1295  0.0535
  601MOL0     C81033   5.412   0.153   3.269  0.1248  0.1583  0.6877
  601MOL0     C81034   5.553   0.188   3.266  0.7669  0.2556  0.0157
  601MOL0     C81035   5.581   0.328   3.277  0.3779  0.0020  0.4109
  601MOL0     O81036   5.707   0.375   3.248  0.3069  0.5102 -0.5448
  601MOL0     C81037   5.833   0.298   3.278 -0.5967 -0.4940  0.7659
  601MOL0     C81038   5.958   0.386   3.267 -0.0605  0.3072  0.7973
  601MOL0     C81039   5.992   0.436   3.122 -0.0951  0.0335 -0.0832
  601MOL0     C81040   5.941   0.574   3.095 -0.0714  0.2916 -0.1252
  601MOL0     C81041   6.040   0.683   3.130  0.1251 -0.3446  0.0438
  601MOL0     C81042   5.974   0.818   3.139  0.3737  0.3885 -0.1321
  601MOL0     C81043   6.059   0.942   3.160 -0.4396 -0.2531  0.3016
  601MOL0     C81044   6.179   0.922   3.251  0.0620  0.1408 -0.6348
  601MOL0    Cl81045   6.131   0.877   3.417  0.2319 -0.4647  0.1847
  601MOL0     C81046   5.475   0.419   3.286 -0.4832 -0.1981 -0.0156
  601MOL0     C81047   5.340   0.374   3.295  0.1871  0.0697 -0.0916
  601MOL0     O81048   5.171  -0.010   3.347  0.2318  0.2552 -0.7516
  601MOL0     C81049   4.896   0.205   3.293 -0.3506  0.4507 -0.3239
  601MOL0     C81050   4.758   0.220   3.293 -1.1320 -0.3214  0.0632
  601MOL0     N81051   4.428   0.368   3.480 -0.3574 -0.4849 -0.3920
  601MOL0     N81052   4.487   0.422   3.588 -0.8117 -0.0704  0.2264
  601MOL0     C81053   4.303   0.751   4.871  0.4115  0.0138 -1.3072
  601MOL0     C81054   4.372   0.786   4.998  0.2063  0.1886  1.4043
  601MOL0     C81055   4.721   0.766   5.309  0.6289  0.4068 -0.2823
  601MOL0     C81056   4.641   0.814   5.416 -0.7654 -0.0534  1.0615
  601MOL0     C81057   4.703   0.856   5.536 -0.6079  0.4048  0.6742
  601MOL0     C81058   4.843   0.853   5.552 -0.1185 -0.4906  0.0472
  601MOL0     O81059   4.909   0.896   5.660  0.4999  0.1308 -0.6759
  601MOL0     C81060   4.845   0.967   5.776  0.0059  0.1563 -0.7201
  601MOL0     C81061   4.949   1.069   5.820  0.2552 -1.0064 -0.0480
  601MOL0     C81062   4.926   1.206   5.738  0.3597 -0.0083  0.1486
  601MOL0     C81063   4.934   1.200   5.581  0.4741 -0.1034 -0.1072
  601MOL0     C81064   5.053   1.137   5.539 -0.7480  0.4344  0.1393
  601MOL0     C81065   5.166   1.089   5.512 -0.9859  0.9982  0.5377
  601MOL0     C81066   4.913   0.809   5.448 -0.1374 -0.3393  0.0376
  601MOL0     C81067   4.857   0.764   5.328 -1.0392 -0.5569 -0.4078
  601MOL0     H81068   4.572   0.510   5.032 -0.4504  0.6268  0.7148
  601MOL0     H81069   4.459   0.458   4.817  3.5385 -0.3525  1.8133
  601MOL0     H81070   4.225   0.705   4.522 -0.5371  1.1703  0.8720
  601MOL0     H81071   4.339   0.788   4.612 -0.5559 -0.1248  2.5722
  601MOL0     H81072   4.433   0.694   4.405  0.2110  2.1669  1.2516
  601MOL0     H81073   4.492   0.564   4.529 -0.0645  1.1854 -0.2828
  601MOL0     H81074   4.308   0.425   4.467 -0.0495  1.1047 -0.2128
  601MOL0     H81075   4.246   0.537   4.363  0.0842 -2.7590 -2.0288
  601MOL0     H81076   4.455   0.530   4.223  1.0301 -1.1688 -0.8261
  601MOL0     H81077   4.501   0.390   4.331  0.6559  0.5115 -2.2756
  601MOL0     H81078   4.300   0.282   4.251  0.1395  2.4561  0.8448
  601MOL0     H81079   4.245   0.422   4.156  0.0632 -0.7319 -1.9481
  601MOL0     H81080   4.512   0.277   4.098  0.1442  0.3654  2.4086
  601MOL0     H81081   4.351   0.219   4.036 -3.8232  0.3757  4.5745
  601MOL0     H81082   4.329   0.450   3.921 -1.3176 -0.2383  0.5930
  601MOL0     H81083   4.471   0.508   4.002  0.9510 -0.1490  0.8693
  601MOL0     H81084   4.557   0.275   3.846  0.4013  0.2413  2.3834
  601MOL0     H81085   4.604   0.431   3.815  2.6766 -3.4193 -3.0224
  601MOL0     H81086   4.262   0.246   3.730  0.3305  3.8985  2.8242
  601MOL0     H81087   4.174   0.152   3.523  2.7938 -1.5940 -0.1845
  601MOL0     H81088   4.126   0.310   3.462  1.1639  1.9612 -0.7992
  601MOL0     H81089   4.298   0.254   3.271 -0.5738  1.7552  0.1752
  601MOL0     H81090   4.153   0.150   3.262  2.3678 -3.3578 -1.1326
  601MOL0     H81091   4.347   0.039   3.214 -0.4577 -0.8068  0.2829
  601MOL0     H81092   4.252  -0.027   3.351 -1.0715 -0.2890  0.0666
  601MOL0     H81093   4.491  -0.054   3.370  1.6530  0.5007 -2.4802
  601MOL0     H81094   4.452   0.073   3.495  0.7132  0.5031  0.3607
  601MOL0     H81095   4.710  -0.076   3.461  1.4434 -1.8919 -1.3794
  601MOL0     H81096   5.044  -0.103   3.517  1.1738  0.9466 -2.3146
  601MOL0     H81097   4.896  -0.169   3.554 -1.2695 -2.3078 -2.5407
  601MOL0     H81098   4.965  -0.207   3.390 -3.9289 -2.2773  1.1082
  601MOL0     H81099   5.390   0.047   3.271 -0.4875  0.2512 -0.3759
  601MOL0     H81100   5.626   0.108   3.255 -0.0496 -0.8782  2.0819
  601MOL0     H81101   5.818   0.248   3.375 -3.4501  1.3862  1.3896
  601MOL0     H81102   5.839   0.219   3.202  0.8314 -0.2884  0.6312
  601MOL0     H81103   5.940   0.469   3.337 -1.4441  1.9013 -1.3280
  601MOL0     H81104   6.049   0.335   3.300  2.3749  2.1249 -2.4949
  601MOL0     H81105   5.943   0.374   3.046 -1.0379 -0.1718  0.6723
  601MOL0     H81106   6.100   0.437   3.103 -0.5123 -0.3917 -2.7547
  601MOL0     H81107   5.916   0.579   2.989 -0.5644 -0.2354 -0.0343
  601MOL0     H81108   5.843   0.593   3.139  0.4972  1.4769  0.7094
  601MOL0     H81109   6.113   0.692   3.049 -1.2814  1.7437 -1.1114
  601MOL0     H81110   6.090   0.655   3.223  0.9118  0.7936 -0.0208
  601MOL0     H81111   5.904   0.840   3.057 -0.6678  0.1475  0.6627
  601MOL0     H81112   5.916   0.812   3.231  1.6714  1.5190  0.7942
  601MOL0     H81113   6.003   1.023   3.206 -0.1208  0.7237 -0.9697
  601MOL0     H81114   6.095   0.981   3.064  0.9909 -1.7173  0.1945
  601MOL0     H81115   6.242   1.012   3.253  0.1089  0.1657  3.1943
  601MOL0     H81116   6.245   0.843   3.214  2.7109  0.9212  1.9564
  601MOL0     H81117   5.500   0.524   3.299  1.4275 -0.5931 -0.2082
  601MOL0     H81118   5.266   0.455   3.296  1.1136  0.9313  0.4533
  601MOL0     H81119   4.946   0.282   3.236 -0.0427  0.2385 -0.3413
  601MOL0     H81120   4.707   0.308   3.254  1.3599 -0.1455 -3.1881
  601MOL0     H81121   4.235   0.822   4.826  0.2480  0.4994 -0.3245
  601MOL0     H81122   4.363   0.882   5.047  2.2710  0.1341  2.0039
  601MOL0     H81123   4.533   0.819   5.409 -0.7618  0.5749  1.4456
  601MOL0     H81124   4.640   0.886   5.619 -0.6197 -0.5906  1.0343
  601MOL0     H81125   4.749   1.015   5.759 -0.6407 -1.5002 -2.0014
  601MOL0     H81126   4.815   0.892   5.851  1.3980 -0.9266 -1.2085
  601MOL0     H81127   5.049   1.026   5.809  0.8014  0.3256 -0.5130
  601MOL0     H81128   4.937   1.075   5.928  0.3704  1.2635 -0.1163
  601MOL0     H81129   5.002   1.273   5.780 -1.9192  0.6060  3.7708
  601MOL0     H81130   4.827   1.242   5.764 -0.5901 -1.9883 -0.4824
  601MOL0     H81131   4.916   1.304   5.551  0.5641 -0.1499 -0.3213
  601MOL0     H81132   4.847   1.143   5.546 -0.4284  2.2086 -1.9134
  601MOL0     H81133   5.264   1.051   5.491 -1.0462  1.1319  0.0070
  601MOL0     H81134   5.020   0.816   5.462 -0.0636  0.4565 -0.8131
  601MOL0     H81135   4.922   0.756   5.242  1.1302 -1.4105  1.2197
  602MOL0     O81136   4.398   6.584   5.667  0.2284 -0.6118  0.0418
  602MOL0     C81137   4.449   6.660   5.745 -0.6098  0.5408  0.6613
  602MOL0     O81138   4.420   6.789   5.758 -0.7352  0.2481 -0.4380
  602MOL0     C81139   4.341   6.855   5.662  0.9490  0.7516  0.6208
  602MOL0     C81140   4.398   6.877   5.530 -0.4983 -1.2101  1.5145
  602MOL0     C81141   4.325   6.945   5.434 -0.7944  0.6113  0.4454
  602MOL0     C81142   4.209   7.002   5.463 -0.7829  0.0787 -0.6221
  602MOL0     O81143   4.165   7.084   5.363  0.5960 -0.0950  0.7117
  602MOL0     C81144   4.117   7.222   5.375 -0.2950  0.3437 -0.5877
  602MOL0     C81145   4.202   7.301   5.281  0.8802  0.0182  0.0277
  602MOL0     C81146   4.161   7.450   5.293  0.1300 -0.8515 -0.7775
  602MOL0     C81147   4.243   7.533   5.199  0.3769 -1.0199  0.1891
  602MOL0     C81148   4.215   7.685   5.214  0.0155  0.1140 -0.4334
  602MOL0     C81149   4.076   7.727   5.166 -0.0927  0.2949 -0.2222
  602MOL0     C81150   4.059   7.886   5.182  0.4274  0.2879  0.7429
  602MOL0     C81151   3.903   7.900   5.178  0.5120 -1.3927 -0.0247
  602MOL0     N81152   3.818   7.812   5.100  0.0084  0.7951 -0.3351
  602MOL0     C81153   3.819   7.811   4.954 -1.8397 -0.1351 -0.0898
  602MOL0     C81154   3.747   7.699   4.921  0.4721 -0.6466 -0.2645
  602MOL0     C81155   3.712   7.660   4.775 -0.8576  0.1650 -0.9704
  602MOL0     C81156   3.578   7.721   4.717 -0.3930  0.7987  0.2270
  602MOL0     C81157   3.567   7.649   4.582  0.3250 -0.0094  1.0944
  602MOL0     C81158   3.681   7.675   4.483 -0.3517 -0.5272  0.2110
  602MOL0     O81159   3.712   7.809   4.453  0.4187 -0.0877 -0.1490
  602MOL0     C81160   3.781   7.831   4.340  0.4474  0.5036 -0.3606
  602MOL0     C81161   3.885   7.747   4.295  0.4297 -0.3271 -0.5951
  602MOL0     C81162   3.956   7.776   4.177 -0.2129  0.7919  0.4681
  602MOL0     C81163   4.063   7.677   4.153 -0.0926  0.5914  0.5342
  602MOL0     C81164   3.924   7.886   4.094 -0.8383 -0.0737 -0.4494
  602MOL0     C81165   3.993   7.905   3.962  0.6801  0.1071  0.2254
  602MOL0     O81166   3.955   8.021   3.899  0.4444 -0.2633  0.6720
  602MOL0     C81167   3.993   8.029   3.766  0.0972  0.2678  1.0420
  602MOL0     C81168   4.059   8.145   3.722 -0.6571  0.4572 -1.3595
  602MOL0     C81169   4.084   8.163   3.584 -0.1806  0.2615  0.5562
  602MOL0     C81170   4.063   8.058   3.491  0.4529  0.1095  0.8602
  602MOL0     O81171   4.074   8.075   3.355 -0.0116  0.0636  0.1800
  602MOL0     C81172   4.155   8.171   3.295 -0.4119 -0.2727  0.5074
  602MOL0     C81173   4.174   8.143   3.148 -0.5806  0.4147 -0.5792
  602MOL0     C81174   4.224   8.004   3.115 -0.2750 -0.1538 -0.2164
  602MOL0     C81175   4.283   7.998   2.971  1.1353  0.0124 -0.0990
  602MOL0     C81176   4.342   7.852   2.946 -0.3016  0.1188 -0.0413
  602MOL0     C81177   4.417   7.851   2.818  1.1267  0.3937  0.5300
  602MOL0     C81178   4.492   7.716   2.801  0.0684 -0.5687 -0.6450
  602MOL0     C81179   4.415   7.617   2.722  1.2603 -0.5864 -0.4518
  602MOL0    Cl81180   4.533   7.483   2.691 -0.4514 -0.6187  0.2120
  602MOL0     C81181   4.003   7.939   3.532  0.0585  0.4442 -0.7214
  602MOL0     C81182   3.974   7.925   3.672 -0.2201 -0.3149  0.2307
  602MOL0     O81183   4.088   7.833   3.929  0.0017 -0.8066  0.1631
  602MOL0     C81184   3.828   7.974   4.145 -0.0437  0.1862 -0.3787
  602MOL0     C81185   3.753   7.946   4.265  0.0837  0.1521 -0.5370
  602MOL0     N81186   3.708   7.633   5.031 -1.4598  0.2413  0.4897
  602MOL0     N81187   3.747   7.701   5.132  0.0192 -0.8668 -0.4793
  602MOL0     C81188   4.148   6.985   5.591  0.3553  0.1761 -0.0002
  602MOL0     C81189   4.210   6.901   5.685  0.5209 -0.6141  0.0327
  602MOL0     C81190   4.527   6.587   5.847  0.0319 -0.3365  0.7531
  602MOL0     C81191   4.525   6.450   5.870 -0.3139  1.1035  0.8688
  602MOL0     C81192   4.614   6.398   5.961  0.5731  0.2701  0.5423
  602MOL0     C81193   4.706   6.468   6.040 -0.0287  1.2287  0.0469
  602MOL0     O81194   4.802   6.421   6.132  0.4721 -0.3807 -0.2683
  602MOL0     C81195   4.830   6.287   6.138  0.2973  0.7608 -0.1858
  602MOL0     C81196   4.733   6.225   6.240  0.4664 -0.6692 -0.1571
  602MOL0     C81197   4.740   6.074   6.242 -0.5372  0.0302  0.3391
  602MOL0     C81198   4.713   6.031   6.380  0.1411 -0.2114  0.2666
  602MOL0     C81199   4.584   6.066   6.428  0.4655  0.5983  0.3830
  602MOL0     C81200   4.473   6.102   6.455  1.0225  0.4663  0.1387
  602MOL0     C81201   4.693   6.605   6.021 -0.3370  0.2506  0.3576
  602MOL0     C81202   4.618   6.662   5.919  0.6526 -0.0936 -0.4908
  602MOL0     H81203   4.490   6.824   5.506  0.7715 -0.4291  4.3005
  602MOL0     H81204   4.365   6.954   5.333  1.2277  0.8892  1.2236
  602MOL0     H81205   4.013   7.244   5.351 -0.4967 -0.0331 -0.0638
  602MOL0     H81206   4.145   7.257   5.475  1.9753  0.5299 -1.2183
  602MOL0     H81207   4.306   7.296   5.316  0.5255 -1.3369  0.9579
  602MOL0     H81208   4.190   7.255   5.182  1.9882 -3.6217  1.3975
  602MOL0     H81209   4.054   7.468   5.277  0.4306  1.8541 -0.1674
  602MOL0     H81210   4.190   7.486   5.392 -0.7290 -1.6159 -0.2324
  602MOL0     H81211   4.349   7.509   5.215  0.4737  0.2523  1.6956
  602MOL0     H81212   4.225   7.506   5.095 -1.0045  0.7567 -0.0821
  602MOL0     H81213   4.232   7.710   5.319  1.1472 -1.8456 -0.0986
  602MOL0     H81214   4.283   7.741   5.149  0.8272  0.1576  0.4227
  602MOL0     H81215   4.070   7.700   5.060 -1.9962  3.0438 -0.9172
  602MOL0     H81216   4.014   7.677   5.241 -0.4374  0.5686 -0.3193
  602MOL0     H81217   4.102   7.915   5.278  0.6631 -5.3668  2.7172
  602MOL0     H81218   4.092   7.942   5.095  0.2796 -2.7302 -1.4275
  602MOL0     H81219   3.877   8.000   5.141 -1.1518 -1.6257  0.4249
  602MOL0     H81220   3.878   7.894   5.284  1.7449 -1.0537  0.3052
  602MOL0     H81221   3.866   7.875   4.880 -0.5877 -0.9315 -0.0130
  602MOL0     H81222   3.795   7.701   4.717 -0.2741 -2.2656 -1.9689
  602MOL0     H81223   3.730   7.552   4.764 -1.1391 -0.1351  1.1029
  602MOL0     H81224   3.590   7.828   4.696 -0.7751  0.3263 -2.8589
  602MOL0     H81225   3.494   7.700   4.784 -0.8829  4.6098  1.0334
  602MOL0     H81226   3.482   7.686   4.524  1.0049 -2.5985 -1.8123
  602MOL0     H81227   3.560   7.541   4.598  1.5548 -0.5496 -1.4847
  602MOL0     H81228   3.661   7.620   4.390  2.4956 -1.0098 -0.1989
  602MOL0     H81229   3.774   7.633   4.522 -0.3794 -0.5864  0.2130
  602MOL0     H81230   3.919   7.669   4.364  0.8935  2.2523  2.3099
  602MOL0     H81231   4.051   7.632   4.054 -1.6501 -3.7844  2.4940
  602MOL0     H81232   4.163   7.719   4.166  0.5152 -0.4059 -0.6714
  602MOL0     H81233   4.056   7.585   4.211 -0.7997  0.6989  0.6285
  602MOL0     H81234   4.073   8.224   3.795 -0.2158 -0.0466 -0.8925
  602MOL0     H81235   4.107   8.260   3.541  1.2944  1.0114  2.8667
  602MOL0     H81236   4.117   8.272   3.314 -1.4134 -1.2488  4.9095
  602MOL0     H81237   4.254   8.174   3.342 -0.5118 -1.5096  0.8383
  602MOL0     H81238   4.082   8.169   3.096  1.0103  3.8857 -1.9599
  602MOL0     H81239   4.244   8.219   3.109  2.2522 -1.7937 -0.1460
  602MOL0     H81240   4.150   7.924   3.106  0.0043 -0.3380 -0.9723
  602MOL0     H81241   4.295   7.967   3.190  0.3603 -1.7622 -1.5535
  602MOL0     H81242   4.215   8.030   2.891  2.0391  0.8121 -0.5581
  602MOL0     H81243   4.359   8.075   2.956 -2.5779  4.1191  0.0405
  602MOL0     H81244   4.249   7.796   2.942 -0.6337  0.6163  0.4820
  602MOL0     H81245   4.406   7.821   3.029 -0.8217 -1.6928 -0.2921
  602MOL0     H81246   4.343   7.862   2.738 -0.5016 -0.3982  1.8620
  602MOL0     H81247   4.495   7.928   2.814  0.9628  0.5384 -2.8115
  602MOL0     H81248   4.525   7.674   2.896 -2.1860 -2.7468 -0.7143
  602MOL0     H81249   4.583   7.738   2.744  1.3627 -1.2733  1.0569
  602MOL0     H81250   4.390   7.665   2.627 -0.7995  1.0206  0.7939
  602MOL0     H81251   4.320   7.583   2.765  0.9549  0.6019 -0.1373
  602MOL0     H81252   3.978   7.849   3.477  0.1654  0.1754 -0.3366
  602MOL0     H81253   3.938   7.827   3.699 -2.9147  0.5903  0.2218
  602MOL0     H81254   3.799   8.071   4.106 -0.4915  0.2052 -0.0001
  602MOL0     H81255   3.693   8.026   4.306 -0.0468 -1.0870  1.8207
  602MOL0     H81256   4.066   7.049   5.623 -0.0119 -0.8846  1.2483
  602MOL0     H81257   4.166   6.890   5.783 -0.5654 -1.1482 -0.5008
  602MOL0     H81258   4.457   6.383   5.818  2.3040 -2.2336  1.3530
  602MOL0     H81259   4.636   6.292   5.950 -0.9582  0.1455 -2.5442
  602MOL0     H81260   4.813   6.248   6.037 -3.8220  0.9322  0.2497
  602MOL0     H81261   4.932   6.273   6.175  0.3195 -2.1419 -1.1350
  602MOL0     H81262   4.633   6.254   6.205  1.2179 -1.1594 -2.9360
  602MOL0     H81263   4.760   6.252   6.343 -2.1301 -3.3291  1.3817
  602MOL0     H81264   4.844   6.044   6.226 -0.3540  1.5101 -1.5248
  602MOL0     H81265   4.673   6.034   6.166 -1.8150 -0.0797  1.4809
  602MOL0     H81266   4.792   6.073   6.443 -0.1318  3.3771 -1.5247
  602MOL0     H81267   4.726   5.923   6.386  0.7248 -0.1844 -0.4207
  602MOL0     H81268   4.382   6.140   6.497  0.3506 -2.8679  2.0804
  602MOL0     H81269   4.763   6.669   6.075  0.5248  0.2220 -0.6869
  602MOL0     H81270   4.639   6.766   5.899  0.2462  0.7156  2.7810
  603MOL0     O81271   4.068   3.317   7.755  0.4753 -0.4747  0.4972
  603MOL0     C81272   3.948   3.346   7.748  0.5032  0.5298 -0.8495
  603MOL0     O81273   3.891   3.429   7.666 -0.1099  0.3022  0.0840
  603MOL0     C81274   3.947   3.457   7.547 -0.6556 -0.8787 -0.0881
  603MOL0     C81275   3.931   3.589   7.502  0.3527 -0.5912 -0.0294
  603MOL0     C81276   4.000   3.640   7.391  0.1985 -0.1539 -0.4421
  603MOL0     C81277   4.074   3.556   7.319  0.5863 -0.1589  0.1861
  603MOL0     O81278   4.143   3.587   7.191  0.2642  0.2322  0.7137
  603MOL0     C81279   4.133   3.719   7.126  0.2648  0.2893 -1.2720
  603MOL0     C81280   4.161   3.711   6.980 -0.6070 -0.0133 -0.1527
  603MOL0     C81281   4.053   3.643   6.896  0.1309 -0.5147  0.6480
  603MOL0     C81282   3.925   3.735   6.883 -0.3149 -0.1213  0.3037
  603MOL0     C81283   3.875   3.730   6.738  0.6492 -0.4821 -0.2255
  603MOL0     C81284   3.769   3.623   6.698  0.4352 -0.2508 -0.8190
  603MOL0     C81285   3.821   3.485   6.720  0.3663 -0.3599  0.6296
  603MOL0     C81286   3.744   3.384   6.650  0.3520  0.0034  1.3317
  603MOL0     N81287   3.610   3.391   6.698 -0.3699  0.2444 -0.1430
  603MOL0     C81288   3.573   3.361   6.831 -0.6624 -0.2695 -0.1207
  603MOL0     C81289   3.448   3.395   6.836  0.3687 -1.2510 -1.0261
  603MOL0     C81290   3.371   3.428   6.959  0.1669 -0.5439 -0.0582
  603MOL0     C81291   3.278   3.546   6.952  1.0132  0.8452 -0.9023
  603MOL0     C81292   3.212   3.554   7.090 -0.0315  0.0146 -0.0752
  603MOL0     C81293   3.164   3.703   7.108 -0.1099  1.6126 -0.6179
  603MOL0     O81294   3.083   3.760   7.001  0.0674  0.6798  0.2382
  603MOL0     C81295   2.990   3.854   7.040 -0.2731  0.5452 -0.6072
  603MOL0     C81296   2.957   3.951   6.942  0.5126 -0.4862 -0.0576
  603MOL0     C81297   2.852   4.051   6.963  0.8516  0.5835  0.0341
  603MOL0     C81298   2.817   4.153   6.856  0.0949  0.1371 -0.4797
  603MOL0     C81299   2.789   4.037   7.090 -0.0957 -0.8580  0.4179
  603MOL0     C81300   2.677   4.121   7.123  0.0659 -0.0408 -0.3578
  603MOL0     O81301   2.568   4.051   7.173 -0.3563 -0.1445 -0.1866
  603MOL0     C81302   2.442   4.098   7.189 -0.3387  0.6502  0.5701
  603MOL0     C81303   2.414   4.232   7.224  0.4688  1.2362 -1.2000
  603MOL0     C81304   2.281   4.278   7.228  0.3684  0.3233  0.2894
  603MOL0     C81305   2.179   4.181   7.197 -0.3211  0.1574  0.4046
  603MOL0     O81306   2.042   4.215   7.176  0.0703 -0.2124 -0.1684
  603MOL0     C81307   1.993   4.348   7.223  0.4155  0.0141 -0.2079
  603MOL0     C81308   1.952   4.354   7.371  0.6929  0.3965 -0.3424
  603MOL0     C81309   2.053   4.316   7.483 -0.8331 -0.2573  0.2110
  603MOL0     C81310   1.993   4.270   7.621  0.1774 -0.4105  0.8397
  603MOL0     C81311   1.931   4.128   7.616  0.2810 -0.7488  0.6659
  603MOL0     C81312   1.860   4.112   7.747  0.1001  0.3821  1.1693
  603MOL0     C81313   1.795   3.971   7.736 -0.3044 -0.5519  0.3114
  603MOL0     C81314   1.752   3.913   7.875  0.3398 -0.8522  1.2259
  603MOL0    Cl81315   1.647   3.777   7.856 -0.0800  0.3426  0.6120
  603MOL0     C81316   2.212   4.049   7.168 -0.1814 -0.0265  0.2546
  603MOL0     C81317   2.347   4.007   7.162 -0.2175 -0.1916 -0.0025
  603MOL0     O81318   2.685   4.244   7.110 -0.0154  1.2700  0.4436
  603MOL0     C81319   2.828   3.953   7.190  0.4771 -0.4170  0.0333
  603MOL0     C81320   2.925   3.872   7.165  0.0337  0.6883  0.6013
  603MOL0     N81321   3.408   3.446   6.717  0.4658  0.1646  0.2725
  603MOL0     N81322   3.502   3.427   6.631  0.7823  0.5469  0.2237
  603MOL0     C81323   4.101   3.430   7.371 -0.7439  0.5512 -0.2521
  603MOL0     C81324   4.038   3.378   7.482  0.1773 -0.3163  0.1440
  603MOL0     C81325   3.866   3.320   7.872 -0.4709  0.0166 -0.9651
  603MOL0     C81326   3.912   3.259   7.988 -0.4638 -0.0717 -0.8709
  603MOL0     C81327   3.833   3.253   8.109  0.6003  0.0201 -0.5581
  603MOL0     C81328   3.698   3.303   8.105 -0.4896  0.4932  0.0511
  603MOL0     O81329   3.625   3.315   8.222 -0.5467  0.0549 -0.1524
  603MOL0     C81330   3.676   3.270   8.347 -0.0367  0.4718 -0.3757
  603MOL0     C81331   3.561   3.277   8.451  0.9265  0.4869  0.2929
  603MOL0     C81332   3.622   3.277   8.587 -0.0201 -0.5449 -0.1674
  603MOL0     C81333   3.659   3.133   8.642 -0.0524  0.4109  0.5582
  603MOL0     C81334   3.774   3.134   8.731  1.1080  1.0040  0.6888
  603MOL0     C81335   3.853   3.113   8.830  1.3224 -0.2832 -0.2261
  603MOL0     C81336   3.648   3.351   7.990  0.2331  0.2731 -0.3322
  603MOL0     C81337   3.730   3.362   7.879 -0.3293 -0.5814  0.8340
  603MOL0     H81338   3.862   3.644   7.566  0.6106 -2.6660  2.1772
  603MOL0     H81339   3.974   3.742   7.365 -1.2890 -0.5607 -0.6452
  603MOL0     H81340   4.042   3.773   7.153 -0.0187  0.1804 -1.9756
  603MOL0     H81341   4.210   3.773   7.181 -1.0366  0.0486  0.9435
  603MOL0     H81342   4.191   3.807   6.936 -2.1682  0.3193 -0.5829
  603MOL0     H81343   4.257   3.659   6.973  2.2838  4.7004 -0.0118
  603MOL0     H81344   4.091   3.614   6.798 -0.3053  0.5671  0.1375
  603MOL0     H81345   4.025   3.555   6.954 -2.5607 -1.3991 -1.7824
  603MOL0     H81346   3.841   3.710   6.948 -0.4427 -0.0021  0.1842
  603MOL0     H81347   3.947   3.842   6.894  1.3249 -0.2354 -1.3481
  603MOL0     H81348   3.834   3.827   6.708  0.2810 -0.4413  0.3900
  603MOL0     H81349   3.952   3.707   6.664 -1.6552 -2.6587 -2.1583
  603MOL0     H81350   3.679   3.630   6.759  0.3796  0.4463 -0.9740
  603MOL0     H81351   3.740   3.637   6.593  0.6529 -0.8537 -0.9661
  603MOL0     H81352   3.923   3.475   6.682  0.3479  1.1098  0.1542
  603MOL0     H81353   3.826   3.468   6.828  0.4353 -0.7805  0.5629
  603MOL0     H81354   3.795   3.287   6.658 -1.3524 -1.0577  0.1547
  603MOL0     H81355   3.740   3.416   6.546 -1.0745 -0.4941  1.2007
  603MOL0     H81356   3.645   3.345   6.910  1.4127  1.3318 -1.5650
  603MOL0     H81357   3.314   3.340   6.988  3.7199 -3.6677 -1.7319
  603MOL0     H81358   3.448   3.455   7.031 -2.5888 -1.1828  3.4076
  603MOL0     H81359   3.190   3.515   6.895  0.0414 -0.9427  1.3945
  603MOL0     H81360   3.323   3.637   6.912 -0.7953  2.1350 -0.1943
  603MOL0     H81361   3.291   3.532   7.163  1.4085  0.8711 -1.3091
  603MOL0     H81362   3.125   3.492   7.114 -1.2442  2.1744  1.5064
  603MOL0     H81363   3.256   3.759   7.132  0.8124 -0.7909  2.0917
  603MOL0     H81364   3.109   3.699   7.203  1.1182 -0.1632  0.0753
  603MOL0     H81365   3.023   3.949   6.856  1.5374  2.3624  0.5465
  603MOL0     H81366   2.907   4.148   6.793  0.8642 -1.5313  0.6907
  603MOL0     H81367   2.731   4.144   6.790  1.9128 -0.9947 -2.8321
  603MOL0     H81368   2.818   4.255   6.897 -2.7144  0.0453 -0.0327
  603MOL0     H81369   2.488   4.305   7.254 -0.0465  2.4613 -2.7330
  603MOL0     H81370   2.263   4.383   7.248  0.9110  0.9894 -2.3945
  603MOL0     H81371   2.062   4.430   7.200 -0.0130  1.0385  1.8428
  603MOL0     H81372   1.904   4.367   7.163  0.3788 -0.8203 -0.4315
  603MOL0     H81373   1.924   4.459   7.384  0.1072  0.1109  0.8630
  603MOL0     H81374   1.865   4.287   7.377  2.3607 -2.0106 -1.1902
  603MOL0     H81375   2.121   4.401   7.494 -2.1178  0.6539  1.4447
  603MOL0     H81376   2.111   4.230   7.447  0.7444  0.3037  1.2951
  603MOL0     H81377   2.071   4.270   7.697  0.1239 -1.4712  0.9051
  603MOL0     H81378   1.915   4.341   7.649  2.8919  2.7664  1.0131
  603MOL0     H81379   2.015   4.058   7.610  0.0928 -0.9105 -0.1742
  603MOL0     H81380   1.867   4.123   7.527  0.4555  1.4084  0.3611
  603MOL0     H81381   1.942   4.106   7.818  2.9443  0.1991 -1.9082
  603MOL0     H81382   1.797   4.199   7.769  0.8500  0.7831  1.7655
  603MOL0     H81383   1.873   3.910   7.690 -1.0573 -1.2752 -0.0164
  603MOL0     H81384   1.707   3.973   7.672  0.2226  2.8317 -0.4919
  603MOL0     H81385   1.687   3.991   7.916  1.2987  1.7020 -1.7412
  603MOL0     H81386   1.829   3.894   7.950 -0.5921 -0.7478  2.2441
  603MOL0     H81387   2.135   3.981   7.133 -0.5379 -0.0101  0.9873
  603MOL0     H81388   2.366   3.904   7.133  1.6015 -0.3186  1.4626
  603MOL0     H81389   2.766   3.955   7.279 -1.7641  0.2396 -1.4587
  603MOL0     H81390   2.949   3.801   7.243  0.9934 -1.3991 -1.4683
  603MOL0     H81391   4.161   3.359   7.315  0.0961  2.0926 -1.3677
  603MOL0     H81392   4.060   3.277   7.516 -2.1351 -1.6793 -2.1030
  603MOL0     H81393   4.010   3.214   8.000 -0.7543 -0.5982 -0.4182
  603MOL0     H81394   3.873   3.220   8.205 -0.7865  4.1455  1.6959
  603MOL0     H81395   3.710   3.169   8.322  1.8962  1.0902 -0.3835
  603MOL0     H81396   3.765   3.330   8.369  2.1786 -0.3946 -5.5228
  603MOL0     H81397   3.488   3.196   8.442  1.2649 -0.1227  2.4023
  603MOL0     H81398   3.509   3.372   8.438  1.8429  1.1037  1.0331
  603MOL0     H81399   3.549   3.311   8.661 -0.4532 -2.5628  0.3884
  603MOL0     H81400   3.703   3.350   8.595 -0.7915  0.8894 -3.6619
  603MOL0     H81401   3.673   3.067   8.556  1.0061  0.5257  0.6227
  603MOL0     H81402   3.577   3.089   8.699 -1.1163 -0.2054 -1.3787
  603MOL0     H81403   3.902   3.103   8.925 -1.3014 -0.7413  1.1780
  603MOL0     H81404   3.546   3.388   7.987  0.8605  2.2374  0.6229
  603MOL0     H81405   3.690   3.410   7.790  1.4192 -0.9065 -0.1674
  604MOL0     O81406   1.648   5.112   1.306 -0.6814 -0.5831 -0.3270
  604MOL0     C81407   1.758   5.051   1.286 -0.0785  0.5901 -0.2359
  604MOL0     O81408   1.834   4.995   1.387  0.5001  0.2786 -0.0157
  604MOL0     C81409   1.769   4.961   1.504 -0.3695 -0.0625 -0.5793
  604MOL0     C81410   1.790   5.040   1.625 -0.5706 -1.9164 -0.2672
  604MOL0     C81411   1.722   5.007   1.745  0.1731 -0.2883  0.6227
  604MOL0     C81412   1.633   4.897   1.760  1.2005  0.1593  0.4374
  604MOL0     O81413   1.563   4.856   1.873  0.1205 -0.2270  0.0842
  604MOL0     C81414   1.601   4.930   1.988 -0.2179  0.2589 -0.9304
  604MOL0     C81415   1.510   4.892   2.100 -0.2164  0.6028  0.1935
  604MOL0     C81416   1.570   4.916   2.238 -0.1312  0.7398  0.1654
  604MOL0     C81417   1.512   5.048   2.296  0.2470  0.7241 -0.0666
  604MOL0     C81418   1.522   5.055   2.449 -1.1770 -0.0611  0.8781
  604MOL0     C81419   1.449   5.173   2.511  0.5337  0.0550  0.4929
  604MOL0     C81420   1.459   5.180   2.660  0.0006  0.3531  0.5821
  604MOL0     C81421   1.395   5.056   2.728 -0.3011 -0.5020  0.1696
  604MOL0     N81422   1.421   5.076   2.871  0.2184  0.7530 -1.2653
  604MOL0     C81423   1.353   5.159   2.959 -0.4454  0.1762  0.4060
  604MOL0     C81424   1.421   5.135   3.076 -0.2782 -0.3479  0.9292
  604MOL0     C81425   1.379   5.190   3.210  0.2051 -0.4481  0.2733
  604MOL0     C81426   1.341   5.339   3.211 -0.5532 -0.2740 -0.8534
  604MOL0     C81427   1.276   5.386   3.327  0.1665  0.9215 -0.4142
  604MOL0     C81428   1.215   5.525   3.330  0.5731 -0.1539 -0.7698
  604MOL0     O81429   1.120   5.530   3.443  0.5027  0.2208  0.4473
  604MOL0     C81430   1.052   5.645   3.452  1.5562 -0.0601 -0.1338
  604MOL0     C81431   1.071   5.765   3.386 -0.3312  0.1696 -0.1410
  604MOL0     C81432   0.980   5.877   3.383  0.0596  0.3018  1.0282
  604MOL0     C81433   1.006   5.991   3.277  0.4054 -0.2252  0.2669
  604MOL0     C81434   0.871   5.872   3.477 -0.5571 -0.6831  0.3377
  604MOL0     C81435   0.773   5.968   3.499 -0.8416  0.6242 -0.2959
  604MOL0     O81436   0.647   5.916   3.524 -0.0437 -0.6232 -0.1957
  604MOL0     C81437   0.541   6.006   3.508 -0.5908  0.0340  0.3864
  604MOL0     C81438   0.532   6.150   3.526 -0.1798 -0.0708  0.3887
  604MOL0     C81439   0.418   6.221   3.489 -0.0177  0.5147  0.9110
  604MOL0     C81440   0.303   6.155   3.434  0.8082  0.2627  0.0505
  604MOL0     O81441   0.187   6.227   3.406 -0.5267  0.0793  1.1363
  604MOL0     C81442   0.191   6.372   3.393  0.9747  0.3560 -0.1147
  604MOL0     C81443   0.074   6.402   3.289  0.3255  0.3869 -0.5768
  604MOL0     C81444   0.035   6.546   3.294  0.0692  0.3380  0.9391
  604MOL0     C81445  -0.044   6.581   3.161  0.5661  0.1058 -0.2688
  604MOL0     C81446  -0.085   6.725   3.172  0.5490 -1.1011 -0.3462
  604MOL0     C81447  -0.107   6.790   3.032  0.1956 -0.0028  0.7571
  604MOL0     C81448  -0.236   6.745   2.963  0.5966  0.1846  0.5766
  604MOL0     C81449  -0.261   6.826   2.834 -0.6196 -0.0502  0.6895
  604MOL0    Cl81450  -0.286   6.999   2.861 -0.3865  0.3902 -0.0077
  604MOL0     C81451   0.308   6.021   3.412 -0.8081 -1.0521 -0.4429
  604MOL0     C81452   0.422   5.943   3.453 -0.1802 -0.0219 -0.3057
  604MOL0     O81453   0.812   6.086   3.492  0.9276  0.1128  0.5287
  604MOL0     C81454   0.865   5.762   3.570 -0.1587  0.1742 -0.6915
  604MOL0     C81455   0.948   5.649   3.550 -0.2605 -0.0844 -0.1050
  604MOL0     N81456   1.507   5.026   3.068  0.2856  0.5787  0.3875
  604MOL0     N81457   1.505   4.992   2.946 -0.2585  0.1589  0.0594
  604MOL0     C81458   1.621   4.823   1.648  0.1025  1.0768  0.1648
  604MOL0     C81459   1.685   4.849   1.524  0.5153 -0.8746 -0.2027
  604MOL0     C81460   1.801   5.045   1.141  0.0560 -0.0920 -0.1169
  604MOL0     C81461   1.867   4.937   1.092  0.4766  0.2134 -0.2565
  604MOL0     C81462   1.915   4.934   0.955 -0.1449 -0.5950  1.0081
  604MOL0     C81463   1.905   5.049   0.871  0.0420 -0.6658 -0.2519
  604MOL0     O81464   1.969   5.039   0.748 -0.3332  0.1343  0.8260
  604MOL0     C81465   1.952   5.147   0.659  0.5635  1.3771 -0.4794
  604MOL0     C81466   2.008   5.100   0.522 -0.1271 -0.0400  0.1084
  604MOL0     C81467   1.987   5.212   0.418 -0.1555  0.2839 -0.1807
  604MOL0     C81468   2.106   5.310   0.428  1.0192  0.4706 -0.5698
  604MOL0     C81469   2.074   5.454   0.403 -0.3385 -0.1421 -0.3092
  604MOL0     C81470   2.073   5.579   0.404  0.3786  0.3632 -0.4791
  604MOL0     C81471   1.842   5.167   0.928 -0.5707  0.1580 -0.1538
  604MOL0     C81472   1.807   5.168   1.070  0.0945 -0.3138 -0.5921
  604MOL0     H81473   1.865   5.117   1.637 -0.8943 -1.1335 -2.7557
  604MOL0     H81474   1.755   5.066   1.830  4.4802 -0.0536 -0.9908
  604MOL0     H81475   1.700   4.892   2.012 -1.2411 -1.8021  0.3831
  604MOL0     H81476   1.601   5.038   1.971 -2.5510  0.4535 -0.1597
  604MOL0     H81477   1.416   4.946   2.092 -1.0330 -0.8481 -0.2737
  604MOL0     H81478   1.502   4.783   2.103 -0.1963  0.4467 -2.6309
  604MOL0     H81479   1.528   4.844   2.310 -0.6189  1.6900  0.8570
  604MOL0     H81480   1.678   4.924   2.247 -0.2754  2.5669  0.5689
  604MOL0     H81481   1.572   5.128   2.253  1.4241 -0.2669 -0.3142
  604MOL0     H81482   1.407   5.055   2.265  0.4116  1.2012 -0.5184
  604MOL0     H81483   1.480   4.961   2.486 -1.8691  0.5547  1.6979
  604MOL0     H81484   1.628   5.053   2.477 -0.1900  0.5744 -2.3952
  604MOL0     H81485   1.492   5.261   2.461  1.8438 -0.4509  0.6878
  604MOL0     H81486   1.342   5.174   2.492  0.4428 -0.1804  0.9778
  604MOL0     H81487   1.565   5.170   2.686 -0.0371 -0.2481  0.5188
  604MOL0     H81488   1.422   5.276   2.698  2.9031  0.7012  2.8924
  604MOL0     H81489   1.425   4.957   2.692 -3.2660 -0.9363 -1.4211
  604MOL0     H81490   1.287   5.068   2.711 -0.2593 -0.2158  0.1045
  604MOL0     H81491   1.277   5.235   2.944  1.1455  1.3323 -2.5976
  604MOL0     H81492   1.293   5.129   3.240 -1.5343  0.9854 -1.5120
  604MOL0     H81493   1.462   5.181   3.281  0.8315  0.8115 -0.2669
  604MOL0     H81494   1.279   5.366   3.126 -0.0928  3.6634 -0.1370
  604MOL0     H81495   1.422   5.412   3.210 -0.6051 -0.2115 -0.5922
  604MOL0     H81496   1.344   5.381   3.413 -1.4961 -1.0715  0.8901
  604MOL0     H81497   1.201   5.309   3.345 -1.1242  2.0877 -0.7131
  604MOL0     H81498   1.165   5.538   3.234 -2.5797 -0.9130  0.6506
  604MOL0     H81499   1.303   5.590   3.337 -0.5804  1.6581 -2.1622
  604MOL0     H81500   1.156   5.772   3.320 -0.4749 -0.7972 -0.4472
  604MOL0     H81501   1.038   6.082   3.329 -0.4370 -0.4075  1.1421
  604MOL0     H81502   1.063   5.954   3.191 -2.5194 -0.7406 -1.5669
  604MOL0     H81503   0.910   6.007   3.228 -0.1139 -0.5653  1.1361
  604MOL0     H81504   0.607   6.209   3.577 -0.0455  0.2803 -0.1997
  604MOL0     H81505   0.410   6.326   3.516  3.8336  0.7589  1.7156
  604MOL0     H81506   0.165   6.419   3.488  0.6251 -0.1368  0.0423
  604MOL0     H81507   0.285   6.416   3.360  1.4489  1.4774  2.5281
  604MOL0     H81508   0.120   6.377   3.193 -1.1503  0.8096 -1.4206
  604MOL0     H81509   0.001   6.330   3.329  0.9400 -0.1940 -0.4883
  604MOL0     H81510   0.120   6.615   3.296  2.2606 -1.5704 -4.9540
  604MOL0     H81511  -0.018   6.562   3.388  2.3576 -0.5721  2.4758
  604MOL0     H81512   0.023   6.561   3.077 -0.7407  1.0116 -1.5611
  604MOL0     H81513  -0.134   6.524   3.138 -0.6378  2.3542 -1.3719
  604MOL0     H81514  -0.001   6.785   3.209 -0.8060  0.9757 -0.4959
  604MOL0     H81515  -0.170   6.741   3.238  0.7570  2.0288 -0.6835
  604MOL0     H81516  -0.108   6.895   3.062 -0.6570  0.1075  0.3748
  604MOL0     H81517  -0.017   6.775   2.971  0.8822 -1.2163  2.0127
  604MOL0     H81518  -0.313   6.760   3.039  0.9969 -0.5399  1.1476
  604MOL0     H81519  -0.225   6.639   2.939 -2.4995 -1.2006  4.2604
  604MOL0     H81520  -0.351   6.786   2.785 -1.4140  0.5973  1.5900
  604MOL0     H81521  -0.164   6.811   2.784 -2.0151  0.1435 -2.3077
  604MOL0     H81522   0.238   5.963   3.352  0.5420 -1.5926 -1.5655
  604MOL0     H81523   0.425   5.834   3.444 -2.1643 -0.0187 -1.5718
  604MOL0     H81524   0.794   5.762   3.652 -1.3404  2.6889 -1.6168
  604MOL0     H81525   0.931   5.571   3.623 -4.6941 -0.3088 -1.1030
  604MOL0     H81526   1.550   4.741   1.649  1.7725 -0.5294 -2.7351
  604MOL0     H81527   1.674   4.774   1.446 -2.1096 -0.6804 -0.0933
  604MOL0     H81528   1.864   4.859   1.167  1.5642  1.5628  1.2643
  604MOL0     H81529   1.970   4.848   0.919 -1.4845  0.4035 -4.2493
  604MOL0     H81530   1.848   5.179   0.646 -1.1835 -2.4927  2.2091
  604MOL0     H81531   1.995   5.241   0.696 -1.2254  2.2072 -0.3837
  604MOL0     H81532   1.952   5.010   0.497  0.2689 -0.3548  0.3455
  604MOL0     H81533   2.116   5.089   0.531  0.3742  3.6667  0.4631
  604MOL0     H81534   1.894   5.268   0.433 -1.2277 -2.0158  2.6598
  604MOL0     H81535   1.983   5.161   0.321 -0.0537 -1.5980  0.7540
  604MOL0     H81536   2.175   5.276   0.351 -1.0616 -0.5348 -2.0989
  604MOL0     H81537   2.156   5.317   0.525  4.0078 -3.3201 -1.6144
  604MOL0     H81538   2.091   5.684   0.413  0.5513  0.2625  0.4276
  604MOL0     H81539   1.832   5.258   0.870  0.6051  0.4790  0.1178
  604MOL0     H81540   1.752   5.257   1.099  1.6227  1.7291 -3.4408
  605MOL0     O81541   9.365   9.103   9.160  0.1178  0.8334 -0.2536
  605MOL0     C81542   9.409   9.016   9.085  0.0561 -0.7486 -0.4790
  605MOL0     O81543   9.390   9.008   8.943  0.6874  0.5040 -0.4491
  605MOL0     C81544   9.321   9.096   8.872  0.7980 -0.3828  0.5211
  605MOL0     C81545   9.253   9.054   8.751  0.2641  0.3572  1.3250
  605MOL0     C81546   9.169   9.139   8.677 -1.0359 -0.5333  0.7323
  605MOL0     C81547   9.151   9.272   8.708  0.4757 -0.2200 -0.6469
  605MOL0     O81548   9.079   9.366   8.643 -0.2193 -0.1493  0.2783
  605MOL0     C81549   8.979   9.323   8.551  0.1444  0.2727  0.0053
  605MOL0     C81550   8.922   9.437   8.460  0.0567  0.2733  0.3368
  605MOL0     C81551   8.861   9.557   8.516 -0.0257 -0.4769  0.2203
  605MOL0     C81552   8.947   9.685   8.536 -0.7610  0.6389  0.1475
  605MOL0     C81553   8.870   9.772   8.626  0.4598 -0.5210 -1.2990
  605MOL0     C81554   8.941   9.913   8.619 -0.6522  0.9031 -0.5007
  605MOL0     C81555   8.921   9.995   8.746  0.3189  0.0332 -0.9593
  605MOL0     C81556   9.034  10.085   8.793  0.1307 -1.0178 -0.1974
  605MOL0     N81557   9.088  10.175   8.686 -1.1709 -0.1989 -0.3121
  605MOL0     C81558   9.050  10.303   8.664  0.3950 -0.3483  0.4880
  605MOL0     C81559   9.138  10.343   8.572 -0.1819  0.0706 -0.1062
  605MOL0     C81560   9.149  10.474   8.497  0.4065  0.9542 -0.1531
  605MOL0     C81561   9.032  10.472   8.392  0.1279  0.2902 -0.0716
  605MOL0     C81562   9.038  10.611   8.312 -0.5526  0.4826  0.6919
  605MOL0     C81563   9.156  10.639   8.218 -0.2231 -1.1905  0.3674
  605MOL0     O81564   9.159  10.780   8.207 -0.0670  0.3951 -0.2203
  605MOL0     C81565   9.236  10.840   8.112  0.0736  0.5893  0.0706
  605MOL0     C81566   9.323  10.763   8.023 -0.8668  0.2185  0.1404
  605MOL0     C81567   9.390  10.834   7.924  0.5641 -0.0007  0.3967
  605MOL0     C81568   9.470  10.738   7.829 -0.4574 -0.3070 -0.5666
  605MOL0     C81569   9.367  10.973   7.897  0.4128 -0.0832  0.4744
  605MOL0     C81570   9.445  11.052   7.793 -0.2105 -0.4448 -0.1529
  605MOL0     O81571   9.574  11.083   7.817 -1.1018  0.3673 -0.6582
  605MOL0     C81572   9.640  11.187   7.758 -0.0053  0.8705  0.1016
  605MOL0     C81573   9.775  11.179   7.784  0.6943 -0.1130 -0.2187
  605MOL0     C81574   9.858  11.271   7.733  0.0021 -0.2595  0.7124
  605MOL0     C81575   9.813  11.379   7.655  0.0840  0.0711 -0.5220
  605MOL0     O81576   9.889  11.480   7.596 -0.2959  0.2217 -0.1438
  605MOL0     C81577  10.026  11.467   7.610 -0.2835 -0.2072  0.4704
  605MOL0     C81578  10.115  11.586   7.561 -0.0775 -0.0040 -0.6121
  605MOL0     C81579  10.258  11.585   7.600  1.5943  0.3585 -0.3771
  605MOL0     C81580  10.309  11.440   7.640  0.1398  0.1754  0.1780
  605MOL0     C81581  10.463  11.436   7.671  0.3454 -0.8106  0.7841
  605MOL0     C81582  10.488  11.520   7.794 -0.4784  0.5335 -0.0980
  605MOL0     C81583  10.631  11.510   7.855  0.3856 -0.1304  0.0891
  605MOL0     C81584  10.652  11.628   7.945 -0.4385 -0.4739  0.4972
  605MOL0    Cl81585  10.825  11.634   7.957 -0.0620 -0.4653 -0.1849
  605MOL0     C81586   9.674  11.398   7.636  0.2476  0.1300 -0.2246
  605MOL0     C81587   9.582  11.297   7.688 -0.9416 -0.9717  0.6566
  605MOL0     O81588   9.375  11.092   7.703 -0.3367 -0.1249 -0.1087
  605MOL0     C81589   9.288  11.042   7.991 -0.3708  0.0285  0.0381
  605MOL0     C81590   9.224  10.978   8.092 -0.2584 -0.0829  0.7284
  605MOL0     N81591   9.231  10.241   8.552 -0.6413  0.1003  0.1289
  605MOL0     N81592   9.205  10.140   8.617 -0.4058 -1.1249 -0.4904
  605MOL0     C81593   9.223   9.317   8.820 -0.3312 -0.2296  0.3784
  605MOL0     C81594   9.300   9.236   8.901 -0.5225  0.6774  0.6070
  605MOL0     C81595   9.478   8.904   9.159 -0.1619 -0.1887  0.0154
  605MOL0     C81596   9.508   8.782   9.096  0.2579  0.8745 -0.5749
  605MOL0     C81597   9.565   8.676   9.160 -0.3640 -0.2676 -0.1648
  605MOL0     C81598   9.614   8.686   9.289 -0.3629 -0.4202 -0.6306
  605MOL0     O81599   9.685   8.595   9.363 -0.1048  0.5539  0.0480
  605MOL0     C81600   9.647   8.458   9.346  0.6285 -0.1637  0.1761
  605MOL0     C81601   9.651   8.416   9.496 -0.3991 -0.2883 -0.2357
  605MOL0     C81602   9.781   8.425   9.578  1.0513 -0.2788  0.2249
  605MOL0     C81603   9.901   8.357   9.523 -0.1418  0.4743 -0.2645
  605MOL0     C81604   9.879   8.236   9.447 -0.6630 -0.0329 -0.1363
  605MOL0     C81605   9.870   8.149   9.361  0.2148  0.0586  0.1939
  605MOL0     C81606   9.600   8.810   9.350 -0.3994 -1.0811 -0.7375
  605MOL0     C81607   9.529   8.915   9.291  0.1486  0.1649  0.2851
  605MOL0     H81608   9.276   8.954   8.717  2.5429  0.8037  1.3353
  605MOL0     H81609   9.132   9.103   8.582 -2.0874  4.0186 -0.8410
  605MOL0     H81610   9.018   9.236   8.496  0.5652  0.3127  0.2378
  605MOL0     H81611   8.896   9.287   8.613  0.7780  3.1537  2.7508
  605MOL0     H81612   9.010   9.471   8.405 -1.4189  2.1537 -0.9585
  605MOL0     H81613   8.858   9.377   8.395  2.1898  0.5341 -2.1499
  605MOL0     H81614   8.789   9.589   8.440  1.3310 -0.5069 -1.1275
  605MOL0     H81615   8.812   9.531   8.611 -1.3615 -1.0297 -0.5822
  605MOL0     H81616   9.037   9.647   8.585 -2.5388 -1.2868  2.1256
  605MOL0     H81617   8.978   9.730   8.441 -0.0424  1.4289  0.7447
  605MOL0     H81618   8.770   9.789   8.586 -0.1871 -0.9231  0.1091
  605MOL0     H81619   8.867   9.726   8.725  1.6175  0.8761 -0.5836
  605MOL0     H81620   9.047   9.890   8.601 -0.6994  1.2453 -1.2701
  605MOL0     H81621   8.906   9.967   8.530 -2.7325 -1.5928 -1.3444
  605MOL0     H81622   8.835  10.063   8.735  2.1955  2.5650 -1.0036
  605MOL0     H81623   8.910   9.923   8.827  0.4379  1.0332 -0.0325
  605MOL0     H81624   9.118  10.024   8.828  0.0513 -0.6253  0.6971
  605MOL0     H81625   8.995  10.138   8.881  1.6479 -0.1168 -0.0309
  605MOL0     H81626   8.980  10.358   8.727  0.5086 -3.0604  3.2382
  605MOL0     H81627   9.122  10.549   8.573 -2.5159  0.3614 -0.4723
  605MOL0     H81628   9.248  10.494   8.455  0.4284  0.0039 -0.5599
  605MOL0     H81629   8.947  10.467   8.461  1.5834  3.0235  2.1407
  605MOL0     H81630   9.040  10.381   8.331 -2.8241 -1.1503  1.4567
  605MOL0     H81631   9.024  10.687   8.390  0.3455 -0.4628  1.8233
  605MOL0     H81632   8.947  10.608   8.252  1.1528  0.8119 -2.0609
  605MOL0     H81633   9.141  10.595   8.119 -1.6102 -0.2814  0.1357
  605MOL0     H81634   9.252  10.609   8.260 -0.4978 -2.3612  0.2080
  605MOL0     H81635   9.332  10.659   8.051 -0.8262  0.7736  2.4643
  605MOL0     H81636   9.401  10.696   7.755  0.0672 -0.7539 -0.8105
  605MOL0     H81637   9.533  10.797   7.761 -0.8567 -0.2524 -0.8969
  605MOL0     H81638   9.517  10.655   7.882 -3.4637 -0.9934  1.2767
  605MOL0     H81639   9.820  11.101   7.845 -0.2967 -0.3925  0.1774
  605MOL0     H81640   9.958  11.261   7.775  0.1956 -2.6079 -0.1605
  605MOL0     H81641  10.052  11.438   7.712 -1.3583 -0.8203  0.5883
  605MOL0     H81642  10.046  11.383   7.543 -2.0575  0.6208 -1.2298
  605MOL0     H81643  10.103  11.609   7.455  1.3385  2.4975 -0.3148
  605MOL0     H81644  10.074  11.672   7.615  3.6453  2.4078 -1.1865
  605MOL0     H81645  10.268  11.665   7.675 -3.1910  1.2103 -0.3602
  605MOL0     H81646  10.320  11.618   7.516  1.8371 -2.3535 -1.3585
  605MOL0     H81647  10.253  11.412   7.730  0.0476  3.8650  1.4620
  605MOL0     H81648  10.296  11.358   7.569  0.8630 -1.5790  1.9809
  605MOL0     H81649  10.503  11.491   7.585 -3.2342  1.3490  0.2947
  605MOL0     H81650  10.503  11.336   7.689 -0.4334 -0.5626  4.8880
  605MOL0     H81651  10.459  11.623   7.770 -1.5130 -0.1083 -1.7695
  605MOL0     H81652  10.426  11.508   7.884 -1.0407 -1.4641 -0.6833
  605MOL0     H81653  10.699  11.513   7.769  0.2465 -0.4747 -0.0337
  605MOL0     H81654  10.644  11.418   7.913 -0.3553  0.5733  1.4067
  605MOL0     H81655  10.599  11.608   8.038 -1.0229 -3.4034 -0.3584
  605MOL0     H81656  10.606  11.709   7.887 -1.6998 -1.4705  0.0664
  605MOL0     H81657   9.637  11.478   7.572 -0.9595  0.8518  1.3070
  605MOL0     H81658   9.477  11.299   7.661 -0.7064 -2.4492 -0.4434
  605MOL0     H81659   9.279  11.150   7.991 -3.4739 -0.0463 -3.4968
  605MOL0     H81660   9.158  11.017   8.168  2.1907  1.0370  2.3871
  605MOL0     H81661   9.209   9.422   8.845  1.8199  0.2237 -0.1428
  605MOL0     H81662   9.338   9.272   8.996  0.8491  3.0993 -0.7425
  605MOL0     H81663   9.493   8.771   8.989  4.4591  0.3968 -1.2877
  605MOL0     H81664   9.584   8.582   9.110 -0.7253  1.2032 -3.3067
  605MOL0     H81665   9.541   8.446   9.322  1.2307  0.9294 -3.6107
  605MOL0     H81666   9.709   8.392   9.286  2.1233  0.6198  0.8165
  605MOL0     H81667   9.621   8.312   9.514 -0.3560  0.2701  3.9821
  605MOL0     H81668   9.592   8.483   9.559  2.0902  0.1292  1.8038
  605MOL0     H81669   9.751   8.399   9.680  1.2594 -1.7506 -0.0767
  605MOL0     H81670   9.805   8.532   9.575 -2.4826  0.6521 -1.2022
  605MOL0     H81671   9.959   8.334   9.612  0.6099 -0.3164 -0.9305
  605MOL0     H81672   9.953   8.436   9.467  4.4585 -0.7694  1.7250
  605MOL0     H81673   9.879   8.080   9.280  0.0364  0.9011 -0.5624
  605MOL0     H81674   9.648   8.816   9.447  4.0489 -2.7553 -2.5380
  605MOL0     H81675   9.530   9.018   9.325 -0.6142  0.7738 -1.3894
  606MOL0     O81676   2.225   0.199   3.399  0.0600  0.1298  0.3938
  606MOL0     C81677   2.222   0.078   3.408  0.2101 -1.3097  0.5304
  606MOL0     O81678   2.142  -0.008   3.338  0.5093 -0.0409  0.4251
  606MOL0     C81679   2.058   0.038   3.240  0.2546  1.3317  0.5219
  606MOL0     C81680   2.074  -0.007   3.107  0.0907 -0.4273 -0.1527
  606MOL0     C81681   1.996   0.045   3.000 -0.8277 -0.3937  0.1524
  606MOL0     C81682   1.896   0.139   3.031 -0.4072 -0.2792 -0.1677
  606MOL0     O81683   1.808   0.169   2.934  0.0230 -1.1892 -0.3298
  606MOL0     C81684   1.669   0.147   2.960 -0.0667  0.3087 -0.4485
  606MOL0     C81685   1.629  -0.002   2.980 -0.1136 -0.8710  0.8987
  606MOL0     C81686   1.680  -0.108   2.875  0.0254  0.3881 -0.1768
  606MOL0     C81687   1.614  -0.245   2.911 -0.2279 -0.6892  0.4402
  606MOL0     C81688   1.690  -0.308   3.029 -0.3409  0.3237 -0.3641
  606MOL0     C81689   1.642  -0.452   3.067  0.2604 -0.5319  0.0514
  606MOL0     C81690   1.712  -0.505   3.193 -0.0904  0.5175 -0.2850
  606MOL0     C81691   1.680  -0.648   3.215 -0.5109 -1.4336  0.5323
  606MOL0     N81692   1.545  -0.677   3.237  0.5477 -0.8477 -0.3124
  606MOL0     C81693   1.467  -0.617   3.335  1.0619  0.5272  0.7900
  606MOL0     C81694   1.348  -0.680   3.309  0.7706  0.0752 -0.2079
  606MOL0     C81695   1.210  -0.650   3.370  0.2164 -0.4777 -0.5027
  606MOL0     C81696   1.200  -0.672   3.526  0.2646  0.0360 -0.3954
  606MOL0     C81697   1.243  -0.804   3.582 -0.0529 -0.1670 -0.9898
  606MOL0     C81698   1.387  -0.837   3.569 -0.7613  0.0924 -0.7355
  606MOL0     O81699   1.455  -0.738   3.645  0.0660 -0.1138 -0.1239
  606MOL0     C81700   1.581  -0.763   3.704 -0.4843  0.0462  0.2658
  606MOL0     C81701   1.679  -0.830   3.630 -1.0731  0.1977 -0.6219
  606MOL0     C81702   1.812  -0.840   3.683 -0.5034  0.5381 -0.7991
  606MOL0     C81703   1.930  -0.882   3.599 -0.6963 -0.2614  0.2115
  606MOL0     C81704   1.839  -0.815   3.823  0.0112 -0.9443  0.2068
  606MOL0     C81705   1.957  -0.858   3.905  0.5400 -0.2712 -0.2226
  606MOL0     O81706   2.000  -0.763   3.995 -0.4622  0.1003  0.5996
  606MOL0     C81707   2.069  -0.806   4.102  0.2436  0.5543 -0.0264
  606MOL0     C81708   2.019  -0.909   4.183 -0.5173  0.1939  1.0353
  606MOL0     C81709   2.079  -0.957   4.299 -0.0458  0.0192 -0.0024
  606MOL0     C81710   2.205  -0.897   4.349  0.1865  0.2253  0.1713
  606MOL0     O81711   2.279  -0.945   4.456 -0.3329 -0.4809  0.0557
  606MOL0     C81712   2.267  -1.077   4.509  0.7762 -0.7544  0.2125
  606MOL0     C81713   2.276  -1.064   4.661 -0.4968  0.4666 -0.1081
  606MOL0     C81714   2.307  -1.206   4.717 -0.0434 -0.4594 -0.2527
  606MOL0     C81715   2.332  -1.195   4.861  0.2796 -0.2127  0.0305
  606MOL0     C81716   2.360  -1.327   4.929 -0.4476 -0.4856 -0.2255
  606MOL0     C81717   2.293  -1.449   4.872 -0.0333 -1.1212 -0.1659
  606MOL0     C81718   2.339  -1.580   4.936 -0.4516  0.3217  0.0237
  606MOL0     C81719   2.310  -1.701   4.864  0.5301  0.4246  0.1424
  606MOL0    Cl81720   2.427  -1.694   4.721  0.8675  0.2019 -0.3255
  606MOL0     C81721   2.251  -0.788   4.278 -0.1302 -0.2803  0.9951
  606MOL0     C81722   2.184  -0.743   4.159  0.2295  0.0115  0.0303
  606MOL0     O81723   1.989  -0.977   3.901  0.9245  0.1592 -0.1786
  606MOL0     C81724   1.741  -0.742   3.892 -0.4931 -0.0188 -0.8008
  606MOL0     C81725   1.608  -0.719   3.835 -0.2067 -0.2929  0.1326
  606MOL0     N81726   1.358  -0.769   3.209 -0.0983 -0.3319  0.1877
  606MOL0     N81727   1.477  -0.772   3.163 -0.7450 -0.3247 -0.1299
  606MOL0     C81728   1.879   0.183   3.165 -0.2817  0.4494 -0.3024
  606MOL0     C81729   1.960   0.134   3.263  0.2660 -0.6487 -0.1054
  606MOL0     C81730   2.293   0.016   3.519 -1.1359 -0.3887 -0.3670
  606MOL0     C81731   2.293  -0.128   3.533  0.6622  0.0750  0.7067
  606MOL0     C81732   2.336  -0.193   3.652 -0.2511 -0.7988 -0.1234
  606MOL0     C81733   2.388  -0.113   3.762 -0.2883  0.3197 -0.9025
  606MOL0     O81734   2.438  -0.168   3.872 -0.0993 -0.4217  0.6239
  606MOL0     C81735   2.471  -0.080   3.982  0.6487 -0.0749 -0.6936
  606MOL0     C81736   2.487  -0.157   4.109 -0.4043 -0.1697 -0.3628
  606MOL0     C81737   2.507  -0.070   4.242  0.3133  0.3879 -0.0048
  606MOL0     C81738   2.538  -0.168   4.359 -0.1924  0.2069 -0.9555
  606MOL0     C81739   2.413  -0.248   4.396  0.1093  0.2645 -0.5160
  606MOL0     C81740   2.314  -0.308   4.432 -0.3900 -0.7413  0.4024
  606MOL0     C81741   2.403   0.027   3.734 -0.2465  0.2121  1.1901
  606MOL0     C81742   2.354   0.090   3.622 -0.0905  0.3386 -0.3916
  606MOL0     H81743   2.152  -0.081   3.089  0.7732  0.1389  0.3827
  606MOL0     H81744   2.008   0.021   2.895  0.7358  0.2876  0.1429
  606MOL0     H81745   1.640   0.207   3.047 -0.1460 -1.8844  1.1531
  606MOL0     H81746   1.619   0.190   2.873  1.8068  3.0186 -0.2869
  606MOL0     H81747   1.656  -0.018   3.085  1.2515 -1.2416  0.5058
  606MOL0     H81748   1.521  -0.005   2.964  0.2832 -3.9988 -2.6517
  606MOL0     H81749   1.652  -0.070   2.776 -0.6947 -1.4860 -0.7485
  606MOL0     H81750   1.789  -0.123   2.876 -0.1328 -0.8338  1.4420
  606MOL0     H81751   1.513  -0.227   2.948  0.1502  0.2928  1.0043
  606MOL0     H81752   1.611  -0.301   2.817 -1.4020 -2.3665  1.4210
  606MOL0     H81753   1.793  -0.311   2.991  0.6258  0.2619  2.0543
  606MOL0     H81754   1.667  -0.248   3.118 -0.4894  0.1636 -0.2941
  606MOL0     H81755   1.534  -0.453   3.081  0.1279  1.3138 -0.5754
  606MOL0     H81756   1.674  -0.510   2.980 -0.8447  0.4667 -1.0512
  606MOL0     H81757   1.819  -0.488   3.177 -0.3990  1.2690 -1.8075
  606MOL0     H81758   1.690  -0.438   3.277 -0.4388  1.3814 -1.0480
  606MOL0     H81759   1.747  -0.689   3.290 -0.4957  0.3405  1.5477
  606MOL0     H81760   1.709  -0.700   3.123  1.0156  5.2748 -3.4954
  606MOL0     H81761   1.500  -0.549   3.414  2.4359  2.1096 -1.0511
  606MOL0     H81762   1.185  -0.545   3.352  1.5165 -0.3741 -1.8577
  606MOL0     H81763   1.136  -0.717   3.324  0.8413 -1.2622 -0.3838
  606MOL0     H81764   1.096  -0.651   3.554  0.9280 -0.4737  2.8561
  606MOL0     H81765   1.268  -0.600   3.573 -0.7671  1.1210 -0.5251
  606MOL0     H81766   1.192  -0.883   3.527  0.6859 -0.7099 -0.9071
  606MOL0     H81767   1.222  -0.822   3.688  1.6105 -1.2388 -0.8039
  606MOL0     H81768   1.438  -0.844   3.473  2.5411  1.1951  0.7976
  606MOL0     H81769   1.403  -0.936   3.611  0.1817  0.9535  1.0668
  606MOL0     H81770   1.660  -0.850   3.525  0.1889  1.3055 -1.0910
  606MOL0     H81771   2.021  -0.837   3.640 -0.6961  2.4545 -2.3682
  606MOL0     H81772   1.931  -0.990   3.581 -2.4055 -0.1785 -0.5707
  606MOL0     H81773   1.928  -0.839   3.498 -0.6117 -1.7142 -0.4296
  606MOL0     H81774   1.935  -0.967   4.146  0.2654 -0.6876  0.5682
  606MOL0     H81775   2.029  -1.043   4.343 -0.0851  0.7335  1.3922
  606MOL0     H81776   2.172  -1.127   4.494  1.7793 -2.3810 -1.0320
  606MOL0     H81777   2.345  -1.139   4.465  2.1098  1.0823 -0.1553
  606MOL0     H81778   2.366  -1.004   4.674  1.5840 -2.7262  1.6367
  606MOL0     H81779   2.193  -1.012   4.710  1.4383  2.6717  0.9944
  606MOL0     H81780   2.390  -1.262   4.672  0.8412 -0.6533  1.5377
  606MOL0     H81781   2.208  -1.249   4.705 -1.4740  2.6589 -0.4796
  606MOL0     H81782   2.414  -1.125   4.875 -0.8464  1.0530  0.5871
  606MOL0     H81783   2.239  -1.152   4.900  1.4264  2.3394  0.1361
  606MOL0     H81784   2.356  -1.318   5.038  1.6419 -1.2414 -0.0518
  606MOL0     H81785   2.464  -1.345   4.901  0.3897 -1.3245  2.9808
  606MOL0     H81786   2.186  -1.427   4.878  0.5763  3.4799 -1.9231
  606MOL0     H81787   2.335  -1.455   4.771  1.0050 -2.4695  0.3115
  606MOL0     H81788   2.288  -1.588   5.032 -0.2268  1.1056  0.2196
  606MOL0     H81789   2.448  -1.577   4.948 -0.6018  1.4414  1.3177
  606MOL0     H81790   2.206  -1.703   4.830  0.8941  0.3260 -0.9926
  606MOL0     H81791   2.332  -1.796   4.914 -1.0500 -0.3136 -0.4993
  606MOL0     H81792   2.341  -0.742   4.318 -0.7125 -1.7780  4.4266
  606MOL0     H81793   2.221  -0.650   4.116  0.1773  0.0884  0.1509
  606MOL0     H81794   1.761  -0.721   3.997 -4.5063  0.5164  0.0129
  606MOL0     H81795   1.532  -0.664   3.889 -1.6991 -0.0841 -2.0404
  606MOL0     H81796   1.810   0.262   3.195  1.5176  2.5612 -1.4625
  606MOL0     H81797   1.963   0.182   3.360 -2.7843  3.0343 -1.5961
  606MOL0     H81798   2.255  -0.189   3.452 -2.3258  1.5870  0.8203
  606MOL0     H81799   2.324  -0.300   3.663  0.2236 -0.7331  1.1617
  606MOL0     H81800   2.557  -0.021   3.952  0.6455  0.5749  0.5258
  606MOL0     H81801   2.386  -0.011   3.989 -1.5143 -2.1028 -3.7428
  606MOL0     H81802   2.575  -0.217   4.084  2.2018  2.1023  2.6187
  606MOL0     H81803   2.400  -0.223   4.108 -0.3912 -0.2919 -3.2210
  606MOL0     H81804   2.428   0.005   4.254  1.1566  1.2264  0.4636
  606MOL0     H81805   2.599  -0.015   4.221 -1.1393  2.8019 -0.4635
  606MOL0     H81806   2.568  -0.112   4.448  2.2621 -0.1856 -1.4645
  606MOL0     H81807   2.612  -0.244   4.333 -0.4288 -0.8546  1.2990
  606MOL0     H81808   2.224  -0.359   4.459 -1.1670  1.1539  1.5894
  606MOL0     H81809   2.443   0.107   3.796 -0.5489  2.1731 -0.9922
  606MOL0     H81810   2.372   0.197   3.621  1.9222  0.0999  1.6693
  607MOL0     O81811   4.230   3.694   2.288  0.2170 -0.5517  0.1931
  607MOL0     C81812   4.272   3.750   2.190  0.7243  0.1220 -0.8987
  607MOL0     O81813   4.370   3.707   2.110  0.2503  0.7954  0.5671
  607MOL0     C81814   4.442   3.588   2.139  0.4191 -0.5349 -0.7270
  607MOL0     C81815   4.560   3.595   2.066  0.4800 -0.1648  0.1967
  607MOL0     C81816   4.656   3.503   2.086 -1.1260  0.7668 -0.2622
  607MOL0     C81817   4.636   3.394   2.179  0.7915 -0.4080 -0.2787
  607MOL0     O81818   4.730   3.294   2.175 -0.1137  0.2771  0.1454
  607MOL0     C81819   4.688   3.164   2.130  0.6843 -0.9402  0.0932
  607MOL0     C81820   4.751   3.114   2.011 -0.1444  0.5939  0.3863
  607MOL0     C81821   4.903   3.085   2.064 -0.1842 -0.5360  1.1469
  607MOL0     C81822   4.985   3.015   1.952 -0.5860  0.1656 -0.5011
  607MOL0     C81823   5.138   3.020   1.968 -0.1005  0.8218  0.1724
  607MOL0     C81824   5.203   3.152   1.926  0.2264  0.4594  0.8572
  607MOL0     C81825   5.348   3.139   1.952  0.2170  0.1197  0.1600
  607MOL0     C81826   5.439   3.251   1.905 -0.7397  0.5272  0.5257
  607MOL0     N81827   5.586   3.224   1.901  0.5930 -0.0693 -0.7550
  607MOL0     C81828   5.680   3.276   1.985 -0.6307  0.3634  0.7033
  607MOL0     C81829   5.798   3.271   1.920 -0.4219 -0.4830  0.4509
  607MOL0     C81830   5.928   3.321   1.970 -0.8661  0.7115 -0.8110
  607MOL0     C81831   5.966   3.284   2.115 -0.7629 -1.2690  0.6354
  607MOL0     C81832   6.013   3.133   2.125 -0.1070 -0.2076  0.1243
  607MOL0     C81833   6.061   3.103   2.270 -0.0807  0.6637  0.0409
  607MOL0     O81834   6.179   3.184   2.294 -0.4855 -0.4370  0.2715
  607MOL0     C81835   6.301   3.149   2.223  0.2378  0.2462 -0.3918
  607MOL0     C81836   6.351   3.019   2.209  0.2675 -0.8311 -1.1958
  607MOL0     C81837   6.468   2.985   2.150 -0.3250 -0.5714  0.8344
  607MOL0     C81838   6.497   2.837   2.119  0.4774 -0.0907 -0.8418
  607MOL0     C81839   6.550   3.091   2.102 -0.7734  0.9112 -0.5203
  607MOL0     C81840   6.687   3.075   2.048  0.3592  0.4319 -0.1467
  607MOL0     O81841   6.722   3.167   1.965  0.4962 -0.4638  0.2882
  607MOL0     C81842   6.829   3.153   1.882 -0.2716 -0.1416 -0.0314
  607MOL0     C81843   6.892   3.042   1.837 -0.3715 -0.4209  0.1033
  607MOL0     C81844   7.001   3.043   1.751 -0.4386  0.0586  0.8725
  607MOL0     C81845   7.039   3.175   1.716 -0.4683  0.5166 -0.2350
  607MOL0     O81846   7.159   3.196   1.655  0.3803  0.1801  0.4923
  607MOL0     C81847   7.185   3.114   1.536  0.5390 -1.1373  0.1523
  607MOL0     C81848   7.131   3.191   1.414  0.4671 -0.4597  0.2374
  607MOL0     C81849   7.138   3.117   1.280 -1.0451  0.3356  0.1882
  607MOL0     C81850   7.275   3.125   1.215 -0.0621  0.4525 -0.6406
  607MOL0     C81851   7.306   3.021   1.096 -0.4740 -0.4922 -0.2874
  607MOL0     C81852   7.200   3.015   0.986  0.0716 -0.1951  0.0646
  607MOL0     C81853   7.189   3.159   0.929  0.1211 -0.3654 -0.3128
  607MOL0     C81854   7.134   3.185   0.786  1.3974  0.9021 -0.0937
  607MOL0    Cl81855   6.947   3.169   0.795 -0.6277 -0.3437  0.0367
  607MOL0     C81856   6.970   3.285   1.754 -0.6838 -0.3528 -0.3827
  607MOL0     C81857   6.864   3.274   1.836 -0.4561 -0.0457 -0.4671
  607MOL0     O81858   6.764   2.985   2.095 -1.0728  0.1009 -0.2558
  607MOL0     C81859   6.492   3.220   2.097  1.1691 -0.3455 -0.4272
  607MOL0     C81860   6.377   3.248   2.165  0.0497  0.5387 -0.8296
  607MOL0     N81861   5.780   3.243   1.788  0.0774 -0.3444  0.1836
  607MOL0     N81862   5.646   3.220   1.782  0.2072 -0.5827 -0.1418
  607MOL0     C81863   4.512   3.375   2.248  0.2873 -0.4981  0.4149
  607MOL0     C81864   4.409   3.475   2.219 -0.5241 -0.2988  0.2325
  607MOL0     C81865   4.204   3.873   2.145 -0.1940  0.6167  0.4566
  607MOL0     C81866   4.147   3.964   2.234 -0.1488 -0.0278 -0.7570
  607MOL0     C81867   4.077   4.076   2.184  0.5063  0.1368  0.6146
  607MOL0     C81868   4.057   4.095   2.048  0.1157  0.9651 -0.1342
  607MOL0     O81869   3.995   4.213   2.021  0.2498  0.0638 -0.4011
  607MOL0     C81870   3.969   4.250   1.884 -0.2582  0.0518 -0.6921
  607MOL0     C81871   3.827   4.196   1.848  0.2930 -0.7628  0.2911
  607MOL0     C81872   3.755   4.280   1.730  0.9570  0.4804 -0.4532
  607MOL0     C81873   3.662   4.188   1.652  0.8627 -0.2384 -0.4553
  607MOL0     C81874   3.574   4.099   1.728  0.5257  0.0282  0.2460
  607MOL0     C81875   3.517   4.008   1.786 -0.3037  0.6295 -1.1117
  607MOL0     C81876   4.099   3.994   1.965 -0.5238 -0.0542 -0.1781
  607MOL0     C81877   4.167   3.887   2.013  0.2676 -0.2750 -0.2291
  607MOL0     H81878   4.575   3.673   1.993  0.8504 -2.5058 -2.3750
  607MOL0     H81879   4.752   3.506   2.037 -1.6339  0.3841 -1.3171
  607MOL0     H81880   4.724   3.103   2.213 -0.9918 -0.6860  1.0572
  607MOL0     H81881   4.580   3.146   2.129  0.5204 -0.0983 -1.7253
  607MOL0     H81882   4.715   3.019   1.971  2.2817  1.2702 -4.0131
  607MOL0     H81883   4.738   3.192   1.935 -2.6488  0.5446  0.6552
  607MOL0     H81884   4.953   3.182   2.074  1.3553 -1.4174  2.4880
  607MOL0     H81885   4.908   3.031   2.159  4.0257 -2.1242  0.2380
  607MOL0     H81886   4.956   2.910   1.959 -0.8883  0.3162  0.6177
  607MOL0     H81887   4.957   3.052   1.853 -1.2192  1.4428  0.1437
  607MOL0     H81888   5.165   2.994   2.071 -0.4715 -0.0670  0.0630
  607MOL0     H81889   5.183   2.945   1.902 -1.5566 -1.3286  1.5007
  607MOL0     H81890   5.186   3.168   1.820 -0.7828 -3.4436  0.2552
  607MOL0     H81891   5.173   3.244   1.976 -1.3427 -1.1506  3.1180
  607MOL0     H81892   5.357   3.120   2.059  0.2909 -1.9482 -0.1693
  607MOL0     H81893   5.391   3.053   1.900  0.0211 -1.6257  2.6894
  607MOL0     H81894   5.424   3.333   1.975  0.7128 -0.1028  1.6499
  607MOL0     H81895   5.407   3.290   1.808  3.3378 -0.7305 -1.5694
  607MOL0     H81896   5.671   3.320   2.083  1.1645  0.1026  1.0239
  607MOL0     H81897   6.003   3.290   1.898  0.5316  0.3690  0.7408
  607MOL0     H81898   5.923   3.430   1.971  1.6405  0.9036  1.2460
  607MOL0     H81899   5.878   3.303   2.177 -1.1116  2.4065 -0.7878
  607MOL0     H81900   6.043   3.355   2.145 -0.3239 -1.7483  0.6517
  607MOL0     H81901   6.095   3.104   2.059 -0.2269 -0.7383  0.2117
  607MOL0     H81902   5.930   3.068   2.096 -1.3200  1.4182 -0.2149
  607MOL0     H81903   6.094   2.999   2.265 -2.9835 -0.3418  0.3695
  607MOL0     H81904   5.981   3.109   2.344 -0.5298  0.1843 -0.4025
  607MOL0     H81905   6.299   2.932   2.249 -1.4575  0.7030  0.0648
  607MOL0     H81906   6.449   2.797   2.030  0.1209  0.2273 -0.7987
  607MOL0     H81907   6.601   2.807   2.109  1.0561  0.8066  1.6813
  607MOL0     H81908   6.453   2.776   2.199  2.5260 -1.2843 -0.5576
  607MOL0     H81909   6.853   2.952   1.882  2.1766 -1.0184  1.3064
  607MOL0     H81910   7.059   2.955   1.727 -0.7923  0.6157 -2.5233
  607MOL0     H81911   7.293   3.108   1.522  0.6781  1.0366 -0.0962
  607MOL0     H81912   7.142   3.013   1.544 -2.9290  0.3044  2.0368
  607MOL0     H81913   7.028   3.226   1.423  1.4795  2.4456  1.6648
  607MOL0     H81914   7.181   3.286   1.394 -1.6529  1.2148  2.3782
  607MOL0     H81915   7.064   3.159   1.211 -0.6314 -2.5439 -2.2045
  607MOL0     H81916   7.123   3.011   1.298 -1.9511  0.5569  0.7855
  607MOL0     H81917   7.295   3.224   1.173  1.4422  0.0970 -0.8474
  607MOL0     H81918   7.346   3.092   1.291  0.1811  2.9346  0.3073
  607MOL0     H81919   7.302   2.921   1.141 -2.0712 -0.0452  0.6687
  607MOL0     H81920   7.404   3.037   1.050 -0.3709  1.9033  0.6171
  607MOL0     H81921   7.226   2.937   0.913  0.6194  1.8266 -2.0295
  607MOL0     H81922   7.116   2.972   1.041  0.0667  2.3955  2.2725
  607MOL0     H81923   7.290   3.201   0.935 -0.6613  1.8366 -1.4409
  607MOL0     H81924   7.134   3.217   1.004 -0.0913 -2.4065  1.2048
  607MOL0     H81925   7.163   3.108   0.714  0.1914  2.1123 -1.9462
  607MOL0     H81926   7.178   3.281   0.758  0.7955  0.6112 -2.1964
  607MOL0     H81927   7.003   3.386   1.732  2.9464 -1.2257  0.3724
  607MOL0     H81928   6.811   3.363   1.870 -1.2300  0.6300 -3.1651
  607MOL0     H81929   6.548   3.303   2.055  0.1078  0.0483 -1.0955
  607MOL0     H81930   6.325   3.343   2.157  1.2510  1.0592 -3.4547
  607MOL0     H81931   4.501   3.296   2.321  1.2928 -2.6738 -1.6264
  607MOL0     H81932   4.310   3.470   2.262 -2.3082 -0.0649 -3.4168
  607MOL0     H81933   4.168   3.954   2.340  1.1456  0.1016 -0.9804
  607MOL0     H81934   4.032   4.143   2.257  0.6570  1.8727 -0.8240
  607MOL0     H81935   3.966   4.360   1.882 -0.6667  0.0322 -1.1577
  607MOL0     H81936   4.051   4.224   1.816  0.6340  0.8614  0.0364
  607MOL0     H81937   3.776   4.211   1.943  1.7754  0.7698  0.9025
  607MOL0     H81938   3.824   4.090   1.822 -1.2779 -1.3555  2.5694
  607MOL0     H81939   3.830   4.328   1.666  1.7292  0.4237  0.3716
  607MOL0     H81940   3.696   4.366   1.764  0.9598 -0.3947  2.0184
  607MOL0     H81941   3.722   4.125   1.584  0.8810  1.1159 -1.7535
  607MOL0     H81942   3.596   4.244   1.585 -1.1771 -1.2838  0.5832
  607MOL0     H81943   3.460   3.921   1.811  2.5487 -1.9310 -2.8859
  607MOL0     H81944   4.089   3.995   1.857 -0.7463 -0.8153 -0.1719
  607MOL0     H81945   4.195   3.812   1.940 -1.8090  1.0110 -2.4888
  608MOL0     O81946   6.611   7.748   4.906 -0.3014  0.1235 -0.3618
  608MOL0     C81947   6.561   7.806   4.810  0.5584  0.0557  0.4341
  608MOL0     O81948   6.481   7.916   4.817 -0.2419  0.1283  0.9378
  608MOL0     C81949   6.448   7.980   4.938 -0.7973  1.0512  0.1042
  608MOL0     C81950   6.453   7.932   5.073  0.6275  0.7606 -0.3111
  608MOL0     C81951   6.423   8.008   5.187 -0.8343  0.5284 -0.3712
  608MOL0     C81952   6.358   8.129   5.173 -0.8846  0.6417  0.0270
  608MOL0     O81953   6.285   8.172   5.277  0.2587 -0.4701  0.1274
  608MOL0     C81954   6.189   8.275   5.265 -0.8719  0.6018 -0.1744
  608MOL0     C81955   6.117   8.289   5.401  0.0957 -1.0218 -0.4058
  608MOL0     C81956   5.986   8.367   5.355 -0.3353  0.4045 -0.2956
  608MOL0     C81957   6.021   8.512   5.305  0.0028  0.1068 -0.2293
  608MOL0     C81958   5.888   8.576   5.265  0.9021  0.4500  0.3818
  608MOL0     C81959   5.789   8.610   5.376 -0.0890 -0.4867 -0.4234
  608MOL0     C81960   5.651   8.676   5.313  0.4034  0.2148  0.1351
  608MOL0     C81961   5.536   8.665   5.413  1.0854 -0.5102  0.0132
  608MOL0     N81962   5.570   8.709   5.546 -0.3450  0.0636  0.8274
  608MOL0     C81963   5.564   8.835   5.601 -0.2939  0.1017  0.0330
  608MOL0     C81964   5.594   8.838   5.731 -0.4427  0.7389  0.0671
  608MOL0     C81965   5.591   8.957   5.827  0.5601  0.1035 -0.0922
  608MOL0     C81966   5.551   9.092   5.760  0.5085  0.1282  0.3987
  608MOL0     C81967   5.541   9.205   5.858 -0.7320  0.0383  0.0082
  608MOL0     C81968   5.491   9.342   5.797  0.5748 -0.1964  1.3863
  608MOL0     O81969   5.505   9.447   5.897  0.6121  0.6240  0.6758
  608MOL0     C81970   5.455   9.574   5.853 -0.2313 -0.1020  0.5265
  608MOL0     C81971   5.515   9.680   5.922 -0.2999 -0.3074 -0.2915
  608MOL0     C81972   5.484   9.809   5.891  0.1825 -0.1331 -0.0114
  608MOL0     C81973   5.545   9.912   5.989  0.7173 -0.8507  0.6489
  608MOL0     C81974   5.384   9.839   5.798  0.7536  0.2821 -0.4526
  608MOL0     C81975   5.324   9.972   5.764  0.8345 -0.6254  0.5678
  608MOL0     O81976   5.186   9.966   5.734  0.3522 -0.2972 -0.3526
  608MOL0     C81977   5.119  10.075   5.694 -0.0764  0.1058  0.3965
  608MOL0     C81978   5.168  10.183   5.619  0.4733 -0.1034  0.6273
  608MOL0     C81979   5.087  10.294   5.583 -1.2757 -0.4966 -1.3713
  608MOL0     C81980   4.953  10.297   5.628 -0.2279 -0.4126 -0.1543
  608MOL0     O81981   4.876  10.404   5.597 -0.2704 -0.0816  0.0390
  608MOL0     C81982   4.943  10.534   5.583 -0.1009  0.0189  0.0111
  608MOL0     C81983   4.838  10.642   5.608  0.3121 -0.1577  0.6399
  608MOL0     C81984   4.892  10.787   5.636 -0.2083  0.4371  0.2422
  608MOL0     C81985   4.938  10.862   5.509 -0.1726  0.2863 -0.3737
  608MOL0     C81986   5.020  10.989   5.564 -0.3986 -0.9774 -0.3787
  608MOL0     C81987   5.093  11.044   5.446  0.4372 -0.4411 -0.0590
  608MOL0     C81988   5.005  11.120   5.349 -0.2228 -0.4470 -0.1181
  608MOL0     C81989   5.083  11.200   5.244  0.5491  0.7762 -0.2292
  608MOL0    Cl81990   4.976  11.239   5.110  0.3453  0.3161 -0.3167
  608MOL0     C81991   4.896  10.188   5.695 -0.4892  0.4606  0.6100
  608MOL0     C81992   4.983  10.083   5.732 -0.3328  0.0278 -0.1543
  608MOL0     O81993   5.399  10.077   5.752 -0.1591 -0.3588 -0.2405
  608MOL0     C81994   5.332   9.726   5.727  0.5982  0.2311 -0.3094
  608MOL0     C81995   5.365   9.594   5.750 -0.2366  0.3712 -0.1042
  608MOL0     N81996   5.641   8.706   5.744  0.4063 -0.2948  0.7210
  608MOL0     N81997   5.622   8.628   5.642  0.3468  0.1534  0.3043
  608MOL0     C81998   6.361   8.181   5.037  0.0858  0.0574 -0.4225
  608MOL0     C81999   6.419   8.112   4.926 -0.0594 -0.4837  0.3262
  608MOL0     C82000   6.580   7.747   4.674 -0.3339  0.2740 -0.4462
  608MOL0     C82001   6.582   7.606   4.660 -0.4962  0.4263 -0.0643
  608MOL0     C82002   6.605   7.558   4.532  0.0850  0.1658  0.2680
  608MOL0     C82003   6.606   7.638   4.413  0.1652 -0.0521 -0.6201
  608MOL0     O82004   6.622   7.588   4.285  0.2587  0.0749 -0.0276
  608MOL0     C82005   6.526   7.502   4.238 -0.4643 -0.6789  0.3620
  608MOL0     C82006   6.439   7.574   4.141  0.2935 -0.3027  1.3644
  608MOL0     C82007   6.318   7.494   4.106 -0.8062  0.3987  0.5028
  608MOL0     C82008   6.200   7.571   4.045  0.3604 -0.2511  0.4837
  608MOL0     C82009   6.154   7.698   4.104 -0.0257 -0.7618  0.1417
  608MOL0     C82010   6.134   7.809   4.133  0.0358  0.4351 -0.1883
  608MOL0     C82011   6.588   7.767   4.428  0.6790  0.0609 -0.3971
  608MOL0     C82012   6.576   7.823   4.557 -1.0293 -0.4225 -0.6408
  608MOL0     H82013   6.488   7.831   5.096  2.6713  1.4331 -0.2700
  608MOL0     H82014   6.417   7.971   5.289 -0.2981 -0.4504 -0.6913
  608MOL0     H82015   6.228   8.373   5.237  1.9374 -0.2540  0.4064
  608MOL0     H82016   6.124   8.235   5.186  0.5836 -1.1163 -0.5791
  608MOL0     H82017   6.106   8.190   5.445 -3.3694 -0.0332  1.3118
  608MOL0     H82018   6.163   8.351   5.479  2.0265 -0.4079 -1.9458
  608MOL0     H82019   5.926   8.304   5.288 -0.6161 -4.3605  3.8747
  608MOL0     H82020   5.925   8.370   5.446 -0.7959 -1.7481 -0.4998
  608MOL0     H82021   6.069   8.569   5.385  1.8972  1.0410 -1.9388
  608MOL0     H82022   6.086   8.514   5.217  2.0429 -2.6213  1.0713
  608MOL0     H82023   5.914   8.667   5.210 -3.4742  2.2250  0.8237
  608MOL0     H82024   5.839   8.509   5.194  2.3450  0.3769 -0.5819
  608MOL0     H82025   5.772   8.529   5.447  0.4674  0.9348  1.4205
  608MOL0     H82026   5.843   8.690   5.428 -0.6900  0.6619 -1.5249
  608MOL0     H82027   5.683   8.779   5.298  2.4892 -0.2447  1.0349
  608MOL0     H82028   5.618   8.650   5.212 -0.3390  1.7228 -0.0332
  608MOL0     H82029   5.503   8.561   5.401  1.0388 -0.2145 -3.2417
  608MOL0     H82030   5.452   8.729   5.387  2.2818  0.9945 -0.2825
  608MOL0     H82031   5.518   8.915   5.544  0.9015 -0.3804 -1.6586
  608MOL0     H82032   5.528   8.940   5.914  1.7403  0.8684  0.9349
  608MOL0     H82033   5.693   8.975   5.864  0.7326 -1.1066  0.0719
  608MOL0     H82034   5.451   9.083   5.717 -1.1430  3.8821  2.9258
  608MOL0     H82035   5.629   9.114   5.686  1.6199  0.1405  1.5341
  608MOL0     H82036   5.644   9.233   5.883 -0.7478  3.4229 -2.9146
  608MOL0     H82037   5.487   9.169   5.945 -0.1062  2.0215  1.2859
  608MOL0     H82038   5.385   9.334   5.773  0.8061 -1.1465  0.6009
  608MOL0     H82039   5.520   9.359   5.693 -1.9744 -2.1414  0.2389
  608MOL0     H82040   5.577   9.670   6.011 -1.4703  0.4648  0.6376
  608MOL0     H82041   5.509  10.011   5.959  1.3527  0.2465  3.1933
  608MOL0     H82042   5.509   9.896   6.091  0.6755  2.2361  1.2136
  608MOL0     H82043   5.654   9.916   5.994  0.7944 -1.2589 -0.4995
  608MOL0     H82044   5.262  10.176   5.564 -1.6570  0.5373 -3.5119
  608MOL0     H82045   5.132  10.374   5.524 -0.7854 -2.1839 -3.3802
  608MOL0     H82046   5.020  10.547   5.660  1.7660 -2.1174 -1.3853
  608MOL0     H82047   4.997  10.548   5.489 -1.2612 -0.9218 -0.8146
  608MOL0     H82048   4.764  10.641   5.528 -1.2455 -0.2727  2.0445
  608MOL0     H82049   4.792  10.611   5.702  2.9143  0.0536  2.0871
  608MOL0     H82050   4.978  10.781   5.704  0.8114 -2.0259 -1.1291
  608MOL0     H82051   4.814  10.842   5.690 -0.6878 -0.1094  0.1189
  608MOL0     H82052   5.004  10.787   5.464 -1.1074 -2.8992  3.0106
  608MOL0     H82053   4.857  10.879   5.438 -1.1604  3.9677  1.3818
  608MOL0     H82054   5.084  10.973   5.651 -1.4348  3.0477  1.3564
  608MOL0     H82055   4.949  11.059   5.611 -0.5729 -3.7442  4.1136
  608MOL0     H82056   5.165  11.114   5.488 -1.5583  2.5746 -1.2854
  608MOL0     H82057   5.144  10.963   5.393 -2.4852 -3.0114  0.7231
  608MOL0     H82058   4.942  11.188   5.408  0.3296 -0.3120  0.3232
  608MOL0     H82059   4.932  11.055   5.300 -0.7230  0.5946 -0.7857
  608MOL0     H82060   5.156  11.131   5.201  2.1278  1.7073  0.8643
  608MOL0     H82061   5.140  11.277   5.297  1.8714 -2.0155  2.7540
  608MOL0     H82062   4.788  10.179   5.693 -0.3390 -5.3298 -0.4582
  608MOL0     H82063   4.938   9.999   5.784 -0.1895 -0.9755 -1.5935
  608MOL0     H82064   5.262   9.733   5.645  4.6423 -1.7691 -4.4340
  608MOL0     H82065   5.318   9.514   5.693  1.1608  0.5457 -1.6086
  608MOL0     H82066   6.318   8.276   5.006  1.1324  0.4232 -0.8032
  608MOL0     H82067   6.438   8.164   4.832 -0.6929  1.6361  1.3081
  608MOL0     H82068   6.579   7.538   4.744  0.7028  1.1740  0.6203
  608MOL0     H82069   6.613   7.450   4.523  2.0548  0.4095 -2.1923
  608MOL0     H82070   6.576   7.415   4.194 -1.4706  0.6350 -3.8575
  608MOL0     H82071   6.459   7.458   4.311 -2.3034 -0.4074 -1.0833
  608MOL0     H82072   6.488   7.610   4.050 -3.4994  0.8785 -0.4459
  608MOL0     H82073   6.408   7.664   4.195  2.6480 -0.3634  2.9831
  608MOL0     H82074   6.285   7.460   4.205 -1.9314 -2.3935 -0.7109
  608MOL0     H82075   6.335   7.404   4.046  0.4582  0.7177  0.3496
  608MOL0     H82076   6.114   7.506   4.066 -0.0334  0.2729  0.5018
  608MOL0     H82077   6.216   7.583   3.938  0.7954 -2.2291  0.2827
  608MOL0     H82078   6.127   7.910   4.169 -1.5393 -0.0004  0.8036
  608MOL0     H82079   6.577   7.827   4.338 -2.0338 -1.1266 -0.9564
  608MOL0     H82080   6.541   7.925   4.567 -0.3185 -0.2798  0.6709
  609MOL0     O82081   5.504   4.806   2.949  0.3053 -0.1188  0.5944
  609MOL0     C82082   5.418   4.878   3.006  0.1580 -0.1474 -0.8492
  609MOL0     O82083   5.434   4.928   3.137 -0.4213  0.6720  0.3899
  609MOL0     C82084   5.553   4.896   3.195 -0.5376 -0.0571 -0.1372
  609MOL0     C82085   5.658   4.987   3.163 -1.0310  0.4950  0.0013
  609MOL0     C82086   5.781   4.973   3.237 -0.1569  0.7917 -0.3844
  609MOL0     C82087   5.792   4.898   3.345 -1.0450  0.6226  0.0043
  609MOL0     O82088   5.911   4.904   3.425  0.9226  0.0322 -0.0193
  609MOL0     C82089   6.019   4.846   3.363 -0.0125 -0.4453  1.8177
  609MOL0     C82090   6.148   4.881   3.445  0.0048 -0.0181 -0.6922
  609MOL0     C82091   6.174   5.029   3.431  0.3306  0.2729  0.3257
  609MOL0     C82092   6.201   5.116   3.555  0.2991  0.8519 -0.2447
  609MOL0     C82093   6.292   5.224   3.503  0.5360  0.3318  0.2190
  609MOL0     C82094   6.331   5.313   3.620  0.1177  0.1903 -0.4567
  609MOL0     C82095   6.220   5.369   3.717 -0.1491  0.2616  0.1149
  609MOL0     C82096   6.119   5.465   3.651 -0.7360  0.9938 -0.4821
  609MOL0     N82097   6.022   5.520   3.764 -0.3566  0.8993 -0.0852
  609MOL0     C82098   5.983   5.456   3.874  0.6316  0.0707 -0.3054
  609MOL0     C82099   5.932   5.553   3.949  0.4511  0.8353 -0.2534
  609MOL0     C82100   5.861   5.505   4.078  0.6329 -1.5725 -0.2370
  609MOL0     C82101   5.893   5.607   4.193  0.1174 -0.2907  0.2305
  609MOL0     C82102   5.853   5.535   4.321 -0.0080 -0.6501  0.1176
  609MOL0     C82103   5.841   5.640   4.433 -0.4503  0.2580  0.3290
  609MOL0     O82104   5.769   5.589   4.544  0.1926 -0.4401  0.2280
  609MOL0     C82105   5.839   5.511   4.635 -0.2854 -0.1147  0.2527
  609MOL0     C82106   5.982   5.495   4.641  0.7826 -0.1171 -0.0439
  609MOL0     C82107   6.042   5.435   4.751  0.7778 -0.0393 -1.5240
  609MOL0     C82108   6.195   5.448   4.761  0.0576  0.8128 -0.8478
  609MOL0     C82109   5.964   5.372   4.856  0.6172  0.0382 -0.1363
  609MOL0     C82110   6.021   5.307   4.968 -1.1982 -0.1410  0.3070
  609MOL0     O82111   6.101   5.195   4.934 -0.6048  0.5692 -0.4419
  609MOL0     C82112   6.133   5.097   5.022  0.4864 -0.0559  0.0533
  609MOL0     C82113   6.247   5.025   4.988  0.0285  0.3796  0.0225
  609MOL0     C82114   6.286   4.924   5.078 -0.0562  0.6590 -0.4775
  609MOL0     C82115   6.228   4.898   5.207 -0.5931  0.2731  0.3030
  609MOL0     O82116   6.273   4.800   5.287 -0.1713  0.1284 -0.4397
  609MOL0     C82117   6.366   4.706   5.251 -0.9986  0.3990  0.6447
  609MOL0     C82118   6.442   4.654   5.375  0.6721 -1.3300 -0.3451
  609MOL0     C82119   6.485   4.501   5.368  0.2813  0.1365  0.4631
  609MOL0     C82120   6.361   4.402   5.358 -1.3391 -0.0826  0.2037
  609MOL0     C82121   6.426   4.261   5.357  0.2699 -0.2842 -0.5078
  609MOL0     C82122   6.342   4.152   5.282 -0.7702 -0.4219  0.4183
  609MOL0     C82123   6.198   4.160   5.329  0.7264 -0.2692 -0.0221
  609MOL0     C82124   6.108   4.040   5.283 -0.2451  0.0447 -0.9143
  609MOL0    Cl82125   6.141   3.904   5.379 -0.1530  0.1738  0.4553
  609MOL0     C82126   6.113   4.972   5.235  0.0753 -0.9386 -0.0214
  609MOL0     C82127   6.071   5.070   5.149 -1.8817 -0.6037  0.8264
  609MOL0     O82128   5.997   5.346   5.082 -0.2883 -0.1761  1.0550
  609MOL0     C82129   5.820   5.393   4.851  0.1048 -0.2083 -0.4403
  609MOL0     C82130   5.756   5.466   4.741 -0.5430 -0.0409 -0.5070
  609MOL0     N82131   5.947   5.679   3.897 -0.6192  0.4000  0.7249
  609MOL0     N82132   6.008   5.657   3.780  0.0243 -0.6049  0.2071
  609MOL0     C82133   5.697   4.797   3.355 -0.3812  0.4327  0.1535
  609MOL0     C82134   5.575   4.796   3.285 -0.4494  0.2625 -0.2391
  609MOL0     C82135   5.289   4.903   2.943 -1.2730  0.5339  0.2299
  609MOL0     C82136   5.235   4.809   2.848 -0.9260  1.2015 -0.1407
  609MOL0     C82137   5.109   4.829   2.801  0.1297  0.5889 -0.3212
  609MOL0     C82138   5.031   4.937   2.831 -0.0197 -0.5214  0.5047
  609MOL0     O82139   4.900   4.956   2.777 -0.3607  1.0814 -0.5164
  609MOL0     C82140   4.809   5.054   2.830  0.8428 -0.0341  0.9238
  609MOL0     C82141   4.696   5.082   2.731 -0.2428 -0.3661 -0.5359
  609MOL0     C82142   4.612   4.952   2.710  0.0825  1.2752 -0.6931
  609MOL0     C82143   4.487   4.934   2.795 -0.2948  0.2049 -0.4966
  609MOL0     C82144   4.501   4.867   2.926 -0.1318 -0.2263  0.4308
  609MOL0     C82145   4.508   4.834   3.040 -0.4590  0.8073 -0.0218
  609MOL0     C82146   5.084   5.035   2.924 -0.8437 -0.6782  0.6607
  609MOL0     C82147   5.218   5.015   2.974  0.5234  0.6564 -0.4965
  609MOL0     H82148   5.649   5.063   3.087  0.4225 -0.2425 -0.9544
  609MOL0     H82149   5.868   5.032   3.209  0.8419 -0.8964 -0.9528
  609MOL0     H82150   6.011   4.737   3.352  2.7975 -0.7328  2.0360
  609MOL0     H82151   6.030   4.884   3.261 -0.5911 -3.1325  0.6612
  609MOL0     H82152   6.138   4.852   3.550 -1.0931  1.8303 -0.2512
  609MOL0     H82153   6.229   4.826   3.396 -0.1829 -1.6766  0.7421
  609MOL0     H82154   6.260   5.040   3.364  0.4640  3.4092  0.8524
  609MOL0     H82155   6.090   5.075   3.378 -0.8012 -1.0766  0.8985
  609MOL0     H82156   6.107   5.162   3.586 -0.5560 -0.7598 -0.3309
  609MOL0     H82157   6.240   5.067   3.645  1.0057 -0.1154 -1.0677
  609MOL0     H82158   6.384   5.182   3.462  2.6606  1.6360  3.2549
  609MOL0     H82159   6.237   5.281   3.429  0.7131  0.4894  0.2067
  609MOL0     H82160   6.412   5.262   3.674  0.2172  1.4839  0.6746
  609MOL0     H82161   6.380   5.399   3.573 -2.3647  1.5281 -0.7504
  609MOL0     H82162   6.177   5.280   3.763  3.2497  0.2085  3.7297
  609MOL0     H82163   6.274   5.431   3.789  0.0459 -0.1481  0.3225
  609MOL0     H82164   6.056   5.407   3.582 -0.8634  1.9732 -1.2123
  609MOL0     H82165   6.174   5.537   3.590 -1.7767  0.9927 -1.4646
  609MOL0     H82166   5.979   5.350   3.895 -2.9542  0.0231 -0.5814
  609MOL0     H82167   5.755   5.482   4.067  0.4628 -0.8685 -0.1232
  609MOL0     H82168   5.912   5.416   4.115  1.9371 -0.5827  0.4425
  609MOL0     H82169   5.830   5.695   4.177  1.3426  0.7753  1.0663
  609MOL0     H82170   5.999   5.631   4.195  0.4091 -1.5155  1.7754
  609MOL0     H82171   5.923   5.459   4.356  2.1016  1.0227 -0.2895
  609MOL0     H82172   5.756   5.484   4.318  0.8903 -2.4141 -1.3784
  609MOL0     H82173   5.783   5.719   4.384  0.0010 -0.3170 -1.1880
  609MOL0     H82174   5.943   5.676   4.451  0.7568 -1.9962 -1.5303
  609MOL0     H82175   6.050   5.530   4.564  2.1400 -0.6706  0.8522
  609MOL0     H82176   6.220   5.342   4.761 -3.3502 -0.1075 -1.2331
  609MOL0     H82177   6.244   5.507   4.683 -3.0883  1.1752 -2.7211
  609MOL0     H82178   6.223   5.490   4.858 -0.7524 -1.3352  0.3748
  609MOL0     H82179   6.313   5.046   4.905  2.5345 -2.2041  1.1943
  609MOL0     H82180   6.373   4.879   5.031  0.5643  1.9721 -0.6095
  609MOL0     H82181   6.328   4.634   5.178 -0.0908 -1.2624  1.7618
  609MOL0     H82182   6.444   4.755   5.191 -3.2111  1.3699 -1.6239
  609MOL0     H82183   6.532   4.715   5.381  0.3242 -0.7519 -0.8354
  609MOL0     H82184   6.384   4.674   5.466  2.1659 -3.7915  1.2830
  609MOL0     H82185   6.550   4.493   5.456  0.9615 -2.4646 -0.1836
  609MOL0     H82186   6.538   4.487   5.273 -1.4037 -2.1754 -0.2301
  609MOL0     H82187   6.287   4.417   5.437 -4.4207  0.6703 -2.5791
  609MOL0     H82188   6.311   4.417   5.262  0.3835 -0.3791 -0.7849
  609MOL0     H82189   6.437   4.223   5.459  2.2729  0.0598 -0.5554
  609MOL0     H82190   6.525   4.249   5.313 -0.3145 -3.3083 -1.1947
  609MOL0     H82191   6.352   4.165   5.174  0.7545 -2.5577  0.2506
  609MOL0     H82192   6.393   4.058   5.305  5.1753  1.5850 -2.5332
  609MOL0     H82193   6.150   4.251   5.291  4.3707  1.5637 -0.7283
  609MOL0     H82194   6.198   4.156   5.438 -2.1987  0.0825  0.0808
  609MOL0     H82195   6.128   4.026   5.176 -3.6037  2.5773 -2.0560
  609MOL0     H82196   6.007   4.080   5.291 -0.3869 -0.6832  1.7218
  609MOL0     H82197   6.061   4.950   5.328  0.6292  1.0837  0.8154
  609MOL0     H82198   5.995   5.141   5.181  0.9351  2.0721  2.0973
  609MOL0     H82199   5.759   5.347   4.928  2.0294  0.2485  1.4540
  609MOL0     H82200   5.654   5.501   4.740 -0.8526 -0.7798  1.4013
  609MOL0     H82201   5.730   4.741   3.442 -1.6202  0.4784  0.6746
  609MOL0     H82202   5.500   4.724   3.315  0.2786  1.6316  6.1347
  609MOL0     H82203   5.293   4.722   2.818 -1.2590  0.7194  0.5887
  609MOL0     H82204   5.074   4.749   2.737 -2.0691 -0.4499  2.0040
  609MOL0     H82205   4.784   5.008   2.927  0.7655 -3.6725 -0.6430
  609MOL0     H82206   4.867   5.146   2.841  1.4955 -0.1880 -0.8829
  609MOL0     H82207   4.744   5.114   2.638  3.8522 -0.4463  1.3277
  609MOL0     H82208   4.644   5.170   2.771  0.3670 -1.1489  2.2321
  609MOL0     H82209   4.667   4.858   2.721  0.4774  1.6528  0.8748
  609MOL0     H82210   4.578   4.963   2.607  2.6889  3.0298 -1.4707
  609MOL0     H82211   4.423   4.864   2.742  2.7759 -2.8745 -0.4765
  609MOL0     H82212   4.428   5.026   2.803 -2.4834 -1.3057  3.0303
  609MOL0     H82213   4.533   4.790   3.134  1.5366  0.0173 -0.8460
  609MOL0     H82214   5.035   5.129   2.951  1.2639  0.7474 -0.2158
  609MOL0     H82215   5.255   5.093   3.040  0.8142 -0.3728  0.5831
  610MOL0     O82216   0.219   3.214   9.999 -0.0689 -0.8447  0.7579
  610MOL0     C82217   0.119   3.227   9.928  0.5431 -0.1211 -0.5935
  610MOL0     O82218   0.022   3.317   9.946  0.3046 -0.9540  0.7257
  610MOL0     C82219   0.049   3.438  10.010  0.1580  0.3904  0.8995
  610MOL0     C82220   0.056   3.562   9.949 -0.4692 -0.1907  0.5841
  610MOL0     C82221   0.056   3.686  10.016 -0.2431  0.5080  0.1434
  610MOL0     C82222   0.066   3.681  10.157  0.8761 -0.9279  0.0549
  610MOL0     O82223   0.060   3.793  10.240  0.7563 -0.3778  0.1261
  610MOL0     C82224   0.154   3.905  10.219  0.2263 -0.7813  1.0447
  610MOL0     C82225   0.297   3.863  10.240  0.0582 -0.1122  0.3306
  610MOL0     C82226   0.365   3.888  10.369 -0.2102 -0.2707 -0.0029
  610MOL0     C82227   0.386   4.030  10.391  0.5831  0.4988  0.0297
  610MOL0     C82228   0.408   4.067  10.539  0.3917 -0.4290  1.0087
  610MOL0     C82229   0.282   4.073  10.622 -0.1920 -0.2267  0.5743
  610MOL0     C82230   0.312   4.108  10.768 -0.0541  0.2396  0.0456
  610MOL0     C82231   0.373   4.250  10.792 -0.1199 -0.7591  0.6532
  610MOL0     N82232   0.284   4.346  10.732 -0.1463  0.1769  0.0055
  610MOL0     C82233   0.148   4.362  10.750 -0.2215  0.0043  0.7625
  610MOL0     C82234   0.112   4.464  10.665 -0.3013 -0.5425  0.0329
  610MOL0     C82235  -0.023   4.527  10.622 -1.1225 -0.2464  0.4112
  610MOL0     C82236  -0.146   4.442  10.659 -0.4186  1.1211 -0.2485
  610MOL0     C82237  -0.275   4.535  10.638  0.8880  0.1997 -0.5195
  610MOL0     C82238  -0.343   4.507  10.504  0.3130  0.2456  1.0379
  610MOL0     O82239  -0.414   4.385  10.520 -0.0833  0.6062  0.7542
  610MOL0     C82240  -0.475   4.336  10.403  0.6286  0.2789 -0.4328
  610MOL0     C82241  -0.462   4.395  10.275 -0.2977 -0.4548  0.2759
  610MOL0     C82242  -0.534   4.346  10.160  0.3021  0.9747  0.3504
  610MOL0     C82243  -0.533   4.436  10.044 -0.4700 -0.7871  0.8582
  610MOL0     C82244  -0.622   4.240  10.166 -0.4084 -0.4097  0.4300
  610MOL0     C82245  -0.699   4.189  10.043  0.0609 -0.9530  0.1088
  610MOL0     O82246  -0.703   4.057  10.053  0.5670 -0.3461  0.6461
  610MOL0     C82247  -0.766   3.983   9.957  0.1022 -0.0138  0.2496
  610MOL0     C82248  -0.822   3.862   9.985  0.5698 -0.0597  0.5413
  610MOL0     C82249  -0.871   3.778   9.878  0.2470 -0.0318 -0.4768
  610MOL0     C82250  -0.862   3.814   9.745  0.3482 -0.2719 -0.0718
  610MOL0     O82251  -0.905   3.736   9.645 -0.7694  0.1957 -0.6484
  610MOL0     C82252  -0.862   3.598   9.669 -0.7920  0.6743  1.5943
  610MOL0     C82253  -0.897   3.511   9.546 -0.4960 -0.2280 -0.6159
  610MOL0     C82254  -0.875   3.358   9.564 -0.4864 -0.3629 -0.2423
  610MOL0     C82255  -0.860   3.282   9.428 -0.2321 -0.3121 -1.5614
  610MOL0     C82256  -0.865   3.132   9.432  0.7085  0.3561  0.6911
  610MOL0     C82257  -0.759   3.051   9.509 -0.1088 -1.0139  0.3392
  610MOL0     C82258  -0.797   2.912   9.542 -0.0810 -0.0392  0.6987
  610MOL0     C82259  -0.749   2.866   9.681  0.4957  0.3373  0.1190
  610MOL0    Cl82260  -0.817   2.959   9.819 -0.1158 -0.1858 -0.0230
  610MOL0     C82261  -0.802   3.933   9.718  0.1460  0.0326 -0.3316
  610MOL0     C82262  -0.759   4.019   9.822  0.1442  0.2882 -0.1646
  610MOL0     O82263  -0.781   4.261   9.976 -0.5501 -1.2041 -0.1730
  610MOL0     C82264  -0.615   4.169  10.293  0.1652  0.5359 -0.2766
  610MOL0     C82265  -0.549   4.210  10.410 -0.1468  0.4392 -0.7053
  610MOL0     N82266   0.222   4.509  10.601  0.4683 -0.1648 -0.5973
  610MOL0     N82267   0.320   4.437  10.634  0.6971  0.5769 -0.2256
  610MOL0     C82268   0.045   3.557  10.220 -0.7480  0.4728 -0.1813
  610MOL0     C82269   0.040   3.437  10.145 -0.2933  0.7398 -0.3520
  610MOL0     C82270   0.100   3.126   9.824  0.1125  0.2909  0.2293
  610MOL0     C82271   0.197   3.076   9.745  0.1816  0.1240 -0.0332
  610MOL0     C82272   0.175   2.987   9.643  0.2047 -1.1320  0.1839
  610MOL0     C82273   0.042   2.938   9.623  0.8407  0.0799 -0.2266
  610MOL0     O82274   0.020   2.839   9.529 -0.3479  0.5541  0.2265
  610MOL0     C82275  -0.096   2.842   9.450 -0.3219  0.2012 -0.5341
  610MOL0     C82276  -0.133   2.706   9.396  0.7586 -0.6281 -1.0176
  610MOL0     C82277  -0.188   2.626   9.521  0.0380  0.3744  0.3002
  610MOL0     C82278  -0.303   2.522   9.484  0.3097 -0.6728  0.2327
  610MOL0     C82279  -0.263   2.439   9.370  0.1273  0.4189  0.3526
  610MOL0     C82280  -0.246   2.366   9.279 -0.5891  0.0335 -0.5076
  610MOL0     C82281  -0.064   2.993   9.696  0.0652 -0.3647 -0.1060
  610MOL0     C82282  -0.035   3.101   9.788  0.2497  0.4430 -0.2260
  610MOL0     H82283   0.061   3.560   9.841 -1.1155  0.1334  0.5376
  610MOL0     H82284   0.058   3.778   9.960 -0.8218 -1.0873 -2.6746
  610MOL0     H82285   0.130   3.958  10.126  0.0983 -1.0047  0.9504
  610MOL0     H82286   0.138   3.985  10.292  2.4217 -0.8445  1.6700
  610MOL0     H82287   0.298   3.754  10.227 -0.7527 -0.3574  2.1487
  610MOL0     H82288   0.364   3.909  10.166 -1.9554  2.3557 -0.0793
  610MOL0     H82289   0.291   3.844  10.437 -3.0088 -3.7157 -4.6636
  610MOL0     H82290   0.459   3.833  10.374 -0.3498 -0.8738 -2.6087
  610MOL0     H82291   0.474   4.054  10.331 -0.7610 -1.1270 -2.8828
  610MOL0     H82292   0.298   4.087  10.360  0.7142  0.7092  0.0444
  610MOL0     H82293   0.475   3.994  10.585  0.1720 -2.4184 -1.5795
  610MOL0     H82294   0.468   4.159  10.537  0.2447 -0.3358  0.5889
  610MOL0     H82295   0.218   4.151  10.579  0.5219 -0.2820 -0.6280
  610MOL0     H82296   0.240   3.972  10.621  1.1218 -0.8426 -2.4575
  610MOL0     H82297   0.222   4.104  10.830 -2.5226 -0.9338 -3.3438
  610MOL0     H82298   0.385   4.032  10.796 -0.1974  0.2855  0.5499
  610MOL0     H82299   0.471   4.253  10.744 -0.1006  0.3650  0.7352
  610MOL0     H82300   0.387   4.265  10.899 -1.0129  0.1726  0.6571
  610MOL0     H82301   0.080   4.300  10.808 -0.7270 -1.8207 -1.6121
  610MOL0     H82302  -0.023   4.631  10.656  2.0168 -0.0727  0.1850
  610MOL0     H82303  -0.018   4.527  10.513 -1.6644 -2.3224  0.3420
  610MOL0     H82304  -0.146   4.401  10.760 -1.2767 -0.3931 -0.8288
  610MOL0     H82305  -0.160   4.356  10.594  0.5264  1.5153 -1.0005
  610MOL0     H82306  -0.252   4.642  10.643  3.4000 -0.3282  2.2594
  610MOL0     H82307  -0.350   4.519  10.716  1.8128  0.9854  0.5821
  610MOL0     H82308  -0.258   4.490  10.437 -0.7281  0.7668 -0.4883
  610MOL0     H82309  -0.409   4.592  10.482  1.4665  0.8613 -0.2103
  610MOL0     H82310  -0.405   4.485  10.250 -1.7226  0.4097  0.0225
  610MOL0     H82311  -0.569   4.534  10.078 -0.6119 -0.8601  0.9185
  610MOL0     H82312  -0.432   4.444  10.001 -0.9923  2.0718 -0.0586
  610MOL0     H82313  -0.594   4.409   9.958 -0.9697 -3.6718  2.0002
  610MOL0     H82314  -0.833   3.835  10.089  2.0983 -3.2912 -0.0169
  610MOL0     H82315  -0.911   3.683   9.911 -2.1229  1.3690  0.9505
  610MOL0     H82316  -0.754   3.608   9.683 -0.4036  2.0311 -1.4813
  610MOL0     H82317  -0.917   3.547   9.748 -0.3082 -2.4416  0.0949
  610MOL0     H82318  -1.000   3.537   9.521 -0.7306 -1.7651 -1.3817
  610MOL0     H82319  -0.838   3.547   9.461 -1.5785 -1.4867 -1.9688
  610MOL0     H82320  -0.954   3.303   9.617 -0.9337 -0.2215 -0.7473
  610MOL0     H82321  -0.784   3.349   9.623 -0.2184  1.0657 -0.4036
  610MOL0     H82322  -0.944   3.324   9.371 -1.2374  1.6449  1.1735
  610MOL0     H82323  -0.765   3.313   9.383 -0.2174  2.7075  0.2786
  610MOL0     H82324  -0.874   3.101   9.327 -3.5858  2.7200  0.1474
  610MOL0     H82325  -0.963   3.109   9.475  0.2358 -1.5421 -1.2062
  610MOL0     H82326  -0.663   3.055   9.456  0.6889 -1.6072  1.6669
  610MOL0     H82327  -0.731   3.098   9.603 -1.5982 -0.7742  0.6768
  610MOL0     H82328  -0.746   2.844   9.473  0.5410  0.7157  0.3984
  610MOL0     H82329  -0.906   2.914   9.542 -0.1008 -0.8119  0.5626
  610MOL0     H82330  -0.640   2.876   9.682  0.5233  0.8243 -2.5286
  610MOL0     H82331  -0.777   2.762   9.701  2.0394  0.3755  3.0561
  610MOL0     H82332  -0.784   3.954   9.613 -0.0335 -2.4692 -0.9305
  610MOL0     H82333  -0.720   4.114   9.787 -2.0841  1.6493  0.8380
  610MOL0     H82334  -0.677   4.080  10.290 -1.8610  1.9085 -2.2424
  610MOL0     H82335  -0.557   4.155  10.503  2.8671  0.1449 -0.5068
  610MOL0     H82336   0.034   3.549  10.327  0.1001 -0.7447 -0.1610
  610MOL0     H82337   0.022   3.347  10.202  2.3575  0.9238  0.9112
  610MOL0     H82338   0.302   3.097   9.763  1.0682 -4.5268  1.6650
  610MOL0     H82339   0.262   2.955   9.587 -0.4787  0.5370 -1.9237
  610MOL0     H82340  -0.184   2.882   9.502  0.6072  1.9411 -0.2282
  610MOL0     H82341  -0.086   2.914   9.369  0.7400 -0.8299 -1.3596
  610MOL0     H82342  -0.054   2.654   9.342  1.6901 -0.6794  0.3253
  610MOL0     H82343  -0.219   2.731   9.334 -1.7039  1.7330  2.8691
  610MOL0     H82344  -0.230   2.700   9.589  2.5525  2.1023  0.1082
  610MOL0     H82345  -0.105   2.578   9.573 -1.6566 -0.0875  2.7495
  610MOL0     H82346  -0.401   2.569   9.476  1.4108  1.6645 -0.3672
  610MOL0     H82347  -0.316   2.468   9.578 -0.7925  1.7476  1.5756
  610MOL0     H82348  -0.228   2.295   9.201  1.3342  0.3336 -0.3967
  610MOL0     H82349  -0.168   2.967   9.677  0.4291 -0.0238 -3.0856
  610MOL0     H82350  -0.119   3.145   9.841 -0.6786  0.2243 -1.4645
  611MOL0     O82351   6.985   4.258   3.502 -0.4419 -0.0979 -1.1452
  611MOL0     C82352   6.967   4.359   3.572 -0.5467 -0.0279  0.5938
  611MOL0     O82353   6.962   4.370   3.708  0.0606 -0.7171 -1.0050
  611MOL0     C82354   6.991   4.257   3.777  0.1562  0.5096 -0.1166
  611MOL0     C82355   7.124   4.221   3.788  0.0086  0.3638 -0.6430
  611MOL0     C82356   7.153   4.105   3.857 -0.3412  0.7438 -0.1888
  611MOL0     C82357   7.064   4.030   3.939 -0.1633 -0.6905 -0.5334
  611MOL0     O82358   7.100   3.931   4.018 -0.0380  1.2980  1.1769
  611MOL0     C82359   7.009   3.890   4.119  0.0027 -0.3024  0.0030
  611MOL0     C82360   7.083   3.808   4.220  0.8093  0.9571 -0.1556
  611MOL0     C82361   6.989   3.739   4.328  0.0169  0.3327 -0.7766
  611MOL0     C82362   7.061   3.677   4.445  1.2697 -0.2218  0.4071
  611MOL0     C82363   7.197   3.613   4.413  0.2609 -0.3946 -0.6198
  611MOL0     C82364   7.241   3.522   4.530 -0.2189 -0.1470 -0.6450
  611MOL0     C82365   7.394   3.496   4.530 -0.7883 -0.0639 -0.1398
  611MOL0     C82366   7.427   3.390   4.643  0.2341  0.7598  0.2065
  611MOL0     N82367   7.517   3.429   4.752 -0.6078 -0.0797  0.8020
  611MOL0     C82368   7.482   3.481   4.877 -1.1274 -0.3205  0.0591
  611MOL0     C82369   7.596   3.483   4.945 -0.2584 -0.2723  0.0052
  611MOL0     C82370   7.599   3.541   5.080  0.3719 -0.3965  0.6460
  611MOL0     C82371   7.746   3.572   5.121  0.4162 -1.0776 -0.3405
  611MOL0     C82372   7.747   3.621   5.271  0.3718 -0.8799 -0.2658
  611MOL0     C82373   7.882   3.661   5.318  0.2660 -0.5146 -0.0486
  611MOL0     O82374   7.968   3.550   5.323  0.6596  1.1976  0.5596
  611MOL0     C82375   8.088   3.535   5.277 -0.5495 -0.1584 -0.1478
  611MOL0     C82376   8.155   3.638   5.201 -0.6459 -0.2447 -0.0822
  611MOL0     C82377   8.279   3.619   5.138 -0.1079 -0.0888 -0.0775
  611MOL0     C82378   8.338   3.745   5.073  0.3626 -0.1848 -0.1862
  611MOL0     C82379   8.353   3.500   5.175  0.1447 -0.2816  0.2034
  611MOL0     C82380   8.494   3.482   5.131  0.5778 -0.2570 -0.1493
  611MOL0     O82381   8.548   3.361   5.169  0.5785 -0.2263  0.1051
  611MOL0     C82382   8.674   3.325   5.150 -0.1082  0.0867  0.5358
  611MOL0     C82383   8.691   3.210   5.072  0.0845  0.2132  0.1115
  611MOL0     C82384   8.824   3.175   5.048  0.0438 -0.0030  0.0457
  611MOL0     C82385   8.937   3.253   5.089 -0.1523 -1.4059 -0.3310
  611MOL0     O82386   9.065   3.219   5.059  0.5681 -0.4165  0.6037
  611MOL0     C82387   9.089   3.119   4.949  0.1958 -0.6891 -0.6249
  611MOL0     C82388   9.235   3.121   4.903 -0.8150  0.0207  0.3417
  611MOL0     C82389   9.323   3.092   5.023  1.0925  0.4164 -0.3907
  611MOL0     C82390   9.470   3.147   5.000 -0.0942  0.7321 -0.4520
  611MOL0     C82391   9.568   3.118   5.113  0.1868 -1.0179 -1.1520
  611MOL0     C82392   9.704   3.180   5.110 -0.9246 -0.3086 -0.2353
  611MOL0     C82393   9.697   3.339   5.114 -0.2688  1.1702  0.9930
  611MOL0     C82394   9.831   3.412   5.069 -0.0295  0.2625 -0.4851
  611MOL0    Cl82395   9.790   3.583   5.076  0.1295  0.4624 -0.3585
  611MOL0     C82396   8.907   3.356   5.172  0.4882 -0.0542 -0.4834
  611MOL0     C82397   8.781   3.397   5.195  0.1607  0.6859 -0.1699
  611MOL0     O82398   8.554   3.574   5.079 -1.0257  0.4094 -0.1904
  611MOL0     C82399   8.288   3.396   5.249  0.0745  0.4401  0.3521
  611MOL0     C82400   8.153   3.414   5.301 -0.3011  0.3905  0.2610
  611MOL0     N82401   7.700   3.447   4.858  0.0796  0.1054 -0.3254
  611MOL0     N82402   7.651   3.411   4.749 -0.1264  0.9095  0.1350
  611MOL0     C82403   6.932   4.088   3.942  0.3778 -0.1147  0.7271
  611MOL0     C82404   6.890   4.193   3.856 -0.2549 -0.5863 -0.3145
  611MOL0     C82405   6.997   4.485   3.499  0.4607  0.5798 -0.5586
  611MOL0     C82406   6.935   4.528   3.381  0.2793 -0.6211 -0.3178
  611MOL0     C82407   6.968   4.656   3.325 -0.1710  1.1766  0.0788
  611MOL0     C82408   7.050   4.740   3.401  0.5898  0.8125  0.0857
  611MOL0     O82409   7.102   4.852   3.343  0.2053 -0.1809 -0.4476
  611MOL0     C82410   7.035   4.916   3.237  0.1370  0.0159 -0.3429
  611MOL0     C82411   7.117   4.901   3.113  0.2990  0.3582  0.0159
  611MOL0     C82412   7.048   4.983   3.006 -0.1167  0.4373  0.5211
  611MOL0     C82413   7.133   5.103   2.970 -0.2988  0.2725  0.1726
  611MOL0     C82414   7.144   5.203   3.079 -0.4732 -0.7198 -0.2966
  611MOL0     C82415   7.172   5.296   3.160 -0.8687  0.8102 -1.2085
  611MOL0     C82416   7.110   4.699   3.519  0.2644 -0.4839 -1.2244
  611MOL0     C82417   7.083   4.573   3.568  0.2299 -0.4158  0.9740
  611MOL0     H82418   7.209   4.280   3.757  1.3162  0.3705  2.5636
  611MOL0     H82419   7.258   4.075   3.860  0.0269  2.0956  1.5796
  611MOL0     H82420   6.985   3.982   4.173  1.2547  1.0604 -1.6444
  611MOL0     H82421   6.922   3.840   4.074  1.2988 -0.8726 -1.9877
  611MOL0     H82422   7.131   3.724   4.168  1.8566  1.2499  0.3034
  611MOL0     H82423   7.163   3.860   4.274  2.2728 -2.0005  0.7513
  611MOL0     H82424   6.915   3.808   4.369 -1.1195 -1.4505  0.3296
  611MOL0     H82425   6.927   3.669   4.270  0.8590 -0.0133 -1.2797
  611MOL0     H82426   7.087   3.748   4.524  1.6557 -2.9060  2.8877
  611MOL0     H82427   7.003   3.614   4.514  0.2580  1.5788  1.2765
  611MOL0     H82428   7.197   3.555   4.320 -1.6015  0.0838 -0.9580
  611MOL0     H82429   7.258   3.703   4.405 -1.1073  0.6715  0.3187
  611MOL0     H82430   7.199   3.558   4.624 -2.1477 -2.0318 -0.7257
  611MOL0     H82431   7.201   3.422   4.514 -3.5005  1.1472 -1.3388
  611MOL0     H82432   7.427   3.472   4.428  3.0613  0.3921  0.8313
  611MOL0     H82433   7.441   3.590   4.560  0.8370 -0.7168 -0.5294
  611MOL0     H82434   7.477   3.301   4.603  0.4402  0.3883  1.2554
  611MOL0     H82435   7.333   3.350   4.683 -0.5325 -0.2558 -2.4279
  611MOL0     H82436   7.381   3.490   4.916 -1.0748 -2.2001  0.7564
  611MOL0     H82437   7.546   3.636   5.081  1.3427  0.1607  0.5278
  611MOL0     H82438   7.557   3.468   5.149 -1.6304  0.5365  0.4702
  611MOL0     H82439   7.778   3.663   5.068  2.3742 -1.7563 -0.4016
  611MOL0     H82440   7.816   3.491   5.104  2.0051  0.5255 -1.8347
  611MOL0     H82441   7.703   3.548   5.340 -0.1441 -2.0654 -1.7766
  611MOL0     H82442   7.680   3.707   5.278  1.1833 -0.0520 -1.9648
  611MOL0     H82443   7.869   3.705   5.418 -0.4731  2.4441 -1.3495
  611MOL0     H82444   7.913   3.746   5.258  2.3576 -0.0920  1.5300
  611MOL0     H82445   8.104   3.733   5.183 -2.1477 -1.4638 -2.8554
  611MOL0     H82446   8.271   3.831   5.079  0.6696  0.1938 -1.6925
  611MOL0     H82447   8.423   3.775   5.135 -0.4822  1.4373  0.2364
  611MOL0     H82448   8.383   3.730   4.974  1.3389  0.6626  0.1176
  611MOL0     H82449   8.616   3.147   5.026  0.6526  0.2837 -0.9459
  611MOL0     H82450   8.844   3.083   4.994  1.7370 -0.2249  0.9686
  611MOL0     H82451   9.066   3.021   4.993  1.2350 -1.1626 -1.0966
  611MOL0     H82452   9.029   3.145   4.862 -0.6417  1.6981  0.5634
  611MOL0     H82453   9.247   3.037   4.834 -0.0522 -0.6620  1.2725
  611MOL0     H82454   9.272   3.208   4.850 -0.9899  0.6084  1.1657
  611MOL0     H82455   9.324   2.983   5.029 -0.3540  0.0929 -3.8612
  611MOL0     H82456   9.273   3.126   5.115 -2.1740 -0.9982 -1.5085
  611MOL0     H82457   9.503   3.088   4.914 -1.2654  1.6090 -1.5352
  611MOL0     H82458   9.468   3.249   4.962 -0.9624  0.0224 -2.4540
  611MOL0     H82459   9.572   3.009   5.110  0.3503 -1.0441 -0.3308
  611MOL0     H82460   9.524   3.156   5.205  1.3015 -1.6074 -0.3489
  611MOL0     H82461   9.752   3.145   5.201 -2.0339  1.1243  0.9563
  611MOL0     H82462   9.745   3.154   5.012  3.2882  0.5196  1.1266
  611MOL0     H82463   9.673   3.370   5.216 -1.0031  1.2855  0.7893
  611MOL0     H82464   9.611   3.381   5.061  0.1713  1.7508  0.7348
  611MOL0     H82465   9.867   3.376   4.972 -1.2221  0.7240 -1.1240
  611MOL0     H82466   9.915   3.398   5.137 -1.6750  0.2889  1.6585
  611MOL0     H82467   8.994   3.405   5.215  1.2375 -1.2713 -0.5906
  611MOL0     H82468   8.770   3.480   5.264 -0.8414 -0.7877  1.5317
  611MOL0     H82469   8.342   3.307   5.279 -0.1945  0.0099 -0.3781
  611MOL0     H82470   8.104   3.340   5.364 -1.8300  0.8210 -0.3723
  611MOL0     H82471   6.844   4.058   3.998 -1.1312  1.7370 -0.5144
  611MOL0     H82472   6.796   4.247   3.861  0.8887  1.3885  0.9787
  611MOL0     H82473   6.860   4.464   3.337 -1.1829  1.7673 -1.5168
  611MOL0     H82474   6.931   4.678   3.226  2.3281 -3.0331 -2.0590
  611MOL0     H82475   6.933   4.880   3.219  0.3120 -1.0112  0.5988
  611MOL0     H82476   7.009   5.020   3.258 -2.5157  0.0298 -3.0082
  611MOL0     H82477   7.110   4.793   3.100 -3.9906  0.6311 -1.5449
  611MOL0     H82478   7.218   4.940   3.123  0.3532  0.8064 -1.8436
  611MOL0     H82479   6.943   5.001   3.032  0.1748  2.1011  0.6240
  611MOL0     H82480   7.051   4.922   2.915  1.9754 -1.3952  1.6960
  611MOL0     H82481   7.076   5.145   2.887 -1.3867 -1.0288  0.2282
  611MOL0     H82482   7.231   5.068   2.937 -0.2012 -2.3774  2.8373
  611MOL0     H82483   7.202   5.363   3.238  0.6455 -1.2358  0.0695
  611MOL0     H82484   7.180   4.769   3.562 -3.7949  2.9648  0.4837
  611MOL0     H82485   7.134   4.534   3.656 -0.2762 -0.0089  1.4537
  612MOL0     O82486   3.722   4.461   6.720 -0.0841 -0.1768  0.5961
  612MOL0     C82487   3.766   4.581   6.732  0.7415  0.6985  1.4795
  612MOL0     O82488   3.864   4.635   6.653  0.9005  0.5300  0.8213
  612MOL0     C82489   3.911   4.579   6.536  0.2440  0.7299 -0.3898
  612MOL0     C82490   3.876   4.618   6.413  0.0612  0.7045  0.6327
  612MOL0     C82491   3.918   4.548   6.296  0.4676 -1.0292 -0.9744
  612MOL0     C82492   4.004   4.442   6.298  0.4640  0.0051 -0.0606
  612MOL0     O82493   4.044   4.385   6.173 -0.1305 -0.3584  0.1916
  612MOL0     C82494   4.126   4.272   6.157  0.2952 -0.0557 -0.0282
  612MOL0     C82495   4.165   4.241   6.012 -0.6565 -0.8103 -0.0900
  612MOL0     C82496   4.213   4.373   5.950 -0.3943  0.3762  0.5630
  612MOL0     C82497   4.271   4.322   5.819 -0.2740 -0.6101  0.0077
  612MOL0     C82498   4.365   4.432   5.771 -0.2429 -0.6274 -0.5566
  612MOL0     C82499   4.415   4.389   5.635 -0.2271  0.5319  0.0134
  612MOL0     C82500   4.499   4.514   5.580 -0.6474  0.3960 -0.6553
  612MOL0     C82501   4.568   4.494   5.446 -0.5543 -0.1067  0.5106
  612MOL0     N82502   4.652   4.611   5.402 -0.6485  0.1388 -0.2858
  612MOL0     C82503   4.780   4.649   5.441 -0.5136  0.9248 -0.4429
  612MOL0     C82504   4.813   4.747   5.352  1.0157 -0.1388  0.6645
  612MOL0     C82505   4.950   4.814   5.347 -0.2022 -0.2596  0.3342
  612MOL0     C82506   4.939   4.961   5.375 -0.3888 -0.3493 -0.5010
  612MOL0     C82507   5.069   5.036   5.387 -0.1170 -0.6538 -0.8630
  612MOL0     C82508   5.152   5.058   5.258 -0.9254  0.3965 -0.1006
  612MOL0     O82509   5.078   5.076   5.140  0.3707 -0.4168  0.0019
  612MOL0     C82510   5.148   5.134   5.031  1.2884  0.3113  0.7515
  612MOL0     C82511   5.056   5.199   4.941  0.7605  0.3290 -0.9578
  612MOL0     C82512   5.102   5.271   4.832 -0.5240 -0.4217  0.6573
  612MOL0     C82513   4.999   5.341   4.751 -0.5537  0.6710  0.0412
  612MOL0     C82514   5.236   5.265   4.794 -0.0406 -0.1273  0.4661
  612MOL0     C82515   5.294   5.323   4.670  0.3932  0.1068 -0.4182
  612MOL0     O82516   5.335   5.235   4.568  0.8601 -0.0162  0.9755
  612MOL0     C82517   5.353   5.304   4.450  0.6603 -0.3565  0.3536
  612MOL0     C82518   5.465   5.377   4.411 -0.8840  0.6999  0.2873
  612MOL0     C82519   5.465   5.451   4.295  0.8462  0.1528  0.1002
  612MOL0     C82520   5.355   5.441   4.212 -0.3116  0.3524  0.3433
  612MOL0     O82521   5.375   5.497   4.089 -0.1629  0.0844  0.2313
  612MOL0     C82522   5.358   5.424   3.970 -0.3179 -0.0516 -0.1596
  612MOL0     C82523   5.393   5.481   3.835 -1.0539  0.7381  0.2816
  612MOL0     C82524   5.321   5.609   3.799 -0.2788  0.0850  0.4344
  612MOL0     C82525   5.389   5.693   3.692 -0.1121  0.1216  0.3609
  612MOL0     C82526   5.389   5.631   3.553  0.2188 -0.6908 -0.3854
  612MOL0     C82527   5.465   5.738   3.462  1.0632  1.1148 -0.1822
  612MOL0     C82528   5.442   5.709   3.315 -0.2285  0.2986  0.6268
  612MOL0     C82529   5.566   5.699   3.234 -0.4346 -0.7190 -0.0985
  612MOL0    Cl82530   5.652   5.859   3.229  0.2441  0.0702  0.0028
  612MOL0     C82531   5.240   5.363   4.246  0.0732  0.2278  0.0550
  612MOL0     C82532   5.234   5.301   4.366 -0.6777 -0.4249  0.3376
  612MOL0     O82533   5.294   5.445   4.667 -0.5602  0.1420 -0.3260
  612MOL0     C82534   5.324   5.194   4.879  0.3816  1.0590 -0.0010
  612MOL0     C82535   5.284   5.126   4.992  0.0684  0.6615 -0.2338
  612MOL0     N82536   4.730   4.737   5.242  0.2953 -0.4956 -0.2603
  612MOL0     N82537   4.628   4.666   5.277  0.3278  0.4919  0.7532
  612MOL0     C82538   4.026   4.380   6.427 -0.1734  0.0010  0.1934
  612MOL0     C82539   3.970   4.450   6.543  0.4155 -0.4456  0.3524
  612MOL0     C82540   3.696   4.673   6.820  0.3148  0.1846 -0.1006
  612MOL0     C82541   3.578   4.647   6.882 -0.2002 -0.0354 -0.4793
  612MOL0     C82542   3.507   4.740   6.952 -0.2230  0.1486  0.0279
  612MOL0     C82543   3.567   4.863   6.987  0.4466 -0.5573  0.3117
  612MOL0     O82544   3.494   4.969   7.043  0.0816  0.1696 -0.0016
  612MOL0     C82545   3.554   5.025   7.162 -0.9071 -0.7848  0.2054
  612MOL0     C82546   3.586   5.174   7.120  0.5063 -0.3997 -0.2275
  612MOL0     C82547   3.465   5.266   7.096 -0.5824  0.7306  0.3863
  612MOL0     C82548   3.507   5.412   7.087  0.9300  0.8859  0.8192
  612MOL0     C82549   3.576   5.432   6.963 -0.2002  1.0885 -0.1260
  612MOL0     C82550   3.636   5.444   6.859  0.7638  0.2370 -0.0214
  612MOL0     C82551   3.692   4.879   6.933 -1.0853  1.0086  0.2772
  612MOL0     C82552   3.753   4.784   6.856 -0.5965  0.1396 -0.0699
  612MOL0     H82553   3.819   4.711   6.407 -1.3221  0.0617  2.7143
  612MOL0     H82554   3.878   4.577   6.199  1.3989  2.5589 -0.4484
  612MOL0     H82555   4.214   4.268   6.222  1.1314 -4.3838 -1.1062
  612MOL0     H82556   4.062   4.187   6.183  0.3514  0.1888  0.9775
  612MOL0     H82557   4.236   4.159   6.026 -1.5308 -1.7111 -0.8119
  612MOL0     H82558   4.074   4.196   5.971 -2.2989 -0.7516  3.1193
  612MOL0     H82559   4.146   4.457   5.935  0.9806  1.7268  1.6627
  612MOL0     H82560   4.288   4.410   6.021  1.9148 -1.0216 -1.0087
  612MOL0     H82561   4.325   4.228   5.831 -1.1441 -0.9176  2.0642
  612MOL0     H82562   4.197   4.302   5.741 -2.2371 -0.4483  1.7336
  612MOL0     H82563   4.302   4.521   5.781 -1.5776 -1.7139  1.2730
  612MOL0     H82564   4.443   4.447   5.847 -0.8647  1.0802 -0.2046
  612MOL0     H82565   4.486   4.307   5.647 -1.2446 -0.2141  1.1702
  612MOL0     H82566   4.330   4.374   5.569 -0.3243  0.0545  0.2413
  612MOL0     H82567   4.426   4.595   5.579 -2.2593 -0.9941 -0.5995
  612MOL0     H82568   4.589   4.530   5.640  0.2727  0.2798 -1.9643
  612MOL0     H82569   4.495   4.465   5.369  0.4294  1.3128 -1.0282
  612MOL0     H82570   4.631   4.405   5.452 -2.0623 -1.2803 -0.2677
  612MOL0     H82571   4.827   4.616   5.533  0.5865  1.1468 -0.9175
  612MOL0     H82572   5.012   4.768   5.425  1.1213  2.4892  1.0316
  612MOL0     H82573   5.007   4.806   5.254 -1.0035 -3.6485 -0.0217
  612MOL0     H82574   4.884   4.977   5.468  0.6548 -0.7608  0.2102
  612MOL0     H82575   4.875   5.003   5.297  0.7969  1.5098 -0.5237
  612MOL0     H82576   5.136   4.996   5.465  0.6438  0.4294 -0.9444
  612MOL0     H82577   5.046   5.141   5.406 -0.4994 -0.8194 -0.3856
  612MOL0     H82578   5.223   4.976   5.256 -1.5986 -0.2172 -2.6714
  612MOL0     H82579   5.214   5.146   5.276 -3.6889  3.0447 -2.3468
  612MOL0     H82580   4.951   5.183   4.962  1.2152 -0.4853  0.9237
  612MOL0     H82581   4.980   5.288   4.657  3.3228 -1.2212  0.1251
  612MOL0     H82582   4.907   5.359   4.807 -0.2677 -1.6049  1.3895
  612MOL0     H82583   5.049   5.437   4.731 -0.5068  0.7484  0.5161
  612MOL0     H82584   5.557   5.373   4.469 -0.3013 -1.5462 -0.6908
  612MOL0     H82585   5.552   5.514   4.278 -1.0059  3.3626  1.5973
  612MOL0     H82586   5.428   5.340   3.982 -0.3585 -0.0771 -0.1029
  612MOL0     H82587   5.259   5.379   3.960  0.3264 -1.3426 -0.9714
  612MOL0     H82588   5.501   5.492   3.823 -0.8576  0.3981  1.5759
  612MOL0     H82589   5.367   5.406   3.760  1.0468 -1.7861  1.9092
  612MOL0     H82590   5.303   5.670   3.888 -1.0924  0.9812 -0.3233
  612MOL0     H82591   5.222   5.589   3.760 -0.5170  1.0416  0.5126
  612MOL0     H82592   5.319   5.775   3.674 -1.0273 -0.6607  0.2730
  612MOL0     H82593   5.483   5.729   3.735 -0.0526 -0.2015  0.5068
  612MOL0     H82594   5.286   5.618   3.518 -0.0021  2.6465 -1.3222
  612MOL0     H82595   5.432   5.531   3.559  0.1832 -0.6648  0.4026
  612MOL0     H82596   5.427   5.839   3.475 -2.7864 -0.4146  2.3532
  612MOL0     H82597   5.572   5.736   3.484  0.4321 -2.4071  3.9365
  612MOL0     H82598   5.374   5.784   3.274  0.9713  0.3928 -1.2767
  612MOL0     H82599   5.391   5.612   3.322 -0.9388  0.5424 -0.9081
  612MOL0     H82600   5.533   5.681   3.132  0.3978  0.7427 -0.6583
  612MOL0     H82601   5.638   5.628   3.276  2.3564  0.9304 -1.8172
  612MOL0     H82602   5.167   5.340   4.169  2.7566 -3.3795 -1.7286
  612MOL0     H82603   5.140   5.248   4.383  0.8563 -2.7312  2.4336
  612MOL0     H82604   5.431   5.185   4.865  0.3480 -0.4130  0.4766
  612MOL0     H82605   5.351   5.063   5.049 -1.4292 -0.8381 -0.0607
  612MOL0     H82606   4.072   4.284   6.450 -2.8151 -1.8370 -1.4669
  612MOL0     H82607   3.985   4.396   6.636 -0.7213 -1.3901  0.0027
  612MOL0     H82608   3.535   4.548   6.873  0.1865 -0.1219 -1.5020
  612MOL0     H82609   3.412   4.708   6.994  0.3012  1.3820  2.3211
  612MOL0     H82610   3.482   5.031   7.245  0.2583  0.4711  1.1554
  612MOL0     H82611   3.648   4.996   7.210  0.2866  2.7675  0.2826
  612MOL0     H82612   3.653   5.174   7.034  1.0520 -3.6334  0.0601
  612MOL0     H82613   3.633   5.221   7.207  4.2193  1.5274 -3.0250
  612MOL0     H82614   3.392   5.245   7.175  0.6923 -0.4685  1.2944
  612MOL0     H82615   3.415   5.234   7.004 -3.2950 -3.8803  3.0849
  612MOL0     H82616   3.560   5.424   7.181 -1.1412  1.1333  2.0190
  612MOL0     H82617   3.425   5.484   7.092  2.6058  2.8274  1.7426
  612MOL0     H82618   3.667   5.454   6.757 -1.8716  0.7881 -0.8579
  612MOL0     H82619   3.714   4.985   6.939  0.0587  0.7085  3.8059
  612MOL0     H82620   3.857   4.793   6.826 -1.1284 -0.8358 -2.4243
  613MOL0     O82621   1.562   0.708   5.377  1.2011 -0.1981 -0.5025
  613MOL0     C82622   1.648   0.763   5.312  0.6552  0.4240  0.1779
  613MOL0     O82623   1.761   0.825   5.361 -0.0153 -0.3346 -0.6516
  613MOL0     C82624   1.774   0.871   5.495 -0.0097  0.4798  0.9619
  613MOL0     C82625   1.674   0.931   5.569  1.1336  0.4928  0.9452
  613MOL0     C82626   1.689   0.959   5.704 -0.6438  0.4738  0.2383
  613MOL0     C82627   1.815   0.941   5.765  1.2727  0.5787 -0.7910
  613MOL0     O82628   1.847   0.954   5.900 -1.0613 -1.0656 -0.5234
  613MOL0     C82629   1.743   1.002   5.989  0.0495  0.0694  0.7382
  613MOL0     C82630   1.789   0.962   6.131  0.1760  0.7056  0.4390
  613MOL0     C82631   1.729   1.043   6.244  0.8003  0.3327 -0.6802
  613MOL0     C82632   1.749   0.968   6.377  0.3206  0.4615 -0.5880
  613MOL0     C82633   1.720   1.057   6.502 -1.1130 -0.0534 -0.8441
  613MOL0     C82634   1.585   1.120   6.483 -0.2745 -0.1110  0.5260
  613MOL0     C82635   1.522   1.191   6.600  0.5173 -0.6265 -0.3873
  613MOL0     C82636   1.603   1.308   6.642 -0.2918 -0.4433 -0.2653
  613MOL0     N82637   1.534   1.380   6.757  0.0354  0.8904  0.1382
  613MOL0     C82638   1.500   1.511   6.746 -1.5468  0.2710  0.2914
  613MOL0     C82639   1.413   1.538   6.843 -0.5640 -0.6916  0.1607
  613MOL0     C82640   1.332   1.665   6.884 -0.6237  0.0582 -0.2693
  613MOL0     C82641   1.184   1.642   6.885 -0.7091  0.1462 -0.3869
  613MOL0     C82642   1.123   1.691   6.757  0.1172 -0.3144  0.1181
  613MOL0     C82643   1.174   1.597   6.645  0.5761 -0.9944  0.9804
  613MOL0     O82644   1.287   1.650   6.582 -0.7902 -0.9701 -0.1879
  613MOL0     C82645   1.321   1.590   6.460  0.4132 -0.4016  0.7882
  613MOL0     C82646   1.274   1.472   6.417  0.8656  0.0891  0.5715
  613MOL0     C82647   1.296   1.421   6.288  0.6387  0.4961 -0.1705
  613MOL0     C82648   1.233   1.280   6.258  0.0548 -0.1520  0.0639
  613MOL0     C82649   1.381   1.492   6.203 -0.5467 -0.2221  0.3246
  613MOL0     C82650   1.416   1.432   6.078  0.3542  0.0816  0.7227
  613MOL0     O82651   1.533   1.356   6.082 -0.2330 -0.4259 -0.8403
  613MOL0     C82652   1.593   1.356   5.962  0.2433  0.0185 -0.1383
  613MOL0     C82653   1.703   1.445   5.948  0.8180  0.4812  0.2299
  613MOL0     C82654   1.770   1.471   5.826 -0.0199  0.5098 -0.1174
  613MOL0     C82655   1.754   1.387   5.723 -0.0211 -0.5501 -0.3503
  613MOL0     O82656   1.822   1.384   5.607 -0.2400 -0.1610 -0.1193
  613MOL0     C82657   1.927   1.485   5.574  0.7748  0.1022 -0.6673
  613MOL0     C82658   1.950   1.442   5.425  0.3449  0.4451  0.3565
  613MOL0     C82659   1.996   1.295   5.401  0.2573  0.3318  0.0797
  613MOL0     C82660   2.027   1.281   5.246  0.0228  1.3848  0.9520
  613MOL0     C82661   2.110   1.153   5.227 -0.3937 -0.3701  0.4703
  613MOL0     C82662   2.104   1.121   5.075  0.2635  0.2086 -0.0876
  613MOL0     C82663   2.195   1.004   5.037  1.1814 -0.9622 -0.3154
  613MOL0     C82664   2.161   0.881   5.123 -0.8199  0.4765 -0.1272
  613MOL0    Cl82665   2.235   0.748   5.046  0.1087 -0.1223  0.0032
  613MOL0     C82666   1.646   1.289   5.735  0.4179 -0.4271 -0.8931
  613MOL0     C82667   1.570   1.269   5.853  0.4409 -0.8550 -0.6197
  613MOL0     O82668   1.351   1.460   5.978 -0.8364  0.5189  0.5052
  613MOL0     C82669   1.432   1.619   6.247 -0.3724  1.6014  0.6029
  613MOL0     C82670   1.402   1.661   6.376  0.4799  0.1916  0.4742
  613MOL0     N82671   1.408   1.426   6.929 -0.5557 -0.1314 -0.4232
  613MOL0     N82672   1.482   1.331   6.874  0.0635  0.1105 -0.4868
  613MOL0     C82673   1.916   0.874   5.697 -0.5321 -0.4547  0.2840
  613MOL0     C82674   1.898   0.850   5.557 -0.5264 -0.5043  0.0257
  613MOL0     C82675   1.638   0.765   5.151 -0.3849 -0.5512  0.1085
  613MOL0     C82676   1.538   0.686   5.092  0.0821  0.8529 -0.0913
  613MOL0     C82677   1.504   0.710   4.960  0.1630 -0.3600  0.9450
  613MOL0     C82678   1.561   0.810   4.888  0.5805  1.1306  0.2295
  613MOL0     O82679   1.517   0.812   4.758  0.2576 -0.8178 -0.2269
  613MOL0     C82680   1.534   0.935   4.688  0.2936  0.3188  0.1892
  613MOL0     C82681   1.491   0.947   4.542 -0.3405 -0.7912 -0.7260
  613MOL0     C82682   1.497   1.085   4.489  0.0507 -0.7678  0.1861
  613MOL0     C82683   1.427   1.099   4.359 -0.5879 -0.1413  0.5842
  613MOL0     C82684   1.291   1.080   4.375 -0.0095 -0.0936 -0.9832
  613MOL0     C82685   1.175   1.066   4.399 -0.4317  0.4687  0.1494
  613MOL0     C82686   1.668   0.886   4.943  0.4763  0.4038 -0.5558
  613MOL0     C82687   1.703   0.867   5.081 -0.4659  0.3329 -0.6283
  613MOL0     H82688   1.578   0.944   5.521  1.1747 -1.6464  0.2026
  613MOL0     H82689   1.609   1.013   5.753 -1.7739  2.8849 -3.7843
  613MOL0     H82690   1.734   1.110   5.981 -1.6365 -0.0870  0.1201
  613MOL0     H82691   1.644   0.956   5.976  0.8554 -0.8177 -4.0105
  613MOL0     H82692   1.761   0.857   6.144  1.1823  0.1357 -1.5040
  613MOL0     H82693   1.896   0.973   6.150  0.3167  1.9614 -0.9286
  613MOL0     H82694   1.767   1.145   6.250 -0.7890  0.9171 -0.0740
  613MOL0     H82695   1.622   1.047   6.221 -0.0520 -1.2055  2.4998
  613MOL0     H82696   1.678   0.889   6.400  2.9057 -1.4593  1.3078
  613MOL0     H82697   1.847   0.922   6.385  0.0586  0.2401  2.2147
  613MOL0     H82698   1.740   0.990   6.587  2.5330  0.1900 -1.3202
  613MOL0     H82699   1.801   1.130   6.519 -1.8786  0.8686 -1.0907
  613MOL0     H82700   1.598   1.195   6.404  0.0627 -1.2524 -0.5383
  613MOL0     H82701   1.510   1.046   6.456  2.0967 -2.2033 -0.7907
  613MOL0     H82702   1.424   1.229   6.569  0.4700 -1.0856 -0.8214
  613MOL0     H82703   1.501   1.129   6.688 -2.2740  0.5620 -0.0907
  613MOL0     H82704   1.619   1.372   6.555 -3.3853 -1.6588 -1.9033
  613MOL0     H82705   1.695   1.277   6.691 -1.4449 -0.2809  2.1313
  613MOL0     H82706   1.515   1.573   6.658  1.5952  1.2030  1.3373
  613MOL0     H82707   1.365   1.699   6.983  1.5105  1.8364 -1.4713
  613MOL0     H82708   1.362   1.741   6.811  4.2218 -1.7458 -0.5064
  613MOL0     H82709   1.143   1.701   6.968 -1.0212 -4.1879  2.9180
  613MOL0     H82710   1.158   1.537   6.901  0.1009  0.2277  1.8741
  613MOL0     H82711   1.155   1.794   6.738  1.1564 -0.7359 -0.4738
  613MOL0     H82712   1.014   1.691   6.754  0.1368 -0.9435 -1.8310
  613MOL0     H82713   1.099   1.590   6.566 -0.6243  1.0356  1.8554
  613MOL0     H82714   1.195   1.502   6.694  3.3023  0.0942  2.0630
  613MOL0     H82715   1.226   1.401   6.485 -1.1685  2.2006  1.4870
  613MOL0     H82716   1.194   1.231   6.347  4.4174  0.0477  2.3190
  613MOL0     H82717   1.153   1.294   6.185 -2.0387  3.7057  2.7267
  613MOL0     H82718   1.317   1.226   6.215  1.4175  1.5686  0.4514
  613MOL0     H82719   1.722   1.516   6.027  1.8537  1.7798 -1.1165
  613MOL0     H82720   1.850   1.545   5.828  1.2497 -0.8372  0.3306
  613MOL0     H82721   1.905   1.592   5.571 -1.1656 -0.2608 -0.5822
  613MOL0     H82722   2.006   1.440   5.636  1.2011  0.8113 -0.6863
  613MOL0     H82723   1.866   1.461   5.357  2.3205  0.7666 -2.1068
  613MOL0     H82724   2.020   1.512   5.379 -0.8009  1.6831  0.4373
  613MOL0     H82725   1.913   1.230   5.432  0.9126 -1.0561 -0.9845
  613MOL0     H82726   2.076   1.262   5.467 -0.7363 -1.3584  0.5168
  613MOL0     H82727   1.941   1.269   5.180  1.0984  0.6340 -0.3561
  613MOL0     H82728   2.093   1.360   5.209  1.7069 -0.7485 -0.8091
  613MOL0     H82729   2.070   1.072   5.288 -1.6271  0.3356  0.6308
  613MOL0     H82730   2.213   1.163   5.264  0.4187  1.2085 -1.9812
  613MOL0     H82731   1.999   1.095   5.057 -0.0513 -0.0798  1.8950
  613MOL0     H82732   2.129   1.207   5.012  2.9415 -0.5862 -0.2345
  613MOL0     H82733   2.301   1.024   5.056  1.7860 -3.8525 -0.1877
  613MOL0     H82734   2.183   0.975   4.932  1.6930  0.7174 -0.8759
  613MOL0     H82735   2.053   0.875   5.110 -1.0210  4.6851 -2.1269
  613MOL0     H82736   2.191   0.887   5.228  0.0550 -1.8792 -0.1737
  613MOL0     H82737   1.644   1.218   5.653 -0.2138  0.4998 -1.7127
  613MOL0     H82738   1.508   1.181   5.863 -1.0807  0.2563  0.1884
  613MOL0     H82739   1.493   1.675   6.177  0.9323 -0.9858 -0.4689
  613MOL0     H82740   1.438   1.762   6.391 -2.3271  1.5613 -1.3161
  613MOL0     H82741   2.008   0.852   5.751 -0.2483  3.4626  1.7207
  613MOL0     H82742   1.970   0.793   5.499 -1.6564 -2.1906  0.2087
  613MOL0     H82743   1.485   0.619   5.160  0.8371  2.4845  2.2202
  613MOL0     H82744   1.426   0.649   4.916  2.3380 -1.1134 -2.2581
  613MOL0     H82745   1.471   1.015   4.727 -2.3572  0.0843 -3.0980
  613MOL0     H82746   1.640   0.960   4.699  0.2648  0.2031  0.7806
  613MOL0     H82747   1.389   0.907   4.539 -0.5056 -0.8950  2.4490
  613MOL0     H82748   1.557   0.881   4.485  2.3553  0.0728  1.1663
  613MOL0     H82749   1.602   1.110   4.473 -0.1989  1.7153  1.9623
  613MOL0     H82750   1.466   1.159   4.564  3.4220  0.2386  0.7233
  613MOL0     H82751   1.465   1.037   4.277 -1.5351  1.6878 -1.3269
  613MOL0     H82752   1.432   1.197   4.311 -3.6422 -0.0176  0.3614
  613MOL0     H82753   1.071   1.070   4.423 -0.3543 -0.8584  0.8206
  613MOL0     H82754   1.729   0.951   4.882  2.8050  1.7068  2.8105
  613MOL0     H82755   1.786   0.928   5.115 -0.8583  0.3121  0.4123
  614MOL0     O82756   6.694   5.925   5.961 -0.5943 -0.8964  0.5198
  614MOL0     C82757   6.745   6.012   6.036  0.0902 -0.5541 -0.3272
  614MOL0     O82758   6.839   5.993   6.128 -0.5388  0.1406 -0.5259
  614MOL0     C82759   6.899   5.869   6.134  0.4990  0.1959  0.3922
  614MOL0     C82760   6.974   5.839   6.030 -0.6543  0.7224 -0.3785
  614MOL0     C82761   7.049   5.726   6.024 -0.3352 -0.1316  0.0396
  614MOL0     C82762   7.040   5.627   6.131  0.4603 -0.2389  0.5743
  614MOL0     O82763   7.094   5.507   6.131 -0.5446  0.3523 -0.9869
  614MOL0     C82764   7.236   5.509   6.149  0.0500 -0.4780  0.7585
  614MOL0     C82765   7.275   5.359   6.163 -0.0437  1.0854  0.5314
  614MOL0     C82766   7.420   5.336   6.168 -0.1825  0.4401  0.1540
  614MOL0     C82767   7.484   5.304   6.029 -0.3209 -0.6858 -0.2504
  614MOL0     C82768   7.634   5.308   6.030  0.6129 -0.4329  0.1473
  614MOL0     C82769   7.703   5.236   6.153  0.0026 -0.5847 -0.7174
  614MOL0     C82770   7.697   5.083   6.133  0.2466 -0.6092  0.3126
  614MOL0     C82771   7.765   5.003   6.239 -0.4745 -0.0222 -0.2225
  614MOL0     N82772   7.834   4.878   6.188  0.3109  0.1101 -0.3144
  614MOL0     C82773   7.957   4.868   6.130  0.4951  0.5718  0.5046
  614MOL0     C82774   7.971   4.732   6.117 -0.7491  0.1424  0.2119
  614MOL0     C82775   8.095   4.655   6.076  0.0749  0.1460 -0.1954
  614MOL0     C82776   8.070   4.559   5.957 -0.7874 -0.1323  0.8015
  614MOL0     C82777   8.210   4.547   5.882  0.2865  0.0905 -0.1725
  614MOL0     C82778   8.211   4.456   5.762  0.1339 -0.6772  0.6196
  614MOL0     O82779   8.130   4.343   5.776  0.7206 -0.2935 -0.5799
  614MOL0     C82780   8.100   4.277   5.660 -0.0983  0.6592  0.2681
  614MOL0     C82781   8.180   4.169   5.612  0.2017  0.0019 -0.6643
  614MOL0     C82782   8.163   4.119   5.480 -1.1218 -1.5832  0.2567
  614MOL0     C82783   8.277   4.030   5.446  0.0202  0.7537  0.2567
  614MOL0     C82784   8.040   4.147   5.406 -0.0302  0.3926 -0.4341
  614MOL0     C82785   8.003   4.079   5.274 -0.4143 -1.4106 -0.5124
  614MOL0     O82786   7.904   4.143   5.207 -0.5849  0.4112 -0.3091
  614MOL0     C82787   7.859   4.074   5.091 -0.9616 -0.7866  0.4343
  614MOL0     C82788   7.758   3.986   5.076 -0.0724 -0.8251  1.0082
  614MOL0     C82789   7.729   3.935   4.951  1.0686  0.5453 -0.6240
  614MOL0     C82790   7.790   3.969   4.836 -0.3188  0.0732 -0.1416
  614MOL0     O82791   7.754   3.921   4.712 -0.6308  0.6661  0.1244
  614MOL0     C82792   7.757   3.780   4.691  0.5558  0.0454  0.7088
  614MOL0     C82793   7.906   3.747   4.653  0.0656  0.3516 -0.2991
  614MOL0     C82794   7.953   3.615   4.712 -0.7876  0.0478  0.5965
  614MOL0     C82795   8.109   3.604   4.691  0.1285 -0.0246 -1.0631
  614MOL0     C82796   8.150   3.468   4.751  0.2351  1.1386 -0.0840
  614MOL0     C82797   8.289   3.415   4.696  0.7949 -0.6216 -1.0285
  614MOL0     C82798   8.399   3.487   4.783  0.4624  1.9093  0.4287
  614MOL0     C82799   8.539   3.427   4.756  0.9737  0.2406  1.1916
  614MOL0    Cl82800   8.556   3.248   4.774 -0.2709  0.3107 -0.2004
  614MOL0     C82801   7.900   4.053   4.851  0.0899 -0.4854  0.2019
  614MOL0     C82802   7.940   4.101   4.971 -0.1690 -0.0732 -1.1276
  614MOL0     O82803   8.075   3.995   5.222  0.6825  0.2691 -0.1125
  614MOL0     C82804   7.957   4.231   5.459  0.7866 -0.4847 -0.0739
  614MOL0     C82805   7.984   4.295   5.582 -0.0545 -0.2186 -0.7927
  614MOL0     N82806   7.860   4.664   6.164  0.4537 -0.5581  0.6860
  614MOL0     N82807   7.778   4.758   6.208  0.0460  0.4887 -0.0387
  614MOL0     C82808   6.957   5.660   6.237  0.4023 -0.1461 -0.6737
  614MOL0     C82809   6.880   5.778   6.235 -0.1997 -0.5431  0.1182
  614MOL0     C82810   6.673   6.148   6.041  0.1718  0.1668 -0.0732
  614MOL0     C82811   6.698   6.241   6.136  0.0492  0.3573 -0.3318
  614MOL0     C82812   6.631   6.363   6.142  0.2946  0.5529  0.8384
  614MOL0     C82813   6.539   6.398   6.038  1.2867  0.1944  0.2258
  614MOL0     O82814   6.479   6.524   6.048 -0.9636  0.0104 -0.3198
  614MOL0     C82815   6.429   6.601   5.939 -0.9092  0.2091  0.0353
  614MOL0     C82816   6.541   6.654   5.851 -0.5744 -0.8087  0.1419
  614MOL0     C82817   6.490   6.664   5.710 -0.2246  0.6750 -0.0546
  614MOL0     C82818   6.403   6.798   5.683  0.7252  0.2028 -0.3966
  614MOL0     C82819   6.460   6.930   5.695  0.2093 -0.1281 -0.1871
  614MOL0     C82820   6.502   7.039   5.721  0.5334 -0.0524  0.4264
  614MOL0     C82821   6.507   6.301   5.936 -0.3167  0.6493 -0.2131
  614MOL0     C82822   6.576   6.182   5.937 -0.7469  1.1641 -0.0065
  614MOL0     H82823   6.996   5.913   5.953  2.5364  1.4055  1.0116
  614MOL0     H82824   7.105   5.718   5.931  0.8611  1.6919  0.5559
  614MOL0     H82825   7.292   5.540   6.060  1.1900 -0.7512  1.3592
  614MOL0     H82826   7.263   5.577   6.230 -3.1624  2.0955 -0.1053
  614MOL0     H82827   7.243   5.322   6.261  0.1823  0.3351  0.3274
  614MOL0     H82828   7.242   5.292   6.083  0.9099 -0.1489  1.1514
  614MOL0     H82829   7.461   5.421   6.223 -1.4086  0.7116  0.6655
  614MOL0     H82830   7.450   5.251   6.229 -0.6207  0.8648  0.9713
  614MOL0     H82831   7.451   5.210   5.985 -2.7437  0.0920 -0.2140
  614MOL0     H82832   7.460   5.391   5.967  3.4647  1.5357  1.0045
  614MOL0     H82833   7.676   5.260   5.941  2.9283  3.5964 -1.1671
  614MOL0     H82834   7.653   5.414   6.049 -3.3547  0.4729 -0.0035
  614MOL0     H82835   7.809   5.260   6.156  0.1445 -1.3295  0.3512
  614MOL0     H82836   7.657   5.267   6.247  0.9222  0.3785 -0.5711
  614MOL0     H82837   7.590   5.062   6.124 -0.9557  4.3284  0.5148
  614MOL0     H82838   7.734   5.052   6.035 -1.5518 -4.2950  0.5936
  614MOL0     H82839   7.693   4.975   6.316  0.9572 -4.4783 -0.2380
  614MOL0     H82840   7.840   5.062   6.292 -1.5500  1.4624 -0.2812
  614MOL0     H82841   8.030   4.945   6.109  2.1724 -0.9242  0.6132
  614MOL0     H82842   8.180   4.716   6.045  0.1585  0.9561  1.4970
  614MOL0     H82843   8.121   4.597   6.165 -2.4170 -3.6528 -1.6690
  614MOL0     H82844   7.998   4.605   5.889 -3.6702 -0.3522  3.4728
  614MOL0     H82845   8.029   4.459   5.977 -1.4698 -0.8083 -3.1133
  614MOL0     H82846   8.283   4.511   5.956  0.9441 -1.5877 -1.5734
  614MOL0     H82847   8.239   4.647   5.848  2.9329 -1.4278 -2.8051
  614MOL0     H82848   8.313   4.418   5.753  1.0579  1.1548  2.6006
  614MOL0     H82849   8.198   4.511   5.668  1.4091  0.7959  1.2650
  614MOL0     H82850   8.258   4.122   5.672 -3.1303 -2.1691  2.3662
  614MOL0     H82851   8.258   3.927   5.475  1.3817 -0.3212 -2.2979
  614MOL0     H82852   8.301   4.050   5.341  1.2691  2.2419  0.7992
  614MOL0     H82853   8.371   4.056   5.495  2.1933 -4.1626 -0.7253
  614MOL0     H82854   7.699   3.946   5.159 -0.6504 -0.8565  0.5914
  614MOL0     H82855   7.655   3.855   4.953 -0.3943  1.8704  0.2586
  614MOL0     H82856   7.712   3.719   4.770 -0.3446 -2.7159 -1.7452
  614MOL0     H82857   7.696   3.751   4.605  1.0704 -2.0940  1.0138
  614MOL0     H82858   7.927   3.738   4.546 -0.6862 -1.1925 -0.3403
  614MOL0     H82859   7.966   3.824   4.704 -0.0787 -1.1430  2.3157
  614MOL0     H82860   7.900   3.529   4.671  0.3161 -0.0806 -0.6389
  614MOL0     H82861   7.926   3.607   4.817  0.7854  2.0264  1.2117
  614MOL0     H82862   8.132   3.607   4.585  1.4456  0.3185 -0.7907
  614MOL0     H82863   8.164   3.682   4.745 -2.5935  1.3734 -0.0826
  614MOL0     H82864   8.072   3.404   4.708  0.5473  0.7420 -0.0676
  614MOL0     H82865   8.148   3.465   4.860 -2.4127  1.8400 -0.0419
  614MOL0     H82866   8.287   3.307   4.712 -0.5441 -0.1847  2.5507
  614MOL0     H82867   8.297   3.436   4.589  1.6119 -2.1377 -1.2878
  614MOL0     H82868   8.378   3.485   4.891 -3.9223  3.1334 -0.1834
  614MOL0     H82869   8.390   3.594   4.762 -3.7326  1.4418 -1.0169
  614MOL0     H82870   8.618   3.481   4.808  0.8237  3.4919 -1.6032
  614MOL0     H82871   8.565   3.453   4.653 -1.5228 -0.1788  0.3939
  614MOL0     H82872   7.949   4.095   4.764 -1.2236  1.3244  0.2584
  614MOL0     H82873   8.023   4.172   4.970 -0.3786  0.2109  0.1343
  614MOL0     H82874   7.869   4.258   5.402  1.7184 -0.5157 -1.5542
  614MOL0     H82875   7.919   4.379   5.604 -0.9450 -1.3692  1.1763
  614MOL0     H82876   6.938   5.579   6.306  1.4578 -0.1342 -0.3522
  614MOL0     H82877   6.806   5.795   6.312 -0.1935 -1.2128  0.2736
  614MOL0     H82878   6.760   6.222   6.224 -2.1237  0.6957  1.3690
  614MOL0     H82879   6.631   6.425   6.231  2.2813  1.0534  0.5620
  614MOL0     H82880   6.364   6.526   5.893 -3.0379  0.0415  3.0151
  614MOL0     H82881   6.358   6.675   5.977 -5.7236 -2.6579 -2.2727
  614MOL0     H82882   6.620   6.579   5.858 -0.6576 -1.0077 -0.8762
  614MOL0     H82883   6.568   6.751   5.892  2.3790 -1.6664  0.4181
  614MOL0     H82884   6.442   6.567   5.694  1.4812 -0.3517  0.7461
  614MOL0     H82885   6.577   6.669   5.643  0.2203 -1.7507  0.2433
  614MOL0     H82886   6.313   6.796   5.744  1.3042 -1.6351  0.4593
  614MOL0     H82887   6.378   6.793   5.576 -0.5944  0.1727 -0.0916
  614MOL0     H82888   6.529   7.143   5.729  0.2503  0.0798 -0.2125
  614MOL0     H82889   6.425   6.325   5.868 -1.2292  0.0039  0.6203
  614MOL0     H82890   6.565   6.112   5.855  0.9192  2.1368 -1.1136
  615MOL0     O82891   7.827   3.719   4.081  0.7478 -0.4035 -0.2873
  615MOL0     C82892   7.702   3.732   4.081  0.2258  0.4995  0.8640
  615MOL0     O82893   7.614   3.632   4.121 -0.9761 -0.0159  0.4358
  615MOL0     C82894   7.664   3.534   4.194 -0.5210 -0.9434  1.4672
  615MOL0     C82895   7.697   3.548   4.321  0.2337  0.7027  0.6206
  615MOL0     C82896   7.756   3.436   4.386  0.0507 -0.8067 -0.6556
  615MOL0     C82897   7.763   3.313   4.340  0.1213  0.8977 -0.1937
  615MOL0     O82898   7.815   3.200   4.413 -0.2540  0.4245  0.3423
  615MOL0     C82899   7.847   3.211   4.557  0.3002  0.1142  0.6912
  615MOL0     C82900   7.920   3.084   4.620 -0.1076  0.0184  0.1613
  615MOL0     C82901   8.058   3.076   4.585 -0.3957  0.5050  1.3354
  615MOL0     C82902   8.125   2.969   4.662  1.0311  0.4357  0.5050
  615MOL0     C82903   8.275   2.981   4.658 -0.2458  0.1653  0.0400
  615MOL0     C82904   8.333   2.847   4.705 -0.6704  0.0484 -0.4023
  615MOL0     C82905   8.489   2.867   4.736 -0.5274  0.2379 -0.1738
  615MOL0     C82906   8.567   2.820   4.623 -0.2305 -0.4271  0.1332
  615MOL0     N82907   8.712   2.825   4.648 -0.7429 -0.4149 -0.4300
  615MOL0     C82908   8.787   2.716   4.662  0.0084  0.2963 -0.2584
  615MOL0     C82909   8.901   2.757   4.715 -0.8093  0.6654  0.8094
  615MOL0     C82910   9.023   2.662   4.745  0.4046 -0.4048 -0.5760
  615MOL0     C82911   9.157   2.712   4.718  0.2658 -0.1302 -0.4066
  615MOL0     C82912   9.204   2.679   4.578 -0.0764  0.1299  1.9069
  615MOL0     C82913   9.337   2.746   4.538 -0.5879 -0.6559 -0.5505
  615MOL0     O82914   9.320   2.891   4.514  0.3799 -0.3978 -0.5464
  615MOL0     C82915   9.419   2.981   4.543  0.1268  0.4363  0.2175
  615MOL0     C82916   9.376   3.109   4.540 -0.0641 -0.4416  1.0940
  615MOL0     C82917   9.467   3.213   4.564 -0.4623 -0.5713  0.0370
  615MOL0     C82918   9.406   3.350   4.549 -0.4284 -0.1002  0.2384
  615MOL0     C82919   9.603   3.202   4.603 -0.5995 -0.1191 -0.0082
  615MOL0     C82920   9.702   3.306   4.637 -0.8921 -0.0945  0.9375
  615MOL0     O82921   9.822   3.263   4.677  0.0750  0.3303  0.0184
  615MOL0     C82922   9.930   3.327   4.716  0.2407 -0.4550 -1.2402
  615MOL0     C82923   9.944   3.465   4.726  0.5299  0.2368  0.3448
  615MOL0     C82924  10.068   3.518   4.740  0.3144 -0.0346  0.6211
  615MOL0     C82925  10.178   3.432   4.765 -0.4704  0.6914 -0.1535
  615MOL0     O82926  10.313   3.468   4.775 -0.3949  0.8754 -0.7359
  615MOL0     C82927  10.343   3.604   4.820 -0.3648  0.3292  0.3016
  615MOL0     C82928  10.455   3.628   4.928 -0.6256 -0.0159  0.5985
  615MOL0     C82929  10.506   3.504   5.000  0.5473 -0.6269  0.2633
  615MOL0     C82930  10.406   3.435   5.094  1.0656 -0.4338  1.0414
  615MOL0     C82931  10.460   3.297   5.150 -1.0982 -0.5100  0.3957
  615MOL0     C82932  10.330   3.238   5.229  0.2301 -0.1842  0.0919
  615MOL0     C82933  10.192   3.232   5.148  0.1249 -0.1336 -0.6374
  615MOL0     C82934  10.088   3.174   5.239 -0.1975  0.1969 -0.2141
  615MOL0    Cl82935  10.126   2.996   5.254  0.2270  0.0129  0.0897
  615MOL0     C82936  10.163   3.292   4.762  0.0371 -0.5519  0.4916
  615MOL0     C82937  10.037   3.242   4.737  0.0936 -0.0301 -0.3415
  615MOL0     O82938   9.679   3.422   4.619  0.6154 -0.2674  0.7320
  615MOL0     C82939   9.641   3.069   4.607  0.4801  0.2439  0.5827
  615MOL0     C82940   9.556   2.957   4.577  0.1900 -0.5455 -0.0807
  615MOL0     N82941   8.896   2.888   4.750 -0.0600  0.0928 -0.0550
  615MOL0     N82942   8.779   2.934   4.700 -0.2550  0.2441 -0.5439
  615MOL0     C82943   7.734   3.293   4.203  0.0974  0.4474 -0.7753
  615MOL0     C82944   7.690   3.408   4.126 -0.1391 -0.7818 -1.6382
  615MOL0     C82945   7.645   3.852   4.013 -0.4436 -0.3158  0.3126
  615MOL0     C82946   7.718   3.908   3.905  0.4954 -0.0851  0.2099
  615MOL0     C82947   7.674   4.033   3.844  0.4675 -0.1930  0.2550
  615MOL0     C82948   7.539   4.078   3.879 -1.2780 -0.2271  0.2279
  615MOL0     O82949   7.472   4.179   3.823 -0.4466  0.6363  0.6201
  615MOL0     C82950   7.538   4.271   3.737 -0.1994  0.2348 -0.1644
  615MOL0     C82951   7.641   4.369   3.805  1.3440  0.3337 -0.5835
  615MOL0     C82952   7.653   4.502   3.726 -1.0209 -0.3649  0.5934
  615MOL0     C82953   7.523   4.583   3.710 -0.2931 -0.9601 -1.3946
  615MOL0     C82954   7.458   4.639   3.838 -0.6756 -0.5621 -0.5002
  615MOL0     C82955   7.422   4.682   3.935  0.0914 -0.0657  0.2575
  615MOL0     C82956   7.478   4.016   3.996 -0.0898 -0.3245  0.3447
  615MOL0     C82957   7.526   3.905   4.055  0.3775 -0.3735  0.0530
  615MOL0     H82958   7.698   3.641   4.376  3.0315  0.2428  1.5131
  615MOL0     H82959   7.781   3.446   4.491  1.0613 -0.9224 -0.8798
  615MOL0     H82960   7.907   3.302   4.563  2.7678 -1.2071 -1.4913
  615MOL0     H82961   7.749   3.208   4.606  0.0850 -3.0942  0.2946
  615MOL0     H82962   7.920   3.097   4.728 -1.8590 -3.0423  0.6438
  615MOL0     H82963   7.865   2.993   4.594  1.6953 -0.3360 -2.9519
  615MOL0     H82964   8.064   3.053   4.478 -2.1358  0.1961  1.2823
  615MOL0     H82965   8.107   3.174   4.590 -2.5638  1.7794 -0.7329
  615MOL0     H82966   8.086   2.954   4.763 -2.2901 -1.0618 -0.8577
  615MOL0     H82967   8.095   2.879   4.609 -3.9191  2.9775 -1.6640
  615MOL0     H82968   8.313   2.999   4.557  3.6700 -1.7124  0.9760
  615MOL0     H82969   8.309   3.065   4.721  0.7564 -0.5231  0.4403
  615MOL0     H82970   8.276   2.811   4.791  0.1580  0.3092  0.2777
  615MOL0     H82971   8.329   2.769   4.629  2.6682 -1.7206  1.0308
  615MOL0     H82972   8.509   2.974   4.747 -3.5074  0.8244  0.3206
  615MOL0     H82973   8.532   2.829   4.830  0.4960  2.9938  0.5581
  615MOL0     H82974   8.535   2.884   4.541  1.8892  2.0178  1.0848
  615MOL0     H82975   8.544   2.714   4.606  2.5814 -0.9403 -0.9758
  615MOL0     H82976   8.756   2.612   4.651 -1.6591  0.8969 -1.7356
  615MOL0     H82977   9.010   2.649   4.853  3.4193 -7.6621 -0.5259
  615MOL0     H82978   9.011   2.569   4.689  0.1240  1.1165 -3.1863
  615MOL0     H82979   9.233   2.680   4.789 -0.3044 -1.4116 -0.3532
  615MOL0     H82980   9.150   2.821   4.723 -2.4170  0.0095 -3.5246
  615MOL0     H82981   9.132   2.713   4.503  1.6493 -1.5630 -0.7015
  615MOL0     H82982   9.200   2.571   4.560  1.0887  0.5566 -1.6644
  615MOL0     H82983   9.362   2.688   4.449  1.1195  0.9963 -1.2134
  615MOL0     H82984   9.410   2.722   4.616  0.4710 -0.4178 -1.4505
  615MOL0     H82985   9.274   3.134   4.514  0.2139  2.3515  2.2478
  615MOL0     H82986   9.315   3.352   4.488 -0.9791 -1.1318  0.9982
  615MOL0     H82987   9.372   3.386   4.647 -0.6513 -0.5748  0.3380
  615MOL0     H82988   9.476   3.421   4.503 -1.6951  0.4857 -0.8477
  615MOL0     H82989   9.859   3.531   4.713 -1.6809 -2.3724  0.7193
  615MOL0     H82990  10.084   3.625   4.752  2.6267  0.0727 -2.1933
  615MOL0     H82991  10.365   3.652   4.724  2.7217  0.4679  0.9716
  615MOL0     H82992  10.256   3.640   4.875  1.0298  3.7810  0.5172
  615MOL0     H82993  10.544   3.683   4.895 -1.5282  0.4490 -1.1993
  615MOL0     H82994  10.412   3.692   5.006 -0.5108  1.3305 -0.4002
  615MOL0     H82995  10.584   3.535   5.070  1.8321 -1.8107 -0.5932
  615MOL0     H82996  10.558   3.433   4.936  5.0908 -0.6475  3.4716
  615MOL0     H82997  10.364   3.490   5.179 -4.0960 -0.8596 -0.8814
  615MOL0     H82998  10.326   3.415   5.022  1.8884  5.1511 -1.9748
  615MOL0     H82999  10.547   3.311   5.214 -0.2008  0.1503 -0.9180
  615MOL0     H83000  10.478   3.241   5.057  0.8583  2.4916 -1.2048
  615MOL0     H83001  10.352   3.140   5.271  2.7131  1.0231  1.9235
  615MOL0     H83002  10.306   3.309   5.310  0.3995 -0.5759  0.4868
  615MOL0     H83003  10.189   3.163   5.063 -2.4997 -1.4272  0.3890
  615MOL0     H83004  10.157   3.333   5.124 -0.3643  1.1820  4.4117
  615MOL0     H83005   9.996   3.206   5.189  0.7191  0.4365 -1.8134
  615MOL0     H83006  10.098   3.226   5.334  1.9443 -1.5609  0.5865
  615MOL0     H83007  10.255   3.238   4.782  0.2948 -0.3774 -0.2079
  615MOL0     H83008   9.996   3.141   4.742 -0.5209  0.1602 -1.3598
  615MOL0     H83009   9.740   3.045   4.646  0.7884  0.6358  0.0456
  615MOL0     H83010   9.613   2.864   4.577  0.6631 -0.3326  2.4767
  615MOL0     H83011   7.755   3.196   4.159  0.1162 -0.8521  1.8751
  615MOL0     H83012   7.646   3.404   4.027 -1.4281  0.7864 -1.1701
  615MOL0     H83013   7.810   3.867   3.864  1.2539  0.0788  1.6492
  615MOL0     H83014   7.734   4.076   3.764 -1.4678  1.9582 -0.1496
  615MOL0     H83015   7.590   4.218   3.656 -1.4486 -1.1208 -0.1325
  615MOL0     H83016   7.454   4.322   3.688 -0.1189  0.9839  0.4739
  615MOL0     H83017   7.737   4.319   3.819  1.5466  0.7006 -0.6550
  615MOL0     H83018   7.607   4.405   3.902 -2.1831  1.3025 -2.0251
  615MOL0     H83019   7.687   4.476   3.625  0.3917  1.7447  0.4403
  615MOL0     H83020   7.732   4.572   3.755 -0.7154 -1.3162  2.1491
  615MOL0     H83021   7.454   4.528   3.645  0.3826 -0.9218 -2.1689
  615MOL0     H83022   7.544   4.670   3.647 -2.2802 -0.9065 -2.0511
  615MOL0     H83023   7.389   4.741   4.018 -2.0198 -0.7023 -0.0726
  615MOL0     H83024   7.394   4.063   4.047  1.1973  0.5805  1.7184
  615MOL0     H83025   7.462   3.865   4.132  2.1438  1.3249  2.5486
  616MOL0     O83026  11.515   4.007  10.914  0.2312  0.0361 -0.5326
  616MOL0     C83027  11.451   4.101  10.965 -0.4246 -0.4304 -0.1571
  616MOL0     O83028  11.343   4.158  10.903 -0.9186  0.0435  0.1009
  616MOL0     C83029  11.281   4.087  10.801 -0.2294  0.4780 -0.0024
  616MOL0     C83030  11.349   4.066  10.679  0.5025 -0.8587  0.4168
  616MOL0     C83031  11.277   4.013  10.573  0.1064 -0.2013  0.6517
  616MOL0     C83032  11.145   3.986  10.580  0.0670  1.0124  0.6040
  616MOL0     O83033  11.071   3.931  10.474  0.6196 -0.4527  0.6795
  616MOL0     C83034  11.139   3.838  10.390 -0.7449 -0.4674  0.0888
  616MOL0     C83035  11.032   3.774  10.308 -0.6507 -0.6288 -0.3716
  616MOL0     C83036  11.076   3.659  10.216 -0.2929  0.1091 -0.1036
  616MOL0     C83037  11.106   3.527  10.284  0.4232 -0.3540 -0.3308
  616MOL0     C83038  11.182   3.449  10.181 -0.8226 -0.2862  0.6252
  616MOL0     C83039  11.177   3.299  10.199  0.4798  1.0289 -0.3706
  616MOL0     C83040  11.210   3.221  10.071 -1.1294 -0.3398  0.1518
  616MOL0     C83041  11.129   3.092  10.072 -0.0751 -0.6783 -0.5258
  616MOL0     N83042  11.171   2.998   9.978 -0.2138 -0.5706 -0.1087
  616MOL0     C83043  11.267   2.907  10.006 -0.0413 -0.2146  0.1556
  616MOL0     C83044  11.256   2.814   9.905  0.4448 -0.6127  0.4297
  616MOL0     C83045  11.340   2.689   9.922  0.4651  0.8683 -0.0330
  616MOL0     C83046  11.484   2.710   9.860  0.2320  1.1058 -0.1077
  616MOL0     C83047  11.564   2.573   9.863  0.5507 -0.2089  0.2538
  616MOL0     C83048  11.702   2.605   9.813  0.0019  0.5169  1.0956
  616MOL0     O83049  11.759   2.709   9.883 -0.2728  0.0456  0.2250
  616MOL0     C83050  11.875   2.768   9.841 -0.0648 -0.3900 -0.0726
  616MOL0     C83051  11.904   2.872   9.913 -0.9322 -0.3542  0.1314
  616MOL0     C83052  12.042   2.916   9.917  0.2247 -0.8937 -0.1573
  616MOL0     C83053  12.070   3.042  10.008 -0.0097 -0.1082  0.7095
  616MOL0     C83054  12.144   2.847   9.848  0.0069 -1.3045  0.8582
  616MOL0     C83055  12.285   2.869   9.863  0.7413 -0.2998 -0.7962
  616MOL0     O83056  12.360   2.795   9.781  0.0506 -0.4084 -0.3405
  616MOL0     C83057  12.489   2.835   9.746 -0.3630  0.7315 -0.3504
  616MOL0     C83058  12.523   2.971   9.725 -0.4378  0.3316  0.3803
  616MOL0     C83059  12.647   3.015   9.696  0.0168  0.2324  0.8494
  616MOL0     C83060  12.745   2.912   9.678 -0.1807 -0.1975 -0.3821
  616MOL0     O83061  12.863   2.966   9.634  0.6075 -0.4599  0.0789
  616MOL0     C83062  12.971   2.885   9.591  1.2426 -0.1590  0.2312
  616MOL0     C83063  13.086   2.968   9.519  0.7321  0.1522 -0.4844
  616MOL0     C83064  13.212   2.895   9.498 -0.3005  0.4419 -0.3150
  616MOL0     C83065  13.303   3.003   9.441  0.1713 -1.1750  0.0869
  616MOL0     C83066  13.399   2.932   9.347 -0.5238 -0.2201 -0.3944
  616MOL0     C83067  13.480   3.027   9.257 -0.2099 -0.7909 -0.2963
  616MOL0     C83068  13.606   2.937   9.210 -0.4687  0.3841 -0.0171
  616MOL0     C83069  13.682   3.005   9.096  0.7623  0.3994  0.0265
  616MOL0    Cl83070  13.579   2.985   8.945 -0.4153 -0.1456  0.7717
  616MOL0     C83071  12.712   2.767   9.686 -0.8105 -0.1338 -0.7981
  616MOL0     C83072  12.584   2.738   9.725  0.7356  0.3839  0.2477
  616MOL0     O83073  12.324   2.939   9.961  0.0743  0.2027  0.3357
  616MOL0     C83074  12.098   2.759   9.755 -0.4172 -0.7884  0.1124
  616MOL0     C83075  11.967   2.717   9.751  0.9890  0.3134 -0.5336
  616MOL0     N83076  11.165   2.864   9.811  0.7486  0.6453 -1.0106
  616MOL0     N83077  11.113   2.972   9.854  0.3885 -0.1577 -0.4769
  616MOL0     C83078  11.076   4.003  10.703  0.3629 -0.3242  0.1161
  616MOL0     C83079  11.147   4.054  10.807  0.3305 -0.1011 -0.7931
  616MOL0     C83080  11.496   4.149  11.095  0.2544  0.2526  0.3026
  616MOL0     C83081  11.616   4.100  11.147 -0.6891  0.7315 -0.0739
  616MOL0     C83082  11.660   4.150  11.269  0.6429  0.0215 -0.7980
  616MOL0     C83083  11.583   4.242  11.351  0.1131 -0.6478  0.6056
  616MOL0     O83084  11.626   4.296  11.467  0.1530 -0.4016  1.1741
  616MOL0     C83085  11.739   4.376  11.487 -0.3828  0.7978 -0.3068
  616MOL0     C83086  11.715   4.520  11.530  0.5070 -0.1278 -0.6448
  616MOL0     C83087  11.857   4.584  11.529  0.3774  0.2064 -0.4037
  616MOL0     C83088  11.852   4.733  11.545  0.9193 -0.3875  0.9431
  616MOL0     C83089  11.757   4.796  11.452  0.3963  0.2933 -0.2910
  616MOL0     C83090  11.700   4.840  11.350  0.0079 -0.9060 -1.1077
  616MOL0     C83091  11.460   4.286  11.294 -0.1849  0.3309 -0.8386
  616MOL0     C83092  11.417   4.235  11.176 -0.3630 -0.4255  0.4339
  616MOL0     H83093  11.452   4.096  10.664 -0.0641  1.5583  0.8530
  616MOL0     H83094  11.331   3.997  10.479  0.3006 -2.1772  1.0526
  616MOL0     H83095  11.205   3.895  10.325 -1.0544  1.0023  1.0208
  616MOL0     H83096  11.199   3.774  10.455  0.4998  2.3641  1.9115
  616MOL0     H83097  10.963   3.734  10.384 -1.1697 -0.4325 -0.7343
  616MOL0     H83098  10.975   3.850  10.253 -0.9402 -2.1817 -2.3332
  616MOL0     H83099  11.001   3.650  10.137  2.3419 -2.2736 -2.5785
  616MOL0     H83100  11.168   3.686  10.164 -1.2864  3.2977 -0.4124
  616MOL0     H83101  11.163   3.541  10.377  2.0185 -2.6481 -0.8740
  616MOL0     H83102  11.017   3.476  10.322  2.4958 -2.3581  2.3122
  616MOL0     H83103  11.134   3.468  10.085  2.6209  0.8892 -1.0235
  616MOL0     H83104  11.284   3.489  10.174 -0.7146 -0.8486 -1.8405
  616MOL0     H83105  11.243   3.270  10.281  0.9677  3.3020  0.1037
  616MOL0     H83106  11.076   3.265  10.222  1.8629 -1.9561  1.9391
  616MOL0     H83107  11.192   3.281   9.982  0.9679  1.2510  0.7058
  616MOL0     H83108  11.316   3.192  10.075 -0.7991 -1.2616 -6.1801
  616MOL0     H83109  11.028   3.123  10.043 -0.2517 -1.5017 -0.8428
  616MOL0     H83110  11.122   3.045  10.171 -0.5388 -0.2669 -0.3612
  616MOL0     H83111  11.339   2.902  10.088  2.3624  2.8528 -1.5802
  616MOL0     H83112  11.356   2.658  10.025 -0.6131 -0.2820 -0.1852
  616MOL0     H83113  11.297   2.600   9.874  0.0297  1.7087 -1.2647
  616MOL0     H83114  11.525   2.794   9.917 -1.1966 -0.8003  4.1550
  616MOL0     H83115  11.470   2.730   9.754  3.8055  0.5633 -0.7999
  616MOL0     H83116  11.533   2.509   9.779  0.8857  1.7414 -1.4267
  616MOL0     H83117  11.570   2.529   9.963 -1.8329  1.1792  1.0999
  616MOL0     H83118  11.691   2.638   9.709 -0.8254 -2.4183  0.1668
  616MOL0     H83119  11.751   2.508   9.824  0.8428  0.9646  1.3972
  616MOL0     H83120  11.829   2.924   9.970 -2.8803  0.2748 -2.7694
  616MOL0     H83121  12.123   3.122   9.955 -0.2564 -1.6431 -2.0400
  616MOL0     H83122  11.977   3.085  10.047  0.4579 -0.5226  2.3574
  616MOL0     H83123  12.117   3.013  10.103 -0.6823  0.4810  1.2386
  616MOL0     H83124  12.454   3.053   9.742 -4.2766 -2.7696  1.1416
  616MOL0     H83125  12.680   3.117   9.681 -1.1411  0.7928  1.9463
  616MOL0     H83126  13.000   2.832   9.682  2.0692 -1.0023 -0.5012
  616MOL0     H83127  12.928   2.813   9.521 -1.7448  1.1018  0.5976
  616MOL0     H83128  13.049   2.997   9.420  0.4957 -2.4129 -1.2151
  616MOL0     H83129  13.102   3.056   9.582  1.9894  1.3580 -2.4034
  616MOL0     H83130  13.188   2.809   9.434 -0.5559  0.2821 -0.0068
  616MOL0     H83131  13.254   2.859   9.592 -1.0583  1.1292  0.2992
  616MOL0     H83132  13.261   3.083   9.379 -0.7537 -2.1726 -0.5993
  616MOL0     H83133  13.356   3.048   9.526  1.6887 -0.0114 -1.4184
  616MOL0     H83134  13.340   2.864   9.285 -0.7319 -3.1104  2.7044
  616MOL0     H83135  13.468   2.863   9.396  0.2381  0.0061 -1.1226
  616MOL0     H83136  13.424   3.068   9.173 -0.1052  0.5763  0.2847
  616MOL0     H83137  13.516   3.114   9.312  0.7296 -2.4305  1.8606
  616MOL0     H83138  13.561   2.843   9.177 -2.1264  1.9032 -2.4148
  616MOL0     H83139  13.685   2.922   9.284 -1.5160  2.4227  1.6102
  616MOL0     H83140  13.777   2.957   9.070 -0.3140 -1.5379 -0.5413
  616MOL0     H83141  13.703   3.107   9.129 -0.9671  0.5700  0.7013
  616MOL0     H83142  12.782   2.686   9.670 -0.2357 -0.2215  1.7204
  616MOL0     H83143  12.567   2.633   9.748 -0.4274  0.4684 -0.1814
  616MOL0     H83144  12.152   2.708   9.676  1.2497 -1.1318  1.4132
  616MOL0     H83145  11.922   2.644   9.685 -1.1950  1.1262 -0.0218
  616MOL0     H83146  10.969   3.990  10.714  0.6378 -0.0538  5.2469
  616MOL0     H83147  11.091   4.067  10.899  2.8600 -2.0211  1.1748
  616MOL0     H83148  11.676   4.035  11.085  2.4149  0.6986  2.6990
  616MOL0     H83149  11.742   4.106  11.324 -2.1189 -0.7420  3.0836
  616MOL0     H83150  11.799   4.326  11.563  1.9087  0.1613 -2.3917
  616MOL0     H83151  11.800   4.379  11.396  0.2261  3.3764  0.1310
  616MOL0     H83152  11.678   4.521  11.633  2.2325 -2.8504  0.1220
  616MOL0     H83153  11.649   4.563  11.454 -1.4847  0.5129  1.3243
  616MOL0     H83154  11.915   4.550  11.443 -0.6475 -0.2250 -0.9341
  616MOL0     H83155  11.909   4.549  11.619  2.4942  0.2454 -1.5283
  616MOL0     H83156  11.950   4.777  11.525  1.4454 -2.2710 -0.9724
  616MOL0     H83157  11.829   4.764  11.647  2.7603  5.9587 -0.0866
  616MOL0     H83158  11.658   4.889  11.264  1.4304  0.5597 -1.0165
  616MOL0     H83159  11.404   4.360  11.350  0.7681  0.9318 -0.6685
  616MOL0     H83160  11.318   4.268  11.146  0.7548  1.4423 -1.5548
  617MOL0     O83161   3.028   5.124   6.214 -0.7455  0.0278 -0.0490
  617MOL0     C83162   3.034   5.007   6.255  0.0061  0.5605 -0.4707
  617MOL0     O83163   3.034   4.970   6.388 -0.2590  0.4995 -0.4489
  617MOL0     C83164   3.033   5.071   6.477  0.0596  0.4206 -0.7634
  617MOL0     C83165   3.139   5.169   6.490  0.4316  0.2702  0.2326
  617MOL0     C83166   3.131   5.266   6.584  0.2055 -0.2292  0.2951
  617MOL0     C83167   3.027   5.269   6.677 -0.5447 -0.4005  0.5400
  617MOL0     O83168   3.021   5.374   6.768  1.4500  0.1003  0.0657
  617MOL0     C83169   3.079   5.348   6.893 -0.6036  1.6159 -0.0010
  617MOL0     C83170   3.073   5.464   6.994  0.1977  0.2378 -0.1598
  617MOL0     C83171   3.114   5.431   7.148  0.0861 -0.8897  0.4091
  617MOL0     C83172   3.069   5.546   7.244  0.6619  0.2866  0.4768
  617MOL0     C83173   3.115   5.524   7.392  0.0353  0.4393 -0.7768
  617MOL0     C83174   3.262   5.534   7.425 -0.1650 -0.1030 -0.2794
  617MOL0     C83175   3.284   5.544   7.574 -0.4744 -0.2901 -0.4966
  617MOL0     C83176   3.240   5.421   7.648  0.3709 -0.2764  0.5023
  617MOL0     N83177   3.288   5.432   7.785 -0.4678  1.1419 -0.1196
  617MOL0     C83178   3.279   5.541   7.867  0.9270 -0.8786 -0.0619
  617MOL0     C83179   3.372   5.514   7.967  0.2992 -0.7402 -1.3354
  617MOL0     C83180   3.394   5.606   8.086  0.2564  0.7422 -0.0258
  617MOL0     C83181   3.532   5.663   8.073  1.0484  0.2371  0.0463
  617MOL0     C83182   3.569   5.746   8.202  0.1642  0.5555  0.4383
  617MOL0     C83183   3.688   5.849   8.183 -0.4416  0.1961 -0.6775
  617MOL0     O83184   3.813   5.794   8.139  0.0361 -0.5026  0.4330
  617MOL0     C83185   3.889   5.727   8.232 -0.6660  0.7234 -0.5940
  617MOL0     C83186   3.986   5.649   8.173  0.2654  0.0151 -0.7123
  617MOL0     C83187   4.089   5.586   8.254  0.5155  0.2703 -0.6402
  617MOL0     C83188   4.199   5.501   8.192 -0.9771  0.5465 -0.5770
  617MOL0     C83189   4.086   5.614   8.396 -0.4114 -0.3956 -0.1838
  617MOL0     C83190   4.194   5.556   8.483  0.1074  0.2035 -0.3370
  617MOL0     O83191   4.263   5.434   8.459 -0.6694  0.8960  0.3005
  617MOL0     C83192   4.333   5.374   8.561 -1.0530  0.5717 -0.8119
  617MOL0     C83193   4.263   5.286   8.643  0.2245 -0.5245 -0.2388
  617MOL0     C83194   4.325   5.212   8.751  0.2301 -0.1318  0.1423
  617MOL0     C83195   4.458   5.240   8.780 -0.0636 -0.9614  0.7724
  617MOL0     O83196   4.506   5.175   8.890  0.0110 -1.2548  0.1625
  617MOL0     C83197   4.634   5.224   8.938 -0.0624 -0.0558 -0.4911
  617MOL0     C83198   4.665   5.162   9.080  1.1951 -0.7097  0.3470
  617MOL0     C83199   4.635   5.014   9.084  0.5208 -1.1738 -0.5333
  617MOL0     C83200   4.712   4.972   9.208  0.1947  0.0245  0.2657
  617MOL0     C83201   4.697   4.820   9.251 -0.0578 -0.2075  0.1719
  617MOL0     C83202   4.777   4.727   9.159 -0.0490  0.0671  0.8078
  617MOL0     C83203   4.791   4.578   9.206 -0.0491 -0.6159 -0.3502
  617MOL0     C83204   4.905   4.511   9.125  0.6352 -0.0413 -0.0431
  617MOL0    Cl83205   4.933   4.354   9.200  0.3636 -0.2143 -0.7721
  617MOL0     C83206   4.535   5.322   8.695  0.6751  0.2485  0.6475
  617MOL0     C83207   4.468   5.394   8.591  0.4915 -0.1696 -0.2247
  617MOL0     O83208   4.217   5.628   8.580  0.1007 -0.5769 -0.0598
  617MOL0     C83209   3.984   5.683   8.454  0.3645 -0.2691  0.9608
  617MOL0     C83210   3.888   5.736   8.368 -0.0400  0.3667 -0.1059
  617MOL0     N83211   3.425   5.395   7.954 -0.8817 -0.1727  0.1868
  617MOL0     N83212   3.376   5.340   7.839 -1.2674 -0.6790 -0.7458
  617MOL0     C83213   2.924   5.175   6.676  0.5622 -1.1637  0.2147
  617MOL0     C83214   2.927   5.079   6.575  0.3180 -0.0418  0.6642
  617MOL0     C83215   3.037   4.895   6.164 -0.8265  1.3544 -0.0700
  617MOL0     C83216   3.059   4.913   6.024  0.2543  1.2324 -0.0160
  617MOL0     C83217   3.063   4.810   5.930  0.1626 -0.4770  0.2677
  617MOL0     C83218   3.051   4.680   5.972 -0.1167 -0.2227 -0.2312
  617MOL0     O83219   3.065   4.571   5.890 -0.0206  0.8832  0.2961
  617MOL0     C83220   3.049   4.574   5.743  0.0924 -0.4524 -0.5085
  617MOL0     C83221   2.984   4.451   5.690 -0.2649  0.5878  0.1990
  617MOL0     C83222   3.009   4.425   5.537  0.3534  1.1500 -0.7092
  617MOL0     C83223   3.010   4.542   5.451  0.2767 -0.2794 -0.1784
  617MOL0     C83224   3.086   4.522   5.326 -0.1159 -0.5070  1.1501
  617MOL0     C83225   3.144   4.502   5.220  0.3244 -0.7174 -0.5637
  617MOL0     C83226   3.036   4.649   6.105 -0.8415 -0.1324  0.5576
  617MOL0     C83227   3.025   4.755   6.204  1.0780  0.5769  0.6518
  617MOL0     H83228   3.219   5.171   6.417  0.7067  0.2859  0.5321
  617MOL0     H83229   3.204   5.345   6.596 -1.1082  0.9090  1.1606
  617MOL0     H83230   3.035   5.260   6.942  0.4756  0.4876 -0.9815
  617MOL0     H83231   3.180   5.308   6.877 -1.4541 -0.7821  0.1430
  617MOL0     H83232   3.137   5.541   6.950  1.4743 -0.0631  1.0818
  617MOL0     H83233   2.976   5.514   7.000  0.2079  0.1429  1.3776
  617MOL0     H83234   3.052   5.346   7.177 -2.2493  0.6398  0.1957
  617MOL0     H83235   3.219   5.408   7.166  0.1836  0.3909  1.7052
  617MOL0     H83236   3.109   5.636   7.197 -0.7621  0.1997 -0.9804
  617MOL0     H83237   2.959   5.547   7.248  0.5879  2.7326 -0.5811
  617MOL0     H83238   3.071   5.604   7.452  4.0284  2.1643  0.2418
  617MOL0     H83239   3.075   5.427   7.424 -2.2359  0.9932 -1.7406
  617MOL0     H83240   3.317   5.446   7.391  0.1695  0.3362 -0.9055
  617MOL0     H83241   3.305   5.607   7.355 -3.0088  0.9670 -1.0274
  617MOL0     H83242   3.391   5.559   7.594 -0.5919 -1.9092  1.7371
  617MOL0     H83243   3.238   5.627   7.629 -1.4111 -1.8663  1.2222
  617MOL0     H83244   3.288   5.340   7.592  2.2550  0.0004  1.5987
  617MOL0     H83245   3.131   5.411   7.653  0.3748 -0.3867  0.3661
  617MOL0     H83246   3.216   5.626   7.843  0.1062 -1.3491  0.3641
  617MOL0     H83247   3.312   5.678   8.082 -2.3675 -2.1242 -1.4648
  617MOL0     H83248   3.385   5.540   8.173 -1.2584  0.9107 -0.0274
  617MOL0     H83249   3.529   5.730   7.987 -0.0666  0.1095 -0.0222
  617MOL0     H83250   3.604   5.582   8.057 -0.0378 -0.5841 -0.7692
  617MOL0     H83251   3.583   5.682   8.290 -2.3061  0.2500  0.6857
  617MOL0     H83252   3.480   5.800   8.234 -0.8596 -0.8938  0.1667
  617MOL0     H83253   3.696   5.928   8.258  1.0191 -0.4093 -0.1477
  617MOL0     H83254   3.645   5.910   8.103 -1.7721  0.3091  0.0998
  617MOL0     H83255   3.998   5.631   8.066  0.4479  1.3816 -0.9407
  617MOL0     H83256   4.295   5.522   8.239 -1.0867  0.4358 -0.3026
  617MOL0     H83257   4.167   5.400   8.219  0.2571  1.1548  3.9845
  617MOL0     H83258   4.192   5.517   8.084 -0.1980 -0.0482 -0.7200
  617MOL0     H83259   4.160   5.261   8.618  0.7574 -0.9512 -2.1703
  617MOL0     H83260   4.264   5.133   8.792  1.1971  0.2976  2.5301
  617MOL0     H83261   4.708   5.199   8.861  1.1309 -2.1442  1.2158
  617MOL0     H83262   4.625   5.333   8.941  1.8834  0.1355  1.4718
  617MOL0     H83263   4.758   5.187   9.132 -0.1239 -0.4966  2.7331
  617MOL0     H83264   4.587   5.210   9.140  1.7710 -0.4468  0.8976
  617MOL0     H83265   4.663   4.967   8.989  1.1937 -0.3402 -0.7602
  617MOL0     H83266   4.532   4.993   9.111  0.5423  1.5492  2.1606
  617MOL0     H83267   4.820   4.988   9.212  0.2584 -0.5711  1.7901
  617MOL0     H83268   4.671   5.040   9.284 -2.9149  1.7668 -2.7160
  617MOL0     H83269   4.591   4.803   9.235  0.5725 -4.3354 -0.8958
  617MOL0     H83270   4.718   4.800   9.357 -0.6912 -0.8590  0.1815
  617MOL0     H83271   4.738   4.743   9.058  0.0929  2.5846  1.0881
  617MOL0     H83272   4.881   4.759   9.149 -0.9292  2.1933 -3.4411
  617MOL0     H83273   4.713   4.506   9.179 -0.0746  0.5357 -3.8598
  617MOL0     H83274   4.829   4.567   9.308  2.9016 -1.6731 -1.4361
  617MOL0     H83275   4.995   4.572   9.115  0.4852  0.2024  0.0833
  617MOL0     H83276   4.866   4.497   9.024 -0.0998  1.8425 -0.0693
  617MOL0     H83277   4.640   5.340   8.711  1.1737 -2.2350  0.5880
  617MOL0     H83278   4.524   5.472   8.541 -3.4112  4.8363  2.2606
  617MOL0     H83279   3.964   5.703   8.559  2.7887  2.1901  1.0534
  617MOL0     H83280   3.810   5.791   8.421  0.4215  0.8949  0.0388
  617MOL0     H83281   2.838   5.156   6.738 -0.4422 -3.9180 -1.8212
  617MOL0     H83282   2.849   5.005   6.557  2.2834 -1.8516 -0.8846
  617MOL0     H83283   3.068   5.014   5.985  4.4961  1.4308  1.0662
  617MOL0     H83284   3.084   4.829   5.825 -1.1423  0.5293  0.1668
  617MOL0     H83285   2.991   4.665   5.723 -0.0592 -0.1568  1.1298
  617MOL0     H83286   3.151   4.580   5.705 -0.2825 -1.2049 -1.6926
  617MOL0     H83287   2.876   4.449   5.709 -0.2794 -1.7624  0.1126
  617MOL0     H83288   3.031   4.368   5.743 -0.9767 -0.1194 -0.2570
  617MOL0     H83289   2.933   4.353   5.504 -0.5300 -1.4319  5.5832
  617MOL0     H83290   3.107   4.376   5.542 -0.6220 -0.7923  0.6509
  617MOL0     H83291   3.052   4.636   5.488 -1.6934  0.8976 -0.8374
  617MOL0     H83292   2.904   4.566   5.437 -0.3375 -0.3467  3.3647
  617MOL0     H83293   3.181   4.483   5.122  3.1580  0.6116  0.1480
  617MOL0     H83294   3.024   4.545   6.133 -0.2893  0.4366  3.1834
  617MOL0     H83295   3.003   4.729   6.307  0.3537  0.5583  0.4926
  618MOL0     O83296   9.544   0.923   3.976 -0.9038  0.5652 -0.2696
  618MOL0     C83297   9.554   0.818   4.040  0.2359 -0.7442 -0.0750
  618MOL0     O83298   9.505   0.698   4.008  1.3072 -0.8643  0.8005
  618MOL0     C83299   9.424   0.663   3.901 -0.6089 -0.1048  0.6170
  618MOL0     C83300   9.358   0.537   3.917  0.0403  0.2289 -0.3350
  618MOL0     C83301   9.302   0.474   3.801 -0.9919 -0.3143  0.6661
  618MOL0     C83302   9.296   0.548   3.685 -0.0242 -0.9842 -0.4045
  618MOL0     O83303   9.227   0.501   3.574 -0.1514  0.6833  0.1412
  618MOL0     C83304   9.276   0.377   3.519  0.2686 -0.4816  0.3070
  618MOL0     C83305   9.168   0.324   3.419  0.3670  0.0067  0.8913
  618MOL0     C83306   9.157   0.418   3.286  0.7696 -0.1432 -0.5349
  618MOL0     C83307   9.053   0.357   3.189  0.4734 -0.5868 -0.5302
  618MOL0     C83308   9.116   0.358   3.052 -0.3320  0.3005 -1.2182
  618MOL0     C83309   9.036   0.267   2.959 -0.5571  0.7385 -0.2518
  618MOL0     C83310   9.130   0.231   2.839  0.5440  0.1805  0.3296
  618MOL0     C83311   9.056   0.164   2.720 -0.6879 -0.0535  0.0138
  618MOL0     N83312   8.928   0.226   2.701 -0.0528  1.3019  0.3856
  618MOL0     C83313   8.811   0.184   2.757  0.5841 -0.4093  0.2705
  618MOL0     C83314   8.698   0.240   2.682 -0.9437 -0.9399  0.1741
  618MOL0     C83315   8.549   0.207   2.683  0.1634  0.0573 -1.1345
  618MOL0     C83316   8.455   0.313   2.731 -0.2323 -0.2341  0.0716
  618MOL0     C83317   8.477   0.336   2.882  0.7136 -0.0212  0.7074
  618MOL0     C83318   8.365   0.421   2.947 -0.1857 -1.1101  0.3098
  618MOL0     O83319   8.242   0.352   2.925 -0.5326  0.4962 -0.0838
  618MOL0     C83320   8.148   0.429   2.848 -0.3380  0.0716 -0.3810
  618MOL0     C83321   8.081   0.360   2.742  0.0818  0.2788  0.3026
  618MOL0     C83322   7.984   0.416   2.660  0.1373 -0.2149 -0.7723
  618MOL0     C83323   7.929   0.324   2.558  0.3249  0.0979  0.3132
  618MOL0     C83324   7.944   0.551   2.688 -0.6108 -0.4337  0.9551
  618MOL0     C83325   7.838   0.619   2.610 -0.6302  0.2768 -0.2286
  618MOL0     O83326   7.851   0.749   2.587  0.6724  0.2692 -0.0115
  618MOL0     C83327   7.744   0.805   2.523  0.3441 -0.0944  0.4589
  618MOL0     C83328   7.709   0.770   2.390  1.8623 -0.2765  0.7977
  618MOL0     C83329   7.596   0.836   2.331 -1.2398  0.8270  0.1510
  618MOL0     C83330   7.514   0.935   2.393 -0.4419  0.2857 -0.4905
  618MOL0     O83331   7.401   0.995   2.347 -0.1483 -0.5488  0.0788
  618MOL0     C83332   7.352   0.940   2.221  0.4761  0.1985  0.5501
  618MOL0     C83333   7.206   0.983   2.198  0.0145 -0.5039 -0.8665
  618MOL0     C83334   7.154   0.947   2.065 -0.1039  1.6540 -0.3041
  618MOL0     C83335   7.228   1.012   1.938  0.5340  0.9437 -0.1758
  618MOL0     C83336   7.193   1.165   1.913  0.0586 -0.1426  0.9138
  618MOL0     C83337   7.283   1.229   1.805  0.5773 -0.2234 -0.4646
  618MOL0     C83338   7.266   1.168   1.665 -0.9193 -1.0046  0.2128
  618MOL0     C83339   7.331   1.251   1.562 -1.3178  0.6717 -0.3388
  618MOL0    Cl83340   7.517   1.257   1.583 -0.0959  0.2049  0.3973
  618MOL0     C83341   7.569   0.981   2.516  0.6436 -0.4928 -0.1445
  618MOL0     C83342   7.682   0.920   2.583 -0.1162  0.5419 -0.0486
  618MOL0     O83343   7.735   0.552   2.575 -0.5207 -0.1636 -0.4917
  618MOL0     C83344   8.024   0.628   2.779 -0.3070 -0.2627  0.1983
  618MOL0     C83345   8.125   0.562   2.862 -0.4644 -0.1814 -0.5203
  618MOL0     N83346   8.763   0.315   2.588  0.1245  0.1948 -0.7269
  618MOL0     N83347   8.894   0.314   2.601 -0.6118 -0.1907  0.3604
  618MOL0     C83348   9.346   0.682   3.677  0.4839 -0.0662  0.6065
  618MOL0     C83349   9.417   0.734   3.778  0.3117  0.6695  0.2674
  618MOL0     C83350   9.611   0.836   4.177  0.0166  0.4190 -0.8327
  618MOL0     C83351   9.562   0.751   4.280  0.2954 -0.3703 -0.0753
  618MOL0     C83352   9.622   0.740   4.403 -0.6281 -1.2061 -0.6343
  618MOL0     C83353   9.746   0.809   4.422  0.7424  0.0302  0.8952
  618MOL0     O83354   9.792   0.799   4.544 -0.4494  0.4300 -0.9884
  618MOL0     C83355   9.937   0.792   4.552  0.0590  0.0778  0.5328
  618MOL0     C83356   9.995   0.769   4.696  0.0588  0.3065 -0.1529
  618MOL0     C83357   9.970   0.633   4.741 -0.2782  0.2432 -1.6019
  618MOL0     C83358  10.064   0.600   4.862 -0.6384 -0.2919  0.2234
  618MOL0     C83359  10.019   0.652   4.991  0.1299  0.7908 -0.0431
  618MOL0     C83360  10.003   0.720   5.087  0.0299 -0.5896  0.7377
  618MOL0     C83361   9.793   0.897   4.323 -0.7508  0.4309  1.3967
  618MOL0     C83362   9.734   0.906   4.197 -0.4765  0.5616  0.4128
  618MOL0     H83363   9.360   0.480   4.009  1.9351  1.2373  0.3043
  618MOL0     H83364   9.264   0.372   3.803 -0.3177 -0.5550  1.3168
  618MOL0     H83365   9.363   0.396   3.456 -0.4208 -1.3982 -0.9603
  618MOL0     H83366   9.292   0.291   3.585  2.2021 -1.1866 -0.9945
  618MOL0     H83367   9.195   0.222   3.391  4.1205  0.8224  1.0304
  618MOL0     H83368   9.067   0.330   3.460  0.5685  0.6623  1.3070
  618MOL0     H83369   9.106   0.508   3.321  2.0300 -1.2016  4.8773
  618MOL0     H83370   9.258   0.438   3.248  0.4917  2.3921 -0.1250
  618MOL0     H83371   9.022   0.256   3.218  1.9701 -0.8689  0.1613
  618MOL0     H83372   8.963   0.419   3.199 -0.6979 -2.4868  1.9489
  618MOL0     H83373   9.111   0.459   3.010  1.8679  0.3511 -1.4820
  618MOL0     H83374   9.221   0.326   3.052  0.6776  3.2583 -1.7820
  618MOL0     H83375   9.012   0.173   3.010  2.6261  0.4178  0.8723
  618MOL0     H83376   8.941   0.309   2.926 -0.9701  0.5396  0.6366
  618MOL0     H83377   9.166   0.328   2.802  1.9165 -0.9815 -1.6245
  618MOL0     H83378   9.215   0.168   2.868  1.9753  2.5267  1.5068
  618MOL0     H83379   9.033   0.057   2.727  1.3433 -0.4314  2.3694
  618MOL0     H83380   9.122   0.182   2.635 -1.1745 -1.7939 -0.7735
  618MOL0     H83381   8.805   0.102   2.828  1.4898 -3.2014 -2.6623
  618MOL0     H83382   8.507   0.192   2.583 -0.0549  0.8447 -1.1698
  618MOL0     H83383   8.549   0.115   2.742 -1.7082  0.5605 -0.2374
  618MOL0     H83384   8.354   0.281   2.701 -0.6694  0.5951  0.6261
  618MOL0     H83385   8.459   0.410   2.680  1.2886 -1.0621 -1.4616
  618MOL0     H83386   8.573   0.388   2.887  1.1940 -0.5895 -1.4616
  618MOL0     H83387   8.480   0.237   2.928  0.8168 -0.7090 -0.7410
  618MOL0     H83388   8.363   0.514   2.891  0.2211 -0.7593  0.8683
  618MOL0     H83389   8.382   0.441   3.053  3.4098 -0.4602 -0.2793
  618MOL0     H83390   8.128   0.266   2.715 -0.8317  0.6285 -2.7952
  618MOL0     H83391   7.834   0.282   2.594  0.6259 -1.0785 -0.2101
  618MOL0     H83392   7.903   0.373   2.463 -1.9714 -0.5216  0.5551
  618MOL0     H83393   7.999   0.249   2.522 -1.1111 -1.2625  0.2286
  618MOL0     H83394   7.759   0.705   2.319  1.0946 -2.2866  1.9948
  618MOL0     H83395   7.560   0.800   2.235 -0.7654 -2.1879  1.0111
  618MOL0     H83396   7.421   0.958   2.138 -2.8590  2.0086 -2.0718
  618MOL0     H83397   7.355   0.831   2.231  3.6326  0.0263 -0.9802
  618MOL0     H83398   7.149   0.949   2.285  0.7280  0.3263 -0.0541
  618MOL0     H83399   7.209   1.092   2.192  1.2550 -0.6029 -3.2666
  618MOL0     H83400   7.050   0.980   2.069 -0.3899  0.6465  1.8540
  618MOL0     H83401   7.156   0.838   2.061 -1.7085  1.6353 -1.2077
  618MOL0     H83402   7.337   1.003   1.941  0.4489 -0.4072  2.9799
  618MOL0     H83403   7.205   0.954   1.848 -0.2700  1.7655 -0.5131
  618MOL0     H83404   7.220   1.224   2.001  2.0973  0.1245  0.1718
  618MOL0     H83405   7.086   1.164   1.890  0.5278  0.4668 -1.6076
  618MOL0     H83406   7.270   1.338   1.800  0.4130 -0.1640  0.8278
  618MOL0     H83407   7.386   1.221   1.843 -0.5254  2.7103  4.0384
  618MOL0     H83408   7.160   1.161   1.639 -1.1917  3.0060 -0.3840
  618MOL0     H83409   7.327   1.079   1.649  0.0252 -0.2278 -0.6539
  618MOL0     H83410   7.286   1.351   1.556 -0.1087  1.2425 -0.0877
  618MOL0     H83411   7.325   1.195   1.468  0.9389  2.8443 -1.8901
  618MOL0     H83412   7.521   1.070   2.558 -0.2293 -0.4832 -1.1275
  618MOL0     H83413   7.714   0.947   2.683 -2.8276 -1.6426  1.5529
  618MOL0     H83414   8.004   0.734   2.794 -1.3148  0.0452 -2.6743
  618MOL0     H83415   8.174   0.621   2.939 -0.1197  1.8322 -2.1570
  618MOL0     H83416   9.332   0.731   3.582 -0.5677 -2.0443 -0.3204
  618MOL0     H83417   9.464   0.832   3.774  2.9828 -0.5523 -0.8063
  618MOL0     H83418   9.476   0.688   4.259  1.6356 -1.5525 -2.5330
  618MOL0     H83419   9.577   0.669   4.472 -0.9310  0.1031  0.5686
  618MOL0     H83420   9.982   0.730   4.474  1.7073  2.3455 -0.4234
  618MOL0     H83421   9.981   0.891   4.537 -0.5640  0.3810  0.6944
  618MOL0     H83422   9.958   0.852   4.756  0.2983  0.0054  0.4249
  618MOL0     H83423  10.104   0.778   4.696  0.3744 -2.3458  1.3663
  618MOL0     H83424   9.996   0.572   4.655  0.1330  0.7763 -1.8673
  618MOL0     H83425   9.864   0.627   4.768  0.1577  2.1438  0.9957
  618MOL0     H83426  10.166   0.639   4.852 -0.6246 -0.0758  1.1238
  618MOL0     H83427  10.061   0.490   4.864  0.9386 -0.4377 -1.9071
  618MOL0     H83428   9.999   0.785   5.172 -4.1080 -1.7770  1.6959
  618MOL0     H83429   9.882   0.958   4.337  0.0682 -0.5552  0.6358
  618MOL0     H83430   9.779   0.964   4.117  0.1310  1.3651  1.3049
  619MOL0     O83431   6.711   9.716  10.997 -0.3478 -0.6242  0.3313
  619MOL0     C83432   6.597   9.766  11.019  0.3345  0.4662  0.2298
  619MOL0     O83433   6.576   9.876  11.086  0.2687 -0.1026  0.1932
  619MOL0     C83434   6.668   9.975  11.097  1.1222  0.2312  0.3848
  619MOL0     C83435   6.703  10.014  11.221  0.5276 -0.9526 -0.5960
  619MOL0     C83436   6.783  10.134  11.243  0.1755 -0.2876  0.1955
  619MOL0     C83437   6.815  10.217  11.140  0.3260 -0.3315  0.0277
  619MOL0     O83438   6.888  10.332  11.152  0.3742 -0.3931  0.4379
  619MOL0     C83439   6.809  10.454  11.139 -0.3602  0.5970 -0.5983
  619MOL0     C83440   6.848  10.521  11.010  0.0910  0.0861 -1.1099
  619MOL0     C83441   6.789  10.673  10.988  0.6584 -1.1872  0.0983
  619MOL0     C83442   6.903  10.781  10.972 -0.8766  0.0453 -0.3046
  619MOL0     C83443   6.843  10.919  10.951 -0.4157  0.6277  0.0923
  619MOL0     C83444   6.820  10.992  11.079 -0.2631 -0.2461  0.5233
  619MOL0     C83445   6.773  11.133  11.052 -0.7394  0.0017  0.2810
  619MOL0     C83446   6.726  11.201  11.175 -0.7905 -0.9218  0.2766
  619MOL0     N83447   6.693  11.340  11.147  0.8665  0.3615 -0.3078
  619MOL0     C83448   6.772  11.447  11.159 -0.4573  0.4149  0.1968
  619MOL0     C83449   6.712  11.552  11.111  0.4723 -0.3425  0.1840
  619MOL0     C83450   6.746  11.700  11.131 -0.0889  0.0087 -0.7187
  619MOL0     C83451   6.884  11.733  11.071  0.8140  0.0864 -0.3099
  619MOL0     C83452   6.887  11.727  10.920 -0.4336  0.0172  0.1049
  619MOL0     C83453   6.998  11.822  10.867  0.2265  0.0747 -0.1838
  619MOL0     O83454   7.004  11.804  10.720 -0.0438  0.7660 -0.6597
  619MOL0     C83455   6.937  11.892  10.637 -0.6825  0.1095 -0.0443
  619MOL0     C83456   6.839  11.841  10.552  0.6575 -0.9891 -0.6645
  619MOL0     C83457   6.784  11.932  10.451  0.7578 -1.6139 -0.5321
  619MOL0     C83458   6.673  11.871  10.364  0.0257  0.6668  0.0697
  619MOL0     C83459   6.818  12.065  10.455 -0.1194  0.4185 -0.2077
  619MOL0     C83460   6.761  12.163  10.360 -0.2016  0.2182  0.2330
  619MOL0     O83461   6.740  12.293  10.391 -1.2076 -0.0602  0.2122
  619MOL0     C83462   6.696  12.394  10.307 -0.1544  0.7629  0.4822
  619MOL0     C83463   6.752  12.520  10.319  0.0628  0.5165  0.0071
  619MOL0     C83464   6.711  12.624  10.230  1.4453  0.3330  0.6544
  619MOL0     C83465   6.626  12.596  10.116 -1.2529  0.3101  0.9700
  619MOL0     O83466   6.602  12.695  10.028  0.2935 -0.2407  0.1931
  619MOL0     C83467   6.467  12.715   9.969 -0.1418  0.0785 -0.0529
  619MOL0     C83468   6.428  12.853   9.945  0.1017  0.3832 -0.0105
  619MOL0     C83469   6.383  12.943  10.060  0.3091 -0.2786 -1.5133
  619MOL0     C83470   6.496  12.989  10.156  1.6126  0.4971 -0.0190
  619MOL0     C83471   6.619  13.045  10.073 -0.1830 -0.5276  0.5796
  619MOL0     C83472   6.592  13.169   9.990  0.1812  0.4230  0.1698
  619MOL0     C83473   6.719  13.260   9.953  0.6781 -0.1461 -0.6780
  619MOL0     C83474   6.680  13.394   9.888  0.4315 -0.3970 -0.9221
  619MOL0    Cl83475   6.601  13.362   9.725  0.6470 -0.0364  0.2086
  619MOL0     C83476   6.572  12.472  10.113  0.0891  0.6912  0.6632
  619MOL0     C83477   6.597  12.378  10.211  0.8658 -0.7320 -0.1958
  619MOL0     O83478   6.773  12.117  10.243 -0.0527 -0.4983  1.0975
  619MOL0     C83479   6.905  12.104  10.550  0.1276  0.2681  0.0375
  619MOL0     C83480   6.973  12.018  10.633 -0.5820  0.0587 -0.4710
  619MOL0     N83481   6.595  11.517  11.048 -0.0641  0.6335  0.0668
  619MOL0     N83482   6.583  11.390  11.085  0.8258 -0.4398  0.3255
  619MOL0     C83483   6.773  10.173  11.003 -0.3466 -0.3096 -0.1383
  619MOL0     C83484   6.699  10.057  10.991 -0.1417  0.1384  0.2108
  619MOL0     C83485   6.482   9.689  10.963 -1.3533  1.2509 -0.5609
  619MOL0     C83486   6.344   9.703  11.004 -0.7824  0.9368  0.9528
  619MOL0     C83487   6.245   9.621  10.956 -0.1436  0.2151  0.5374
  619MOL0     C83488   6.268   9.528  10.860  0.0078 -0.9165  0.7770
  619MOL0     O83489   6.162   9.449  10.820  0.0273  0.0871 -0.7370
  619MOL0     C83490   6.186   9.349  10.721 -0.4938  0.3044 -0.1029
  619MOL0     C83491   6.170   9.412  10.584 -0.6625 -0.2958 -0.4210
  619MOL0     C83492   6.186   9.326  10.458  0.2489 -0.6000 -0.5247
  619MOL0     C83493   6.323   9.334  10.388 -0.0829  0.3112 -0.1749
  619MOL0     C83494   6.442   9.296  10.463 -0.3622  0.1782  0.8299
  619MOL0     C83495   6.542   9.260  10.530  1.4540  1.2327 -0.0246
  619MOL0     C83496   6.399   9.515  10.820 -0.4886  1.8104 -1.3429
  619MOL0     C83497   6.504   9.593  10.866 -0.7042  0.1806  0.8956
  619MOL0     H83498   6.676   9.949  11.303 -0.3826 -0.7720 -0.7386
  619MOL0     H83499   6.843  10.161  11.329 -0.6071  0.7845  0.4280
  619MOL0     H83500   6.702  10.446  11.160 -0.2430  2.8948  1.3475
  619MOL0     H83501   6.831  10.517  11.226 -1.7691 -0.8394  0.8807
  619MOL0     H83502   6.956  10.521  10.997  0.4062 -1.7998  0.9029
  619MOL0     H83503   6.801  10.454  10.937 -0.7344 -1.4333  0.7180
  619MOL0     H83504   6.720  10.681  10.903 -1.3111 -0.8706  1.6604
  619MOL0     H83505   6.722  10.706  11.067  0.1468  3.4886 -1.9840
  619MOL0     H83506   6.973  10.785  11.056  0.1455  2.4768 -1.1770
  619MOL0     H83507   6.962  10.750  10.886  0.9960 -0.1351  0.9897
  619MOL0     H83508   6.921  10.980  10.904 -0.2886 -1.6356 -2.8945
  619MOL0     H83509   6.757  10.923  10.884 -0.0772  0.6120 -0.3457
  619MOL0     H83510   6.757  10.945  11.155 -1.0364  0.8337  0.5722
  619MOL0     H83511   6.918  10.990  11.127 -0.4672 -1.2216  0.9222
  619MOL0     H83512   6.858  11.183  11.005 -0.5225 -0.5383  0.0972
  619MOL0     H83513   6.687  11.129  10.986  1.0223 -2.7220 -2.0644
  619MOL0     H83514   6.809  11.202  11.246 -1.1539 -2.2527  0.7482
  619MOL0     H83515   6.634  11.154  11.213 -2.4517 -0.7086 -3.1032
  619MOL0     H83516   6.874  11.446  11.197 -0.1954 -0.1653 -0.4777
  619MOL0     H83517   6.662  11.754  11.086  0.3099  0.7360 -0.5969
  619MOL0     H83518   6.743  11.728  11.236  1.4619  1.4938 -1.0135
  619MOL0     H83519   6.957  11.674  11.126 -1.4350 -0.6056  2.1237
  619MOL0     H83520   6.895  11.836  11.106  4.5587  0.2379 -1.5318
  619MOL0     H83521   6.791  11.766  10.887 -0.0961  1.8857  1.2012
  619MOL0     H83522   6.902  11.625  10.882  1.6143  0.4898 -0.4513
  619MOL0     H83523   7.093  11.804  10.917  1.3062  0.3655 -2.0455
  619MOL0     H83524   6.983  11.925  10.899  2.0150 -0.5682  3.1502
  619MOL0     H83525   6.803  11.743  10.581 -0.7688 -0.3666 -0.2463
  619MOL0     H83526   6.574  11.918  10.359 -1.1012 -1.6696 -3.5020
  619MOL0     H83527   6.712  11.873  10.262  0.8803 -2.2227  0.2337
  619MOL0     H83528   6.655  11.766  10.390 -0.0919  0.0650 -2.2225
  619MOL0     H83529   6.817  12.543  10.403 -0.6808 -0.0717  0.7758
  619MOL0     H83530   6.739  12.728  10.238  2.5273  0.2541 -1.4487
  619MOL0     H83531   6.469  12.653   9.879 -0.0254 -1.3433  0.8961
  619MOL0     H83532   6.383  12.670  10.023  0.3415 -0.7085  0.0676
  619MOL0     H83533   6.503  12.902   9.882  1.3523 -4.2326 -2.5723
  619MOL0     H83534   6.337  12.847   9.885  0.0060 -2.7747  0.3149
  619MOL0     H83535   6.307  12.889  10.117 -1.2768  1.2512 -2.0965
  619MOL0     H83536   6.327  13.031  10.028  2.4204  1.2496 -1.2484
  619MOL0     H83537   6.455  13.064  10.224  0.7945  0.2567 -0.2418
  619MOL0     H83538   6.532  12.903  10.214 -1.6740 -0.4745  0.7791
  619MOL0     H83539   6.665  12.964  10.016  2.3013  1.8431 -1.0552
  619MOL0     H83540   6.693  13.076  10.147  0.6659  1.4277 -0.9744
  619MOL0     H83541   6.563  13.128   9.893  1.2171  2.2230 -0.9666
  619MOL0     H83542   6.517  13.233  10.037 -1.1318 -1.1709  0.3578
  619MOL0     H83543   6.782  13.202   9.886  0.7412 -0.9489  0.0555
  619MOL0     H83544   6.773  13.292  10.043 -0.4522 -0.0178 -0.0202
  619MOL0     H83545   6.753  13.475   9.873 -0.4342  0.4251 -0.7848
  619MOL0     H83546   6.610  13.445   9.955  0.6747 -1.3432  0.0751
  619MOL0     H83547   6.501  12.455  10.032 -0.2706  1.3292  0.8366
  619MOL0     H83548   6.538  12.287  10.214  1.0295 -1.1057 -3.6480
  619MOL0     H83549   6.941  12.207  10.553 -0.2569  0.3815  1.5872
  619MOL0     H83550   7.055  12.056  10.693  3.3999 -0.5590 -4.8464
  619MOL0     H83551   6.791  10.223  10.908 -1.1464  1.4414  0.6018
  619MOL0     H83552   6.675  10.019  10.892  2.6899 -1.2653 -0.0639
  619MOL0     H83553   6.324   9.781  11.077 -1.4745  1.6950 -0.0327
  619MOL0     H83554   6.137   9.621  10.971  0.1398 -2.9544  3.6841
  619MOL0     H83555   6.279   9.292  10.729 -1.2854 -1.1537 -0.7937
  619MOL0     H83556   6.107   9.272  10.717 -0.4727  0.2845 -3.8978
  619MOL0     H83557   6.248   9.489  10.585 -2.6093  1.7614  1.0464
  619MOL0     H83558   6.084   9.479  10.583  1.2898  2.5871  2.7690
  619MOL0     H83559   6.126   9.371  10.378 -0.9566 -2.7637 -0.9188
  619MOL0     H83560   6.153   9.222  10.471 -2.8881  0.1770 -1.2286
  619MOL0     H83561   6.338   9.438  10.357 -1.6867  0.7891  0.5391
  619MOL0     H83562   6.317   9.260  10.308  0.6250 -0.7795  0.7434
  619MOL0     H83563   6.620   9.206  10.580  1.7732  1.0634 -0.6933
  619MOL0     H83564   6.427   9.428  10.761 -3.0329 -0.8078  0.9973
  619MOL0     H83565   6.597   9.559  10.823 -0.3291  0.0056  1.8292
  620MOL0     O83566   5.537   1.176   1.771  0.7641  0.2284 -0.2811
  620MOL0     C83567   5.492   1.217   1.879 -0.3069 -0.0697  0.8476
  620MOL0     O83568   5.387   1.172   1.948 -0.5045 -0.1057  0.0626
  620MOL0     C83569   5.325   1.051   1.917 -0.0701 -0.0898  0.5995
  620MOL0     C83570   5.194   1.059   1.952 -0.0957  0.0647 -0.6142
  620MOL0     C83571   5.115   0.951   1.926 -0.5890  0.6040  0.0725
  620MOL0     C83572   5.172   0.834   1.870  0.6894 -0.8924  0.0416
  620MOL0     O83573   5.100   0.718   1.842 -0.9439 -0.7721  0.5019
  620MOL0     C83574   4.959   0.721   1.844  0.8745 -0.3031  0.1748
  620MOL0     C83575   4.921   0.686   1.989 -0.8716 -0.6188  0.7522
  620MOL0     C83576   4.772   0.705   2.011  0.4571  1.0170 -0.1509
  620MOL0     C83577   4.711   0.637   2.133  0.2841  0.3270  0.2194
  620MOL0     C83578   4.563   0.669   2.142  0.7165  0.3746 -0.8909
  620MOL0     C83579   4.465   0.597   2.045 -0.4933  0.9431 -0.0680
  620MOL0     C83580   4.311   0.576   2.089  0.4443  0.2485 -0.2947
  620MOL0     C83581   4.239   0.706   2.110  0.1032 -0.4187 -1.6314
  620MOL0     N83582   4.102   0.681   2.164  0.8383  0.2653 -0.6938
  620MOL0     C83583   4.009   0.600   2.109 -0.1089  0.7389  0.3397
  620MOL0     C83584   3.910   0.593   2.200 -0.1013  0.4719 -0.1755
  620MOL0     C83585   3.776   0.532   2.175 -0.4718 -0.7709 -0.1755
  620MOL0     C83586   3.781   0.381   2.189  1.3066  0.1688 -0.1860
  620MOL0     C83587   3.803   0.339   2.330 -0.0728  0.1511  0.3353
  620MOL0     C83588   3.717   0.381   2.448 -0.0716 -0.1616  0.4676
  620MOL0     O83589   3.579   0.341   2.435 -0.3220 -0.6788 -0.2247
  620MOL0     C83590   3.495   0.379   2.538 -0.5736  0.6275  0.3847
  620MOL0     C83591   3.522   0.483   2.634  0.2040 -0.6799 -0.8113
  620MOL0     C83592   3.438   0.497   2.740  0.3680 -0.2319  0.1518
  620MOL0     C83593   3.485   0.588   2.853  0.6480  0.1880 -0.3386
  620MOL0     C83594   3.312   0.432   2.739  0.6462  0.4366  0.2195
  620MOL0     C83595   3.198   0.445   2.852 -0.4089  0.3696 -0.2711
  620MOL0     O83596   3.209   0.532   2.955 -0.6738  0.8046 -0.3900
  620MOL0     C83597   3.103   0.525   3.045  0.1037  0.0512  1.0648
  620MOL0     C83598   3.120   0.458   3.163 -0.6109  0.3817 -0.1844
  620MOL0     C83599   3.013   0.436   3.250 -0.3663 -0.2308 -0.3951
  620MOL0     C83600   2.888   0.483   3.227  0.0171  0.6680  0.1823
  620MOL0     O83601   2.798   0.441   3.321  0.3858  0.8035  0.5253
  620MOL0     C83602   2.653   0.466   3.301 -0.7977  0.5972  0.8200
  620MOL0     C83603   2.577   0.361   3.395 -0.3360  0.3261 -0.2956
  620MOL0     C83604   2.634   0.209   3.375 -0.6467 -0.3698 -0.1575
  620MOL0     C83605   2.558   0.150   3.242  0.4728 -0.4929 -0.5697
  620MOL0     C83606   2.593   0.013   3.215 -0.4474  0.0047 -0.1617
  620MOL0     C83607   2.502  -0.070   3.114 -0.4938  0.5510  0.6608
  620MOL0     C83608   2.492   0.015   2.995 -0.0271  0.4754  0.6325
  620MOL0     C83609   2.441  -0.077   2.882  0.7221  0.2285 -0.5447
  620MOL0    Cl83610   2.419   0.035   2.745  0.0326  0.2065  0.5668
  620MOL0     C83611   2.870   0.554   3.112 -0.8798 -1.0562 -0.8815
  620MOL0     C83612   2.975   0.577   3.021  0.5513  0.9402 -0.6283
  620MOL0     O83613   3.112   0.357   2.852 -1.0501 -0.1898  0.1736
  620MOL0     C83614   3.282   0.344   2.620 -1.0586 -0.8366  0.7674
  620MOL0     C83615   3.376   0.320   2.532  1.3944  0.7601 -0.0217
  620MOL0     N83616   3.941   0.687   2.302  0.1905  0.5969  0.7398
  620MOL0     N83617   4.062   0.726   2.280 -0.3343 -0.5141  0.6394
  620MOL0     C83618   5.307   0.822   1.833 -0.7598  0.6990 -0.4695
  620MOL0     C83619   5.380   0.938   1.859 -0.2608  1.1738 -0.8834
  620MOL0     C83620   5.538   1.352   1.921 -0.3631 -0.2296 -0.0029
  620MOL0     C83621   5.649   1.408   1.858  0.2265  0.2167 -0.2897
  620MOL0     C83622   5.692   1.538   1.873  0.5522 -0.6433 -1.0095
  620MOL0     C83623   5.631   1.615   1.971  0.3967  0.2026 -0.4587
  620MOL0     O83624   5.672   1.744   1.995 -0.2595  0.6830  0.2926
  620MOL0     C83625   5.622   1.820   1.879  0.2122  0.1516 -0.4673
  620MOL0     C83626   5.638   1.971   1.914  0.8322  0.5476 -0.5173
  620MOL0     C83627   5.767   2.024   1.866  0.6765 -0.0174 -0.4576
  620MOL0     C83628   5.758   2.087   1.729  0.1014  0.5745  0.2137
  620MOL0     C83629   5.888   2.144   1.696  0.1651 -0.8819  0.6072
  620MOL0     C83630   6.004   2.179   1.669  0.4678 -0.6414 -1.0008
  620MOL0     C83631   5.533   1.553   2.052  0.5691 -1.0280 -0.8282
  620MOL0     C83632   5.487   1.420   2.033  1.4659 -0.9150  0.2394
  620MOL0     H83633   5.148   1.148   1.992  0.2246  0.5988 -1.4057
  620MOL0     H83634   5.008   0.958   1.944 -0.8187  0.5847 -1.1588
  620MOL0     H83635   4.913   0.813   1.808  3.7057  0.5277 -1.7058
  620MOL0     H83636   4.931   0.639   1.776  2.0083 -1.6133  1.2201
  620MOL0     H83637   4.955   0.583   2.006  1.7563 -0.0960 -0.7871
  620MOL0     H83638   4.980   0.748   2.057  1.2121  0.0981 -1.5657
  620MOL0     H83639   4.749   0.811   2.025  1.1265  0.9868  1.2905
  620MOL0     H83640   4.731   0.657   1.921  1.7533 -0.6862  0.1290
  620MOL0     H83641   4.728   0.529   2.128 -0.1033  0.2644  0.2260
  620MOL0     H83642   4.761   0.681   2.220 -1.2497  1.9508  0.3421
  620MOL0     H83643   4.525   0.660   2.245  0.0852 -1.2723 -1.2376
  620MOL0     H83644   4.557   0.778   2.133 -0.6459  1.1357  4.9805
  620MOL0     H83645   4.476   0.638   1.944  1.9976  0.2026 -0.1658
  620MOL0     H83646   4.509   0.498   2.033 -1.6039  0.7445 -3.3252
  620MOL0     H83647   4.268   0.513   2.011  2.1957 -0.0879 -1.0345
  620MOL0     H83648   4.305   0.522   2.184 -0.9695  1.6523  0.4586
  620MOL0     H83649   4.243   0.771   2.022 -1.5705  0.1870 -1.2924
  620MOL0     H83650   4.288   0.745   2.199 -2.4435  0.4519 -0.5144
  620MOL0     H83651   4.024   0.555   2.012  2.2635 -1.6046  1.6414
  620MOL0     H83652   3.707   0.571   2.250  0.8841 -3.4830  2.7612
  620MOL0     H83653   3.745   0.564   2.075  0.0924  2.3043  0.5263
  620MOL0     H83654   3.861   0.338   2.128 -1.3028 -0.4547 -3.4811
  620MOL0     H83655   3.688   0.329   2.165 -0.5375  2.7768  0.8506
  620MOL0     H83656   3.906   0.359   2.361  1.3597 -4.1378 -1.0201
  620MOL0     H83657   3.803   0.230   2.321 -1.0367  0.1946 -0.2895
  620MOL0     H83658   3.730   0.490   2.452  3.2381 -0.3470 -1.3814
  620MOL0     H83659   3.758   0.345   2.542  3.2542  1.9752 -0.0137
  620MOL0     H83660   3.612   0.543   2.630 -0.2122  0.1470  0.9042
  620MOL0     H83661   3.469   0.538   2.949 -1.7001  0.0784 -0.7396
  620MOL0     H83662   3.594   0.598   2.852  0.4443  4.2190  0.7294
  620MOL0     H83663   3.431   0.683   2.856 -3.5838 -1.9900 -0.3667
  620MOL0     H83664   3.218   0.423   3.193 -0.1333  2.6422  1.0220
  620MOL0     H83665   3.031   0.401   3.351  1.0837 -2.6931 -1.4314
  620MOL0     H83666   2.613   0.566   3.320  2.3287  2.0981  0.1682
  620MOL0     H83667   2.632   0.438   3.197  2.4456  0.5588  0.0684
  620MOL0     H83668   2.585   0.398   3.498  2.6979 -2.7133  0.7431
  620MOL0     H83669   2.472   0.361   3.363 -0.9470  0.3543  1.6062
  620MOL0     H83670   2.611   0.151   3.465  1.2202 -1.1047 -0.1174
  620MOL0     H83671   2.741   0.192   3.362 -1.0911 -2.9364 -0.9839
  620MOL0     H83672   2.452   0.140   3.266  0.3998  2.4647  0.7349
  620MOL0     H83673   2.574   0.222   3.161 -0.2293  1.4116  0.9168
  620MOL0     H83674   2.597  -0.057   3.300  0.2151  0.4906  0.2211
  620MOL0     H83675   2.695   0.016   3.173  1.1175  1.4496  3.3470
  620MOL0     H83676   2.558  -0.162   3.095 -1.2426  0.8345 -4.3156
  620MOL0     H83677   2.406  -0.104   3.155 -0.1945  0.9340  1.7141
  620MOL0     H83678   2.592   0.046   2.964  0.3689 -3.0032 -2.1895
  620MOL0     H83679   2.416   0.092   3.013 -2.4632 -1.7665  0.5313
  620MOL0     H83680   2.343  -0.124   2.901  0.5202 -1.1832 -4.3080
  620MOL0     H83681   2.524  -0.148   2.875 -0.6800 -2.0982  3.0247
  620MOL0     H83682   2.774   0.587   3.073 -1.1370 -0.3721  0.2825
  620MOL0     H83683   2.945   0.615   2.924 -1.6489  1.1604  0.0987
  620MOL0     H83684   3.190   0.288   2.631 -1.9355  0.8353  2.7366
  620MOL0     H83685   3.348   0.256   2.450 -3.5196  0.9984  1.1672
  620MOL0     H83686   5.341   0.725   1.799 -0.8087 -0.1231  1.6788
  620MOL0     H83687   5.484   0.942   1.827 -0.5426 -0.5521 -2.1929
  620MOL0     H83688   5.711   1.353   1.788 -0.0083 -0.1388 -0.2212
  620MOL0     H83689   5.769   1.570   1.803  1.1833  0.4378  0.1371
  620MOL0     H83690   5.676   1.793   1.788  1.9747 -0.7333  0.7868
  620MOL0     H83691   5.519   1.794   1.853  0.3297 -0.1271 -0.6617
  620MOL0     H83692   5.637   1.980   2.023  2.7645  3.8506 -0.6375
  620MOL0     H83693   5.560   2.028   1.862  0.7703  0.2000 -0.8096
  620MOL0     H83694   5.835   1.941   1.850 -0.4831 -0.7351 -1.9268
  620MOL0     H83695   5.800   2.097   1.941 -1.7625 -2.7124  3.6424
  620MOL0     H83696   5.681   2.164   1.725 -0.2872  0.1436 -0.7934
  620MOL0     H83697   5.745   2.006   1.657  0.5635  1.9237 -1.4737
  620MOL0     H83698   6.095   2.227   1.639  0.9755  0.8371  2.4326
  620MOL0     H83699   5.493   1.608   2.137 -1.3226  1.6186 -3.2471
  620MOL0     H83700   5.423   1.374   2.109  0.2043  3.9754  2.5349
  621MOL0     O83701   4.634   0.356   9.956 -0.3429  0.0397  0.2540
  621MOL0     C83702   4.651   0.446   9.877 -0.0370 -1.0597 -0.7497
  621MOL0     O83703   4.708   0.433   9.753  0.0392  0.4202  0.5211
  621MOL0     C83704   4.715   0.310   9.699 -0.4747 -0.7929  0.7987
  621MOL0     C83705   4.836   0.270   9.634 -0.2629 -0.3066  0.5762
  621MOL0     C83706   4.850   0.149   9.570  0.7546  0.5685 -0.3869
  621MOL0     C83707   4.733   0.068   9.556  0.1923 -0.1729  0.3889
  621MOL0     O83708   4.759  -0.042   9.478  0.5866  0.1147  0.2137
  621MOL0     C83709   4.713  -0.167   9.514 -0.1351  0.6676 -0.2272
  621MOL0     C83710   4.753  -0.265   9.397 -0.1066 -0.6157  0.4726
  621MOL0     C83711   4.907  -0.283   9.396  0.6306  0.2820 -0.2780
  621MOL0     C83712   4.956  -0.354   9.264  0.1797 -0.7037 -0.3138
  621MOL0     C83713   4.889  -0.496   9.236  0.2163  0.2626 -0.9848
  621MOL0     C83714   4.975  -0.604   9.157 -0.0236  0.4352 -0.1383
  621MOL0     C83715   5.094  -0.641   9.231 -0.5570 -0.6481  0.0155
  621MOL0     C83716   5.153  -0.779   9.178 -0.6577  0.1749  0.5109
  621MOL0     N83717   5.286  -0.801   9.236  0.2208  0.1967  0.1282
  621MOL0     C83718   5.327  -0.801   9.370 -0.1489  0.6627  0.6298
  621MOL0     C83719   5.453  -0.830   9.363  0.0662 -0.6359  0.8139
  621MOL0     C83720   5.550  -0.822   9.475 -0.1395  0.7180  1.4926
  621MOL0     C83721   5.492  -0.888   9.598  0.1565  0.3803  0.0884
  621MOL0     C83722   5.584  -0.891   9.716 -0.8674 -1.3910 -0.6566
  621MOL0     C83723   5.538  -0.981   9.840 -0.4510  0.2761  0.6829
  621MOL0     O83724   5.585  -0.924   9.960 -0.6166 -0.4420  0.4448
  621MOL0     C83725   5.524  -0.965  10.082  0.5712 -0.2436  0.7660
  621MOL0     C83726   5.524  -0.873  10.185 -0.2572 -0.0635  0.3468
  621MOL0     C83727   5.443  -0.883  10.300 -0.4006  0.2551  0.0025
  621MOL0     C83728   5.480  -0.794  10.411  0.3540  0.0091  0.5669
  621MOL0     C83729   5.344  -0.996  10.304  0.4359 -0.1936 -0.8819
  621MOL0     C83730   5.255  -1.020  10.418  0.5000 -0.5519 -0.7568
  621MOL0     O83731   5.154  -1.113  10.396  0.3736  0.2478 -0.8055
  621MOL0     C83732   5.056  -1.138  10.487  0.1417 -0.8736  0.6251
  621MOL0     C83733   5.054  -1.267  10.538  0.4344 -0.7696 -1.3440
  621MOL0     C83734   4.953  -1.295  10.639  0.7166 -0.0021  0.7559
  621MOL0     C83735   4.867  -1.199  10.691 -0.1864 -0.0089 -0.3107
  621MOL0     O83736   4.789  -1.241  10.800  0.0001 -0.4232 -0.0193
  621MOL0     C83737   4.690  -1.149  10.844 -0.6740  0.0597 -0.1479
  621MOL0     C83738   4.577  -1.216  10.924 -1.1688 -1.0402  0.3543
  621MOL0     C83739   4.511  -1.329  10.853 -0.2424  0.0740 -0.1103
  621MOL0     C83740   4.385  -1.367  10.933  0.2221  0.4079  0.0807
  621MOL0     C83741   4.407  -1.415  11.072  0.0247 -0.4790 -0.5677
  621MOL0     C83742   4.316  -1.522  11.128 -1.6744 -0.1955 -0.6399
  621MOL0     C83743   4.385  -1.585  11.249  0.7827  0.5024  0.2034
  621MOL0     C83744   4.267  -1.647  11.329  0.8160  0.2117 -0.7074
  621MOL0    Cl83745   4.177  -1.523  11.411 -0.2923  0.3345 -0.2421
  621MOL0     C83746   4.870  -1.065  10.637 -0.0738  0.4737 -0.2075
  621MOL0     C83747   4.959  -1.047  10.528  0.5491 -1.2308 -0.1424
  621MOL0     O83748   5.257  -0.935  10.513  0.3384  0.9468  0.0792
  621MOL0     C83749   5.347  -1.081  10.193 -0.4789  0.1372 -0.5361
  621MOL0     C83750   5.437  -1.068  10.090 -0.8596 -0.4040 -0.1683
  621MOL0     N83751   5.488  -0.839   9.227  0.3155 -0.1298  0.0111
  621MOL0     N83752   5.391  -0.824   9.151  0.0328 -0.4367  0.5574
  621MOL0     C83753   4.606   0.108   9.603  0.9116  0.7964  0.5642
  621MOL0     C83754   4.609   0.227   9.682 -0.4503 -1.1101 -0.3889
  621MOL0     C83755   4.600   0.584   9.918 -0.4673  0.8649  0.1094
  621MOL0     C83756   4.548   0.607  10.043  0.2308  0.6545  0.8293
  621MOL0     C83757   4.500   0.736  10.087 -0.6591  0.1233 -0.1340
  621MOL0     C83758   4.499   0.836  10.004 -0.5558 -0.3568 -0.6303
  621MOL0     O83759   4.438   0.948  10.049  0.4675 -0.0604  0.1160
  621MOL0     C83760   4.332   1.005   9.974 -0.3907 -0.0430  0.7310
  621MOL0     C83761   4.382   1.115   9.878  0.0883  1.0513 -0.8021
  621MOL0     C83762   4.378   1.263   9.940  0.8222 -0.1194 -0.0795
  621MOL0     C83763   4.349   1.360   9.828  0.2829  0.2924  0.5573
  621MOL0     C83764   4.367   1.504   9.875 -0.8023 -0.1643 -0.3124
  621MOL0     C83765   4.382   1.617   9.917 -0.4525 -0.4232 -1.0612
  621MOL0     C83766   4.547   0.815   9.874  0.6489 -0.0073  0.3626
  621MOL0     C83767   4.609   0.697   9.830 -0.8347  0.5088  0.0918
  621MOL0     H83768   4.919   0.341   9.634 -0.5216  0.0035  1.0033
  621MOL0     H83769   4.940   0.118   9.519  1.1852  2.1292 -0.6036
  621MOL0     H83770   4.754  -0.205   9.608  1.2595  3.1798  0.2946
  621MOL0     H83771   4.604  -0.171   9.515 -0.2095 -2.6957 -3.5903
  621MOL0     H83772   4.709  -0.361   9.426 -0.9882  0.5042  3.1521
  621MOL0     H83773   4.718  -0.236   9.298  3.1973 -2.6136 -1.5108
  621MOL0     H83774   4.946  -0.182   9.414 -1.5703  1.7600 -3.0241
  621MOL0     H83775   4.949  -0.345   9.476  0.6984  0.9297  0.1923
  621MOL0     H83776   4.934  -0.288   9.180 -2.3403  0.8278  1.4094
  621MOL0     H83777   5.065  -0.360   9.272  0.0697 -0.6328  1.5083
  621MOL0     H83778   4.878  -0.528   9.340 -2.2132 -4.5596 -2.4435
  621MOL0     H83779   4.789  -0.487   9.192 -1.6091  0.5607  2.8701
  621MOL0     H83780   4.910  -0.691   9.142 -0.5538  0.9391 -0.8173
  621MOL0     H83781   4.996  -0.563   9.058 -3.6633  1.0281 -0.7977
  621MOL0     H83782   5.164  -0.557   9.223 -1.1657 -0.2664 -1.6132
  621MOL0     H83783   5.072  -0.657   9.337 -0.6522 -0.2685  0.0526
  621MOL0     H83784   5.154  -0.778   9.069 -2.9639 -0.2477  0.4393
  621MOL0     H83785   5.091  -0.864   9.210  0.3448 -1.6028 -1.9132
  621MOL0     H83786   5.276  -0.770   9.461  0.8364  3.2647  0.3859
  621MOL0     H83787   5.643  -0.876   9.451 -2.0431 -1.4613 -1.7549
  621MOL0     H83788   5.569  -0.716   9.496 -4.8273  1.7856  1.2603
  621MOL0     H83789   5.475  -0.992   9.570  0.2763 -0.5639  3.1756
  621MOL0     H83790   5.400  -0.837   9.627  0.3835 -0.1863  1.9198
  621MOL0     H83791   5.606  -0.791   9.756 -0.5203 -2.0855  0.9751
  621MOL0     H83792   5.679  -0.940   9.693 -0.0405 -1.1613  1.9292
  621MOL0     H83793   5.554  -1.088   9.827  0.1334  0.4095  0.3038
  621MOL0     H83794   5.429  -0.976   9.832 -0.4305 -1.0472 -0.8833
  621MOL0     H83795   5.582  -0.781  10.177 -0.1496 -0.2734 -1.9783
  621MOL0     H83796   5.395  -0.732  10.439 -2.2235 -3.0841  0.0556
  621MOL0     H83797   5.518  -0.855  10.493  3.1984 -2.5826 -2.4148
  621MOL0     H83798   5.559  -0.728  10.373 -0.0677 -0.9404 -2.1504
  621MOL0     H83799   5.112  -1.354  10.510 -1.6920 -2.8033  0.1993
  621MOL0     H83800   4.952  -1.399  10.668  2.0376 -0.6899 -1.3936
  621MOL0     H83801   4.734  -1.080  10.917  0.1091 -3.0683  2.6194
  621MOL0     H83802   4.639  -1.087  10.769 -2.7105 -1.9514 -0.5535
  621MOL0     H83803   4.626  -1.266  11.008 -1.8644 -1.2922  0.6218
  621MOL0     H83804   4.523  -1.127  10.957  0.3510  0.1830 -0.3437
  621MOL0     H83805   4.564  -1.424  10.847 -0.4535  0.0267 -1.7775
  621MOL0     H83806   4.493  -1.294  10.751  3.6394  3.6024  0.1435
  621MOL0     H83807   4.305  -1.291  10.937 -0.8850 -0.6688 -0.8497
  621MOL0     H83808   4.339  -1.443  10.869  0.4200 -1.8367  2.4483
  621MOL0     H83809   4.413  -1.338  11.149  0.1187 -0.6685 -0.3837
  621MOL0     H83810   4.509  -1.455  11.071  0.0289 -0.6158 -3.1466
  621MOL0     H83811   4.222  -1.468  11.146  0.4320  2.7756  3.1338
  621MOL0     H83812   4.305  -1.601  11.053  0.0500 -1.7561  0.6452
  621MOL0     H83813   4.443  -1.510  11.304  4.1880 -0.3496 -1.8628
  621MOL0     H83814   4.465  -1.655  11.222  1.6404  1.5678 -0.1004
  621MOL0     H83815   4.290  -1.720  11.407 -1.0427  0.3534 -0.0071
  621MOL0     H83816   4.202  -1.696  11.255 -1.9967 -2.4096  3.1254
  621MOL0     H83817   4.805  -0.989  10.678  0.1822  0.9515 -0.6788
  621MOL0     H83818   4.956  -0.953  10.475 -1.5496 -2.6713 -2.8763
  621MOL0     H83819   5.271  -1.158  10.184 -1.3653  0.8948  0.2199
  621MOL0     H83820   5.424  -1.154  10.026 -1.6570 -0.2563 -0.2155
  621MOL0     H83821   4.508   0.063   9.584  1.3768 -0.4798  1.0940
  621MOL0     H83822   4.518   0.258   9.731  0.1690 -0.2307  0.2549
  621MOL0     H83823   4.543   0.535  10.124 -1.5106 -2.2521 -1.6330
  621MOL0     H83824   4.482   0.758  10.192 -0.9312  1.2674 -0.4164
  621MOL0     H83825   4.274   0.932   9.916 -0.2321  1.8984 -2.0647
  621MOL0     H83826   4.268   1.041  10.054 -1.0603  1.4992 -0.4419
  621MOL0     H83827   4.328   1.108   9.783 -0.6475 -0.6330 -0.3079
  621MOL0     H83828   4.489   1.100   9.860  0.4028  2.3489 -0.0969
  621MOL0     H83829   4.472   1.290   9.990  0.9108  1.3831 -0.9917
  621MOL0     H83830   4.293   1.279  10.005 -2.1572 -1.7401 -3.2442
  621MOL0     H83831   4.246   1.355   9.792 -0.0689 -1.3573  1.6883
  621MOL0     H83832   4.421   1.330   9.752 -0.4463 -1.1538  0.3968
  621MOL0     H83833   4.402   1.709   9.968 -1.4516 -0.2628 -0.9500
  621MOL0     H83834   4.551   0.897   9.803 -3.0713  0.6532  0.7103
  621MOL0     H83835   4.644   0.681   9.729 -3.0004  0.7347 -0.7617
  622MOL0     O83836   9.210   9.758   4.057  0.0625 -0.0611  0.7206
  622MOL0     C83837   9.254   9.667   3.984  0.3802 -0.3108 -0.5559
  622MOL0     O83838   9.390   9.654   3.943  0.1364  0.5762 -0.0592
  622MOL0     C83839   9.496   9.735   3.995  0.0516 -0.7649 -0.4490
  622MOL0     C83840   9.618   9.679   3.994 -0.1667  0.2525  1.2767
  622MOL0     C83841   9.732   9.757   4.007 -0.2793 -0.0999  0.2478
  622MOL0     C83842   9.738   9.899   4.025  0.6623  0.2793  1.0256
  622MOL0     O83843   9.857   9.966   4.032  0.0594  0.5060  0.0827
  622MOL0     C83844   9.874  10.098   3.961  0.2081 -0.3376  0.1251
  622MOL0     C83845   9.968  10.187   4.046 -0.5034  1.0916  0.7643
  622MOL0     C83846  10.114  10.169   4.016  0.4941  0.5305 -0.3819
  622MOL0     C83847  10.170  10.028   4.015 -0.6867  0.3611  0.4022
  622MOL0     C83848  10.321  10.014   3.984  0.4550 -0.1003 -0.4109
  622MOL0     C83849  10.356  10.007   3.831 -0.2030 -0.8989  0.4674
  622MOL0     C83850  10.429   9.876   3.800 -0.6324  0.0045  0.1669
  622MOL0     C83851  10.454   9.863   3.647 -0.0590  0.1518  0.9880
  622MOL0     N83852  10.557   9.757   3.629  0.6971  0.3849 -1.5277
  622MOL0     C83853  10.679   9.779   3.577 -0.6453 -0.5820  0.2293
  622MOL0     C83854  10.732   9.656   3.560  0.4398 -1.0167 -0.3959
  622MOL0     C83855  10.873   9.630   3.517 -0.8247 -0.4017  0.6688
  622MOL0     C83856  10.972   9.598   3.629 -0.4837 -0.4534 -0.7531
  622MOL0     C83857  11.114   9.641   3.600  0.1313  0.8440 -0.2022
  622MOL0     C83858  11.167   9.583   3.464  0.6204  0.1037  1.1200
  622MOL0     O83859  11.301   9.632   3.440  0.2863 -0.2465 -0.5381
  622MOL0     C83860  11.365   9.562   3.342  0.4053  0.4800  0.2086
  622MOL0     C83861  11.468   9.622   3.271 -0.2397 -0.3393 -0.0223
  622MOL0     C83862  11.537   9.563   3.160  1.2462 -0.0781  0.3199
  622MOL0     C83863  11.618   9.650   3.059 -0.6788  0.7321 -0.8067
  622MOL0     C83864  11.501   9.427   3.125  0.7805  0.6317  0.2212
  622MOL0     C83865  11.560   9.351   3.006 -0.0325 -0.4008  0.4866
  622MOL0     O83866  11.685   9.387   2.966  0.2196 -0.1998  0.0014
  622MOL0     C83867  11.746   9.297   2.880 -0.9867  0.5933 -0.8720
  622MOL0     C83868  11.702   9.281   2.743 -0.2340 -0.1800  0.7258
  622MOL0     C83869  11.771   9.190   2.652  0.6269 -0.0578 -0.5310
  622MOL0     C83870  11.873   9.110   2.702  0.6879 -0.0132 -0.9592
  622MOL0     O83871  11.923   9.018   2.615 -0.4658  0.1006 -0.5847
  622MOL0     C83872  12.035   8.935   2.652 -0.8350  0.7273 -0.2577
  622MOL0     C83873  12.104   8.852   2.538 -0.4810 -0.3908  0.1779
  622MOL0     C83874  12.033   8.722   2.518  0.0914 -0.7378  0.5336
  622MOL0     C83875  12.088   8.613   2.422 -0.5261  0.1666 -0.0345
  622MOL0     C83876  12.118   8.656   2.269 -0.0291 -0.2889 -0.5871
  622MOL0     C83877  11.983   8.708   2.201 -0.6286  0.6726  0.2565
  622MOL0     C83878  11.873   8.606   2.191 -0.0893  0.9650 -0.0994
  622MOL0     C83879  11.755   8.676   2.142  0.2138 -0.6422 -0.6480
  622MOL0    Cl83880  11.752   8.729   1.975  0.1156 -0.1371 -0.1216
  622MOL0     C83881  11.924   9.133   2.834  1.4440 -0.0852 -0.5711
  622MOL0     C83882  11.857   9.225   2.927 -0.2123  0.4693  0.3535
  622MOL0     O83883  11.473   9.282   2.939 -0.3941 -0.0613 -0.3643
  622MOL0     C83884  11.405   9.367   3.205  0.0370 -0.6655 -0.2279
  622MOL0     C83885  11.344   9.427   3.312 -0.0419 -0.3165 -0.1119
  622MOL0     N83886  10.634   9.563   3.582  0.2458 -0.2233 -0.6271
  622MOL0     N83887  10.523   9.623   3.616 -0.8376 -0.4853  0.4441
  622MOL0     C83888   9.607   9.952   4.031  0.0580 -0.7747 -0.9452
  622MOL0     C83889   9.488   9.875   4.016 -0.4966  0.4748  0.6562
  622MOL0     C83890   9.156   9.578   3.914  0.5105 -0.2092  0.6008
  622MOL0     C83891   9.179   9.482   3.817  0.4094 -1.0469  0.5738
  622MOL0     C83892   9.078   9.404   3.769 -0.7123  0.2461 -0.0395
  622MOL0     C83893   8.942   9.444   3.788 -0.5295  0.2396 -0.4922
  622MOL0     O83894   8.834   9.390   3.717  0.4433  0.2592  0.3096
  622MOL0     C83895   8.870   9.280   3.624  0.2701 -0.4225 -0.6338
  622MOL0     C83896   8.731   9.245   3.556  0.0436  0.4178  0.0189
  622MOL0     C83897   8.724   9.119   3.469 -0.7150  0.0577 -0.3421
  622MOL0     C83898   8.603   9.123   3.373 -0.0776  0.1381  1.0194
  622MOL0     C83899   8.475   9.165   3.430  0.1320 -0.5744  0.8956
  622MOL0     C83900   8.374   9.195   3.490  0.4595  0.8624  0.0108
  622MOL0     C83901   8.916   9.544   3.883  0.3972 -1.0175  0.0557
  622MOL0     C83902   9.020   9.602   3.953 -0.6194  0.0973 -0.2661
  622MOL0     H83903   9.635   9.577   3.960 -4.3493  0.3872 -1.9705
  622MOL0     H83904   9.828   9.706   3.999 -1.1418 -1.4731 -3.5592
  622MOL0     H83905   9.924  10.073   3.867 -1.8258 -0.1976 -1.0381
  622MOL0     H83906   9.780  10.153   3.950  0.7590  1.2611  2.6583
  622MOL0     H83907   9.945  10.291   4.021  1.1246  1.8093  2.0540
  622MOL0     H83908   9.951  10.185   4.154 -0.5078  4.1169  0.9086
  622MOL0     H83909  10.140  10.215   3.920  1.3296 -0.1896 -0.5044
  622MOL0     H83910  10.165  10.235   4.087  3.9352 -0.7719 -1.4639
  622MOL0     H83911  10.156   9.991   4.117  1.7869 -0.0173  0.6725
  622MOL0     H83912  10.124   9.954   3.949  1.4049 -1.2547  0.6549
  622MOL0     H83913  10.373  10.099   4.029 -0.3745  1.6983 -2.6498
  622MOL0     H83914  10.351   9.924   4.039  0.5544 -0.1021 -0.4677
  622MOL0     H83915  10.266  10.015   3.770 -0.5020 -1.2923  0.8495
  622MOL0     H83916  10.416  10.097   3.814  2.0310 -2.0885  1.5334
  622MOL0     H83917  10.527   9.874   3.850 -1.5033 -0.7144  1.9173
  622MOL0     H83918  10.376   9.788   3.836 -1.8548  0.5030 -0.3642
  622MOL0     H83919  10.481   9.962   3.609 -1.1610  0.4777  1.0160
  622MOL0     H83920  10.356   9.830   3.612  0.5931  0.5086 -1.4004
  622MOL0     H83921  10.734   9.871   3.561  1.8380 -1.8961  0.7614
  622MOL0     H83922  10.868   9.543   3.451  2.2760  0.9302 -1.5396
  622MOL0     H83923  10.911   9.708   3.451 -0.7299 -1.3035 -0.3815
  622MOL0     H83924  10.973   9.491   3.650  3.5338 -0.1066  2.0400
  622MOL0     H83925  10.937   9.654   3.715  0.7049 -0.4859 -0.2281
  622MOL0     H83926  11.178   9.616   3.685  2.8311  2.9294 -1.4966
  622MOL0     H83927  11.114   9.749   3.589 -3.5297  1.1286  1.2820
  622MOL0     H83928  11.105   9.598   3.376  2.2004  0.1509 -0.0358
  622MOL0     H83929  11.167   9.475   3.479 -0.6970  0.1200  1.2927
  622MOL0     H83930  11.494   9.727   3.280 -2.3878  0.8321 -4.5408
  622MOL0     H83931  11.566   9.644   2.964 -1.3836 -1.4249 -0.3400
  622MOL0     H83932  11.622   9.748   3.108  2.2320  0.3159 -0.0151
  622MOL0     H83933  11.718   9.608   3.042 -0.6469  0.7718 -0.7196
  622MOL0     H83934  11.619   9.336   2.701  0.6141  1.1528  0.7532
  622MOL0     H83935  11.733   9.168   2.553 -4.8978 -0.5145  1.3123
  622MOL0     H83936  12.109   9.012   2.678  0.0616  1.1944 -3.6017
  622MOL0     H83937  12.008   8.873   2.737 -1.8236  0.2202 -0.9105
  622MOL0     H83938  12.097   8.912   2.447 -1.1115 -0.0491  0.4479
  622MOL0     H83939  12.206   8.826   2.568  0.3637 -0.2091 -2.3112
  622MOL0     H83940  11.927   8.736   2.497  0.1336 -1.2477 -0.0289
  622MOL0     H83941  12.020   8.678   2.618 -2.9640  0.0501  0.5834
  622MOL0     H83942  12.189   8.583   2.452  1.4418  2.2946 -3.7798
  622MOL0     H83943  12.026   8.523   2.425  3.0190 -2.4997  2.3383
  622MOL0     H83944  12.164   8.572   2.216  1.3229 -1.2131  1.8665
  622MOL0     H83945  12.195   8.732   2.279  1.4963 -2.0183  2.1659
  622MOL0     H83946  11.944   8.800   2.246 -0.7529  0.2847  0.9565
  622MOL0     H83947  12.030   8.744   2.109  0.9844 -0.3262  0.6544
  622MOL0     H83948  11.866   8.549   2.284  0.2116 -0.0493 -0.6861
  622MOL0     H83949  11.904   8.532   2.118  3.1863  1.0734  1.0117
  622MOL0     H83950  11.745   8.764   2.206 -0.4395 -0.6353 -0.7478
  622MOL0     H83951  11.669   8.612   2.166 -0.1015  0.7260  2.3240
  622MOL0     H83952  12.009   9.071   2.862  0.1835 -3.0201 -2.8285
  622MOL0     H83953  11.886   9.236   3.030 -2.1555  1.3772  0.8526
  622MOL0     H83954  11.358   9.270   3.194 -1.3020 -0.5870  3.3354
  622MOL0     H83955  11.285   9.356   3.369 -1.8697 -0.7899 -2.4215
  622MOL0     H83956   9.589  10.059   4.043  1.9721 -0.5695  0.7396
  622MOL0     H83957   9.389   9.917   4.002  0.3129  1.7727 -1.7407
  622MOL0     H83958   9.283   9.479   3.787  1.1683 -2.9043  3.0024
  622MOL0     H83959   9.107   9.331   3.694 -0.0947  0.8830 -0.4292
  622MOL0     H83960   8.937   9.308   3.542 -0.3549 -3.7458 -2.4301
  622MOL0     H83961   8.920   9.195   3.672  4.1561  1.7824 -0.2755
  622MOL0     H83962   8.699   9.334   3.500 -0.7419  1.4340  1.9673
  622MOL0     H83963   8.661   9.225   3.637  0.9038 -0.6222  0.5239
  622MOL0     H83964   8.711   9.027   3.526 -0.6699 -1.6189 -2.9131
  622MOL0     H83965   8.811   9.106   3.405  1.1113 -1.0187  2.2157
  622MOL0     H83966   8.583   9.023   3.335  3.9427 -0.5181  0.1740
  622MOL0     H83967   8.626   9.184   3.286 -2.7550  2.0664  1.5299
  622MOL0     H83968   8.301   9.247   3.549  2.9897  1.9247  2.4560
  622MOL0     H83969   8.812   9.566   3.906  0.6737 -1.7404  2.2515
  622MOL0     H83970   8.998   9.689   4.014  0.9136 -0.2246  0.8006
  623MOL0     O83971   6.858   0.367   9.288  0.1205 -0.1217 -0.0943
  623MOL0     C83972   6.745   0.324   9.265  0.0851  0.5605  0.0648
  623MOL0     O83973   6.709   0.196   9.247  0.5524  0.0099 -0.3023
  623MOL0     C83974   6.809   0.126   9.184 -0.1433 -0.9219 -0.5943
  623MOL0     C83975   6.858  -0.001   9.230 -0.2874  0.2159  0.4024
  623MOL0     C83976   6.971  -0.065   9.167  0.2702  0.2881  0.2710
  623MOL0     C83977   7.029  -0.015   9.048 -0.6285  0.1915  0.6821
  623MOL0     O83978   7.120  -0.085   8.970  0.7891  0.7324  0.2301
  623MOL0     C83979   7.241  -0.028   8.933 -0.0532 -0.4027 -0.1582
  623MOL0     C83980   7.351  -0.130   8.949  0.2725  0.0785 -0.3730
  623MOL0     C83981   7.364  -0.215   8.825  0.0973 -0.2318 -0.0888
  623MOL0     C83982   7.473  -0.331   8.835  0.1122  0.0834 -0.1991
  623MOL0     C83983   7.447  -0.442   8.718 -0.3512  0.0130 -0.3257
  623MOL0     C83984   7.551  -0.557   8.727 -0.3707  0.1477  0.0131
  623MOL0     C83985   7.554  -0.661   8.610 -0.0557  0.2034 -0.9096
  623MOL0     C83986   7.632  -0.793   8.636  0.3137 -0.1859 -0.6908
  623MOL0     N83987   7.768  -0.763   8.669  1.2621 -0.5159  0.1962
  623MOL0     C83988   7.802  -0.723   8.794  0.7535 -0.7479 -0.4764
  623MOL0     C83989   7.939  -0.732   8.801 -0.0542 -0.8673 -0.8921
  623MOL0     C83990   8.025  -0.685   8.913 -0.4802  0.4593 -0.1804
  623MOL0     C83991   8.115  -0.804   8.958  0.0295  1.1200 -0.1424
  623MOL0     C83992   8.203  -0.753   9.075 -0.3632  0.2187  0.6562
  623MOL0     C83993   8.291  -0.872   9.130 -0.0898  0.2397  0.1927
  623MOL0     O83994   8.204  -0.979   9.182  0.6975  0.5251  0.3027
  623MOL0     C83995   8.278  -1.081   9.234  0.1311 -0.9747 -0.4381
  623MOL0     C83996   8.310  -1.068   9.371  0.7023  0.3199  0.8725
  623MOL0     C83997   8.374  -1.172   9.438 -0.8238  0.7940 -1.4254
  623MOL0     C83998   8.410  -1.142   9.584  0.4817  0.0424  0.2899
  623MOL0     C83999   8.413  -1.286   9.368 -0.1605 -0.6493  0.2263
  623MOL0     C84000   8.486  -1.387   9.432 -0.9893  0.1738 -0.7405
  623MOL0     O84001   8.425  -1.478   9.533  0.6318  0.6110 -0.8415
  623MOL0     C84002   8.496  -1.550   9.617  0.0014 -0.4076 -0.0976
  623MOL0     C84003   8.506  -1.690   9.613 -0.4485  0.5457  0.3929
  623MOL0     C84004   8.567  -1.762   9.713 -0.7647 -0.5885  0.1300
  623MOL0     C84005   8.588  -1.688   9.837 -0.0675  0.2823  0.2020
  623MOL0     O84006   8.649  -1.757   9.935 -0.0330  0.7044  0.6299
  623MOL0     C84007   8.618  -1.726  10.071 -0.6624  0.2192  0.7974
  623MOL0     C84008   8.698  -1.811  10.169  0.2711 -0.1778  0.2765
  623MOL0     C84009   8.689  -1.763  10.312  0.2152 -0.0302 -0.1284
  623MOL0     C84010   8.819  -1.722  10.380 -0.2975  0.4943  0.1607
  623MOL0     C84011   8.924  -1.830  10.382  0.4907  0.4862 -0.4689
  623MOL0     C84012   9.058  -1.768  10.439 -0.4722  0.6038  0.8371
  623MOL0     C84013   9.177  -1.865  10.467  0.5212  0.1252  1.4514
  623MOL0     C84014   9.163  -1.981  10.551  0.8258  0.2148 -0.2565
  623MOL0    Cl84015   9.047  -1.940  10.685 -0.4684  0.0784 -0.6839
  623MOL0     C84016   8.588  -1.549   9.837  0.2436  0.1665 -1.0903
  623MOL0     C84017   8.531  -1.480   9.731  0.3559 -0.1008  0.2217
  623MOL0     O84018   8.605  -1.390   9.407  0.0709  0.6117  1.0805
  623MOL0     C84019   8.387  -1.291   9.229  0.5066  0.1391  0.6275
  623MOL0     C84020   8.304  -1.196   9.167  1.1027  0.4110 -0.9638
  623MOL0     N84021   7.981  -0.786   8.686  1.2969 -0.0574 -0.2072
  623MOL0     N84022   7.878  -0.800   8.608  0.1104  0.0551 -0.3817
  623MOL0     C84023   6.986   0.109   9.009  0.3517  0.0362 -0.1143
  623MOL0     C84024   6.877   0.184   9.075  0.3517 -0.3042  0.1927
  623MOL0     C84025   6.628   0.423   9.271  1.5004 -0.6777  0.2568
  623MOL0     C84026   6.650   0.558   9.283  0.3016 -0.1311 -0.1018
  623MOL0     C84027   6.547   0.652   9.313  0.1519  0.4019 -0.2742
  623MOL0     C84028   6.415   0.614   9.320  0.1866 -0.9740  0.0195
  623MOL0     O84029   6.305   0.696   9.312  0.4678 -0.5972  1.2039
  623MOL0     C84030   6.335   0.834   9.279  0.1676  0.2765  0.3572
  623MOL0     C84031   6.208   0.916   9.259 -0.1639  1.3038 -0.2129
  623MOL0     C84032   6.100   0.854   9.159  1.0899  0.9012 -0.5918
  623MOL0     C84033   6.145   0.828   9.013  0.0020  0.5092 -0.7698
  623MOL0     C84034   6.165   0.937   8.915  0.1928 -0.1772  0.2748
  623MOL0     C84035   6.190   1.026   8.832 -0.4682  0.8017 -0.2777
  623MOL0     C84036   6.392   0.481   9.309  0.1275  1.1832 -0.1926
  623MOL0     C84037   6.490   0.385   9.280  0.0669  1.0277 -0.2068
  623MOL0     H84038   6.805  -0.041   9.316 -0.2788  0.3848  0.4876
  623MOL0     H84039   7.005  -0.161   9.206  0.0102  1.0853  2.5915
  623MOL0     H84040   7.237   0.027   8.839  0.8303  1.5045  0.8764
  623MOL0     H84041   7.259   0.058   8.997  1.2476 -0.6509 -0.1592
  623MOL0     H84042   7.443  -0.073   8.961  2.1590 -3.1974  3.0207
  623MOL0     H84043   7.333  -0.198   9.033 -2.7630  0.2053 -0.8126
  623MOL0     H84044   7.274  -0.274   8.806 -1.0347  1.1554  0.7035
  623MOL0     H84045   7.379  -0.153   8.735 -1.0075 -1.6618 -1.2992
  623MOL0     H84046   7.574  -0.294   8.815 -0.3122  1.2671 -0.2434
  623MOL0     H84047   7.476  -0.374   8.936 -0.7698 -1.3783 -0.7794
  623MOL0     H84048   7.347  -0.485   8.720 -0.4619 -0.1990 -3.6028
  623MOL0     H84049   7.456  -0.384   8.625  2.5152 -1.9604 -1.4471
  623MOL0     H84050   7.648  -0.523   8.763 -0.7515 -2.3605  4.0092
  623MOL0     H84051   7.516  -0.612   8.815 -0.3201  2.2751  1.4388
  623MOL0     H84052   7.452  -0.687   8.581 -0.1263 -1.1728  0.4547
  623MOL0     H84053   7.597  -0.596   8.533 -2.4255  1.2389 -1.4364
  623MOL0     H84054   7.632  -0.856   8.547  1.4462 -1.7636  0.3716
  623MOL0     H84055   7.587  -0.848   8.719  0.6003  1.4587  0.6101
  623MOL0     H84056   7.739  -0.684   8.874 -1.3004 -0.4997 -2.1250
  623MOL0     H84057   8.102  -0.611   8.889  0.1549 -0.1356  0.0082
  623MOL0     H84058   7.964  -0.658   9.000  0.1817 -0.0168  0.4476
  623MOL0     H84059   8.164  -0.858   8.877 -0.3121 -1.8763  1.4996
  623MOL0     H84060   8.050  -0.877   9.008  2.6221 -1.1761  0.1461
  623MOL0     H84061   8.144  -0.705   9.153 -0.6703  0.3168  0.3633
  623MOL0     H84062   8.258  -0.673   9.026 -2.1128  0.0549 -1.7580
  623MOL0     H84063   8.344  -0.827   9.214 -0.0135  5.3981 -2.2572
  623MOL0     H84064   8.363  -0.915   9.060 -1.5072 -1.9185 -0.0359
  623MOL0     H84065   8.286  -0.973   9.418  3.4888  1.6530 -0.1337
  623MOL0     H84066   8.370  -1.230   9.635 -1.5282 -2.0724 -4.3657
  623MOL0     H84067   8.513  -1.123   9.617 -0.1717 -0.3951  2.7099
  623MOL0     H84068   8.358  -1.050   9.613 -0.8451  0.6667 -3.4970
  623MOL0     H84069   8.475  -1.746   9.526 -0.4998  0.4329  0.4841
  623MOL0     H84070   8.601  -1.865   9.714 -0.8687 -0.6238  1.3844
  623MOL0     H84071   8.649  -1.624  10.094 -0.3966  0.2806  0.1701
  623MOL0     H84072   8.510  -1.736  10.084 -0.3587 -0.5503  3.6519
  623MOL0     H84073   8.644  -1.906  10.169  0.0442 -0.0961 -1.7593
  623MOL0     H84074   8.797  -1.827  10.126  0.5788  1.6905  0.1766
  623MOL0     H84075   8.631  -1.831  10.376  0.3452 -1.5929 -1.5995
  623MOL0     H84076   8.635  -1.669  10.321 -4.6854 -2.1357 -3.3109
  623MOL0     H84077   8.865  -1.635  10.331 -0.0999  0.6332  0.5927
  623MOL0     H84078   8.796  -1.704  10.485  1.5734 -2.7350  1.2414
  623MOL0     H84079   8.949  -1.860  10.279 -1.9320 -0.4675 -0.8460
  623MOL0     H84080   8.889  -1.914  10.441 -0.9605  0.3825 -1.4210
  623MOL0     H84081   9.104  -1.702  10.366  1.8749 -0.0712  1.6137
  623MOL0     H84082   9.040  -1.713  10.532  0.6259  1.8273  0.3453
  623MOL0     H84083   9.249  -1.797  10.513 -0.7206  0.9605  2.2278
  623MOL0     H84084   9.222  -1.896  10.373 -0.8435  0.4262  0.6658
  623MOL0     H84085   9.259  -2.008  10.596  0.3097 -0.0726  0.6920
  623MOL0     H84086   9.115  -2.064  10.499 -1.8247  1.7548 -0.4464
  623MOL0     H84087   8.621  -1.496   9.926 -0.7215  0.0447 -0.6503
  623MOL0     H84088   8.510  -1.375   9.744 -1.6529 -0.7017  2.5647
  623MOL0     H84089   8.426  -1.370   9.165 -0.7961  0.3741 -0.5091
  623MOL0     H84090   8.277  -1.198   9.062  0.8270  1.4231 -0.9175
  623MOL0     H84091   7.022   0.155   8.917 -1.2850  4.7638  1.3452
  623MOL0     H84092   6.866   0.282   9.028  0.1993 -0.9417 -1.1622
  623MOL0     H84093   6.751   0.592   9.264  0.3825 -1.8034 -3.2681
  623MOL0     H84094   6.577   0.756   9.326  0.9010  0.2031 -0.3721
  623MOL0     H84095   6.393   0.883   9.357 -0.8234  1.8229  0.1523
  623MOL0     H84096   6.391   0.838   9.186 -2.5073 -1.0390 -1.4353
  623MOL0     H84097   6.234   1.018   9.232  0.1420  1.5604  0.9940
  623MOL0     H84098   6.162   0.928   9.357 -0.5078 -1.5239  0.0793
  623MOL0     H84099   6.016   0.924   9.159 -0.8549 -1.2771  1.4025
  623MOL0     H84100   6.065   0.756   9.192  1.6925  0.1788 -1.9874
  623MOL0     H84101   6.073   0.764   8.962 -1.0320  0.1620  1.0317
  623MOL0     H84102   6.231   0.761   9.019 -0.1149  0.2118 -2.0901
  623MOL0     H84103   6.215   1.103   8.762 -1.7320 -1.7443 -3.8386
  623MOL0     H84104   6.292   0.441   9.297  1.6778 -3.5551  0.5255
  623MOL0     H84105   6.462   0.280   9.275  1.9616  0.2580  2.7536
  624MOL0     O84106   5.027   2.837   9.647  0.0450  0.5744 -0.0219
  624MOL0     C84107   5.082   2.923   9.716 -0.1167 -0.5431 -0.0121
  624MOL0     O84108   5.026   2.968   9.828  0.5841 -0.2659 -0.5306
  624MOL0     C84109   4.900   2.927   9.865  0.9320  0.9322  0.6295
  624MOL0     C84110   4.793   3.003   9.840  0.0963 -0.1338 -0.2404
  624MOL0     C84111   4.663   2.949   9.865 -0.4544 -0.3123 -0.0553
  624MOL0     C84112   4.648   2.818   9.905 -0.2079 -0.1521 -0.1477
  624MOL0     O84113   4.520   2.773   9.900 -0.2020 -0.9602  0.7636
  624MOL0     C84114   4.471   2.669   9.984  0.0092 -0.7700  0.6955
  624MOL0     C84115   4.344   2.615   9.918  0.0208  0.1747 -0.3875
  624MOL0     C84116   4.269   2.501   9.989 -0.7542 -0.2653  0.1142
  624MOL0     C84117   4.145   2.466   9.908  0.4306 -0.0344  0.5707
  624MOL0     C84118   4.068   2.343   9.966 -0.7860  0.6490 -0.3028
  624MOL0     C84119   3.950   2.291   9.886 -1.3316 -0.7860 -0.2019
  624MOL0     C84120   3.947   2.143   9.878  0.0028 -0.2728  0.1433
  624MOL0     C84121   3.832   2.090   9.776  0.3475  0.1740  0.0037
  624MOL0     N84122   3.717   2.053   9.867 -0.1869 -0.3974  0.4325
  624MOL0     C84123   3.672   1.930   9.920  0.1802  0.0143 -0.0002
  624MOL0     C84124   3.559   1.954   9.988  0.6860  0.6886  0.0291
  624MOL0     C84125   3.474   1.866  10.063  0.3011  0.7243  0.1876
  624MOL0     C84126   3.525   1.839  10.208 -0.5979 -0.2462  0.3915
  624MOL0     C84127   3.504   1.966  10.291  1.7586 -0.4948 -0.0312
  624MOL0     C84128   3.542   1.962  10.449 -0.1402 -0.3805 -0.0464
  624MOL0     O84129   3.668   1.902  10.486  0.3849  0.1738 -0.9431
  624MOL0     C84130   3.784   1.962  10.476 -0.4666 -0.1134  0.4610
  624MOL0     C84131   3.893   1.895  10.513 -0.1621 -0.2777  0.1129
  624MOL0     C84132   4.027   1.951  10.521  0.0620  0.3339 -0.0892
  624MOL0     C84133   4.139   1.861  10.558  0.2276 -0.7477  0.6633
  624MOL0     C84134   4.036   2.076  10.459  0.6123 -0.3341  0.0183
  624MOL0     C84135   4.164   2.154  10.453  0.5258  0.1057  1.5557
  624MOL0     O84136   4.176   2.218  10.335  0.4171 -0.4224 -0.6721
  624MOL0     C84137   4.282   2.295  10.310 -1.0591 -0.4191  0.6192
  624MOL0     C84138   4.364   2.240  10.216  0.1025 -0.1073  0.3752
  624MOL0     C84139   4.485   2.306  10.186 -0.2769  0.8580 -1.0579
  624MOL0     C84140   4.533   2.421  10.255 -0.0126  0.4361  0.1209
  624MOL0     O84141   4.657   2.471  10.228  0.6554 -0.3920 -0.1466
  624MOL0     C84142   4.704   2.604  10.269 -0.3170  1.2309  0.1484
  624MOL0     C84143   4.756   2.595  10.410  0.1586  0.0323  0.4046
  624MOL0     C84144   4.798   2.723  10.470  0.1808  0.0088  0.3263
  624MOL0     C84145   4.949   2.752  10.456  0.4668  0.1947  0.0400
  624MOL0     C84146   4.989   2.891  10.498 -0.0400  0.2001 -0.3924
  624MOL0     C84147   4.975   2.912  10.648 -0.6214 -0.0154  0.1029
  624MOL0     C84148   5.064   3.033  10.693  0.4543  0.4010 -0.0432
  624MOL0     C84149   4.994   3.111  10.795  0.1666 -0.8512 -0.4289
  624MOL0    Cl84150   5.080   3.265  10.831  0.2085  0.3162  0.0185
  624MOL0     C84151   4.445   2.467  10.356  0.4250  0.2074  0.1318
  624MOL0     C84152   4.323   2.399  10.379  0.5061 -0.1260  1.1586
  624MOL0     O84153   4.228   2.165  10.561 -0.4161  0.7159  0.1536
  624MOL0     C84154   3.922   2.146  10.411  0.1826 -0.0880  0.3932
  624MOL0     C84155   3.800   2.087  10.415  0.4342 -0.6878 -0.7036
  624MOL0     N84156   3.527   2.084   9.971  0.9223 -0.9497  0.5530
  624MOL0     N84157   3.618   2.142   9.898  0.1450 -0.2062 -0.4553
  624MOL0     C84158   4.759   2.746   9.941 -0.3751  0.3446  0.4330
  624MOL0     C84159   4.886   2.794   9.920  1.0831 -0.9768 -1.0265
  624MOL0     C84160   5.197   3.000   9.653 -0.2469  0.7645 -0.8001
  624MOL0     C84161   5.245   2.974   9.525  0.5087 -0.4267  0.3209
  624MOL0     C84162   5.346   3.044   9.465  0.3862  0.1617 -0.9336
  624MOL0     C84163   5.411   3.145   9.527  0.0464 -1.3386 -1.2385
  624MOL0     O84164   5.505   3.215   9.468 -0.5561  0.1613 -0.0385
  624MOL0     C84165   5.580   3.327   9.528  0.5606 -0.0831  0.2377
  624MOL0     C84166   5.684   3.281   9.630  0.5094 -0.5706  0.6708
  624MOL0     C84167   5.759   3.398   9.689  0.9730  0.4381  0.6043
  624MOL0     C84168   5.870   3.368   9.787  0.5555  0.0283  0.0712
  624MOL0     C84169   5.951   3.485   9.825  0.3027  0.1900 -0.2796
  624MOL0     C84170   6.034   3.574   9.836  0.1146  0.6646  0.0193
  624MOL0     C84171   5.367   3.178   9.661 -0.1814 -0.3130 -0.7503
  624MOL0     C84172   5.261   3.107   9.722 -0.2619  0.4807  0.0245
  624MOL0     H84173   4.821   3.102   9.806 -1.8488 -0.0748 -1.8132
  624MOL0     H84174   4.585   3.020   9.839  2.0803  2.2069 -1.2364
  624MOL0     H84175   4.550   2.598  10.008  0.0018 -0.0226  3.2291
  624MOL0     H84176   4.442   2.723  10.074 -0.0648 -1.1295  0.8863
  624MOL0     H84177   4.268   2.694   9.918 -0.5157 -0.3407 -0.0323
  624MOL0     H84178   4.364   2.596   9.812 -0.9824  3.4572 -1.2841
  624MOL0     H84179   4.346   2.424   9.989  3.0194  2.8772 -4.7826
  624MOL0     H84180   4.256   2.531  10.093  2.6273 -1.9639  1.1457
  624MOL0     H84181   4.074   2.548   9.923  1.1709  1.1684 -1.9544
  624MOL0     H84182   4.179   2.446   9.806  0.5964 -2.3392  1.0233
  624MOL0     H84183   4.136   2.259   9.981  0.6532  1.7461 -0.4064
  624MOL0     H84184   4.029   2.375  10.062  1.6234  0.6890  0.7412
  624MOL0     H84185   3.856   2.328   9.927  0.7821  2.4956  2.1944
  624MOL0     H84186   3.956   2.333   9.785 -1.4594  3.2586  1.2954
  624MOL0     H84187   4.042   2.104   9.840  0.4675  2.2940 -1.5294
  624MOL0     H84188   3.929   2.098   9.977  2.5828 -1.1797  0.2843
  624MOL0     H84189   3.871   2.007   9.716  0.5696  1.1438 -1.2423
  624MOL0     H84190   3.792   2.163   9.706 -2.4786 -2.1583 -1.0195
  624MOL0     H84191   3.730   1.839   9.933  1.8324  1.2206  1.6871
  624MOL0     H84192   3.369   1.897  10.060 -0.3998 -1.4348  0.6686
  624MOL0     H84193   3.479   1.768  10.013 -0.7706  0.9970 -0.4837
  624MOL0     H84194   3.631   1.811  10.203 -0.6739 -0.5031  0.1719
  624MOL0     H84195   3.471   1.762  10.264 -0.3639 -0.3660  0.4536
  624MOL0     H84196   3.398   1.993  10.289  1.7059 -0.7346 -1.0159
  624MOL0     H84197   3.574   2.035  10.243 -1.3990  1.8056 -1.6745
  624MOL0     H84198   3.466   1.898  10.494 -1.4875  1.8698  1.0710
  624MOL0     H84199   3.530   2.057  10.502 -1.5366 -0.4965 -0.1161
  624MOL0     H84200   3.875   1.797  10.557  0.1640  0.2794  1.5534
  624MOL0     H84201   4.232   1.915  10.579  1.0446  0.0256 -3.7402
  624MOL0     H84202   4.109   1.806  10.647 -0.1432 -2.3681 -0.4228
  624MOL0     H84203   4.162   1.797  10.472 -0.4165  1.2902 -1.1251
  624MOL0     H84204   4.328   2.151  10.164  1.4911 -1.6309  1.9017
  624MOL0     H84205   4.549   2.270  10.105  1.8489  0.3262  0.7511
  624MOL0     H84206   4.780   2.652  10.208  1.5040 -0.2486  1.1517
  624MOL0     H84207   4.613   2.661  10.249 -1.2476 -1.0037 -2.6641
  624MOL0     H84208   4.675   2.554  10.471 -2.3999  0.3866 -2.5239
  624MOL0     H84209   4.840   2.525  10.409 -0.7355 -1.0743 -0.0253
  624MOL0     H84210   4.789   2.704  10.578 -1.4434 -0.4150  0.1399
  624MOL0     H84211   4.740   2.807  10.431  1.6604 -0.8318 -4.2752
  624MOL0     H84212   4.992   2.676  10.523 -1.7065 -0.0674  1.2455
  624MOL0     H84213   4.979   2.744  10.352  1.0301 -1.6876  0.2986
  624MOL0     H84214   4.927   2.942  10.424 -2.6718 -2.8160 -0.5005
  624MOL0     H84215   5.094   2.891  10.468  0.1674 -3.6528 -0.1761
  624MOL0     H84216   4.874   2.946  10.671 -0.3793  0.5940  0.2756
  624MOL0     H84217   5.014   2.823  10.698  0.1316 -1.0904 -2.2795
  624MOL0     H84218   5.094   3.097  10.609 -0.4223  1.9134  0.7641
  624MOL0     H84219   5.157   2.990  10.732  1.3855  1.5358 -0.9290
  624MOL0     H84220   4.974   3.046  10.881  3.0562  1.1340  1.9590
  624MOL0     H84221   4.898   3.149  10.759 -0.0264 -0.6044  0.3386
  624MOL0     H84222   4.465   2.558  10.413  0.2525  1.3218 -1.5361
  624MOL0     H84223   4.264   2.435  10.462 -2.1835 -0.0426 -0.6680
  624MOL0     H84224   3.935   2.240  10.358  0.5465 -1.1319 -1.4738
  624MOL0     H84225   3.706   2.127  10.377 -0.6144 -1.7894  0.6529
  624MOL0     H84226   4.749   2.641   9.967 -2.5764 -0.6640 -3.5724
  624MOL0     H84227   4.979   2.739   9.934  1.5083 -0.0406 -0.0415
  624MOL0     H84228   5.193   2.906   9.458  1.7474  1.2076 -2.5214
  624MOL0     H84229   5.393   3.034   9.367  1.3815  1.4040 -0.6046
  624MOL0     H84230   5.622   3.394   9.453 -0.7866  1.2935  0.6504
  624MOL0     H84231   5.510   3.389   9.585 -0.2487  1.7864 -2.5910
  624MOL0     H84232   5.755   3.208   9.590  1.2709 -1.7596  3.9174
  624MOL0     H84233   5.624   3.228   9.703  0.8632 -2.9548 -0.6669
  624MOL0     H84234   5.685   3.462   9.740 -0.8730 -0.9848 -0.1782
  624MOL0     H84235   5.798   3.452   9.602 -0.9689  0.8650 -0.0496
  624MOL0     H84236   5.942   3.295   9.749  1.2092  0.2971  0.7727
  624MOL0     H84237   5.829   3.326   9.880  1.0940  0.9216  0.7294
  624MOL0     H84238   6.096   3.661   9.842  2.2385 -0.8116  1.0282
  624MOL0     H84239   5.406   3.268   9.708 -0.6313 -1.2634  1.5844
  624MOL0     H84240   5.232   3.126   9.825 -1.6571 -0.1429 -0.2340
  625MOL0     O84241   3.069   9.552  10.547 -0.4526  0.8949 -0.4922
  625MOL0     C84242   3.108   9.606  10.648  1.2073  0.3219  0.6950
  625MOL0     O84243   3.220   9.680  10.662 -0.2766 -0.2029 -0.2386
  625MOL0     C84244   3.312   9.696  10.558  0.5858  0.6781  0.1426
  625MOL0     C84245   3.440   9.699  10.598 -0.1594  0.3529  0.3017
  625MOL0     C84246   3.541   9.709  10.501 -0.6412 -0.3409 -0.5601
  625MOL0     C84247   3.510   9.707  10.357  0.0400  0.9453  0.5019
  625MOL0     O84248   3.596   9.712  10.248  0.2201 -0.9615 -0.2133
  625MOL0     C84249   3.732   9.744  10.260 -0.2486  0.5009 -0.0589
  625MOL0     C84250   3.751   9.831  10.131  1.0301 -1.0442  0.4415
  625MOL0     C84251   3.901   9.856  10.097  0.2702 -0.7792 -0.4115
  625MOL0     C84252   3.925   9.869   9.948 -0.4684  0.3647 -0.7591
  625MOL0     C84253   3.887  10.016   9.913 -0.6097  0.6727  0.5739
  625MOL0     C84254   3.900  10.049   9.766  0.7897  0.2686 -0.3755
  625MOL0     C84255   4.051  10.061   9.727  0.2527  0.4755 -0.1183
  625MOL0     C84256   4.119  10.191   9.751 -0.9000  0.3114  0.6746
  625MOL0     N84257   4.041  10.308   9.699 -0.5751  1.2744  1.1927
  625MOL0     C84258   4.012  10.335   9.566  0.0220  1.6317  0.8727
  625MOL0     C84259   3.929  10.437   9.558  0.4935 -0.4326  2.1599
  625MOL0     C84260   3.864  10.496   9.432 -0.2307 -1.1878 -0.1585
  625MOL0     C84261   3.886  10.407   9.318  0.3267 -0.2855  0.4056
  625MOL0     C84262   3.850  10.484   9.190  0.6614  0.1958 -0.0400
  625MOL0     C84263   3.830  10.413   9.060 -0.0386  0.3855  0.6401
  625MOL0     O84264   3.789  10.516   8.969 -0.4082 -0.4046  0.3419
  625MOL0     C84265   3.733  10.468   8.854 -1.0914 -0.9557 -0.4364
  625MOL0     C84266   3.629  10.535   8.795 -0.3573  0.0165 -0.1196
  625MOL0     C84267   3.574  10.494   8.676  0.6741  0.2813 -0.3573
  625MOL0     C84268   3.449  10.572   8.630 -0.8351 -0.8335  0.3791
  625MOL0     C84269   3.628  10.381   8.609  0.2232  0.7791  1.1844
  625MOL0     C84270   3.569  10.324   8.488  0.6663 -0.0388 -0.2374
  625MOL0     O84271   3.642  10.240   8.419 -0.2457  0.4939 -0.0297
  625MOL0     C84272   3.594  10.140   8.338  0.0416 -0.1451 -0.0329
  625MOL0     C84273   3.475  10.077   8.363 -0.5005  0.2623 -0.6421
  625MOL0     C84274   3.446   9.953   8.294 -0.7068  0.4366  0.4884
  625MOL0     C84275   3.532   9.898   8.198 -0.3754 -0.1338  0.2213
  625MOL0     O84276   3.516   9.772   8.140  0.2630 -0.3209 -0.0564
  625MOL0     C84277   3.416   9.763   8.038  0.2311 -0.8732 -0.7534
  625MOL0     C84278   3.279   9.727   8.083  0.3493  0.8069 -0.8202
  625MOL0     C84279   3.272   9.625   8.211 -0.7106 -1.1267  0.0451
  625MOL0     C84280   3.122   9.596   8.245 -0.4146  0.1380 -0.0887
  625MOL0     C84281   3.060   9.496   8.142 -0.8883 -0.6392  1.4140
  625MOL0     C84282   2.951   9.407   8.203  0.9659 -0.8172 -0.6642
  625MOL0     C84283   2.996   9.283   8.270 -0.2131  0.3085  0.0453
  625MOL0     C84284   2.903   9.206   8.368 -0.2441  0.2778 -0.1262
  625MOL0    Cl84285   2.790   9.103   8.263 -0.1785 -0.0461 -0.5764
  625MOL0     C84286   3.655   9.965   8.183 -0.0937  0.1242  0.0363
  625MOL0     C84287   3.689  10.081   8.253 -0.2026  0.2073  0.6123
  625MOL0     O84288   3.461  10.367   8.450  0.2634  0.3194  0.4888
  625MOL0     C84289   3.749  10.321   8.660  0.5129  0.2188 -0.4431
  625MOL0     C84290   3.801  10.362   8.780 -0.1768 -0.6232 -0.4018
  625MOL0     N84291   3.927  10.491   9.687 -0.4453  0.4097  0.8137
  625MOL0     N84292   3.989  10.409   9.770  0.7783  0.7004  0.3432
  625MOL0     C84293   3.379   9.701  10.328  0.3892  0.0665 -0.5137
  625MOL0     C84294   3.270   9.713  10.424 -0.2991  0.5728  1.3663
  625MOL0     C84295   3.024   9.581  10.770 -0.9385 -0.0144  0.4883
  625MOL0     C84296   3.061   9.637  10.890  1.3982 -1.4978  0.3907
  625MOL0     C84297   2.987   9.604  11.008 -0.1380  0.0673 -0.2228
  625MOL0     C84298   2.872   9.522  10.998  0.2430 -0.1512 -0.2327
  625MOL0     O84299   2.803   9.484  11.109 -0.7269  0.4583 -0.2227
  625MOL0     C84300   2.667   9.536  11.120 -0.5161 -0.3069  0.5319
  625MOL0     C84301   2.655   9.653  11.213  0.2680 -0.1565  0.1597
  625MOL0     C84302   2.696   9.596  11.350 -0.4557  0.3800 -0.2854
  625MOL0     C84303   2.746   9.689  11.458  0.6520  0.2924 -0.0900
  625MOL0     C84304   2.775   9.610  11.580  0.2567  0.3530 -0.4915
  625MOL0     C84305   2.789   9.532  11.673 -1.0299  0.0148  0.5515
  625MOL0     C84306   2.825   9.477  10.869 -0.5351  0.3771 -0.7714
  625MOL0     C84307   2.901   9.510  10.757 -0.4443  0.6846  0.0246
  625MOL0     H84308   3.456   9.688  10.704  0.1116  1.2321  0.3614
  625MOL0     H84309   3.643   9.720  10.536 -1.3762  0.4363  1.4825
  625MOL0     H84310   3.740   9.800  10.354  2.1253  1.1152 -0.5490
  625MOL0     H84311   3.793   9.653  10.251 -1.4774 -0.2427 -1.2759
  625MOL0     H84312   3.694   9.795  10.045  0.2109  1.8826 -0.3384
  625MOL0     H84313   3.708   9.928  10.156  4.2065  0.2507  1.3904
  625MOL0     H84314   3.934   9.943  10.153 -2.1736 -0.5548  0.8091
  625MOL0     H84315   3.952   9.770  10.141 -1.7657 -1.2471  1.1701
  625MOL0     H84316   4.029   9.853   9.920 -0.4532 -2.2318  0.4542
  625MOL0     H84317   3.869   9.794   9.892 -0.3996 -0.6906  0.5246
  625MOL0     H84318   3.779  10.032   9.922 -0.4527  1.1049  1.7642
  625MOL0     H84319   3.940  10.092   9.971  0.8451 -0.4117  0.7354
  625MOL0     H84320   3.860   9.964   9.709 -1.1593  0.5955  0.4258
  625MOL0     H84321   3.833  10.133   9.746  0.4176 -0.3147 -1.7228
  625MOL0     H84322   4.106   9.984   9.782 -1.0679 -0.8957 -0.6470
  625MOL0     H84323   4.056  10.032   9.621 -1.9966 -0.2392 -0.0823
  625MOL0     H84324   4.219  10.187   9.706 -0.2565 -0.9901  2.1537
  625MOL0     H84325   4.131  10.204   9.859  2.1951 -2.6742  0.8689
  625MOL0     H84326   4.056  10.279   9.484  0.0296 -0.0995  2.0105
  625MOL0     H84327   3.760  10.516   9.459  0.7587  2.7174  1.4201
  625MOL0     H84328   3.909  10.596   9.432 -1.4174 -0.4988  3.3980
  625MOL0     H84329   3.829  10.314   9.321 -2.7662  1.4996  1.3847
  625MOL0     H84330   3.991  10.382   9.297 -0.0468  0.3755 -2.5972
  625MOL0     H84331   3.916  10.571   9.188  2.4650 -1.1037  0.2261
  625MOL0     H84332   3.753  10.529   9.212  0.5756  0.2794 -0.5723
  625MOL0     H84333   3.751  10.341   9.084  1.2956 -1.2644  0.2791
  625MOL0     H84334   3.919  10.363   9.021 -1.0554  1.6156 -3.9183
  625MOL0     H84335   3.595  10.632   8.830  0.2417  1.2432 -2.6587
  625MOL0     H84336   3.428  10.647   8.707 -0.2895  0.8229 -0.9977
  625MOL0     H84337   3.466  10.629   8.538 -3.7049 -2.1151 -1.0547
  625MOL0     H84338   3.380  10.494   8.597  2.6018 -2.1904 -4.9647
  625MOL0     H84339   3.412  10.120   8.441  0.3353  1.5046 -0.6209
  625MOL0     H84340   3.355   9.895   8.293  0.6828 -1.8957 -2.2271
  625MOL0     H84341   3.410   9.858   7.984 -4.4987 -0.4416  0.0873
  625MOL0     H84342   3.437   9.694   7.956 -1.7019 -3.0083  0.4286
  625MOL0     H84343   3.233   9.817   8.124 -0.7338 -0.4410  0.7894
  625MOL0     H84344   3.222   9.684   8.001 -3.0501  1.7822  0.8756
  625MOL0     H84345   3.303   9.678   8.301 -1.0514 -0.8692  0.0126
  625MOL0     H84346   3.345   9.547   8.191 -0.1409 -0.7164  0.4883
  625MOL0     H84347   3.110   9.558   8.347  0.6852  1.0138  0.4012
  625MOL0     H84348   3.068   9.691   8.252  0.2956  0.5257  0.2064
  625MOL0     H84349   3.140   9.435   8.099 -0.9974  0.0465  0.1958
  625MOL0     H84350   3.000   9.558   8.075  1.1116  1.3717  1.3761
  625MOL0     H84351   2.900   9.479   8.268  1.0856 -1.4280  0.1248
  625MOL0     H84352   2.877   9.383   8.126  1.7769  0.3336 -1.8538
  625MOL0     H84353   3.085   9.300   8.331  0.9179 -3.6659 -0.2136
  625MOL0     H84354   3.032   9.207   8.199  1.9692  0.4749  0.8904
  625MOL0     H84355   2.856   9.291   8.419  0.8086  0.4024  0.6408
  625MOL0     H84356   2.948   9.134   8.437 -2.9989 -0.5126  1.0040
  625MOL0     H84357   3.738   9.918   8.133 -0.5415  0.0680 -0.6799
  625MOL0     H84358   3.788  10.121   8.236 -0.7467  1.9337  1.2328
  625MOL0     H84359   3.803  10.242   8.608  2.6645  1.9631 -1.0654
  625MOL0     H84360   3.891  10.319   8.820 -0.7557 -0.6664  0.8881
  625MOL0     H84361   3.344   9.697  10.225 -0.3121  0.7413 -0.3108
  625MOL0     H84362   3.167   9.708  10.389  0.3324 -1.4952 -0.3607
  625MOL0     H84363   3.147   9.702  10.905  1.2616 -1.4503  0.9689
  625MOL0     H84364   3.025   9.634  11.105 -2.2263 -0.1200  0.7039
  625MOL0     H84365   2.639   9.572  11.021  0.7769 -2.5743 -0.7377
  625MOL0     H84366   2.606   9.453  11.156 -4.7627  1.9383 -0.8070
  625MOL0     H84367   2.552   9.692  11.218 -0.7763 -2.1564 -3.0009
  625MOL0     H84368   2.724   9.724  11.168  0.8460  0.6990  2.2550
  625MOL0     H84369   2.773   9.521  11.331 -2.7553 -2.0912 -0.4168
  625MOL0     H84370   2.608   9.543  11.390  0.6104  0.1648  1.9141
  625MOL0     H84371   2.668   9.761  11.485  0.5465 -0.3979  1.6339
  625MOL0     H84372   2.835   9.744  11.428 -0.0474  1.2819 -0.4131
  625MOL0     H84373   2.790   9.458  11.750  1.2504 -0.3615  0.2468
  625MOL0     H84374   2.734   9.420  10.857 -2.8768  3.8831 -1.4051
  625MOL0     H84375   2.874   9.474  10.659  1.1643  1.7694 -0.8792
  626MOL0     O84376   8.402   2.756   5.159  0.2360  0.2631  0.1878
  626MOL0     C84377   8.490   2.844   5.154  0.1739 -0.4589 -0.8084
  626MOL0     O84378   8.468   2.978   5.164  0.3853 -0.4463  0.1759
  626MOL0     C84379   8.337   3.006   5.197  0.2629 -0.0915  0.1903
  626MOL0     C84380   8.274   3.094   5.108  0.5209 -0.5350 -0.1361
  626MOL0     C84381   8.126   3.108   5.119  0.2517 -0.8215  0.3950
  626MOL0     C84382   8.061   3.055   5.238 -0.1671 -0.8547 -0.0440
  626MOL0     O84383   7.923   3.072   5.263 -0.2265 -0.3781 -0.2405
  626MOL0     C84384   7.858   3.190   5.204  0.4709 -0.0663 -0.2263
  626MOL0     C84385   7.721   3.203   5.256  0.4077  0.6318  0.0759
  626MOL0     C84386   7.712   3.207   5.407  0.0773  0.3959 -0.5943
  626MOL0     C84387   7.576   3.256   5.463 -0.2422 -0.8059  0.8802
  626MOL0     C84388   7.560   3.260   5.612 -0.3628  0.2827 -0.8036
  626MOL0     C84389   7.669   3.353   5.673 -0.5547 -0.0151 -0.8285
  626MOL0     C84390   7.627   3.497   5.704  0.1723  0.5336 -0.4043
  626MOL0     C84391   7.754   3.574   5.776  1.2076 -0.7508 -0.6393
  626MOL0     N84392   7.721   3.687   5.869 -0.3657  0.1697  0.2827
  626MOL0     C84393   7.784   3.813   5.878  0.0735  0.4503  0.0958
  626MOL0     C84394   7.703   3.876   5.964 -0.3547 -0.3917 -0.3194
  626MOL0     C84395   7.720   4.007   6.035  0.5903  0.5861 -0.5692
  626MOL0     C84396   7.764   4.113   5.941 -0.4458  0.0025 -0.8067
  626MOL0     C84397   7.780   4.254   6.016 -0.4167  0.1481  0.3104
  626MOL0     C84398   7.794   4.362   5.915 -0.1866 -1.1277 -0.8551
  626MOL0     O84399   7.671   4.378   5.839 -0.2238  0.2303 -0.4323
  626MOL0     C84400   7.567   4.455   5.887 -0.2145  0.0161  0.4378
  626MOL0     C84401   7.437   4.414   5.842  0.6837  0.2453 -0.5970
  626MOL0     C84402   7.317   4.499   5.855 -0.2797 -0.2735 -0.3329
  626MOL0     C84403   7.186   4.443   5.796  0.5345 -0.2256  0.2587
  626MOL0     C84404   7.332   4.616   5.929 -0.6253  0.4893  0.9274
  626MOL0     C84405   7.225   4.711   5.959  0.4139 -0.3487 -0.0417
  626MOL0     O84406   7.249   4.829   6.031 -0.2322 -0.4156 -0.3166
  626MOL0     C84407   7.139   4.884   6.090 -1.1643 -0.1537  0.2952
  626MOL0     C84408   7.023   4.819   6.162  0.0816 -0.9762  0.6586
  626MOL0     C84409   6.919   4.896   6.222 -0.1256 -0.6566  0.2464
  626MOL0     C84410   6.925   5.038   6.212  1.0917  0.0558 -0.5002
  626MOL0     O84411   6.837   5.134   6.259  0.1820  0.0800 -0.4757
  626MOL0     C84412   6.753   5.094   6.376 -0.2159 -0.1722  0.8644
  626MOL0     C84413   6.663   5.203   6.425  0.0019 -0.4248 -0.0287
  626MOL0     C84414   6.732   5.310   6.509  0.0438 -0.6157  0.1960
  626MOL0     C84415   6.646   5.437   6.493 -0.9731  0.5088  0.7231
  626MOL0     C84416   6.708   5.571   6.526 -0.3628  0.0682 -0.9039
  626MOL0     C84417   6.791   5.559   6.649 -0.6416 -0.1608 -0.0054
  626MOL0     C84418   6.835   5.702   6.696 -0.4432 -0.7591  1.5527
  626MOL0     C84419   6.921   5.780   6.608  0.3171 -0.2408  0.3852
  626MOL0    Cl84420   6.992   5.918   6.697  0.0223 -0.2454 -0.0133
  626MOL0     C84421   7.022   5.096   6.134 -0.9391  0.7328  0.2048
  626MOL0     C84422   7.132   5.023   6.084 -0.3595  0.7052 -0.0624
  626MOL0     O84423   7.108   4.683   5.925 -0.5230 -0.2511  0.6512
  626MOL0     C84424   7.461   4.654   5.976 -0.4673 -0.0410  0.6029
  626MOL0     C84425   7.580   4.579   5.954  0.8206 -0.1442 -0.1716
  626MOL0     N84426   7.601   3.798   6.004  0.8106  0.3206  0.5127
  626MOL0     N84427   7.622   3.682   5.957  0.2176  0.2397 -0.5492
  626MOL0     C84428   8.135   2.983   5.329 -0.3565 -0.9858 -0.8192
  626MOL0     C84429   8.267   2.967   5.310  0.5908  0.6542  0.6229
  626MOL0     C84430   8.633   2.803   5.149 -0.9869 -0.0369 -0.6678
  626MOL0     C84431   8.719   2.893   5.209 -0.5953  0.2145 -0.2073
  626MOL0     C84432   8.852   2.852   5.206  0.5903 -0.8640 -0.4497
  626MOL0     C84433   8.898   2.735   5.143  0.5159  0.3572  0.5062
  626MOL0     O84434   9.033   2.717   5.151 -0.1553 -0.1816 -0.5064
  626MOL0     C84435   9.076   2.584   5.133  0.5913  0.1998 -0.4749
  626MOL0     C84436   9.234   2.575   5.098  0.8184 -0.5901 -0.3730
  626MOL0     C84437   9.291   2.435   5.108 -0.8384 -0.7162  0.3727
  626MOL0     C84438   9.431   2.445   5.054  0.1898  0.3857  1.3744
  626MOL0     C84439   9.515   2.325   5.066  0.2899 -0.4959 -0.5791
  626MOL0     C84440   9.585   2.232   5.056  0.2163  0.1211 -0.4205
  626MOL0     C84441   8.809   2.661   5.067  0.1669 -0.2061 -0.1455
  626MOL0     C84442   8.671   2.686   5.083  1.0660 -0.7392 -0.2276
  626MOL0     H84443   8.339   3.137   5.032 -0.8207  2.6025  0.3377
  626MOL0     H84444   8.082   3.174   5.045  2.2450 -0.7200 -0.7946
  626MOL0     H84445   7.906   3.287   5.220 -2.6469  1.6626 -0.6943
  626MOL0     H84446   7.862   3.176   5.095  2.8097  1.8215 -0.4691
  626MOL0     H84447   7.686   3.303   5.229 -0.3991  1.1610  2.8288
  626MOL0     H84448   7.643   3.132   5.227  0.7017 -0.4073  1.7143
  626MOL0     H84449   7.736   3.106   5.442  4.1844  2.0400  2.1001
  626MOL0     H84450   7.797   3.270   5.436  1.6577 -1.6057 -0.6629
  626MOL0     H84451   7.551   3.352   5.417  3.3221  0.2549  0.8503
  626MOL0     H84452   7.498   3.186   5.431  0.8109 -1.3518 -0.6169
  626MOL0     H84453   7.462   3.309   5.610 -0.5196 -0.0549 -1.9842
  626MOL0     H84454   7.546   3.165   5.664 -4.5211  3.1130  4.3001
  626MOL0     H84455   7.693   3.326   5.776 -0.2642 -0.6792 -1.0701
  626MOL0     H84456   7.755   3.363   5.606  1.7618 -1.1387  1.7745
  626MOL0     H84457   7.601   3.551   5.613 -1.1880 -0.9112 -0.9202
  626MOL0     H84458   7.539   3.499   5.769  0.5444  2.9861  0.1349
  626MOL0     H84459   7.812   3.624   5.698 -1.3668  2.0940 -0.9394
  626MOL0     H84460   7.816   3.500   5.827  0.4929 -2.2497 -1.8885
  626MOL0     H84461   7.880   3.852   5.846  0.4147  0.0987  0.6723
  626MOL0     H84462   7.635   4.033   6.100  0.8635 -2.8963  1.4156
  626MOL0     H84463   7.805   4.010   6.104 -1.8965  2.5670  2.7147
  626MOL0     H84464   7.684   4.121   5.867 -1.1178 -0.3871 -0.1349
  626MOL0     H84465   7.857   4.094   5.888  2.8821  2.5204  3.4220
  626MOL0     H84466   7.866   4.250   6.083 -0.4549 -0.5995  0.3283
  626MOL0     H84467   7.692   4.278   6.077 -1.5889 -0.6206 -0.9980
  626MOL0     H84468   7.874   4.332   5.847  0.2082 -3.3820  0.5006
  626MOL0     H84469   7.833   4.450   5.966 -1.5460 -0.1871 -1.3993
  626MOL0     H84470   7.430   4.317   5.793  0.0217 -0.9413  1.7364
  626MOL0     H84471   7.151   4.514   5.721  0.5092 -1.9947 -1.5034
  626MOL0     H84472   7.202   4.338   5.770  0.2081 -1.2616  3.7417
  626MOL0     H84473   7.111   4.433   5.875 -0.5756  4.1712 -0.0225
  626MOL0     H84474   7.004   4.712   6.166  0.8053 -1.1175  0.3720
  626MOL0     H84475   6.837   4.860   6.285  2.5855 -2.1860  3.2063
  626MOL0     H84476   6.695   5.007   6.342 -0.8907  1.6064 -3.1809
  626MOL0     H84477   6.816   5.055   6.456  0.4104 -1.7953 -0.3577
  626MOL0     H84478   6.594   5.240   6.348 -1.0754  1.2541  1.6848
  626MOL0     H84479   6.593   5.143   6.484  0.1040 -3.5392 -2.7435
  626MOL0     H84480   6.831   5.321   6.464  0.5895 -1.0487  1.2662
  626MOL0     H84481   6.747   5.275   6.612  0.4258 -1.7451 -0.2254
  626MOL0     H84482   6.614   5.443   6.389  1.1904 -1.3384 -0.1353
  626MOL0     H84483   6.562   5.423   6.562 -2.4518  2.3023 -0.6083
  626MOL0     H84484   6.629   5.644   6.544 -2.1625 -1.6362 -1.5987
  626MOL0     H84485   6.771   5.623   6.453  2.0628  1.3267  1.8349
  626MOL0     H84486   6.735   5.518   6.733  3.3784 -1.8375  2.1495
  626MOL0     H84487   6.875   5.491   6.632  1.1526  1.7419  0.7817
  626MOL0     H84488   6.883   5.689   6.793 -0.5188 -2.5830  1.3969
  626MOL0     H84489   6.754   5.763   6.738 -1.3182 -2.1030  1.8911
  626MOL0     H84490   6.860   5.808   6.521  3.5624  3.2197 -1.0180
  626MOL0     H84491   6.991   5.702   6.577 -1.0908 -1.2697 -0.3703
  626MOL0     H84492   7.046   5.200   6.114 -0.4205  0.3273 -1.5271
  626MOL0     H84493   7.218   5.072   6.041  0.5591  2.9518  3.8325
  626MOL0     H84494   7.477   4.738   6.041 -1.4496 -0.2546  1.1448
  626MOL0     H84495   7.674   4.613   5.996  1.6136  1.1392 -2.8081
  626MOL0     H84496   8.102   2.951   5.427 -0.7696  2.1143  0.1699
  626MOL0     H84497   8.321   2.905   5.381  2.1090 -2.6084 -3.0287
  626MOL0     H84498   8.694   2.989   5.252 -0.1636  1.6887 -3.0068
  626MOL0     H84499   8.915   2.923   5.259 -1.6329  1.6626 -0.9809
  626MOL0     H84500   9.043   2.529   5.221  1.7370 -0.4741 -0.4390
  626MOL0     H84501   9.027   2.536   5.048 -0.7014 -3.6234  2.1943
  626MOL0     H84502   9.290   2.647   5.156  1.7075 -0.4775 -1.3381
  626MOL0     H84503   9.243   2.607   4.993 -1.6483  2.0592  0.0833
  626MOL0     H84504   9.231   2.361   5.054 -2.6146  1.4000 -0.6962
  626MOL0     H84505   9.304   2.407   5.213 -0.6835 -0.2075  0.4894
  626MOL0     H84506   9.495   2.520   5.101 -0.0797  0.4952  1.5682
  626MOL0     H84507   9.425   2.467   4.947  1.5129 -0.7426  1.0293
  626MOL0     H84508   9.652   2.152   5.031  0.4335  0.5879 -1.3757
  626MOL0     H84509   8.830   2.587   4.991 -0.5798 -0.2426 -0.3250
  626MOL0     H84510   8.610   2.608   5.039  0.6771  0.0071 -1.0567
  627MOL0     O84511  10.247   9.118   7.749 -0.2021 -0.6812 -0.6911
  627MOL0     C84512  10.214   9.205   7.667 -0.3105 -0.0149 -1.0835
  627MOL0     O84513  10.092   9.287   7.666 -0.5458 -0.4855 -0.2104
  627MOL0     C84514  10.002   9.282   7.775 -1.7710  1.3144 -0.8761
  627MOL0     C84515   9.872   9.313   7.745  1.0364 -0.4141  0.7335
  627MOL0     C84516   9.771   9.305   7.846 -0.8464  0.1547  0.2290
  627MOL0     C84517   9.801   9.262   7.981  0.6690  0.7663  0.5606
  627MOL0     O84518   9.716   9.280   8.091  0.5551  0.4628 -0.6545
  627MOL0     C84519   9.583   9.330   8.071 -0.7677  0.2457  0.2950
  627MOL0     C84520   9.533   9.359   8.212  0.4635 -0.1441 -0.6116
  627MOL0     C84521   9.532   9.229   8.287  0.3868 -0.6317 -0.6310
  627MOL0     C84522   9.495   9.246   8.443 -0.1932  1.0717  0.7169
  627MOL0     C84523   9.603   9.304   8.530 -0.3720  0.2687 -0.0014
  627MOL0     C84524   9.562   9.334   8.677  0.3131  0.2256 -0.5630
  627MOL0     C84525   9.673   9.415   8.754 -0.1165 -0.0023  0.2654
  627MOL0     C84526   9.616   9.463   8.890  0.9203 -0.1709 -0.1467
  627MOL0     N84527   9.709   9.571   8.945  0.0593 -0.3815  0.4158
  627MOL0     C84528   9.833   9.611   8.888  0.4498  0.8839 -0.7385
  627MOL0     C84529   9.872   9.722   8.967 -0.4200 -0.3031 -0.7864
  627MOL0     C84530  10.007   9.782   8.949 -0.3331 -0.1192  0.3618
  627MOL0     C84531  10.120   9.698   9.009 -0.4109  1.1783  0.6606
  627MOL0     C84532  10.248   9.745   8.953  0.7751 -0.2444  0.0245
  627MOL0     C84533  10.337   9.815   9.054 -0.3950  0.8197 -0.1268
  627MOL0     O84534  10.270   9.925   9.108  0.4588  0.3571  0.4315
  627MOL0     C84535  10.304   9.979   9.230  0.0606  0.8315  0.1005
  627MOL0     C84536  10.202  10.037   9.311  0.3060 -0.5883  0.2440
  627MOL0     C84537  10.230  10.106   9.429 -0.8325  0.1985 -0.3021
  627MOL0     C84538  10.113  10.200   9.482  0.2275  1.2513  0.7004
  627MOL0     C84539  10.364  10.089   9.478  0.5112 -0.7228  0.5484
  627MOL0     C84540  10.409  10.152   9.605  0.6177 -1.0224 -0.1103
  627MOL0     O84541  10.531  10.207   9.605  0.1884  0.5569 -0.3874
  627MOL0     C84542  10.544  10.299   9.710  0.1392 -0.6486 -0.0206
  627MOL0     C84543  10.604  10.254   9.830  0.7078  0.5088 -0.0250
  627MOL0     C84544  10.630  10.361   9.922 -1.1802 -0.1762  0.0677
  627MOL0     C84545  10.610  10.492   9.897 -0.7408 -0.7576 -0.2899
  627MOL0     O84546  10.638  10.582   9.996 -0.0673 -0.0054 -0.3870
  627MOL0     C84547  10.682  10.709   9.962 -0.0710 -0.8639 -0.7551
  627MOL0     C84548  10.771  10.771  10.069  1.7429 -0.1667 -0.7555
  627MOL0     C84549  10.907  10.700  10.085  0.1858 -0.0291  0.6367
  627MOL0     C84550  11.003  10.791  10.172 -0.1156 -1.2270  0.3828
  627MOL0     C84551  10.947  10.855  10.303  0.1340  0.3954 -0.1091
  627MOL0     C84552  11.072  10.912  10.377  1.0963 -0.1446  0.2456
  627MOL0     C84553  11.026  11.003  10.493  0.4471  0.3872  0.0301
  627MOL0     C84554  10.940  10.927  10.602  0.0811  0.0547  0.0308
  627MOL0    Cl84555  10.940  11.033  10.745 -0.2033 -0.3539 -0.2689
  627MOL0     C84556  10.552  10.537   9.782  0.7170 -0.5278  0.0661
  627MOL0     C84557  10.514  10.436   9.691  0.2560  0.8602  0.8996
  627MOL0     O84558  10.326  10.164   9.694 -1.0898  0.2976 -0.1278
  627MOL0     C84559  10.464  10.018   9.404 -0.1369 -0.9973 -0.4277
  627MOL0     C84560  10.432   9.975   9.273  0.0461  0.3041  0.7288
  627MOL0     N84561   9.774   9.760   9.054 -0.0851  0.4584 -1.1924
  627MOL0     N84562   9.675   9.669   9.029  0.3163 -0.5667 -0.4752
  627MOL0     C84563   9.935   9.238   8.010 -1.0297  0.1763 -0.5102
  627MOL0     C84564  10.042   9.248   7.906  0.0437  0.9973 -0.6952
  627MOL0     C84565  10.312   9.234   7.557  0.8925  0.3729 -0.0154
  627MOL0     C84566  10.426   9.155   7.550 -0.7227 -0.3453 -0.1126
  627MOL0     C84567  10.516   9.181   7.448 -0.2949 -0.6428 -0.6228
  627MOL0     C84568  10.499   9.276   7.343 -0.0921 -0.0511 -0.6304
  627MOL0     O84569  10.589   9.303   7.241  0.3553  0.5936 -0.5535
  627MOL0     C84570  10.708   9.224   7.219 -0.3215  0.4472 -0.0536
  627MOL0     C84571  10.792   9.269   7.101 -0.1587 -0.2163  0.2045
  627MOL0     C84572  10.704   9.272   6.981 -0.6803  1.8580  1.3358
  627MOL0     C84573  10.634   9.141   6.953 -0.2263 -0.0017 -0.6569
  627MOL0     C84574  10.605   9.144   6.814 -0.0716 -0.1681  0.6697
  627MOL0     C84575  10.564   9.139   6.691 -0.8047 -0.5879 -0.4363
  627MOL0     C84576  10.384   9.354   7.354 -0.5471 -0.4970  0.3787
  627MOL0     C84577  10.296   9.333   7.457  0.2846 -0.5520 -0.4008
  627MOL0     H84578   9.853   9.351   7.645  0.3353 -1.6653  0.3696
  627MOL0     H84579   9.672   9.338   7.816 -0.6283  1.1154  0.5230
  627MOL0     H84580   9.584   9.415   8.002  3.9809 -0.6154 -1.0281
  627MOL0     H84581   9.525   9.241   8.045 -0.8242  0.3042  0.2243
  627MOL0     H84582   9.593   9.441   8.254 -0.1963 -0.3218  0.7160
  627MOL0     H84583   9.426   9.380   8.205  0.1857 -1.6863 -1.5796
  627MOL0     H84584   9.457   9.161   8.245 -0.1718  0.5797 -1.6828
  627MOL0     H84585   9.629   9.180   8.276  0.3575 -1.4316  2.1211
  627MOL0     H84586   9.401   9.299   8.460  0.0069  1.6940 -0.0713
  627MOL0     H84587   9.482   9.145   8.483 -2.6439 -0.4337 -3.2762
  627MOL0     H84588   9.678   9.224   8.536  2.1722  2.5054 -0.1350
  627MOL0     H84589   9.651   9.393   8.490  2.0411 -1.5290 -1.3447
  627MOL0     H84590   9.476   9.400   8.666  0.2075  0.0241 -0.9921
  627MOL0     H84591   9.529   9.241   8.723  0.2592 -0.4018 -1.8140
  627MOL0     H84592   9.760   9.353   8.778  0.1017 -0.5661 -1.7875
  627MOL0     H84593   9.691   9.508   8.698 -1.8768 -0.4386 -1.1148
  627MOL0     H84594   9.605   9.366   8.939  1.1230 -1.1905 -2.0573
  627MOL0     H84595   9.516   9.508   8.885  0.3638 -1.2345  0.8963
  627MOL0     H84596   9.905   9.567   8.819  2.1045  0.0711  1.3972
  627MOL0     H84597  10.018   9.805   8.843 -2.0641  2.9704  0.7322
  627MOL0     H84598  10.025   9.881   8.991  2.4978  0.2563 -1.5407
  627MOL0     H84599  10.095   9.594   8.985 -1.4777  1.8994 -1.7286
  627MOL0     H84600  10.115   9.705   9.118 -2.0797  0.0751  0.6839
  627MOL0     H84601  10.227   9.816   8.872  1.2247 -1.2954 -1.0512
  627MOL0     H84602  10.300   9.658   8.911  0.6988 -1.2118  1.8682
  627MOL0     H84603  10.431   9.855   9.016  1.4854  0.3350  3.5396
  627MOL0     H84604  10.354   9.746   9.138  0.2033 -0.1329 -1.0064
  627MOL0     H84605  10.101  10.029   9.273  0.4850  2.7503 -1.2677
  627MOL0     H84606  10.045  10.240   9.405 -1.0921 -1.0311  0.6074
  627MOL0     H84607  10.056  10.140   9.553  0.5736  0.9656  0.7358
  627MOL0     H84608  10.157  10.288   9.530  3.2646  1.1544 -1.5787
  627MOL0     H84609  10.625  10.148   9.830  1.6223  0.6343 -2.5442
  627MOL0     H84610  10.674  10.342  10.020  2.3381 -0.1139 -1.3817
  627MOL0     H84611  10.741  10.717   9.871  1.8683  2.1604  0.5928
  627MOL0     H84612  10.599  10.779   9.945  1.7282  0.9795 -2.4419
  627MOL0     H84613  10.768  10.873  10.031  0.6513  0.0382 -0.1542
  627MOL0     H84614  10.718  10.776  10.164  1.3971  1.2559 -1.0080
  627MOL0     H84615  10.940  10.676   9.984 -2.6892  1.2840 -0.7555
  627MOL0     H84616  10.883  10.610  10.143 -5.3824  0.9011  0.3664
  627MOL0     H84617  11.095  10.735  10.191  0.2028 -0.1398  2.2689
  627MOL0     H84618  11.031  10.881  10.118 -1.4907  0.4187  2.2569
  627MOL0     H84619  10.898  10.789  10.375 -0.4334  0.8197 -0.0997
  627MOL0     H84620  10.876  10.934  10.277  0.4743  0.4932 -0.7783
  627MOL0     H84621  11.141  10.831  10.403  1.4389 -0.2806 -1.0631
  627MOL0     H84622  11.123  10.978  10.307 -0.0824 -0.9769 -1.4668
  627MOL0     H84623  10.967  11.088  10.457  2.0032  0.6474 -2.1317
  627MOL0     H84624  11.113  11.046  10.544  0.8833 -0.8189  0.3363
  627MOL0     H84625  10.988  10.834  10.634  2.5551  2.0961  2.7664
  627MOL0     H84626  10.838  10.905  10.568 -0.8913  1.5976  1.7998
  627MOL0     H84627  10.536  10.643   9.765 -1.0799 -0.2588  2.9500
  627MOL0     H84628  10.476  10.468   9.595 -0.9380 -2.5363  0.0888
  627MOL0     H84629  10.568  10.006   9.433  0.6570  0.2431 -2.5348
  627MOL0     H84630  10.514   9.932   9.215 -0.9877  2.8944 -2.9940
  627MOL0     H84631   9.963   9.221   8.113 -0.2122 -1.6998 -1.0011
  627MOL0     H84632  10.143   9.230   7.939 -0.2215  0.6687 -0.0341
  627MOL0     H84633  10.455   9.081   7.624  0.8353 -2.1605 -2.3823
  627MOL0     H84634  10.614   9.135   7.445  1.1648  2.1553  0.2493
  627MOL0     H84635  10.765   9.236   7.312 -0.4010 -0.9092  0.1944
  627MOL0     H84636  10.678   9.118   7.217 -1.4662  0.4678  4.5761
  627MOL0     H84637  10.869   9.193   7.082 -2.4238 -2.0922 -2.3218
  627MOL0     H84638  10.824   9.372   7.115 -0.4607 -0.2941  1.5724
  627MOL0     H84639  10.761   9.290   6.890 -3.4814  4.5382 -0.0753
  627MOL0     H84640  10.636   9.357   6.990 -0.0759  2.5321 -0.0853
  627MOL0     H84641  10.544   9.123   7.012 -0.2032  2.7500  0.3606
  627MOL0     H84642  10.717   9.070   6.959  0.7124  1.1555  1.4007
  627MOL0     H84643  10.521   9.148   6.593 -1.4154  1.9711 -0.0260
  627MOL0     H84644  10.358   9.430   7.280  1.0969  1.8935  2.0833
  627MOL0     H84645  10.208   9.396   7.467  1.3306  0.7964  0.8886
  628MOL0     O84646   6.574   9.477   0.686  0.0666 -0.8246 -1.0661
  628MOL0     C84647   6.550   9.550   0.589  0.2623  0.9360 -0.2599
  628MOL0     O84648   6.643   9.603   0.513 -0.1332  0.0928 -0.3313
  628MOL0     C84649   6.771   9.620   0.556 -0.3942 -0.4411 -0.5267
  628MOL0     C84650   6.880   9.564   0.505 -0.3012  0.2022 -0.7841
  628MOL0     C84651   7.009   9.601   0.554 -0.2923 -0.5963 -0.3710
  628MOL0     C84652   7.022   9.690   0.658  0.2934 -0.9470  0.8094
  628MOL0     O84653   7.144   9.745   0.695 -0.4228 -0.2648 -0.0100
  628MOL0     C84654   7.255   9.654   0.702 -0.5759  0.0037 -0.2167
  628MOL0     C84655   7.384   9.729   0.723 -0.5152  0.3527 -0.1656
  628MOL0     C84656   7.393   9.817   0.857 -0.8594  0.3633  0.0661
  628MOL0     C84657   7.508   9.760   0.951 -0.2116  0.1509 -0.2497
  628MOL0     C84658   7.482   9.820   1.095 -0.5389  0.5060 -0.2274
  628MOL0     C84659   7.599   9.804   1.186  0.0383 -0.6110 -0.6367
  628MOL0     C84660   7.546   9.838   1.326 -0.1338  0.0483 -0.4989
  628MOL0     C84661   7.644   9.818   1.439  0.9047 -0.0935 -0.4336
  628MOL0     N84662   7.686   9.680   1.457 -0.1443  0.1418 -0.1838
  628MOL0     C84663   7.605   9.574   1.488 -0.2244 -0.0518  0.3084
  628MOL0     C84664   7.685   9.466   1.468  0.4315 -0.7885  0.2434
  628MOL0     C84665   7.630   9.321   1.466 -0.0252 -0.2870  0.2460
  628MOL0     C84666   7.658   9.257   1.330  0.2468  1.0028  0.2306
  628MOL0     C84667   7.529   9.278   1.242  0.8231 -0.7686 -0.1031
  628MOL0     C84668   7.531   9.237   1.097  0.3841 -0.4484 -0.5529
  628MOL0     O84669   7.570   9.103   1.049 -0.1343 -0.5131 -0.7285
  628MOL0     C84670   7.469   9.015   1.019  0.0714  0.2508 -0.4365
  628MOL0     C84671   7.341   9.016   1.079 -0.7827  0.3795 -0.2427
  628MOL0     C84672   7.246   8.924   1.045 -0.2814 -0.8165 -0.1652
  628MOL0     C84673   7.103   8.929   1.119 -0.9562  0.2495  0.4815
  628MOL0     C84674   7.274   8.837   0.945  0.2011  0.0451 -0.7191
  628MOL0     C84675   7.181   8.730   0.907  0.5057 -0.2949  0.3656
  628MOL0     O84676   7.047   8.774   0.887  0.1693  0.1795 -0.0150
  628MOL0     C84677   6.945   8.687   0.844  0.8828  0.5446  0.5977
  628MOL0     C84678   6.939   8.633   0.719  0.2832  0.4915 -0.0244
  628MOL0     C84679   6.819   8.557   0.691  0.4300  0.4218  0.4578
  628MOL0     C84680   6.714   8.541   0.785 -1.2949  0.5906 -0.1121
  628MOL0     O84681   6.607   8.470   0.740 -0.1777 -0.6813 -0.7128
  628MOL0     C84682   6.542   8.382   0.837 -0.8530 -0.4403 -0.9844
  628MOL0     C84683   6.399   8.362   0.779 -0.8746  0.6328 -0.6197
  628MOL0     C84684   6.332   8.258   0.861  0.0555  0.7429 -0.5688
  628MOL0     C84685   6.207   8.206   0.801  0.9563  0.0253  0.3036
  628MOL0     C84686   6.103   8.170   0.900 -0.1481  0.2321 -0.3216
  628MOL0     C84687   5.971   8.113   0.830  1.1338 -0.1105 -0.2279
  628MOL0     C84688   5.890   8.089   0.960  0.5693 -0.0441  0.0703
  628MOL0     C84689   5.740   8.083   0.942 -0.4311 -0.1255  0.1557
  628MOL0    Cl84690   5.679   8.241   0.894 -0.2750  0.1870 -0.1200
  628MOL0     C84691   6.732   8.594   0.914  0.5852  1.0857  0.1269
  628MOL0     C84692   6.841   8.673   0.941  0.3148  0.4587 -0.0633
  628MOL0     O84693   7.226   8.615   0.885  0.6661  1.4254  0.0717
  628MOL0     C84694   7.406   8.825   0.892 -0.0431  0.1898  0.5624
  628MOL0     C84695   7.503   8.914   0.928  0.3599 -0.0564  0.0244
  628MOL0     N84696   7.812   9.506   1.451 -0.0649  0.0120  0.5780
  628MOL0     N84697   7.814   9.637   1.438 -0.2599  1.1990  0.6075
  628MOL0     C84698   6.905   9.749   0.703 -0.5840 -0.0798 -0.2388
  628MOL0     C84699   6.786   9.693   0.669 -0.6668  0.5190 -0.0559
  628MOL0     C84700   6.414   9.549   0.530  0.3660 -0.8787 -0.8289
  628MOL0     C84701   6.309   9.509   0.614 -0.3953  1.2903 -0.6904
  628MOL0     C84702   6.178   9.552   0.572  0.3608 -0.2059  0.8285
  628MOL0     C84703   6.150   9.630   0.454  0.0064  0.8100  0.6546
  628MOL0     O84704   6.022   9.677   0.442 -0.3098 -0.1106 -0.6205
  628MOL0     C84705   5.997   9.818   0.431 -0.0567 -0.1650 -0.4362
  628MOL0     C84706   5.861   9.855   0.481 -0.3637  0.3774 -0.2370
  628MOL0     C84707   5.858   9.990   0.557 -0.9929  0.1360  0.1803
  628MOL0     C84708   5.720  10.031   0.617 -0.4910 -1.2436  0.5530
  628MOL0     C84709   5.686   9.951   0.733 -0.6561 -0.0166  0.1896
  628MOL0     C84710   5.673   9.891   0.833  0.2274  0.9161  0.0397
  628MOL0     C84711   6.254   9.647   0.368 -0.2273  0.2167  0.1003
  628MOL0     C84712   6.382   9.612   0.405 -0.6260  0.4683  0.3148
  628MOL0     H84713   6.868   9.496   0.421 -0.2785  3.2272 -3.4250
  628MOL0     H84714   7.090   9.549   0.503 -0.9409 -0.8860 -1.1432
  628MOL0     H84715   7.234   9.583   0.783  0.9964 -1.6680 -1.2269
  628MOL0     H84716   7.258   9.594   0.611  1.3674  0.5833 -0.5711
  628MOL0     H84717   7.447   9.641   0.727 -1.9753 -0.7592 -0.6094
  628MOL0     H84718   7.413   9.788   0.635  2.8362  0.4526  0.9059
  628MOL0     H84719   7.399   9.925   0.841  1.8212  0.0676 -1.6548
  628MOL0     H84720   7.301   9.794   0.912  0.5109 -1.3728  1.7778
  628MOL0     H84721   7.506   9.651   0.966 -0.7652  0.3052  0.8933
  628MOL0     H84722   7.602   9.799   0.912 -1.0323  1.8808 -0.5993
  628MOL0     H84723   7.446   9.923   1.096 -0.7743  0.4257 -0.2505
  628MOL0     H84724   7.391   9.769   1.128 -1.2748  1.1690 -1.1717
  628MOL0     H84725   7.640   9.704   1.172  0.2602 -0.2670 -2.7816
  628MOL0     H84726   7.681   9.875   1.166  1.8811 -1.5213  2.8883
  628MOL0     H84727   7.513   9.942   1.320  0.1540  0.1907  0.2436
  628MOL0     H84728   7.462   9.769   1.339  0.3366 -0.4321  0.0818
  628MOL0     H84729   7.591   9.841   1.531 -1.2165 -3.0930 -0.7602
  628MOL0     H84730   7.734   9.876   1.416  1.3249 -0.0260  1.2564
  628MOL0     H84731   7.498   9.577   1.508 -0.2695  2.3540  0.0205
  628MOL0     H84732   7.700   9.271   1.534 -0.9614  0.2313  1.6453
  628MOL0     H84733   7.530   9.318   1.511 -0.5902  1.7836 -0.7520
  628MOL0     H84734   7.687   9.153   1.342 -0.9341  0.8344  1.8943
  628MOL0     H84735   7.739   9.303   1.273 -1.4104 -0.1329 -3.3769
  628MOL0     H84736   7.521   9.387   1.249 -3.3048 -0.9587  0.7981
  628MOL0     H84737   7.445   9.238   1.300  1.0057 -0.4551  0.3884
  628MOL0     H84738   7.597   9.301   1.038  1.0083 -1.1119 -0.5838
  628MOL0     H84739   7.430   9.265   1.065 -0.2267 -1.7608  0.1711
  628MOL0     H84740   7.316   9.090   1.155 -1.5774 -0.0658 -0.0580
  628MOL0     H84741   7.069   8.831   1.153 -0.7265 -0.2020 -0.5321
  628MOL0     H84742   7.118   8.989   1.209  0.8703  0.5879  0.0068
  628MOL0     H84743   7.031   8.975   1.052 -1.7959  0.4471  1.5028
  628MOL0     H84744   7.018   8.654   0.648 -0.5667 -0.9197 -1.4325
  628MOL0     H84745   6.809   8.515   0.592  0.5897 -1.3200  1.1394
  628MOL0     H84746   6.601   8.290   0.835 -2.1871 -1.3342 -2.6217
  628MOL0     H84747   6.529   8.417   0.940  0.0298 -2.6743 -0.0471
  628MOL0     H84748   6.347   8.457   0.766  0.6426  1.2528 -3.0042
  628MOL0     H84749   6.416   8.324   0.678 -0.4207  0.6920 -0.5697
  628MOL0     H84750   6.303   8.302   0.957  0.2713  0.3739 -0.3305
  628MOL0     H84751   6.401   8.176   0.885 -2.2931 -0.7582  1.4685
  628MOL0     H84752   6.167   8.290   0.743  2.7931 -0.2562 -1.4961
  628MOL0     H84753   6.225   8.113   0.746 -0.5003  1.5399 -3.0076
  628MOL0     H84754   6.085   8.262   0.955 -1.7263 -0.8508  1.0774
  628MOL0     H84755   6.132   8.095   0.974 -2.6923 -1.4992 -0.9229
  628MOL0     H84756   5.925   8.178   0.755  2.1038  0.0099 -0.7430
  628MOL0     H84757   5.986   8.020   0.774  1.2695  1.7453 -3.5936
  628MOL0     H84758   5.912   8.140   1.054 -1.8192  0.0234  0.6731
  628MOL0     H84759   5.913   7.987   0.994 -2.5260 -0.5992  0.8073
  628MOL0     H84760   5.689   8.051   1.033  1.9005 -0.8842  1.2833
  628MOL0     H84761   5.722   8.010   0.863  0.4712  1.9813 -2.1382
  628MOL0     H84762   6.662   8.569   0.993  1.0933 -1.2666 -0.1177
  628MOL0     H84763   6.854   8.738   1.027  0.2170  1.0983 -0.5288
  628MOL0     H84764   7.434   8.763   0.808  0.8417  0.0642  0.9369
  628MOL0     H84765   7.607   8.911   0.898 -0.1593 -1.7395 -1.8051
  628MOL0     H84766   6.901   9.830   0.775  1.4046 -0.2954  0.1938
  628MOL0     H84767   6.700   9.728   0.725 -0.8046  0.2266 -0.0820
  628MOL0     H84768   6.309   9.453   0.707 -2.5637  2.1112 -0.1232
  628MOL0     H84769   6.091   9.528   0.633  0.1914 -2.0538 -0.0851
  628MOL0     H84770   6.071   9.875   0.489 -1.1197 -1.5028  2.4221
  628MOL0     H84771   6.003   9.853   0.327  0.6585 -1.2476 -0.7823
  628MOL0     H84772   5.816   9.784   0.551  1.0892 -1.1051 -0.7423
  628MOL0     H84773   5.792   9.872   0.397 -1.8972  0.8037  1.0582
  628MOL0     H84774   5.897  10.069   0.492  2.8145 -2.0240 -0.4326
  628MOL0     H84775   5.938   9.972   0.630  2.1734 -3.6979 -3.6615
  628MOL0     H84776   5.646  10.020   0.537  0.1981 -2.9311  0.0947
  628MOL0     H84777   5.720  10.137   0.644  1.7225 -0.8373 -0.7591
  628MOL0     H84778   5.660   9.824   0.916 -1.7245  0.4386 -0.5955
  628MOL0     H84779   6.227   9.688   0.270 -1.0921  0.0318  0.2544
  628MOL0     H84780   6.467   9.625   0.337  0.5734 -2.3195  1.1520
  629MOL0     O84781   2.348   0.536   8.939 -0.3001 -0.2370 -0.3397
  629MOL0     C84782   2.346   0.414   8.928  0.5307  0.3512  0.3907
  629MOL0     O84783   2.359   0.316   9.023 -1.4091  0.3561  0.6780
  629MOL0     C84784   2.438   0.333   9.130  1.1055  0.2756 -0.5796
  629MOL0     C84785   2.403   0.270   9.251  1.1732  0.0626 -0.3965
  629MOL0     C84786   2.488   0.279   9.364  0.3289 -0.3548 -0.4243
  629MOL0     C84787   2.595   0.368   9.369  0.8855 -0.7683 -0.2906
  629MOL0     O84788   2.688   0.371   9.468  0.2140 -0.4611 -0.6873
  629MOL0     C84789   2.812   0.294   9.448  0.9093 -0.3468  0.8656
  629MOL0     C84790   2.919   0.392   9.452 -1.7871  0.0855 -1.0632
  629MOL0     C84791   3.054   0.319   9.413 -0.4553 -0.4627 -0.2817
  629MOL0     C84792   3.167   0.419   9.392 -0.5574 -0.1404  0.2622
  629MOL0     C84793   3.312   0.372   9.431  0.0568 -0.2815  0.4351
  629MOL0     C84794   3.349   0.233   9.361 -0.2048  0.3959  0.6788
  629MOL0     C84795   3.494   0.206   9.373  0.5679 -0.6099 -0.1173
  629MOL0     C84796   3.541   0.098   9.267 -0.2878 -0.9720 -0.8992
  629MOL0     N84797   3.691   0.081   9.271  0.0369 -0.4180  0.1256
  629MOL0     C84798   3.760   0.178   9.214  0.2923 -0.3677  0.1940
  629MOL0     C84799   3.878   0.113   9.193 -0.1244 -0.0867  0.0712
  629MOL0     C84800   3.995   0.185   9.129 -0.7108  0.5569  0.4649
  629MOL0     C84801   4.049   0.114   9.004  0.6398  0.3883  0.0670
  629MOL0     C84802   4.193   0.164   8.945  0.2851  0.6966  0.0233
  629MOL0     C84803   4.180   0.318   8.910 -1.0806  0.3129  0.4506
  629MOL0     O84804   4.296   0.357   8.823 -0.4543 -0.8120  0.0626
  629MOL0     C84805   4.292   0.345   8.682 -0.2130  0.0520 -1.0151
  629MOL0     C84806   4.402   0.376   8.613  0.3611 -0.3389 -0.4163
  629MOL0     C84807   4.406   0.377   8.477  0.8166 -0.5668 -0.2838
  629MOL0     C84808   4.531   0.421   8.417 -0.9649  0.1313  0.4004
  629MOL0     C84809   4.288   0.349   8.404 -0.0750 -1.1682  0.9591
  629MOL0     C84810   4.272   0.352   8.248 -0.8192 -0.0442 -0.9073
  629MOL0     O84811   4.148   0.329   8.200 -0.4642 -0.6443  0.4783
  629MOL0     C84812   4.110   0.354   8.069  0.7392 -0.2633 -0.1889
  629MOL0     C84813   4.164   0.270   7.976  1.0452  0.7206  1.2306
  629MOL0     C84814   4.109   0.268   7.849 -0.2893  0.6362  0.1267
  629MOL0     C84815   4.008   0.357   7.816 -0.0210 -0.8720 -0.8791
  629MOL0     O84816   3.925   0.350   7.705  0.1291 -0.4370 -0.0001
  629MOL0     C84817   3.991   0.318   7.581 -0.4256  0.0128 -0.2113
  629MOL0     C84818   4.012   0.440   7.484  0.1004 -0.1006  0.2425
  629MOL0     C84819   3.886   0.527   7.466 -0.3688  0.1247 -0.5262
  629MOL0     C84820   3.751   0.450   7.464  0.1864 -0.7628 -0.0356
  629MOL0     C84821   3.627   0.534   7.446 -0.1516  0.1562  0.6857
  629MOL0     C84822   3.605   0.655   7.537  0.1741 -0.9762  0.8724
  629MOL0     C84823   3.542   0.622   7.676 -0.2588  0.6800  0.3455
  629MOL0     C84824   3.635   0.679   7.786  0.7881  0.4697 -0.8971
  629MOL0    Cl84825   3.590   0.593   7.942 -0.1235  0.3866 -0.5154
  629MOL0     C84826   3.969   0.449   7.918  0.3515 -0.2606  0.6173
  629MOL0     C84827   4.018   0.445   8.048  0.5848 -0.3998 -1.1739
  629MOL0     O84828   4.371   0.339   8.179  0.1494 -0.5160  0.2742
  629MOL0     C84829   4.183   0.295   8.476 -0.4251  0.5283  0.2186
  629MOL0     C84830   4.176   0.299   8.613  0.3449 -0.0320  0.0021
  629MOL0     N84831   3.881  -0.017   9.246 -0.2507 -0.1446  0.1199
  629MOL0     N84832   3.765  -0.038   9.286  0.6708 -0.3400 -0.1148
  629MOL0     C84833   2.616   0.446   9.252  0.1856  0.5416  0.4955
  629MOL0     C84834   2.549   0.422   9.135  0.9908 -0.2650  0.9743
  629MOL0     C84835   2.324   0.356   8.785 -1.0160 -0.0707 -0.0702
  629MOL0     C84836   2.286   0.227   8.758 -0.0920  0.6458 -0.3878
  629MOL0     C84837   2.250   0.189   8.630  0.2258  1.0142  0.7101
  629MOL0     C84838   2.266   0.272   8.511 -0.7422  0.4747  0.5623
  629MOL0     O84839   2.251   0.215   8.386 -0.5452 -0.8223  0.1018
  629MOL0     C84840   2.310   0.277   8.271 -1.0728  0.6986  1.0406
  629MOL0     C84841   2.299   0.174   8.156 -0.4149 -0.1711 -0.1089
  629MOL0     C84842   2.368   0.048   8.198 -0.5672 -0.0633  0.1431
  629MOL0     C84843   2.357  -0.070   8.093 -0.5024  0.1925  0.4405
  629MOL0     C84844   2.449  -0.169   8.145 -0.3679  0.4463  0.2642
  629MOL0     C84845   2.518  -0.247   8.215  0.4030 -0.1986 -0.7116
  629MOL0     C84846   2.311   0.397   8.540  0.0411  0.2972 -1.0181
  629MOL0     C84847   2.335   0.442   8.672  0.2077  0.2524 -0.5100
  629MOL0     H84848   2.311   0.212   9.240 -0.5725  2.9221 -2.1112
  629MOL0     H84849   2.473   0.210   9.447  0.7739 -1.7644 -1.4673
  629MOL0     H84850   2.836   0.216   9.521  2.9003 -0.3117  0.3053
  629MOL0     H84851   2.803   0.244   9.351 -0.9122  3.4811 -1.1419
  629MOL0     H84852   2.914   0.463   9.368  0.7579  2.8886  0.9454
  629MOL0     H84853   2.918   0.448   9.545  2.7410  1.9433 -1.8330
  629MOL0     H84854   3.082   0.251   9.494 -4.0161  1.5534  2.9670
  629MOL0     H84855   3.041   0.258   9.324 -0.0388  2.3432 -2.3969
  629MOL0     H84856   3.161   0.442   9.285  1.7550 -0.6221 -0.0183
  629MOL0     H84857   3.139   0.511   9.444 -0.1328  0.1425 -0.0071
  629MOL0     H84858   3.388   0.444   9.398  2.2398 -1.8722  1.6529
  629MOL0     H84859   3.326   0.381   9.539  1.5786  0.4792  0.2023
  629MOL0     H84860   3.295   0.147   9.401 -0.2666 -1.1502 -2.4291
  629MOL0     H84861   3.330   0.245   9.254 -1.4395  2.7246  1.0860
  629MOL0     H84862   3.553   0.295   9.348  3.7697 -1.5056  3.3535
  629MOL0     H84863   3.514   0.184   9.478 -2.0206 -1.1072  0.3485
  629MOL0     H84864   3.517   0.130   9.166 -1.2826  3.3352  0.4985
  629MOL0     H84865   3.492   0.005   9.297 -1.0202 -0.0374  0.9961
  629MOL0     H84866   3.733   0.279   9.184 -0.2131 -0.2643  0.9454
  629MOL0     H84867   3.964   0.287   9.103  0.2618  0.3116 -1.9716
  629MOL0     H84868   4.079   0.179   9.199  1.7676  0.9960 -2.2275
  629MOL0     H84869   3.978   0.131   8.922 -0.0552 -2.2915  0.0184
  629MOL0     H84870   4.057   0.007   9.023  2.5574  0.5624  0.4509
  629MOL0     H84871   4.224   0.119   8.851  0.5140 -1.5666  1.1146
  629MOL0     H84872   4.278   0.154   9.014  1.7554 -0.6530 -1.8708
  629MOL0     H84873   4.180   0.373   9.004  1.2563  0.5786  0.3606
  629MOL0     H84874   4.090   0.348   8.856 -0.4053 -1.0468 -1.5904
  629MOL0     H84875   4.497   0.405   8.658 -0.1362  2.0341 -0.7642
  629MOL0     H84876   4.564   0.348   8.343 -0.3145 -0.2827  1.0826
  629MOL0     H84877   4.514   0.521   8.375 -3.6374  1.1441  3.4804
  629MOL0     H84878   4.612   0.439   8.489  1.6596 -3.2191 -1.4175
  629MOL0     H84879   4.247   0.200   7.987  0.1173 -0.7687 -0.7353
  629MOL0     H84880   4.148   0.195   7.779 -0.6266 -0.1463  0.7340
  629MOL0     H84881   4.094   0.286   7.596  0.5773  3.0721  0.1795
  629MOL0     H84882   3.944   0.233   7.531 -4.5141  1.5703  0.5900
  629MOL0     H84883   4.091   0.497   7.533 -0.2006 -1.1851  2.1105
  629MOL0     H84884   4.050   0.404   7.388 -1.2713 -0.6122 -0.1331
  629MOL0     H84885   3.892   0.571   7.366  0.2791 -0.3860 -0.7229
  629MOL0     H84886   3.893   0.597   7.549 -1.9734 -1.6132  1.1660
  629MOL0     H84887   3.762   0.378   7.382  3.4800  0.3195 -0.7165
  629MOL0     H84888   3.743   0.391   7.555 -0.2621  0.6324  0.8525
  629MOL0     H84889   3.528   0.489   7.450 -0.0745  0.0603  2.3146
  629MOL0     H84890   3.635   0.565   7.342  0.8926  0.1671  0.7516
  629MOL0     H84891   3.694   0.718   7.546 -0.7987  0.7293 -0.7910
  629MOL0     H84892   3.543   0.722   7.477  4.3359  1.4401 -1.2191
  629MOL0     H84893   3.538   0.514   7.697 -5.0796  0.2664 -1.3909
  629MOL0     H84894   3.441   0.661   7.687  0.0150  2.6591 -2.9805
  629MOL0     H84895   3.620   0.786   7.801 -1.0228 -0.0380  1.3868
  629MOL0     H84896   3.743   0.665   7.772  0.6873 -0.8383 -0.5546
  629MOL0     H84897   3.880   0.499   7.882  0.8851  0.6402  0.5330
  629MOL0     H84898   3.978   0.510   8.125  0.0825  0.1202 -1.8532
  629MOL0     H84899   4.095   0.260   8.422 -0.4049  1.6301 -0.5539
  629MOL0     H84900   4.089   0.263   8.666  0.7212  1.7432  1.9348
  629MOL0     H84901   2.692   0.524   9.261  0.1079  1.0858 -2.4907
  629MOL0     H84902   2.579   0.473   9.044 -2.0390  1.3916  0.7560
  629MOL0     H84903   2.283   0.157   8.840 -1.0620 -0.8155 -1.5994
  629MOL0     H84904   2.202   0.094   8.607  1.0340  1.3190 -2.8133
  629MOL0     H84905   2.264   0.374   8.250 -2.7452 -0.1418  0.6794
  629MOL0     H84906   2.416   0.302   8.272 -1.2242  1.4950 -0.6643
  629MOL0     H84907   2.341   0.207   8.060  0.0991  0.5218  0.3509
  629MOL0     H84908   2.199   0.133   8.136 -0.1631 -0.4351 -0.8892
  629MOL0     H84909   2.347   0.014   8.299  0.3498  0.7362  0.6134
  629MOL0     H84910   2.470   0.084   8.211  0.0786 -1.1110 -1.5865
  629MOL0     H84911   2.390  -0.033   7.995 -0.6332 -1.8898 -0.4398
  629MOL0     H84912   2.257  -0.113   8.087 -0.4810 -0.2761  2.5422
  629MOL0     H84913   2.570  -0.299   8.294  0.2102 -0.3514 -0.6834
  629MOL0     H84914   2.319   0.471   8.461 -0.6108  1.8681  0.3320
  629MOL0     H84915   2.361   0.545   8.694 -0.5314  0.0796  1.3975
  630MOL0     O84916   4.648   7.656   8.964 -0.4271 -0.7528 -0.2364
  630MOL0     C84917   4.688   7.774   8.991 -0.6102  0.7279 -0.6472
  630MOL0     O84918   4.617   7.891   8.975  0.0941  0.0292 -0.1913
  630MOL0     C84919   4.479   7.878   8.949  0.1281  0.1010  0.1050
  630MOL0     C84920   4.389   7.775   9.012 -1.3000 -1.4507 -0.1227
  630MOL0     C84921   4.256   7.767   8.976  0.4450 -0.2266 -0.6187
  630MOL0     C84922   4.209   7.864   8.885 -0.1902 -0.4904 -0.6518
  630MOL0     O84923   4.079   7.881   8.855  0.3701 -0.3341  0.3526
  630MOL0     C84924   3.972   7.886   8.953 -0.4487  1.0688 -0.3838
  630MOL0     C84925   3.853   7.882   8.862 -0.4879 -0.7415  0.3900
  630MOL0     C84926   3.721   7.845   8.926  0.1069 -0.9807  0.0917
  630MOL0     C84927   3.645   7.759   8.814  0.6471 -0.2048  0.6729
  630MOL0     C84928   3.499   7.720   8.865 -0.3434 -0.8915  0.3849
  630MOL0     C84929   3.417   7.655   8.744  0.4155 -0.0309 -0.6019
  630MOL0     C84930   3.474   7.523   8.697 -0.7725 -0.1690 -0.3606
  630MOL0     C84931   3.433   7.492   8.545  0.6038  1.0719 -0.4669
  630MOL0     N84932   3.282   7.480   8.532 -0.2263 -0.7290 -0.0251
  630MOL0     C84933   3.204   7.404   8.610 -0.1321  0.0004 -0.2625
  630MOL0     C84934   3.091   7.381   8.537  0.4009  0.4252  0.3334
  630MOL0     C84935   2.969   7.296   8.578 -0.3093 -0.3020 -0.3336
  630MOL0     C84936   2.851   7.392   8.582  0.2773 -0.0477 -0.5261
  630MOL0     C84937   2.867   7.508   8.679 -0.2093  0.7626 -0.2529
  630MOL0     C84938   2.768   7.627   8.659  0.4519  0.3380 -0.4447
  630MOL0     O84939   2.804   7.727   8.751  0.1831 -0.4402 -0.1633
  630MOL0     C84940   2.732   7.844   8.769 -0.5250  1.2007 -0.1217
  630MOL0     C84941   2.789   7.924   8.859  0.4775 -0.8954 -0.2203
  630MOL0     C84942   2.740   8.052   8.886 -0.2336 -0.1852 -0.1934
  630MOL0     C84943   2.804   8.132   8.997 -0.3539  0.2213  0.1526
  630MOL0     C84944   2.621   8.095   8.822 -0.1393  0.5050 -1.5139
  630MOL0     C84945   2.552   8.222   8.854  0.0122 -0.0769 -0.4824
  630MOL0     O84946   2.613   8.325   8.915  0.6414 -0.4457 -0.1598
  630MOL0     C84947   2.551   8.450   8.939  0.1034  0.1834 -0.4038
  630MOL0     C84948   2.611   8.549   9.022  0.1358  0.1872 -0.3036
  630MOL0     C84949   2.564   8.674   9.035  0.7400  0.3241 -0.3021
  630MOL0     C84950   2.450   8.717   8.973 -0.1245 -0.7589  0.9482
  630MOL0     O84951   2.404   8.849   8.991  0.1294  0.7433  0.6073
  630MOL0     C84952   2.268   8.877   8.960 -0.2850 -0.3830  0.0676
  630MOL0     C84953   2.261   9.030   8.988  0.4014 -0.3338 -0.0221
  630MOL0     C84954   2.115   9.084   8.985 -0.3215  0.3112  0.1712
  630MOL0     C84955   2.113   9.220   9.059  0.0518  1.2303  0.6340
  630MOL0     C84956   1.983   9.290   9.055  0.7764  0.5287 -0.1647
  630MOL0     C84957   1.858   9.207   9.098  0.3283  0.5859  0.6557
  630MOL0     C84958   1.742   9.304   9.106  0.3057  0.4012  0.6295
  630MOL0     C84959   1.720   9.368   9.250 -0.3818  0.6208  1.0239
  630MOL0    Cl84960   1.585   9.487   9.231 -0.0743 -0.1082  0.4093
  630MOL0     C84961   2.398   8.629   8.877  0.8839 -0.3164 -1.0982
  630MOL0     C84962   2.444   8.495   8.862  0.4867 -0.1489  0.2353
  630MOL0     O84963   2.434   8.217   8.819  0.4875  0.2859 -0.4872
  630MOL0     C84964   2.572   8.013   8.726  0.5173 -0.5710  0.8731
  630MOL0     C84965   2.616   7.884   8.703 -1.6403  0.5860  0.8502
  630MOL0     N84966   3.114   7.443   8.412  0.4307 -0.2100  0.0641
  630MOL0     N84967   3.223   7.507   8.416 -0.0920 -0.1038  0.0050
  630MOL0     C84968   4.289   7.961   8.833 -0.1349 -0.0175  0.0331
  630MOL0     C84969   4.416   7.972   8.862 -0.9161 -0.1762  0.0960
  630MOL0     C84970   4.830   7.796   9.043  0.2771 -0.1438  0.4708
  630MOL0     C84971   4.920   7.693   9.064 -0.7401  0.1632 -0.7091
  630MOL0     C84972   5.048   7.704   9.115 -0.3936 -0.9797 -0.6792
  630MOL0     C84973   5.088   7.832   9.169 -0.3804 -0.0349 -0.3651
  630MOL0     O84974   5.214   7.832   9.224  0.3306 -0.3090 -0.1300
  630MOL0     C84975   5.264   7.957   9.271 -0.4817  0.8385  1.1446
  630MOL0     C84976   5.328   8.031   9.156 -1.6519  0.2280  0.4744
  630MOL0     C84977   5.465   7.975   9.107 -0.6755  0.3135 -0.5323
  630MOL0     C84978   5.582   8.037   9.188 -0.7021  0.3152 -0.2848
  630MOL0     C84979   5.583   8.009   9.331 -0.3834  0.0947 -0.9312
  630MOL0     C84980   5.580   7.977   9.447  0.1879  0.0240 -0.2688
  630MOL0     C84981   5.000   7.947   9.147  0.1264  0.9519 -0.8191
  630MOL0     C84982   4.876   7.923   9.093  0.8070  0.5545 -0.4937
  630MOL0     H84983   4.439   7.717   9.089  1.4401  2.7727  1.5879
  630MOL0     H84984   4.180   7.691   8.993  0.6077 -0.7009 -1.8956
  630MOL0     H84985   3.972   7.795   9.015 -0.7011  1.6973  0.5692
  630MOL0     H84986   3.966   7.973   9.019  1.7732  2.1691 -1.5267
  630MOL0     H84987   3.853   7.981   8.815 -1.0705 -1.3715 -1.0040
  630MOL0     H84988   3.877   7.811   8.782 -0.6948 -2.0907  1.4964
  630MOL0     H84989   3.738   7.794   9.021 -1.9738 -3.0525 -0.5561
  630MOL0     H84990   3.661   7.933   8.950  2.4766  0.6221  0.5724
  630MOL0     H84991   3.629   7.813   8.720 -1.2075 -3.2044 -0.8821
  630MOL0     H84992   3.701   7.668   8.791  0.1904 -1.0216  2.5778
  630MOL0     H84993   3.519   7.655   8.950  1.5581 -1.2534 -0.2792
  630MOL0     H84994   3.455   7.814   8.897  0.4064  0.5677 -2.4756
  630MOL0     H84995   3.318   7.636   8.786  0.1260 -1.9819 -2.0373
  630MOL0     H84996   3.409   7.730   8.664  1.4955 -1.0527 -1.7104
  630MOL0     H84997   3.582   7.533   8.702 -1.0216  5.3415  1.1701
  630MOL0     H84998   3.451   7.435   8.759  0.4579  0.4169  0.9817
  630MOL0     H84999   3.470   7.392   8.519 -2.2825 -0.4881  0.9681
  630MOL0     H85000   3.485   7.556   8.473 -1.8773  1.4418 -2.0494
  630MOL0     H85001   3.237   7.357   8.703 -1.9475  0.8578  0.8680
  630MOL0     H85002   2.956   7.234   8.489 -2.1480 -0.1383 -0.2026
  630MOL0     H85003   2.999   7.240   8.667  2.3257 -1.0036 -1.5326
  630MOL0     H85004   2.758   7.344   8.614 -1.2162  3.3983  0.8651
  630MOL0     H85005   2.835   7.434   8.483 -4.2649  0.1382  0.0941
  630MOL0     H85006   2.970   7.544   8.665  0.4697 -0.7530  0.6327
  630MOL0     H85007   2.865   7.464   8.779  0.4497 -1.8101 -1.2712
  630MOL0     H85008   2.667   7.598   8.689  1.5251 -2.7780  0.5061
  630MOL0     H85009   2.756   7.659   8.555  0.2764 -0.9341 -0.8361
  630MOL0     H85010   2.868   7.894   8.926  2.1027  0.0073 -1.6498
  630MOL0     H85011   2.854   8.216   8.947 -0.0608 -0.1388 -0.1619
  630MOL0     H85012   2.737   8.162   9.078 -1.2418  1.3500 -0.9652
  630MOL0     H85013   2.878   8.071   9.050  0.7151  1.5773  0.2837
  630MOL0     H85014   2.686   8.502   9.085 -1.4387 -0.7766  0.9337
  630MOL0     H85015   2.589   8.734   9.121 -0.8537  0.9569 -0.2395
  630MOL0     H85016   2.244   8.863   8.854 -4.6933  0.6825  0.7447
  630MOL0     H85017   2.191   8.830   9.022  0.3847 -0.0278  1.1909
  630MOL0     H85018   2.308   9.060   9.083 -1.4671 -1.7811  1.4435
  630MOL0     H85019   2.319   9.083   8.912 -0.1372 -0.3860 -0.4760
  630MOL0     H85020   2.051   9.012   9.036 -3.3539  1.4215 -1.7731
  630MOL0     H85021   2.069   9.105   8.888 -1.1728  3.5220  1.1533
  630MOL0     H85022   2.141   9.213   9.164  0.0204  0.6430  0.6070
  630MOL0     H85023   2.187   9.284   9.009 -2.0021  1.6097 -2.1604
  630MOL0     H85024   1.959   9.338   8.960 -1.4992 -0.7448 -0.2830
  630MOL0     H85025   1.979   9.373   9.127 -4.5188  2.1543 -1.8916
  630MOL0     H85026   1.830   9.138   9.018  1.2310  0.8731  0.0678
  630MOL0     H85027   1.869   9.150   9.190 -0.3638 -0.0601  0.3486
  630MOL0     H85028   1.648   9.252   9.084 -0.0762  0.8852  1.1009
  630MOL0     H85029   1.742   9.387   9.035 -2.0090  1.2635  1.5433
  630MOL0     H85030   1.799   9.433   9.288 -0.6625  0.8090  1.2913
  630MOL0     H85031   1.686   9.284   9.310  0.0535 -2.2735 -2.4122
  630MOL0     H85032   2.317   8.656   8.811  0.4882  1.6513  0.1038
  630MOL0     H85033   2.408   8.434   8.780  1.1432 -1.8365  1.1370
  630MOL0     H85034   2.491   8.052   8.665  0.0880 -0.1171  1.7267
  630MOL0     H85035   2.571   7.822   8.626 -0.2808  1.4779 -0.7659
  630MOL0     H85036   4.239   8.036   8.773  1.0014  0.1190 -0.7765
  630MOL0     H85037   4.472   8.059   8.828 -2.2941  0.9694  0.6849
  630MOL0     H85038   4.901   7.592   9.028  0.2033 -0.2673 -0.0340
  630MOL0     H85039   5.124   7.626   9.115 -0.0673 -0.7054 -2.1417
  630MOL0     H85040   5.183   8.022   9.305 -0.7329  0.5881  1.0363
  630MOL0     H85041   5.343   7.943   9.345  1.0319  2.2124 -0.1253
  630MOL0     H85042   5.340   8.138   9.179 -1.8555  0.6478 -1.2224
  630MOL0     H85043   5.263   8.026   9.068 -0.8806 -1.1733 -0.0334
  630MOL0     H85044   5.481   8.002   9.002 -0.0274 -1.2049 -0.8452
  630MOL0     H85045   5.474   7.868   9.122  3.0077  0.4565 -0.7440
  630MOL0     H85046   5.574   8.144   9.166 -1.7192  0.4485  0.6243
  630MOL0     H85047   5.681   8.008   9.153 -1.3612  0.1875 -2.1309
  630MOL0     H85048   5.579   7.945   9.550  1.5046 -3.1701 -1.1275
  630MOL0     H85049   5.030   8.046   9.178 -0.4757  1.0982 -0.7028
  630MOL0     H85050   4.809   8.008   9.089 -0.9660 -0.8014 -1.0779
  631MOL0     O85051   4.411   4.580  11.413 -0.8991  0.3622  0.2196
  631MOL0     C85052   4.429   4.460  11.396  0.0329 -0.0238  0.7984
  631MOL0     O85053   4.529   4.384  11.441  0.1920  0.2422  0.3753
  631MOL0     C85054   4.596   4.424  11.548 -1.5712  0.0656 -0.7288
  631MOL0     C85055   4.542   4.502  11.656 -0.6372  0.2605  0.0224
  631MOL0     C85056   4.632   4.547  11.754  0.7494  0.3519  0.5054
  631MOL0     C85057   4.764   4.505  11.759  0.8635 -0.0233 -0.2532
  631MOL0     O85058   4.853   4.542  11.860  0.7055  0.1138 -0.4324
  631MOL0     C85059   4.849   4.674  11.914 -0.4780 -1.1458 -0.1865
  631MOL0     C85060   4.934   4.772  11.833 -0.0312  0.3355  0.4502
  631MOL0     C85061   4.900   4.922  11.885 -0.5435 -1.0252 -0.7722
  631MOL0     C85062   4.898   4.949  12.042  0.2282 -0.2089  0.2387
  631MOL0     C85063   4.846   5.090  12.058  0.4507  0.6974 -0.6252
  631MOL0     C85064   4.807   5.126  12.201  0.3064 -0.9180 -0.0947
  631MOL0     C85065   4.727   5.255  12.193 -0.1176 -0.3088  0.3029
  631MOL0     C85066   4.691   5.294  12.332  0.3465  0.1076 -0.0257
  631MOL0     N85067   4.556   5.242  12.352  0.4231 -0.3424  0.1800
  631MOL0     C85068   4.435   5.304  12.313 -0.6652  0.0336  0.2621
  631MOL0     C85069   4.341   5.255  12.396 -0.2115  0.7231  0.0137
  631MOL0     C85070   4.193   5.290  12.381 -0.1477 -0.2885 -0.5732
  631MOL0     C85071   4.096   5.189  12.315  0.0204 -0.3501  0.5803
  631MOL0     C85072   3.951   5.238  12.323 -0.0366 -0.1930  0.2805
  631MOL0     C85073   3.907   5.330  12.200  0.2432  0.6003 -0.0536
  631MOL0     O85074   3.920   5.474  12.231  0.0579 -0.8085  0.4897
  631MOL0     C85075   3.800   5.531  12.258  0.1770  0.1508 -0.2058
  631MOL0     C85076   3.748   5.628  12.181 -0.4974 -0.4189 -0.3662
  631MOL0     C85077   3.619   5.683  12.199  0.0888  0.0066  0.8882
  631MOL0     C85078   3.572   5.773  12.084 -0.0283  0.5734  0.2045
  631MOL0     C85079   3.541   5.645  12.310  0.4560  0.2524 -0.4955
  631MOL0     C85080   3.401   5.691  12.340  0.7470 -1.2229 -0.1511
  631MOL0     O85081   3.316   5.612  12.411 -0.5755  1.1827 -0.2826
  631MOL0     C85082   3.196   5.673  12.454 -0.6487  0.9223  0.2799
  631MOL0     C85083   3.067   5.667  12.398  0.6831  0.5203  0.7535
  631MOL0     C85084   2.962   5.739  12.454 -0.0782 -0.0336  0.4516
  631MOL0     C85085   2.983   5.810  12.572 -0.1680  0.2802  0.5189
  631MOL0     O85086   2.879   5.877  12.626 -0.1443  0.1242 -0.4642
  631MOL0     C85087   2.840   5.980  12.540  0.1399  0.1741  0.3325
  631MOL0     C85088   2.801   6.097  12.631 -0.2776 -1.2791 -0.5286
  631MOL0     C85089   2.727   6.209  12.550 -0.5470 -0.1652 -0.0178
  631MOL0     C85090   2.852   6.293  12.511  1.0790 -0.0714  0.3875
  631MOL0     C85091   2.818   6.374  12.377 -1.7077  0.7029 -0.3687
  631MOL0     C85092   2.700   6.460  12.390 -0.2871  0.5602 -0.5330
  631MOL0     C85093   2.727   6.590  12.462 -0.3308 -0.0163 -0.0733
  631MOL0     C85094   2.610   6.685  12.474 -0.0918  0.8276  0.6671
  631MOL0    Cl85095   2.580   6.762  12.321  0.7967 -0.0824  0.4362
  631MOL0     C85096   3.102   5.803  12.641  0.0185  0.3428 -0.8372
  631MOL0     C85097   3.214   5.739  12.579  1.2358 -0.2771 -0.0763
  631MOL0     O85098   3.379   5.803  12.300 -0.2185 -0.0704  0.6028
  631MOL0     C85099   3.594   5.559  12.400  0.6639  1.2989  0.1785
  631MOL0     C85100   3.730   5.510  12.382 -0.1363  0.7189 -0.0233
  631MOL0     N85101   4.397   5.150  12.471 -0.2458 -0.0040 -0.1603
  631MOL0     N85102   4.521   5.155  12.448 -0.2204  0.0203 -0.5603
  631MOL0     C85103   4.806   4.411  11.672  0.2969 -0.5053  1.0840
  631MOL0     C85104   4.728   4.370  11.559  0.6542 -0.8509 -0.2150
  631MOL0     C85105   4.330   4.393  11.304  0.5264  0.2326  0.0600
  631MOL0     C85106   4.216   4.463  11.261  0.4272 -0.2089 -0.1168
  631MOL0     C85107   4.135   4.411  11.157 -0.2963  0.4485  0.1370
  631MOL0     C85108   4.167   4.280  11.091  0.0789 -0.9332 -0.5120
  631MOL0     O85109   4.089   4.231  10.987 -0.0862  0.0043  0.0914
  631MOL0     C85110   3.960   4.293  10.957  0.0069 -0.4290 -0.9527
  631MOL0     C85111   3.887   4.224  10.840  0.4403  0.3052 -0.3677
  631MOL0     C85112   3.909   4.072  10.823 -0.5892  0.8475  0.3296
  631MOL0     C85113   3.854   4.011  10.692  0.7660 -0.4193  0.4674
  631MOL0     C85114   3.948   4.041  10.583 -0.7421 -0.6435  0.7419
  631MOL0     C85115   4.028   4.061  10.495  0.0712  0.5692 -0.5020
  631MOL0     C85116   4.286   4.223  11.143  0.1256  1.2013  0.2178
  631MOL0     C85117   4.367   4.278  11.241  0.0854  0.4786  0.4174
  631MOL0     H85118   4.437   4.523  11.672 -0.9442 -2.8643  3.2771
  631MOL0     H85119   4.591   4.606  11.835 -0.2028  0.9347 -0.3772
  631MOL0     H85120   4.744   4.703  11.928 -0.9573 -2.6255 -0.4533
  631MOL0     H85121   4.894   4.672  12.014 -2.2430  0.2721  0.7116
  631MOL0     H85122   5.040   4.754  11.854 -0.3994 -1.8287  0.7062
  631MOL0     H85123   4.919   4.759  11.726  0.9684 -1.9689  0.5418
  631MOL0     H85124   4.987   4.979  11.853  0.0553  0.6529  3.2582
  631MOL0     H85125   4.804   4.952  11.842 -1.7793 -0.6304  2.0355
  631MOL0     H85126   4.821   4.891  12.094 -0.7686  3.2074  2.9766
  631MOL0     H85127   4.997   4.941  12.087  0.5258 -2.6160 -0.7140
  631MOL0     H85128   4.925   5.162  12.035 -0.5273  1.8210 -0.5748
  631MOL0     H85129   4.755   5.110  12.000  2.9503  0.6880 -5.0056
  631MOL0     H85130   4.747   5.047  12.246 -1.5989  0.6017  0.1584
  631MOL0     H85131   4.898   5.137  12.261 -0.7497 -0.6854  1.5394
  631MOL0     H85132   4.798   5.327  12.151 -0.2140 -1.4323 -1.9112
  631MOL0     H85133   4.635   5.250  12.134 -1.4795  4.0579  1.6275
  631MOL0     H85134   4.700   5.402  12.348 -3.4481  0.8182 -1.6047
  631MOL0     H85135   4.753   5.238  12.402 -0.7964 -1.8292 -0.4972
  631MOL0     H85136   4.427   5.367  12.226  1.9640 -3.3250 -2.7413
  631MOL0     H85137   4.158   5.305  12.484  1.6269 -1.6479  0.2736
  631MOL0     H85138   4.180   5.385  12.329  0.5072  0.0576 -0.1062
  631MOL0     H85139   4.108   5.091  12.364 -1.1776 -1.4730 -1.2756
  631MOL0     H85140   4.125   5.176  12.211 -2.2462  2.4939 -0.5505
  631MOL0     H85141   3.935   5.298  12.413 -2.9386 -1.8963  1.0192
  631MOL0     H85142   3.896   5.144  12.324 -4.1283  1.9236 -0.8509
  631MOL0     H85143   3.802   5.302  12.185  1.0533 -2.7933 -0.2158
  631MOL0     H85144   3.953   5.312  12.103  1.1366 -1.5865  0.7007
  631MOL0     H85145   3.816   5.664  12.104 -1.8159  1.9674 -0.4955
  631MOL0     H85146   3.572   5.876  12.120 -1.0083 -0.9126  5.2331
  631MOL0     H85147   3.636   5.764  11.996 -1.3440 -0.9574 -0.6644
  631MOL0     H85148   3.473   5.742  12.049  1.2772 -0.7412 -2.6607
  631MOL0     H85149   3.050   5.628  12.298  1.6179  1.4902  0.1997
  631MOL0     H85150   2.863   5.730  12.410  0.0142  1.6457 -0.1612
  631MOL0     H85151   2.904   6.016  12.458 -2.9788 -3.2350 -4.1233
  631MOL0     H85152   2.748   5.937  12.501 -0.4641 -0.6306  2.5682
  631MOL0     H85153   2.735   6.058  12.709  1.5269 -1.1611  1.1357
  631MOL0     H85154   2.888   6.132  12.688 -0.9268 -0.0407 -0.2776
  631MOL0     H85155   2.650   6.252  12.614 -1.2658 -0.2017 -0.8582
  631MOL0     H85156   2.676   6.169  12.462 -0.0356 -0.9489  0.0208
  631MOL0     H85157   2.869   6.356  12.598 -0.2215 -2.0809  2.1895
  631MOL0     H85158   2.939   6.230  12.490  0.0614 -1.2361 -0.5455
  631MOL0     H85159   2.803   6.297  12.301  0.0411 -2.2774  2.0850
  631MOL0     H85160   2.902   6.438  12.347 -1.8614  0.5399 -1.1700
  631MOL0     H85161   2.666   6.470  12.287  0.9180  2.3616 -0.7985
  631MOL0     H85162   2.634   6.396  12.450 -0.8318  1.1696 -0.4586
  631MOL0     H85163   2.812   6.629  12.404  1.2218 -2.9347  0.0500
  631MOL0     H85164   2.763   6.578  12.565 -2.5475 -0.7161  0.6677
  631MOL0     H85165   2.641   6.770  12.535  2.2812  0.3862  0.1902
  631MOL0     H85166   2.518   6.633  12.502  0.9495 -2.0036 -0.7356
  631MOL0     H85167   3.111   5.844  12.741  1.5012 -1.8575  0.0227
  631MOL0     H85168   3.311   5.742  12.629 -0.0526  1.6603  2.5702
  631MOL0     H85169   3.536   5.517  12.481  1.2295  3.9773  2.0890
  631MOL0     H85170   3.772   5.438  12.451  2.0981  0.5877 -1.4116
  631MOL0     H85171   4.908   4.373  11.676  1.1082  1.5312  0.8634
  631MOL0     H85172   4.779   4.305  11.489  1.7609 -1.6829  1.2851
  631MOL0     H85173   4.194   4.568  11.281 -0.0255 -0.5039  0.9774
  631MOL0     H85174   4.044   4.469  11.146  0.6644  2.4036  1.7943
  631MOL0     H85175   3.894   4.286  11.044  0.6050 -2.6680 -0.6098
  631MOL0     H85176   3.968   4.398  10.928 -1.9584 -0.1676 -0.6635
  631MOL0     H85177   3.914   4.281  10.751 -0.3585  0.0287 -0.8028
  631MOL0     H85178   3.778   4.230  10.845 -0.0269 -3.2565 -2.4424
  631MOL0     H85179   3.850   4.020  10.899  0.7744  0.2307  1.0183
  631MOL0     H85180   4.018   4.064  10.827 -0.5577 -0.8933 -2.0036
  631MOL0     H85181   3.759   4.061  10.677  0.3251 -1.8307 -2.1157
  631MOL0     H85182   3.836   3.903  10.704  1.7842 -1.0501 -2.5965
  631MOL0     H85183   4.104   4.089  10.424  1.3108 -0.1433  0.5004
  631MOL0     H85184   4.303   4.131  11.089 -3.0803 -0.3776  1.6342
  631MOL0     H85185   4.460   4.229  11.269  0.9142 -0.8605 -3.8404
  632MOL0     O85186  10.724   9.135   6.418  0.3368 -0.2743  0.7397
  632MOL0     C85187  10.744   9.030   6.354 -0.2099 -0.0992 -0.0703
  632MOL0     O85188  10.702   9.000   6.231  0.4314  0.4343  0.0385
  632MOL0     C85189  10.667   9.097   6.147  0.3520  0.4908  0.8945
  632MOL0     C85190  10.769   9.168   6.070 -0.4050 -0.9789 -0.7448
  632MOL0     C85191  10.745   9.293   6.008  0.3611 -0.3086 -0.2304
  632MOL0     C85192  10.613   9.344   6.023 -0.2434 -0.6021  0.0112
  632MOL0     O85193  10.602   9.457   5.953  0.3182  0.1138 -0.6616
  632MOL0     C85194  10.468   9.485   5.916 -0.1130  0.3158  0.4681
  632MOL0     C85195  10.476   9.616   5.839 -0.1297  0.1150 -0.3004
  632MOL0     C85196  10.483   9.731   5.946  0.6067 -0.7588  1.0131
  632MOL0     C85197  10.529   9.860   5.874 -0.0440  0.1729  0.0048
  632MOL0     C85198  10.564   9.973   5.974 -0.2097 -0.2822 -1.1264
  632MOL0     C85199  10.439  10.033   6.037 -0.1235  0.2213 -0.4080
  632MOL0     C85200  10.467  10.169   6.113 -0.4370  1.0049  0.2339
  632MOL0     C85201  10.341  10.217   6.189 -0.9337  0.1025 -0.5914
  632MOL0     N85202  10.359  10.347   6.246 -0.3916  0.2864  0.2697
  632MOL0     C85203  10.440  10.377   6.351 -0.1092  0.3602  0.3256
  632MOL0     C85204  10.414  10.506   6.381 -1.1283  0.5043  0.4846
  632MOL0     C85205  10.494  10.587   6.482  0.4713 -0.4925  0.1037
  632MOL0     C85206  10.460  10.572   6.627 -0.3531 -0.2979  0.4731
  632MOL0     C85207  10.532  10.672   6.721  0.3886  0.1301  0.8142
  632MOL0     C85208  10.438  10.716   6.840 -0.4774  0.2364 -0.4275
  632MOL0     O85209  10.530  10.778   6.932 -0.0528 -0.7064  0.3184
  632MOL0     C85210  10.523  10.763   7.067  0.0364  1.1699  0.6092
  632MOL0     C85211  10.528  10.884   7.137 -0.2778 -0.1717 -0.4468
  632MOL0     C85212  10.519  10.899   7.275  0.5158 -0.2675 -0.6514
  632MOL0     C85213  10.516  11.041   7.329  0.0136 -0.1187 -0.1431
  632MOL0     C85214  10.508  10.775   7.348 -0.2695 -0.8892 -0.6399
  632MOL0     C85215  10.510  10.777   7.500 -0.5391 -0.3234 -0.7326
  632MOL0     O85216  10.553  10.880   7.567  0.9117 -0.1377 -0.2670
  632MOL0     C85217  10.530  10.887   7.704  0.1707 -0.4546 -0.9678
  632MOL0     C85218  10.428  10.976   7.743 -0.0259  0.8088 -0.4222
  632MOL0     C85219  10.426  11.006   7.877  1.1175 -0.5633  0.2491
  632MOL0     C85220  10.520  10.971   7.970 -0.9290 -1.2049  0.1276
  632MOL0     O85221  10.516  11.016   8.098 -0.2707 -0.0763  0.3998
  632MOL0     C85222  10.485  11.156   8.133  0.4150  1.0674 -0.5021
  632MOL0     C85223  10.503  11.175   8.280 -1.0473 -0.0594 -0.3502
  632MOL0     C85224  10.396  11.095   8.351  0.0153  0.4276  0.7700
  632MOL0     C85225  10.378  11.134   8.499 -0.1224  0.2740 -0.0032
  632MOL0     C85226  10.242  11.073   8.535  0.7502 -0.8817  0.7182
  632MOL0     C85227  10.215  11.069   8.686  0.0312 -0.0231 -1.3191
  632MOL0     C85228  10.256  10.931   8.747 -0.0319  0.0453 -0.4131
  632MOL0     C85229  10.187  10.911   8.885 -0.5992 -0.8425  0.8105
  632MOL0    Cl85230  10.235  10.748   8.954  0.2183 -0.0680 -0.0023
  632MOL0     C85231  10.609  10.877   7.931  0.6015  0.0293 -0.1787
  632MOL0     C85232  10.617  10.841   7.795  0.7916  1.0369 -0.3420
  632MOL0     O85233  10.479  10.671   7.551 -0.3571  0.0944  0.6716
  632MOL0     C85234  10.486  10.653   7.275 -0.5193  0.5287 -0.2124
  632MOL0     C85235  10.486  10.648   7.136 -0.2350  0.2400 -1.2833
  632MOL0     N85236  10.319  10.553   6.297 -0.1213  0.0655 -0.5238
  632MOL0     N85237  10.286  10.460   6.210  0.7452  0.2534 -0.5670
  632MOL0     C85238  10.516   9.280   6.097 -1.2608  0.6865 -0.2650
  632MOL0     C85239  10.543   9.161   6.153 -0.6947  0.5356  0.2123
  632MOL0     C85240  10.802   8.914   6.427 -0.3262  0.2251  0.2737
  632MOL0     C85241  10.803   8.777   6.387  0.3366  0.3455 -0.1267
  632MOL0     C85242  10.865   8.689   6.463 -1.1565  0.2433 -0.3754
  632MOL0     C85243  10.937   8.717   6.582  0.5483 -0.9147  0.3373
  632MOL0     O85244  10.989   8.624   6.666  0.6694 -0.5552  0.8607
  632MOL0     C85245  10.910   8.517   6.712  0.4469 -0.5730 -1.2777
  632MOL0     C85246  10.941   8.514   6.869 -0.3195  0.0673 -0.4865
  632MOL0     C85247  10.853   8.417   6.953  0.2123 -0.4910 -1.0147
  632MOL0     C85248  10.900   8.268   6.963  0.4323 -0.5867  1.3731
  632MOL0     C85249  11.016   8.251   7.052 -0.0179 -0.5097  0.0917
  632MOL0     C85250  11.108   8.258   7.125  0.4979  0.6595  0.5057
  632MOL0     C85251  10.956   8.850   6.613 -0.7088 -0.7272 -0.6273
  632MOL0     C85252  10.878   8.946   6.548  0.3129 -0.2608 -0.1815
  632MOL0     H85253  10.861   9.111   6.069 -0.7095 -1.5364  0.6122
  632MOL0     H85254  10.831   9.345   5.967  1.0991  0.2471  1.8836
  632MOL0     H85255  10.441   9.401   5.851 -0.4950 -0.5898  1.7659
  632MOL0     H85256  10.415   9.499   6.011  0.6468  0.9365  0.8219
  632MOL0     H85257  10.572   9.617   5.787 -0.2733 -1.8376 -0.6803
  632MOL0     H85258  10.405   9.625   5.757 -0.7547  0.1144  0.2382
  632MOL0     H85259  10.391   9.764   5.995  0.1353 -1.4705  0.6332
  632MOL0     H85260  10.556   9.711   6.025 -0.3361  0.1542  2.1410
  632MOL0     H85261  10.620   9.852   5.815 -0.4963  0.2491 -0.7209
  632MOL0     H85262  10.444   9.888   5.810 -1.0474  1.0849  1.6610
  632MOL0     H85263  10.628   9.939   6.057  0.2906 -1.5100 -1.9961
  632MOL0     H85264  10.614  10.042   5.906  3.2309 -0.3853  1.0413
  632MOL0     H85265  10.354  10.055   5.972 -0.3068 -0.6620 -0.4800
  632MOL0     H85266  10.406   9.957   6.109  2.1742 -2.5171 -2.0444
  632MOL0     H85267  10.557  10.150   6.172  1.0861 -0.0493 -2.2708
  632MOL0     H85268  10.494  10.248   6.042  2.6847  1.0876  1.3755
  632MOL0     H85269  10.312  10.154   6.273 -1.4943  2.0851  0.7712
  632MOL0     H85270  10.252  10.229   6.127 -1.6795 -0.8493  0.2652
  632MOL0     H85271  10.508  10.309   6.401 -0.5076 -0.8360 -0.7143
  632MOL0     H85272  10.600  10.561   6.479  0.2477 -3.0350  5.0681
  632MOL0     H85273  10.475  10.690   6.450  2.3043 -0.3180 -0.5969
  632MOL0     H85274  10.498  10.472   6.651  3.2847  1.1362  1.3888
  632MOL0     H85275  10.352  10.570   6.642 -0.6446  1.0132 -1.1772
  632MOL0     H85276  10.571  10.759   6.667  3.0437 -2.9737 -2.7996
  632MOL0     H85277  10.622  10.621   6.756 -1.8167 -3.7757  1.3739
  632MOL0     H85278  10.391  10.627   6.883 -0.5661 -0.8370 -2.5847
  632MOL0     H85279  10.358  10.784   6.810  1.0087  2.0075 -0.5766
  632MOL0     H85280  10.530  10.974   7.077 -0.4138  0.1810  0.0664
  632MOL0     H85281  10.432  11.036   7.400 -0.2917 -0.8190 -0.5511
  632MOL0     H85282  10.602  11.062   7.393  0.0660 -3.0531  0.8781
  632MOL0     H85283  10.514  11.119   7.252  1.6136  5.0533  4.3485
  632MOL0     H85284  10.365  11.030   7.673 -0.6398  1.6564  0.7694
  632MOL0     H85285  10.352  11.080   7.904  0.1529 -1.1478 -0.7517
  632MOL0     H85286  10.546  11.231   8.082 -1.4735  2.2864 -1.0646
  632MOL0     H85287  10.379  11.176   8.117 -0.2589  0.0401  2.0630
  632MOL0     H85288  10.605  11.140   8.301 -0.9484  0.9687  1.0186
  632MOL0     H85289  10.489  11.282   8.302 -1.7638  0.8439 -4.4013
  632MOL0     H85290  10.413  10.987   8.354 -0.9834  0.2786  1.7986
  632MOL0     H85291  10.297  11.111   8.308 -0.7936 -0.0010  2.3802
  632MOL0     H85292  10.449  11.086   8.567  0.1541 -0.4389 -0.7868
  632MOL0     H85293  10.372  11.242   8.514  2.7101  0.2848  1.9739
  632MOL0     H85294  10.223  10.975   8.489  1.9433 -0.7865 -0.0407
  632MOL0     H85295  10.156  11.128   8.497 -2.3108 -5.2682  0.4812
  632MOL0     H85296  10.274  11.143   8.740  1.6838 -1.6371 -0.8214
  632MOL0     H85297  10.111  11.080   8.717  0.7326 -2.6862  2.6790
  632MOL0     H85298  10.365  10.927   8.752 -0.0259  0.1280 -0.4579
  632MOL0     H85299  10.233  10.843   8.687  1.4453 -1.3791  1.0289
  632MOL0     H85300  10.078  10.914   8.875 -0.6443 -2.1957  0.7390
  632MOL0     H85301  10.219  10.993   8.950 -4.9424  1.4102  0.4569
  632MOL0     H85302  10.688  10.850   8.000  0.5491 -0.2420 -0.2251
  632MOL0     H85303  10.698  10.782   7.754 -0.9620 -0.1251 -2.3659
  632MOL0     H85304  10.475  10.564   7.334  2.4929 -0.6328 -1.2071
  632MOL0     H85305  10.461  10.557   7.083 -1.8052  0.8825 -1.7069
  632MOL0     H85306  10.417   9.322   6.113 -2.0694 -1.5397  0.9592
  632MOL0     H85307  10.470   9.113   6.219 -1.8456 -0.5622 -1.7715
  632MOL0     H85308  10.740   8.755   6.302  2.4591  0.0020 -1.7012
  632MOL0     H85309  10.859   8.582   6.443 -0.5450  0.6007 -2.7551
  632MOL0     H85310  10.804   8.539   6.698 -0.1976 -3.4563 -1.5090
  632MOL0     H85311  10.924   8.418   6.668 -2.2934 -0.8243 -1.7212
  632MOL0     H85312  10.936   8.617   6.905 -0.0565  0.0824 -0.4874
  632MOL0     H85313  11.045   8.485   6.887 -1.2663 -3.1730  0.4108
  632MOL0     H85314  10.752   8.423   6.911  0.1339 -1.7148 -1.0498
  632MOL0     H85315  10.854   8.460   7.053  4.3603 -2.1164 -0.1189
  632MOL0     H85316  10.924   8.236   6.861  0.5052  2.4422  0.3258
  632MOL0     H85317  10.811   8.213   6.995 -1.2189  1.0131 -0.1910
  632MOL0     H85318  11.195   8.269   7.187  1.5056 -0.6585 -0.6089
  632MOL0     H85319  11.024   8.871   6.694 -0.9810 -1.0941 -0.2998
  632MOL0     H85320  10.879   9.044   6.594  1.5108 -1.5568  2.8109
  633MOL0     O85321   2.881   2.022   7.928 -0.1619  0.8680  0.4509
  633MOL0     C85322   2.854   1.928   7.860 -0.8390  0.0896  0.3740
  633MOL0     O85323   2.770   1.927   7.749 -0.0898  0.1024 -0.0189
  633MOL0     C85324   2.679   2.026   7.732  0.1947  0.2324  1.3829
  633MOL0     C85325   2.584   2.052   7.830 -0.1015 -0.6153 -0.5780
  633MOL0     C85326   2.481   2.135   7.811  0.3605 -0.5774  0.3183
  633MOL0     C85327   2.458   2.193   7.690  0.1195 -0.2012 -0.4292
  633MOL0     O85328   2.338   2.239   7.660 -0.4114 -0.6131 -0.9626
  633MOL0     C85329   2.341   2.382   7.664  0.2450  0.5659 -0.2826
  633MOL0     C85330   2.193   2.420   7.675 -0.2787  0.2185 -0.7538
  633MOL0     C85331   2.150   2.468   7.540  0.1152 -0.2214 -0.1048
  633MOL0     C85332   2.017   2.550   7.548  0.6785  0.3170  0.4524
  633MOL0     C85333   1.961   2.603   7.420 -0.1310  0.9072  0.7236
  633MOL0     C85334   2.073   2.638   7.317 -0.2779  0.1028 -0.1617
  633MOL0     C85335   2.013   2.687   7.186  0.5625  0.5363  0.1727
  633MOL0     C85336   2.125   2.701   7.065  0.0625  0.0939 -0.3130
  633MOL0     N85337   2.049   2.754   6.948 -0.5823  0.2648  1.1243
  633MOL0     C85338   2.020   2.878   6.929 -0.1628 -0.0953 -0.3517
  633MOL0     C85339   1.951   2.890   6.813 -0.5992  0.0180 -0.5245
  633MOL0     C85340   1.896   3.015   6.761 -0.4091  0.7419  0.1442
  633MOL0     C85341   1.749   3.020   6.817 -0.2868 -0.4059  0.4645
  633MOL0     C85342   1.707   3.159   6.815  0.2754 -0.8610 -0.1346
  633MOL0     C85343   1.550   3.176   6.843 -1.0830  0.2271  0.8131
  633MOL0     O85344   1.511   3.102   6.955  0.3840 -0.4372 -1.3874
  633MOL0     C85345   1.384   3.113   6.993 -0.0692  0.8631  0.5133
  633MOL0     C85346   1.306   3.228   6.987 -0.6289 -0.1823  0.3263
  633MOL0     C85347   1.173   3.226   7.037  0.4514  0.0926  0.4264
  633MOL0     C85348   1.106   3.352   7.032 -0.4329  0.3639 -0.3306
  633MOL0     C85349   1.121   3.101   7.087 -0.2728  0.8628  0.0868
  633MOL0     C85350   0.986   3.084   7.131 -0.3062  0.1295  0.0066
  633MOL0     O85351   0.933   2.956   7.126 -0.4032 -0.6219  0.3916
  633MOL0     C85352   0.796   2.948   7.159 -0.2430 -1.1155  0.0430
  633MOL0     C85353   0.740   2.989   7.279  0.1618 -0.1823 -0.8306
  633MOL0     C85354   0.600   2.997   7.282 -0.4258  0.0121  0.3249
  633MOL0     C85355   0.516   2.957   7.176  0.0124 -0.2676  0.1983
  633MOL0     O85356   0.388   2.999   7.207  0.9616 -0.1996 -0.5157
  633MOL0     C85357   0.295   2.994   7.094 -0.0335 -0.4687 -0.4046
  633MOL0     C85358   0.304   3.116   6.998 -0.1860  0.7752  0.4777
  633MOL0     C85359   0.191   3.112   6.882  0.8994  0.2238 -0.1123
  633MOL0     C85360   0.087   3.232   6.884 -0.3371  0.2250 -1.1852
  633MOL0     C85361  -0.020   3.215   6.777  0.3011  0.0466  0.3504
  633MOL0     C85362  -0.104   3.339   6.785  0.1150 -0.5288  0.8115
  633MOL0     C85363  -0.223   3.341   6.683 -0.6374 -1.1346  0.5180
  633MOL0     C85364  -0.293   3.482   6.689 -0.3554  0.4177 -0.8276
  633MOL0    Cl85365  -0.384   3.493   6.839 -0.2300  0.2363 -0.1384
  633MOL0     C85366   0.575   2.904   7.060 -0.1912 -0.2784  1.2474
  633MOL0     C85367   0.719   2.906   7.051  0.9491  1.1950 -0.0103
  633MOL0     O85368   0.923   3.182   7.164 -0.6786  0.4167 -0.4721
  633MOL0     C85369   1.204   2.986   7.096 -0.5993 -0.0370  0.1113
  633MOL0     C85370   1.332   2.989   7.032 -0.9101 -0.1071 -0.1384
  633MOL0     N85371   1.949   2.765   6.759  0.1026  0.4820  0.2132
  633MOL0     N85372   2.001   2.685   6.840 -0.3105 -0.3553  0.2934
  633MOL0     C85373   2.552   2.166   7.592 -0.5567 -1.0428 -0.2990
  633MOL0     C85374   2.663   2.082   7.612 -0.5232  0.3719  0.8244
  633MOL0     C85375   2.922   1.799   7.890  0.3145 -0.3499  0.0595
  633MOL0     C85376   2.894   1.674   7.822  0.2912  0.4108 -1.2193
  633MOL0     C85377   2.972   1.560   7.849 -0.8685  0.3433 -0.5502
  633MOL0     C85378   3.078   1.556   7.941  0.3756 -1.0319  0.2733
  633MOL0     O85379   3.143   1.441   7.952  0.1992 -0.5538 -0.4051
  633MOL0     C85380   3.245   1.429   8.056  0.4060  0.0787 -0.1360
  633MOL0     C85381   3.281   1.285   8.050 -0.3920  0.2267 -0.1067
  633MOL0     C85382   3.381   1.255   7.941  0.4661  0.1734  0.8265
  633MOL0     C85383   3.408   1.104   7.937  0.2445 -0.5414 -0.4139
  633MOL0     C85384   3.520   1.082   7.846  0.1667  0.1950 -0.4477
  633MOL0     C85385   3.605   1.059   7.761  0.5998 -0.5318  0.4863
  633MOL0     C85386   3.083   1.672   8.024  0.5419  0.4335 -0.1736
  633MOL0     C85387   3.001   1.785   8.011 -0.2681  0.2346 -0.5919
  633MOL0     H85388   2.585   1.994   7.922 -0.7573  2.0948  1.2431
  633MOL0     H85389   2.409   2.162   7.887  3.4159  1.0472  2.8976
  633MOL0     H85390   2.395   2.425   7.749  2.4629  1.3247 -1.9778
  633MOL0     H85391   2.394   2.410   7.573  2.7737 -0.7313  0.6833
  633MOL0     H85392   2.133   2.331   7.700 -0.2941  0.3392 -0.3439
  633MOL0     H85393   2.187   2.491   7.759  2.5669  3.2711 -2.8938
  633MOL0     H85394   2.235   2.531   7.511  1.2726 -1.0835  1.2775
  633MOL0     H85395   2.139   2.390   7.463 -1.9670 -0.1501  0.0639
  633MOL0     H85396   1.936   2.490   7.589 -0.8462 -0.3410 -3.1304
  633MOL0     H85397   2.037   2.634   7.616  0.3209  1.4513 -0.8051
  633MOL0     H85398   1.897   2.523   7.381 -0.5360  1.6044 -0.0877
  633MOL0     H85399   1.885   2.680   7.438 -1.5105  0.7835 -3.4009
  633MOL0     H85400   2.142   2.711   7.361 -2.0536  0.8546  1.4773
  633MOL0     H85401   2.139   2.555   7.292 -2.4022 -1.3978 -1.0124
  633MOL0     H85402   1.935   2.619   7.152  0.0608  1.7232 -1.1667
  633MOL0     H85403   1.957   2.777   7.213  1.1128  0.7828  0.5089
  633MOL0     H85404   2.179   2.608   7.044  0.8255  0.0711  1.5352
  633MOL0     H85405   2.193   2.777   7.105  0.9344 -1.6524  1.6585
  633MOL0     H85406   2.039   2.963   6.994  0.0082  0.1536 -0.7277
  633MOL0     H85407   1.955   3.097   6.803 -0.7165 -0.2328  2.6511
  633MOL0     H85408   1.904   3.028   6.652  1.6172  1.0995  0.2914
  633MOL0     H85409   1.740   2.987   6.921 -2.2143 -0.8015  0.2095
  633MOL0     H85410   1.689   2.951   6.759  1.3186 -1.2984 -0.2036
  633MOL0     H85411   1.724   3.188   6.711  1.6173  1.1639  0.5790
  633MOL0     H85412   1.770   3.213   6.885  2.4108 -1.0599 -1.8045
  633MOL0     H85413   1.505   3.124   6.758 -1.0348  1.2761  0.1162
  633MOL0     H85414   1.522   3.282   6.842 -1.4789  0.1204  0.7950
  633MOL0     H85415   1.335   3.326   6.951 -0.3890 -0.7512 -1.1187
  633MOL0     H85416   1.155   3.435   6.981 -2.0310  2.1442  0.8970
  633MOL0     H85417   1.008   3.339   6.984 -0.1657 -0.7511 -0.6057
  633MOL0     H85418   1.091   3.382   7.136 -0.4224  2.4507 -0.8990
  633MOL0     H85419   0.806   3.028   7.356  1.9650 -0.5664 -2.1162
  633MOL0     H85420   0.560   3.033   7.377  1.0748 -3.0578  2.3144
  633MOL0     H85421   0.303   2.891   7.058 -3.2888 -1.9062  2.4488
  633MOL0     H85422   0.191   2.997   7.126  0.7049 -1.3361  2.3885
  633MOL0     H85423   0.308   3.214   7.047  1.7649 -0.2892  2.6628
  633MOL0     H85424   0.404   3.114   6.954 -0.1953  2.7375  0.2618
  633MOL0     H85425   0.130   3.022   6.889  2.6402 -0.8473  3.6497
  633MOL0     H85426   0.242   3.118   6.785  2.2131  0.3545  0.5566
  633MOL0     H85427   0.035   3.255   6.978 -0.7014 -3.0856 -0.4852
  633MOL0     H85428   0.139   3.327   6.867  0.7740  0.0241  0.7015
  633MOL0     H85429  -0.079   3.125   6.795  0.2931 -0.1321 -0.5235
  633MOL0     H85430   0.039   3.214   6.684 -0.3907  2.2892 -0.1726
  633MOL0     H85431  -0.143   3.357   6.886 -1.1322  0.9857  0.0941
  633MOL0     H85432  -0.047   3.432   6.775 -2.5193  0.9006 -3.6343
  633MOL0     H85433  -0.298   3.264   6.700 -1.0915 -0.3889  2.0351
  633MOL0     H85434  -0.196   3.344   6.577  2.1771  1.9246  1.1690
  633MOL0     H85435  -0.359   3.504   6.604 -1.8373 -0.5518  0.0331
  633MOL0     H85436  -0.209   3.552   6.688  1.2866 -1.4171  1.2953
  633MOL0     H85437   0.512   2.869   6.979  0.9878  1.7245 -0.6337
  633MOL0     H85438   0.772   2.877   6.961 -2.0208  1.9034 -2.1329
  633MOL0     H85439   1.173   2.889   7.132 -1.2146  0.7030  1.6508
  633MOL0     H85440   1.373   2.889   7.024 -0.6841 -0.1103  0.9444
  633MOL0     H85441   2.536   2.200   7.490  0.3930  0.9805  0.1848
  633MOL0     H85442   2.720   2.045   7.528 -0.0944 -0.2432  1.3744
  633MOL0     H85443   2.824   1.682   7.740 -2.7386 -0.6900  1.0865
  633MOL0     H85444   2.935   1.477   7.789 -5.1672  0.7559  1.2181
  633MOL0     H85445   3.335   1.485   8.027  0.8550 -0.7115 -0.3249
  633MOL0     H85446   3.225   1.445   8.162  0.9508 -2.1028  0.3428
  633MOL0     H85447   3.187   1.231   8.040 -0.2188 -0.3686  1.2654
  633MOL0     H85448   3.311   1.269   8.154 -0.8652  1.8700  0.3079
  633MOL0     H85449   3.472   1.310   7.965  0.1689  1.0598 -0.0156
  633MOL0     H85450   3.335   1.285   7.847  1.1824  1.3474  0.8274
  633MOL0     H85451   3.320   1.051   7.901 -0.4829 -0.9872  1.8149
  633MOL0     H85452   3.443   1.068   8.035  1.3441  0.3734 -0.4604
  633MOL0     H85453   3.687   1.060   7.692  1.8600 -2.3724  1.8444
  633MOL0     H85454   3.146   1.668   8.113  0.3055 -1.1909 -0.0386
  633MOL0     H85455   3.021   1.864   8.083 -0.5756 -0.7387  0.5962
  634MOL0     O85456  11.208   8.270   0.480 -0.0247  0.3016  0.7992
  634MOL0     C85457  11.294   8.288   0.396 -0.0213 -0.3517  0.5088
  634MOL0     O85458  11.292   8.240   0.270  0.0412 -0.3816  0.1799
  634MOL0     C85459  11.183   8.175   0.236  0.4128  0.3941  0.5009
  634MOL0     C85460  11.066   8.244   0.205 -0.0323  0.1500 -0.7527
  634MOL0     C85461  10.954   8.168   0.167  0.3500  0.0620  0.1328
  634MOL0     C85462  10.937   8.029   0.177 -0.9088 -0.4049 -0.6471
  634MOL0     O85463  10.823   7.961   0.143 -0.3835  0.2487 -0.4595
  634MOL0     C85464  10.698   8.027   0.156  0.0937 -0.8170 -0.0657
  634MOL0     C85465  10.586   7.922   0.168  1.1936 -0.5412  0.4186
  634MOL0     C85466  10.563   7.835   0.047  0.0396 -0.4176  0.0475
  634MOL0     C85467  10.556   7.893  -0.087  0.2948  0.5940  0.6283
  634MOL0     C85468  10.596   7.781  -0.185 -0.4837  0.4113  0.4048
  634MOL0     C85469  10.528   7.646  -0.183 -1.0209  0.2493 -0.3699
  634MOL0     C85470  10.566   7.569  -0.315 -0.2188 -0.3367  0.4927
  634MOL0     C85471  10.498   7.435  -0.317  0.1272 -0.0364 -0.0682
  634MOL0     N85472  10.355   7.457  -0.361  0.7727 -0.4404 -0.7165
  634MOL0     C85473  10.246   7.477  -0.275 -0.3503 -0.2665  0.6721
  634MOL0     C85474  10.142   7.517  -0.355 -1.5982  0.6485  0.1567
  634MOL0     C85475  10.011   7.577  -0.329 -0.1996  0.5048  0.5913
  634MOL0     C85476   9.909   7.477  -0.291  0.6710 -0.1005 -0.4291
  634MOL0     C85477   9.933   7.423  -0.143  0.1964 -0.3012 -0.5791
  634MOL0     C85478   9.863   7.288  -0.127 -0.4627 -0.9913  0.6852
  634MOL0     O85479   9.921   7.198  -0.223  0.6332 -0.7764 -0.8059
  634MOL0     C85480  10.058   7.180  -0.212 -0.1210  0.0070 -0.1316
  634MOL0     C85481  10.125   7.169  -0.089 -1.0701 -0.4889 -1.0534
  634MOL0     C85482  10.263   7.135  -0.077 -0.1560  1.2419 -1.2350
  634MOL0     C85483  10.317   7.129   0.067 -0.1690 -0.0439  0.9068
  634MOL0     C85484  10.332   7.105  -0.199 -0.1563  0.0693 -0.2455
  634MOL0     C85485  10.477   7.075  -0.212  0.7091  0.6840  0.2451
  634MOL0     O85486  10.528   7.008  -0.111  0.3204  0.5721 -0.0330
  634MOL0     C85487  10.664   6.994  -0.102  0.1239  0.3402 -0.2809
  634MOL0     C85488  10.739   7.079  -0.033 -0.6186 -0.5649  0.1314
  634MOL0     C85489  10.880   7.057  -0.022 -0.1994 -0.5143 -0.2483
  634MOL0     C85490  10.948   6.953  -0.086 -0.6797 -0.0852  0.3004
  634MOL0     O85491  11.079   6.946  -0.058  0.4832  0.7297 -0.2530
  634MOL0     C85492  11.156   6.834  -0.107 -0.6487  1.2067  0.9751
  634MOL0     C85493  11.301   6.837  -0.070 -1.1471 -0.3839 -0.1381
  634MOL0     C85494  11.375   6.951  -0.137  0.1467  0.9448  1.0232
  634MOL0     C85495  11.455   6.900  -0.258 -0.4088  0.0488 -0.2644
  634MOL0     C85496  11.464   7.009  -0.369 -0.4159  0.8099  0.8853
  634MOL0     C85497  11.551   7.124  -0.338  0.2135 -0.5055 -0.4784
  634MOL0     C85498  11.561   7.223  -0.448 -0.2450 -0.0827 -0.1943
  634MOL0     C85499  11.436   7.319  -0.457  0.0735 -0.3514 -0.1002
  634MOL0    Cl85500  11.449   7.412  -0.601  0.0570 -0.1878  0.1250
  634MOL0     C85501  10.872   6.867  -0.160  0.3914  0.2104  0.4861
  634MOL0     C85502  10.733   6.875  -0.154 -1.1207 -0.2632 -0.9490
  634MOL0     O85503  10.532   7.111  -0.307  0.3764  0.0252  0.4235
  634MOL0     C85504  10.266   7.107  -0.318  0.8535  0.4642 -0.0768
  634MOL0     C85505  10.131   7.144  -0.326  0.1022  0.5905 -0.3235
  634MOL0     N85506  10.184   7.495  -0.487  0.2001  0.2516  0.5548
  634MOL0     N85507  10.303   7.453  -0.489 -0.6854  0.3241  0.3493
  634MOL0     C85508  11.056   7.963   0.203  0.1383  0.7553 -0.2950
  634MOL0     C85509  11.176   8.035   0.232  0.1850 -0.1565  0.8969
  634MOL0     C85510  11.413   8.359   0.431  0.4667 -0.0639  0.1655
  634MOL0     C85511  11.505   8.386   0.331 -0.5980 -0.3679 -0.1112
  634MOL0     C85512  11.607   8.486   0.355  0.1625 -0.2826  0.8122
  634MOL0     C85513  11.631   8.522   0.484  0.7513 -0.6244  0.3656
  634MOL0     O85514  11.742   8.602   0.511  0.3437  0.3372 -0.1046
  634MOL0     C85515  11.803   8.583   0.645 -0.2866 -0.1253  0.2585
  634MOL0     C85516  11.929   8.670   0.658  0.7334 -0.1551 -0.7366
  634MOL0     C85517  11.889   8.820   0.631  0.3904  0.3643 -0.1073
  634MOL0     C85518  12.021   8.907   0.611  0.3515 -0.4885  0.9661
  634MOL0     C85519  11.984   9.032   0.537 -0.7441  0.6616  0.2433
  634MOL0     C85520  11.946   9.132   0.479 -0.8099 -0.3223 -0.1555
  634MOL0     C85521  11.547   8.477   0.587 -0.2778  0.7273  0.2897
  634MOL0     C85522  11.432   8.415   0.556  1.1466  0.6301 -0.5602
  634MOL0     H85523  11.065   8.352   0.192  3.2547  0.0712 -2.8144
  634MOL0     H85524  10.875   8.236   0.138  0.0801  1.4475  3.5903
  634MOL0     H85525  10.700   8.086   0.248 -0.1138  2.3678 -1.9490
  634MOL0     H85526  10.694   8.106   0.080  1.9147  2.3815  2.8666
  634MOL0     H85527  10.601   7.861   0.258 -1.1294  0.4329  1.5469
  634MOL0     H85528  10.495   7.981   0.182  1.9452  0.7193  0.1910
  634MOL0     H85529  10.657   7.780   0.052  0.6456  0.3501 -1.7735
  634MOL0     H85530  10.470   7.781   0.066 -1.4136  1.0161 -2.4501
  634MOL0     H85531  10.451   7.923  -0.097  0.5937  1.0549 -2.1386
  634MOL0     H85532  10.618   7.982  -0.096 -1.2194  1.8826  2.3180
  634MOL0     H85533  10.562   7.825  -0.279 -1.8122 -2.0338 -0.3664
  634MOL0     H85534  10.702   7.754  -0.178 -0.8096 -0.9389  0.5194
  634MOL0     H85535  10.552   7.584  -0.096  1.0403 -1.0818 -1.7722
  634MOL0     H85536  10.419   7.657  -0.181 -1.0014  0.8802 -1.5558
  634MOL0     H85537  10.538   7.632  -0.400  2.5536 -1.7501 -1.6418
  634MOL0     H85538  10.674   7.569  -0.336 -0.1172  3.4542  0.2919
  634MOL0     H85539  10.507   7.395  -0.215 -0.9979  4.0372  1.8320
  634MOL0     H85540  10.558   7.372  -0.383  0.1924  1.3892 -1.4185
  634MOL0     H85541  10.251   7.481  -0.167  0.4799  3.8510  0.6692
  634MOL0     H85542  10.031   7.648  -0.248 -0.3184  1.9834 -0.6324
  634MOL0     H85543   9.973   7.626  -0.419  0.2938 -1.5539 -0.8065
  634MOL0     H85544   9.920   7.403  -0.370  1.6923  0.4830 -0.8481
  634MOL0     H85545   9.806   7.511  -0.304  0.4005 -0.3077  0.9952
  634MOL0     H85546   9.887   7.489  -0.069  2.1022  1.6445 -1.0229
  634MOL0     H85547  10.041   7.407  -0.132  0.9013  0.6562 -4.4072
  634MOL0     H85548   9.760   7.309  -0.156  0.6808  0.5194 -2.8935
  634MOL0     H85549   9.870   7.254  -0.024 -2.7562 -0.2154  1.1501
  634MOL0     H85550  10.072   7.178   0.005 -0.4974 -4.4250 -0.1774
  634MOL0     H85551  10.259   7.184   0.142  2.3947  1.6580  1.7704
  634MOL0     H85552  10.333   7.024   0.091 -0.4745 -0.3832 -0.3256
  634MOL0     H85553  10.410   7.185   0.060  1.1931 -2.3198 -0.1801
  634MOL0     H85554  10.683   7.164   0.005 -2.8122 -0.7644 -2.3699
  634MOL0     H85555  10.932   7.133   0.036 -1.2005  0.9657 -1.2312
  634MOL0     H85556  11.116   6.742  -0.063 -1.5751  1.5829  0.9464
  634MOL0     H85557  11.157   6.854  -0.214  1.3932  2.2492  1.1413
  634MOL0     H85558  11.317   6.845   0.038  1.4568 -1.6932 -0.3476
  634MOL0     H85559  11.349   6.740  -0.082  3.4760  1.6521 -0.1809
  634MOL0     H85560  11.438   7.004  -0.065 -0.3624  2.5369  0.3373
  634MOL0     H85561  11.296   7.020  -0.170 -0.2053 -0.6432 -1.7486
  634MOL0     H85562  11.554   6.860  -0.234 -1.1697 -2.5194 -1.1436
  634MOL0     H85563  11.402   6.817  -0.306 -1.0804  1.4779 -2.1008
  634MOL0     H85564  11.361   7.044  -0.383  0.1580  2.7393  1.1604
  634MOL0     H85565  11.499   6.965  -0.462 -1.0543 -0.4135  1.2052
  634MOL0     H85566  11.521   7.173  -0.245 -1.4246  2.4079 -2.3858
  634MOL0     H85567  11.649   7.078  -0.323  0.7076  0.1306 -1.6369
  634MOL0     H85568  11.566   7.182  -0.549 -1.1717  0.2978 -0.4068
  634MOL0     H85569  11.652   7.279  -0.427  0.5016 -2.5323  4.4930
  634MOL0     H85570  11.438   7.384  -0.369  0.7782 -1.1912  0.5230
  634MOL0     H85571  11.336   7.276  -0.469 -1.5132  2.9703  0.0381
  634MOL0     H85572  10.904   6.779  -0.215  0.3466 -0.2435  1.1692
  634MOL0     H85573  10.675   6.795  -0.200  0.5521 -2.4350  0.5408
  634MOL0     H85574  10.311   7.074  -0.411  0.8588 -0.7214  0.3312
  634MOL0     H85575  10.082   7.135  -0.422 -0.3862 -2.4837  0.1182
  634MOL0     H85576  11.063   7.856   0.187 -1.4322  0.1389  2.4680
  634MOL0     H85577  11.263   7.970   0.239 -0.2124 -1.1006 -1.7262
  634MOL0     H85578  11.495   8.349   0.229  0.1180 -1.6926  0.2869
  634MOL0     H85579  11.670   8.528   0.277 -0.4139  3.5206  2.1572
  634MOL0     H85580  11.736   8.619   0.724  0.8524 -4.1745  3.4418
  634MOL0     H85581  11.840   8.480   0.658  2.6761  0.3658 -2.8604
  634MOL0     H85582  12.006   8.634   0.590 -2.3928 -2.0431 -3.5744
  634MOL0     H85583  11.951   8.662   0.765 -2.9869  1.8390  0.3733
  634MOL0     H85584  11.829   8.852   0.716 -0.4083 -2.3561  0.4557
  634MOL0     H85585  11.821   8.834   0.547 -2.7658  1.8944  2.5160
  634MOL0     H85586  12.099   8.860   0.551  1.9054  0.5844  2.0867
  634MOL0     H85587  12.082   8.920   0.701  3.8859 -0.0948 -1.3042
  634MOL0     H85588  11.928   9.222   0.424 -1.5331 -0.7257 -0.5987
  634MOL0     H85589  11.562   8.517   0.687 -0.7663 -0.3176  0.7956
  634MOL0     H85590  11.362   8.387   0.634 -0.4678  1.3765 -1.6591
  635MOL0     O85591  11.350   8.371   3.444  0.4193 -0.0033 -0.3883
  635MOL0     C85592  11.332   8.462   3.525  0.4864 -0.2402 -0.9040
  635MOL0     O85593  11.219   8.486   3.594  0.3404 -0.2196 -0.0275
  635MOL0     C85594  11.109   8.406   3.582  0.6299 -0.5472 -0.1615
  635MOL0     C85595  11.045   8.388   3.707 -0.7587 -1.1172  0.0697
  635MOL0     C85596  10.934   8.302   3.716  0.2846  0.0695  0.3055
  635MOL0     C85597  10.887   8.236   3.606 -0.5672 -0.0911 -0.1045
  635MOL0     O85598  10.783   8.154   3.632  0.1479  0.3478 -0.9100
  635MOL0     C85599  10.681   8.154   3.538 -0.0899  0.4640 -1.0071
  635MOL0     C85600  10.626   8.299   3.511  0.4730  0.0932 -0.2818
  635MOL0     C85601  10.515   8.298   3.408  0.0336 -0.0523 -0.3638
  635MOL0     C85602  10.422   8.420   3.426  0.7874 -0.5093 -0.0084
  635MOL0     C85603  10.329   8.443   3.306  0.6752 -0.6785  0.6269
  635MOL0     C85604  10.220   8.558   3.337 -0.3071  0.1016  0.4017
  635MOL0     C85605  10.096   8.491   3.409 -0.4754  0.3767  0.5576
  635MOL0     C85606   9.970   8.578   3.431  0.3106 -0.5341  0.5941
  635MOL0     N85607   9.934   8.649   3.305  0.4725 -0.6914  0.2358
  635MOL0     C85608   9.975   8.781   3.275  0.4215 -0.5141 -0.1495
  635MOL0     C85609   9.925   8.797   3.146 -0.4083 -0.0152  0.6891
  635MOL0     C85610   9.930   8.921   3.068  0.0642 -0.4193 -0.1437
  635MOL0     C85611   9.778   8.966   3.045 -0.8112 -0.1584  0.2149
  635MOL0     C85612   9.761   9.094   2.974 -0.0289  0.8814  0.8030
  635MOL0     C85613   9.618   9.133   2.931 -0.0043  0.0033  0.6534
  635MOL0     O85614   9.524   9.104   3.036  0.3324 -0.4562 -0.1961
  635MOL0     C85615   9.394   9.155   3.023 -0.2238 -0.6619 -0.3830
  635MOL0     C85616   9.300   9.154   3.129 -0.4666 -0.2860  0.3768
  635MOL0     C85617   9.168   9.198   3.117  0.5596 -0.3937 -0.9570
  635MOL0     C85618   9.080   9.165   3.233 -0.2507 -0.5012 -0.1075
  635MOL0     C85619   9.127   9.256   3.002 -0.2810  0.1820 -0.0832
  635MOL0     C85620   8.995   9.323   2.985  0.3377 -0.0444 -0.3912
  635MOL0     O85621   8.894   9.279   3.059  0.3671 -0.7673 -0.3965
  635MOL0     C85622   8.769   9.305   3.019 -0.1722  0.6528 -0.7103
  635MOL0     C85623   8.706   9.432   3.022  0.1486 -0.0482  0.5657
  635MOL0     C85624   8.573   9.453   2.976 -0.0806  0.3125 -0.8606
  635MOL0     C85625   8.495   9.342   2.932  0.6722 -0.4605  0.9254
  635MOL0     O85626   8.358   9.350   2.897 -0.6083  0.0425 -0.1344
  635MOL0     C85627   8.285   9.455   2.945 -0.3565 -0.2162 -0.2552
  635MOL0     C85628   8.253   9.409   3.084 -0.3542 -1.1717  0.1339
  635MOL0     C85629   8.146   9.512   3.144  0.3922  0.2689  0.2647
  635MOL0     C85630   8.117   9.465   3.291  0.7169 -0.1823 -0.5198
  635MOL0     C85631   8.228   9.488   3.396  0.0530  0.7497 -1.1030
  635MOL0     C85632   8.271   9.638   3.422  0.0407  0.4950  0.1141
  635MOL0     C85633   8.390   9.648   3.502 -0.0147  0.0816 -0.4496
  635MOL0     C85634   8.453   9.790   3.494  0.1211  0.9208  0.7700
  635MOL0    Cl85635   8.361   9.900   3.587 -0.2630  0.0202  0.2693
  635MOL0     C85636   8.557   9.213   2.938  0.4806 -0.4088  0.4402
  635MOL0     C85637   8.689   9.200   2.972  0.2456  0.5786 -0.6335
  635MOL0     O85638   8.986   9.410   2.902 -0.6948 -0.6925 -1.1608
  635MOL0     C85639   9.213   9.251   2.891  0.1340  0.3317 -0.7177
  635MOL0     C85640   9.344   9.202   2.900  1.0024 -0.5204  0.3891
  635MOL0     N85641   9.879   8.674   3.100  0.7519  0.1473  0.2477
  635MOL0     N85642   9.880   8.586   3.196 -0.2518 -0.1769  0.2663
  635MOL0     C85643  10.941   8.263   3.479 -0.6849 -0.0877 -1.1435
  635MOL0     C85644  11.051   8.347   3.470  0.2433 -0.8101 -0.6854
  635MOL0     C85645  11.445   8.563   3.552  0.0219  1.2710  0.1001
  635MOL0     C85646  11.570   8.559   3.490 -0.3459  0.0001  0.5257
  635MOL0     C85647  11.666   8.660   3.509  0.8705 -0.3989  0.1075
  635MOL0     C85648  11.636   8.768   3.589 -0.1394 -0.5880 -0.2688
  635MOL0     O85649  11.712   8.872   3.617 -1.5900 -0.4487 -0.3262
  635MOL0     C85650  11.835   8.887   3.559 -0.2569 -0.2601  0.2625
  635MOL0     C85651  11.885   9.014   3.626  0.0584 -0.3353 -0.2399
  635MOL0     C85652  12.026   9.029   3.608 -0.2122  0.4448  0.2610
  635MOL0     C85653  12.045   9.090   3.465  0.1056  0.3951 -0.0319
  635MOL0     C85654  12.069   8.994   3.362 -0.7565 -0.0204  0.0587
  635MOL0     C85655  12.082   8.920   3.266  0.5471 -0.2167 -0.1208
  635MOL0     C85656  11.528   8.770   3.665  0.4562  0.0036  0.1124
  635MOL0     C85657  11.426   8.672   3.636 -0.3691 -0.5810 -1.1851
  635MOL0     H85658  11.082   8.437   3.796  2.3163  0.0640 -1.7149
  635MOL0     H85659  10.888   8.287   3.813 -2.4146  0.8022 -0.7729
  635MOL0     H85660  10.709   8.119   3.439  2.4405  0.6027 -0.3998
  635MOL0     H85661  10.599   8.095   3.580  1.6925 -0.7902  0.8756
  635MOL0     H85662  10.587   8.323   3.611  1.7328 -2.5535  0.9712
  635MOL0     H85663  10.708   8.368   3.491  0.5513  0.1724  0.2918
  635MOL0     H85664  10.553   8.289   3.306 -0.6870  2.7016 -0.9316
  635MOL0     H85665  10.452   8.209   3.418 -2.7780  1.9150  0.6479
  635MOL0     H85666  10.355   8.395   3.508 -1.8261 -2.2405 -2.4648
  635MOL0     H85667  10.479   8.512   3.439  0.4071 -0.3843  0.7850
  635MOL0     H85668  10.387   8.451   3.214  0.3137 -1.1556  0.3540
  635MOL0     H85669  10.273   8.351   3.290 -1.1330  0.4670 -0.0193
  635MOL0     H85670  10.256   8.635   3.406  1.4384  1.4450 -1.8708
  635MOL0     H85671  10.187   8.613   3.249 -1.0713 -0.7077  0.1716
  635MOL0     H85672  10.063   8.394   3.369  0.1944 -1.7598  4.6401
  635MOL0     H85673  10.122   8.449   3.507 -5.5470 -4.1191  0.4690
  635MOL0     H85674   9.990   8.659   3.503 -0.6446  1.7178 -1.5244
  635MOL0     H85675   9.894   8.510   3.472  0.7532 -0.2241  2.0070
  635MOL0     H85676  10.028   8.853   3.336  3.4195 -1.4834 -1.4405
  635MOL0     H85677   9.973   9.004   3.126 -1.0481  0.3794 -0.4235
  635MOL0     H85678   9.981   8.901   2.973  2.0035 -1.3996  1.0342
  635MOL0     H85679   9.738   8.973   3.147  3.5935  1.4096  2.0624
  635MOL0     H85680   9.723   8.888   2.992  1.5054 -1.6635 -0.1031
  635MOL0     H85681   9.830   9.088   2.889  0.4278  0.8180  1.1689
  635MOL0     H85682   9.801   9.173   3.038 -1.0539  1.5131  0.6779
  635MOL0     H85683   9.610   9.059   2.851 -0.0979  0.3834  0.3072
  635MOL0     H85684   9.612   9.234   2.890 -1.3481 -0.4744 -0.4033
  635MOL0     H85685   9.350   9.119   3.219  3.0508 -0.2986 -1.3816
  635MOL0     H85686   8.999   9.094   3.210 -1.3680  0.5888  0.3433
  635MOL0     H85687   9.139   9.129   3.317  1.7998  1.6567 -0.5061
  635MOL0     H85688   9.028   9.252   3.274  0.3724 -0.6261  0.9642
  635MOL0     H85689   8.762   9.518   3.057  2.1020 -0.3461 -1.6016
  635MOL0     H85690   8.527   9.551   2.983  0.6372  0.5296  2.5992
  635MOL0     H85691   8.318   9.559   2.946 -2.0541  0.3545  1.0898
  635MOL0     H85692   8.190   9.449   2.891 -1.2054  2.8893  0.7136
  635MOL0     H85693   8.217   9.305   3.083 -3.1692 -0.3539 -3.4430
  635MOL0     H85694   8.353   9.405   3.129  0.5857 -0.9413 -1.8358
  635MOL0     H85695   8.064   9.515   3.072  1.0620  4.2131 -0.5546
  635MOL0     H85696   8.179   9.616   3.141 -0.7099  0.6419  0.5248
  635MOL0     H85697   8.025   9.504   3.336 -1.3392 -4.2971 -0.7242
  635MOL0     H85698   8.098   9.357   3.287  0.4247 -0.2540  1.6114
  635MOL0     H85699   8.315   9.433   3.357  0.4000 -1.3759  2.2945
  635MOL0     H85700   8.193   9.431   3.482  0.5707 -4.2402 -3.8314
  635MOL0     H85701   8.291   9.682   3.324 -0.5425 -1.5036 -0.9660
  635MOL0     H85702   8.185   9.680   3.476 -0.7495 -1.3882  0.3849
  635MOL0     H85703   8.460   9.570   3.471 -1.4739 -1.7316  0.6122
  635MOL0     H85704   8.372   9.616   3.605 -0.5667  0.9468 -0.2614
  635MOL0     H85705   8.454   9.814   3.387  1.0233 -3.6073 -0.4270
  635MOL0     H85706   8.556   9.769   3.522  0.3376 -1.1340 -1.2590
  635MOL0     H85707   8.497   9.124   2.922 -1.3026  0.7479  0.4388
  635MOL0     H85708   8.724   9.099   2.956 -3.4546 -0.9849 -0.0195
  635MOL0     H85709   9.189   9.301   2.798 -1.6780  2.9535  0.9981
  635MOL0     H85710   9.405   9.196   2.810  0.4244 -0.1803 -0.0339
  635MOL0     H85711  10.897   8.206   3.397 -3.5811 -4.7212  3.0319
  635MOL0     H85712  11.098   8.375   3.376  0.7175  7.3274  1.2182
  635MOL0     H85713  11.579   8.476   3.420 -2.7963 -1.6437  1.9979
  635MOL0     H85714  11.765   8.646   3.465  1.0627  3.6548 -1.1916
  635MOL0     H85715  11.907   8.809   3.584  0.9562  0.7531  0.0661
  635MOL0     H85716  11.825   8.898   3.450 -1.0528 -2.9790 -0.0132
  635MOL0     H85717  11.874   8.994   3.733 -2.1191 -0.3937 -0.4358
  635MOL0     H85718  11.824   9.101   3.600 -1.2690 -0.3997  2.2794
  635MOL0     H85719  12.079   8.933   3.609  3.0401  2.0634 -0.7273
  635MOL0     H85720  12.067   9.094   3.686  0.6936  0.2599 -0.0418
  635MOL0     H85721  12.146   9.132   3.477  1.9624 -3.7433  0.9153
  635MOL0     H85722  11.972   9.167   3.439 -1.7146  0.2583  3.9743
  635MOL0     H85723  12.094   8.846   3.190 -0.2928 -1.3418  0.7891
  635MOL0     H85724  11.515   8.853   3.734  0.7055  1.0213 -1.0191
  635MOL0     H85725  11.328   8.674   3.683 -1.4857 -1.7714 -3.2747
  636MOL0     O85726   5.677   2.190   4.604 -0.9743  0.0375  0.5986
  636MOL0     C85727   5.598   2.284   4.603 -0.2590  0.3287  0.4287
  636MOL0     O85728   5.568   2.370   4.498 -0.0913  0.3169 -0.1332
  636MOL0     C85729   5.642   2.399   4.382 -0.6364  0.2171  0.0782
  636MOL0     C85730   5.747   2.324   4.323  0.0363 -1.2099  0.1670
  636MOL0     C85731   5.810   2.363   4.199  0.0517  0.3531 -0.1646
  636MOL0     C85732   5.764   2.478   4.128 -0.5746 -0.2824 -0.2215
  636MOL0     O85733   5.831   2.508   4.019 -0.0322  0.2387  0.0405
  636MOL0     C85734   5.774   2.579   3.915 -0.7894 -0.5434 -0.0489
  636MOL0     C85735   5.679   2.498   3.822 -0.5692 -0.8895 -0.3136
  636MOL0     C85736   5.742   2.379   3.755  0.6694 -0.3529 -0.3280
  636MOL0     C85737   5.827   2.420   3.638 -0.8783  0.2760 -0.1154
  636MOL0     C85738   5.865   2.295   3.549 -0.4078  0.1075  0.1638
  636MOL0     C85739   5.948   2.191   3.618  0.2045 -0.6023  0.5040
  636MOL0     C85740   5.994   2.082   3.520  0.6812 -0.4923  0.8384
  636MOL0     C85741   6.112   2.001   3.582  0.1268  0.1786  0.2128
  636MOL0     N85742   6.110   1.870   3.524 -0.4978  0.9833 -0.5215
  636MOL0     C85743   6.172   1.830   3.408 -0.0299 -0.1665 -0.2106
  636MOL0     C85744   6.131   1.706   3.385  0.2778  0.4019 -1.5240
  636MOL0     C85745   6.172   1.616   3.271 -0.1496  0.0064  1.0538
  636MOL0     C85746   6.324   1.636   3.239 -0.8826 -0.6128 -0.1082
  636MOL0     C85747   6.366   1.559   3.120  0.1273 -1.0027  0.9033
  636MOL0     C85748   6.521   1.569   3.081 -0.2909  0.2199  0.5877
  636MOL0     O85749   6.554   1.504   2.955 -0.0795 -0.6118 -0.6751
  636MOL0     C85750   6.509   1.386   2.923 -0.1294 -0.1351 -0.2572
  636MOL0     C85751   6.471   1.360   2.791  0.7030 -0.6158 -0.0591
  636MOL0     C85752   6.416   1.239   2.751 -0.7150  0.2847  0.2614
  636MOL0     C85753   6.372   1.223   2.615 -0.2032  0.0409  0.4662
  636MOL0     C85754   6.388   1.137   2.848  0.4465 -1.0110  0.3907
  636MOL0     C85755   6.341   0.998   2.820  0.2297  0.1695 -0.8781
  636MOL0     O85756   6.331   0.953   2.690  0.2575  0.0695 -0.1194
  636MOL0     C85757   6.245   0.847   2.669  1.0252  0.5749 -0.3543
  636MOL0     C85758   6.268   0.714   2.715  0.2825  0.0069 -0.1491
  636MOL0     C85759   6.169   0.613   2.671  0.0298  0.3007  0.3075
  636MOL0     C85760   6.056   0.639   2.590 -0.1764  0.2238  1.1985
  636MOL0     O85761   5.964   0.549   2.527  0.4876 -0.3871 -0.1580
  636MOL0     C85762   5.932   0.430   2.604 -0.2495 -0.5577 -0.0791
  636MOL0     C85763   5.801   0.362   2.570 -0.7076 -0.2181 -0.3529
  636MOL0     C85764   5.803   0.265   2.453 -0.6750  0.2908  0.3027
  636MOL0     C85765   5.667   0.194   2.420 -0.4642  0.2675  0.4189
  636MOL0     C85766   5.660   0.063   2.500 -0.0388  0.7619  0.1692
  636MOL0     C85767   5.507   0.034   2.530  1.0423 -0.3048  0.4179
  636MOL0     C85768   5.483  -0.114   2.541  0.3053 -0.7205 -0.1188
  636MOL0     C85769   5.341  -0.142   2.591 -0.4602  0.0560  0.7261
  636MOL0    Cl85770   5.208  -0.091   2.467  0.3554 -0.1830  0.0099
  636MOL0     C85771   6.034   0.772   2.562  0.0627  0.0874  0.6357
  636MOL0     C85772   6.122   0.870   2.599 -1.0679 -0.8291  0.2029
  636MOL0     O85773   6.309   0.927   2.922  0.3197 -0.8071  0.1180
  636MOL0     C85774   6.433   1.159   2.979 -0.8410 -0.4402 -0.7027
  636MOL0     C85775   6.492   1.279   3.009 -0.9927  0.2076 -0.0020
  636MOL0     N85776   6.063   1.657   3.501  1.3195  0.5188 -0.8933
  636MOL0     N85777   6.053   1.761   3.585 -0.6703 -1.3183 -1.3813
  636MOL0     C85778   5.665   2.554   4.187 -0.4708 -0.4359  0.0241
  636MOL0     C85779   5.602   2.518   4.313  0.4185 -0.6068 -1.4309
  636MOL0     C85780   5.512   2.293   4.722 -1.0305  0.4414  0.1280
  636MOL0     C85781   5.535   2.212   4.836  0.0154  0.5000  0.7433
  636MOL0     C85782   5.446   2.215   4.946 -0.7815 -0.6042 -0.6829
  636MOL0     C85783   5.339   2.306   4.952  0.5817  1.7921  0.3705
  636MOL0     O85784   5.249   2.321   5.054 -0.4961 -0.7733  0.9192
  636MOL0     C85785   5.290   2.291   5.190  0.8462  0.1613 -0.2148
  636MOL0     C85786   5.174   2.346   5.285 -0.8144  0.2193 -0.1453
  636MOL0     C85787   5.041   2.303   5.239  0.6925 -0.0172  0.4885
  636MOL0     C85788   4.924   2.319   5.342 -1.5063  0.6352  1.1197
  636MOL0     C85789   4.931   2.459   5.400 -0.2819  1.0275 -0.3744
  636MOL0     C85790   4.917   2.571   5.446  0.3019  0.3437  0.5166
  636MOL0     C85791   5.326   2.387   4.840 -0.1988 -0.7369  0.6406
  636MOL0     C85792   5.408   2.380   4.719  0.5136  0.6025 -1.0391
  636MOL0     H85793   5.781   2.235   4.374  1.9316  0.0038  1.1150
  636MOL0     H85794   5.892   2.305   4.158  0.4734 -1.1072  2.4872
  636MOL0     H85795   5.713   2.663   3.949 -0.8008 -0.1838 -0.9270
  636MOL0     H85796   5.856   2.622   3.857 -0.0858 -0.4164  1.0077
  636MOL0     H85797   5.600   2.464   3.890  0.5946  1.2974  2.3379
  636MOL0     H85798   5.640   2.570   3.750  1.7652  2.1744  1.2107
  636MOL0     H85799   5.809   2.333   3.828  0.1947  1.0008  0.9938
  636MOL0     H85800   5.665   2.304   3.734  0.0417 -0.1625  1.2052
  636MOL0     H85801   5.782   2.493   3.570 -0.4823  2.5656  1.9356
  636MOL0     H85802   5.919   2.462   3.679 -1.2559  0.5262  0.4923
  636MOL0     H85803   5.778   2.239   3.514 -1.0670  1.1210  0.1482
  636MOL0     H85804   5.918   2.334   3.462  0.2304 -1.0605  0.0006
  636MOL0     H85805   6.041   2.237   3.653  2.0421 -2.3441 -1.7828
  636MOL0     H85806   5.892   2.146   3.701 -2.5222 -1.4060 -1.6182
  636MOL0     H85807   5.915   2.008   3.505  2.1886 -1.6496 -2.3111
  636MOL0     H85808   6.027   2.125   3.425  2.2515  0.9249  1.9604
  636MOL0     H85809   6.099   1.998   3.690 -0.9562  1.3225  0.1340
  636MOL0     H85810   6.207   2.055   3.568  1.7248 -1.9050  2.3210
  636MOL0     H85811   6.241   1.884   3.344  0.0543 -1.1012 -0.9170
  636MOL0     H85812   6.154   1.515   3.309  0.6407  0.6546  3.3866
  636MOL0     H85813   6.112   1.651   3.187 -0.0966 -1.2790  0.4575
  636MOL0     H85814   6.387   1.607   3.324 -1.8975  0.9212  1.2101
  636MOL0     H85815   6.338   1.741   3.214 -1.5256 -0.7212 -0.9389
  636MOL0     H85816   6.300   1.578   3.034  1.7235 -1.1497 -0.4078
  636MOL0     H85817   6.342   1.456   3.147  1.1838 -1.5196 -0.0043
  636MOL0     H85818   6.583   1.529   3.162  1.5603 -1.4605 -1.5515
  636MOL0     H85819   6.549   1.674   3.066 -0.9028  0.3386  0.2213
  636MOL0     H85820   6.484   1.447   2.727 -2.1957  0.6637  0.9117
  636MOL0     H85821   6.360   1.320   2.566 -0.0736 -0.3407 -0.3491
  636MOL0     H85822   6.461   1.188   2.561  1.5468  1.7070  2.1312
  636MOL0     H85823   6.284   1.161   2.597  0.0055 -1.4749  3.8923
  636MOL0     H85824   6.350   0.700   2.785 -1.2809 -1.6370  1.4425
  636MOL0     H85825   6.177   0.516   2.721 -2.3207 -0.5224 -0.7701
  636MOL0     H85826   6.019   0.365   2.585 -0.4892 -0.7537 -0.5412
  636MOL0     H85827   5.934   0.450   2.711 -1.6256 -1.3081  0.1106
  636MOL0     H85828   5.767   0.318   2.664  1.1946 -3.3721 -1.0072
  636MOL0     H85829   5.733   0.443   2.541 -1.5012 -1.5520 -2.4575
  636MOL0     H85830   5.878   0.185   2.463  1.0022  1.8196  0.3640
  636MOL0     H85831   5.833   0.313   2.360 -1.8882  2.3669  0.9246
  636MOL0     H85832   5.580   0.259   2.428 -0.9587 -0.6024  3.3059
  636MOL0     H85833   5.680   0.180   2.312  0.8163 -0.3158  0.6251
  636MOL0     H85834   5.714   0.062   2.596 -0.2358  3.0217  0.3613
  636MOL0     H85835   5.703  -0.018   2.441 -2.9330 -1.2588  0.6225
  636MOL0     H85836   5.473   0.091   2.617 -2.5147  1.0694 -1.6665
  636MOL0     H85837   5.446   0.080   2.451  0.4150  0.2026  1.1835
  636MOL0     H85838   5.548  -0.157   2.617 -0.2649  0.3175  1.0016
  636MOL0     H85839   5.496  -0.151   2.439  2.9419  1.2855 -0.6130
  636MOL0     H85840   5.332  -0.088   2.686  4.9003  4.3084 -0.6378
  636MOL0     H85841   5.333  -0.249   2.609 -0.8104 -0.1755 -0.6880
  636MOL0     H85842   5.941   0.784   2.507  0.4300  0.1677  0.0190
  636MOL0     H85843   6.104   0.975   2.580  0.5796 -0.9192 -2.4147
  636MOL0     H85844   6.423   1.090   3.062  0.0031 -0.2382 -0.4275
  636MOL0     H85845   6.517   1.306   3.111  1.5595 -0.9599 -0.2482
  636MOL0     H85846   5.633   2.644   4.136 -0.3299 -0.5085 -0.1969
  636MOL0     H85847   5.509   2.565   4.341  0.5690 -0.2022 -1.6039
  636MOL0     H85848   5.625   2.153   4.848  0.4178  1.2145  1.2843
  636MOL0     H85849   5.484   2.152   5.026  1.6062  3.0132  1.2873
  636MOL0     H85850   5.309   2.185   5.203 -0.1031 -0.2737 -2.0632
  636MOL0     H85851   5.379   2.351   5.208 -0.0475  2.2367 -2.1502
  636MOL0     H85852   5.189   2.453   5.303 -0.9579  0.4297 -1.2413
  636MOL0     H85853   5.195   2.302   5.383  0.1784  0.5366 -0.1964
  636MOL0     H85854   5.047   2.199   5.206  2.1505  0.1083  0.2817
  636MOL0     H85855   5.026   2.369   5.153 -1.4820  2.6954  2.7608
  636MOL0     H85856   4.943   2.248   5.423 -1.0278 -0.9986 -0.3612
  636MOL0     H85857   4.823   2.296   5.306 -0.8942 -0.5546  0.0647
  636MOL0     H85858   4.901   2.667   5.489 -0.4139  0.4704 -0.0155
  636MOL0     H85859   5.243   2.457   4.830  1.1077  0.9681  1.1545
  636MOL0     H85860   5.383   2.430   4.626  1.5268  1.5548 -0.8193
  637MOL0     O85861   4.309   1.013   2.991 -0.2127  0.4360 -0.0716
  637MOL0     C85862   4.281   1.112   3.066  0.2669  0.9795 -0.4276
  637MOL0     O85863   4.351   1.221   3.082 -0.1013 -0.2919  0.7534
  637MOL0     C85864   4.480   1.204   3.032  0.0908  0.1039  0.0114
  637MOL0     C85865   4.503   1.207   2.895 -0.1731  0.5583 -0.8976
  637MOL0     C85866   4.629   1.193   2.836 -0.4906  0.0735 -0.1754
  637MOL0     C85867   4.740   1.204   2.922  0.5249 -0.2199  0.3991
  637MOL0     O85868   4.864   1.189   2.871  0.4335  0.1799 -0.0271
  637MOL0     C85869   4.894   1.289   2.760 -0.2107  0.8657 -0.5038
  637MOL0     C85870   4.964   1.420   2.808 -0.1675  0.2367  0.3521
  637MOL0     C85871   4.972   1.525   2.687  0.2714 -0.1412 -1.0599
  637MOL0     C85872   5.045   1.644   2.730 -0.3439  0.3252 -0.2812
  637MOL0     C85873   5.059   1.747   2.626  0.2508  0.7794  0.4571
  637MOL0     C85874   5.159   1.699   2.514 -0.2905 -0.6317 -0.0865
  637MOL0     C85875   5.215   1.818   2.443  0.0169  0.4117  0.7779
  637MOL0     C85876   5.323   1.784   2.335 -0.6379 -0.7521  0.0605
  637MOL0     N85877   5.328   1.898   2.248 -0.5369 -0.5843 -0.5997
  637MOL0     C85878   5.352   2.037   2.278 -0.3101 -0.2134 -0.2152
  637MOL0     C85879   5.344   2.096   2.152  0.4012 -0.5455 -0.1302
  637MOL0     C85880   5.357   2.240   2.111  0.4349  0.4590 -0.3246
  637MOL0     C85881   5.470   2.253   1.998  1.0535  0.9625 -0.5229
  637MOL0     C85882   5.501   2.402   1.982 -0.4014  0.1050  0.0095
  637MOL0     C85883   5.387   2.486   1.928  0.4062 -1.2596 -0.1469
  637MOL0     O85884   5.328   2.565   2.026 -0.3565  0.3890 -0.3572
  637MOL0     C85885   5.388   2.676   2.075 -0.6398 -0.1708  0.2154
  637MOL0     C85886   5.511   2.721   2.023  0.0023 -1.2667 -0.8603
  637MOL0     C85887   5.578   2.830   2.076 -0.2583  0.1134 -0.5072
  637MOL0     C85888   5.705   2.864   2.013 -0.3404 -0.1602  1.1693
  637MOL0     C85889   5.511   2.912   2.181 -0.6932  0.1945  0.6066
  637MOL0     C85890   5.576   3.039   2.241 -0.3803  0.3683  0.4484
  637MOL0     O85891   5.486   3.107   2.306  0.3530  0.9917 -0.7511
  637MOL0     C85892   5.534   3.201   2.390  0.3618  0.6503 -0.3507
  637MOL0     C85893   5.592   3.174   2.513 -0.1955 -0.2875  1.0442
  637MOL0     C85894   5.644   3.272   2.597 -0.9328 -0.7056  0.2917
  637MOL0     C85895   5.641   3.404   2.561 -0.0190  1.0082  0.6089
  637MOL0     O85896   5.697   3.507   2.637  0.2977  0.4170  0.2884
  637MOL0     C85897   5.829   3.532   2.608 -0.2634  0.3292  0.6787
  637MOL0     C85898   5.864   3.679   2.607  0.7028 -0.3504 -0.6321
  637MOL0     C85899   5.802   3.747   2.483  0.8145 -0.6747  0.0852
  637MOL0     C85900   5.871   3.717   2.353  0.1192 -0.9156 -0.1849
  637MOL0     C85901   5.845   3.818   2.242 -0.5907 -0.8990  0.8601
  637MOL0     C85902   5.711   3.843   2.164  0.2824  0.5571 -0.4331
  637MOL0     C85903   5.626   3.717   2.152  0.1382 -0.3491 -1.0681
  637MOL0     C85904   5.496   3.755   2.074  0.2297  0.2224  0.0901
  637MOL0    Cl85905   5.378   3.610   2.102 -0.4113  0.4081 -0.1899
  637MOL0     C85906   5.572   3.433   2.441  0.5934  0.4144 -0.1760
  637MOL0     C85907   5.522   3.333   2.351  0.7020 -0.9195  0.6785
  637MOL0     O85908   5.695   3.061   2.245 -0.6861 -0.5019  0.2119
  637MOL0     C85909   5.389   2.866   2.228 -0.5942 -1.2410 -0.9015
  637MOL0     C85910   5.330   2.755   2.169 -0.3666  0.6468 -0.0159
  637MOL0     N85911   5.339   1.997   2.055 -0.8185 -0.4242  0.1366
  637MOL0     N85912   5.319   1.886   2.114  0.3064 -0.1370  0.0896
  637MOL0     C85913   4.729   1.202   3.058  0.2938  0.1745 -0.2179
  637MOL0     C85914   4.599   1.205   3.111 -0.0747 -0.5325 -0.0113
  637MOL0     C85915   4.153   1.111   3.134  0.5602  0.2216  0.1866
  637MOL0     C85916   4.110   1.214   3.218 -0.4803  0.0622  0.3304
  637MOL0     C85917   3.991   1.216   3.297  0.1616  0.3075  0.0931
  637MOL0     C85918   3.908   1.103   3.275 -1.1293  0.3496  0.3705
  637MOL0     O85919   3.803   1.087   3.357 -0.6394  0.2179  0.0704
  637MOL0     C85920   3.694   1.178   3.345  0.3117 -0.3656  0.3786
  637MOL0     C85921   3.604   1.171   3.220 -0.1546  0.3679 -0.3066
  637MOL0     C85922   3.554   1.026   3.218  0.1119 -0.1520 -1.0197
  637MOL0     C85923   3.461   0.994   3.102 -0.3420  0.6313 -0.5405
  637MOL0     C85924   3.349   1.085   3.087  0.0385  0.4577  0.4302
  637MOL0     C85925   3.249   1.153   3.065  0.6402  0.4906  0.6716
  637MOL0     C85926   3.942   1.002   3.180 -0.2242  0.0048 -1.1755
  637MOL0     C85927   4.062   1.011   3.113 -0.1210  0.5120 -0.4799
  637MOL0     H85928   4.417   1.208   2.828 -2.0890  1.8270  1.4129
  637MOL0     H85929   4.636   1.183   2.729  4.8525  0.9698 -0.1917
  637MOL0     H85930   4.962   1.242   2.689  0.8107 -1.0527  1.6045
  637MOL0     H85931   4.803   1.315   2.705 -0.5171 -2.2008 -1.6766
  637MOL0     H85932   4.906   1.471   2.886  0.8076 -0.6565  1.7141
  637MOL0     H85933   5.064   1.408   2.852 -0.5872  3.8053  2.7734
  637MOL0     H85934   5.015   1.469   2.604  2.5857 -5.2680  2.9710
  637MOL0     H85935   4.870   1.557   2.663  0.4342  1.3982  0.1618
  637MOL0     H85936   4.998   1.679   2.822  1.6836 -2.7665  2.1476
  637MOL0     H85937   5.142   1.613   2.770 -0.5342  1.8292  1.4785
  637MOL0     H85938   4.962   1.778   2.585 -0.0336 -0.4019  0.1960
  637MOL0     H85939   5.091   1.837   2.680  3.6443  1.0495 -1.7420
  637MOL0     H85940   5.239   1.632   2.547  2.5464  1.4461 -2.3010
  637MOL0     H85941   5.093   1.649   2.442 -1.4669 -0.7999  1.0749
  637MOL0     H85942   5.133   1.882   2.408 -0.9946 -1.6006 -0.6813
  637MOL0     H85943   5.269   1.882   2.514  1.0790  3.0825 -2.1868
  637MOL0     H85944   5.304   1.691   2.281  0.6633  0.1995 -2.1387
  637MOL0     H85945   5.420   1.770   2.384  0.6806 -1.4773 -2.5991
  637MOL0     H85946   5.390   2.080   2.370 -1.4377 -0.8029  0.5451
  637MOL0     H85947   5.261   2.274   2.071  0.0475 -1.5616 -1.2395
  637MOL0     H85948   5.380   2.301   2.199 -4.2822  3.4827 -0.8725
  637MOL0     H85949   5.434   2.212   1.904 -0.4710  0.4371  0.2663
  637MOL0     H85950   5.558   2.202   2.038 -0.0029  1.1163  2.2553
  637MOL0     H85951   5.584   2.421   1.913  0.6244 -0.8364  0.9447
  637MOL0     H85952   5.540   2.429   2.081 -0.0189 -3.6966  1.0587
  637MOL0     H85953   5.310   2.419   1.886  2.2874 -2.2018 -2.2971
  637MOL0     H85954   5.406   2.553   1.844  0.3600 -1.9632 -0.7415
  637MOL0     H85955   5.562   2.667   1.944  3.7018 -0.2469  0.6422
  637MOL0     H85956   5.697   2.962   1.966 -0.2705 -1.8425 -2.7339
  637MOL0     H85957   5.784   2.865   2.088  2.4394  3.5164 -1.4569
  637MOL0     H85958   5.735   2.798   1.931  0.6084  2.4434 -0.7206
  637MOL0     H85959   5.607   3.068   2.533  2.3687 -0.6995 -2.1748
  637MOL0     H85960   5.696   3.231   2.683  1.3626  0.4976 -0.4200
  637MOL0     H85961   5.891   3.484   2.684 -0.0256  0.6054  0.6565
  637MOL0     H85962   5.857   3.481   2.515 -0.2869  0.1107  0.7922
  637MOL0     H85963   5.821   3.720   2.699 -0.7890 -3.4984  0.2010
  637MOL0     H85964   5.970   3.706   2.612  0.4397  0.5258  0.6618
  637MOL0     H85965   5.814   3.854   2.500 -1.8256  0.0293 -1.9413
  637MOL0     H85966   5.694   3.734   2.474  0.4862  0.4383  1.9167
  637MOL0     H85967   5.977   3.721   2.379 -0.0529 -3.1719  1.1480
  637MOL0     H85968   5.854   3.617   2.312 -1.8074 -0.8633  0.4041
  637MOL0     H85969   5.917   3.790   2.165 -0.8045 -0.4265  0.4878
  637MOL0     H85970   5.874   3.921   2.263  1.2638 -0.4094 -3.1708
  637MOL0     H85971   5.658   3.919   2.222  1.6189  3.5565 -2.9046
  637MOL0     H85972   5.741   3.874   2.064  1.1477 -3.3257 -1.5540
  637MOL0     H85973   5.598   3.683   2.253  1.0114 -0.5117 -0.8690
  637MOL0     H85974   5.667   3.632   2.097 -0.4380 -1.8494  0.7023
  637MOL0     H85975   5.510   3.767   1.966 -3.8482  1.0447 -0.5146
  637MOL0     H85976   5.431   3.835   2.112 -2.7213 -2.0132  0.1731
  637MOL0     H85977   5.566   3.540   2.420  2.6626  0.8650  1.1073
  637MOL0     H85978   5.470   3.364   2.261 -1.1147 -0.7422  1.7321
  637MOL0     H85979   5.328   2.919   2.299 -0.3735  0.4001 -1.8719
  637MOL0     H85980   5.232   2.724   2.203 -0.5259  0.4640 -0.6370
  637MOL0     H85981   4.820   1.208   3.118  1.6856  1.4115 -2.3410
  637MOL0     H85982   4.614   1.210   3.218  2.2459 -0.4895 -0.2887
  637MOL0     H85983   4.171   1.299   3.247 -4.9384  3.8933 -0.4695
  637MOL0     H85984   3.975   1.288   3.376  2.5592 -1.1320  2.0601
  637MOL0     H85985   3.630   1.170   3.433 -0.0959 -0.3948  0.0853
  637MOL0     H85986   3.727   1.282   3.342  1.4830 -0.7431 -1.1623
  637MOL0     H85987   3.657   1.196   3.128  1.8948 -1.1761  0.3810
  637MOL0     H85988   3.516   1.232   3.240 -0.5847 -0.1458 -0.5833
  637MOL0     H85989   3.493   1.018   3.308  0.6822 -5.3125 -0.8149
  637MOL0     H85990   3.631   0.949   3.226 -1.4804 -1.7750 -0.5449
  637MOL0     H85991   3.421   0.896   3.129  0.6764  0.9643  2.5878
  637MOL0     H85992   3.518   0.979   3.010 -0.6578  0.6959 -0.7501
  637MOL0     H85993   3.175   1.225   3.037  0.2607 -0.6171 -1.3607
  637MOL0     H85994   3.876   0.916   3.177 -0.4592  0.2065 -2.2393
  637MOL0     H85995   4.088   0.918   3.062 -1.5496 -0.6650  0.8296
  638MOL0     O85996   3.901   5.923  11.006  0.3942 -1.1461 -0.3340
  638MOL0     C85997   3.778   5.920  11.011 -0.1945 -0.5160  0.3382
  638MOL0     O85998   3.705   5.827  11.068  0.1583  0.0688  0.0742
  638MOL0     C85999   3.763   5.729  11.142  0.2179  0.0527 -0.2461
  638MOL0     C86000   3.702   5.704  11.267  0.6531  0.3313  0.1007
  638MOL0     C86001   3.747   5.596  11.341 -0.0676  0.8482 -1.2416
  638MOL0     C86002   3.842   5.502  11.292 -0.3064 -1.0105 -0.1578
  638MOL0     O86003   3.845   5.380  11.356  0.8282  0.2415  0.0445
  638MOL0     C86004   3.955   5.299  11.340 -0.5742  0.6551 -0.6295
  638MOL0     C86005   4.059   5.350  11.443 -0.5825  0.0863  0.6899
  638MOL0     C86006   4.148   5.241  11.505  0.6649  0.3858 -0.2191
  638MOL0     C86007   4.279   5.209  11.429 -0.5637 -0.4066  0.7342
  638MOL0     C86008   4.363   5.091  11.495 -0.0919 -0.3714 -0.3742
  638MOL0     C86009   4.441   5.144  11.612 -0.5411 -0.4487  0.2969
  638MOL0     C86010   4.560   5.237  11.550  0.0525 -0.5902 -1.1042
  638MOL0     C86011   4.655   5.299  11.658  0.5068 -0.0273 -0.4420
  638MOL0     N86012   4.577   5.409  11.738 -0.5087  0.1874  0.5690
  638MOL0     C86013   4.517   5.520  11.690 -0.2765 -0.4353  0.6605
  638MOL0     C86014   4.433   5.560  11.785  0.1649  0.3158  0.3613
  638MOL0     C86015   4.331   5.662  11.769 -0.3423 -0.7485 -0.0017
  638MOL0     C86016   4.206   5.624  11.841  0.4539  0.9389  0.5046
  638MOL0     C86017   4.135   5.496  11.772  0.3754 -1.1184  0.3644
  638MOL0     C86018   3.978   5.497  11.814 -0.9680 -0.3644  0.4136
  638MOL0     O86019   3.918   5.369  11.784 -0.1561  0.1324 -0.0184
  638MOL0     C86020   3.780   5.380  11.769 -0.4985  0.7084 -0.8967
  638MOL0     C86021   3.720   5.279  11.682 -0.6885  0.0772 -0.3388
  638MOL0     C86022   3.576   5.291  11.663 -0.3101  0.0337 -0.6494
  638MOL0     C86023   3.519   5.196  11.565 -0.7571  0.0522  0.7217
  638MOL0     C86024   3.499   5.379  11.733  0.2242  0.8607 -0.7476
  638MOL0     C86025   3.347   5.365  11.734  0.3053  0.0523 -0.7846
  638MOL0     O86026   3.282   5.478  11.764 -0.1660  0.4327 -1.0145
  638MOL0     C86027   3.146   5.475  11.741 -0.1113  0.0715 -0.2800
  638MOL0     C86028   3.086   5.525  11.624  0.3715 -0.7854 -0.5904
  638MOL0     C86029   2.944   5.536  11.606 -0.5601  0.2971 -0.1215
  638MOL0     C86030   2.869   5.500  11.710 -0.8037 -0.0835  0.3146
  638MOL0     O86031   2.741   5.499  11.686  0.0709 -0.2116  0.5577
  638MOL0     C86032   2.646   5.511  11.790 -0.0947 -1.1029  0.2294
  638MOL0     C86033   2.523   5.580  11.731  0.3554 -1.8004  0.0375
  638MOL0     C86034   2.470   5.696  11.808 -0.3763 -0.6121  1.0037
  638MOL0     C86035   2.350   5.756  11.734 -0.6829  1.0372 -0.7314
  638MOL0     C86036   2.307   5.881  11.811  0.0047  0.0088  0.2205
  638MOL0     C86037   2.172   5.930  11.756  0.0294 -0.4631  0.3179
  638MOL0     C86038   2.111   6.032  11.842  0.3610 -0.1126 -0.3043
  638MOL0     C86039   1.982   6.106  11.793  0.1640 -0.6155  0.1495
  638MOL0    Cl86040   1.858   5.991  11.753 -0.1476 -0.4475  0.5694
  638MOL0     C86041   2.930   5.455  11.829 -0.1718 -0.1345  0.1561
  638MOL0     C86042   3.058   5.437  11.842 -0.9291 -0.3663 -0.4926
  638MOL0     O86043   3.288   5.260  11.713 -0.6524  0.6742 -0.7389
  638MOL0     C86044   3.564   5.483  11.815  0.9779 -0.6971  0.3348
  638MOL0     C86045   3.702   5.477  11.832 -1.0055 -0.1536 -0.5179
  638MOL0     N86046   4.456   5.479  11.894  0.0809  0.3114 -0.7148
  638MOL0     N86047   4.554   5.402  11.869  1.0692  0.3678  0.0648
  638MOL0     C86048   3.903   5.537  11.166  0.9664 -0.3258  0.7377
  638MOL0     C86049   3.860   5.648  11.094 -0.4385 -0.0233 -0.9177
  638MOL0     C86050   3.701   6.044  10.968  0.2115  0.1484  0.1892
  638MOL0     C86051   3.561   6.052  10.975 -0.3348  0.2304 -0.8588
  638MOL0     C86052   3.496   6.169  10.928  0.2424 -0.4296 -0.1765
  638MOL0     C86053   3.559   6.285  10.890 -0.6652 -0.1717 -0.9521
  638MOL0     O86054   3.518   6.402  10.844 -0.7556  0.4235 -0.9353
  638MOL0     C86055   3.380   6.428  10.807 -0.3212 -0.4610 -0.1860
  638MOL0     C86056   3.334   6.563  10.863 -0.7740 -1.0682 -0.3814
  638MOL0     C86057   3.359   6.592  11.011  0.0487  0.0254  0.1207
  638MOL0     C86058   3.287   6.709  11.067  0.3521 -0.9404 -0.0723
  638MOL0     C86059   3.337   6.833  11.002 -0.0606 -0.8650  0.7352
  638MOL0     C86060   3.364   6.945  10.957  0.2452  0.8916 -0.4229
  638MOL0     C86061   3.697   6.273  10.884 -0.7457  0.2531  0.4917
  638MOL0     C86062   3.769   6.157  10.908  0.7312  1.0433  0.2318
  638MOL0     H86063   3.619   5.770  11.289 -0.4319 -1.3664  1.4040
  638MOL0     H86064   3.696   5.565  11.432  0.2724 -2.0191 -1.9305
  638MOL0     H86065   3.927   5.196  11.363 -5.8865  1.7316 -1.0591
  638MOL0     H86066   3.985   5.287  11.235 -1.1587  1.8169 -0.9411
  638MOL0     H86067   4.116   5.429  11.392 -1.1962  1.1326  1.5831
  638MOL0     H86068   4.003   5.396  11.525  0.0702  1.7689  0.2412
  638MOL0     H86069   4.173   5.266  11.609  2.0811 -2.8566  0.3645
  638MOL0     H86070   4.085   5.152  11.519  0.4303 -0.0011 -3.1682
  638MOL0     H86071   4.248   5.179  11.329  2.5362  1.3343 -0.9253
  638MOL0     H86072   4.334   5.302  11.409  0.8976 -1.2071  0.8265
  638MOL0     H86073   4.303   5.008  11.532  1.1528 -1.0835  0.1058
  638MOL0     H86074   4.431   5.040  11.425  0.5705 -1.1484  0.8074
  638MOL0     H86075   4.369   5.196  11.675 -2.3251  0.5148 -2.3639
  638MOL0     H86076   4.489   5.056  11.656 -1.3495 -1.5484 -0.9341
  638MOL0     H86077   4.629   5.175  11.493  0.9796 -1.6569  1.0399
  638MOL0     H86078   4.522   5.321  11.490 -0.6576 -1.1392 -1.4369
  638MOL0     H86079   4.748   5.335  11.614  0.5716 -0.5978 -0.7748
  638MOL0     H86080   4.683   5.225  11.733 -0.3715 -0.8132 -0.8573
  638MOL0     H86081   4.522   5.548  11.585  3.9940  0.7668  0.9995
  638MOL0     H86082   4.374   5.754  11.810  0.2374 -1.2764  0.6117
  638MOL0     H86083   4.309   5.679  11.664  1.7384 -0.1081 -0.3867
  638MOL0     H86084   4.137   5.708  11.851  1.9005  2.1345  0.7548
  638MOL0     H86085   4.221   5.572  11.936  0.8726 -1.8859 -1.0047
  638MOL0     H86086   4.187   5.402  11.796  1.4715 -0.6136  0.0333
  638MOL0     H86087   4.136   5.506  11.663  0.1431  1.9774  0.5815
  638MOL0     H86088   3.921   5.577  11.765 -1.7155 -0.4067  1.1796
  638MOL0     H86089   3.962   5.517  11.920 -1.1554  2.1494 -0.0114
  638MOL0     H86090   3.776   5.206  11.625  0.7041  2.2647 -1.9704
  638MOL0     H86091   3.593   5.170  11.487 -1.4045  0.6033 -0.0926
  638MOL0     H86092   3.497   5.100  11.612 -1.9290  0.5700  1.2626
  638MOL0     H86093   3.436   5.237  11.508 -1.0094 -2.1366 -0.6245
  638MOL0     H86094   3.143   5.555  11.537  3.2871  0.9906  1.7384
  638MOL0     H86095   2.886   5.561  11.518 -5.4936 -0.3895  2.5945
  638MOL0     H86096   2.600   5.426  11.842 -2.1587  0.0746  0.4131
  638MOL0     H86097   2.682   5.580  11.867  1.8326 -1.5287 -0.2454
  638MOL0     H86098   2.556   5.625  11.637  2.5736 -0.2798  1.4566
  638MOL0     H86099   2.440   5.511  11.714 -2.1150  0.2127  2.8897
  638MOL0     H86100   2.536   5.781  11.830 -2.5730  0.8446  2.4170
  638MOL0     H86101   2.446   5.658  11.907 -0.9319  0.3562  1.2575
  638MOL0     H86102   2.368   5.791  11.632  1.3811  0.5917 -0.5492
  638MOL0     H86103   2.276   5.675  11.735 -0.2159  0.6080 -0.7152
  638MOL0     H86104   2.378   5.963  11.800  0.1535 -0.1285  0.1361
  638MOL0     H86105   2.286   5.864  11.917  1.6592 -1.7403  0.3285
  638MOL0     H86106   2.194   5.969  11.656 -0.0524  0.9119  0.8158
  638MOL0     H86107   2.108   5.844  11.733 -0.2455  0.0801 -1.1064
  638MOL0     H86108   2.176   6.112  11.878 -0.5191 -0.4727  2.3409
  638MOL0     H86109   2.079   5.978  11.932  2.1861  1.7701  1.5781
  638MOL0     H86110   2.001   6.148  11.693  3.7734 -1.2690  0.4378
  638MOL0     H86111   1.957   6.188  11.861  0.9218  0.8126 -1.2211
  638MOL0     H86112   2.867   5.433  11.915  1.0450 -1.3279  0.7831
  638MOL0     H86113   3.092   5.399  11.938 -0.9158 -0.4381 -0.5257
  638MOL0     H86114   3.511   5.568  11.856 -0.5931 -0.5647 -1.7970
  638MOL0     H86115   3.753   5.550  11.894  2.1611  1.3231 -4.4088
  638MOL0     H86116   3.966   5.473  11.105  1.7561  1.3441 -0.2618
  638MOL0     H86117   3.896   5.664  10.993  1.3493 -3.2487 -0.9228
  638MOL0     H86118   3.506   5.963  11.005 -0.3054 -0.9015 -3.8300
  638MOL0     H86119   3.388   6.164  10.930 -0.0426  1.8631 -2.8536
  638MOL0     H86120   3.382   6.414  10.698  2.4892 -0.6725 -0.1669
  638MOL0     H86121   3.308   6.352  10.840 -0.0192 -0.8724 -0.4559
  638MOL0     H86122   3.231   6.589  10.836 -0.8892 -0.9219  0.1807
  638MOL0     H86123   3.397   6.631  10.805  1.0418 -2.0901  0.3163
  638MOL0     H86124   3.466   6.586  11.032  1.3182  4.6993 -3.2189
  638MOL0     H86125   3.307   6.513  11.066 -0.6053 -0.2364 -0.8503
  638MOL0     H86126   3.309   6.716  11.174  2.9359 -2.0337 -0.4458
  638MOL0     H86127   3.181   6.702  11.045  0.4125 -1.2470 -0.2616
  638MOL0     H86128   3.358   7.037  10.901 -2.0399 -0.9582 -3.5590
  638MOL0     H86129   3.758   6.359  10.861  0.0962 -0.9563 -2.1730
  638MOL0     H86130   3.876   6.153  10.892  0.4789  2.2542 -2.0725
  639MOL0     O86131   0.468   8.996   7.739  0.1834  0.3744 -0.8209
  639MOL0     C86132   0.513   8.899   7.678  0.1729  0.7715  0.8631
  639MOL0     O86133   0.590   8.909   7.572 -0.2096  0.7251  0.3112
  639MOL0     C86134   0.610   9.028   7.514  0.7023  0.8064 -0.0565
  639MOL0     C86135   0.740   9.058   7.474  0.1643  0.0577 -0.0843
  639MOL0     C86136   0.773   9.174   7.405  0.0943 -0.6056  0.2543
  639MOL0     C86137   0.666   9.262   7.373  0.3407  0.0134  0.9476
  639MOL0     O86138   0.695   9.371   7.305 -1.3158  0.2722  0.2703
  639MOL0     C86139   0.719   9.494   7.385 -0.5456  0.1713  0.0312
  639MOL0     C86140   0.859   9.523   7.444  0.7962  0.3656 -0.5304
  639MOL0     C86141   0.836   9.627   7.554 -0.4707 -0.3226 -0.4035
  639MOL0     C86142   0.968   9.690   7.588  0.5210  0.0440 -0.7403
  639MOL0     C86143   0.964   9.792   7.712 -0.6509  0.9336  0.5929
  639MOL0     C86144   1.106   9.811   7.766 -0.5253 -1.2864  0.8029
  639MOL0     C86145   1.122   9.942   7.853 -0.2553  0.4712  0.6716
  639MOL0     C86146   1.265   9.933   7.915 -0.6509  0.1814 -0.1596
  639MOL0     N86147   1.316  10.055   7.971 -0.8001  0.3598 -0.2279
  639MOL0     C86148   1.431  10.126   7.929  0.0431 -0.0422  0.7854
  639MOL0     C86149   1.462  10.201   8.030 -0.1437 -0.1838 -0.4518
  639MOL0     C86150   1.594  10.273   8.046 -0.4588  0.0482 -0.4580
  639MOL0     C86151   1.712  10.190   8.007 -0.5750  0.5475 -0.3439
  639MOL0     C86152   1.848  10.265   8.031 -1.1186  0.0072  0.2771
  639MOL0     C86153   1.870  10.302   8.171 -0.6790 -0.3979  0.2595
  639MOL0     O86154   1.888  10.178   8.244  0.1125  0.0822  0.0494
  639MOL0     C86155   1.840  10.191   8.368 -0.0149  0.3340  0.3017
  639MOL0     C86156   1.709  10.157   8.405  0.1316  0.4101  1.0496
  639MOL0     C86157   1.669  10.159   8.533 -0.1225 -0.6815 -0.1361
  639MOL0     C86158   1.525  10.120   8.566  0.0271  0.0685 -0.4179
  639MOL0     C86159   1.752  10.218   8.637  0.0827 -1.2134 -0.9533
  639MOL0     C86160   1.726  10.220   8.789 -0.0948 -0.2032  0.6725
  639MOL0     O86161   1.789  10.305   8.873 -0.3721  0.5701 -0.9158
  639MOL0     C86162   1.789  10.275   9.011 -0.5999 -1.0750 -0.0153
  639MOL0     C86163   1.866  10.162   9.048 -0.2886 -0.9021  0.2857
  639MOL0     C86164   1.871  10.128   9.180  0.2317  0.0359  0.2478
  639MOL0     C86165   1.802  10.194   9.278  0.2472  0.2121 -0.3559
  639MOL0     O86166   1.813  10.150   9.411  0.9017  0.4748 -0.9151
  639MOL0     C86167   1.761  10.229   9.517 -0.7211  0.5097  0.4614
  639MOL0     C86168   1.795  10.154   9.648  0.1738  0.8197  1.1400
  639MOL0     C86169   1.806  10.252   9.755  0.0286 -0.0592 -0.0905
  639MOL0     C86170   1.668  10.301   9.796 -0.6824  0.2233 -0.2562
  639MOL0     C86171   1.671  10.406   9.912 -0.0627  0.3782  0.1868
  639MOL0     C86172   1.552  10.421  10.007 -0.2174  0.1122 -0.8928
  639MOL0     C86173   1.510  10.571  10.020 -0.6981  0.5206  0.6312
  639MOL0     C86174   1.627  10.635  10.094 -0.0661  0.7793  0.8465
  639MOL0    Cl86175   1.599  10.624  10.261 -0.2363 -0.1217  0.1535
  639MOL0     C86176   1.729  10.311   9.239  0.1421 -0.2274  0.3074
  639MOL0     C86177   1.721  10.349   9.107  0.3623 -0.3008  0.7840
  639MOL0     O86178   1.645  10.135   8.817 -0.4614 -0.9629  0.4161
  639MOL0     C86179   1.882  10.260   8.593 -0.0836 -0.2492  0.8116
  639MOL0     C86180   1.927  10.229   8.463 -0.2603 -0.5219  0.5056
  639MOL0     N86181   1.366  10.177   8.136  0.4680  0.1200 -0.5314
  639MOL0     N86182   1.266  10.102   8.091  0.2976  0.0011  0.2556
  639MOL0     C86183   0.537   9.239   7.421 -0.4855  0.5044  0.5263
  639MOL0     C86184   0.508   9.124   7.495 -0.5366 -0.2521  0.3107
  639MOL0     C86185   0.490   8.763   7.723  0.8749 -0.8618 -0.8789
  639MOL0     C86186   0.476   8.661   7.637 -0.9547 -0.8647  0.0514
  639MOL0     C86187   0.461   8.525   7.678 -0.0484 -0.0689  0.4301
  639MOL0     C86188   0.443   8.483   7.811 -0.8887  0.0125 -0.0556
  639MOL0     O86189   0.402   8.364   7.860 -1.1045 -0.1049 -0.6868
  639MOL0     C86190   0.378   8.266   7.766  0.0633 -0.4918  0.6272
  639MOL0     C86191   0.320   8.140   7.832 -0.7208 -0.5260 -0.8042
  639MOL0     C86192   0.392   8.095   7.959 -1.1725 -0.9018 -0.1690
  639MOL0     C86193   0.529   8.031   7.931  0.4936  1.0087 -1.4613
  639MOL0     C86194   0.585   7.991   8.061 -0.7761  0.4392 -0.0122
  639MOL0     C86195   0.615   7.951   8.174 -0.2979  0.4481 -0.1555
  639MOL0     C86196   0.456   8.591   7.899  0.1031 -0.0095 -0.8060
  639MOL0     C86197   0.478   8.726   7.862  0.0392  0.4637  0.5547
  639MOL0     H86198   0.816   8.990   7.512 -1.6035 -2.1566 -0.3368
  639MOL0     H86199   0.868   9.212   7.369  1.3856 -3.4960  0.2912
  639MOL0     H86200   0.692   9.571   7.313  2.0494  0.5832 -0.5992
  639MOL0     H86201   0.645   9.498   7.465  0.0561  3.0422  0.5609
  639MOL0     H86202   0.899   9.436   7.497  2.3038  0.7944 -0.8923
  639MOL0     H86203   0.933   9.553   7.369  1.4256  4.1421  1.3570
  639MOL0     H86204   0.775   9.714   7.526 -2.7112 -0.8118  2.4725
  639MOL0     H86205   0.776   9.592   7.639 -0.1013  1.7260  0.7581
  639MOL0     H86206   1.041   9.616   7.622 -1.3815 -1.0923  1.1249
  639MOL0     H86207   1.017   9.740   7.504  3.7898 -1.0451  0.3826
  639MOL0     H86208   0.914   9.885   7.684 -0.7971  0.8829  0.6869
  639MOL0     H86209   0.903   9.751   7.793 -1.2453  1.6825  0.5302
  639MOL0     H86210   1.129   9.723   7.825 -0.7770 -2.1479 -0.3468
  639MOL0     H86211   1.179   9.817   7.684  2.0574  1.2651  3.0580
  639MOL0     H86212   1.123  10.028   7.785 -0.9522 -1.1322 -1.5035
  639MOL0     H86213   1.037   9.931   7.920 -0.0338 -2.4309  0.5986
  639MOL0     H86214   1.334   9.893   7.841 -0.6050 -2.6418  1.2719
  639MOL0     H86215   1.260   9.857   7.995  0.3808  1.6062  1.3184
  639MOL0     H86216   1.493  10.102   7.844  2.3289 -0.8758  2.5818
  639MOL0     H86217   1.590  10.363   7.984 -0.3724  0.7121  0.4791
  639MOL0     H86218   1.595  10.302   8.152 -0.9671  0.6316 -0.6040
  639MOL0     H86219   1.703  10.170   7.900 -1.6871 -0.3239 -0.1019
  639MOL0     H86220   1.709  10.096   8.063  3.1517  1.0661  1.0657
  639MOL0     H86221   1.842  10.364   7.983  2.4991  0.4173  0.3994
  639MOL0     H86222   1.935  10.215   7.988  0.9077  4.0363 -0.8322
  639MOL0     H86223   1.788  10.362   8.212  0.3259  1.8468 -0.8785
  639MOL0     H86224   1.959  10.366   8.170 -0.3499 -0.7006 -3.6720
  639MOL0     H86225   1.641  10.116   8.331  1.6487  2.6364 -1.7371
  639MOL0     H86226   1.522  10.025   8.619  1.5437  0.6457  0.7618
  639MOL0     H86227   1.476  10.200   8.622  4.0105  2.1623  0.4568
  639MOL0     H86228   1.469  10.128   8.472 -1.0040 -0.2178  0.1569
  639MOL0     H86229   1.933  10.103   8.987 -0.3429 -2.2250  1.4573
  639MOL0     H86230   1.931  10.051   9.227  0.3618 -0.9734 -1.4910
  639MOL0     H86231   1.802  10.330   9.517  0.1747  0.6359  7.4785
  639MOL0     H86232   1.653  10.244   9.512 -0.9252 -1.1685 -2.0988
  639MOL0     H86233   1.698  10.105   9.657 -1.0265  2.8622  0.1538
  639MOL0     H86234   1.884  10.091   9.645 -0.1227  0.3586  1.8766
  639MOL0     H86235   1.873  10.333   9.725 -1.1992  1.0167  0.0099
  639MOL0     H86236   1.851  10.196   9.838  3.6113 -2.3223 -3.2141
  639MOL0     H86237   1.612  10.338   9.709 -0.2617 -0.7029 -0.9405
  639MOL0     H86238   1.603  10.221   9.833  0.6720 -0.9246 -0.2966
  639MOL0     H86239   1.698  10.500   9.862  1.0856 -1.2485 -2.4989
  639MOL0     H86240   1.757  10.375   9.972  0.9354  0.8775 -0.9131
  639MOL0     H86241   1.468  10.364   9.964  0.7974 -3.0942  1.0126
  639MOL0     H86242   1.569  10.374  10.104 -1.1000 -1.0214 -1.2561
  639MOL0     H86243   1.420  10.590  10.079  0.1865 -2.4534  3.2260
  639MOL0     H86244   1.498  10.613   9.919  0.7993 -1.7274 -0.5559
  639MOL0     H86245   1.614  10.740  10.066 -3.2120  0.0462 -0.9180
  639MOL0     H86246   1.729  10.607  10.065 -1.2870 -1.9700 -1.2642
  639MOL0     H86247   1.691  10.378   9.315  0.1332  0.5523 -0.3748
  639MOL0     H86248   1.665  10.435   9.072  0.6294 -0.6958 -0.6860
  639MOL0     H86249   1.946  10.307   8.667  0.9975  2.3117 -1.5556
  639MOL0     H86250   2.022  10.264   8.425 -1.4632  1.2526 -1.0061
  639MOL0     H86251   0.466   9.313   7.386 -0.2558  0.5551  0.1538
  639MOL0     H86252   0.411   9.097   7.535  0.2923 -1.0593  1.8611
  639MOL0     H86253   0.477   8.684   7.531  0.0168 -0.2107  0.1863
  639MOL0     H86254   0.442   8.447   7.605  1.0871 -1.5549  1.6436
  639MOL0     H86255   0.311   8.303   7.688 -0.1788  1.6799  1.7715
  639MOL0     H86256   0.467   8.239   7.708 -0.4454  1.6698 -1.3180
  639MOL0     H86257   0.327   8.049   7.772  1.8260 -1.5693  0.9119
  639MOL0     H86258   0.222   8.173   7.867  0.1944  2.2729 -0.6632
  639MOL0     H86259   0.337   8.018   8.014 -1.0334 -1.5057 -0.8713
  639MOL0     H86260   0.409   8.180   8.026  0.4468 -1.2758 -0.0522
  639MOL0     H86261   0.602   8.091   7.875 -0.2749  2.0296 -1.3894
  639MOL0     H86262   0.511   7.935   7.881 -0.7241 -0.0834  0.9057
  639MOL0     H86263   0.629   7.891   8.262 -1.6318  1.6891  0.9554
  639MOL0     H86264   0.470   8.557   8.001  0.4803 -0.6319 -1.0599
  639MOL0     H86265   0.491   8.803   7.938  1.1903 -0.3545  1.2212
  640MOL0     O86266   8.760   6.061  10.472 -0.4869 -0.7128 -0.1558
  640MOL0     C86267   8.706   5.961  10.431  0.7028  0.2632 -0.2798
  640MOL0     O86268   8.569   5.932  10.445  0.1052 -0.2747  0.7008
  640MOL0     C86269   8.502   5.997  10.544  1.4847  0.5271  0.4909
  640MOL0     C86270   8.386   6.062  10.501 -0.6415 -0.5760  0.1262
  640MOL0     C86271   8.306   6.146  10.589  0.3549 -0.0022 -0.5939
  640MOL0     C86272   8.348   6.149  10.725 -0.5386  0.7577 -0.1626
  640MOL0     O86273   8.285   6.234  10.808 -0.2957  0.1165 -0.0791
  640MOL0     C86274   8.194   6.156  10.895  0.4861  0.0844  0.9401
  640MOL0     C86275   8.152   6.224  11.026  0.3571 -1.2999  0.4508
  640MOL0     C86276   8.048   6.343  11.005 -0.2935  0.5093  0.2339
  640MOL0     C86277   8.024   6.448  11.114  0.9245  0.0934  0.1096
  640MOL0     C86278   7.898   6.533  11.068 -0.1084 -0.1630  0.0980
  640MOL0     C86279   7.850   6.628  11.175 -0.1659  0.6322  0.5774
  640MOL0     C86280   7.716   6.688  11.149  0.4296 -1.6991 -0.1868
  640MOL0     C86281   7.680   6.784  11.265  0.7820 -0.3484 -0.2540
  640MOL0     N86282   7.597   6.725  11.378 -0.4585  1.2045  0.5257
  640MOL0     C86283   7.624   6.628  11.468  0.8645  0.4983 -0.1367
  640MOL0     C86284   7.503   6.598  11.530  0.8479  1.2301  0.2615
  640MOL0     C86285   7.475   6.499  11.630  0.2617 -0.5285  0.0971
  640MOL0     C86286   7.499   6.355  11.596 -0.3545  0.0043  0.6753
  640MOL0     C86287   7.500   6.260  11.717  0.8324 -0.5807  0.9340
  640MOL0     C86288   7.361   6.216  11.776 -0.2981  0.2308 -0.4041
  640MOL0     O86289   7.384   6.197  11.919 -0.0031  0.2242  0.6199
  640MOL0     C86290   7.293   6.240  12.013  0.0208  0.0328 -0.2690
  640MOL0     C86291   7.330   6.229  12.147 -0.3667  1.4083  0.1924
  640MOL0     C86292   7.260   6.286  12.255 -1.3230  0.8496  0.4865
  640MOL0     C86293   7.313   6.265  12.404 -0.0449  0.9373  1.0219
  640MOL0     C86294   7.132   6.348  12.227  0.4026  0.4158 -0.1325
  640MOL0     C86295   7.041   6.432  12.321 -0.6760  0.1368  0.2408
  640MOL0     O86296   6.964   6.529  12.249 -0.0134 -0.5421 -0.0514
  640MOL0     C86297   6.875   6.594  12.333  0.8791  0.3465  0.0721
  640MOL0     C86298   6.740   6.547  12.343 -0.8324 -0.7095 -0.0882
  640MOL0     C86299   6.650   6.606  12.429 -0.3456  0.3761  0.2858
  640MOL0     C86300   6.694   6.721  12.499  0.9750 -0.8104 -0.5494
  640MOL0     O86301   6.599   6.796  12.569 -0.2597 -0.6431  0.0523
  640MOL0     C86302   6.648   6.820  12.715 -0.0183  0.3618  0.4207
  640MOL0     C86303   6.522   6.876  12.773  0.8835  0.6416 -0.2023
  640MOL0     C86304   6.506   7.017  12.741 -0.0845 -0.2075 -0.0945
  640MOL0     C86305   6.396   7.077  12.835  0.6054 -0.3130  0.4954
  640MOL0     C86306   6.364   7.224  12.795 -0.5768  0.6585 -1.1265
  640MOL0     C86307   6.236   7.280  12.863 -0.7289 -0.0327  0.0966
  640MOL0     C86308   6.181   7.405  12.804 -0.2755 -0.2292  0.0206
  640MOL0     C86309   6.073   7.476  12.873  0.9984 -0.6607 -0.2380
  640MOL0    Cl86310   6.039   7.633  12.797 -0.0916  0.3675 -0.3191
  640MOL0     C86311   6.826   6.762  12.500 -0.4663  0.0456 -1.6620
  640MOL0     C86312   6.911   6.700  12.414  0.6642  0.8905  0.0427
  640MOL0     O86313   7.040   6.414  12.438 -0.6271 -0.3242 -0.1081
  640MOL0     C86314   7.081   6.349  12.093  0.0157 -0.9725  0.1936
  640MOL0     C86315   7.175   6.318  11.990  0.2862  0.5952  0.0673
  640MOL0     N86316   7.405   6.683  11.480  1.1795 -0.0876  0.2077
  640MOL0     N86317   7.472   6.761  11.406  0.0630  0.7106 -0.1185
  640MOL0     C86318   8.466   6.080  10.766 -0.5293 -0.0403 -0.6944
  640MOL0     C86319   8.540   6.011  10.675  0.2572  0.3607 -0.2354
  640MOL0     C86320   8.796   5.879  10.342 -0.2192  0.0453  0.6118
  640MOL0     C86321   8.927   5.865  10.358 -0.3120 -0.8117 -0.3074
  640MOL0     C86322   9.007   5.772  10.284 -0.0426  0.4858 -0.0642
  640MOL0     C86323   8.946   5.684  10.187 -0.4937 -0.2930  0.4067
  640MOL0     O86324   9.014   5.602  10.098  0.3428 -0.1933  0.5988
  640MOL0     C86325   9.148   5.621  10.067  0.3232 -0.3676 -0.6490
  640MOL0     C86326   9.208   5.524   9.963 -0.4025 -0.8603 -0.2137
  640MOL0     C86327   9.362   5.529   9.984 -0.6407  0.3720  0.7235
  640MOL0     C86328   9.456   5.507   9.867  0.1825  0.0392 -0.3929
  640MOL0     C86329   9.416   5.381   9.796  0.1899 -0.9983 -1.2010
  640MOL0     C86330   9.336   5.296   9.759 -1.1680  0.0871 -0.4509
  640MOL0     C86331   8.811   5.697  10.170 -0.5573 -0.8625 -0.8825
  640MOL0     C86332   8.735   5.789  10.250  0.6122 -1.2013  0.7202
  640MOL0     H86333   8.361   6.055  10.396 -0.0330  0.7989 -0.1212
  640MOL0     H86334   8.224   6.206  10.551 -1.1561 -0.2621  1.9890
  640MOL0     H86335   8.103   6.130  10.839  0.5151 -1.9386  1.7224
  640MOL0     H86336   8.235   6.059  10.927 -2.0180 -0.5027  2.6970
  640MOL0     H86337   8.100   6.155  11.093 -2.1459 -1.0837 -1.1278
  640MOL0     H86338   8.238   6.270  11.076  1.6016 -1.7777 -1.1779
  640MOL0     H86339   8.052   6.389  10.905 -0.7708  1.2275  0.5398
  640MOL0     H86340   7.958   6.286  10.982 -0.7184 -1.1447  4.9570
  640MOL0     H86341   8.003   6.398  11.209  3.2526  0.6789  1.0080
  640MOL0     H86342   8.119   6.501  11.129  0.7400  0.3717  0.2986
  640MOL0     H86343   7.923   6.583  10.973 -1.2794 -1.7750 -1.1257
  640MOL0     H86344   7.813   6.467  11.049 -0.9125 -0.0411  2.8779
  640MOL0     H86345   7.840   6.574  11.270  0.2455  1.0866  0.8857
  640MOL0     H86346   7.929   6.703  11.170  2.4060 -1.9717 -0.4264
  640MOL0     H86347   7.724   6.743  11.055  0.7819 -1.5553 -0.0783
  640MOL0     H86348   7.632   6.618  11.144 -0.7925 -0.4525  1.6717
  640MOL0     H86349   7.609   6.856  11.222  0.7213  0.3498  0.9648
  640MOL0     H86350   7.770   6.842  11.289  0.0278  2.0194 -2.6569
  640MOL0     H86351   7.719   6.576  11.478 -0.0180 -1.2352 -0.5655
  640MOL0     H86352   7.550   6.524  11.706  2.9773  0.5628 -2.7093
  640MOL0     H86353   7.377   6.524  11.671 -0.0392 -1.6748  0.1293
  640MOL0     H86354   7.600   6.350  11.555 -0.4173  0.8377  0.3957
  640MOL0     H86355   7.433   6.322  11.515 -1.3168  0.9071  1.0546
  640MOL0     H86356   7.549   6.327  11.789 -2.7496  2.4287  0.9391
  640MOL0     H86357   7.559   6.175  11.684 -2.1317 -2.5463  0.2994
  640MOL0     H86358   7.327   6.123  11.731  0.8910 -0.4873  0.1368
  640MOL0     H86359   7.282   6.289  11.757 -2.8897 -2.5054 -0.8722
  640MOL0     H86360   7.420   6.178  12.181 -1.2060  2.6234  5.0264
  640MOL0     H86361   7.300   6.353  12.467 -2.5569  1.7435 -0.4835
  640MOL0     H86362   7.269   6.171  12.439 -1.5989  0.2509 -2.3355
  640MOL0     H86363   7.420   6.242  12.400 -0.4851 -1.7426  2.3868
  640MOL0     H86364   6.708   6.463  12.282  0.5514 -0.4427 -1.2405
  640MOL0     H86365   6.548   6.575  12.446  0.1935 -1.2194  0.7645
  640MOL0     H86366   6.677   6.717  12.736 -1.0670 -0.6276 -2.5066
  640MOL0     H86367   6.726   6.894  12.736  1.0621 -0.8098  0.6893
  640MOL0     H86368   6.435   6.813  12.751 -0.0655  0.5087  3.2667
  640MOL0     H86369   6.534   6.865  12.881 -0.8667 -2.2022 -0.1974
  640MOL0     H86370   6.476   7.018  12.636  1.3954 -1.4315 -0.5647
  640MOL0     H86371   6.603   7.064  12.760 -0.9027  1.5895 -0.1050
  640MOL0     H86372   6.305   7.017  12.831 -1.8977  3.2268 -2.1257
  640MOL0     H86373   6.431   7.080  12.938  1.0492 -0.4481  0.3541
  640MOL0     H86374   6.354   7.209  12.687  1.4413 -2.0738 -1.0365
  640MOL0     H86375   6.441   7.298  12.820  0.7962 -1.4871  1.5055
  640MOL0     H86376   6.151   7.211  12.851 -2.3612  2.1083 -1.3736
  640MOL0     H86377   6.249   7.290  12.971  0.8300 -1.7361  0.1131
  640MOL0     H86378   6.137   7.391  12.705 -3.0960  0.5122  1.0682
  640MOL0     H86379   6.267   7.472  12.791  0.0960 -0.3739  1.5548
  640MOL0     H86380   6.109   7.487  12.975 -0.4362 -3.1293  0.6252
  640MOL0     H86381   5.982   7.416  12.879 -0.7415  1.8282 -0.1890
  640MOL0     H86382   6.853   6.856  12.546  0.5280 -2.0295  2.4151
  640MOL0     H86383   7.009   6.746  12.420 -0.3637  3.0334  2.9162
  640MOL0     H86384   6.984   6.390  12.068 -0.3497 -0.5552  2.1716
  640MOL0     H86385   7.126   6.338  11.896 -0.5505  1.9438  0.7581
  640MOL0     H86386   8.498   6.105  10.867 -0.8699  0.9384 -0.8178
  640MOL0     H86387   8.639   5.969  10.694  0.8043  2.1024  0.9787
  640MOL0     H86388   8.985   5.920  10.431 -1.3636  1.2964 -1.0018
  640MOL0     H86389   9.113   5.770  10.304  0.3241  2.4219 -1.4996
  640MOL0     H86390   9.170   5.722  10.031  1.6724 -0.5228 -0.3321
  640MOL0     H86391   9.203   5.602  10.160 -0.4335 -2.0327 -0.5110
  640MOL0     H86392   9.173   5.546   9.861  0.7923 -0.8873 -0.6456
  640MOL0     H86393   9.182   5.423   9.997  0.2936 -1.1173 -0.4131
  640MOL0     H86394   9.378   5.455  10.064 -1.1433  2.4635  2.8629
  640MOL0     H86395   9.402   5.610  10.046  0.1176  0.1001  0.6079
  640MOL0     H86396   9.556   5.494   9.909 -0.5152 -2.2440  0.7351
  640MOL0     H86397   9.444   5.595   9.803  0.4475 -0.7382 -1.5460
  640MOL0     H86398   9.261   5.224   9.735  1.5086 -3.2717  0.3628
  640MOL0     H86399   8.755   5.636  10.100 -0.4798  1.1098 -2.7810
  640MOL0     H86400   8.628   5.793  10.232  0.6846 -0.9026  0.3564
  641MOL0     O86401   0.515   6.394   3.750 -0.8273  0.0134 -0.4141
  641MOL0     C86402   0.586   6.443   3.835 -0.6788  0.5361 -0.1604
  641MOL0     O86403   0.699   6.382   3.887  0.6890  0.3792  0.6748
  641MOL0     C86404   0.722   6.244   3.874  0.0520 -0.3578  0.0630
  641MOL0     C86405   0.638   6.140   3.821 -0.5255  0.5561 -0.2918
  641MOL0     C86406   0.692   6.005   3.822 -0.0116 -0.8119  0.3385
  641MOL0     C86407   0.814   5.979   3.879  0.7287 -0.3534  0.4877
  641MOL0     O86408   0.861   5.853   3.868  0.4730  0.3032  1.2434
  641MOL0     C86409   0.989   5.821   3.922 -0.1458  0.3241  0.0930
  641MOL0     C86410   0.966   5.771   4.062  0.1318 -1.0722  0.4805
  641MOL0     C86411   1.007   5.865   4.183  0.0590  1.0084  1.3854
  641MOL0     C86412   1.145   5.848   4.216 -0.1304  0.2852  0.1922
  641MOL0     C86413   1.195   5.946   4.311  0.0428  0.1864 -1.2789
  641MOL0     C86414   1.349   5.921   4.335  0.4754  0.0610  0.1039
  641MOL0     C86415   1.435   6.001   4.233  0.4320 -0.7365 -0.3167
  641MOL0     C86416   1.447   6.146   4.268 -0.5478 -1.0154 -0.2148
  641MOL0     N86417   1.512   6.175   4.396  0.9293  0.7189  0.8258
  641MOL0     C86418   1.441   6.226   4.506  0.5944  0.2272  0.2485
  641MOL0     C86419   1.528   6.192   4.611  0.9008 -0.2973 -0.1603
  641MOL0     C86420   1.496   6.229   4.760 -0.2043 -0.0324 -0.6615
  641MOL0     C86421   1.444   6.378   4.770  0.2103 -0.6946 -0.1888
  641MOL0     C86422   1.533   6.456   4.871 -0.1177  0.0005 -0.1847
  641MOL0     C86423   1.465   6.595   4.907 -0.8780  0.7819  0.3744
  641MOL0     O86424   1.546   6.682   4.986  0.2897  0.2790  0.6319
  641MOL0     C86425   1.487   6.807   5.020  0.7932  1.2092 -0.3610
  641MOL0     C86426   1.348   6.851   4.989 -0.8196  0.4349  0.4520
  641MOL0     C86427   1.296   6.976   5.019 -0.5905 -0.4717  1.2682
  641MOL0     C86428   1.163   7.010   4.969 -0.5628  0.6029  0.1517
  641MOL0     C86429   1.384   7.069   5.082 -0.5390  0.2974  0.0355
  641MOL0     C86430   1.346   7.210   5.123 -0.6616  0.9814  0.1557
  641MOL0     O86431   1.417   7.260   5.226  0.6419 -0.4461 -0.1874
  641MOL0     C86432   1.476   7.389   5.213 -0.1946  0.6454 -0.2376
  641MOL0     C86433   1.411   7.496   5.176 -0.6512  0.9182  1.0590
  641MOL0     C86434   1.465   7.625   5.176  1.1751  0.2207 -0.0006
  641MOL0     C86435   1.606   7.635   5.208 -0.0746  0.1723  0.3902
  641MOL0     O86436   1.655   7.765   5.208  0.5291 -0.3521  0.3938
  641MOL0     C86437   1.587   7.876   5.141 -0.7240 -0.4842  0.4379
  641MOL0     C86438   1.685   7.996   5.147  0.2908 -0.0646  0.1090
  641MOL0     C86439   1.834   7.995   5.085 -0.3793 -0.4927  0.3736
  641MOL0     C86440   1.874   8.140   5.053 -0.5645  0.1721  0.2459
  641MOL0     C86441   2.016   8.141   5.001 -0.3267  0.0029 -0.2751
  641MOL0     C86442   2.118   8.169   5.112  0.1924  0.7392 -0.3581
  641MOL0     C86443   2.252   8.094   5.100  0.5195 -0.6309 -1.1423
  641MOL0     C86444   2.238   7.938   5.143 -0.0183 -1.5643 -0.1230
  641MOL0    Cl86445   2.378   7.871   5.225  0.2398 -0.0548 -0.1951
  641MOL0     C86446   1.678   7.520   5.250  0.6429  1.1534  0.7687
  641MOL0     C86447   1.606   7.402   5.249 -0.3475  0.4413  1.7286
  641MOL0     O86448   1.250   7.263   5.067 -0.2195  0.8527 -0.0999
  641MOL0     C86449   1.511   7.020   5.117 -1.1036 -0.5206  0.3184
  641MOL0     C86450   1.572   6.901   5.086  0.0511  1.0329  0.4320
  641MOL0     N86451   1.641   6.133   4.556  0.5203 -0.3485 -0.5532
  641MOL0     N86452   1.631   6.128   4.428  0.3266  0.7666 -0.3629
  641MOL0     C86453   0.893   6.087   3.926 -0.3811 -0.2013 -0.4596
  641MOL0     C86454   0.851   6.213   3.925 -0.4932 -0.4498  0.0816
  641MOL0     C86455   0.578   6.588   3.861  0.3287 -1.0708 -0.2238
  641MOL0     C86456   0.682   6.649   3.942 -0.5531  0.9806  0.5148
  641MOL0     C86457   0.687   6.798   3.954  1.0392  0.6429 -0.7432
  641MOL0     C86458   0.581   6.875   3.900  0.9579 -0.3057 -0.3465
  641MOL0     O86459   0.567   7.007   3.947 -0.1482  1.0860  0.2859
  641MOL0     C86460   0.472   7.093   3.892  0.7901  0.5125  0.7774
  641MOL0     C86461   0.489   7.228   3.948  0.0003 -1.3389  1.2313
  641MOL0     C86462   0.448   7.216   4.096  0.5076  0.2249 -0.9581
  641MOL0     C86463   0.433   7.344   4.173 -0.3338 -0.0961 -0.6408
  641MOL0     C86464   0.326   7.430   4.112 -0.5060 -0.4348 -0.0600
  641MOL0     C86465   0.250   7.520   4.085 -0.2931  0.7928  0.5951
  641MOL0     C86466   0.486   6.815   3.818  0.6884  0.5666  0.7121
  641MOL0     C86467   0.485   6.674   3.799 -0.6752  0.6390 -0.0680
  641MOL0     H86468   0.540   6.161   3.779  0.5881  2.7727 -2.0166
  641MOL0     H86469   0.642   5.920   3.777  0.3983 -0.4691 -0.8091
  641MOL0     H86470   1.028   5.732   3.871  2.6946  0.8026  1.2454
  641MOL0     H86471   1.055   5.905   3.898 -1.8035  1.0239 -2.3272
  641MOL0     H86472   0.860   5.746   4.075  0.0072 -2.4772 -2.3773
  641MOL0     H86473   1.029   5.684   4.084  1.5512  0.0222  0.9040
  641MOL0     H86474   0.989   5.968   4.151 -3.3315 -0.3083 -1.7499
  641MOL0     H86475   0.940   5.847   4.267 -2.5802  0.3378 -0.7068
  641MOL0     H86476   1.174   5.747   4.247  0.4881  0.4452  0.1598
  641MOL0     H86477   1.203   5.860   4.124  0.8270 -0.8167  0.6118
  641MOL0     H86478   1.176   6.050   4.285 -0.7770  0.4052  0.0465
  641MOL0     H86479   1.147   5.934   4.409 -0.1761 -0.3065 -1.4427
  641MOL0     H86480   1.367   5.954   4.437 -1.5512  3.8022 -0.5771
  641MOL0     H86481   1.372   5.815   4.316 -0.4665 -0.4259  1.5202
  641MOL0     H86482   1.531   5.950   4.241 -0.3610 -2.1213  1.1460
  641MOL0     H86483   1.390   5.986   4.135 -1.8422  2.8472 -0.0233
  641MOL0     H86484   1.343   6.179   4.264 -1.3191 -3.2430 -0.3452
  641MOL0     H86485   1.508   6.199   4.195  0.0708 -0.4616  0.6889
  641MOL0     H86486   1.346   6.278   4.512  1.4998  2.1922 -1.1609
  641MOL0     H86487   1.418   6.162   4.797 -2.0489  1.1433 -2.2629
  641MOL0     H86488   1.590   6.211   4.813  0.8631  1.4985 -1.9617
  641MOL0     H86489   1.337   6.378   4.791  0.1771  0.6098 -0.2770
  641MOL0     H86490   1.443   6.428   4.673 -2.8806 -1.5952 -0.7138
  641MOL0     H86491   1.629   6.462   4.819  0.0362  3.6681  0.2536
  641MOL0     H86492   1.558   6.406   4.965 -0.7997  2.7153  1.5654
  641MOL0     H86493   1.373   6.565   4.957 -1.4486  0.8533 -0.6109
  641MOL0     H86494   1.422   6.625   4.811  0.1677  1.0452 -0.0303
  641MOL0     H86495   1.287   6.793   4.920 -0.8780  1.1954 -0.1468
  641MOL0     H86496   1.167   7.097   4.903  1.9899 -0.2342 -0.9057
  641MOL0     H86497   1.112   6.925   4.923 -0.9573  0.6687  0.4641
  641MOL0     H86498   1.101   7.031   5.056 -3.6652  2.1789 -2.2446
  641MOL0     H86499   1.305   7.482   5.158 -0.6794  0.8772  1.2501
  641MOL0     H86500   1.393   7.699   5.143 -1.4157 -2.4954 -0.8654
  641MOL0     H86501   1.567   7.832   5.043 -0.4240 -0.0319  0.1734
  641MOL0     H86502   1.493   7.905   5.189 -2.1241 -0.6234 -2.0445
  641MOL0     H86503   1.622   8.073   5.102  0.1762 -0.3606 -0.2393
  641MOL0     H86504   1.686   8.021   5.254  0.1871 -0.6379  0.2492
  641MOL0     H86505   1.830   7.933   4.995 -0.7931  1.8630 -1.3225
  641MOL0     H86506   1.908   7.941   5.145  1.0416 -3.2361 -3.4911
  641MOL0     H86507   1.811   8.170   4.968  1.1411  0.3878 -1.0005
  641MOL0     H86508   1.865   8.210   5.136 -2.1654 -1.3895  1.4685
  641MOL0     H86509   2.029   8.214   4.920 -0.1376 -0.1098 -0.3472
  641MOL0     H86510   2.049   8.045   4.962  2.2300  0.2456  1.1268
  641MOL0     H86511   2.150   8.273   5.099  2.9763 -0.2113 -2.0647
  641MOL0     H86512   2.089   8.157   5.216  2.3219  0.4997  0.2616
  641MOL0     H86513   2.314   8.145   5.174 -2.0495  1.2482 -0.1222
  641MOL0     H86514   2.306   8.123   5.009  0.4383  2.6970 -0.2725
  641MOL0     H86515   2.217   7.881   5.052 -2.6752 -1.3486  0.2696
  641MOL0     H86516   2.160   7.930   5.219  1.2800  2.0007  1.8000
  641MOL0     H86517   1.779   7.520   5.288  1.4979  1.2694 -1.3958
  641MOL0     H86518   1.670   7.317   5.272  0.3298  0.3374 -0.3311
  641MOL0     H86519   1.575   7.086   5.174  0.1048 -0.5318 -0.9613
  641MOL0     H86520   1.676   6.888   5.115  0.2624  1.6449 -0.0321
  641MOL0     H86521   0.990   6.079   3.974 -1.7505  1.5213  2.8881
  641MOL0     H86522   0.899   6.298   3.972  0.4558  0.1044 -1.7863
  641MOL0     H86523   0.748   6.579   3.991 -1.9602 -0.6521  0.1684
  641MOL0     H86524   0.753   6.838   4.030  0.3714 -1.4437  1.0746
  641MOL0     H86525   0.475   7.110   3.784 -1.2401 -1.4961  0.3288
  641MOL0     H86526   0.376   7.053   3.923  0.8249  0.0270  0.2721
  641MOL0     H86527   0.423   7.292   3.887  0.6738 -2.1043 -0.3703
  641MOL0     H86528   0.591   7.264   3.930 -0.7119 -1.3212 -4.8850
  641MOL0     H86529   0.527   7.166   4.151  0.0181  3.7268  3.5627
  641MOL0     H86530   0.360   7.151   4.104  1.2086 -0.7014 -0.6382
  641MOL0     H86531   0.525   7.402   4.179 -1.6063  1.8520  2.6903
  641MOL0     H86532   0.402   7.339   4.278  0.2664  1.4704 -0.3579
  641MOL0     H86533   0.200   7.601   4.037  0.9814  0.3139 -1.6641
  641MOL0     H86534   0.405   6.868   3.770  1.7228  0.7904 -0.8804
  641MOL0     H86535   0.405   6.628   3.742 -0.1088  3.4991 -3.5669
  642MOL0     O86536   8.281   0.292   1.521  0.4557  0.0125 -0.0716
  642MOL0     C86537   8.273   0.308   1.641  0.0721 -0.4080  0.0913
  642MOL0     O86538   8.155   0.310   1.705 -0.1373  0.1649 -0.4601
  642MOL0     C86539   8.043   0.259   1.645  0.7824 -0.0795  0.2406
  642MOL0     C86540   7.973   0.157   1.722 -0.1436  0.1983  0.9320
  642MOL0     C86541   7.863   0.094   1.668  0.9332  0.9052  0.4558
  642MOL0     C86542   7.815   0.137   1.542  0.3614 -0.4281 -0.0802
  642MOL0     O86543   7.707   0.073   1.490  0.0766 -0.6122  0.4627
  642MOL0     C86544   7.580   0.112   1.535 -0.3449 -0.0970 -0.0366
  642MOL0     C86545   7.474   0.135   1.431  0.6662 -0.0593 -0.0613
  642MOL0     C86546   7.334   0.149   1.497  0.1853 -0.0356 -0.0528
  642MOL0     C86547   7.219   0.151   1.390  1.0078  0.4394  0.1042
  642MOL0     C86548   7.087   0.137   1.469 -1.0275 -0.0590 -0.0086
  642MOL0     C86549   6.971   0.071   1.398  0.0114  0.9629  0.1422
  642MOL0     C86550   6.912   0.176   1.290 -0.4987  0.0250  0.5858
  642MOL0     C86551   6.826   0.294   1.338  0.4929 -0.9406  0.0553
  642MOL0     N86552   6.693   0.259   1.296  0.4540 -0.3298 -0.9459
  642MOL0     C86553   6.599   0.228   1.388  1.2185  0.5469  0.2115
  642MOL0     C86554   6.481   0.225   1.314 -0.7876 -0.1560 -0.1524
  642MOL0     C86555   6.355   0.205   1.390  0.0854 -0.5243  0.3405
  642MOL0     C86556   6.287   0.071   1.362  0.8575 -0.6748 -0.6000
  642MOL0     C86557   6.341  -0.052   1.414 -0.7123  0.2984 -0.2317
  642MOL0     C86558   6.288  -0.169   1.330 -0.3340  0.8005 -0.2119
  642MOL0     O86559   6.303  -0.167   1.193 -0.0661  0.2833 -0.5822
  642MOL0     C86560   6.438  -0.170   1.160 -0.5489 -0.2493  1.1983
  642MOL0     C86561   6.526  -0.275   1.184 -0.3139  0.7524  0.0657
  642MOL0     C86562   6.667  -0.274   1.151  0.8079  0.3992  1.0350
  642MOL0     C86563   6.758  -0.393   1.189 -0.6824  0.2186  0.4937
  642MOL0     C86564   6.712  -0.158   1.071  0.3661  0.2526 -0.0832
  642MOL0     C86565   6.848  -0.144   0.995  0.2340  0.4843 -0.6487
  642MOL0     O86566   6.844  -0.076   0.880 -0.0763 -0.0485  0.4033
  642MOL0     C86567   6.952  -0.077   0.796 -0.7109  0.6073  0.1676
  642MOL0     C86568   6.984  -0.193   0.716 -1.0055 -0.3809  0.7636
  642MOL0     C86569   7.089  -0.184   0.612 -0.6334 -0.2043 -0.5635
  642MOL0     C86570   7.162  -0.063   0.599  0.2554  0.2914  0.7214
  642MOL0     O86571   7.263  -0.050   0.506 -0.2522 -0.5514 -0.7656
  642MOL0     C86572   7.335  -0.161   0.448 -0.5988 -0.3072 -0.3002
  642MOL0     C86573   7.413  -0.251   0.550  0.4220  0.6685  0.4054
  642MOL0     C86574   7.500  -0.348   0.483 -0.3678  0.2974  0.3735
  642MOL0     C86575   7.618  -0.382   0.567  0.8302  0.5850  0.6748
  642MOL0     C86576   7.710  -0.497   0.505 -0.0821  1.3770  0.6554
  642MOL0     C86577   7.751  -0.463   0.356  0.3509  0.3613 -0.3557
  642MOL0     C86578   7.805  -0.587   0.288  0.2657 -0.2279  0.0305
  642MOL0     C86579   7.919  -0.541   0.192  0.4400  0.0588 -0.1045
  642MOL0    Cl86580   7.842  -0.448   0.067  0.4008 -0.1871  0.0313
  642MOL0     C86581   7.136   0.053   0.686 -0.7178  0.3172 -0.3367
  642MOL0     C86582   7.031   0.041   0.780  0.0115  1.1803  0.0298
  642MOL0     O86583   6.949  -0.203   1.038  0.7479  0.1790  0.1060
  642MOL0     C86584   6.617  -0.058   1.038  0.0190 -0.5849  0.4952
  642MOL0     C86585   6.491  -0.069   1.085  0.4448  0.0561  0.3071
  642MOL0     N86586   6.520   0.252   1.184 -0.1719 -0.6588 -0.0416
  642MOL0     N86587   6.646   0.272   1.171  0.0290 -0.1277 -0.3811
  642MOL0     C86588   7.886   0.223   1.469 -0.9840 -1.2033 -0.2582
  642MOL0     C86589   7.996   0.291   1.523 -0.4102  0.2041 -0.4702
  642MOL0     C86590   8.387   0.351   1.726  0.4721  0.5531  0.6435
  642MOL0     C86591   8.358   0.431   1.843  0.4213  0.4330 -0.0120
  642MOL0     C86592   8.465   0.479   1.920  0.4055  0.3516 -0.1363
  642MOL0     C86593   8.596   0.463   1.888 -0.5818 -0.3896  0.6335
  642MOL0     O86594   8.707   0.527   1.940  0.9112  0.1725 -0.2555
  642MOL0     C86595   8.699   0.629   2.043  0.1922 -0.5189 -0.2839
  642MOL0     C86596   8.815   0.625   2.150  1.0103  0.8118 -0.5781
  642MOL0     C86597   8.958   0.619   2.088  0.7228  0.3059  0.3914
  642MOL0     C86598   8.964   0.720   1.970  0.1980  0.8898 -0.2218
  642MOL0     C86599   9.095   0.709   1.905 -0.2457 -0.6345 -0.1807
  642MOL0     C86600   9.202   0.684   1.852 -0.2595 -0.7224 -0.2798
  642MOL0     C86601   8.625   0.375   1.782  0.0061 -0.7512  0.0730
  642MOL0     C86602   8.522   0.324   1.697 -0.2993  0.6413  0.2604
  642MOL0     H86603   8.007   0.126   1.820 -0.4285  2.9242  1.9695
  642MOL0     H86604   7.816   0.016   1.728  1.8440 -0.7560 -0.8805
  642MOL0     H86605   7.543   0.045   1.613 -2.2304 -0.3843 -1.1208
  642MOL0     H86606   7.586   0.209   1.586 -0.2557 -0.0185 -0.1964
  642MOL0     H86607   7.498   0.216   1.362  0.5764  0.7007  0.7740
  642MOL0     H86608   7.470   0.046   1.368  3.1282 -0.1986 -0.0959
  642MOL0     H86609   7.316   0.059   1.557 -0.2332 -1.1213 -1.7568
  642MOL0     H86610   7.325   0.238   1.561 -3.9493 -2.7204  3.6799
  642MOL0     H86611   7.210   0.241   1.329 -0.1302 -1.3640 -2.5566
  642MOL0     H86612   7.236   0.070   1.318  4.2028  0.1093  1.0790
  642MOL0     H86613   7.090   0.073   1.557 -4.1224 -3.4864 -2.1323
  642MOL0     H86614   7.058   0.235   1.508 -0.8005  0.4362 -1.0546
  642MOL0     H86615   7.006  -0.022   1.352 -1.8750  0.0427  0.4803
  642MOL0     H86616   6.897   0.038   1.471 -1.4899  2.2849 -0.7168
  642MOL0     H86617   7.002   0.213   1.241 -0.2762  2.1917  2.4531
  642MOL0     H86618   6.864   0.117   1.212  1.0366  0.5066 -0.7772
  642MOL0     H86619   6.851   0.374   1.268 -2.7513 -0.4120 -0.6869
  642MOL0     H86620   6.840   0.325   1.442 -0.7148  4.7232 -1.1275
  642MOL0     H86621   6.618   0.209   1.493 -3.8914  1.4259  1.5630
  642MOL0     H86622   6.368   0.225   1.497  1.4885 -1.3567  0.3528
  642MOL0     H86623   6.286   0.283   1.356  0.5199 -0.4148 -0.3028
  642MOL0     H86624   6.283   0.073   1.253 -3.9113 -0.6378 -0.6173
  642MOL0     H86625   6.189   0.093   1.406  2.2194  2.5850  1.1171
  642MOL0     H86626   6.313  -0.057   1.519  0.1476 -1.2045 -0.0483
  642MOL0     H86627   6.450  -0.053   1.411 -0.7151  0.8739 -1.5289
  642MOL0     H86628   6.179  -0.171   1.340 -0.5727 -5.1920 -0.8383
  642MOL0     H86629   6.327  -0.263   1.369  0.7180  0.7411 -1.3359
  642MOL0     H86630   6.492  -0.369   1.226  1.5445 -0.3983 -0.9094
  642MOL0     H86631   6.824  -0.440   1.115 -0.4675 -1.9139  1.9608
  642MOL0     H86632   6.829  -0.360   1.266  3.1653 -1.9213 -1.7933
  642MOL0     H86633   6.692  -0.469   1.230 -2.0873  1.3554  0.3961
  642MOL0     H86634   6.934  -0.288   0.737  1.7748 -1.7219  1.7532
  642MOL0     H86635   7.105  -0.278   0.561 -0.4266 -0.3280 -0.2718
  642MOL0     H86636   7.279  -0.226   0.381  0.1654 -1.6582  0.3199
  642MOL0     H86637   7.404  -0.130   0.369 -1.3932  0.1246 -0.8334
  642MOL0     H86638   7.461  -0.192   0.629 -0.4547  1.2647  0.5033
  642MOL0     H86639   7.349  -0.312   0.615  2.1493  0.2445  1.7799
  642MOL0     H86640   7.527  -0.298   0.390  1.3394  1.1344  1.2687
  642MOL0     H86641   7.458  -0.443   0.446  0.5200 -0.0396  0.2049
  642MOL0     H86642   7.688  -0.298   0.570  0.8838  0.5578  0.2644
  642MOL0     H86643   7.581  -0.403   0.668 -0.9414  0.9280  0.1332
  642MOL0     H86644   7.643  -0.584   0.501  1.5189  0.1602 -1.1608
  642MOL0     H86645   7.791  -0.531   0.571  0.1393 -1.8106 -1.0867
  642MOL0     H86646   7.674  -0.432   0.284  0.0484 -2.5744 -1.4524
  642MOL0     H86647   7.829  -0.386   0.360  0.7685 -0.0805  0.1026
  642MOL0     H86648   7.725  -0.624   0.224 -0.8538  1.7093  0.2303
  642MOL0     H86649   7.848  -0.654   0.363  1.8499  0.2665 -0.3800
  642MOL0     H86650   7.973  -0.622   0.143  1.3122  1.4541 -1.5293
  642MOL0     H86651   8.004  -0.492   0.240  1.4302  1.4408 -3.0470
  642MOL0     H86652   7.174   0.155   0.685 -3.8757  1.6436  1.3961
  642MOL0     H86653   6.987   0.128   0.827 -0.9778  0.1473  1.0566
  642MOL0     H86654   6.630   0.025   0.969 -1.7406 -0.2776  0.5023
  642MOL0     H86655   6.417   0.010   1.083 -1.1739 -1.4015  0.2871
  642MOL0     H86656   7.864   0.255   1.367 -2.5833  0.9263  0.6678
  642MOL0     H86657   8.059   0.358   1.466  0.8806  1.0318  1.7928
  642MOL0     H86658   8.261   0.473   1.867 -0.2046 -0.4414 -0.9415
  642MOL0     H86659   8.445   0.538   2.009 -0.7189 -1.9145  1.2014
  642MOL0     H86660   8.704   0.721   1.985  0.6819  1.0587  2.1059
  642MOL0     H86661   8.606   0.624   2.100  0.7774 -0.9702  0.6583
  642MOL0     H86662   8.801   0.541   2.219 -0.9426  0.6624 -1.1053
  642MOL0     H86663   8.816   0.715   2.212  0.4530  1.2309 -1.1568
  642MOL0     H86664   8.987   0.520   2.051  1.1139  0.2307  0.8871
  642MOL0     H86665   9.036   0.641   2.161  1.2006 -0.7123  0.2043
  642MOL0     H86666   8.941   0.818   2.012 -2.5096  0.2008  0.1307
  642MOL0     H86667   8.895   0.694   1.889  1.8099  0.7121 -1.5917
  642MOL0     H86668   9.299   0.668   1.809  0.3259  3.9143 -1.1530
  642MOL0     H86669   8.722   0.347   1.744  0.6737 -2.1447  2.6280
  642MOL0     H86670   8.557   0.253   1.623  1.1417  3.4888 -2.0400
  643MOL0     O86671   3.836   9.558   5.393  0.3625 -0.0485  0.0111
  643MOL0     C86672   3.820   9.442   5.423  0.0226 -0.5361 -0.4022
  643MOL0     O86673   3.783   9.356   5.332 -0.3130  1.1876 -0.5569
  643MOL0     C86674   3.775   9.390   5.197  0.0440 -0.8949  0.0906
  643MOL0     C86675   3.886   9.362   5.106 -1.1940 -0.0082  0.1501
  643MOL0     C86676   3.868   9.378   4.966 -0.5067  0.0518  0.1381
  643MOL0     C86677   3.749   9.444   4.924 -0.6689 -0.2406 -0.5649
  643MOL0     O86678   3.730   9.499   4.806  0.2246  0.9232 -0.1116
  643MOL0     C86679   3.827   9.588   4.744 -0.1441 -0.1872 -0.1805
  643MOL0     C86680   3.753   9.689   4.651 -1.2488  0.4074 -0.0057
  643MOL0     C86681   3.657   9.774   4.728 -0.6116 -0.6875 -0.1565
  643MOL0     C86682   3.577   9.881   4.646 -0.5933  0.4060  1.1494
  643MOL0     C86683   3.453   9.839   4.571  0.8015  0.5174  0.0634
  643MOL0     C86684   3.414   9.950   4.475  0.1670  0.0293  0.0438
  643MOL0     C86685   3.264   9.953   4.442  0.0368 -0.4330  0.4141
  643MOL0     C86686   3.223  10.061   4.340  0.0713  0.0179  0.2821
  643MOL0     N86687   3.104  10.016   4.262  0.0039 -0.1667  0.2915
  643MOL0     C86688   2.980   9.997   4.316  0.2170  1.5564 -0.4089
  643MOL0     C86689   2.891   9.974   4.217  0.1905  0.1948 -0.5886
  643MOL0     C86690   2.758   9.918   4.251  0.1997 -0.2928 -0.1485
  643MOL0     C86691   2.677   9.870   4.124 -0.0129  0.5323 -0.3740
  643MOL0     C86692   2.613   9.984   4.041 -0.6291 -0.1715 -0.0327
  643MOL0     C86693   2.509   9.919   3.942 -1.0735  0.4752 -1.2150
  643MOL0     O86694   2.560   9.814   3.868  0.3229  1.1521 -0.2874
  643MOL0     C86695   2.462   9.776   3.771 -0.3232 -0.4502  0.5072
  643MOL0     C86696   2.346   9.706   3.802 -0.1698  0.6329 -0.2212
  643MOL0     C86697   2.234   9.697   3.725  0.7206  0.8002  0.3008
  643MOL0     C86698   2.113   9.638   3.786 -0.0865 -1.2301 -0.3693
  643MOL0     C86699   2.248   9.752   3.591 -0.5502 -0.3074  0.8071
  643MOL0     C86700   2.130   9.745   3.485  0.0260  0.2431 -0.1960
  643MOL0     O86701   2.153   9.836   3.386  0.1632 -0.0226  0.1694
  643MOL0     C86702   2.049   9.864   3.296 -0.3153  0.9538  0.9136
  643MOL0     C86703   1.913   9.875   3.335  0.1404 -0.9873  0.1973
  643MOL0     C86704   1.819   9.910   3.244 -0.2445 -0.6520  0.2600
  643MOL0     C86705   1.859   9.943   3.117  1.1150  0.0727  0.6077
  643MOL0     O86706   1.780   9.982   3.012  0.4998  0.1918  0.3280
  643MOL0     C86707   1.636   9.955   3.038  0.6078  0.2248  1.4809
  643MOL0     C86708   1.569   9.980   2.900  0.8340  0.1223 -1.0609
  643MOL0     C86709   1.594   9.866   2.798 -1.1153  0.2441  0.7760
  643MOL0     C86710   1.557   9.911   2.653 -0.1804  0.7937  0.5377
  643MOL0     C86711   1.667   9.983   2.585 -0.2758 -1.3173 -0.5686
  643MOL0     C86712   1.644  10.011   2.438  0.5838  0.2416 -0.7498
  643MOL0     C86713   1.753  10.103   2.387 -0.1766  0.2739 -0.2021
  643MOL0     C86714   1.763  10.102   2.238 -0.0307  0.6551  0.7543
  643MOL0    Cl86715   1.874  10.214   2.189  0.1467 -0.4408 -0.3795
  643MOL0     C86716   1.994   9.944   3.080 -0.7061 -0.0909  0.1092
  643MOL0     C86717   2.083   9.889   3.168 -0.2574  0.3563  0.6606
  643MOL0     O86718   2.032   9.673   3.498  0.5657  0.0503  0.2057
  643MOL0     C86719   2.365   9.824   3.560  0.0077 -0.1302 -0.1401
  643MOL0     C86720   2.481   9.829   3.643  1.1505 -0.6034  0.1458
  643MOL0     N86721   2.966   9.979   4.097  0.9436 -0.1295 -0.2323
  643MOL0     N86722   3.083  10.018   4.130  0.2532 -0.8950 -0.4498
  643MOL0     C86723   3.643   9.471   5.009 -0.1771  0.3802 -0.3521
  643MOL0     C86724   3.657   9.449   5.147  0.3435  0.3232  0.8935
  643MOL0     C86725   3.833   9.399   5.560 -0.5894  0.1986  0.3194
  643MOL0     C86726   3.880   9.488   5.655 -0.8536 -0.5185  1.7323
  643MOL0     C86727   3.884   9.449   5.788 -0.8141 -0.5053  0.2598
  643MOL0     C86728   3.862   9.312   5.831  0.3889 -0.6118  0.2614
  643MOL0     O86729   3.855   9.273   5.965 -0.0480 -0.5179 -0.0011
  643MOL0     C86730   3.840   9.353   6.081 -0.2319 -0.3181  0.0847
  643MOL0     C86731   3.697   9.312   6.139 -0.4566 -0.3296  0.4460
  643MOL0     C86732   3.714   9.180   6.203  0.0317 -0.3689  0.9845
  643MOL0     C86733   3.663   9.181   6.338 -0.0210  0.3203  0.0721
  643MOL0     C86734   3.659   9.041   6.385  0.2759  0.1649 -0.8158
  643MOL0     C86735   3.674   8.922   6.394 -0.0135  0.3667 -0.3870
  643MOL0     C86736   3.837   9.216   5.735  1.0284 -0.5678 -0.4330
  643MOL0     C86737   3.821   9.264   5.595 -0.0225  0.1220 -0.4324
  643MOL0     H86738   3.982   9.317   5.131 -0.6254  1.0826 -0.0082
  643MOL0     H86739   3.942   9.351   4.891  1.1748  0.1787  1.6839
  643MOL0     H86740   3.870   9.647   4.825 -0.7006  0.8563 -0.6219
  643MOL0     H86741   3.903   9.531   4.690  1.2545 -0.5481  2.0446
  643MOL0     H86742   3.831   9.752   4.608 -2.1675  3.0003  1.8589
  643MOL0     H86743   3.701   9.643   4.566  3.2960 -0.3848 -2.7209
  643MOL0     H86744   3.599   9.698   4.782 -2.5816 -0.7080 -2.1565
  643MOL0     H86745   3.714   9.821   4.809  0.5304 -5.3951  2.1368
  643MOL0     H86746   3.557   9.967   4.711  0.3339  1.5791 -0.0504
  643MOL0     H86747   3.651   9.918   4.575 -0.6454 -0.0732  0.8444
  643MOL0     H86748   3.463   9.748   4.512  1.9705  0.8161 -0.2213
  643MOL0     H86749   3.369   9.810   4.636  0.2119  1.1970 -0.3868
  643MOL0     H86750   3.439  10.042   4.529  0.6453 -1.8102  3.1910
  643MOL0     H86751   3.471   9.948   4.382  1.0182 -0.3083  0.5654
  643MOL0     H86752   3.242   9.851   4.408 -1.7847  0.3347 -0.9284
  643MOL0     H86753   3.209   9.975   4.534 -0.2461  1.5146 -0.1751
  643MOL0     H86754   3.306  10.061   4.269 -0.7309  0.5225 -0.6688
  643MOL0     H86755   3.218  10.160   4.388 -2.3363 -0.9038  2.1458
  643MOL0     H86756   2.951   9.983   4.420  0.2120 -1.6221 -0.7604
  643MOL0     H86757   2.762   9.841   4.328  0.9458  1.6713  1.8935
  643MOL0     H86758   2.704  10.000   4.300 -0.5084  1.6990 -3.8779
  643MOL0     H86759   2.606   9.796   4.161  0.2414  0.4585 -0.0239
  643MOL0     H86760   2.749   9.820   4.059  0.2936 -0.2282  0.5282
  643MOL0     H86761   2.692  10.034   3.984 -3.5145  2.2726 -2.1894
  643MOL0     H86762   2.566  10.058   4.106 -2.8612 -2.2282  0.8333
  643MOL0     H86763   2.477  10.004   3.882 -2.7619  0.8699  0.1379
  643MOL0     H86764   2.430   9.877   4.006 -0.0769 -0.5578 -0.6244
  643MOL0     H86765   2.345   9.671   3.905  3.1176  3.0384  0.7777
  643MOL0     H86766   2.037   9.717   3.788  0.3167 -0.8233 -0.8495
  643MOL0     H86767   2.070   9.550   3.739  0.4276 -1.7867  0.1869
  643MOL0     H86768   2.140   9.614   3.890  1.2877 -0.8490 -0.6139
  643MOL0     H86769   1.896   9.852   3.440  1.3737 -0.5064  0.5220
  643MOL0     H86770   1.718   9.910   3.286  0.6939  0.0864  2.7039
  643MOL0     H86771   1.622   9.850   3.066 -2.7471 -0.3839 -1.5938
  643MOL0     H86772   1.607  10.019   3.121 -3.3059  0.4429  0.1820
  643MOL0     H86773   1.461   9.987   2.911  0.1557 -5.2438 -1.4485
  643MOL0     H86774   1.597  10.077   2.858  0.2198  0.0390 -1.6829
  643MOL0     H86775   1.545   9.769   2.812  2.1941 -1.8872 -1.1825
  643MOL0     H86776   1.702   9.854   2.798 -0.8570  1.5654  3.8590
  643MOL0     H86777   1.553   9.822   2.590  4.3245  0.2879  0.6180
  643MOL0     H86778   1.464   9.968   2.648 -0.2625  0.6369  0.2495
  643MOL0     H86779   1.760   9.925   2.585  0.5623 -0.0546 -2.4923
  643MOL0     H86780   1.672  10.085   2.623 -0.8164 -1.4647 -0.0942
  643MOL0     H86781   1.640   9.914   2.386  0.5912  0.7550 -1.7313
  643MOL0     H86782   1.544  10.052   2.422 -0.6693 -1.7033  1.4430
  643MOL0     H86783   1.851  10.064   2.416  0.3776  0.6303 -1.5204
  643MOL0     H86784   1.748  10.201   2.434 -1.3772 -1.2394  3.0911
  643MOL0     H86785   1.663  10.121   2.197 -0.4830  1.4994  2.2090
  643MOL0     H86786   1.798  10.006   2.198 -2.2541 -1.2783  3.1146
  643MOL0     H86787   2.039   9.982   2.988 -0.6851  1.3268  0.6759
  643MOL0     H86788   2.184   9.871   3.132 -0.3111  0.4699  0.4488
  643MOL0     H86789   2.382   9.854   3.457  2.9337 -1.4791 -0.1558
  643MOL0     H86790   2.576   9.878   3.621  0.4144  0.5309 -0.6477
  643MOL0     H86791   3.562   9.534   4.973  0.1707  0.0205 -1.8416
  643MOL0     H86792   3.581   9.477   5.219  0.5651  2.9389  0.1861
  643MOL0     H86793   3.906   9.588   5.624 -0.9508 -1.2720 -0.9949
  643MOL0     H86794   3.905   9.531   5.855  5.8868 -1.1272 -0.4032
  643MOL0     H86795   3.929   9.338   6.142 -0.7719 -1.5762  0.6138
  643MOL0     H86796   3.847   9.461   6.066  2.2861 -0.3721  0.4478
  643MOL0     H86797   3.630   9.315   6.052 -1.2651  2.3345  1.0777
  643MOL0     H86798   3.677   9.404   6.194 -1.1243  1.0621 -1.9773
  643MOL0     H86799   3.816   9.142   6.210 -0.1318 -0.8095  1.0318
  643MOL0     H86800   3.668   9.100   6.144  1.8724  0.9186 -2.4616
  643MOL0     H86801   3.561   9.221   6.341 -0.4499 -0.5633 -1.7403
  643MOL0     H86802   3.725   9.241   6.406  2.7069  0.6929 -2.5413
  643MOL0     H86803   3.694   8.823   6.431 -1.7556  1.4246  3.9066
  643MOL0     H86804   3.833   9.111   5.763  0.2391 -0.5830 -0.5756
  643MOL0     H86805   3.789   9.189   5.523 -0.9027 -0.8271  0.8838
  644MOL0     O86806  11.348   4.038   6.716 -0.5149 -0.3773 -0.8914
  644MOL0     C86807  11.449   4.109   6.719 -0.0829  0.7268 -0.9460
  644MOL0     O86808  11.477   4.226   6.795  0.1994  0.5156 -1.0215
  644MOL0     C86809  11.392   4.232   6.902 -0.2812  0.3715  0.3300
  644MOL0     C86810  11.410   4.148   7.012  0.6617 -0.6634 -0.6274
  644MOL0     C86811  11.325   4.168   7.124 -0.8709 -0.0794 -0.2010
  644MOL0     C86812  11.224   4.265   7.115  0.9836 -0.5196  1.3058
  644MOL0     O86813  11.118   4.261   7.204  0.8300  0.5771 -0.5921
  644MOL0     C86814  10.985   4.314   7.171  0.3456 -0.1250 -0.7826
  644MOL0     C86815  10.885   4.261   7.285 -0.4422  0.1402  0.3848
  644MOL0     C86816  10.745   4.300   7.246  0.3790 -0.3248  0.1444
  644MOL0     C86817  10.651   4.194   7.294 -0.0230  0.8357  1.4940
  644MOL0     C86818  10.512   4.258   7.286  0.6599  1.0181  0.0191
  644MOL0     C86819  10.398   4.153   7.304  0.3872  0.2743 -0.8466
  644MOL0     C86820  10.264   4.214   7.313  0.7174 -0.4395  0.2457
  644MOL0     C86821  10.145   4.110   7.318  0.5208 -0.4363  0.1195
  644MOL0     N86822  10.018   4.183   7.361 -0.4464  0.2847 -0.0578
  644MOL0     C86823   9.972   4.189   7.488 -0.1198  0.5796  0.1356
  644MOL0     C86824   9.843   4.237   7.481 -0.6376 -0.3043  0.4470
  644MOL0     C86825   9.763   4.263   7.598 -1.3710 -0.0921 -0.7474
  644MOL0     C86826   9.790   4.404   7.634 -0.4560  0.0992 -0.0289
  644MOL0     C86827   9.899   4.440   7.727  0.5624 -0.1386 -0.7549
  644MOL0     C86828   9.904   4.585   7.760 -1.0357 -0.2197  0.1194
  644MOL0     O86829  10.008   4.642   7.658  0.4089  0.2787 -0.3438
  644MOL0     C86830  10.032   4.775   7.654 -0.3124  0.2505  0.1038
  644MOL0     C86831   9.950   4.879   7.710 -0.5314  0.5516 -0.3178
  644MOL0     C86832   9.975   5.016   7.711  0.0700 -0.7294  0.5628
  644MOL0     C86833   9.849   5.099   7.731 -0.1356 -0.3733  0.8627
  644MOL0     C86834  10.091   5.068   7.645  0.3581 -0.0071  0.6243
  644MOL0     C86835  10.123   5.205   7.626  0.0266 -0.3250 -0.5538
  644MOL0     O86836  10.199   5.245   7.523  0.1160 -0.5740  1.0417
  644MOL0     C86837  10.243   5.371   7.502 -0.4712  0.9709  0.8650
  644MOL0     C86838  10.355   5.380   7.430 -0.4324  0.1801  0.1099
  644MOL0     C86839  10.399   5.505   7.390  0.3281 -0.7802  0.6820
  644MOL0     C86840  10.328   5.621   7.421 -1.1537 -0.2759 -0.7335
  644MOL0     O86841  10.376   5.741   7.364 -0.8834  0.0273 -0.6093
  644MOL0     C86842  10.473   5.811   7.445 -1.2440  0.1726  0.0696
  644MOL0     C86843  10.530   5.731   7.570  0.1013 -0.3156  0.1985
  644MOL0     C86844  10.640   5.808   7.649  0.7896 -0.5923  0.1627
  644MOL0     C86845  10.711   5.723   7.764  0.3354 -0.0843 -0.1430
  644MOL0     C86846  10.862   5.755   7.763 -1.5304 -0.7135 -0.2771
  644MOL0     C86847  10.882   5.893   7.832  0.4756  0.1929  0.3366
  644MOL0     C86848  10.971   5.981   7.745 -0.8835 -0.4533  0.4034
  644MOL0     C86849  10.922   6.012   7.606  0.7151 -0.4629  0.7141
  644MOL0    Cl86850  11.053   6.113   7.518 -0.1255  0.2167 -0.1171
  644MOL0     C86851  10.218   5.613   7.505  0.0657 -0.4156  0.4094
  644MOL0     C86852  10.165   5.490   7.535 -0.6178  0.3919 -0.2626
  644MOL0     O86853  10.102   5.275   7.728  0.2915  0.0320  0.1544
  644MOL0     C86854  10.182   4.962   7.603 -0.1987  0.2374  0.5687
  644MOL0     C86855  10.154   4.823   7.604  0.2492  0.1116 -0.3147
  644MOL0     N86856   9.808   4.237   7.346  0.4232 -0.1083  0.8007
  644MOL0     N86857   9.911   4.202   7.280  0.1039 -0.5032  0.9390
  644MOL0     C86858  11.218   4.345   7.011 -0.0901 -0.0050 -0.4816
  644MOL0     C86859  11.304   4.336   6.904 -0.7050  0.4736  0.3913
  644MOL0     C86860  11.537   4.060   6.622 -0.0246 -0.5352  0.6397
  644MOL0     C86861  11.678   4.065   6.639  0.6650 -0.7113 -0.1196
  644MOL0     C86862  11.766   4.014   6.550 -0.0208 -0.2183 -0.4928
  644MOL0     C86863  11.715   3.949   6.439 -0.2755  1.0724 -0.2026
  644MOL0     O86864  11.793   3.894   6.337  0.0233  0.2219 -0.0630
  644MOL0     C86865  11.934   3.903   6.348  0.9269 -0.5025  0.0989
  644MOL0     C86866  12.009   3.807   6.245 -0.1188  0.0001 -0.1637
  644MOL0     C86867  12.159   3.827   6.203 -1.0207 -0.5354 -0.1052
  644MOL0     C86868  12.251   3.839   6.326 -0.4593 -0.4922 -0.2561
  644MOL0     C86869  12.392   3.817   6.284  0.0530 -0.0373 -0.1608
  644MOL0     C86870  12.510   3.816   6.280 -0.3640 -0.8985 -0.5025
  644MOL0     C86871  11.581   3.936   6.420  0.8023  0.0846  0.8291
  644MOL0     C86872  11.489   3.991   6.512 -0.7949  0.2546 -0.0234
  644MOL0     H86873  11.486   4.071   7.009 -0.4377 -1.7220 -2.3840
  644MOL0     H86874  11.345   4.110   7.214 -2.1390 -0.9520 -0.4587
  644MOL0     H86875  10.982   4.421   7.193  0.7885  0.3591 -2.8104
  644MOL0     H86876  10.952   4.290   7.069 -2.6776  1.1136 -0.1912
  644MOL0     H86877  10.898   4.152   7.285  1.0939  0.3018  0.8815
  644MOL0     H86878  10.897   4.308   7.383 -0.8491  1.3883 -0.1494
  644MOL0     H86879  10.719   4.400   7.279  0.6421 -0.7012  1.5430
  644MOL0     H86880  10.740   4.294   7.137 -1.6093 -5.5264  0.2393
  644MOL0     H86881  10.659   4.114   7.221 -1.3066  1.3969  0.7140
  644MOL0     H86882  10.667   4.153   7.395 -0.9069 -1.8018  0.6398
  644MOL0     H86883  10.494   4.328   7.368 -1.0723  0.4027  0.2038
  644MOL0     H86884  10.500   4.299   7.185  3.3363 -0.2489 -0.9068
  644MOL0     H86885  10.398   4.091   7.214 -2.0470 -0.0981 -0.6601
  644MOL0     H86886  10.405   4.095   7.397 -2.7854  2.7127  1.1110
  644MOL0     H86887  10.256   4.271   7.406  1.4568 -0.8614  0.5722
  644MOL0     H86888  10.250   4.285   7.231 -0.3324 -3.8716 -2.7864
  644MOL0     H86889  10.173   4.023   7.378  2.2833 -1.2375 -1.7387
  644MOL0     H86890  10.135   4.065   7.219  3.0953 -1.0525  0.0839
  644MOL0     H86891  10.029   4.172   7.579 -2.0550  1.2896  1.5639
  644MOL0     H86892   9.658   4.249   7.572 -1.1149 -0.9595 -1.3694
  644MOL0     H86893   9.807   4.200   7.676  0.4997  1.8963 -0.1230
  644MOL0     H86894   9.694   4.444   7.670 -2.1755 -4.1418  0.7401
  644MOL0     H86895   9.801   4.463   7.543 -1.1391  4.2200  2.3360
  644MOL0     H86896   9.999   4.411   7.695  0.6996 -2.8200  1.6592
  644MOL0     H86897   9.878   4.384   7.819 -2.5344  1.6615 -0.2130
  644MOL0     H86898   9.951   4.615   7.854 -2.0506  0.9655  0.2747
  644MOL0     H86899   9.805   4.631   7.749 -1.7580 -2.3794 -5.8490
  644MOL0     H86900   9.855   4.851   7.754  0.6796 -0.9564  1.4839
  644MOL0     H86901   9.773   5.089   7.652  0.9981 -0.5220 -0.2389
  644MOL0     H86902   9.796   5.073   7.823  0.5685 -3.3409  0.5410
  644MOL0     H86903   9.871   5.206   7.743  0.5423 -0.5441  1.1602
  644MOL0     H86904  10.414   5.294   7.399 -2.4699 -1.6076  0.8808
  644MOL0     H86905  10.487   5.501   7.327  0.0218 -2.8313  0.2982
  644MOL0     H86906  10.567   5.831   7.392  0.0478 -1.1058  1.7454
  644MOL0     H86907  10.422   5.899   7.485 -0.0824 -0.3857  3.0802
  644MOL0     H86908  10.446   5.714   7.639  0.4520 -1.4263  0.3655
  644MOL0     H86909  10.571   5.639   7.528 -1.0806  0.2003 -2.2134
  644MOL0     H86910  10.592   5.893   7.698 -0.8441  0.3262 -2.7401
  644MOL0     H86911  10.718   5.854   7.588 -0.4119  2.0890  0.4850
  644MOL0     H86912  10.661   5.745   7.859 -1.2515  3.0960 -1.5460
  644MOL0     H86913  10.694   5.619   7.736 -1.1413 -0.2658  1.2425
  644MOL0     H86914  10.907   5.756   7.663  1.2778  1.0839  0.8820
  644MOL0     H86915  10.914   5.674   7.816 -3.2784 -2.0436 -0.4964
  644MOL0     H86916  10.784   5.939   7.845  0.7535  1.2802 -1.1159
  644MOL0     H86917  10.941   5.873   7.922 -0.3380 -2.2075  0.4260
  644MOL0     H86918  11.074   5.946   7.736 -0.5801  0.7599 -1.2527
  644MOL0     H86919  10.981   6.076   7.798 -0.8500 -1.2681  1.9206
  644MOL0     H86920  10.819   6.048   7.593  0.7158 -1.0999 -1.4393
  644MOL0     H86921  10.922   5.924   7.541 -1.6089  1.0442 -1.5589
  644MOL0     H86922  10.150   5.698   7.512 -2.1930 -2.0612 -0.2803
  644MOL0     H86923  10.070   5.487   7.587  0.9870  2.4598  3.0795
  644MOL0     H86924  10.280   4.988   7.565  1.5081 -1.0449  3.7380
  644MOL0     H86925  10.212   4.752   7.546  0.5566 -0.5310  0.7616
  644MOL0     H86926  11.123   4.396   7.010 -1.1923 -1.9407  0.1231
  644MOL0     H86927  11.289   4.404   6.821 -1.4814 -0.7780 -0.5276
  644MOL0     H86928  11.709   4.107   6.734 -0.1582 -0.5809  0.1046
  644MOL0     H86929  11.871   4.030   6.574 -0.6568  0.5436  2.0859
  644MOL0     H86930  11.960   4.007   6.326  1.8489 -0.9368 -0.9808
  644MOL0     H86931  11.971   3.887   6.449  3.1307 -0.1637 -0.6013
  644MOL0     H86932  11.956   3.813   6.150  1.9847 -0.6040 -1.4638
  644MOL0     H86933  12.005   3.706   6.287  0.8145 -0.7509 -1.7724
  644MOL0     H86934  12.176   3.909   6.133 -1.5638 -0.8498 -0.6137
  644MOL0     H86935  12.198   3.737   6.154  0.9156  0.8267 -1.1997
  644MOL0     H86936  12.215   3.765   6.399 -1.3320 -1.4018 -1.5529
  644MOL0     H86937  12.226   3.932   6.378  2.6392 -0.8706  2.1740
  644MOL0     H86938  12.616   3.817   6.293 -0.2424  0.0997 -1.4883
  644MOL0     H86939  11.541   3.878   6.338  2.1522 -2.1836  1.6744
  644MOL0     H86940  11.385   3.988   6.484 -0.9963  2.1497  0.3623
  645MOL0     O86941   3.289   5.279   4.228 -0.0284 -0.2492 -0.0519
  645MOL0     C86942   3.223   5.262   4.128 -0.1151  0.3130  0.6684
  645MOL0     O86943   3.187   5.351   4.031 -0.4196  0.1835 -0.8806
  645MOL0     C86944   3.196   5.489   4.063 -0.2257  0.4953  0.6043
  645MOL0     C86945   3.197   5.566   3.946 -0.0506 -0.0134  0.5534
  645MOL0     C86946   3.184   5.703   3.948 -0.2414 -0.2060 -1.2853
  645MOL0     C86947   3.187   5.768   4.073 -0.5197  0.1167  1.3926
  645MOL0     O86948   3.175   5.897   4.081 -0.5823 -1.1390 -0.0972
  645MOL0     C86949   3.283   5.976   4.022 -0.7045  0.5632  0.1008
  645MOL0     C86950   3.223   6.111   4.012 -0.6619 -0.3298 -0.7339
  645MOL0     C86951   3.177   6.167   4.145  1.1319 -0.1600  0.3716
  645MOL0     C86952   3.168   6.313   4.162 -0.3295  0.0588 -0.5545
  645MOL0     C86953   3.115   6.360   4.289 -0.0013 -0.7070  0.5363
  645MOL0     C86954   3.129   6.513   4.298  0.1246  0.7080 -0.0489
  645MOL0     C86955   3.079   6.559   4.439 -0.2875  0.3617  0.2421
  645MOL0     C86956   3.133   6.696   4.479 -0.0455  0.8472  0.0130
  645MOL0     N86957   3.101   6.729   4.618  0.7016  0.4068  0.3327
  645MOL0     C86958   2.973   6.758   4.668 -0.1952 -1.0075 -0.4496
  645MOL0     C86959   2.994   6.749   4.806 -0.3352 -0.0829 -0.3333
  645MOL0     C86960   2.911   6.796   4.918  0.6765  0.2322  0.0146
  645MOL0     C86961   2.782   6.716   4.944 -0.1014 -0.7783 -0.4214
  645MOL0     C86962   2.817   6.582   5.011 -0.6173  0.4893  0.7863
  645MOL0     C86963   2.754   6.569   5.146  0.4248  0.4888 -0.5692
  645MOL0     O86964   2.772   6.433   5.192  0.6309 -0.1110  0.9903
  645MOL0     C86965   2.649   6.375   5.211  0.1341  0.2975 -1.1092
  645MOL0     C86966   2.600   6.391   5.337  0.2758  1.0521 -0.5375
  645MOL0     C86967   2.489   6.318   5.378  0.3190 -0.4790  0.5462
  645MOL0     C86968   2.442   6.336   5.523  1.3028 -0.0626 -0.9020
  645MOL0     C86969   2.427   6.232   5.286  0.2218 -0.2338  0.8575
  645MOL0     C86970   2.305   6.155   5.324  0.1210 -0.4383  0.1290
  645MOL0     O86971   2.336   6.021   5.364 -0.2897 -0.5326 -0.2788
  645MOL0     C86972   2.249   5.953   5.433 -0.2195  0.1548  0.1224
  645MOL0     C86973   2.185   6.007   5.548 -1.5724  0.0204  0.2042
  645MOL0     C86974   2.102   5.939   5.623 -0.1964  0.6437  0.7891
  645MOL0     C86975   2.066   5.806   5.585  0.1598  0.5296  0.2432
  645MOL0     O86976   1.986   5.726   5.667 -0.2560  0.0297 -0.4923
  645MOL0     C86977   1.888   5.782   5.768  0.2793  0.2355  0.4681
  645MOL0     C86978   1.956   5.769   5.905  0.3785 -0.3645  0.7765
  645MOL0     C86979   1.874   5.836   6.014  1.2849  0.8524  0.3048
  645MOL0     C86980   1.725   5.799   6.018 -0.1943  0.0878  0.8331
  645MOL0     C86981   1.670   5.827   6.155 -0.8492  0.0337  0.0589
  645MOL0     C86982   1.524   5.786   6.157 -0.7754  0.5644  0.2591
  645MOL0     C86983   1.432   5.836   6.271 -0.8716 -0.2889 -0.6390
  645MOL0     C86984   1.450   5.760   6.406 -0.6549 -0.3112 -0.0729
  645MOL0    Cl86985   1.613   5.775   6.477 -0.8715 -0.0260  0.0380
  645MOL0     C86986   2.125   5.748   5.470 -0.4940 -0.1668 -0.7875
  645MOL0     C86987   2.218   5.825   5.396  0.8742  1.5190 -0.7789
  645MOL0     O86988   2.190   6.205   5.326  0.0393  0.9720 -0.5019
  645MOL0     C86989   2.476   6.212   5.158  0.0025 -0.1172  0.0892
  645MOL0     C86990   2.588   6.286   5.113  0.4856  0.4525 -0.1229
  645MOL0     N86991   3.125   6.731   4.831 -0.2808  0.5592  0.3226
  645MOL0     N86992   3.182   6.706   4.721 -0.3421 -0.5920 -0.0919
  645MOL0     C86993   3.208   5.693   4.186  0.1851 -0.1926 -0.5255
  645MOL0     C86994   3.212   5.554   4.183  0.0644 -0.4650  0.4142
  645MOL0     C86995   3.168   5.128   4.100 -0.3471  0.1166 -0.0917
  645MOL0     C86996   3.216   5.016   4.165  0.3077  0.2491  0.2326
  645MOL0     C86997   3.157   4.894   4.139  0.2874  0.2858  1.0396
  645MOL0     C86998   3.048   4.866   4.053 -0.0979  0.0685  0.4201
  645MOL0     O86999   2.991   4.736   4.053 -0.8768  0.3299  0.1912
  645MOL0     C87000   2.902   4.708   3.951  0.3484  0.7105 -0.4059
  645MOL0     C87001   2.854   4.561   3.965 -0.2212 -0.0357  0.4934
  645MOL0     C87002   2.745   4.529   3.854 -0.0984  1.5088 -0.7213
  645MOL0     C87003   2.738   4.383   3.830  0.9669  0.7773  0.5130
  645MOL0     C87004   2.829   4.328   3.729  0.0098 -0.2471  0.7562
  645MOL0     C87005   2.921   4.294   3.656  0.5676 -0.3633 -0.0447
  645MOL0     C87006   3.003   4.972   3.980  0.8017  0.1200  0.3469
  645MOL0     C87007   3.056   5.102   4.010 -0.4581 -1.2789 -1.1765
  645MOL0     H87008   3.204   5.509   3.854  1.2742 -0.2179  0.7549
  645MOL0     H87009   3.188   5.764   3.858  1.6214  0.5276 -0.7558
  645MOL0     H87010   3.372   5.977   4.086  1.1214  1.0102 -2.2889
  645MOL0     H87011   3.322   5.940   3.926  0.2598  1.9749 -0.0651
  645MOL0     H87012   3.304   6.172   3.971  1.3856 -1.7937  0.9025
  645MOL0     H87013   3.143   6.099   3.938 -0.3630 -1.8473 -0.8369
  645MOL0     H87014   3.073   6.136   4.157  1.3527 -0.7772  0.7376
  645MOL0     H87015   3.232   6.128   4.231  1.0924  2.4495  1.7032
  645MOL0     H87016   3.271   6.347   4.153 -0.0421  0.5910  3.0642
  645MOL0     H87017   3.090   6.353   4.096 -2.2878 -1.9622  0.3906
  645MOL0     H87018   3.015   6.327   4.318 -0.3425  1.9216  2.8593
  645MOL0     H87019   3.172   6.314   4.370 -1.4562 -2.3119  0.7064
  645MOL0     H87020   3.234   6.542   4.291 -0.0492  1.1484 -1.0214
  645MOL0     H87021   3.076   6.559   4.214 -0.4562  3.5612  1.7421
  645MOL0     H87022   2.971   6.557   4.423 -0.0650  3.2210 -2.9381
  645MOL0     H87023   3.102   6.495   4.524 -0.5498 -1.6522 -1.1127
  645MOL0     H87024   3.101   6.769   4.404  0.0902 -1.1486 -2.1077
  645MOL0     H87025   3.242   6.686   4.473 -0.1497 -0.0175 -0.7342
  645MOL0     H87026   2.882   6.777   4.612  1.1633  0.3684 -2.3140
  645MOL0     H87027   2.966   6.811   5.011 -1.3241 -3.7327  2.0978
  645MOL0     H87028   2.885   6.899   4.891  2.0486  2.2008  4.9756
  645MOL0     H87029   2.735   6.704   4.846 -0.5468 -0.5892 -0.2337
  645MOL0     H87030   2.722   6.768   5.019 -1.3815 -0.7001 -1.4616
  645MOL0     H87031   2.926   6.583   5.021 -0.6927  1.1250  1.6412
  645MOL0     H87032   2.796   6.497   4.946  2.4123  1.8085 -2.1986
  645MOL0     H87033   2.647   6.586   5.133 -0.4955 -3.7399  0.0349
  645MOL0     H87034   2.808   6.642   5.207  2.6609  4.5643 -6.4146
  645MOL0     H87035   2.658   6.448   5.409  0.3275 -1.5691  1.6200
  645MOL0     H87036   2.511   6.384   5.592  2.4918 -0.2852 -1.9003
  645MOL0     H87037   2.340   6.376   5.525  1.3184 -0.0562  0.3466
  645MOL0     H87038   2.426   6.240   5.573 -2.7975  1.3338  0.9355
  645MOL0     H87039   2.201   6.111   5.572 -2.5526  0.0504  0.7798
  645MOL0     H87040   2.065   5.991   5.711  0.5486  1.0148  0.8874
  645MOL0     H87041   1.861   5.885   5.742  1.5537  0.1695 -1.3106
  645MOL0     H87042   1.792   5.731   5.757  0.2385 -0.1590  2.2874
  645MOL0     H87043   1.977   5.665   5.933 -2.2470 -1.3821 -0.6862
  645MOL0     H87044   2.053   5.817   5.893  0.1479  0.0165  0.3757
  645MOL0     H87045   1.880   5.945   6.006  1.1056  0.6846 -4.1948
  645MOL0     H87046   1.917   5.810   6.111 -4.0120  0.1625  2.8399
  645MOL0     H87047   1.671   5.849   5.937 -1.3660 -0.3940  1.2899
  645MOL0     H87048   1.717   5.694   5.989  3.1147  0.5589 -2.7451
  645MOL0     H87049   1.682   5.930   6.189  0.7842 -0.8476  2.3952
  645MOL0     H87050   1.724   5.770   6.232  1.7026 -1.2225 -2.4628
  645MOL0     H87051   1.472   5.844   6.080 -0.9420  0.5355  0.3483
  645MOL0     H87052   1.509   5.683   6.123  0.9801  0.5602 -0.6357
  645MOL0     H87053   1.329   5.815   6.242 -0.7575 -1.4278 -0.2757
  645MOL0     H87054   1.446   5.945   6.276  0.5091 -0.4210 -1.0742
  645MOL0     H87055   1.433   5.653   6.392 -3.0766 -0.1233  1.0187
  645MOL0     H87056   1.377   5.787   6.482 -1.8316 -2.8980 -0.1858
  645MOL0     H87057   2.090   5.646   5.457  0.7653 -0.5677 -1.1286
  645MOL0     H87058   2.269   5.788   5.308  0.1324  1.9519 -1.3957
  645MOL0     H87059   2.446   6.137   5.086 -2.1350  2.1471 -1.5324
  645MOL0     H87060   2.633   6.270   5.016 -1.8501 -0.7570 -1.0750
  645MOL0     H87061   3.201   5.751   4.277 -1.5604  1.1660 -1.4394
  645MOL0     H87062   3.242   5.500   4.273  3.9044  2.6429  1.2848
  645MOL0     H87063   3.300   5.025   4.234  1.0572  0.9199 -0.7490
  645MOL0     H87064   3.193   4.807   4.193  3.7562  1.6906  1.1937
  645MOL0     H87065   2.817   4.777   3.949 -0.7078 -0.4096  1.8579
  645MOL0     H87066   2.948   4.723   3.853 -0.6528 -0.9177 -1.1756
  645MOL0     H87067   2.809   4.547   4.064 -2.5429  1.3582 -0.2915
  645MOL0     H87068   2.927   4.481   3.949 -2.6086 -2.3254  0.3812
  645MOL0     H87069   2.763   4.586   3.762 -0.0130 -0.3906 -1.9461
  645MOL0     H87070   2.643   4.540   3.893 -0.2461  1.3135 -1.0480
  645MOL0     H87071   2.642   4.351   3.788  1.9522 -1.2460 -0.3487
  645MOL0     H87072   2.740   4.324   3.923 -0.1656 -0.2155 -0.0661
  645MOL0     H87073   3.006   4.266   3.598  2.8591  2.3710  1.7224
  645MOL0     H87074   2.919   4.974   3.911 -1.1559  0.5348  2.6043
  645MOL0     H87075   3.018   5.193   3.965  1.3558 -0.5782 -1.3510
  646MOL0     O87076   3.950   9.785   7.585  0.2761  0.1459 -0.0505
  646MOL0     C87077   3.855   9.698   7.599  0.0202 -0.4382  0.9629
  646MOL0     O87078   3.729   9.729   7.618 -0.3287  0.1425  0.1485
  646MOL0     C87079   3.672   9.848   7.586 -0.3934 -0.0788 -0.0184
  646MOL0     C87080   3.722   9.937   7.484 -0.2284 -0.3507 -0.7742
  646MOL0     C87081   3.672  10.063   7.481  0.3270 -0.0528  0.8921
  646MOL0     C87082   3.556  10.096   7.548  0.8390  0.4540 -0.2425
  646MOL0     O87083   3.490  10.212   7.554 -0.2089 -0.1123  0.0734
  646MOL0     C87084   3.561  10.329   7.525  0.2915  0.2898  0.0485
  646MOL0     C87085   3.505  10.389   7.396  0.7023 -0.7562  0.4189
  646MOL0     C87086   3.551  10.532   7.374  0.5332  0.0565  1.2873
  646MOL0     C87087   3.485  10.598   7.247  0.0723 -0.0705 -1.1613
  646MOL0     C87088   3.542  10.733   7.207 -0.0950  0.7887 -0.5801
  646MOL0     C87089   3.509  10.763   7.060  0.8393  0.5296 -0.1217
  646MOL0     C87090   3.542  10.917   7.021  0.5718 -0.0231 -0.6106
  646MOL0     C87091   3.548  10.918   6.876 -0.1400  0.1037  0.6418
  646MOL0     N87092   3.588  11.046   6.805  0.6864  0.2280  0.1869
  646MOL0     C87093   3.506  11.149   6.764  0.0197  0.8834 -1.1477
  646MOL0     C87094   3.586  11.244   6.728  0.8106 -0.0205  0.2180
  646MOL0     C87095   3.548  11.397   6.706 -0.5770  0.7692 -0.9517
  646MOL0     C87096   3.519  11.427   6.556 -0.0720 -0.5264  0.5006
  646MOL0     C87097   3.497  11.575   6.520 -0.1699  0.2016  0.0617
  646MOL0     C87098   3.402  11.652   6.611  0.5070  0.1898  0.5575
  646MOL0     O87099   3.347  11.772   6.548 -0.0684 -0.9940  0.6856
  646MOL0     C87100   3.273  11.772   6.426  0.0103 -0.4851  0.4931
  646MOL0     C87101   3.283  11.877   6.342 -0.2015  0.4931  0.5805
  646MOL0     C87102   3.192  11.906   6.236  0.2874 -0.2246  0.6744
  646MOL0     C87103   3.222  12.026   6.155  0.0550 -0.4059  0.5837
  646MOL0     C87104   3.090  11.822   6.207 -0.2459  0.9203  0.2181
  646MOL0     C87105   3.007  11.812   6.092 -0.4588  0.9070 -0.0555
  646MOL0     O87106   2.877  11.813   6.115 -0.4242 -0.8288 -0.0942
  646MOL0     C87107   2.794  11.776   6.011 -0.4708 -0.0401 -1.2462
  646MOL0     C87108   2.794  11.857   5.904 -0.3720 -0.1205  0.8386
  646MOL0     C87109   2.734  11.814   5.787 -0.7851  0.8265  0.9497
  646MOL0     C87110   2.688  11.680   5.777 -0.3352 -0.0555 -0.6782
  646MOL0     O87111   2.637  11.621   5.666 -0.1304  0.0959 -0.4535
  646MOL0     C87112   2.502  11.664   5.645  0.6826 -0.0743  0.0432
  646MOL0     C87113   2.436  11.605   5.518 -1.0088 -0.6787 -0.5130
  646MOL0     C87114   2.317  11.686   5.460 -0.8084  0.2443  0.1976
  646MOL0     C87115   2.380  11.820   5.414  0.9789 -0.7806 -0.0515
  646MOL0     C87116   2.270  11.886   5.314 -0.4501  0.1994 -0.0378
  646MOL0     C87117   2.140  11.923   5.384 -0.3218 -0.7857  0.0068
  646MOL0     C87118   2.051  12.003   5.286 -1.0302  0.2938  0.2862
  646MOL0     C87119   1.900  12.003   5.324  0.4387  0.5328  0.5978
  646MOL0    Cl87120   1.867  12.037   5.495 -0.1113  0.3994  0.2403
  646MOL0     C87121   2.701  11.591   5.889  0.0391 -0.1448 -0.1471
  646MOL0     C87122   2.742  11.647   6.011  0.0823 -0.3795  0.7032
  646MOL0     O87123   3.061  11.797   5.981 -0.1130  0.6601  0.1037
  646MOL0     C87124   3.073  11.709   6.295 -0.2841  0.0396 -0.7884
  646MOL0     C87125   3.160  11.693   6.409 -0.2519  0.5601  0.4160
  646MOL0     N87126   3.716  11.209   6.756 -0.0177 -0.4019  0.0313
  646MOL0     N87127   3.716  11.090   6.818 -0.0985 -0.6429  0.4666
  646MOL0     C87128   3.487  10.002   7.620 -0.0197  1.2983 -0.5488
  646MOL0     C87129   3.549   9.872   7.643 -0.2328 -0.4972 -0.2830
  646MOL0     C87130   3.890   9.554   7.588 -0.4499 -0.5836  0.1979
  646MOL0     C87131   4.011   9.513   7.537  0.5957 -0.4482  0.2466
  646MOL0     C87132   4.043   9.382   7.518 -0.3739  0.6357  0.0372
  646MOL0     C87133   3.947   9.282   7.543  1.0342  0.0091 -0.7306
  646MOL0     O87134   3.976   9.156   7.542 -0.0018 -0.2884 -0.1484
  646MOL0     C87135   4.073   9.109   7.640 -0.6701  0.1740  0.1277
  646MOL0     C87136   4.114   8.970   7.620  0.0810  0.2450  0.2577
  646MOL0     C87137   4.236   8.934   7.689 -0.0912  1.2179  0.0677
  646MOL0     C87138   4.213   8.834   7.797  0.2297 -0.8062 -0.4858
  646MOL0     C87139   4.163   8.925   7.903  0.4256  0.4201 -0.5262
  646MOL0     C87140   4.140   8.990   8.003  1.3979 -0.0989  0.0889
  646MOL0     C87141   3.828   9.327   7.595  0.2879  0.3776  0.2923
  646MOL0     C87142   3.801   9.458   7.628 -0.6238  0.0054  0.0984
  646MOL0     H87143   3.804   9.910   7.418  0.8697  0.8167  0.0759
  646MOL0     H87144   3.710  10.141   7.416  0.3799 -2.3531 -2.0427
  646MOL0     H87145   3.533  10.391   7.610  1.2395 -0.4859  0.9461
  646MOL0     H87146   3.670  10.325   7.516  0.1964  1.6740 -3.4487
  646MOL0     H87147   3.520  10.319   7.313 -1.6278  0.2429 -0.9528
  646MOL0     H87148   3.396  10.397   7.400  0.3657 -2.8736 -1.6804
  646MOL0     H87149   3.524  10.600   7.455 -0.9906  2.7350 -1.2400
  646MOL0     H87150   3.660  10.540   7.367  0.4248  1.2598  0.4338
  646MOL0     H87151   3.498  10.535   7.158 -1.9279 -0.4115 -1.2532
  646MOL0     H87152   3.377  10.613   7.250  0.1393  0.8725 -2.6006
  646MOL0     H87153   3.512  10.813   7.276  1.4161  1.4821 -0.6912
  646MOL0     H87154   3.651  10.723   7.215 -0.1174 -0.9256 -1.8586
  646MOL0     H87155   3.531  10.679   6.993 -2.1075  1.0528 -1.9186
  646MOL0     H87156   3.400  10.764   7.061  0.8085  2.3945 -1.0096
  646MOL0     H87157   3.465  10.989   7.051  0.3237 -0.5754  0.0956
  646MOL0     H87158   3.642  10.946   7.054  0.1778  1.4456 -0.6527
  646MOL0     H87159   3.450  10.891   6.837 -0.4216 -1.4677  2.2968
  646MOL0     H87160   3.605  10.830   6.847 -3.0989 -1.8622  0.4161
  646MOL0     H87161   3.398  11.152   6.753 -0.2347 -2.1803 -0.4048
  646MOL0     H87162   3.456  11.415   6.763  1.2949  2.3317  1.8174
  646MOL0     H87163   3.624  11.462   6.750  1.2720 -2.1361  0.4392
  646MOL0     H87164   3.426  11.379   6.524 -2.1452  2.7952  1.0326
  646MOL0     H87165   3.608  11.398   6.500  1.4281  0.0559  2.4443
  646MOL0     H87166   3.462  11.576   6.416  1.0778 -4.4961 -0.6336
  646MOL0     H87167   3.594  11.625   6.514  0.4926 -0.8340  1.7663
  646MOL0     H87168   3.446  11.673   6.708 -1.0439 -0.4408  1.4323
  646MOL0     H87169   3.314  11.591   6.634 -0.6929  1.4356 -0.4997
  646MOL0     H87170   3.369  11.932   6.380 -0.0968  1.9996 -1.6808
  646MOL0     H87171   3.225  12.015   6.046 -0.3810  2.7069  0.1775
  646MOL0     H87172   3.148  12.106   6.160  1.2895  0.7878  0.4084
  646MOL0     H87173   3.320  12.065   6.185  1.1509 -1.7379 -1.0153
  646MOL0     H87174   2.841  11.956   5.906  0.2773 -0.3915 -0.1475
  646MOL0     H87175   2.759  11.877   5.702  4.3889  0.2322  1.6917
  646MOL0     H87176   2.449  11.640   5.737  0.4246  0.4722  0.0388
  646MOL0     H87177   2.509  11.772   5.628 -2.0570 -0.0191 -1.2846
  646MOL0     H87178   2.517  11.604   5.444  0.0340  0.8127  0.5530
  646MOL0     H87179   2.411  11.501   5.540  3.1360 -1.1097  3.9138
  646MOL0     H87180   2.241  11.713   5.534 -0.8649 -1.0906  0.6557
  646MOL0     H87181   2.269  11.636   5.375 -3.4430 -1.5821  2.5583
  646MOL0     H87182   2.398  11.886   5.500  0.5872 -2.3224  1.2790
  646MOL0     H87183   2.475  11.808   5.361  2.2738  1.4035  1.5515
  646MOL0     H87184   2.256  11.806   5.241 -2.3094 -0.0641  0.5546
  646MOL0     H87185   2.308  11.978   5.270 -1.4372  0.6401  0.0189
  646MOL0     H87186   2.091  11.828   5.409  2.9951 -2.7456 -0.3950
  646MOL0     H87187   2.150  11.977   5.479 -0.1706  1.3315 -1.1561
  646MOL0     H87188   2.057  11.964   5.184 -1.8591  3.6890 -1.2156
  646MOL0     H87189   2.089  12.104   5.267 -0.2814 -0.2897 -1.5294
  646MOL0     H87190   1.864  11.902   5.307 -0.9555  1.2253 -0.9169
  646MOL0     H87191   1.851  12.066   5.249  1.1228 -0.9390 -1.1669
  646MOL0     H87192   2.688  11.484   5.879 -0.5221 -0.2766  1.7573
  646MOL0     H87193   2.746  11.573   6.090 -0.2937 -3.4805 -1.9400
  646MOL0     H87194   2.993  11.637   6.282  0.5977 -1.1135  0.0468
  646MOL0     H87195   3.119  11.621   6.479 -0.4006  0.5229  0.2909
  646MOL0     H87196   3.390  10.025   7.664 -0.8114 -2.9864  0.4265
  646MOL0     H87197   3.495   9.811   7.715  0.1779 -1.2695 -0.6219
  646MOL0     H87198   4.094   9.581   7.519  1.2979 -0.4805  2.9281
  646MOL0     H87199   4.142   9.349   7.487 -1.5958 -1.4414 -1.9141
  646MOL0     H87200   4.160   9.171   7.614 -1.9576  0.9823 -2.5830
  646MOL0     H87201   4.043   9.131   7.743 -3.1206 -0.4595 -0.3867
  646MOL0     H87202   4.117   8.951   7.512 -3.2329 -1.2359  0.2909
  646MOL0     H87203   4.027   8.914   7.656 -1.6083  2.1004 -0.7831
  646MOL0     H87204   4.303   9.015   7.720  3.2102 -0.8441 -1.1243
  646MOL0     H87205   4.296   8.882   7.614  0.3598  1.6408  0.1259
  646MOL0     H87206   4.310   8.789   7.821  1.3486  1.5536 -0.3160
  646MOL0     H87207   4.139   8.758   7.771 -1.8905  0.8983  0.2281
  646MOL0     H87208   4.122   9.049   8.090  0.6527 -0.9610  0.5333
  646MOL0     H87209   3.759   9.248   7.620  1.3951 -0.8782 -0.5331
  646MOL0     H87210   3.705   9.491   7.667  0.2490  1.9407  0.7300
  647MOL0     O87211   6.824   4.473   1.928  0.2567 -0.0868  0.1939
  647MOL0     C87212   6.771   4.490   1.817 -0.1326 -0.2768  0.5240
  647MOL0     O87213   6.796   4.598   1.729  0.2513 -0.5915 -0.4753
  647MOL0     C87214   6.855   4.720   1.768 -0.1476 -0.3641 -0.1453
  647MOL0     C87215   6.833   4.823   1.677  0.0767  0.9668  0.1824
  647MOL0     C87216   6.904   4.942   1.679  0.8834 -0.1062  0.1867
  647MOL0     C87217   6.986   4.977   1.786 -0.2200 -0.5584 -1.3497
  647MOL0     O87218   7.054   5.096   1.783 -0.2724 -0.6911 -0.5294
  647MOL0     C87219   7.131   5.139   1.894 -0.2431 -1.0356  0.0264
  647MOL0     C87220   7.190   5.276   1.854  0.4566  0.2698  1.1408
  647MOL0     C87221   7.265   5.346   1.967  0.8548 -0.6513  0.2311
  647MOL0     C87222   7.376   5.444   1.918  0.3620  0.5281  0.1580
  647MOL0     C87223   7.477   5.510   2.012 -0.5242  0.0148  0.6089
  647MOL0     C87224   7.413   5.633   2.079 -0.7503 -0.4823  1.3023
  647MOL0     C87225   7.520   5.692   2.161 -0.0531  0.2212  0.2892
  647MOL0     C87226   7.457   5.802   2.249  0.1536 -0.0109 -0.8586
  647MOL0     N87227   7.555   5.849   2.357  0.7973  0.4721 -0.9544
  647MOL0     C87228   7.576   5.804   2.486 -0.2207 -0.2977  0.2310
  647MOL0     C87229   7.669   5.893   2.536 -0.2922  0.2811 -0.4499
  647MOL0     C87230   7.716   5.879   2.680 -0.4085  0.6703 -0.2044
  647MOL0     C87231   7.831   5.979   2.710  0.9174 -0.1871  0.0868
  647MOL0     C87232   7.967   5.952   2.650  0.2984  0.9154  0.4989
  647MOL0     C87233   8.076   6.058   2.671  0.6693  0.3457  0.0617
  647MOL0     O87234   8.093   6.079   2.814 -0.2313  0.6936  0.4139
  647MOL0     C87235   8.171   6.187   2.841  0.3434 -0.9798  0.7152
  647MOL0     C87236   8.308   6.175   2.861  0.1930  0.8720  0.1019
  647MOL0     C87237   8.389   6.278   2.927  0.3944  0.6713 -0.3363
  647MOL0     C87238   8.529   6.257   2.968 -0.1809  0.2275  0.5415
  647MOL0     C87239   8.325   6.393   2.959  0.7400 -0.2625 -0.2473
  647MOL0     C87240   8.401   6.507   3.024  0.4553  0.9227 -0.3656
  647MOL0     O87241   8.449   6.609   2.950 -0.3805 -0.3919 -0.0001
  647MOL0     C87242   8.515   6.711   3.029  0.9629  0.4000  0.4066
  647MOL0     C87243   8.461   6.832   3.030  0.7403 -1.0882  0.2566
  647MOL0     C87244   8.514   6.948   3.094 -0.1971 -0.5153 -0.3351
  647MOL0     C87245   8.632   6.930   3.168 -0.1494 -0.0606  0.0209
  647MOL0     O87246   8.681   7.035   3.246 -0.5778 -0.0631  0.4932
  647MOL0     C87247   8.607   7.162   3.276 -0.4877 -0.3236 -0.3231
  647MOL0     C87248   8.488   7.150   3.371 -1.0914 -0.3578 -0.1804
  647MOL0     C87249   8.530   7.061   3.496 -0.3448 -0.2017  0.3479
  647MOL0     C87250   8.410   6.974   3.534  0.1020 -0.4236  0.4364
  647MOL0     C87251   8.452   6.896   3.663  0.3551  0.1553  0.1578
  647MOL0     C87252   8.321   6.841   3.730 -0.1289  0.7215  0.4431
  647MOL0     C87253   8.369   6.729   3.825  0.5225 -0.2103 -0.4098
  647MOL0     C87254   8.260   6.688   3.927  0.2637  0.3528 -0.2076
  647MOL0    Cl87255   8.111   6.631   3.839  0.0827 -0.0065 -0.1647
  647MOL0     C87256   8.690   6.807   3.165 -0.1617  0.2646 -0.1081
  647MOL0     C87257   8.634   6.698   3.099  0.5864 -0.3809 -0.1363
  647MOL0     O87258   8.386   6.511   3.148 -0.0013 -0.4063 -0.6306
  647MOL0     C87259   8.189   6.423   2.929 -0.4833  0.1420 -0.1759
  647MOL0     C87260   8.112   6.317   2.878 -0.1497 -0.0816  0.1740
  647MOL0     N87261   7.709   5.984   2.435 -0.2322  1.3661 -0.3106
  647MOL0     N87262   7.635   5.957   2.335 -0.1096 -0.1126 -0.4987
  647MOL0     C87263   6.992   4.883   1.891  0.2707  1.2268  0.2673
  647MOL0     C87264   6.932   4.754   1.884 -0.4771  0.3314  0.9534
  647MOL0     C87265   6.659   4.407   1.771  0.0077 -0.5586  0.4876
  647MOL0     C87266   6.561   4.469   1.693  0.5100 -0.0639 -0.0818
  647MOL0     C87267   6.450   4.391   1.640 -0.1379 -0.1108 -0.2820
  647MOL0     C87268   6.442   4.253   1.669 -0.2200  0.0007 -0.4295
  647MOL0     O87269   6.332   4.174   1.623  0.3564 -0.4428  0.2613
  647MOL0     C87270   6.212   4.209   1.681 -0.2752  0.0669  0.0194
  647MOL0     C87271   6.203   4.177   1.830  0.6284 -0.8172 -0.8583
  647MOL0     C87272   6.247   4.040   1.861 -0.3969 -0.5691 -0.6943
  647MOL0     C87273   6.154   3.989   1.974  0.3555  0.6548  0.4378
  647MOL0     C87274   6.180   3.852   2.003  0.3494  0.9842 -0.8414
  647MOL0     C87275   6.173   3.736   2.034 -0.4720 -0.4580 -0.8509
  647MOL0     C87276   6.544   4.199   1.730  0.2075 -0.2539 -1.0935
  647MOL0     C87277   6.654   4.270   1.791 -1.8347  0.0050  0.4303
  647MOL0     H87278   6.776   4.808   1.586  1.4003  0.8647 -0.6545
  647MOL0     H87279   6.890   5.010   1.596 -0.3432 -1.4111 -0.6975
  647MOL0     H87280   7.064   5.154   1.979 -1.9195  3.0070 -1.7684
  647MOL0     H87281   7.211   5.066   1.911  1.2495  0.6564  0.6421
  647MOL0     H87282   7.255   5.268   1.767  1.1061  1.3011  1.5157
  647MOL0     H87283   7.116   5.352   1.825  0.6880  0.6491  1.5174
  647MOL0     H87284   7.196   5.387   2.041 -3.1824  0.2326 -3.5831
  647MOL0     H87285   7.313   5.261   2.018 -0.6923 -0.5164  2.0245
  647MOL0     H87286   7.429   5.384   1.843 -1.2997 -0.2618 -0.4219
  647MOL0     H87287   7.316   5.522   1.872 -2.7474 -0.8426  1.5967
  647MOL0     H87288   7.522   5.432   2.074 -1.9578 -1.7389 -0.4661
  647MOL0     H87289   7.551   5.564   1.952 -2.1204  3.0649  1.1810
  647MOL0     H87290   7.383   5.714   2.011  2.3845  0.5059  0.9499
  647MOL0     H87291   7.322   5.604   2.133 -0.1790 -1.5540  1.7087
  647MOL0     H87292   7.570   5.625   2.232 -1.1286 -0.3621  0.5174
  647MOL0     H87293   7.593   5.737   2.093  2.1436 -1.5176  1.3437
  647MOL0     H87294   7.370   5.760   2.302  2.0445 -2.1119  0.7941
  647MOL0     H87295   7.429   5.880   2.178 -0.5346 -1.0172 -1.7315
  647MOL0     H87296   7.528   5.726   2.545 -0.6858  0.4320  0.8312
  647MOL0     H87297   7.629   5.905   2.740 -0.8877  0.2241 -0.6962
  647MOL0     H87298   7.745   5.773   2.687 -1.1985  0.2629 -2.2724
  647MOL0     H87299   7.838   5.982   2.819  1.1304  0.4812  0.0570
  647MOL0     H87300   7.803   6.080   2.679  0.2961 -0.0528  1.0217
  647MOL0     H87301   7.960   5.923   2.545  1.3622 -0.4651  0.7849
  647MOL0     H87302   8.006   5.868   2.708 -1.1347  1.5815  2.5725
  647MOL0     H87303   8.049   6.155   2.629 -2.0370 -0.9096 -1.3740
  647MOL0     H87304   8.169   6.029   2.621  0.2845  2.5268 -2.0927
  647MOL0     H87305   8.372   6.094   2.830 -0.4590  0.2325  0.3941
  647MOL0     H87306   8.598   6.339   2.990  0.2389  0.0736 -0.1720
  647MOL0     H87307   8.540   6.184   3.049 -1.3504 -0.2463  0.3046
  647MOL0     H87308   8.572   6.206   2.881  0.9597 -0.6546  1.5830
  647MOL0     H87309   8.368   6.852   2.977  1.4422  1.3728 -0.2101
  647MOL0     H87310   8.460   7.042   3.089 -1.3024 -0.9792  1.7585
  647MOL0     H87311   8.682   7.218   3.333 -1.0164  1.3455 -1.2039
  647MOL0     H87312   8.578   7.218   3.186 -1.7096  0.0248  0.2687
  647MOL0     H87313   8.449   7.243   3.414 -3.2234 -1.2627 -0.0711
  647MOL0     H87314   8.416   7.110   3.300  1.6784  0.0082 -3.4824
  647MOL0     H87315   8.564   7.124   3.579 -0.2179 -1.7753  1.5178
  647MOL0     H87316   8.618   6.997   3.486  0.7465  1.0209  1.5885
  647MOL0     H87317   8.320   7.035   3.553  0.9405  0.3773  2.0261
  647MOL0     H87318   8.395   6.904   3.452 -0.8462  0.9170 -0.5992
  647MOL0     H87319   8.495   6.966   3.736 -1.8696  0.2847  1.4073
  647MOL0     H87320   8.527   6.820   3.636  1.6194  1.2775  0.3773
  647MOL0     H87321   8.269   6.927   3.775  1.0326  1.7028 -0.0467
  647MOL0     H87322   8.260   6.790   3.654  1.5910  0.8115 -1.0443
  647MOL0     H87323   8.462   6.748   3.877 -0.5690 -1.5476  2.2115
  647MOL0     H87324   8.374   6.643   3.757  0.0378 -0.5102 -0.0710
  647MOL0     H87325   8.237   6.768   3.998 -3.0483  0.2912 -1.0776
  647MOL0     H87326   8.301   6.609   3.990  1.7962  0.1308 -1.4021
  647MOL0     H87327   8.782   6.789   3.221  2.3559  1.8986 -3.3868
  647MOL0     H87328   8.683   6.602   3.114 -2.8062 -1.9987  2.0055
  647MOL0     H87329   8.160   6.524   2.955  2.5316  0.6687  1.6478
  647MOL0     H87330   8.006   6.341   2.871 -0.6636 -2.1830  0.1367
  647MOL0     H87331   7.053   4.899   1.980  0.6432 -0.3984  0.3505
  647MOL0     H87332   6.952   4.677   1.957  0.1665 -1.3451 -0.9057
  647MOL0     H87333   6.552   4.573   1.665  2.2119  0.3997  0.8986
  647MOL0     H87334   6.369   4.445   1.593  0.9355  1.1795 -0.6997
  647MOL0     H87335   6.188   4.315   1.667 -1.7014 -0.0434  1.3915
  647MOL0     H87336   6.135   4.155   1.626 -2.0585  1.1139  1.3800
  647MOL0     H87337   6.104   4.204   1.866  2.3352  2.5825  1.8264
  647MOL0     H87338   6.274   4.237   1.887  0.6010 -1.2827 -0.3193
  647MOL0     H87339   6.352   4.039   1.892 -0.8346  1.5187  1.0480
  647MOL0     H87340   6.244   3.972   1.776  1.1388  0.1403 -1.3457
  647MOL0     H87341   6.048   3.996   1.949  0.8261  0.5469 -1.7409
  647MOL0     H87342   6.158   4.055   2.061  0.0118 -0.2223  1.1400
  647MOL0     H87343   6.178   3.640   2.081  3.9206  0.0371  0.1555
  647MOL0     H87344   6.533   4.095   1.757 -2.4224  0.4540  0.9743
  647MOL0     H87345   6.740   4.223   1.836 -0.9667  3.3729  2.7155
  648MOL0     O87346   6.276   7.805   5.816  0.0180  0.2153 -0.2287
  648MOL0     C87347   6.182   7.855   5.880 -0.6306  0.0234  0.0409
  648MOL0     O87348   6.180   7.981   5.920 -0.0707 -0.1198  0.6347
  648MOL0     C87349   6.274   8.071   5.877 -0.1731  0.7196  0.4960
  648MOL0     C87350   6.285   8.170   5.974  0.1998  0.3602  0.9718
  648MOL0     C87351   6.374   8.274   5.963 -0.8516  0.0654 -0.0267
  648MOL0     C87352   6.439   8.294   5.848  0.8566 -0.9252 -0.8262
  648MOL0     O87353   6.498   8.419   5.843  0.5554  0.3379 -0.3944
  648MOL0     C87354   6.569   8.436   5.724  0.2083  0.2633  0.2164
  648MOL0     C87355   6.665   8.567   5.736  0.1416  0.6089 -1.4382
  648MOL0     C87356   6.594   8.676   5.792  0.1310  0.1585  0.6512
  648MOL0     C87357   6.587   8.786   5.680 -0.8839 -0.5493 -0.2929
  648MOL0     C87358   6.544   8.929   5.739 -0.2342 -0.3230  1.2256
  648MOL0     C87359   6.596   9.050   5.663 -0.4544  0.0505  0.2626
  648MOL0     C87360   6.511   9.164   5.703 -0.0204 -0.2694  0.2571
  648MOL0     C87361   6.515   9.288   5.620 -0.1205  0.3950  0.3853
  648MOL0     N87362   6.639   9.357   5.650  0.1616  0.2098  0.6854
  648MOL0     C87363   6.675   9.467   5.581  0.1806 -0.3959  0.0986
  648MOL0     C87364   6.792   9.502   5.621 -0.0412 -0.2410  0.1673
  648MOL0     C87365   6.849   9.634   5.575 -0.0440  0.0189 -0.1315
  648MOL0     C87366   6.931   9.704   5.687  0.6016 -0.2656 -0.3265
  648MOL0     C87367   6.949   9.859   5.671 -0.1270  0.4627 -0.0477
  648MOL0     C87368   6.968   9.930   5.811  0.2684  0.2190 -0.4763
  648MOL0     O87369   6.851   9.913   5.883 -0.3980 -1.0632  0.3473
  648MOL0     C87370   6.840   9.923   6.013  0.4952 -0.0855  0.2433
  648MOL0     C87371   6.952   9.943   6.105 -0.4209 -0.2063 -0.3066
  648MOL0     C87372   6.944   9.918   6.244  0.0555 -0.4379  0.0349
  648MOL0     C87373   7.062   9.959   6.327 -0.8300 -0.2324  0.6609
  648MOL0     C87374   6.819   9.869   6.289 -0.5988 -0.3771  0.4163
  648MOL0     C87375   6.792   9.828   6.428  0.0558  0.5357  1.2723
  648MOL0     O87376   6.658   9.841   6.469 -0.0519 -1.1566  0.3935
  648MOL0     C87377   6.607   9.757   6.565 -0.7414 -0.2897 -0.3895
  648MOL0     C87378   6.661   9.752   6.690  0.0688 -0.6921 -0.0152
  648MOL0     C87379   6.596   9.675   6.789  0.4336 -0.2187 -0.5553
  648MOL0     C87380   6.483   9.605   6.770  0.3788 -0.0895 -0.7287
  648MOL0     O87381   6.412   9.520   6.845 -0.4486 -0.0970  0.0528
  648MOL0     C87382   6.433   9.531   6.988  0.0458 -0.9097 -0.7143
  648MOL0     C87383   6.328   9.426   7.036  0.4390  0.4776 -0.1570
  648MOL0     C87384   6.360   9.288   6.983  1.5341 -0.9331  0.1864
  648MOL0     C87385   6.314   9.166   7.073 -0.0806  0.1721  0.9217
  648MOL0     C87386   6.159   9.173   7.082 -0.3150  0.9578 -0.1948
  648MOL0     C87387   6.096   9.048   7.149 -0.4350 -0.0242 -0.5747
  648MOL0     C87388   6.061   8.932   7.057  0.2448  0.8503  0.5889
  648MOL0     C87389   5.966   8.843   7.144  0.7372  0.7294 -0.0829
  648MOL0    Cl87390   5.955   8.674   7.091 -0.0683  0.3673  0.2274
  648MOL0     C87391   6.425   9.607   6.642  0.0329  0.2530 -0.2447
  648MOL0     C87392   6.489   9.687   6.541  0.7106 -0.3682 -0.4829
  648MOL0     O87393   6.876   9.759   6.477 -0.0719  0.4548 -0.6041
  648MOL0     C87394   6.712   9.857   6.202 -0.9281  0.1159  0.0953
  648MOL0     C87395   6.717   9.888   6.065  0.2997 -0.9829 -0.8670
  648MOL0     N87396   6.836   9.412   5.722  0.2709 -0.0357  1.5507
  648MOL0     N87397   6.737   9.329   5.736 -0.1143 -0.5873 -0.1119
  648MOL0     C87398   6.394   8.205   5.741 -0.8450  0.8579  0.0298
  648MOL0     C87399   6.335   8.077   5.751  0.6205 -0.8377 -0.0392
  648MOL0     C87400   6.063   7.774   5.889 -0.0591 -0.2402  0.3644
  648MOL0     C87401   5.945   7.842   5.935  0.3370  0.8247  0.3437
  648MOL0     C87402   5.825   7.773   5.919  0.5440 -0.9667  0.2192
  648MOL0     C87403   5.809   7.639   5.871 -0.6807  0.1681  0.2336
  648MOL0     O87404   5.682   7.587   5.875  0.2371  0.0181 -0.0694
  648MOL0     C87405   5.624   7.595   5.750 -1.2307  0.1158  0.1206
  648MOL0     C87406   5.473   7.606   5.767  0.0140 -0.2232  0.6331
  648MOL0     C87407   5.416   7.689   5.659  0.2972  0.0068  0.1834
  648MOL0     C87408   5.296   7.772   5.690 -0.9352 -0.6247 -1.3290
  648MOL0     C87409   5.230   7.838   5.576 -0.2936  0.5727  0.0498
  648MOL0     C87410   5.162   7.874   5.480  0.0275  0.5516 -0.2521
  648MOL0     C87411   5.926   7.576   5.842 -0.2603  0.5153 -0.2468
  648MOL0     C87412   6.052   7.645   5.839 -0.7844  1.0580 -0.5644
  648MOL0     H87413   6.235   8.145   6.067  0.7962  1.2828  1.5420
  648MOL0     H87414   6.387   8.348   6.041 -0.9456 -1.1296  1.1455
  648MOL0     H87415   6.632   8.350   5.698 -2.1906 -2.0074  1.4778
  648MOL0     H87416   6.504   8.442   5.636  0.6018  0.6878 -0.0541
  648MOL0     H87417   6.731   8.545   5.820 -0.7666  3.0306  0.0328
  648MOL0     H87418   6.709   8.593   5.640  2.2392  2.3201 -0.1037
  648MOL0     H87419   6.498   8.650   5.837 -3.3399  2.6195 -4.4709
  648MOL0     H87420   6.657   8.720   5.870  0.2094  1.4979 -0.1296
  648MOL0     H87421   6.686   8.808   5.639 -0.6155 -0.8118  0.2071
  648MOL0     H87422   6.525   8.770   5.591  0.8691 -2.0960 -1.2999
  648MOL0     H87423   6.435   8.926   5.734 -0.1994 -2.6005  0.4150
  648MOL0     H87424   6.580   8.950   5.840 -1.0604  0.6274  1.3319
  648MOL0     H87425   6.698   9.074   5.694 -0.4655 -1.2713  1.4299
  648MOL0     H87426   6.584   9.029   5.556  2.6651 -1.1760  0.0431
  648MOL0     H87427   6.406   9.135   5.693 -0.2553  0.7032 -0.2821
  648MOL0     H87428   6.533   9.183   5.809  0.4155  1.1331 -0.0488
  648MOL0     H87429   6.425   9.346   5.644 -1.2599 -1.0220 -0.3562
  648MOL0     H87430   6.507   9.264   5.514 -1.3036 -0.6211  0.6726
  648MOL0     H87431   6.609   9.505   5.503 -1.0201 -1.3219  0.6207
  648MOL0     H87432   6.914   9.601   5.493  0.9662 -2.4311  1.5199
  648MOL0     H87433   6.768   9.694   5.534 -1.1338 -1.1010  0.3213
  648MOL0     H87434   7.027   9.653   5.696  0.2038 -0.6697  3.5567
  648MOL0     H87435   6.872   9.690   5.778  0.8941 -0.8648 -0.2281
  648MOL0     H87436   6.864   9.905   5.620  1.2137 -0.3403 -3.2963
  648MOL0     H87437   7.030   9.886   5.603 -3.3182  2.3316 -3.5016
  648MOL0     H87438   6.975  10.039   5.801  1.4240  0.1663 -0.3758
  648MOL0     H87439   7.055   9.888   5.863 -0.5180  1.4612  2.0326
  648MOL0     H87440   7.048   9.980   6.070 -1.3043  0.6000 -1.9479
  648MOL0     H87441   7.117   9.869   6.354  1.7308  0.8156 -0.7203
  648MOL0     H87442   7.138  10.019   6.275  0.9662 -0.4866  2.8499
  648MOL0     H87443   7.032  10.014   6.416  3.4126  0.1008  2.1008
  648MOL0     H87444   6.748   9.807   6.723  0.8193 -2.7935  1.7235
  648MOL0     H87445   6.636   9.671   6.890  0.1075 -1.3455 -0.4610
  648MOL0     H87446   6.532   9.495   7.020  0.2899  1.9020  2.2479
  648MOL0     H87447   6.412   9.625   7.040  1.8888 -1.1436  0.5925
  648MOL0     H87448   6.332   9.422   7.145  2.3956  3.3707 -0.0104
  648MOL0     H87449   6.229   9.454   6.998  1.0564  0.6990 -1.6947
  648MOL0     H87450   6.463   9.264   6.953  1.6895 -0.2046  0.1052
  648MOL0     H87451   6.309   9.280   6.887 -0.2490  2.6211  0.6770
  648MOL0     H87452   6.353   9.071   7.035 -0.3358  0.5463 -0.3262
  648MOL0     H87453   6.358   9.167   7.173 -0.5931 -3.2104  1.3043
  648MOL0     H87454   6.109   9.196   6.987 -1.8182  2.1710  0.8278
  648MOL0     H87455   6.142   9.266   7.138  0.0364  1.9761 -1.6976
  648MOL0     H87456   6.157   9.010   7.232 -2.5249 -3.8288 -0.5809
  648MOL0     H87457   6.004   9.080   7.199 -0.8230 -2.7239  0.5768
  648MOL0     H87458   6.151   8.891   7.010  1.3661 -0.9849  3.9403
  648MOL0     H87459   5.996   8.955   6.973  0.8010 -2.6603 -0.9652
  648MOL0     H87460   5.867   8.889   7.142 -1.8553 -3.8325  2.9167
  648MOL0     H87461   5.995   8.838   7.250  0.3194 -1.3057 -0.0275
  648MOL0     H87462   6.340   9.541   6.628 -1.0173  1.1598  1.5062
  648MOL0     H87463   6.443   9.698   6.443 -1.3873  2.4820  0.6800
  648MOL0     H87464   6.625   9.805   6.240  0.1949  0.0935  2.8728
  648MOL0     H87465   6.631   9.877   6.001 -0.7772 -2.3824  0.7101
  648MOL0     H87466   6.441   8.244   5.650 -1.2024  0.9959 -0.0967
  648MOL0     H87467   6.323   8.013   5.665  0.5869 -3.8227  2.0303
  648MOL0     H87468   5.941   7.945   5.969  2.7106  0.3262  2.4189
  648MOL0     H87469   5.733   7.828   5.934  1.2429  0.7709 -1.3992
  648MOL0     H87470   5.670   7.678   5.695  2.5947 -0.9156  1.4573
  648MOL0     H87471   5.665   7.508   5.698  1.9708  0.5623  1.6580
  648MOL0     H87472   5.437   7.645   5.863 -1.9006  0.1115 -0.1791
  648MOL0     H87473   5.451   7.501   5.743 -1.4652  0.2722 -0.3470
  648MOL0     H87474   5.387   7.612   5.586 -1.0399  1.2276 -0.6391
  648MOL0     H87475   5.488   7.747   5.601 -2.3231  2.6913 -0.6330
  648MOL0     H87476   5.319   7.859   5.751  1.0557 -1.2266 -1.1737
  648MOL0     H87477   5.214   7.713   5.733 -4.1822  1.0441 -4.6402
  648MOL0     H87478   5.101   7.917   5.403  1.5558 -1.1360 -2.5518
  648MOL0     H87479   5.920   7.472   5.811 -1.5016  0.6170 -0.4088
  648MOL0     H87480   6.143   7.586   5.823 -1.8147 -0.5108 -0.9174
  649MOL0     O87481   5.301  11.331   9.397  0.5456 -0.4093  0.3341
  649MOL0     C87482   5.367  11.239   9.351  0.3192  0.4525 -0.2444
  649MOL0     O87483   5.422  11.138   9.424  0.4495  0.3113  0.7323
  649MOL0     C87484   5.366  11.099   9.543  0.5824  0.0807  0.4291
  649MOL0     C87485   5.234  11.065   9.553  0.7072  0.3499  0.8481
  649MOL0     C87486   5.178  11.012   9.666 -0.4397  1.0504 -0.4697
  649MOL0     C87487   5.252  10.973   9.776  0.6099  1.0570  0.3051
  649MOL0     O87488   5.178  10.920   9.880  0.0522 -0.5268 -0.3312
  649MOL0     C87489   5.268  10.896   9.996  0.3082 -0.6359 -0.2495
  649MOL0     C87490   5.198  10.859  10.119  0.1291 -0.8106 -0.2290
  649MOL0     C87491   5.107  10.969  10.189 -1.0738  0.6001  1.0544
  649MOL0     C87492   5.064  10.921  10.329 -0.0586 -0.6882  0.0261
  649MOL0     C87493   4.931  10.979  10.377 -0.0119  0.5837  0.1842
  649MOL0     C87494   4.938  11.013  10.524  0.4722  0.0979 -1.0075
  649MOL0     C87495   4.969  10.879  10.604 -0.5979 -0.5069 -0.2177
  649MOL0     C87496   4.991  10.915  10.750  0.6617  0.2622  0.4362
  649MOL0     N87497   5.004  10.789  10.820 -0.4589 -0.2745  0.3215
  649MOL0     C87498   5.105  10.701  10.798  0.4002 -0.1413  0.4179
  649MOL0     C87499   5.088  10.607  10.889  0.1901 -0.4788 -0.0437
  649MOL0     C87500   5.151  10.470  10.866  0.5620 -0.3885 -0.0751
  649MOL0     C87501   5.245  10.411  10.977 -0.7491  0.5127  0.3583
  649MOL0     C87502   5.323  10.279  10.949 -0.1778 -0.5838  0.2482
  649MOL0     C87503   5.372  10.238  10.806 -0.4587 -0.0667  0.4394
  649MOL0     O87504   5.451  10.335  10.747  0.4913 -0.1949 -0.6187
  649MOL0     C87505   5.497  10.311  10.627 -0.2599 -0.9591  0.9314
  649MOL0     C87506   5.493  10.192  10.557  0.2832  0.1223 -0.3806
  649MOL0     C87507   5.548  10.177  10.429  1.2312  0.5808 -0.3051
  649MOL0     C87508   5.545  10.038  10.366  0.1034 -0.7158  1.2335
  649MOL0     C87509   5.615  10.285  10.367 -0.0828  0.2386 -0.2863
  649MOL0     C87510   5.680  10.265  10.229 -1.1068 -0.3109 -1.3091
  649MOL0     O87511   5.811  10.320  10.208 -0.1648  0.6697  0.3077
  649MOL0     C87512   5.866  10.292  10.081  0.3325 -0.3748  0.2249
  649MOL0     C87513   5.944  10.179  10.074  0.2394  0.7502  0.6092
  649MOL0     C87514   6.017  10.144   9.954 -0.0451  0.6545  0.5132
  649MOL0     C87515   5.997  10.222   9.839 -0.0608  0.3319  1.1103
  649MOL0     O87516   6.059  10.183   9.724 -0.0154 -0.2987 -0.7579
  649MOL0     C87517   5.993  10.078   9.651 -0.8148 -0.3958 -0.8852
  649MOL0     C87518   6.091   9.959   9.656 -0.6278  0.0180 -0.2969
  649MOL0     C87519   6.008   9.825   9.641 -0.1944  0.6050 -0.6861
  649MOL0     C87520   6.098   9.734   9.563  0.6139 -0.1573 -0.3256
  649MOL0     C87521   6.007   9.611   9.526 -0.3674 -0.7454 -0.1827
  649MOL0     C87522   6.075   9.500   9.459 -0.1271  0.2737  0.1201
  649MOL0     C87523   6.163   9.420   9.552 -0.0729  0.4859  0.5208
  649MOL0     C87524   6.191   9.280   9.492 -0.1491  0.3145 -0.9051
  649MOL0    Cl87525   6.050   9.181   9.503  0.1757  0.3852  0.0363
  649MOL0     C87526   5.915  10.332   9.842  0.6865  0.2320  0.1403
  649MOL0     C87527   5.841  10.369   9.961  0.4485  0.8485  0.1458
  649MOL0     O87528   5.609  10.226  10.139 -0.8724  0.0949  0.3282
  649MOL0     C87529   5.622  10.408  10.439  0.3633  0.8880 -0.1980
  649MOL0     C87530   5.567  10.423  10.568 -0.0548  0.3987  0.5962
  649MOL0     N87531   4.977  10.637  10.971  0.0968 -0.0330 -0.0520
  649MOL0     N87532   4.917  10.737  10.922 -0.1328 -1.1213  1.5842
  649MOL0     C87533   5.387  10.991   9.766 -0.3233  0.2889  0.2574
  649MOL0     C87534   5.448  11.056   9.653 -0.4496 -0.5426  0.8268
  649MOL0     C87535   5.387  11.238   9.192 -0.5844 -1.0703 -0.5540
  649MOL0     C87536   5.363  11.351   9.121 -0.6620 -0.8562  0.3914
  649MOL0     C87537   5.374  11.355   8.984 -0.6169 -0.7643  0.3184
  649MOL0     C87538   5.429  11.243   8.924  0.1192 -0.6896  1.3396
  649MOL0     O87539   5.452  11.237   8.787 -0.3519 -0.0876  0.3840
  649MOL0     C87540   5.586  11.278   8.756 -0.1290 -0.7964 -0.1352
  649MOL0     C87541   5.597  11.326   8.615 -0.2890 -0.4274  0.9627
  649MOL0     C87542   5.740  11.378   8.593 -0.6205 -0.8518  0.0865
  649MOL0     C87543   5.868  11.290   8.595  0.1262  0.9721 -0.4728
  649MOL0     C87544   5.989  11.371   8.618 -0.8091 -0.2209 -0.0871
  649MOL0     C87545   6.080  11.446   8.637 -0.5467  0.6606 -0.8384
  649MOL0     C87546   5.442  11.124   8.996 -0.6489 -0.6271 -0.2302
  649MOL0     C87547   5.434  11.121   9.131 -0.2227  0.2070  0.2118
  649MOL0     H87548   5.162  11.066   9.471 -1.7892 -1.1942  2.8524
  649MOL0     H87549   5.071  10.992   9.665 -0.3501  0.5904 -1.5895
  649MOL0     H87550   5.328  10.808   9.970 -0.9042 -1.8286  0.8255
  649MOL0     H87551   5.328  10.987  10.008 -0.8836  0.1936 -0.5145
  649MOL0     H87552   5.135  10.771  10.108 -2.1590  0.4716  1.6798
  649MOL0     H87553   5.278  10.823  10.184  0.5581 -0.3349 -0.4878
  649MOL0     H87554   5.143  11.072  10.192  3.1706 -0.3997 -3.1532
  649MOL0     H87555   5.024  10.972  10.118  0.0186 -0.4175 -0.3307
  649MOL0     H87556   5.063  10.812  10.333  1.2596 -1.0815 -4.8558
  649MOL0     H87557   5.140  10.953  10.402 -0.0871  4.0078 -1.6781
  649MOL0     H87558   4.920  11.071  10.319 -0.3767 -0.0789 -0.8450
  649MOL0     H87559   4.846  10.912  10.358 -1.4066  2.4742 -0.4578
  649MOL0     H87560   5.017  11.085  10.547  0.0773  0.4191 -0.6411
  649MOL0     H87561   4.844  11.059  10.557  2.2045  2.4419  1.0135
  649MOL0     H87562   4.895  10.799  10.592  0.9163 -2.0442  0.2364
  649MOL0     H87563   5.063  10.835  10.568 -0.6050 -0.8745  0.2075
  649MOL0     H87564   4.898  10.957  10.790 -0.6051  0.9806 -2.8975
  649MOL0     H87565   5.076  10.976  10.782 -2.8208  4.4653  2.7069
  649MOL0     H87566   5.176  10.707  10.717  0.4232  0.9158  0.5025
  649MOL0     H87567   5.067  10.401  10.852 -3.0874  3.8964 -1.7526
  649MOL0     H87568   5.202  10.469  10.770 -0.5432 -1.7165 -0.6880
  649MOL0     H87569   5.198  10.395  11.074 -2.3164 -1.0924 -0.5974
  649MOL0     H87570   5.327  10.482  10.986 -0.2547 -0.1323  0.9701
  649MOL0     H87571   5.262  10.198  10.990  1.0061  0.2522  4.1131
  649MOL0     H87572   5.407  10.287  11.019  0.0180  2.7443 -0.2197
  649MOL0     H87573   5.283  10.229  10.742 -1.4272  1.0469  1.5733
  649MOL0     H87574   5.433  10.148  10.813  1.1073  1.0573  4.4970
  649MOL0     H87575   5.472  10.096  10.602 -0.1418  0.9130  1.1634
  649MOL0     H87576   5.647  10.020  10.331 -0.3083  0.9882 -1.1071
  649MOL0     H87577   5.500   9.954  10.420 -1.0435  0.7103  2.5929
  649MOL0     H87578   5.483  10.044  10.276 -2.2474  1.9335  2.8537
  649MOL0     H87579   5.958  10.120  10.163 -0.0816 -0.7035 -0.2777
  649MOL0     H87580   6.089  10.063   9.958  0.0524  0.7202  0.1617
  649MOL0     H87581   5.889  10.064   9.681 -0.6246 -1.8387 -0.8254
  649MOL0     H87582   6.000  10.108   9.546  3.7243 -1.4429 -1.0782
  649MOL0     H87583   6.177   9.964   9.590 -2.6769 -0.7151 -3.2073
  649MOL0     H87584   6.120   9.955   9.762  2.7451  1.5417 -1.0385
  649MOL0     H87585   5.913   9.844   9.590 -2.7182 -3.3174  2.0505
  649MOL0     H87586   5.986   9.786   9.741  5.1432 -0.6273  0.2961
  649MOL0     H87587   6.124   9.792   9.474  2.2963 -1.0378 -0.4539
  649MOL0     H87588   6.187   9.705   9.620  0.6445  1.1246  0.3340
  649MOL0     H87589   5.932   9.658   9.460  1.4218 -0.2105 -1.9332
  649MOL0     H87590   5.952   9.575   9.613 -1.2172  0.4872 -0.1804
  649MOL0     H87591   6.011   9.432   9.402 -2.3022 -0.7275  3.4352
  649MOL0     H87592   6.137   9.537   9.377 -1.5337 -1.8067 -2.0275
  649MOL0     H87593   6.109   9.419   9.646 -5.4761 -0.4267 -2.2168
  649MOL0     H87594   6.261   9.467   9.570  0.7996 -0.4740 -1.3906
  649MOL0     H87595   6.284   9.238   9.531  1.6723  1.5690 -3.6288
  649MOL0     H87596   6.203   9.285   9.384  2.5011 -0.3673 -0.6978
  649MOL0     H87597   5.920  10.380   9.745  1.1429 -1.8684 -0.9439
  649MOL0     H87598   5.762  10.443   9.952 -0.5905 -0.3774 -1.5691
  649MOL0     H87599   5.673  10.496  10.401  3.1475 -1.2490 -1.7681
  649MOL0     H87600   5.584  10.514  10.624  2.3850  0.9268 -0.9011
  649MOL0     H87601   5.444  10.953   9.851 -0.7282  2.1638  1.4267
  649MOL0     H87602   5.556  11.065   9.653 -0.5500  1.2499  1.2378
  649MOL0     H87603   5.345  11.447   9.169  0.4563 -0.3450 -0.1774
  649MOL0     H87604   5.364  11.450   8.933  1.8314  0.4730  1.9113
  649MOL0     H87605   5.626  11.365   8.809 -2.1630  1.2744 -1.7559
  649MOL0     H87606   5.657  11.197   8.771  3.3547  1.9435 -0.6388
  649MOL0     H87607   5.532  11.412   8.599  1.1187  0.1342 -2.8813
  649MOL0     H87608   5.573  11.251   8.539  2.5642  0.6035 -1.1186
  649MOL0     H87609   5.759  11.463   8.660 -0.9155 -1.7229  1.3142
  649MOL0     H87610   5.746  11.424   8.494  1.4107 -1.8806 -0.3253
  649MOL0     H87611   5.870  11.233   8.501  1.4295 -0.1696  0.2056
  649MOL0     H87612   5.858  11.222   8.680 -1.0207  1.3694 -0.2645
  649MOL0     H87613   6.149  11.527   8.650  0.7945 -0.4598 -0.7737
  649MOL0     H87614   5.474  11.030   8.951  0.8135 -0.5312  0.5492
  649MOL0     H87615   5.445  11.038   9.199 -2.0742  1.1560  1.7775
  650MOL0     O87616   3.773  10.264   4.355 -0.0311  0.2086  0.3567
  650MOL0     C87617   3.792  10.149   4.330 -0.2982 -0.1876  0.3179
  650MOL0     O87618   3.763  10.084   4.220  0.1975 -0.6851 -0.3143
  650MOL0     C87619   3.671  10.123   4.128  1.2014 -0.2564  0.2431
  650MOL0     C87620   3.689  10.070   3.999 -1.0649 -0.2994  0.1015
  650MOL0     C87621   3.597  10.100   3.893 -0.2271  0.9552 -0.6422
  650MOL0     C87622   3.485  10.182   3.916 -0.5780  1.1601  0.2953
  650MOL0     O87623   3.427  10.231   3.798 -0.2053 -0.0203  0.0925
  650MOL0     C87624   3.306  10.295   3.813 -0.0550 -0.4714 -0.3887
  650MOL0     C87625   3.235  10.320   3.677 -0.3159  0.1744 -1.1901
  650MOL0     C87626   3.198  10.185   3.625  0.3638  0.5757 -0.6630
  650MOL0     C87627   3.149  10.193   3.478 -0.1614  0.0709  0.2178
  650MOL0     C87628   3.057  10.073   3.430 -0.8835  0.4143 -1.9006
  650MOL0     C87629   3.135   9.949   3.377 -0.1240  0.3189  0.2924
  650MOL0     C87630   3.238   9.891   3.479  0.4600  0.1806  0.5482
  650MOL0     C87631   3.263   9.747   3.457 -0.3462  0.5470  0.1324
  650MOL0     N87632   3.285   9.700   3.311  0.1338 -0.4124 -0.9537
  650MOL0     C87633   3.399   9.694   3.248  0.1601 -0.4166 -0.9486
  650MOL0     C87634   3.371   9.686   3.121  0.3704  0.9156  0.0138
  650MOL0     C87635   3.477   9.667   3.014  0.6442 -0.4121 -0.3621
  650MOL0     C87636   3.473   9.789   2.923 -0.3650 -0.3490 -0.0278
  650MOL0     C87637   3.532   9.923   2.995  0.8049 -0.1369  0.6437
  650MOL0     C87638   3.540  10.037   2.884 -0.4115 -0.4765  0.1539
  650MOL0     O87639   3.630  10.006   2.776  0.8219 -0.6915 -0.1228
  650MOL0     C87640   3.687  10.119   2.718  0.5841  0.5394 -0.0323
  650MOL0     C87641   3.800  10.168   2.773  0.7546 -0.3274  0.0852
  650MOL0     C87642   3.870  10.280   2.725 -0.2482  0.3107  0.6342
  650MOL0     C87643   4.008  10.312   2.792  1.0492  0.1606 -0.5526
  650MOL0     C87644   3.814  10.360   2.623 -0.9616  0.2342  0.2406
  650MOL0     C87645   3.881  10.481   2.566 -1.2467  0.2287  0.1112
  650MOL0     O87646   3.799  10.560   2.496  0.0151  0.3594 -0.5035
  650MOL0     C87647   3.859  10.608   2.384  0.0151 -0.2558 -0.0989
  650MOL0     C87648   3.865  10.529   2.269 -0.3167 -0.0443  0.4803
  650MOL0     C87649   3.904  10.590   2.143 -0.0110 -0.3032 -0.6794
  650MOL0     C87650   3.947  10.722   2.140 -0.4242 -0.3046 -0.2673
  650MOL0     O87651   3.976  10.773   2.016  0.1466 -0.1017  0.0558
  650MOL0     C87652   4.032  10.906   1.995 -0.9648  0.3010 -0.1550
  650MOL0     C87653   3.929  11.018   1.992 -0.9568  0.6075 -0.9855
  650MOL0     C87654   3.892  11.058   1.847 -1.6231  0.2070 -0.2685
  650MOL0     C87655   3.782  11.158   1.853  0.2360  0.1664  0.5182
  650MOL0     C87656   3.827  11.307   1.871  0.1252  1.3887 -0.7834
  650MOL0     C87657   3.702  11.392   1.880 -0.8616 -0.0099 -0.6923
  650MOL0     C87658   3.638  11.375   2.019 -0.4317 -0.1406 -0.5082
  650MOL0     C87659   3.502  11.447   2.012 -0.8657 -0.5582 -0.2979
  650MOL0    Cl87660   3.391  11.354   1.909 -0.5478 -0.1282 -0.0974
  650MOL0     C87661   3.954  10.799   2.257  0.3299 -0.3220  0.2168
  650MOL0     C87662   3.908  10.736   2.379 -1.0934 -0.4662  1.3327
  650MOL0     O87663   4.003  10.495   2.577  0.0225  0.6825  0.0777
  650MOL0     C87664   3.693  10.315   2.563 -0.2575 -0.1454 -0.3913
  650MOL0     C87665   3.636  10.184   2.603  0.5896 -0.4535 -0.8062
  650MOL0     N87666   3.234   9.671   3.105 -0.4304 -0.2403 -0.0988
  650MOL0     N87667   3.185   9.680   3.226  0.4216  0.3086 -0.6583
  650MOL0     C87668   3.457  10.219   4.048 -0.0496 -0.5029  0.6476
  650MOL0     C87669   3.549  10.197   4.153  0.2610 -0.4347 -1.0971
  650MOL0     C87670   3.855  10.074   4.445 -0.2609 -0.4065  0.7444
  650MOL0     C87671   3.831  10.115   4.579 -0.6823 -0.2125  0.7213
  650MOL0     C87672   3.914  10.072   4.677 -0.6037 -0.5677 -0.4071
  650MOL0     C87673   4.013   9.967   4.653  0.0618  0.4566  0.3423
  650MOL0     O87674   4.101   9.917   4.744  0.6469 -0.1404 -0.0349
  650MOL0     C87675   4.097   9.949   4.884  0.5811  0.3950  0.5227
  650MOL0     C87676   4.190   9.863   4.965  0.1298 -0.1739 -0.1621
  650MOL0     C87677   4.146   9.718   4.977 -0.8628  0.3040 -0.7465
  650MOL0     C87678   4.262   9.629   5.014  0.1425 -0.2043 -0.3366
  650MOL0     C87679   4.241   9.492   4.985 -0.1788  0.9216  0.7578
  650MOL0     C87680   4.222   9.369   4.960 -0.2586 -1.1772 -0.0562
  650MOL0     C87681   4.027   9.923   4.524 -0.3996 -0.2356  0.7341
  650MOL0     C87682   3.944   9.963   4.417  0.3361  0.3260 -0.7270
  650MOL0     H87683   3.776  10.006   3.983  1.3004  2.5422  0.7775
  650MOL0     H87684   3.626  10.051   3.800  0.7213 -0.5089  0.3857
  650MOL0     H87685   3.247  10.234   3.882 -0.9374  1.4195  0.6094
  650MOL0     H87686   3.322  10.395   3.854  1.7203  0.2577 -2.6459
  650MOL0     H87687   3.138  10.370   3.687  0.2438  1.3857 -1.5529
  650MOL0     H87688   3.309  10.368   3.612  0.1214 -0.2402 -1.0052
  650MOL0     H87689   3.283  10.116   3.626 -0.2155 -0.1443 -0.7972
  650MOL0     H87690   3.130  10.130   3.690  1.0020  0.4564 -0.0837
  650MOL0     H87691   3.081  10.279   3.469  2.0193  1.7421 -1.2053
  650MOL0     H87692   3.225  10.209   3.401  0.1186  0.7677  0.6199
  650MOL0     H87693   2.981  10.035   3.498  1.0279 -2.1242 -1.0603
  650MOL0     H87694   2.998  10.117   3.349 -0.0248  1.5854 -1.9194
  650MOL0     H87695   3.061   9.883   3.330  0.2860  0.8540 -1.1761
  650MOL0     H87696   3.188   9.992   3.291  0.3205  0.9197  0.8560
  650MOL0     H87697   3.330   9.948   3.488  1.1601 -0.9558  0.7845
  650MOL0     H87698   3.186   9.908   3.574 -0.1329  2.4250 -0.1121
  650MOL0     H87699   3.174   9.695   3.495  0.8361 -2.0705 -0.4114
  650MOL0     H87700   3.347   9.718   3.521 -0.2172 -0.2628 -0.3838
  650MOL0     H87701   3.497   9.723   3.287 -0.6070  0.9229  0.0757
  650MOL0     H87702   3.577   9.656   3.059  1.8405  0.6094 -2.6271
  650MOL0     H87703   3.467   9.575   2.955  1.8236  0.4059 -1.9168
  650MOL0     H87704   3.367   9.808   2.905 -1.1913 -4.0229  0.1540
  650MOL0     H87705   3.534   9.764   2.835  0.2109  0.9533 -0.0130
  650MOL0     H87706   3.634   9.913   3.035 -0.3577 -1.2773  3.5346
  650MOL0     H87707   3.464   9.956   3.073 -0.6375 -0.6331 -0.3622
  650MOL0     H87708   3.567  10.136   2.923 -0.7129  1.4614 -4.0034
  650MOL0     H87709   3.435  10.052   2.856 -0.1986  2.7989  0.6768
  650MOL0     H87710   3.843  10.117   2.859 -3.2695 -2.0963  1.3536
  650MOL0     H87711   4.087  10.315   2.717 -0.1819  1.6439 -1.8525
  650MOL0     H87712   4.014  10.403   2.852  1.2014  0.4295 -0.9745
  650MOL0     H87713   4.020  10.232   2.866  1.2105  0.1422 -0.6004
  650MOL0     H87714   3.835  10.427   2.288  2.7460 -0.9998  0.7782
  650MOL0     H87715   3.899  10.531   2.053 -1.8136  0.1824 -0.9433
  650MOL0     H87716   4.102  10.931   2.075 -1.7759 -3.3737  1.9317
  650MOL0     H87717   4.083  10.905   1.898  1.1913  3.5792  0.7660
  650MOL0     H87718   3.844  10.984   2.050 -0.2108  2.9440  1.6562
  650MOL0     H87719   3.975  11.105   2.039 -1.3194  0.4363 -0.3046
  650MOL0     H87720   3.859  10.974   1.786 -0.7031 -0.6666  0.3983
  650MOL0     H87721   3.980  11.111   1.808 -0.2839 -0.5776  1.5079
  650MOL0     H87722   3.727  11.152   1.759 -3.7948  2.1007  2.5167
  650MOL0     H87723   3.710  11.127   1.929  0.5419 -0.3985  0.5821
  650MOL0     H87724   3.881  11.335   1.779  3.0688 -0.1050  0.3351
  650MOL0     H87725   3.875  11.321   1.968 -1.6427  0.2511  0.3070
  650MOL0     H87726   3.725  11.497   1.861 -0.4819 -0.2921 -1.8379
  650MOL0     H87727   3.629  11.362   1.805 -2.7093  0.9986  0.6266
  650MOL0     H87728   3.696  11.426   2.097 -3.4930 -1.9805  3.3398
  650MOL0     H87729   3.629  11.274   2.059  1.5303  0.2603  1.1180
  650MOL0     H87730   3.516  11.539   1.954 -0.1332  0.7131  1.7619
  650MOL0     H87731   3.461  11.472   2.110  0.8650 -1.8759  0.8306
  650MOL0     H87732   3.977  10.904   2.249 -2.4850  0.4474  0.9886
  650MOL0     H87733   3.924  10.792   2.470  2.2200 -0.0809  0.6396
  650MOL0     H87734   3.654  10.359   2.472 -1.3710 -0.4684 -0.0825
  650MOL0     H87735   3.546  10.147   2.554  0.4411 -1.7737  0.3980
  650MOL0     H87736   3.364  10.268   4.076 -0.8338 -0.4052 -1.8844
  650MOL0     H87737   3.526  10.226   4.255 -0.5441 -1.8074 -0.8656
  650MOL0     H87738   3.753  10.187   4.601  0.4864  0.9116  1.2847
  650MOL0     H87739   3.890  10.116   4.774 -0.1609  0.1453 -0.6109
  650MOL0     H87740   4.106  10.055   4.909  3.0986  0.0483  1.3535
  650MOL0     H87741   3.997   9.914   4.909  1.0549 -3.5148 -2.2416
  650MOL0     H87742   4.191   9.910   5.064 -0.7627  0.1752 -0.3078
  650MOL0     H87743   4.292   9.863   4.928  0.2997 -0.2447  0.2974
  650MOL0     H87744   4.104   9.680   4.883 -1.1188 -2.4377  0.3728
  650MOL0     H87745   4.078   9.700   5.060  2.7958 -2.6936  1.9416
  650MOL0     H87746   4.274   9.638   5.123  1.6141  0.4371 -0.5333
  650MOL0     H87747   4.348   9.661   4.956 -0.6024  2.5519 -0.0596
  650MOL0     H87748   4.194   9.269   4.935 -0.6777 -1.2822  0.7878
  650MOL0     H87749   4.099   9.853   4.482 -4.3806 -2.1354 -3.8025
  650MOL0     H87750   3.944   9.919   4.318 -0.6766 -0.5372 -0.3597
  651MOL0     O87751   1.618  11.257   1.635 -0.8396  0.0177 -0.4187
  651MOL0     C87752   1.619  11.147   1.700  0.0885 -0.2901  0.5088
  651MOL0     O87753   1.633  11.027   1.644 -0.3236 -0.2088 -0.2485
  651MOL0     C87754   1.568  10.996   1.525 -0.9548  0.0305  0.7370
  651MOL0     C87755   1.602  10.863   1.482 -0.3400 -0.1816  0.6147
  651MOL0     C87756   1.557  10.812   1.359  0.5784 -0.6215 -0.6188
  651MOL0     C87757   1.481  10.893   1.272  0.4869  0.3538 -0.2112
  651MOL0     O87758   1.430  10.837   1.154  0.0015 -0.0619  0.3764
  651MOL0     C87759   1.388  10.920   1.045 -0.0897 -0.1138  0.3506
  651MOL0     C87760   1.350  10.837   0.918 -0.7639  1.1003  0.2160
  651MOL0     C87761   1.324  10.921   0.801 -0.9308  0.4844 -0.1847
  651MOL0     C87762   1.323  10.843   0.666 -0.1923 -0.3415 -0.4943
  651MOL0     C87763   1.245  10.913   0.553 -0.2650  0.4860 -0.1101
  651MOL0     C87764   1.268  10.843   0.417  0.0703  0.1854  0.9144
  651MOL0     C87765   1.186  10.714   0.390 -0.3583 -0.1616  0.0975
  651MOL0     C87766   1.224  10.627   0.269 -0.2816  0.0574  0.2862
  651MOL0     N87767   1.361  10.638   0.231 -0.1855  0.1718  0.7231
  651MOL0     C87768   1.476  10.600   0.301 -0.0360  0.0476 -0.4431
  651MOL0     C87769   1.584  10.637   0.219 -0.2793  0.2569  1.1347
  651MOL0     C87770   1.732  10.614   0.243 -0.2112 -0.4211 -0.0269
  651MOL0     C87771   1.817  10.677   0.133  0.1658  0.5290 -0.7196
  651MOL0     C87772   1.963  10.671   0.145  0.5203 -0.2352  0.4770
  651MOL0     C87773   2.026  10.793   0.207  0.6035  1.0007 -0.6216
  651MOL0     O87774   2.167  10.774   0.225  0.3118 -0.4683  0.1514
  651MOL0     C87775   2.233  10.862   0.306  0.4787 -0.3177  0.0739
  651MOL0     C87776   2.208  10.999   0.322  0.0803  0.6505  0.7978
  651MOL0     C87777   2.278  11.082   0.409 -0.0265 -0.1793  0.1017
  651MOL0     C87778   2.228  11.224   0.415  0.5727  0.3219 -1.1019
  651MOL0     C87779   2.376  11.025   0.492 -0.0805 -0.6088  0.2994
  651MOL0     C87780   2.466  11.101   0.583  0.5485  0.9488  1.0545
  651MOL0     O87781   2.550  11.042   0.674  0.9655  0.7700 -0.3917
  651MOL0     C87782   2.657  11.112   0.730  0.0629 -1.1770  0.4754
  651MOL0     C87783   2.728  11.222   0.675 -1.2641  1.1247  0.4872
  651MOL0     C87784   2.844  11.274   0.735  0.0592  1.0663 -0.4466
  651MOL0     C87785   2.892  11.220   0.853  0.7505  0.4097 -0.5496
  651MOL0     O87786   3.009  11.257   0.908 -0.2197  0.5538 -0.8032
  651MOL0     C87787   3.006  11.276   1.049  0.6400 -0.2774  0.6813
  651MOL0     C87788   3.120  11.362   1.104  0.5538  0.2127  0.2913
  651MOL0     C87789   3.249  11.287   1.085 -0.3645  0.1342 -0.2995
  651MOL0     C87790   3.358  11.370   1.032 -0.8799 -0.6108  0.1891
  651MOL0     C87791   3.471  11.291   0.955  0.2295 -0.3815  0.1352
  651MOL0     C87792   3.579  11.241   1.057 -0.2135  0.0601  0.6171
  651MOL0     C87793   3.643  11.117   0.992  0.5893  1.1956  0.5173
  651MOL0     C87794   3.749  11.054   1.080  0.1908  0.0925 -0.1329
  651MOL0    Cl87795   3.699  10.978   1.239 -0.3724  0.3037 -0.2913
  651MOL0     C87796   2.822  11.108   0.911 -1.1734 -0.1220 -0.4486
  651MOL0     C87797   2.705  11.058   0.853 -0.1162  1.0029 -0.0815
  651MOL0     O87798   2.454  11.219   0.567 -1.4704 -0.0641 -0.4299
  651MOL0     C87799   2.397  10.887   0.483  0.2708 -0.7993 -0.5530
  651MOL0     C87800   2.328  10.805   0.394 -0.7380 -0.9791  0.0099
  651MOL0     N87801   1.529  10.696   0.108  0.2171  0.1676 -0.6466
  651MOL0     N87802   1.397  10.705   0.112 -0.4350 -0.2315 -0.3393
  651MOL0     C87803   1.457  11.029   1.309  0.1062  0.7722  0.2223
  651MOL0     C87804   1.501  11.076   1.430  0.3540 -0.4173  0.0303
  651MOL0     C87805   1.615  11.156   1.849 -0.3311  0.5937  0.1866
  651MOL0     C87806   1.601  11.276   1.916  0.0098  0.3236  0.5953
  651MOL0     C87807   1.614  11.291   2.058 -0.0570 -1.1715  2.0122
  651MOL0     C87808   1.627  11.173   2.135 -0.4798 -0.4198  0.2711
  651MOL0     O87809   1.630  11.202   2.271  0.1234  0.0921  0.8007
  651MOL0     C87810   1.672  11.094   2.360 -0.0564  0.2428  0.3684
  651MOL0     C87811   1.712  11.145   2.502  0.3557 -0.0747 -0.2055
  651MOL0     C87812   1.844  11.230   2.492 -0.2714 -0.1016 -0.7336
  651MOL0     C87813   1.913  11.249   2.632 -0.1894 -0.3056 -0.8436
  651MOL0     C87814   2.004  11.371   2.612  0.8324 -0.5069 -0.6761
  651MOL0     C87815   2.071  11.466   2.619 -0.5275 -0.1904 -0.7260
  651MOL0     C87816   1.624  11.050   2.069 -0.3142  0.4107 -0.0136
  651MOL0     C87817   1.609  11.038   1.932  0.8736  0.6289 -0.6999
  651MOL0     H87818   1.663  10.808   1.553  0.3344  2.2669  2.0723
  651MOL0     H87819   1.574  10.709   1.330  0.9094 -0.4936 -0.8845
  651MOL0     H87820   1.306  10.986   1.076  0.3737  0.5773  0.1185
  651MOL0     H87821   1.475  10.980   1.018  0.7312  0.0597  3.1168
  651MOL0     H87822   1.429  10.762   0.910 -3.5973 -2.2293  0.7162
  651MOL0     H87823   1.264  10.772   0.942 -2.7389  3.5823  0.2573
  651MOL0     H87824   1.223  10.960   0.819 -1.1126  0.0392 -0.2256
  651MOL0     H87825   1.397  11.002   0.801  0.5079 -0.4518 -5.2854
  651MOL0     H87826   1.427  10.822   0.641  0.5161  0.8770  1.2618
  651MOL0     H87827   1.276  10.745   0.683  0.6800 -0.9073 -1.2456
  651MOL0     H87828   1.139  10.924   0.576  0.2886  1.0497  2.4798
  651MOL0     H87829   1.293  11.011   0.547 -0.3274  0.4750 -1.0827
  651MOL0     H87830   1.247  10.910   0.333  1.2270 -2.1624 -1.3905
  651MOL0     H87831   1.376  10.832   0.403 -0.1509 -1.0612 -0.0436
  651MOL0     H87832   1.202  10.640   0.470  0.7215  0.3952  0.4205
  651MOL0     H87833   1.078  10.726   0.395 -0.1726  1.6474  0.1542
  651MOL0     H87834   1.154  10.654   0.190  1.1463 -1.4085 -1.5817
  651MOL0     H87835   1.211  10.520   0.288 -2.4870 -0.5581 -3.7017
  651MOL0     H87836   1.493  10.554   0.397  1.9380 -1.0102 -1.2437
  651MOL0     H87837   1.759  10.654   0.341  2.5645  0.1688 -0.9347
  651MOL0     H87838   1.740  10.506   0.230  0.0254 -0.3943 -0.1141
  651MOL0     H87839   1.793  10.782   0.112 -1.1742  0.7261  1.4433
  651MOL0     H87840   1.799  10.618   0.043  2.5437  1.1603 -1.6996
  651MOL0     H87841   2.011  10.674   0.047  0.0437  1.9164  0.2702
  651MOL0     H87842   1.999  10.581   0.196 -1.6181 -1.7204 -0.5055
  651MOL0     H87843   1.980  10.794   0.306 -0.5031 -1.3102 -1.0527
  651MOL0     H87844   2.002  10.886   0.153 -1.6684  2.3384  2.4415
  651MOL0     H87845   2.132  11.030   0.251 -0.0130  1.6708  1.3239
  651MOL0     H87846   2.189  11.254   0.513 -3.8496 -1.0323 -2.2480
  651MOL0     H87847   2.302  11.300   0.387  2.3820 -1.3191 -0.9574
  651MOL0     H87848   2.144  11.234   0.346 -1.0069 -2.6209  0.2420
  651MOL0     H87849   2.671  11.260   0.591 -2.0132 -1.3301 -0.1897
  651MOL0     H87850   2.896  11.360   0.692 -0.8346  2.2939  0.8697
  651MOL0     H87851   2.912  11.324   1.077 -1.0416 -3.0551  0.1843
  651MOL0     H87852   3.001  11.178   1.098 -1.3573  0.8714  2.9963
  651MOL0     H87853   3.125  11.461   1.058 -1.9704  0.0127 -0.5660
  651MOL0     H87854   3.100  11.382   1.210  2.2108  3.3861  0.1313
  651MOL0     H87855   3.244  11.196   1.025  0.3262  0.8651 -1.4977
  651MOL0     H87856   3.283  11.251   1.183 -1.6432 -1.6406 -0.4581
  651MOL0     H87857   3.306  11.442   0.968  1.4984  1.2292  0.1728
  651MOL0     H87858   3.403  11.424   1.116 -2.8032 -2.4778  2.5616
  651MOL0     H87859   3.511  11.353   0.874 -0.1841 -0.9422 -0.5211
  651MOL0     H87860   3.423  11.209   0.899 -0.4109  1.3295 -1.9758
  651MOL0     H87861   3.651  11.322   1.076 -0.5997  0.3726  0.7762
  651MOL0     H87862   3.532  11.221   1.154  0.8084 -1.2798  0.8579
  651MOL0     H87863   3.678  11.141   0.891 -0.6083 -3.6940 -1.3569
  651MOL0     H87864   3.562  11.046   0.973 -0.5287  2.2290  1.2178
  651MOL0     H87865   3.818  11.135   1.104  1.3527 -1.5240  2.4340
  651MOL0     H87866   3.800  10.980   1.017  1.1830  2.3806 -2.1768
  651MOL0     H87867   2.855  11.071   1.007  3.3236  1.9765 -0.9339
  651MOL0     H87868   2.654  10.984   0.913 -0.0327  1.0813  0.0865
  651MOL0     H87869   2.468  10.847   0.555 -1.6828 -0.0247  1.9895
  651MOL0     H87870   2.351  10.700   0.383 -0.9581 -1.1140  0.7912
  651MOL0     H87871   1.415  11.089   1.229  1.7404 -0.4781 -1.6859
  651MOL0     H87872   1.486  11.180   1.455 -3.3725 -0.8558  0.1351
  651MOL0     H87873   1.590  11.361   1.850 -3.6313 -1.3895 -1.3068
  651MOL0     H87874   1.603  11.389   2.105  0.6161  0.4963 -1.0598
  651MOL0     H87875   1.597  11.014   2.367 -1.1488  1.2163  0.1639
  651MOL0     H87876   1.765  11.052   2.321 -0.0745  0.0010  0.5801
  651MOL0     H87877   1.740  11.060   2.565  3.1248  0.4015 -0.6558
  651MOL0     H87878   1.623  11.193   2.543 -0.0923 -1.1574  0.1425
  651MOL0     H87879   1.820  11.328   2.449  2.1037  0.4301 -0.9841
  651MOL0     H87880   1.900  11.195   2.406 -0.0803 -2.3211  0.2280
  651MOL0     H87881   1.967  11.158   2.660 -1.5242 -1.5643 -2.1993
  651MOL0     H87882   1.833  11.263   2.706  1.2840 -0.1045  0.7576
  651MOL0     H87883   2.121  11.557   2.642  1.6455 -0.9488 -2.0971
  651MOL0     H87884   1.626  10.950   2.112  2.0976  0.6577  0.6090
  651MOL0     H87885   1.584  10.947   1.879 -0.6431  0.4999  0.2035
  652MOL0     O87886   1.266   7.652   2.084  0.7815 -0.4743 -0.5824
  652MOL0     C87887   1.151   7.665   2.043 -0.2078  0.4893  0.3287
  652MOL0     O87888   1.046   7.584   2.081 -0.0139  0.2128 -0.0805
  652MOL0     C87889   1.070   7.488   2.185 -0.0676  0.1734  1.3012
  652MOL0     C87890   1.149   7.377   2.153 -0.1941  0.2247  0.1565
  652MOL0     C87891   1.182   7.282   2.258 -0.0850  0.9787  0.9323
  652MOL0     C87892   1.138   7.293   2.391 -0.3052  0.1801  0.0122
  652MOL0     O87893   1.156   7.200   2.490  0.0273  0.0301 -0.1008
  652MOL0     C87894   1.237   7.087   2.462 -0.7697  0.4580  0.0528
  652MOL0     C87895   1.383   7.126   2.463 -0.7819 -0.9507 -0.6631
  652MOL0     C87896   1.424   7.229   2.568 -0.2329 -0.2823 -0.1756
  652MOL0     C87897   1.568   7.202   2.610 -0.3959  0.9685 -0.0948
  652MOL0     C87898   1.626   7.304   2.705 -0.7073  0.5716  0.0794
  652MOL0     C87899   1.553   7.299   2.850 -1.0837 -0.9900  0.5124
  652MOL0     C87900   1.593   7.402   2.961  0.2454  0.2365  0.2466
  652MOL0     C87901   1.599   7.540   2.912  0.3570  0.0338 -0.2078
  652MOL0     N87902   1.466   7.588   2.873 -1.0458  0.1570  0.4764
  652MOL0     C87903   1.428   7.604   2.741  0.2909  0.4008 -0.1350
  652MOL0     C87904   1.294   7.623   2.745  0.5899  0.4177 -0.7872
  652MOL0     C87905   1.197   7.624   2.635 -0.6906  0.3172 -0.5856
  652MOL0     C87906   1.202   7.776   2.583 -0.0336  0.2838  0.1389
  652MOL0     C87907   1.079   7.849   2.642  0.2443  0.5709  0.9396
  652MOL0     C87908   0.937   7.826   2.576 -0.2594  0.3240 -0.5976
  652MOL0     O87909   0.881   7.694   2.609  0.2131  0.1164 -0.3134
  652MOL0     C87910   0.745   7.658   2.579 -0.3370  0.5460  0.7306
  652MOL0     C87911   0.690   7.549   2.634  0.0678  0.6092  0.0417
  652MOL0     C87912   0.556   7.509   2.598  0.2853  0.1805 -0.2358
  652MOL0     C87913   0.514   7.386   2.665 -0.2784  0.2191 -0.3465
  652MOL0     C87914   0.482   7.580   2.500  0.3237  1.3285 -0.6730
  652MOL0     C87915   0.339   7.544   2.463  0.4594 -1.1461  0.7667
  652MOL0     O87916   0.278   7.643   2.386 -0.1202  0.2911  0.3368
  652MOL0     C87917   0.143   7.643   2.352  0.2963 -0.0462 -0.3109
  652MOL0     C87918   0.102   7.735   2.264  0.4356 -0.3654 -0.4660
  652MOL0     C87919  -0.027   7.746   2.208 -1.7995 -0.8477 -0.0716
  652MOL0     C87920  -0.115   7.645   2.240  0.8514 -0.4088 -0.7301
  652MOL0     O87921  -0.242   7.624   2.189  0.4533 -0.2687 -0.0164
  652MOL0     C87922  -0.318   7.729   2.145 -0.2004 -0.5491 -1.0245
  652MOL0     C87923  -0.451   7.656   2.139 -0.3485 -0.4131 -0.0987
  652MOL0     C87924  -0.468   7.555   2.023  0.5304 -0.0541 -0.3484
  652MOL0     C87925  -0.621   7.551   1.989 -0.5672  0.2348 -0.2703
  652MOL0     C87926  -0.671   7.415   1.924  0.2598 -0.1700  0.1475
  652MOL0     C87927  -0.806   7.421   1.859  0.3029 -0.0468 -0.3589
  652MOL0     C87928  -0.911   7.484   1.965  0.1580  0.2835 -0.2507
  652MOL0     C87929  -1.008   7.587   1.903  0.4972  0.0161 -0.0394
  652MOL0    Cl87930  -0.940   7.748   1.890 -0.1275 -0.2686  0.0844
  652MOL0     C87931  -0.071   7.538   2.321 -0.1936 -0.7228 -0.3574
  652MOL0     C87932   0.055   7.535   2.376  0.7676  0.3820 -0.0964
  652MOL0     O87933   0.296   7.437   2.487  0.8979  0.1099 -0.4884
  652MOL0     C87934   0.544   7.692   2.438  0.1797 -0.7185 -1.4157
  652MOL0     C87935   0.679   7.721   2.465  0.8294 -0.3697 -0.1668
  652MOL0     N87936   1.257   7.626   2.876  0.4992  0.4914  0.1634
  652MOL0     N87937   1.359   7.594   2.951  0.4202  0.9592  0.1903
  652MOL0     C87938   1.053   7.402   2.416  0.3254  0.3702  0.5639
  652MOL0     C87939   1.019   7.500   2.319  1.8752  0.0695 -0.1095
  652MOL0     C87940   1.136   7.765   1.935  0.9120  1.0320  0.8260
  652MOL0     C87941   1.016   7.767   1.861 -0.1346  0.2576 -0.1980
  652MOL0     C87942   1.007   7.858   1.764 -0.5099 -0.7365  1.3420
  652MOL0     C87943   1.113   7.954   1.739 -0.1551 -0.4096  0.9324
  652MOL0     O87944   1.110   8.053   1.635  0.6714  0.0346 -0.1097
  652MOL0     C87945   1.021   8.021   1.523  0.2722  0.3687 -0.1160
  652MOL0     C87946   0.894   8.093   1.524 -0.4341  0.5720 -0.1454
  652MOL0     C87947   0.786   8.048   1.422 -0.3971  1.3026 -0.1839
  652MOL0     C87948   0.657   8.119   1.420 -0.3933  0.1686  0.4669
  652MOL0     C87949   0.564   8.099   1.535 -0.6268  0.8917 -0.0241
  652MOL0     C87950   0.481   8.087   1.619 -0.4535  0.6177 -0.8243
  652MOL0     C87951   1.224   7.953   1.820  0.2381 -1.2204  0.0298
  652MOL0     C87952   1.239   7.854   1.913 -0.2445  0.2039 -0.4690
  652MOL0     H87953   1.194   7.368   2.054 -0.1575 -0.1409  0.2059
  652MOL0     H87954   1.248   7.201   2.231 -1.3395  0.2284  0.0189
  652MOL0     H87955   1.230   7.025   2.552  0.9350 -0.1484 -0.1929
  652MOL0     H87956   1.220   7.022   2.376  4.5062 -4.2513  1.8744
  652MOL0     H87957   1.442   7.036   2.480 -0.7219 -0.8450 -0.2961
  652MOL0     H87958   1.410   7.177   2.370  1.7248  2.3305  1.6317
  652MOL0     H87959   1.408   7.334   2.543  6.4139  2.1990  3.5861
  652MOL0     H87960   1.367   7.218   2.661  1.3441 -0.9562  0.7562
  652MOL0     H87961   1.560   7.107   2.665 -0.6732  1.9424  1.6110
  652MOL0     H87962   1.623   7.184   2.518 -1.3777 -0.9683 -0.3631
  652MOL0     H87963   1.733   7.295   2.725 -0.4668  2.2426 -0.2843
  652MOL0     H87964   1.601   7.402   2.662 -0.4825  0.0994 -1.1711
  652MOL0     H87965   1.444   7.306   2.839 -1.4909 -4.2823  1.3565
  652MOL0     H87966   1.576   7.198   2.887 -1.8693 -1.4651 -0.2364
  652MOL0     H87967   1.514   7.390   3.035 -3.0565  2.7567 -2.5600
  652MOL0     H87968   1.690   7.372   3.003 -1.2344 -1.6460  2.5459
  652MOL0     H87969   1.663   7.562   2.826  0.8474  0.3183  0.2219
  652MOL0     H87970   1.630   7.601   2.997  2.8071 -1.9614  0.4100
  652MOL0     H87971   1.494   7.592   2.656  0.2630 -1.0565  0.0284
  652MOL0     H87972   1.228   7.550   2.561 -1.2762 -1.7829  1.1535
  652MOL0     H87973   1.100   7.594   2.676 -0.0657 -0.8910  0.0426
  652MOL0     H87974   1.194   7.780   2.474 -0.1135 -2.8283 -0.0471
  652MOL0     H87975   1.290   7.831   2.617  0.8765  1.0258 -3.0835
  652MOL0     H87976   1.108   7.954   2.642  0.9927  0.4802 -2.2684
  652MOL0     H87977   1.071   7.834   2.750 -0.7976  4.4731  1.5502
  652MOL0     H87978   0.951   7.843   2.469 -0.5640  1.1881 -0.5090
  652MOL0     H87979   0.869   7.899   2.621  2.8410  2.5072  0.8055
  652MOL0     H87980   0.742   7.507   2.719 -2.4672 -0.1490  1.3372
  652MOL0     H87981   0.597   7.344   2.722 -1.3003 -0.2978  0.8240
  652MOL0     H87982   0.428   7.397   2.732  0.6845 -1.9370  1.3605
  652MOL0     H87983   0.501   7.306   2.592 -0.0315 -0.1584  0.0208
  652MOL0     H87984   0.180   7.807   2.243  2.2774 -1.5560  1.9647
  652MOL0     H87985  -0.046   7.816   2.127  1.2229  1.0099  0.6322
  652MOL0     H87986  -0.322   7.818   2.209 -1.3260 -0.8177 -0.6938
  652MOL0     H87987  -0.295   7.744   2.039 -3.4128  1.9273 -1.5209
  652MOL0     H87988  -0.484   7.613   2.234 -1.9636 -0.6640 -0.7417
  652MOL0     H87989  -0.528   7.727   2.108 -2.4889 -3.2283 -1.7289
  652MOL0     H87990  -0.446   7.455   2.062 -0.8462 -0.6502 -1.0227
  652MOL0     H87991  -0.410   7.571   1.932  1.0216  0.6110  0.0741
  652MOL0     H87992  -0.668   7.565   2.087  2.7379 -1.6431  1.7633
  652MOL0     H87993  -0.639   7.639   1.926  1.9660  2.0055  1.2865
  652MOL0     H87994  -0.686   7.341   2.003 -3.8283 -2.0203 -2.0519
  652MOL0     H87995  -0.592   7.386   1.855  0.2026  0.6158 -0.2670
  652MOL0     H87996  -0.791   7.495   1.779 -0.5085 -0.0860 -0.5456
  652MOL0     H87997  -0.840   7.327   1.816 -2.4864  0.7432 -0.0479
  652MOL0     H87998  -0.883   7.523   2.064  1.7791  0.2153 -0.6475
  652MOL0     H87999  -0.965   7.393   1.993 -0.3918  1.2491  2.1028
  652MOL0     H88000  -1.099   7.598   1.964  2.6457  0.1547  3.3835
  652MOL0     H88001  -1.044   7.546   1.808  2.8998 -2.3826 -0.0324
  652MOL0     H88002  -0.120   7.447   2.354  1.3565 -0.2821  3.7880
  652MOL0     H88003   0.086   7.459   2.446  0.2459  0.8383  0.6473
  652MOL0     H88004   0.489   7.754   2.369  0.3665 -0.4631 -1.3384
  652MOL0     H88005   0.737   7.788   2.403  0.2966 -1.2244 -1.6210
  652MOL0     H88006   1.006   7.405   2.514  0.2294  0.8795  0.5041
  652MOL0     H88007   0.951   7.585   2.326  0.8158 -0.8560  1.1513
  652MOL0     H88008   0.926   7.711   1.886 -2.2909  2.4122 -2.4576
  652MOL0     H88009   0.913   7.875   1.713  0.5301  1.3514 -0.0065
  652MOL0     H88010   1.064   8.068   1.435 -0.1803  2.2491  0.6173
  652MOL0     H88011   1.004   7.913   1.515  0.4852  0.3562 -0.3995
  652MOL0     H88012   0.913   8.198   1.500  2.1899 -0.1367 -1.6068
  652MOL0     H88013   0.854   8.086   1.625 -1.9556 -1.5662 -0.8108
  652MOL0     H88014   0.769   7.944   1.448  2.1644  0.8583 -0.0178
  652MOL0     H88015   0.843   8.037   1.329  2.0083 -1.4803  1.4526
  652MOL0     H88016   0.609   8.083   1.329  3.4277  0.8076 -2.0115
  652MOL0     H88017   0.672   8.225   1.399  0.6501  0.1634  1.1001
  652MOL0     H88018   0.415   8.070   1.701 -1.3197 -2.2125 -1.9914
  652MOL0     H88019   1.306   8.023   1.803 -3.0191  2.4474 -2.3007
  652MOL0     H88020   1.324   7.862   1.980 -0.2855  2.4015 -0.5834
  653MOL0     O88021   2.721   1.781   4.172  0.4276 -0.4775 -0.6721
  653MOL0     C88022   2.687   1.661   4.151 -0.1816  0.4470  0.1035
  653MOL0     O88023   2.652   1.602   4.040  0.8873 -0.0648  1.5258
  653MOL0     C88024   2.642   1.689   3.937 -0.0011  0.6762  0.8975
  653MOL0     C88025   2.758   1.716   3.855 -0.3127 -0.7401 -1.1542
  653MOL0     C88026   2.745   1.809   3.754 -0.5316 -0.0978 -0.8586
  653MOL0     C88027   2.611   1.861   3.722  0.0445 -0.6484  0.2555
  653MOL0     O88028   2.580   1.953   3.623 -0.2793  0.0140 -0.1826
  653MOL0     C88029   2.701   2.020   3.575 -0.2706 -0.2958 -0.3717
  653MOL0     C88030   2.681   2.118   3.459 -1.1083 -0.4305 -0.0862
  653MOL0     C88031   2.592   2.070   3.334 -0.0626 -0.8359 -0.5119
  653MOL0     C88032   2.543   2.193   3.250  0.0026  0.3004 -0.3850
  653MOL0     C88033   2.421   2.150   3.163  0.3851 -0.0450 -0.5653
  653MOL0     C88034   2.299   2.104   3.235  0.6069  0.8676  0.5017
  653MOL0     C88035   2.252   2.202   3.342  0.8762 -0.0533  0.1738
  653MOL0     C88036   2.129   2.153   3.421 -0.5306 -0.4905 -0.3149
  653MOL0     N88037   2.097   2.231   3.540 -0.3831 -0.6767  0.4783
  653MOL0     C88038   1.993   2.324   3.549 -0.5166  0.4370 -0.3888
  653MOL0     C88039   1.993   2.353   3.688 -0.0634  0.3531  0.2597
  653MOL0     C88040   1.885   2.438   3.744 -0.4146 -0.4918 -0.8886
  653MOL0     C88041   1.772   2.353   3.814  0.2944  0.7754 -0.7278
  653MOL0     C88042   1.671   2.432   3.908 -0.1584  1.7098  1.2816
  653MOL0     C88043   1.578   2.524   3.834 -0.1635  0.4232  0.3922
  653MOL0     O88044   1.516   2.592   3.949 -0.9430  0.2610 -0.0968
  653MOL0     C88045   1.408   2.674   3.919 -0.3347  0.1720  0.7818
  653MOL0     C88046   1.343   2.687   3.795  0.0344 -0.7757  0.6819
  653MOL0     C88047   1.231   2.778   3.777  0.2223  0.0181 -0.6106
  653MOL0     C88048   1.171   2.776   3.644  0.5591 -0.1598 -0.5476
  653MOL0     C88049   1.173   2.838   3.889  0.0255 -0.5185 -0.2454
  653MOL0     C88050   1.045   2.914   3.887  0.9721 -0.7502 -0.0975
  653MOL0     O88051   0.971   2.934   3.772  0.4948 -0.6794 -0.3347
  653MOL0     C88052   0.872   3.026   3.759 -0.1139 -0.5876 -0.2824
  653MOL0     C88053   0.798   3.020   3.636  0.5334 -0.4952  0.2142
  653MOL0     C88054   0.691   3.102   3.624  0.4098 -0.2438 -0.0990
  653MOL0     C88055   0.651   3.192   3.725  0.2483  0.1889 -0.3139
  653MOL0     O88056   0.540   3.276   3.717 -0.1004  0.6074  0.1418
  653MOL0     C88057   0.433   3.203   3.649 -0.1041 -0.1265  1.1608
  653MOL0     C88058   0.288   3.243   3.689  0.3682  0.3795  0.5785
  653MOL0     C88059   0.263   3.399   3.655 -0.1226 -0.6314 -0.9237
  653MOL0     C88060   0.295   3.442   3.509 -0.5475  0.4498 -0.1026
  653MOL0     C88061   0.266   3.581   3.469 -0.0445 -0.7918 -0.4752
  653MOL0     C88062   0.294   3.697   3.575 -0.2606  1.6644  0.0320
  653MOL0     C88063   0.249   3.829   3.527  0.3513 -0.1845  0.3380
  653MOL0     C88064   0.290   3.934   3.622 -0.2855  0.0660 -0.6228
  653MOL0    Cl88065   0.198   4.094   3.616 -0.1582  0.0585 -0.0620
  653MOL0     C88066   0.727   3.200   3.844  0.6244  0.6983  0.2728
  653MOL0     C88067   0.847   3.128   3.858 -0.5488  0.9965  0.2588
  653MOL0     O88068   1.009   2.944   4.004  0.0337 -0.0257 -0.4599
  653MOL0     C88069   1.240   2.829   4.014 -0.0246  1.0434  0.3625
  653MOL0     C88070   1.353   2.747   4.022  0.1155  0.2015 -0.7309
  653MOL0     N88071   2.085   2.274   3.750  0.7808 -0.4850 -0.3713
  653MOL0     N88072   2.148   2.203   3.663  0.0698  0.5781 -0.6495
  653MOL0     C88073   2.493   1.819   3.793 -0.5850 -0.1288  0.2480
  653MOL0     C88074   2.520   1.736   3.901  0.1022 -0.5399 -0.5685
  653MOL0     C88075   2.692   1.569   4.270 -0.0750 -0.0001  0.9983
  653MOL0     C88076   2.726   1.438   4.240  0.2025  0.5919 -0.4630
  653MOL0     C88077   2.743   1.355   4.352  0.3792  0.4328  0.3969
  653MOL0     C88078   2.723   1.390   4.487 -0.0211 -0.8851  0.3073
  653MOL0     O88079   2.756   1.290   4.573 -0.5088  0.1919 -0.4722
  653MOL0     C88080   2.789   1.319   4.709  0.4045 -0.6316 -0.1648
  653MOL0     C88081   2.846   1.184   4.758  0.8865  0.0247 -0.5377
  653MOL0     C88082   2.912   1.189   4.906  0.3506 -0.2468 -0.0111
  653MOL0     C88083   2.802   1.183   5.020  0.1522 -0.4404  0.8684
  653MOL0     C88084   2.855   1.181   5.156  0.4315 -0.0031 -0.1652
  653MOL0     C88085   2.895   1.183   5.275  0.4029 -0.2760  1.0238
  653MOL0     C88086   2.677   1.520   4.507 -1.0025 -0.2175  0.3617
  653MOL0     C88087   2.661   1.609   4.398 -0.5846  0.2552 -0.1404
  653MOL0     H88088   2.852   1.679   3.894 -1.4488  0.7215  3.5521
  653MOL0     H88089   2.839   1.847   3.714 -1.3761  1.2033 -1.6932
  653MOL0     H88090   2.749   2.073   3.657 -0.8433  1.6207 -1.2107
  653MOL0     H88091   2.764   1.938   3.541  0.8249  1.2719 -2.4161
  653MOL0     H88092   2.636   2.214   3.486 -0.4873  0.0254 -0.6451
  653MOL0     H88093   2.776   2.150   3.417 -0.8950 -0.8602  0.0639
  653MOL0     H88094   2.647   1.996   3.275  1.7422 -0.8293  1.0587
  653MOL0     H88095   2.507   2.011   3.370  1.3794 -2.0371  1.0956
  653MOL0     H88096   2.508   2.276   3.311 -4.7895  0.3031 -2.7162
  653MOL0     H88097   2.623   2.236   3.189 -1.7955  1.8356 -1.7813
  653MOL0     H88098   2.417   2.234   3.093  7.4907  0.5550 -0.9753
  653MOL0     H88099   2.458   2.063   3.108  0.7690 -0.0974 -0.2339
  653MOL0     H88100   2.228   2.099   3.152  1.0491 -2.1309  0.1960
  653MOL0     H88101   2.309   2.002   3.275  2.4479  0.8409  0.0184
  653MOL0     H88102   2.331   2.209   3.418  1.5677  2.0437 -0.6626
  653MOL0     H88103   2.217   2.300   3.306  0.6927 -0.7880 -1.7709
  653MOL0     H88104   2.135   2.046   3.444 -1.9117 -0.6126 -0.4015
  653MOL0     H88105   2.044   2.163   3.353 -0.3407  1.0514 -0.3621
  653MOL0     H88106   1.935   2.365   3.467  1.2445 -1.6209 -2.8034
  653MOL0     H88107   1.940   2.493   3.821 -0.1687  2.7137 -3.1551
  653MOL0     H88108   1.836   2.497   3.665 -2.5489 -0.7657  0.1544
  653MOL0     H88109   1.809   2.286   3.893 -0.8948  3.1048  2.0097
  653MOL0     H88110   1.717   2.292   3.741 -1.7761  0.8063  0.7006
  653MOL0     H88111   1.741   2.476   3.979  0.4691 -0.5910  2.1857
  653MOL0     H88112   1.617   2.366   3.977  2.0694 -0.1095  1.4328
  653MOL0     H88113   1.501   2.465   3.783  0.7495 -3.3400  2.9148
  653MOL0     H88114   1.641   2.586   3.770 -1.2089  1.3559  0.2286
  653MOL0     H88115   1.380   2.624   3.715 -0.4405 -1.0445  0.6715
  653MOL0     H88116   1.096   2.696   3.649  1.0171 -0.4984  1.9347
  653MOL0     H88117   1.135   2.876   3.620 -0.1694 -0.6042 -1.3958
  653MOL0     H88118   1.240   2.748   3.564 -0.7119  1.0190 -2.1357
  653MOL0     H88119   0.810   2.941   3.562 -0.0954  0.5704 -1.0555
  653MOL0     H88120   0.629   3.093   3.535 -0.9712  1.2126  0.6874
  653MOL0     H88121   0.446   3.217   3.541  0.6153  0.7024  1.3389
  653MOL0     H88122   0.444   3.098   3.676  0.0080  0.3066  2.8790
  653MOL0     H88123   0.224   3.189   3.619 -2.1905  3.2376  0.5072
  653MOL0     H88124   0.276   3.217   3.795  0.5653 -0.4200  0.4098
  653MOL0     H88125   0.332   3.456   3.717 -0.9535 -1.3877  0.7521
  653MOL0     H88126   0.160   3.431   3.677  0.8391  2.1569 -0.0016
  653MOL0     H88127   0.403   3.425   3.503 -0.3923 -0.6670  3.2918
  653MOL0     H88128   0.237   3.376   3.444  2.8142 -1.1645 -1.7190
  653MOL0     H88129   0.158   3.572   3.453 -0.1316  0.2846 -0.5693
  653MOL0     H88130   0.318   3.602   3.374  1.9575 -2.3507  0.1952
  653MOL0     H88131   0.252   3.667   3.671  2.7808  1.4882  1.4122
  653MOL0     H88132   0.402   3.711   3.583  0.0118  1.0157 -2.0406
  653MOL0     H88133   0.141   3.837   3.509  0.5637  1.6742 -0.3987
  653MOL0     H88134   0.300   3.848   3.432  1.6483  0.6142  1.1602
  653MOL0     H88135   0.398   3.945   3.624  0.2832 -3.3494 -2.9610
  653MOL0     H88136   0.262   3.900   3.722 -0.9695 -0.3276 -0.9361
  653MOL0     H88137   0.695   3.271   3.920 -1.1465  0.7174 -0.4368
  653MOL0     H88138   0.918   3.146   3.939 -1.1165 -3.1251  1.9355
  653MOL0     H88139   1.210   2.875   4.108 -0.9117 -0.9573  1.1039
  653MOL0     H88140   1.399   2.740   4.120  1.2459 -0.5195 -1.2958
  653MOL0     H88141   2.410   1.884   3.765  1.0926  3.2341  2.3195
  653MOL0     H88142   2.442   1.721   3.975 -0.0483 -4.8136 -1.3051
  653MOL0     H88143   2.738   1.410   4.136 -1.6084  0.8425 -0.7791
  653MOL0     H88144   2.767   1.250   4.342  0.1662  0.2299  1.8219
  653MOL0     H88145   2.869   1.393   4.703  1.1294 -1.4547 -0.7806
  653MOL0     H88146   2.699   1.361   4.755  0.4972  0.2967 -0.8047
  653MOL0     H88147   2.918   1.150   4.683 -0.2086  0.9038 -2.0261
  653MOL0     H88148   2.763   1.114   4.767  0.3273  0.6833 -0.5372
  653MOL0     H88149   2.965   1.285   4.909 -0.2778  0.1079  0.0586
  653MOL0     H88150   2.985   1.108   4.912 -0.1400 -1.2427 -4.1443
  653MOL0     H88151   2.757   1.087   4.994  2.3385 -1.0911 -0.8284
  653MOL0     H88152   2.730   1.265   5.011 -0.4280 -1.1505 -1.7402
  653MOL0     H88153   2.919   1.178   5.380  0.4839  0.7987  1.0703
  653MOL0     H88154   2.670   1.563   4.607 -0.9314 -0.1818  0.3513
  653MOL0     H88155   2.643   1.716   4.409  1.1540  0.4315  1.6298
  654MOL0     O88156  10.515   9.562   9.305 -0.5924 -0.2913  0.5698
  654MOL0     C88157  10.612   9.615   9.256  0.5637 -0.6600 -0.2988
  654MOL0     O88158  10.655   9.594   9.121 -0.7551 -0.5320 -0.6672
  654MOL0     C88159  10.595   9.499   9.036 -0.8196  0.4390 -0.3703
  654MOL0     C88160  10.491   9.406   9.066 -0.8974  1.1146 -1.0191
  654MOL0     C88161  10.464   9.302   8.972 -0.1860  0.0799 -0.6701
  654MOL0     C88162  10.513   9.312   8.839 -0.3361  0.6777  0.5076
  654MOL0     O88163  10.487   9.230   8.730 -0.3223 -0.3957  0.5607
  654MOL0     C88164  10.374   9.145   8.731  0.4863  0.1505 -0.4502
  654MOL0     C88165  10.301   9.117   8.594 -0.1208 -0.6074 -0.7642
  654MOL0     C88166  10.401   9.054   8.496 -0.8292 -0.1470  1.0014
  654MOL0     C88167  10.342   9.092   8.357 -0.4107  0.9245 -0.3260
  654MOL0     C88168  10.450   9.076   8.251 -0.8398  0.9986  0.0367
  654MOL0     C88169  10.389   9.045   8.111  0.9281  0.8490  0.3943
  654MOL0     C88170  10.487   9.015   8.000 -0.6730  0.6825  0.8322
  654MOL0     C88171  10.448   8.893   7.913  0.4938 -0.4089 -0.2886
  654MOL0     N88172  10.466   8.759   7.974 -0.6501 -1.5389  0.5610
  654MOL0     C88173  10.369   8.694   8.048  0.2346  1.1714  0.2605
  654MOL0     C88174  10.416   8.571   8.078  0.5458 -0.9741 -0.0291
  654MOL0     C88175  10.360   8.474   8.181 -0.1468 -0.6605 -0.6389
  654MOL0     C88176  10.385   8.520   8.328  0.1631  0.7967 -0.1547
  654MOL0     C88177  10.528   8.501   8.375 -0.1871 -0.8561  0.1111
  654MOL0     C88178  10.571   8.349   8.392  0.9710 -0.3250  0.5817
  654MOL0     O88179  10.700   8.338   8.451  0.2531 -0.6170  0.1207
  654MOL0     C88180  10.712   8.379   8.583  0.4141  0.0137  0.8440
  654MOL0     C88181  10.810   8.476   8.610  0.0120  0.0403 -1.0403
  654MOL0     C88182  10.828   8.505   8.740 -0.0627 -0.7239 -0.5088
  654MOL0     C88183  10.948   8.600   8.776 -0.2705  0.2608 -0.3480
  654MOL0     C88184  10.760   8.447   8.848  0.0291 -1.1661 -0.1080
  654MOL0     C88185  10.775   8.477   8.994  1.0018 -0.7329  0.0979
  654MOL0     O88186  10.857   8.574   9.037 -0.3437 -0.4438  0.0247
  654MOL0     C88187  10.874   8.626   9.159  0.2773 -0.2575  0.0077
  654MOL0     C88188  10.962   8.736   9.168 -0.9331  0.2778  0.1823
  654MOL0     C88189  10.980   8.811   9.288 -0.8133  0.2082 -0.0666
  654MOL0     C88190  10.916   8.773   9.401  0.7713  0.6588 -0.5627
  654MOL0     O88191  10.931   8.838   9.522 -0.2894  0.0824  0.1466
  654MOL0     C88192  10.884   8.774   9.648 -0.3457  0.2979  0.9170
  654MOL0     C88193  10.945   8.848   9.767 -0.4908  1.1029 -0.5169
  654MOL0     C88194  10.879   8.985   9.782 -0.4100 -0.2979  0.3708
  654MOL0     C88195  10.924   9.063   9.904  0.7158 -0.0692  0.0239
  654MOL0     C88196  10.910   8.990  10.036 -0.1772 -1.0954 -0.6600
  654MOL0     C88197  10.922   9.080  10.159 -0.3071  0.6346 -0.5332
  654MOL0     C88198  10.923   8.998  10.305  0.0804 -0.2129 -0.2022
  654MOL0     C88199  10.920   9.102  10.422 -1.4098  0.2643 -0.8063
  654MOL0    Cl88200  11.080   9.193  10.424  0.2095  0.2632 -0.2002
  654MOL0     C88201  10.822   8.663   9.388 -0.3772  0.1384  0.0746
  654MOL0     C88202  10.802   8.595   9.265  0.3068  1.1624  0.0177
  654MOL0     O88203  10.707   8.395   9.068  0.1898 -0.1437  0.5094
  654MOL0     C88204  10.663   8.349   8.813 -0.3108  0.0706 -0.4651
  654MOL0     C88205  10.640   8.312   8.677  0.6217  0.2804  0.2328
  654MOL0     N88206  10.527   8.549   8.006 -0.1208 -0.4448 -0.0198
  654MOL0     N88207  10.564   8.664   7.949 -0.2278  0.2306  0.5829
  654MOL0     C88208  10.608   9.411   8.802 -0.4115 -0.0872 -0.2147
  654MOL0     C88209  10.647   9.494   8.905 -0.7446  0.3576 -0.5738
  654MOL0     C88210  10.693   9.701   9.347 -0.1032  0.5135 -0.6358
  654MOL0     C88211  10.704   9.678   9.486  0.3212 -1.4498 -0.0473
  654MOL0     C88212  10.795   9.748   9.562 -0.9429  0.5861  0.3020
  654MOL0     C88213  10.877   9.852   9.505  1.3330  0.4267  0.0521
  654MOL0     O88214  10.985   9.908   9.569  0.1419 -0.5067  0.7801
  654MOL0     C88215  11.072  10.008   9.509 -0.2440 -1.0708 -1.3201
  654MOL0     C88216  11.175  10.052   9.609  0.3719  0.7699  0.7653
  654MOL0     C88217  11.238  10.184   9.577  0.3522  0.0308 -0.4611
  654MOL0     C88218  11.330  10.196   9.452 -0.0186  0.1576  0.2766
  654MOL0     C88219  11.279  10.169   9.312  0.1132  0.0498 -0.3386
  654MOL0     C88220  11.233  10.141   9.205  0.0148 -0.9283  0.6855
  654MOL0     C88221  10.846   9.883   9.370 -0.7942  0.2080  1.2381
  654MOL0     C88222  10.762   9.806   9.295 -1.2506  0.1885 -0.0868
  654MOL0     H88223  10.438   9.411   9.160 -1.6654  1.4591 -1.4635
  654MOL0     H88224  10.398   9.220   8.999  0.6048 -1.7692 -3.7895
  654MOL0     H88225  10.403   9.043   8.759 -0.3170  0.1787  0.5378
  654MOL0     H88226  10.308   9.190   8.806  3.0048  1.6618  0.9971
  654MOL0     H88227  10.216   9.050   8.612 -0.7613  0.4742  0.4041
  654MOL0     H88228  10.257   9.210   8.557 -1.2504 -0.7853  0.0919
  654MOL0     H88229  10.502   9.093   8.511 -1.2313  1.9238 -1.0022
  654MOL0     H88230  10.416   8.947   8.508  0.4167 -0.2106 -0.7236
  654MOL0     H88231  10.267   9.014   8.344 -2.2493  2.6840 -0.9171
  654MOL0     H88232  10.301   9.194   8.351  0.3288  1.1565 -2.3207
  654MOL0     H88233  10.515   9.164   8.244  0.9043 -0.1866  0.5529
  654MOL0     H88234  10.520   8.999   8.282 -1.3659 -0.4038 -2.0456
  654MOL0     H88235  10.327   8.955   8.118  3.5162 -0.9345  2.1610
  654MOL0     H88236  10.323   9.132   8.096  0.0003  0.5979  2.5748
  654MOL0     H88237  10.499   9.109   7.946 -1.0449  1.4792  2.0792
  654MOL0     H88238  10.583   8.988   8.045  0.5036  1.1613 -1.2654
  654MOL0     H88239  10.498   8.901   7.817  0.8773  2.3068  0.0644
  654MOL0     H88240  10.343   8.908   7.886 -0.4592 -0.9807  2.7368
  654MOL0     H88241  10.280   8.744   8.083 -0.8576  0.1734 -0.9686
  654MOL0     H88242  10.256   8.452   8.158 -0.7830 -2.6038  3.3708
  654MOL0     H88243  10.414   8.380   8.163  2.5829  0.0787  2.6015
  654MOL0     H88244  10.330   8.462   8.402 -1.1283  1.8279 -0.2742
  654MOL0     H88245  10.353   8.624   8.331  2.4333  1.6842 -2.4453
  654MOL0     H88246  10.528   8.543   8.476  3.8738  1.7781 -0.7679
  654MOL0     H88247  10.589   8.553   8.301 -1.9944 -0.6889 -1.3402
  654MOL0     H88248  10.576   8.297   8.296 -0.3041 -0.8258  0.7590
  654MOL0     H88249  10.488   8.305   8.449 -0.2260  0.2111 -0.6788
  654MOL0     H88250  10.868   8.522   8.530  4.1578 -0.8391  1.1284
  654MOL0     H88251  11.012   8.616   8.689  0.9059  1.6479  0.7274
  654MOL0     H88252  10.920   8.700   8.810 -0.2218 -0.5229  2.2298
  654MOL0     H88253  11.007   8.543   8.849  0.2753 -0.8516 -1.6199
  654MOL0     H88254  11.009   8.777   9.079 -0.7142 -1.5610 -0.5926
  654MOL0     H88255  11.040   8.901   9.281 -1.9438  0.8821 -1.6042
  654MOL0     H88256  10.775   8.771   9.650 -0.3427 -1.2238  0.1238
  654MOL0     H88257  10.912   8.669   9.647 -0.0300  0.3769 -0.1821
  654MOL0     H88258  10.925   8.789   9.857  0.1007 -0.6205 -1.4853
  654MOL0     H88259  11.053   8.859   9.771 -0.3427 -0.4005  0.5044
  654MOL0     H88260  10.771   8.969   9.777 -0.2579 -2.2791  1.9663
  654MOL0     H88261  10.906   9.039   9.691  0.2201 -1.5278 -0.1954
  654MOL0     H88262  11.032   9.072   9.888  0.8656 -0.1717  0.9380
  654MOL0     H88263  10.881   9.163   9.910  0.8776  0.0748 -1.0240
  654MOL0     H88264  10.981   8.909  10.057 -0.2956 -0.5601  2.2854
  654MOL0     H88265  10.809   8.949  10.028 -1.4593  1.5278  0.7494
  654MOL0     H88266  11.010   9.144  10.162 -2.8355  4.4618 -1.2233
  654MOL0     H88267  10.828   9.136  10.164  0.8836  2.5998  1.6240
  654MOL0     H88268  11.022   8.952  10.313  0.4371  0.9034  3.0795
  654MOL0     H88269  10.853   8.915  10.319  2.5759 -2.1861  1.4581
  654MOL0     H88270  10.909   9.048  10.517  1.8992  1.9261  0.6887
  654MOL0     H88271  10.836   9.170  10.408 -0.5027  1.5237 -0.2983
  654MOL0     H88272  10.771   8.619   9.473 -0.2219  5.3809  3.3636
  654MOL0     H88273  10.723   8.521   9.262 -0.8578  2.3920 -0.9521
  654MOL0     H88274  10.617   8.281   8.883 -0.2635 -1.8932 -2.2593
  654MOL0     H88275  10.581   8.221   8.670 -0.6760  1.1172 -0.0818
  654MOL0     H88276  10.632   9.411   8.696  5.2584 -2.2423  0.7029
  654MOL0     H88277  10.723   9.571   8.888 -0.0931  0.5256  2.4871
  654MOL0     H88278  10.642   9.606   9.538 -2.9528  1.6588  0.7670
  654MOL0     H88279  10.812   9.724   9.666 -0.4023  0.4664  0.1854
  654MOL0     H88280  11.135   9.966   9.430  0.4830 -2.0436 -0.2655
  654MOL0     H88281  11.012  10.094   9.479  2.3354  0.5775 -2.1263
  654MOL0     H88282  11.263   9.986   9.617  1.8911  2.1786 -2.6647
  654MOL0     H88283  11.126  10.059   9.707 -1.1209 -1.2814  0.2425
  654MOL0     H88284  11.298  10.228   9.658 -0.3710  0.7235 -0.2803
  654MOL0     H88285  11.161  10.262   9.571  1.7757  1.7592  1.7113
  654MOL0     H88286  11.409  10.122   9.466 -0.9284 -1.6968 -3.2067
  654MOL0     H88287  11.363  10.300   9.461  1.6487 -0.4590  1.9754
  654MOL0     H88288  11.204  10.116   9.105  1.4506  0.0911 -0.0174
  654MOL0     H88289  10.906   9.958   9.321 -3.0302  0.7046 -0.9642
  654MOL0     H88290  10.758   9.828   9.189  0.7953 -0.3813 -0.3216
  655MOL0     O88291   9.182   2.354   6.903 -0.7133  0.3643 -0.1342
  655MOL0     C88292   9.085   2.422   6.927  0.5399  0.1770  0.3624
  655MOL0     O88293   9.059   2.470   7.049 -0.0795 -0.1221  0.1695
  655MOL0     C88294   9.153   2.445   7.149 -0.0357  1.2556  0.7480
  655MOL0     C88295   9.154   2.322   7.233  0.1395  0.3342  0.2849
  655MOL0     C88296   9.232   2.309   7.346  0.1892  0.1356 -0.8865
  655MOL0     C88297   9.306   2.423   7.377  0.4154 -0.2161  0.2874
  655MOL0     O88298   9.364   2.407   7.502 -0.3925 -0.3240  0.7295
  655MOL0     C88299   9.427   2.515   7.570  0.1552  0.2286 -0.9544
  655MOL0     C88300   9.490   2.479   7.692 -0.5922 -0.3677 -0.3479
  655MOL0     C88301   9.532   2.607   7.769  0.7132 -0.4497 -0.4678
  655MOL0     C88302   9.651   2.569   7.854  0.8855  0.1277 -0.7309
  655MOL0     C88303   9.688   2.670   7.953 -0.0898 -0.1266 -0.7254
  655MOL0     C88304   9.782   2.619   8.059 -0.3168 -0.0130  0.3409
  655MOL0     C88305   9.842   2.726   8.156  0.6998  0.2770  0.0829
  655MOL0     C88306   9.900   2.654   8.282 -1.0197 -0.4401 -0.5960
  655MOL0     N88307   9.940   2.761   8.372 -0.6698 -0.2280 -1.1879
  655MOL0     C88308   9.855   2.843   8.442  0.2085 -1.0878  0.2352
  655MOL0     C88309   9.919   2.957   8.477  0.2015 -0.1050  0.7861
  655MOL0     C88310   9.858   3.062   8.568  0.2943 -0.8559 -0.4077
  655MOL0     C88311   9.896   3.204   8.524 -0.3364 -0.7657  0.5386
  655MOL0     C88312   9.819   3.239   8.397  0.4870  0.0754 -0.6228
  655MOL0     C88313   9.817   3.386   8.357  0.0181 -0.4742  0.4849
  655MOL0     O88314   9.864   3.400   8.221 -0.5369  0.1799  0.5141
  655MOL0     C88315   9.888   3.525   8.169 -0.2793  0.2290 -0.4578
  655MOL0     C88316   9.985   3.533   8.070 -0.6743  0.3352 -0.1227
  655MOL0     C88317  10.039   3.656   8.027 -0.3227 -1.1433 -0.5773
  655MOL0     C88318  10.134   3.651   7.917 -0.1612 -0.6964 -0.7163
  655MOL0     C88319   9.995   3.774   8.088 -0.4712  0.4234 -0.6172
  655MOL0     C88320  10.054   3.910   8.071 -0.0167  0.9434 -0.7821
  655MOL0     O88321  10.004   4.003   8.150  0.4444  0.0127  0.3615
  655MOL0     C88322  10.045   4.132   8.143 -0.0497  0.0822 -0.6472
  655MOL0     C88323  10.034   4.218   8.032  0.7520  0.9726  0.2133
  655MOL0     C88324  10.105   4.338   8.015  0.1649  0.8159 -0.0880
  655MOL0     C88325  10.182   4.386   8.120  0.8716  0.9119 -0.2678
  655MOL0     O88326  10.263   4.490   8.114 -0.1107 -0.1609  0.7030
  655MOL0     C88327  10.299   4.544   7.982 -0.3650 -0.7086 -0.0689
  655MOL0     C88328  10.347   4.685   8.014 -0.0317  0.0311 -0.3829
  655MOL0     C88329  10.386   4.768   7.889 -0.7984 -0.3551  0.1883
  655MOL0     C88330  10.456   4.900   7.930  0.4501 -0.2025 -0.2811
  655MOL0     C88331  10.529   4.969   7.811 -0.6935  0.3293  0.1382
  655MOL0     C88332  10.544   5.111   7.843  0.0975 -0.1256 -0.2660
  655MOL0     C88333  10.409   5.180   7.819  0.0364 -0.5712  0.3904
  655MOL0     C88334  10.385   5.287   7.931  0.1971 -0.1690  0.3725
  655MOL0    Cl88335  10.506   5.419   7.918  0.0019  0.0129  0.4320
  655MOL0     C88336  10.167   4.313   8.244 -0.6424 -0.3931  0.5379
  655MOL0     C88337  10.116   4.181   8.250  0.0289  0.3904 -0.8250
  655MOL0     O88338  10.139   3.934   7.978  0.3121  0.0177 -0.6704
  655MOL0     C88339   9.900   3.762   8.189  0.6633  0.5590 -0.2418
  655MOL0     C88340   9.852   3.641   8.235  0.0021  0.0760  0.2321
  655MOL0     N88341  10.049   2.939   8.433  0.4696  0.2469  0.1870
  655MOL0     N88342  10.056   2.832   8.366 -0.9752  0.3306  0.1067
  655MOL0     C88343   9.311   2.539   7.291 -0.1692  1.0610 -0.2182
  655MOL0     C88344   9.238   2.547   7.183  0.3067 -0.2463  0.2008
  655MOL0     C88345   9.002   2.474   6.819 -1.4828  0.1079 -0.1956
  655MOL0     C88346   8.892   2.556   6.837  0.4210 -0.4623  0.5170
  655MOL0     C88347   8.811   2.597   6.730  0.8031  0.5798  0.7768
  655MOL0     C88348   8.844   2.564   6.600 -0.3286  0.3659  0.5734
  655MOL0     O88349   8.771   2.595   6.485  0.4088  0.9260  0.5698
  655MOL0     C88350   8.646   2.664   6.490  1.1172  0.9004  0.1842
  655MOL0     C88351   8.583   2.688   6.355  0.3599  0.6152  0.9580
  655MOL0     C88352   8.500   2.568   6.313  0.2087 -0.4487  0.3063
  655MOL0     C88353   8.443   2.594   6.168 -0.1553  0.2206  0.0206
  655MOL0     C88354   8.340   2.502   6.132 -0.1333  0.5149 -0.2887
  655MOL0     C88355   8.264   2.408   6.099  0.0452  0.5589 -0.2412
  655MOL0     C88356   8.969   2.512   6.579  0.1249  0.5584  0.5592
  655MOL0     C88357   9.037   2.452   6.680 -0.0117  0.4111 -0.3855
  655MOL0     H88358   9.090   2.235   7.221  4.4333 -3.6114  2.8943
  655MOL0     H88359   9.252   2.219   7.403  1.7945  2.6521  3.0367
  655MOL0     H88360   9.505   2.565   7.511  0.4869  0.0417 -0.6787
  655MOL0     H88361   9.365   2.602   7.592  1.3912  1.2952 -1.5092
  655MOL0     H88362   9.416   2.420   7.747  0.3888 -3.1736 -1.8103
  655MOL0     H88363   9.581   2.419   7.677  1.3572  2.0769  0.9951
  655MOL0     H88364   9.556   2.683   7.694  0.3142  0.2159  0.0610
  655MOL0     H88365   9.446   2.646   7.826  1.8163  1.2510  0.1130
  655MOL0     H88366   9.625   2.479   7.910  6.4984 -0.0822  2.2886
  655MOL0     H88367   9.737   2.546   7.790  0.0293  0.9268 -2.2250
  655MOL0     H88368   9.749   2.752   7.913  2.1306 -0.1541  2.2320
  655MOL0     H88369   9.604   2.700   8.016 -0.9964 -3.1914 -0.3030
  655MOL0     H88370   9.732   2.538   8.113 -0.1660 -0.4410 -0.1413
  655MOL0     H88371   9.870   2.587   8.003  0.7891 -0.2510  2.1371
  655MOL0     H88372   9.923   2.773   8.100  0.5085  1.4539  0.7728
  655MOL0     H88373   9.771   2.807   8.178 -1.9236 -1.1373 -2.4321
  655MOL0     H88374   9.993   2.600   8.261 -1.2710 -2.0482  1.9850
  655MOL0     H88375   9.831   2.592   8.340  1.6239 -1.2585  1.9231
  655MOL0     H88376   9.750   2.822   8.456  0.0867  0.4435  1.8374
  655MOL0     H88377   9.749   3.051   8.569 -0.4580  4.1409  1.9914
  655MOL0     H88378   9.885   3.044   8.672  0.1021 -1.2668 -0.4233
  655MOL0     H88379  10.005   3.208   8.517 -0.4496 -0.5008 -1.9724
  655MOL0     H88380   9.862   3.277   8.597 -1.2451  2.9948 -3.2357
  655MOL0     H88381   9.716   3.208   8.418  0.4679  0.9130  0.6385
  655MOL0     H88382   9.857   3.167   8.324 -1.1042 -1.6466  0.1796
  655MOL0     H88383   9.871   3.445   8.431 -1.4185  1.8271 -0.2143
  655MOL0     H88384   9.713   3.419   8.347  0.4103  0.1705 -2.3747
  655MOL0     H88385  10.000   3.435   8.027 -1.0264  0.5618 -0.7734
  655MOL0     H88386  10.087   3.696   7.829  2.2841  1.3237 -1.1266
  655MOL0     H88387  10.217   3.718   7.942  0.2615 -1.1082 -0.9866
  655MOL0     H88388  10.193   3.559   7.913 -1.4017 -1.6594  1.4918
  655MOL0     H88389   9.984   4.171   7.948 -0.5680 -1.6544  2.3407
  655MOL0     H88390  10.098   4.383   7.917 -1.2261 -0.7122 -0.7282
  655MOL0     H88391  10.373   4.492   7.920  1.4351  0.3373  1.1151
  655MOL0     H88392  10.216   4.568   7.915 -1.0676  0.5014  1.1979
  655MOL0     H88393  10.265   4.729   8.072 -0.9187 -2.0615  0.0500
  655MOL0     H88394  10.438   4.676   8.074  0.2631  2.1341 -0.4359
  655MOL0     H88395  10.295   4.792   7.833 -1.1859  2.9562  2.0121
  655MOL0     H88396  10.467   4.726   7.829  1.2375  2.7859  0.5333
  655MOL0     H88397  10.385   4.971   7.973  1.5968  0.5108  0.5143
  655MOL0     H88398  10.535   4.879   8.003  3.5240  0.0447 -3.2707
  655MOL0     H88399  10.484   4.939   7.716 -0.0397  0.0701 -0.0936
  655MOL0     H88400  10.632   4.932   7.809 -1.6071 -2.4649 -1.2590
  655MOL0     H88401  10.571   5.111   7.949  0.0770 -0.4838 -0.2609
  655MOL0     H88402  10.608   5.174   7.781  1.8912  0.2254  1.8179
  655MOL0     H88403  10.326   5.109   7.816  0.2820 -0.9026  1.0966
  655MOL0     H88404  10.413   5.212   7.714  0.7663 -1.1384  0.2335
  655MOL0     H88405  10.394   5.251   8.034 -0.8984  1.7836  1.2163
  655MOL0     H88406  10.285   5.329   7.919  0.8638  2.0356  1.8698
  655MOL0     H88407  10.220   4.354   8.330 -0.4508 -0.2133  0.3336
  655MOL0     H88408  10.121   4.117   8.337  1.7304 -0.3506 -1.4429
  655MOL0     H88409   9.861   3.839   8.255  1.3427  0.8496 -0.1693
  655MOL0     H88410   9.789   3.634   8.323  0.2829  1.0629  0.5222
  655MOL0     H88411   9.360   2.629   7.327 -3.3102  2.6132  0.5726
  655MOL0     H88412   9.252   2.638   7.126  3.1327  0.3101  1.5912
  655MOL0     H88413   8.848   2.584   6.932 -1.2392  1.7853 -0.8065
  655MOL0     H88414   8.721   2.651   6.760 -1.0558 -2.1631  0.5542
  655MOL0     H88415   8.585   2.619   6.568  2.0354  0.6091  0.7518
  655MOL0     H88416   8.670   2.764   6.525 -0.8693  1.6138 -0.3510
  655MOL0     H88417   8.670   2.711   6.292 -0.4169  2.1137  0.3932
  655MOL0     H88418   8.527   2.782   6.351  1.2541  1.1371 -2.5165
  655MOL0     H88419   8.418   2.550   6.383 -0.7337  4.7637  0.8970
  655MOL0     H88420   8.562   2.478   6.302 -1.1870 -1.3854 -0.0987
  655MOL0     H88421   8.530   2.603   6.102 -0.7527  0.7905 -0.7052
  655MOL0     H88422   8.405   2.697   6.174  0.2627  0.3479  0.5958
  655MOL0     H88423   8.185   2.341   6.071 -1.0044  0.4349  2.6765
  655MOL0     H88424   8.995   2.506   6.473 -2.9362  2.2823 -0.4400
  655MOL0     H88425   9.127   2.402   6.646  1.0745  2.6355 -0.9742
  656MOL0     O88426   2.179   1.405   2.899  0.3098  0.1289 -0.0502
  656MOL0     C88427   2.240   1.299   2.904  0.3614  0.8524  0.7401
  656MOL0     O88428   2.365   1.272   2.847  0.2450  0.3732  0.3261
  656MOL0     C88429   2.444   1.369   2.780 -0.1218 -0.0376  0.6198
  656MOL0     C88430   2.573   1.319   2.741 -0.2657  0.8327 -0.1544
  656MOL0     C88431   2.661   1.399   2.664 -0.0248  0.6923 -0.3389
  656MOL0     C88432   2.623   1.533   2.637  1.0324 -0.8888  0.4777
  656MOL0     O88433   2.716   1.605   2.566 -0.4433 -0.7007  0.4186
  656MOL0     C88434   2.708   1.747   2.543  0.8034  0.3546 -0.5944
  656MOL0     C88435   2.785   1.771   2.417  0.5080 -0.4403 -0.3565
  656MOL0     C88436   2.864   1.899   2.428  0.1604 -0.1094  0.3395
  656MOL0     C88437   2.998   1.884   2.504 -0.4054  0.5779  0.1995
  656MOL0     C88438   3.071   2.009   2.553 -0.7159  0.3392  0.0525
  656MOL0     C88439   3.065   2.118   2.447 -0.1622  0.2011  0.1817
  656MOL0     C88440   3.173   2.224   2.469  0.5634 -0.0727 -0.6583
  656MOL0     C88441   3.130   2.362   2.523  0.4765 -0.2881  0.6330
  656MOL0     N88442   3.248   2.455   2.514  0.8556 -0.1262 -0.6077
  656MOL0     C88443   3.282   2.525   2.403  0.8226 -0.9715 -0.6319
  656MOL0     C88444   3.397   2.580   2.435  0.2790  0.2142  0.1603
  656MOL0     C88445   3.473   2.671   2.349 -0.7068  0.1660  1.5619
  656MOL0     C88446   3.439   2.821   2.371 -0.1448 -0.2727 -0.1334
  656MOL0     C88447   3.562   2.907   2.368 -0.3363 -0.2705 -0.0835
  656MOL0     C88448   3.520   3.051   2.343 -0.1145 -0.2683 -0.1671
  656MOL0     O88449   3.460   3.058   2.215  0.0946  0.6071 -0.0904
  656MOL0     C88450   3.531   3.087   2.106 -0.3569  0.9129  0.1189
  656MOL0     C88451   3.490   3.047   1.980 -0.1955 -0.8560 -0.5231
  656MOL0     C88452   3.553   3.085   1.859  0.2552  0.9313  0.6997
  656MOL0     C88453   3.499   3.021   1.735 -0.3875 -0.6694  1.1714
  656MOL0     C88454   3.666   3.177   1.855  0.2598  0.0060 -0.0667
  656MOL0     C88455   3.721   3.240   1.728  0.0550 -0.6042 -0.3776
  656MOL0     O88456   3.637   3.255   1.626 -0.2420  0.5004  0.5903
  656MOL0     C88457   3.671   3.283   1.494 -0.4902  0.7211 -0.3769
  656MOL0     C88458   3.782   3.368   1.453 -0.7016  0.5411  0.6285
  656MOL0     C88459   3.814   3.391   1.316  0.5326  0.1474  0.5260
  656MOL0     C88460   3.735   3.320   1.210  0.8470  0.5248 -0.7018
  656MOL0     O88461   3.754   3.326   1.075  0.0224 -0.8439 -0.2741
  656MOL0     C88462   3.881   3.326   1.023  0.0014 -0.5246  0.1672
  656MOL0     C88463   3.881   3.258   0.881 -0.0698 -0.0295 -0.5960
  656MOL0     C88464   3.766   3.315   0.802 -0.2409 -0.7466  1.2939
  656MOL0     C88465   3.800   3.295   0.655  0.8830 -0.2724 -0.9000
  656MOL0     C88466   3.660   3.323   0.585  0.1554 -0.2880  0.7370
  656MOL0     C88467   3.683   3.340   0.437  0.7241  0.5229 -0.0137
  656MOL0     C88468   3.741   3.210   0.379 -0.2338 -0.3715  0.4174
  656MOL0     C88469   3.714   3.217   0.226 -0.7841  0.0579 -0.6504
  656MOL0    Cl88470   3.757   3.051   0.179 -0.4670 -0.3394  0.2623
  656MOL0     C88471   3.615   3.258   1.262  0.0714 -0.1384  0.5208
  656MOL0     C88472   3.592   3.232   1.394 -0.6209  0.5633 -0.6802
  656MOL0     O88473   3.843   3.271   1.718  1.0012  0.5046 -0.5585
  656MOL0     C88474   3.720   3.212   1.979  2.2926  0.5654 -0.6116
  656MOL0     C88475   3.654   3.150   2.098 -0.0944 -0.3672 -0.7128
  656MOL0     N88476   3.441   2.548   2.560  0.6160 -0.4262 -0.3505
  656MOL0     N88477   3.356   2.461   2.603 -0.2167 -0.8061  0.6919
  656MOL0     C88478   2.499   1.587   2.682  0.1997  0.1823  0.0005
  656MOL0     C88479   2.412   1.501   2.745  0.8329  0.0751 -0.6721
  656MOL0     C88480   2.156   1.195   2.972 -0.2230  1.6186 -0.1542
  656MOL0     C88481   2.205   1.064   2.972  0.3278 -0.6456 -0.2459
  656MOL0     C88482   2.132   0.957   3.027  1.1801 -0.2373  0.0574
  656MOL0     C88483   2.010   0.984   3.092 -1.0059  0.2996  0.3317
  656MOL0     O88484   1.958   0.872   3.153  0.6243  0.5570  0.1509
  656MOL0     C88485   1.851   0.880   3.239 -0.2702 -0.4327 -0.1553
  656MOL0     C88486   1.722   0.860   3.151 -0.8867  0.2900 -0.0306
  656MOL0     C88487   1.607   0.818   3.242 -0.3246 -0.2443 -0.3888
  656MOL0     C88488   1.477   0.813   3.165 -0.1177 -0.6655  0.7764
  656MOL0     C88489   1.405   0.947   3.150  0.2409 -0.0024 -0.1906
  656MOL0     C88490   1.338   1.049   3.141  0.2287 -0.8846  0.1134
  656MOL0     C88491   1.958   1.118   3.099 -0.0084  0.5661 -0.4904
  656MOL0     C88492   2.036   1.220   3.037  0.2801 -0.0218 -0.0808
  656MOL0     H88493   2.601   1.215   2.754 -0.0340  0.9846  0.5984
  656MOL0     H88494   2.763   1.386   2.631 -0.5961  0.2883 -2.0627
  656MOL0     H88495   2.608   1.790   2.529  0.9065  0.8124  0.0496
  656MOL0     H88496   2.750   1.794   2.632 -0.2688  1.6414 -0.7403
  656MOL0     H88497   2.852   1.686   2.402  5.6031  2.4686  2.8753
  656MOL0     H88498   2.716   1.784   2.333  0.9637  3.2033 -0.3520
  656MOL0     H88499   2.882   1.930   2.325  0.8565 -1.1537  0.1297
  656MOL0     H88500   2.810   1.981   2.477  0.4656  0.6909 -0.6273
  656MOL0     H88501   2.980   1.827   2.596 -1.5055  3.0648  1.6249
  656MOL0     H88502   3.066   1.829   2.439  1.2045  0.0671  2.1928
  656MOL0     H88503   3.037   2.037   2.653 -1.7400 -2.1472  0.4694
  656MOL0     H88504   3.175   1.980   2.571 -1.2008 -0.9493  0.8964
  656MOL0     H88505   3.088   2.075   2.349 -0.6142  0.2562  0.0472
  656MOL0     H88506   2.965   2.162   2.440  0.3041  1.1597 -0.8621
  656MOL0     H88507   3.247   2.187   2.541  0.5133  4.8284  2.4099
  656MOL0     H88508   3.226   2.242   2.375 -1.5804 -1.4992 -2.2021
  656MOL0     H88509   3.115   2.343   2.630 -0.1727 -0.6766  0.4761
  656MOL0     H88510   3.034   2.392   2.481  0.5119 -0.9931  0.0314
  656MOL0     H88511   3.216   2.542   2.318  0.8896 -2.3439 -0.9960
  656MOL0     H88512   3.576   2.653   2.382  0.4109  1.6191 -0.8512
  656MOL0     H88513   3.460   2.650   2.243 -2.2360 -0.6886  1.8952
  656MOL0     H88514   3.392   2.834   2.469  2.7545 -4.8875  2.2284
  656MOL0     H88515   3.372   2.863   2.295  0.4539  0.6092 -0.1909
  656MOL0     H88516   3.632   2.873   2.292  3.9938  2.6510  2.1345
  656MOL0     H88517   3.612   2.900   2.465  1.3123  0.8487 -0.8067
  656MOL0     H88518   3.600   3.123   2.365 -1.1599  0.3481  1.8365
  656MOL0     H88519   3.446   3.083   2.417  2.8240 -0.3482  3.0751
  656MOL0     H88520   3.417   2.967   1.973 -2.1353  0.8306 -0.7335
  656MOL0     H88521   3.436   2.933   1.754 -0.7258 -0.5750  0.5055
  656MOL0     H88522   3.432   3.095   1.689  1.1974  1.1829  1.7359
  656MOL0     H88523   3.583   3.000   1.670 -0.8469 -2.3385  1.0633
  656MOL0     H88524   3.849   3.404   1.530 -0.0632  2.5532 -0.7810
  656MOL0     H88525   3.899   3.452   1.286  1.7737 -1.3701  0.8285
  656MOL0     H88526   3.918   3.429   1.021  0.6742 -0.7672 -0.0171
  656MOL0     H88527   3.946   3.274   1.093 -0.4651  0.8369  1.6687
  656MOL0     H88528   3.976   3.278   0.831 -0.4266  0.5583 -1.0563
  656MOL0     H88529   3.865   3.151   0.896  0.7198  0.1236  1.6176
  656MOL0     H88530   3.752   3.422   0.818  0.2414 -0.4403 -0.2341
  656MOL0     H88531   3.676   3.262   0.834 -0.5373  0.4528  2.5555
  656MOL0     H88532   3.876   3.366   0.621  1.1979  0.2635  0.8187
  656MOL0     H88533   3.836   3.195   0.629  0.4285 -0.7367  0.1830
  656MOL0     H88534   3.599   3.405   0.623  1.1244  0.2801  1.1250
  656MOL0     H88535   3.601   3.232   0.602 -1.1063  0.7080  1.9022
  656MOL0     H88536   3.588   3.372   0.394  0.0416 -2.4301 -0.9132
  656MOL0     H88537   3.755   3.420   0.420  0.6228  1.0473  1.7779
  656MOL0     H88538   3.693   3.116   0.410 -0.3807 -1.0450 -1.6519
  656MOL0     H88539   3.848   3.200   0.399 -0.1831  1.3812  1.1353
  656MOL0     H88540   3.782   3.289   0.179  1.7444 -1.3593  0.6195
  656MOL0     H88541   3.610   3.240   0.204 -0.9618  1.0027  0.9937
  656MOL0     H88542   3.538   3.223   1.193 -0.2786 -2.3543  1.9335
  656MOL0     H88543   3.502   3.179   1.423 -0.7890  0.1754 -1.8415
  656MOL0     H88544   3.808   3.275   1.986  1.7425  1.2405  0.7226
  656MOL0     H88545   3.714   3.184   2.182  0.6024  3.5165 -2.5561
  656MOL0     H88546   2.464   1.685   2.651  2.0249  0.4796 -1.2666
  656MOL0     H88547   2.314   1.545   2.763  1.7242  1.1364  2.1040
  656MOL0     H88548   2.297   1.034   2.922 -0.3846 -1.9608 -0.8241
  656MOL0     H88549   2.178   0.859   3.020 -1.1273 -1.3264 -0.7939
  656MOL0     H88550   1.854   0.789   3.299 -2.9323 -0.6960 -0.3407
  656MOL0     H88551   1.847   0.979   3.287 -1.1491  0.2623 -1.5917
  656MOL0     H88552   1.748   0.782   3.080 -0.9452  1.2835 -1.1784
  656MOL0     H88553   1.709   0.953   3.095  2.0892 -0.0944 -1.5351
  656MOL0     H88554   1.598   0.894   3.320 -1.5643 -0.8232  0.0632
  656MOL0     H88555   1.635   0.722   3.285  1.8847  0.4948 -0.0569
  656MOL0     H88556   1.411   0.742   3.215 -0.2929 -2.2950 -1.6325
  656MOL0     H88557   1.496   0.765   3.068  0.4986 -3.4184  2.1570
  656MOL0     H88558   1.285   1.140   3.123 -0.5593 -1.3617 -0.0295
  656MOL0     H88559   1.870   1.143   3.157  1.5338  2.5571  1.1280
  656MOL0     H88560   1.987   1.316   3.046  0.1664  0.0682 -1.3661
  657MOL0     O88561  10.194  10.264   8.968 -0.2058  0.2273 -0.2305
  657MOL0     C88562  10.124  10.176   8.917 -0.5070 -0.1496  0.0492
  657MOL0     O88563   9.985  10.157   8.938  0.1626  0.5694  0.0369
  657MOL0     C88564   9.926  10.231   9.038 -0.7519  0.3384  0.4745
  657MOL0     C88565   9.948  10.363   9.060  0.1452 -0.0935  0.2500
  657MOL0     C88566   9.887  10.425   9.167 -0.3162  0.1778  0.6414
  657MOL0     C88567   9.812  10.357   9.263  0.3122  0.4235  0.3959
  657MOL0     O88568   9.768  10.415   9.382  1.1658  0.1016  0.3866
  657MOL0     C88569   9.816  10.542   9.419  0.3385 -0.2574 -1.7574
  657MOL0     C88570   9.771  10.582   9.557 -0.5002 -0.0600 -0.0813
  657MOL0     C88571   9.865  10.531   9.660 -0.1949  0.7972 -1.0160
  657MOL0     C88572   9.781  10.478   9.775 -0.3374 -0.6834  0.3608
  657MOL0     C88573   9.864  10.458   9.902 -0.2524  0.2676  0.3988
  657MOL0     C88574   9.959  10.336   9.898  0.9523 -0.3678  0.4129
  657MOL0     C88575  10.093  10.357   9.827 -0.1835 -0.6408 -0.3977
  657MOL0     C88576  10.197  10.427   9.919 -0.1635  0.2934 -0.4672
  657MOL0     N88577  10.226  10.339  10.031 -0.1764 -0.8510 -1.1085
  657MOL0     C88578  10.298  10.223  10.032  0.3632 -0.8130 -0.0257
  657MOL0     C88579  10.298  10.178  10.161  0.2214  0.6093  0.3115
  657MOL0     C88580  10.367  10.054  10.197  0.1791  0.0718 -0.6005
  657MOL0     C88581  10.499  10.035  10.130  0.5072  1.1229 -0.2632
  657MOL0     C88582  10.596   9.954  10.224  0.7290 -0.5007 -1.0150
  657MOL0     C88583  10.723   9.932  10.144  0.2424  0.5127  0.9307
  657MOL0     O88584  10.782  10.052  10.079  0.5198 -0.7979  0.5488
  657MOL0     C88585  10.919  10.062  10.061 -0.5017 -0.5198 -0.5687
  657MOL0     C88586  10.973  10.187  10.051  0.5307 -0.1286 -1.0191
  657MOL0     C88587  11.102  10.208  10.022 -0.5478 -0.0811  0.8637
  657MOL0     C88588  11.150  10.353  10.016 -0.2099 -0.1844  0.5184
  657MOL0     C88589  11.199  10.105   9.989 -0.9882 -0.6910 -0.9078
  657MOL0     C88590  11.343  10.134   9.949  0.3910  0.6797  0.7908
  657MOL0     O88591  11.410  10.214  10.037 -0.5043 -0.3563  1.0413
  657MOL0     C88592  11.546  10.230  10.025 -0.4500  0.6729  0.0602
  657MOL0     C88593  11.623  10.234  10.146  0.1453  0.7880  0.5978
  657MOL0     C88594  11.761  10.248  10.134  0.3800 -0.1610  0.1831
  657MOL0     C88595  11.833  10.251  10.007  1.1317 -0.2771  0.3653
  657MOL0     O88596  11.971  10.246   9.988  0.0807  0.4784 -0.5293
  657MOL0     C88597  12.044  10.250  10.115  0.7939 -0.3595  0.4894
  657MOL0     C88598  12.194  10.264  10.088  1.1933 -1.2889 -0.3572
  657MOL0     C88599  12.276  10.136  10.049  0.5754 -0.3192  0.2020
  657MOL0     C88600  12.426  10.178  10.047  0.4652  0.3691 -0.3934
  657MOL0     C88601  12.481  10.148   9.904  0.0008  0.7004  0.5880
  657MOL0     C88602  12.619  10.192   9.870 -0.1025  0.1044 -0.7390
  657MOL0     C88603  12.652  10.173   9.720 -0.3270 -0.0824 -0.1651
  657MOL0     C88604  12.806  10.175   9.696 -0.3759  0.3861 -0.3138
  657MOL0    Cl88605  12.849  10.167   9.520 -0.7183  0.2401  0.2728
  657MOL0     C88606  11.753  10.267   9.892 -0.9263 -0.5266  0.5494
  657MOL0     C88607  11.616  10.242   9.904  0.2286  0.3953  0.0367
  657MOL0     O88608  11.391  10.075   9.858 -0.3179  0.0414  0.9698
  657MOL0     C88609  11.133   9.981   9.984 -0.1268  0.7756  0.0936
  657MOL0     C88610  11.006   9.960  10.026  0.1157  0.6469 -0.2536
  657MOL0     N88611  10.222  10.263  10.240 -0.2688  0.3927  0.1951
  657MOL0     N88612  10.189  10.371  10.166  0.0341  1.5871 -0.5256
  657MOL0     C88613   9.791  10.217   9.236 -0.5091  0.7603  0.7306
  657MOL0     C88614   9.849  10.155   9.125  0.2327 -0.0017  0.1794
  657MOL0     C88615  10.180  10.101   8.802  0.2620  0.0161 -0.2169
  657MOL0     C88616  10.098  10.032   8.714  0.1492 -0.2924  0.1107
  657MOL0     C88617  10.148   9.940   8.624 -0.0093  0.6458  1.6134
  657MOL0     C88618  10.287   9.915   8.612 -0.6044  0.1672  0.2315
  657MOL0     O88619  10.330   9.829   8.513 -0.5686  0.5076 -0.6330
  657MOL0     C88620  10.471   9.817   8.475 -0.6282  0.4671 -0.5443
  657MOL0     C88621  10.474   9.744   8.342  0.8299 -0.3438  1.0422
  657MOL0     C88622  10.413   9.610   8.345 -0.4910 -0.2269  0.2279
  657MOL0     C88623  10.420   9.531   8.208 -0.0216 -0.5726  0.9266
  657MOL0     C88624  10.323   9.586   8.105 -0.2289  0.6470  0.2326
  657MOL0     C88625  10.255   9.615   8.009  0.0779  0.1762 -1.0660
  657MOL0     C88626  10.373   9.976   8.704  1.4037 -0.2744  1.4009
  657MOL0     C88627  10.319  10.070   8.796 -0.2739 -0.6196  0.7897
  657MOL0     H88628   9.988  10.420   8.977 -1.1922 -0.1244 -0.4374
  657MOL0     H88629   9.910  10.531   9.167  0.6871 -0.0117 -1.0725
  657MOL0     H88630   9.925  10.532   9.421  0.6717  2.6458 -0.6936
  657MOL0     H88631   9.786  10.633   9.367  1.0250  1.0307  0.0103
  657MOL0     H88632   9.785  10.690   9.557  1.6095 -0.2951 -0.7044
  657MOL0     H88633   9.664  10.565   9.571 -0.1712 -0.4749  2.7004
  657MOL0     H88634   9.926  10.451   9.616 -0.0197 -1.2560  2.5520
  657MOL0     H88635   9.936  10.607   9.696  0.5962 -0.2105 -0.3813
  657MOL0     H88636   9.707  10.555   9.797 -2.1262 -0.1133 -5.8643
  657MOL0     H88637   9.723  10.387   9.759 -1.3955 -0.1438  0.9845
  657MOL0     H88638   9.935  10.541   9.912 -0.1189  0.1636  0.3162
  657MOL0     H88639   9.798  10.448   9.988  1.4811 -2.7797  1.5242
  657MOL0     H88640   9.969  10.306  10.003  0.1809 -0.6403  0.4158
  657MOL0     H88641   9.915  10.246   9.854  0.0449 -0.8109  2.1085
  657MOL0     H88642  10.119  10.255   9.797  0.3813 -0.8460  0.7075
  657MOL0     H88643  10.080  10.410   9.732 -0.0788 -0.5487 -0.3603
  657MOL0     H88644  10.161  10.523   9.956  2.1484  0.9849  0.1267
  657MOL0     H88645  10.290  10.458   9.869 -0.2750  0.9112 -0.2942
  657MOL0     H88646  10.363  10.187   9.953  0.0484  3.7823 -2.7871
  657MOL0     H88647  10.374  10.053  10.306 -0.7746  2.9898 -0.4260
  657MOL0     H88648  10.314   9.964  10.165  1.1886 -0.3658 -1.0819
  657MOL0     H88649  10.538  10.136  10.113 -2.4886  2.3863 -0.3419
  657MOL0     H88650  10.478   9.981  10.037  0.7347 -0.5582  0.6433
  657MOL0     H88651  10.545   9.860  10.249 -0.7134  0.9706  1.9902
  657MOL0     H88652  10.619  10.011  10.314 -0.6577 -0.4894 -0.6415
  657MOL0     H88653  10.703   9.878  10.051 -1.7303 -1.6741  2.5259
  657MOL0     H88654  10.790   9.867  10.201 -2.8117 -4.4085 -0.5446
  657MOL0     H88655  10.915  10.276  10.069  1.5031  0.5283 -1.0615
  657MOL0     H88656  11.188  10.379   9.917 -4.5258 -1.6807 -1.7866
  657MOL0     H88657  11.071  10.424  10.045  2.2949  3.0758 -0.1036
  657MOL0     H88658  11.226  10.353  10.095 -1.4351 -0.5205  1.7503
  657MOL0     H88659  11.559  10.252  10.231 -1.6299 -0.6493 -0.3702
  657MOL0     H88660  11.812  10.262  10.228  0.5618 -1.7675  0.3500
  657MOL0     H88661  12.010  10.337  10.172 -2.0388 -0.0058 -1.5718
  657MOL0     H88662  12.033  10.160  10.177  0.2152  0.6601  1.9119
  657MOL0     H88663  12.199  10.330  10.001 -2.3449 -3.1822 -2.2027
  657MOL0     H88664  12.234  10.313  10.177 -0.1199  0.6329 -0.7634
  657MOL0     H88665  12.240  10.087   9.957 -2.1233  0.2633  0.8658
  657MOL0     H88666  12.263  10.062  10.128  0.2782  1.3924  1.8240
  657MOL0     H88667  12.441  10.285  10.060  1.7089  0.0688  0.9324
  657MOL0     H88668  12.486  10.122  10.120 -0.2010  0.4701  0.2401
  657MOL0     H88669  12.407  10.193   9.837  0.6148  0.9403  0.0682
  657MOL0     H88670  12.466  10.042   9.880 -1.3784  1.4161 -2.1522
  657MOL0     H88671  12.630  10.299   9.889 -0.7360 -0.0375  0.4842
  657MOL0     H88672  12.701  10.142   9.921 -0.3644 -0.4489 -0.8553
  657MOL0     H88673  12.629  10.261   9.661 -3.1979  1.1046  2.4503
  657MOL0     H88674  12.604  10.079   9.691  2.4032 -2.9753  3.5972
  657MOL0     H88675  12.853  10.092   9.749 -2.0245 -0.2976  0.1286
  657MOL0     H88676  12.846  10.266   9.741 -1.8503  1.4778 -1.1188
  657MOL0     H88677  11.795  10.265   9.792  1.2716  0.0661  1.4128
  657MOL0     H88678  11.557  10.240   9.812 -0.3131  1.6386  0.3275
  657MOL0     H88679  11.174   9.886   9.952  0.0153  0.5477  0.9426
  657MOL0     H88680  10.974   9.856  10.026  0.7619  0.4402 -0.0111
  657MOL0     H88681   9.725  10.158   9.300 -1.0513 -0.2124 -0.6542
  657MOL0     H88682   9.837  10.052   9.093 -2.8902  0.7170 -1.3804
  657MOL0     H88683   9.990  10.039   8.712  0.2435  1.6861  0.2261
  657MOL0     H88684  10.086   9.905   8.543 -0.9085  1.0693  2.1109
  657MOL0     H88685  10.531   9.906   8.454 -0.2042 -0.6101 -5.0531
  657MOL0     H88686  10.520   9.762   8.556 -2.8822 -0.7631  0.0676
  657MOL0     H88687  10.578   9.755   8.309  0.6139  0.7517  0.6882
  657MOL0     H88688  10.417   9.797   8.266 -2.9196 -1.2909  2.9599
  657MOL0     H88689  10.311   9.607   8.384 -0.0112 -1.1061  1.4814
  657MOL0     H88690  10.491   9.560   8.405  1.6629  0.3948 -1.9025
  657MOL0     H88691  10.401   9.424   8.218 -0.0523 -0.6898 -0.2176
  657MOL0     H88692  10.522   9.532   8.169 -0.4852  1.7273 -0.4063
  657MOL0     H88693  10.191   9.639   7.926 -2.0268  0.2741  0.4935
  657MOL0     H88694  10.480   9.956   8.701  1.1168 -1.8283  0.3436
  657MOL0     H88695  10.388  10.102   8.874  1.6859  0.9242 -1.4436
  658MOL0     O88696   6.678   8.130   1.364 -0.3214 -0.0784 -0.4157
  658MOL0     C88697   6.701   8.220   1.282  0.1871 -0.0142 -0.0212
  658MOL0     O88698   6.604   8.269   1.192 -0.1574  0.3995 -0.2141
  658MOL0     C88699   6.471   8.253   1.214  0.0675  0.6839 -0.5685
  658MOL0     C88700   6.393   8.340   1.279  0.4020 -0.1160  0.0118
  658MOL0     C88701   6.260   8.315   1.308 -0.4875  0.2197 -0.7281
  658MOL0     C88702   6.196   8.194   1.264 -0.6774  0.5035  0.6201
  658MOL0     O88703   6.065   8.172   1.284  1.0476 -0.2536  0.9234
  658MOL0     C88704   5.984   8.279   1.346 -0.5488  0.1756  0.4869
  658MOL0     C88705   5.836   8.233   1.356 -0.4097 -0.4002 -0.9860
  658MOL0     C88706   5.745   8.356   1.389 -1.2018 -0.3614 -0.7430
  658MOL0     C88707   5.691   8.404   1.250  0.5484  0.8822  0.2628
  658MOL0     C88708   5.614   8.531   1.253  0.6615 -1.3813 -0.4740
  658MOL0     C88709   5.531   8.544   1.122 -0.6744 -1.1330 -0.0915
  658MOL0     C88710   5.498   8.687   1.076  0.1092 -0.0996  0.5132
  658MOL0     C88711   5.414   8.704   0.948 -0.7193 -0.2283 -0.2759
  658MOL0     N88712   5.408   8.840   0.901 -0.2049 -0.6697 -0.4361
  658MOL0     C88713   5.510   8.931   0.891  0.0673 -0.7165  0.1696
  658MOL0     C88714   5.451   9.040   0.843  0.1516  0.4094  0.4621
  658MOL0     C88715   5.518   9.169   0.800 -0.8034  0.2383  0.5014
  658MOL0     C88716   5.451   9.309   0.840  0.2275  0.0391  0.7047
  658MOL0     C88717   5.333   9.341   0.759 -0.3320  0.1269  1.0054
  658MOL0     C88718   5.197   9.357   0.831 -0.5619 -0.3412 -0.7184
  658MOL0     O88719   5.172   9.483   0.905 -0.4986 -0.0332 -0.1856
  658MOL0     C88720   5.074   9.480   1.005  0.3981  0.5174  0.0248
  658MOL0     C88721   5.049   9.583   1.085 -0.2273  0.6313  0.1818
  658MOL0     C88722   4.941   9.595   1.168  0.8740 -0.0290  0.8563
  658MOL0     C88723   4.907   9.736   1.213 -0.6314 -0.2264  0.3909
  658MOL0     C88724   4.855   9.489   1.194 -0.5558  0.7211 -0.2154
  658MOL0     C88725   4.719   9.494   1.262 -0.8222 -1.0413  0.5440
  658MOL0     O88726   4.619   9.414   1.211 -0.0643  0.1033 -0.0699
  658MOL0     C88727   4.492   9.432   1.273 -0.0601  0.6915  0.6841
  658MOL0     C88728   4.449   9.327   1.357 -0.1225  0.6097  0.3327
  658MOL0     C88729   4.329   9.345   1.429 -0.1865 -0.6741 -0.0165
  658MOL0     C88730   4.250   9.463   1.402 -0.1143  0.1714  0.7002
  658MOL0     O88731   4.130   9.471   1.469 -0.0306 -0.7892 -0.0242
  658MOL0     C88732   4.087   9.589   1.537  0.6215 -0.1180 -0.3400
  658MOL0     C88733   4.145   9.592   1.680 -0.1970 -0.6170  0.3350
  658MOL0     C88734   4.122   9.466   1.762 -0.3924 -0.4624  0.1859
  658MOL0     C88735   4.135   9.491   1.903  0.1763 -0.3924 -0.4164
  658MOL0     C88736   4.127   9.366   1.996  0.4294  0.2624  0.4497
  658MOL0     C88737   4.132   9.412   2.139  0.1368  0.0761 -0.6111
  658MOL0     C88738   3.990   9.410   2.219 -0.0029 -0.4710  0.4874
  658MOL0     C88739   3.943   9.265   2.229  0.8944 -0.3229  0.1600
  658MOL0    Cl88740   3.774   9.254   2.304 -0.1988  0.0519 -0.3738
  658MOL0     C88741   4.295   9.566   1.315  0.2868  0.8461  0.1042
  658MOL0     C88742   4.421   9.547   1.252 -0.4727  0.2474 -0.1965
  658MOL0     O88743   4.709   9.576   1.348 -0.1190 -0.0980  0.1114
  658MOL0     C88744   4.882   9.374   1.127 -0.2804  0.1843 -0.2315
  658MOL0     C88745   4.985   9.368   1.027  0.7161 -0.0449  0.2161
  658MOL0     N88746   5.311   9.026   0.839  0.2364  0.2774  0.7012
  658MOL0     N88747   5.292   8.908   0.874  0.1277  0.4540 -0.4304
  658MOL0     C88748   6.275   8.106   1.195 -0.3107  0.0522 -0.4732
  658MOL0     C88749   6.416   8.128   1.170  0.1032  0.5016 -0.6769
  658MOL0     C88750   6.833   8.287   1.296  0.4834  0.0368 -2.0004
  658MOL0     C88751   6.856   8.422   1.246  0.2540 -0.0815 -0.1333
  658MOL0     C88752   6.982   8.489   1.262  0.7309  0.1244 -0.0603
  658MOL0     C88753   7.081   8.417   1.324 -0.3198 -0.5646  0.1995
  658MOL0     O88754   7.211   8.463   1.340 -0.1119 -0.2744  0.3047
  658MOL0     C88755   7.258   8.585   1.277 -1.1829  0.2415  0.5769
  658MOL0     C88756   7.406   8.616   1.308 -0.4876  1.6566 -1.2459
  658MOL0     C88757   7.467   8.745   1.262  0.5980 -0.8714 -0.4377
  658MOL0     C88758   7.608   8.786   1.300  0.6550  0.6227 -0.4130
  658MOL0     C88759   7.710   8.686   1.252  0.6056 -0.0839 -0.5249
  658MOL0     C88760   7.783   8.598   1.214 -1.2292 -0.8866  0.0378
  658MOL0     C88761   7.054   8.289   1.381 -0.7749 -1.2718  0.5514
  658MOL0     C88762   6.932   8.227   1.376  0.2987 -0.1142  0.1866
  658MOL0     H88763   6.428   8.440   1.302 -0.1918 -0.5595  3.3978
  658MOL0     H88764   6.196   8.391   1.352 -0.4146 -0.3850  0.4668
  658MOL0     H88765   6.031   8.292   1.444  3.4001  0.8576 -1.2670
  658MOL0     H88766   5.987   8.364   1.276 -0.1802 -1.7662 -1.9999
  658MOL0     H88767   5.793   8.190   1.265  0.6727 -2.3050 -0.6526
  658MOL0     H88768   5.834   8.158   1.435 -2.8771 -0.2912 -0.8698
  658MOL0     H88769   5.665   8.321   1.455 -1.6042 -1.0578 -1.5783
  658MOL0     H88770   5.803   8.427   1.448  0.0236 -0.4000 -1.8428
  658MOL0     H88771   5.773   8.425   1.182 -0.6957  0.9043 -1.2871
  658MOL0     H88772   5.626   8.324   1.213  1.4402 -0.2538  1.0448
  658MOL0     H88773   5.547   8.545   1.338  1.8648 -2.7283  0.7696
  658MOL0     H88774   5.696   8.603   1.258  1.3566 -2.1723 -0.1587
  658MOL0     H88775   5.599   8.503   1.046 -1.2790 -1.3322 -0.5280
  658MOL0     H88776   5.446   8.477   1.137  0.8042 -2.8517  1.1434
  658MOL0     H88777   5.467   8.742   1.165  3.8280 -0.0266  1.9509
  658MOL0     H88778   5.596   8.728   1.048 -0.8113  0.1187 -2.9121
  658MOL0     H88779   5.313   8.670   0.975 -0.1995 -0.8115  0.9897
  658MOL0     H88780   5.444   8.641   0.864  0.8103 -0.4776  0.4315
  658MOL0     H88781   5.615   8.915   0.909  0.1447 -5.3345 -2.6789
  658MOL0     H88782   5.617   9.166   0.848 -1.7094  2.3292  2.7141
  658MOL0     H88783   5.524   9.162   0.691  5.5172  1.0649  0.4292
  658MOL0     H88784   5.527   9.385   0.818 -0.0376  0.3356  0.8142
  658MOL0     H88785   5.427   9.313   0.947  0.3463 -1.6417  0.8300
  658MOL0     H88786   5.309   9.255   0.696 -0.1005  1.0577 -0.4046
  658MOL0     H88787   5.360   9.419   0.687  2.1151  0.2923  2.0064
  658MOL0     H88788   5.196   9.274   0.903 -0.1877 -1.7277 -2.2376
  658MOL0     H88789   5.124   9.338   0.752 -2.0728  0.5050  0.4300
  658MOL0     H88790   5.108   9.674   1.084 -0.8309  1.0359  0.7751
  658MOL0     H88791   4.913   9.751   1.322 -1.7974  1.2571  0.2732
  658MOL0     H88792   4.974   9.799   1.154 -0.6219 -2.7967 -2.5739
  658MOL0     H88793   4.806   9.772   1.193  0.1551  0.1002 -3.8158
  658MOL0     H88794   4.516   9.243   1.367  0.8037  1.0472 -1.6125
  658MOL0     H88795   4.296   9.272   1.501 -0.2134  1.2040  1.9847
  658MOL0     H88796   4.126   9.683   1.496 -0.2515 -0.5809 -2.3810
  658MOL0     H88797   3.978   9.596   1.548  0.9560  1.5536  4.0144
  658MOL0     H88798   4.252   9.615   1.670 -0.1850 -1.4150 -2.0872
  658MOL0     H88799   4.107   9.682   1.729  0.6009 -1.8264  3.3841
  658MOL0     H88800   4.198   9.391   1.736 -0.2864 -0.6912  1.1227
  658MOL0     H88801   4.027   9.419   1.737 -0.6939 -0.4947  1.3210
  658MOL0     H88802   4.226   9.549   1.914 -0.2226  0.9793 -3.3879
  658MOL0     H88803   4.054   9.562   1.925 -0.1707 -0.4241 -1.4974
  658MOL0     H88804   4.213   9.306   1.965  0.7696  0.8627  0.2105
  658MOL0     H88805   4.027   9.323   1.981 -0.5357  1.9173  1.8214
  658MOL0     H88806   4.179   9.328   2.191  1.4592  0.6213 -0.8793
  658MOL0     H88807   4.190   9.503   2.152 -0.5836  0.3242  1.0649
  658MOL0     H88808   3.916   9.467   2.162 -0.4914 -1.5298  0.0392
  658MOL0     H88809   4.006   9.439   2.323 -3.0038 -1.0616  1.2038
  658MOL0     H88810   4.022   9.210   2.279  1.6404  0.3396 -0.2652
  658MOL0     H88811   3.921   9.227   2.129 -2.9734  0.9133  0.3393
  658MOL0     H88812   4.227   9.649   1.310  0.1926  0.7411 -0.3779
  658MOL0     H88813   4.460   9.619   1.180 -0.8354  0.7243  0.0814
  658MOL0     H88814   4.826   9.281   1.133  3.0700 -1.9052  1.5957
  658MOL0     H88815   5.000   9.272   0.979  3.7837 -0.8931  2.6099
  658MOL0     H88816   6.234   8.009   1.167  0.5397 -0.5843  0.4455
  658MOL0     H88817   6.478   8.050   1.126 -0.5768 -0.8047  0.6032
  658MOL0     H88818   6.770   8.472   1.203  1.0703  2.6762  1.1601
  658MOL0     H88819   6.987   8.591   1.224 -3.9371  0.0830 -1.4151
  658MOL0     H88820   7.254   8.555   1.172  0.2436 -0.1002  0.6034
  658MOL0     H88821   7.190   8.668   1.298 -1.3843  0.8056 -2.0557
  658MOL0     H88822   7.458   8.529   1.267 -0.0772  2.6160 -2.8423
  658MOL0     H88823   7.419   8.623   1.416  0.7534 -1.3802 -1.1013
  658MOL0     H88824   7.391   8.819   1.289  0.4355 -0.4039 -2.0928
  658MOL0     H88825   7.459   8.747   1.153 -0.5348 -0.0230 -0.3581
  658MOL0     H88826   7.618   8.799   1.408  1.2519  2.0836 -0.6197
  658MOL0     H88827   7.631   8.885   1.259  1.6748  1.1862  1.3864
  658MOL0     H88828   7.829   8.505   1.189 -1.1193 -0.6512 -0.6513
  658MOL0     H88829   7.132   8.249   1.445  1.0928  2.1308  0.6094
  658MOL0     H88830   6.914   8.131   1.424 -0.6090 -0.3842 -0.6659
  659MOL0     O88831   5.826  10.193   1.705  1.3647  0.8920 -0.0861
  659MOL0     C88832   5.941  10.179   1.669  0.1077  0.0943  0.5981
  659MOL0     O88833   6.047  10.211   1.744 -0.9515  0.4684 -0.2529
  659MOL0     C88834   6.031  10.253   1.871  0.2725  0.5441 -0.0701
  659MOL0     C88835   6.024  10.386   1.894 -0.4014  0.0160  1.0024
  659MOL0     C88836   5.975  10.426   2.022 -0.7490  0.4984  0.4601
  659MOL0     C88837   5.953  10.337   2.130 -0.4100  0.4108 -0.7710
  659MOL0     O88838   5.916  10.384   2.256  0.0024  0.6204 -0.0470
  659MOL0     C88839   5.869  10.296   2.363  0.0851 -0.0970 -0.6632
  659MOL0     C88840   5.869  10.375   2.499 -0.5268  0.2463  0.6049
  659MOL0     C88841   6.019  10.410   2.536  0.0219 -0.2815  0.4685
  659MOL0     C88842   6.035  10.456   2.679  0.3753  0.7094 -0.6185
  659MOL0     C88843   6.186  10.502   2.719  0.3731  0.3409  0.3559
  659MOL0     C88844   6.175  10.570   2.849  0.2547  0.0825  0.3738
  659MOL0     C88845   6.313  10.606   2.910 -0.0590 -1.0904 -0.0784
  659MOL0     C88846   6.294  10.650   3.058  0.4770  0.5265  0.7176
  659MOL0     N88847   6.415  10.712   3.115  0.0356  0.6658  0.2272
  659MOL0     C88848   6.481  10.814   3.064  0.1331 -0.9284 -0.9126
  659MOL0     C88849   6.590  10.837   3.140  0.7376  0.4861 -0.1876
  659MOL0     C88850   6.680  10.943   3.118  0.7968 -0.9432 -0.4173
  659MOL0     C88851   6.803  10.890   3.058 -0.4843  0.8833  1.9525
  659MOL0     C88852   6.868  10.971   2.950 -0.9852  0.7836  0.3724
  659MOL0     C88853   6.993  10.907   2.875 -0.3944 -0.1564 -0.9438
  659MOL0     O88854   6.968  10.771   2.838  0.1725 -0.2565  0.6083
  659MOL0     C88855   7.059  10.716   2.748 -0.1126  0.0175  0.4173
  659MOL0     C88856   7.180  10.766   2.703  0.1867  0.5014 -0.6590
  659MOL0     C88857   7.264  10.696   2.609  0.1807  0.9445 -0.0123
  659MOL0     C88858   7.380  10.774   2.567  0.6240 -0.1112  0.1841
  659MOL0     C88859   7.234  10.566   2.572 -1.0948 -0.4623 -0.6056
  659MOL0     C88860   7.327  10.482   2.488 -1.7342  0.6809  0.1242
  659MOL0     O88861   7.448  10.540   2.455  0.3342  0.1357  0.4591
  659MOL0     C88862   7.499  10.490   2.337 -0.1740  0.0335  0.4019
  659MOL0     C88863   7.463  10.552   2.218  0.2598  0.8676 -1.2636
  659MOL0     C88864   7.512  10.519   2.093  0.1461  0.4216  0.1601
  659MOL0     C88865   7.620  10.426   2.081 -0.4567 -0.2701  0.4035
  659MOL0     O88866   7.684  10.387   1.970 -0.4137  0.1232 -0.1915
  659MOL0     C88867   7.589  10.337   1.874  0.3198  0.3475  0.1872
  659MOL0     C88868   7.631  10.218   1.797 -0.3794  0.4422  0.0898
  659MOL0     C88869   7.628  10.096   1.894 -0.7445 -0.7656 -0.2051
  659MOL0     C88870   7.689   9.971   1.825 -0.2330 -0.4071  0.0998
  659MOL0     C88871   7.755   9.863   1.922 -0.9965 -0.4007  0.8683
  659MOL0     C88872   7.658   9.744   1.961  0.5731 -0.2146  0.2120
  659MOL0     C88873   7.633   9.653   1.831 -0.5198  0.7031 -0.3826
  659MOL0     C88874   7.546   9.528   1.850 -0.3501  0.2624 -0.2657
  659MOL0    Cl88875   7.379   9.565   1.910 -0.2372 -0.0367 -0.4035
  659MOL0     C88876   7.656  10.362   2.205  0.0206  0.0705 -0.1437
  659MOL0     C88877   7.604  10.396   2.325  1.0863 -0.6330  0.1381
  659MOL0     O88878   7.298  10.362   2.468 -0.3430  0.2709  0.0521
  659MOL0     C88879   7.111  10.508   2.613 -0.5693  0.2669  0.1502
  659MOL0     C88880   7.039  10.581   2.708  0.3887 -0.4753 -0.3809
  659MOL0     N88881   6.582  10.748   3.249  0.6173 -0.7909  0.2111
  659MOL0     N88882   6.475  10.673   3.236 -0.4454  0.4162 -0.1155
  659MOL0     C88883   5.962  10.201   2.100  0.2263  0.2482  0.2432
  659MOL0     C88884   5.996  10.160   1.973  0.3248 -0.6228 -0.9822
  659MOL0     C88885   5.959  10.115   1.532 -0.0941  0.1283  0.2286
  659MOL0     C88886   5.866  10.038   1.465  0.4893 -0.1603 -0.4868
  659MOL0     C88887   5.886   9.974   1.336 -0.4971  0.5673 -0.8091
  659MOL0     C88888   6.015   9.975   1.279  0.1185  0.2975  0.6879
  659MOL0     O88889   6.025   9.908   1.156 -0.4290  0.2463 -0.2712
  659MOL0     C88890   6.139   9.917   1.071  0.2948 -0.2080  0.5454
  659MOL0     C88891   6.131   9.837   0.939 -0.3244  0.5158  0.2969
  659MOL0     C88892   6.099   9.683   0.953  0.2519 -0.0505 -0.1744
  659MOL0     C88893   6.019   9.649   1.075  0.4725  0.8252  0.2433
  659MOL0     C88894   5.988   9.507   1.075  0.2184 -0.7387 -0.0751
  659MOL0     C88895   5.951   9.398   1.107  0.7577 -0.1853 -0.4154
  659MOL0     C88896   6.108  10.061   1.332  0.6312 -0.4250 -0.2275
  659MOL0     C88897   6.084  10.124   1.462  0.6075 -1.2317  1.1795
  659MOL0     H88898   6.060  10.457   1.820 -1.6923 -0.4723 -0.1267
  659MOL0     H88899   5.961  10.525   2.062  0.8788  0.6631  0.6819
  659MOL0     H88900   5.767  10.265   2.339 -1.0065  3.5256 -1.3849
  659MOL0     H88901   5.930  10.205   2.365 -2.4913 -1.9299  0.4126
  659MOL0     H88902   5.799  10.459   2.495 -2.9803 -1.6084  1.6479
  659MOL0     H88903   5.823  10.317   2.580 -3.1885  0.3184 -0.7573
  659MOL0     H88904   6.097  10.336   2.515  0.7600  0.9493 -1.3855
  659MOL0     H88905   6.042  10.493   2.468 -1.6593  0.3586  0.6474
  659MOL0     H88906   5.966  10.540   2.690  0.2394  0.5432 -0.2013
  659MOL0     H88907   5.986  10.388   2.749  3.4839 -1.2285 -0.1440
  659MOL0     H88908   6.249  10.414   2.733  0.0767  0.2530  1.1729
  659MOL0     H88909   6.231  10.567   2.644  0.8072 -1.6813 -1.2336
  659MOL0     H88910   6.104  10.652   2.835  2.0545  1.1701 -3.6887
  659MOL0     H88911   6.144  10.491   2.919 -0.0606  0.6427  0.8741
  659MOL0     H88912   6.385  10.524   2.900 -0.6851 -2.0521  2.5004
  659MOL0     H88913   6.343  10.695   2.854 -1.2531  0.5717  1.7984
  659MOL0     H88914   6.269  10.566   3.124  0.3632 -0.2220 -0.2515
  659MOL0     H88915   6.214  10.725   3.056  0.6947  0.7456 -0.9628
  659MOL0     H88916   6.456  10.872   2.975 -0.1180 -2.6617 -2.0208
  659MOL0     H88917   6.632  11.031   3.074  0.1713 -0.5524  0.9876
  659MOL0     H88918   6.715  10.983   3.214  0.0547  2.6939 -1.5021
  659MOL0     H88919   6.784  10.793   3.013 -1.4526  2.2544 -0.8091
  659MOL0     H88920   6.879  10.865   3.132 -0.9723  0.9883  2.4917
  659MOL0     H88921   6.887  11.073   2.986  4.0101  0.2617  0.0018
  659MOL0     H88922   6.796  10.975   2.868 -0.8317 -1.9043  0.0337
  659MOL0     H88923   7.066  10.922   2.955 -0.5560  2.9802 -1.2693
  659MOL0     H88924   7.026  10.967   2.790 -0.1408  1.5699  0.3316
  659MOL0     H88925   7.212  10.853   2.760 -0.3939 -1.3996  2.8601
  659MOL0     H88926   7.388  10.774   2.458 -1.6115  2.0002 -0.0721
  659MOL0     H88927   7.375  10.878   2.599  0.8922 -0.0181 -0.0809
  659MOL0     H88928   7.469  10.736   2.619  1.9817  0.8745 -1.3460
  659MOL0     H88929   7.376  10.615   2.230 -0.6072 -0.8511  4.9681
  659MOL0     H88930   7.470  10.570   2.007 -0.7798 -3.2001 -1.7271
  659MOL0     H88931   7.491  10.317   1.918  1.2801 -2.5387  1.2735
  659MOL0     H88932   7.560  10.406   1.794 -4.7054 -1.5851 -0.0375
  659MOL0     H88933   7.556  10.203   1.719  0.7249 -3.2271 -0.4541
  659MOL0     H88934   7.731  10.239   1.757 -1.1082  0.5095 -1.7762
  659MOL0     H88935   7.520  10.090   1.912 -0.9176  1.1450 -0.3862
  659MOL0     H88936   7.681  10.124   1.985 -0.9367 -0.3310 -0.2257
  659MOL0     H88937   7.618   9.927   1.754 -0.9147  0.4509  0.2427
  659MOL0     H88938   7.773  10.010   1.766 -0.1872 -0.4308  0.1492
  659MOL0     H88939   7.802   9.918   2.004 -2.0260  3.6307 -1.0153
  659MOL0     H88940   7.837   9.805   1.879 -1.6445 -2.5981  2.3934
  659MOL0     H88941   7.692   9.686   2.047 -2.6480 -0.9674  1.1176
  659MOL0     H88942   7.558   9.777   1.992  0.1924 -0.8714 -0.2834
  659MOL0     H88943   7.726   9.614   1.789  1.4162  3.2753  1.1780
  659MOL0     H88944   7.594   9.726   1.759 -2.0281  0.8567  0.5319
  659MOL0     H88945   7.592   9.467   1.928  0.4640  2.0761  0.7408
  659MOL0     H88946   7.547   9.473   1.756  0.7925 -1.5185  0.7318
  659MOL0     H88947   7.743  10.297   2.202  1.8018  2.2330  1.2583
  659MOL0     H88948   7.641  10.362   2.421 -0.1502  3.1356  2.1503
  659MOL0     H88949   7.072  10.411   2.586  3.0002 -1.9835  2.2805
  659MOL0     H88950   6.951  10.525   2.737  0.1419 -0.8383 -1.7325
  659MOL0     H88951   5.942  10.117   2.166 -0.6156 -0.1701 -0.5252
  659MOL0     H88952   5.996  10.055   1.946  1.5974 -1.8333  2.9901
  659MOL0     H88953   5.771  10.004   1.506  1.5178 -2.6392  0.0365
  659MOL0     H88954   5.816   9.905   1.291  1.5097 -0.6832 -2.1890
  659MOL0     H88955   6.149  10.022   1.045  0.9840 -0.3578  0.1804
  659MOL0     H88956   6.225   9.888   1.132 -1.0086 -0.9710  2.1144
  659MOL0     H88957   6.225   9.833   0.882 -2.3544 -1.2227 -3.2120
  659MOL0     H88958   6.062   9.885   0.871 -1.3023 -0.4895  0.5529
  659MOL0     H88959   6.194   9.628   0.960 -1.1226 -2.4195  1.5899
  659MOL0     H88960   6.056   9.637   0.864  0.4607 -2.8464  1.0348
  659MOL0     H88961   5.923   9.701   1.083 -0.2530 -0.7568  3.3036
  659MOL0     H88962   6.060   9.674   1.173  2.6070  0.2664 -0.4552
  659MOL0     H88963   5.913   9.299   1.094  0.0869  0.0159 -0.0615
  659MOL0     H88964   6.205  10.078   1.286  1.3163  0.3022  1.4341
  659MOL0     H88965   6.161  10.188   1.504  2.1833  0.7456 -3.9587
  660MOL0     O88966   2.891   1.880  10.295  0.3532  0.0554 -0.6384
  660MOL0     C88967   2.974   1.915  10.209  0.3222 -0.1200 -0.2477
  660MOL0     O88968   3.114   1.897  10.217  0.3013 -0.4559 -0.0301
  660MOL0     C88969   3.151   1.815  10.313 -0.0707  0.3496 -0.6577
  660MOL0     C88970   3.174   1.855  10.445  0.2520  0.3397 -1.0919
  660MOL0     C88971   3.194   1.746  10.531  0.5331 -0.5467  0.4721
  660MOL0     C88972   3.202   1.610  10.498  0.3005 -0.0426 -0.4976
  660MOL0     O88973   3.217   1.518  10.597 -0.3775  0.1284 -0.4860
  660MOL0     C88974   3.231   1.381  10.557 -0.8757 -0.3583 -0.0738
  660MOL0     C88975   3.268   1.275  10.665 -0.4592 -0.0903  0.0856
  660MOL0     C88976   3.286   1.129  10.618 -0.3019 -0.8259 -0.6678
  660MOL0     C88977   3.362   1.037  10.721 -0.1611 -0.4535 -0.1698
  660MOL0     C88978   3.498   1.086  10.738 -0.3463 -0.1413 -1.5161
  660MOL0     C88979   3.589   1.062  10.618  0.8543 -0.6203  0.6214
  660MOL0     C88980   3.733   1.080  10.658 -0.6453 -0.0226 -0.9096
  660MOL0     C88981   3.832   1.043  10.546  0.0365  0.1160 -0.2858
  660MOL0     N88982   3.798   1.131  10.440  0.1864 -0.2413  1.0665
  660MOL0     C88983   3.748   1.087  10.319 -0.1328  0.4671 -0.1496
  660MOL0     C88984   3.820   1.149  10.222 -0.0564 -0.6273  0.2942
  660MOL0     C88985   3.811   1.136  10.071  0.4185  0.1599 -0.3048
  660MOL0     C88986   3.940   1.087  10.003 -0.1423 -0.4560  0.1551
  660MOL0     C88987   3.967   1.139   9.852 -0.0189  0.0960 -0.3036
  660MOL0     C88988   3.849   1.128   9.756 -0.0510 -0.1311 -0.6564
  660MOL0     O88989   3.803   0.994   9.761 -0.0860 -1.0155  0.5976
  660MOL0     C88990   3.834   0.914   9.653  0.5149  0.1137  0.2065
  660MOL0     C88991   3.913   0.939   9.542  0.1840 -0.5704  0.1696
  660MOL0     C88992   3.913   0.847   9.435 -0.3121 -0.5489 -1.1835
  660MOL0     C88993   3.979   0.895   9.299 -0.3055 -0.6182  0.3129
  660MOL0     C88994   3.848   0.723   9.445 -0.1320 -0.9886 -0.0942
  660MOL0     C88995   3.829   0.641   9.322 -0.2701 -0.3580 -0.0308
  660MOL0     O88996   3.715   0.671   9.250  1.1662 -0.6032 -0.1517
  660MOL0     C88997   3.666   0.590   9.154  0.3190 -0.3872  0.0867
  660MOL0     C88998   3.533   0.547   9.153  0.8693 -0.0396 -0.6346
  660MOL0     C88999   3.490   0.450   9.067  0.1769 -0.7069 -0.1212
  660MOL0     C89000   3.572   0.388   8.972  0.7733 -0.0300 -0.1696
  660MOL0     O89001   3.507   0.287   8.899 -0.6904 -0.6305 -0.6247
  660MOL0     C89002   3.585   0.200   8.803  0.5242 -0.6732  0.0142
  660MOL0     C89003   3.659   0.070   8.859  0.2548 -0.0795 -0.4592
  660MOL0     C89004   3.566  -0.041   8.872 -0.6553  1.0016 -0.6241
  660MOL0     C89005   3.625  -0.149   8.967 -1.1634  0.0605  0.4224
  660MOL0     C89006   3.566  -0.282   8.936 -0.4946  0.5249  0.6179
  660MOL0     C89007   3.586  -0.383   9.042 -0.5770 -0.5177 -0.9258
  660MOL0     C89008   3.741  -0.399   9.071  0.3614 -0.5707  0.0603
  660MOL0     C89009   3.757  -0.533   9.145 -0.1149  0.1719 -1.1747
  660MOL0    Cl89010   3.701  -0.667   9.048  0.0592  0.0557  0.2778
  660MOL0     C89011   3.700   0.436   8.962  0.3552  0.4988 -0.0241
  660MOL0     C89012   3.745   0.539   9.051  0.4528 -0.4642  0.2199
  660MOL0     O89013   3.907   0.551   9.291 -0.9323 -0.5013  0.4372
  660MOL0     C89014   3.783   0.690   9.570 -0.3536 -0.6272  0.6315
  660MOL0     C89015   3.782   0.781   9.671 -0.3872 -1.2989  0.6528
  660MOL0     N89016   3.896   1.246  10.281  0.1823 -0.0880 -0.0389
  660MOL0     N89017   3.881   1.241  10.407 -0.0819  0.4167 -0.1099
  660MOL0     C89018   3.186   1.581  10.366  1.0409 -0.1153  0.0870
  660MOL0     C89019   3.165   1.679  10.274  0.4707 -0.2877  0.1677
  660MOL0     C89020   2.930   1.963  10.083  0.4442  0.2471 -0.5244
  660MOL0     C89021   2.792   1.960  10.050  1.1396  0.0449  0.1232
  660MOL0     C89022   2.743   2.008   9.935  0.3680  0.0179 -0.2990
  660MOL0     C89023   2.827   2.046   9.829 -0.5994 -0.1388  0.1718
  660MOL0     O89024   2.768   2.074   9.706 -0.0673 -0.6411 -0.1745
  660MOL0     C89025   2.855   2.142   9.612 -0.3807  0.0572 -0.2339
  660MOL0     C89026   2.769   2.213   9.512  1.1393  0.2223  0.1556
  660MOL0     C89027   2.685   2.342   9.562 -0.0852  0.2309 -0.0819
  660MOL0     C89028   2.600   2.411   9.462 -0.5823  0.3300 -0.6166
  660MOL0     C89029   2.477   2.336   9.422 -0.8587  1.6613  0.0481
  660MOL0     C89030   2.373   2.283   9.388 -0.4042 -0.2502 -0.3807
  660MOL0     C89031   2.964   2.052   9.858 -0.8662  0.6746 -0.2990
  660MOL0     C89032   3.020   2.015   9.989  0.4965 -0.1144  0.1639
  660MOL0     H89033   3.185   1.958  10.479  1.0588 -0.5229  1.5184
  660MOL0     H89034   3.197   1.762  10.638  0.5236 -1.7362  0.6666
  660MOL0     H89035   3.139   1.352  10.505 -0.9911 -2.8820  1.3608
  660MOL0     H89036   3.314   1.363  10.488  0.0990 -3.2703  1.6575
  660MOL0     H89037   3.349   1.321  10.723 -0.5311  0.6529 -0.3907
  660MOL0     H89038   3.180   1.272  10.729 -2.6049 -0.1465 -2.6992
  660MOL0     H89039   3.183   1.097  10.601 -0.2766 -2.0394  1.1863
  660MOL0     H89040   3.341   1.131  10.524  3.0986  1.9738  1.1529
  660MOL0     H89041   3.306   1.032  10.815  2.8540 -3.9635  1.6624
  660MOL0     H89042   3.365   0.932  10.693  4.1427 -0.1588 -1.4284
  660MOL0     H89043   3.507   1.192  10.766  1.8899 -0.8100  0.6467
  660MOL0     H89044   3.541   1.029  10.821  1.4571  0.8521 -1.7182
  660MOL0     H89045   3.576   0.963  10.572  0.9140  1.0403 -3.3350
  660MOL0     H89046   3.571   1.133  10.537  2.8290 -0.3566  0.3678
  660MOL0     H89047   3.748   1.187  10.675  1.6324  0.3385 -4.3951
  660MOL0     H89048   3.776   1.027  10.744  2.7106  3.5302 -0.0938
  660MOL0     H89049   3.807   0.940  10.522 -0.7109 -0.2287  1.7228
  660MOL0     H89050   3.935   1.060  10.578 -0.4626  0.2082  1.3630
  660MOL0     H89051   3.694   0.993  10.314 -1.4073  1.1324  0.5047
  660MOL0     H89052   3.739   1.060  10.041  0.7841  0.2708 -1.5065
  660MOL0     H89053   3.786   1.235  10.032  2.6776  0.7101 -0.5190
  660MOL0     H89054   3.944   0.979   9.985  0.4908 -0.5939  1.0391
  660MOL0     H89055   4.019   1.119  10.072  0.0600  1.0829 -0.7407
  660MOL0     H89056   4.044   1.077   9.806  0.6502  1.2672 -0.8214
  660MOL0     H89057   3.996   1.244   9.863 -4.2131  1.4564 -0.5808
  660MOL0     H89058   3.895   1.160   9.662  0.8389  0.6283  0.0186
  660MOL0     H89059   3.775   1.196   9.801 -0.6913  0.2609 -2.2366
  660MOL0     H89060   3.973   1.029   9.531 -0.8875  0.3982  1.8369
  660MOL0     H89061   4.034   0.809   9.259  0.5798 -0.0787  0.3633
  660MOL0     H89062   3.909   0.925   9.220 -2.0986 -1.0051  1.6760
  660MOL0     H89063   4.042   0.984   9.301 -3.2868  1.6987 -1.0004
  660MOL0     H89064   3.478   0.596   9.233  1.8343 -1.7284  1.1729
  660MOL0     H89065   3.382   0.438   9.071 -0.0858  1.3409 -0.0483
  660MOL0     H89066   3.510   0.160   8.734  1.3424 -0.3711 -1.0642
  660MOL0     H89067   3.651   0.272   8.753 -0.8584  0.8080  0.2137
  660MOL0     H89068   3.737   0.064   8.783  0.3033  2.4209 -0.6685
  660MOL0     H89069   3.704   0.094   8.956  0.6975 -0.9074 -0.4487
  660MOL0     H89070   3.560  -0.085   8.772 -1.0461 -0.0350 -0.1576
  660MOL0     H89071   3.468  -0.008   8.908 -1.1228  0.1580 -1.0822
  660MOL0     H89072   3.732  -0.161   8.949 -0.6886  1.7811  1.8185
  660MOL0     H89073   3.618  -0.118   9.072  1.7155  1.6982  0.2565
  660MOL0     H89074   3.617  -0.322   8.848 -2.2746  0.9165 -0.6462
  660MOL0     H89075   3.459  -0.281   8.914 -0.0749  0.9003 -1.6288
  660MOL0     H89076   3.537  -0.356   9.136 -0.5443  1.7217 -1.4829
  660MOL0     H89077   3.551  -0.480   9.006 -1.4861 -0.2816 -0.7183
  660MOL0     H89078   3.779  -0.328   9.145  0.9810 -1.1457  0.3069
  660MOL0     H89079   3.804  -0.406   8.982  0.7910 -2.6624  0.4934
  660MOL0     H89080   3.707  -0.541   9.242  2.5057  0.9882  0.3477
  660MOL0     H89081   3.861  -0.547   9.174 -0.4871  2.7886  1.9709
  660MOL0     H89082   3.777   0.399   8.894  0.1330 -0.1235  0.0496
  660MOL0     H89083   3.849   0.566   9.038  0.0388  0.2168 -2.1486
  660MOL0     H89084   3.740   0.592   9.585  0.1461 -0.9101  0.2480
  660MOL0     H89085   3.744   0.759   9.770  0.1271 -1.1477  0.8846
  660MOL0     H89086   3.188   1.479  10.330 -0.1073  0.7737 -2.7402
  660MOL0     H89087   3.152   1.640  10.174 -0.6390 -1.6520  0.8032
  660MOL0     H89088   2.724   1.907  10.115  1.0646  0.2881  0.2420
  660MOL0     H89089   2.635   2.019   9.931  0.4649  2.2648  1.5713
  660MOL0     H89090   2.916   2.225   9.649 -0.5545  1.7968 -3.5127
  660MOL0     H89091   2.929   2.069   9.578  1.0267  0.8333  1.0318
  660MOL0     H89092   2.693   2.140   9.485  0.8640 -0.4951  2.6544
  660MOL0     H89093   2.819   2.245   9.420 -2.7483 -0.7628 -2.5698
  660MOL0     H89094   2.764   2.410   9.594 -1.6868  1.6667  1.0277
  660MOL0     H89095   2.640   2.331   9.661  2.9319  3.6608  1.9438
  660MOL0     H89096   2.653   2.437   9.371 -1.4686 -0.0622 -1.2594
  660MOL0     H89097   2.569   2.507   9.503  0.4336 -0.1574  1.4603
  660MOL0     H89098   2.287   2.225   9.362 -0.3008 -1.8842  2.5065
  660MOL0     H89099   3.049   2.067   9.792  3.3260 -2.2096  3.8136
  660MOL0     H89100   3.127   2.022  10.008  0.0872  1.3434  2.1390
  661MOL0     O89101   8.682   8.388   4.679  0.0497 -0.3790 -0.1748
  661MOL0     C89102   8.572   8.336   4.684  0.9821  0.4066  0.1897
  661MOL0     O89103   8.539   8.212   4.635  0.0408  0.1861 -0.3792
  661MOL0     C89104   8.649   8.133   4.619  0.4211 -0.1498  0.1726
  661MOL0     C89105   8.742   8.152   4.520 -1.1073  0.3945  0.0349
  661MOL0     C89106   8.853   8.063   4.509  0.3505  0.8280  0.7491
  661MOL0     C89107   8.861   7.949   4.592 -0.5069 -0.2413  0.9395
  661MOL0     O89108   8.975   7.876   4.586 -0.2527 -0.4258 -0.3025
  661MOL0     C89109   9.012   7.790   4.694 -0.4455  0.7352 -0.7322
  661MOL0     C89110   9.161   7.754   4.685 -0.6873 -0.8038  0.8116
  661MOL0     C89111   9.217   7.669   4.807  0.9152 -0.7198 -0.3334
  661MOL0     C89112   9.345   7.613   4.754 -0.2309  0.4013 -0.5638
  661MOL0     C89113   9.416   7.536   4.862 -0.5744 -0.0878 -0.2630
  661MOL0     C89114   9.550   7.498   4.831  0.1532  0.6698  0.9643
  661MOL0     C89115   9.613   7.383   4.908  0.2717 -0.4209  0.6856
  661MOL0     C89116   9.758   7.373   4.894 -0.2158 -0.5045  0.7938
  661MOL0     N89117   9.823   7.278   4.996  0.5746 -0.4410  1.3015
  661MOL0     C89118   9.861   7.294   5.131  0.4266  0.3100  1.1100
  661MOL0     C89119   9.917   7.175   5.180 -0.2393  1.0337  0.4094
  661MOL0     C89120   9.977   7.134   5.318  0.1404  0.0681  0.4372
  661MOL0     C89121   9.873   7.122   5.429 -0.8469 -0.3284  0.7031
  661MOL0     C89122   9.764   7.019   5.394 -0.4163  0.0358  0.6149
  661MOL0     C89123   9.646   7.021   5.490 -0.4940 -0.3102 -0.2378
  661MOL0     O89124   9.564   7.136   5.449 -0.2309 -0.2679 -0.3533
  661MOL0     C89125   9.500   7.210   5.541  0.3318  0.5531 -0.3264
  661MOL0     C89126   9.360   7.216   5.528 -1.1097  0.0435 -0.5651
  661MOL0     C89127   9.283   7.306   5.608 -0.0992 -0.2176  0.9112
  661MOL0     C89128   9.137   7.313   5.577  1.1973 -0.1602 -0.0986
  661MOL0     C89129   9.351   7.365   5.724  1.2303 -0.5143 -0.6381
  661MOL0     C89130   9.277   7.455   5.813 -0.9982  0.0628 -0.0199
  661MOL0     O89131   9.340   7.483   5.929 -0.3494  0.2902  0.3709
  661MOL0     C89132   9.281   7.558   6.024  0.3835 -0.5888 -0.1987
  661MOL0     C89133   9.222   7.681   6.001 -0.3459 -0.2099 -0.0392
  661MOL0     C89134   9.182   7.761   6.103  0.1011  0.3250  0.1159
  661MOL0     C89135   9.218   7.723   6.235 -0.2985  0.3191 -0.6658
  661MOL0     O89136   9.192   7.825   6.329 -0.9837  1.1846  0.0757
  661MOL0     C89137   9.216   7.800   6.475 -0.0609  0.1774 -0.0081
  661MOL0     C89138   9.171   7.920   6.561  0.1765 -0.2064  0.8204
  661MOL0     C89139   9.131   7.889   6.699 -0.9726  0.2015 -1.5734
  661MOL0     C89140   9.084   8.018   6.780 -0.4639 -0.3595  1.0842
  661MOL0     C89141   9.052   7.992   6.926 -0.0128 -0.1976 -0.7685
  661MOL0     C89142   8.987   8.119   6.992 -0.4708 -0.0097  0.7800
  661MOL0     C89143   8.970   8.102   7.141  0.1402 -0.2131  0.1825
  661MOL0     C89144   9.082   8.154   7.226 -0.2121  0.4404 -0.2034
  661MOL0    Cl89145   9.046   8.330   7.215 -0.1230  0.1663 -0.3132
  661MOL0     C89146   9.279   7.596   6.262  0.3050 -0.1569  0.4795
  661MOL0     C89147   9.299   7.509   6.158  1.0720 -0.1678 -0.7163
  661MOL0     O89148   9.162   7.487   5.788 -0.9075  0.0310 -0.2812
  661MOL0     C89149   9.487   7.356   5.730  0.4112  0.6379 -0.6256
  661MOL0     C89150   9.566   7.279   5.644  0.3247  0.5207  0.1729
  661MOL0     N89151   9.902   7.088   5.074  0.7319  0.5536 -0.0009
  661MOL0     N89152   9.845   7.150   4.970  0.3359 -0.9176  0.4459
  661MOL0     C89153   8.754   7.928   4.678 -0.3860  0.2445  0.1682
  661MOL0     C89154   8.656   8.022   4.696 -0.6346 -0.3502 -0.8376
  661MOL0     C89155   8.458   8.433   4.708  0.2163  0.4249  0.0866
  661MOL0     C89156   8.476   8.567   4.738  0.4529 -0.2261 -1.2773
  661MOL0     C89157   8.370   8.662   4.745  0.2280  0.0597 -0.5289
  661MOL0     C89158   8.240   8.623   4.724 -0.4234 -0.1212  0.2799
  661MOL0     O89159   8.126   8.702   4.733  0.1341 -0.4143  0.7602
  661MOL0     C89160   8.034   8.707   4.621 -1.0703 -0.0750 -0.4220
  661MOL0     C89161   7.895   8.745   4.672 -0.5138 -0.1153  0.5120
  661MOL0     C89162   7.791   8.696   4.572 -0.3328  0.0877 -0.0386
  661MOL0     C89163   7.649   8.738   4.615  0.7701  0.0744 -1.0842
  661MOL0     C89164   7.616   8.677   4.753 -0.0735  0.6371  0.8817
  661MOL0     C89165   7.582   8.626   4.854  0.3608 -0.2900 -0.3268
  661MOL0     C89166   8.223   8.483   4.700  0.3459 -0.0994  0.3090
  661MOL0     C89167   8.328   8.393   4.692  0.6286 -0.2390  0.3139
  661MOL0     H89168   8.735   8.236   4.452  2.7947  0.4990 -0.4715
  661MOL0     H89169   8.935   8.067   4.438 -1.6583  1.5988 -1.6952
  661MOL0     H89170   8.990   7.837   4.790  2.1324  2.0279 -0.6881
  661MOL0     H89171   8.946   7.702   4.688 -1.6305  1.4241  1.2361
  661MOL0     H89172   9.178   7.690   4.597 -0.5991  0.6621 -0.2816
  661MOL0     H89173   9.222   7.844   4.678 -1.5975 -0.2871 -1.5319
  661MOL0     H89174   9.236   7.732   4.894  1.2242  2.3526 -2.4556
  661MOL0     H89175   9.146   7.589   4.829 -0.8691  0.4567 -1.5735
  661MOL0     H89176   9.320   7.533   4.683  3.3944 -1.4277 -0.0635
  661MOL0     H89177   9.406   7.694   4.712  1.2911 -0.9525 -1.1257
  661MOL0     H89178   9.430   7.610   4.941  3.1437  1.1554 -1.8470
  661MOL0     H89179   9.358   7.456   4.907 -1.2655 -0.8139 -2.3286
  661MOL0     H89180   9.529   7.460   4.731  0.2286 -2.2714  1.9582
  661MOL0     H89181   9.615   7.586   4.835  0.7991  0.1722  2.2962
  661MOL0     H89182   9.600   7.403   5.015  3.3899  0.6156  0.9806
  661MOL0     H89183   9.557   7.294   4.878 -1.0950 -0.7522  3.7574
  661MOL0     H89184   9.797   7.474   4.905 -0.5535 -0.2953  0.0880
  661MOL0     H89185   9.775   7.336   4.792 -0.1254 -2.8688  1.5957
  661MOL0     H89186   9.868   7.389   5.184  3.4731  2.2260 -2.2489
  661MOL0     H89187  10.023   7.036   5.299  1.3449  1.2066 -3.5201
  661MOL0     H89188  10.059   7.201   5.345  1.7452 -0.8648 -1.8204
  661MOL0     H89189   9.841   7.225   5.444  1.7387  0.8139 -0.8286
  661MOL0     H89190   9.927   7.091   5.519  0.1895 -1.5659 -0.2854
  661MOL0     H89191   9.808   6.918   5.397 -0.8450 -0.1867 -0.3075
  661MOL0     H89192   9.720   7.037   5.296 -2.4487  1.8674  1.7637
  661MOL0     H89193   9.683   7.048   5.589  1.8720  0.3184 -1.2191
  661MOL0     H89194   9.608   6.920   5.472  3.0235 -1.6827 -0.6689
  661MOL0     H89195   9.319   7.153   5.450 -0.2936  3.9560 -4.5704
  661MOL0     H89196   9.094   7.256   5.494  4.7461  0.9356 -2.9629
  661MOL0     H89197   9.073   7.297   5.664  1.6130  0.4531  0.3255
  661MOL0     H89198   9.114   7.409   5.531  1.4153  0.2963  0.7325
  661MOL0     H89199   9.218   7.717   5.899  1.8662  2.6370  0.7325
  661MOL0     H89200   9.138   7.858   6.081 -1.6547 -0.2466  0.9428
  661MOL0     H89201   9.144   7.720   6.496  0.2920  0.1041  0.9730
  661MOL0     H89202   9.323   7.788   6.494  0.1891  4.1628  2.1897
  661MOL0     H89203   9.246   7.999   6.556 -1.2930  1.1586 -0.5447
  661MOL0     H89204   9.078   7.957   6.517  0.7858  3.9623  2.5038
  661MOL0     H89205   9.218   7.857   6.757 -0.8927  2.7211 -0.1588
  661MOL0     H89206   9.060   7.806   6.704  2.5908 -3.2694 -3.1582
  661MOL0     H89207   9.161   8.096   6.781 -0.4680 -0.3164  3.0184
  661MOL0     H89208   8.994   8.058   6.732 -0.7032 -3.5667 -1.5030
  661MOL0     H89209   9.149   7.964   6.968 -0.2852  1.9007  1.5282
  661MOL0     H89210   8.990   7.903   6.935  2.7410 -2.1759 -0.0500
  661MOL0     H89211   9.032   8.214   6.963  1.3515 -0.2328  2.5957
  661MOL0     H89212   8.884   8.123   6.956  0.0058  0.2442 -0.5879
  661MOL0     H89213   8.967   7.994   7.162  1.0397 -0.1037  0.9657
  661MOL0     H89214   8.878   8.147   7.181 -0.2337 -0.6346 -0.1981
  661MOL0     H89215   9.184   8.142   7.186  0.4017  2.3318  0.6623
  661MOL0     H89216   9.084   8.120   7.330 -2.7770  2.8916  0.7579
  661MOL0     H89217   9.292   7.567   6.366  1.9865  2.2462  1.0183
  661MOL0     H89218   9.344   7.414   6.187  1.4292  0.8437  2.3414
  661MOL0     H89219   9.540   7.412   5.807 -2.3374  2.2373  0.2374
  661MOL0     H89220   9.673   7.280   5.626 -0.0265 -0.3804 -2.3369
  661MOL0     H89221   8.772   7.838   4.736  0.7448  0.0874 -0.3923
  661MOL0     H89222   8.572   7.988   4.756 -0.9902 -0.3559 -1.3359
  661MOL0     H89223   8.574   8.612   4.730 -0.6304  1.9009 -4.8745
  661MOL0     H89224   8.401   8.765   4.759  5.6365 -1.1513 -1.5785
  661MOL0     H89225   8.075   8.790   4.562  2.0883 -0.2893  1.2446
  661MOL0     H89226   8.050   8.608   4.577  1.0693 -1.1216  2.4315
  661MOL0     H89227   7.888   8.853   4.678 -0.7529 -0.1986  2.3156
  661MOL0     H89228   7.879   8.698   4.770 -3.3036  0.5460  0.4523
  661MOL0     H89229   7.794   8.587   4.581 -2.8595 -0.0613 -0.3153
  661MOL0     H89230   7.810   8.739   4.473 -0.4658  0.6249  0.1609
  661MOL0     H89231   7.573   8.721   4.539 -0.5795  2.9237 -0.4933
  661MOL0     H89232   7.646   8.846   4.632 -0.7097  0.0965 -1.3913
  661MOL0     H89233   7.557   8.563   4.937 -0.7567  1.2278  0.5217
  661MOL0     H89234   8.118   8.458   4.689 -0.6400  3.9234 -1.0209
  661MOL0     H89235   8.300   8.290   4.672  0.6303  0.2518 -2.6897
  662MOL0     O89236   4.695   1.408   1.440 -0.1111  0.0135  0.2028
  662MOL0     C89237   4.703   1.325   1.353 -0.2791 -0.1354 -0.6734
  662MOL0     O89238   4.599   1.244   1.315 -0.1477 -0.8849 -0.3978
  662MOL0     C89239   4.467   1.256   1.360  0.5962 -0.3942 -0.0643
  662MOL0     C89240   4.392   1.139   1.381 -0.1231 -0.1501  1.0718
  662MOL0     C89241   4.255   1.142   1.408  0.0753  0.0412  0.0755
  662MOL0     C89242   4.194   1.265   1.418 -0.1248 -0.4651 -0.5179
  662MOL0     O89243   4.060   1.290   1.446 -0.4443 -0.1787 -0.2457
  662MOL0     C89244   3.971   1.181   1.475 -0.2832 -0.3865  0.6465
  662MOL0     C89245   3.829   1.229   1.453  1.2019  0.4458 -0.4934
  662MOL0     C89246   3.732   1.134   1.518  0.4905  1.1947 -0.8338
  662MOL0     C89247   3.582   1.157   1.505 -0.8933 -0.0372 -0.7262
  662MOL0     C89248   3.513   1.039   1.555 -0.4115 -0.1974  0.0276
  662MOL0     C89249   3.369   1.037   1.527  1.1670  0.1765  1.5679
  662MOL0     C89250   3.294   0.911   1.577 -1.0949  0.0769 -0.4419
  662MOL0     C89251   3.260   0.930   1.726 -0.0912 -0.2880  0.8356
  662MOL0     N89252   3.114   0.928   1.748  0.2208  1.3723  0.2603
  662MOL0     C89253   3.025   1.031   1.744 -0.0642  0.0305 -0.0212
  662MOL0     C89254   2.898   0.986   1.759 -0.0917  1.1970 -0.3959
  662MOL0     C89255   2.770   1.070   1.770  0.0438 -0.1719  0.2545
  662MOL0     C89256   2.750   1.099   1.920 -0.2663  0.0340 -0.1286
  662MOL0     C89257   2.603   1.136   1.944 -0.6106 -0.4758 -1.0548
  662MOL0     C89258   2.590   1.215   2.079 -0.4967 -0.5023  1.3877
  662MOL0     O89259   2.459   1.269   2.083 -0.1546  1.1316  0.4064
  662MOL0     C89260   2.351   1.191   2.105 -0.0429 -0.3254  0.0926
  662MOL0     C89261   2.229   1.254   2.126 -0.9720  0.9001  0.4738
  662MOL0     C89262   2.109   1.186   2.145  1.0357  0.8160 -0.3000
  662MOL0     C89263   1.983   1.276   2.142  1.0108  0.4900  0.2901
  662MOL0     C89264   2.105   1.042   2.166  0.3833  0.1505  0.6149
  662MOL0     C89265   1.983   0.948   2.176  0.5054 -0.4829 -0.3070
  662MOL0     O89266   2.019   0.812   2.164  1.2779 -0.6172 -0.0330
  662MOL0     C89267   1.944   0.703   2.187 -0.9285 -0.9466 -0.5686
  662MOL0     C89268   1.808   0.700   2.229  0.5971 -0.5872  0.2217
  662MOL0     C89269   1.731   0.582   2.239  1.2029 -0.1377  0.0691
  662MOL0     C89270   1.779   0.458   2.201 -0.7659 -0.0080  0.2468
  662MOL0     O89271   1.680   0.358   2.200 -0.2228 -0.1179  0.1869
  662MOL0     C89272   1.733   0.235   2.161 -0.4280 -1.5629  0.2530
  662MOL0     C89273   1.632   0.151   2.082  0.9254 -0.6749 -0.9117
  662MOL0     C89274   1.562   0.231   1.972  0.5123 -0.3684 -0.2844
  662MOL0     C89275   1.479   0.149   1.877  0.3729 -0.0739 -0.1655
  662MOL0     C89276   1.401   0.246   1.792  1.0760 -0.1246 -0.2430
  662MOL0     C89277   1.309   0.160   1.710  0.6440  0.0862  0.1523
  662MOL0     C89278   1.384   0.065   1.609 -0.6067 -0.1942  0.2571
  662MOL0     C89279   1.287   0.015   1.505  0.5429  0.2308  0.7509
  662MOL0    Cl89280   1.248   0.152   1.384  0.0914 -0.0730  0.2262
  662MOL0     C89281   1.922   0.458   2.159 -0.4148 -0.3973  0.1219
  662MOL0     C89282   1.994   0.577   2.154  0.3113 -0.3540 -0.1039
  662MOL0     O89283   1.867   0.993   2.181  0.1613  0.7748  0.2075
  662MOL0     C89284   2.231   0.983   2.165  0.6277  0.2104 -0.8948
  662MOL0     C89285   2.349   1.056   2.141 -1.0179 -0.0286  1.0557
  662MOL0     N89286   2.911   0.849   1.769  0.0803 -0.3970 -0.1924
  662MOL0     N89287   3.036   0.817   1.759 -0.9565 -0.3417  0.4500
  662MOL0     C89288   4.271   1.380   1.415 -0.2514  0.0158 -0.5882
  662MOL0     C89289   4.407   1.381   1.385  0.0510  0.0887 -0.3382
  662MOL0     C89290   4.825   1.334   1.276 -0.1332  0.0575 -0.2442
  662MOL0     C89291   4.832   1.271   1.146  0.5307  1.3850 -1.5204
  662MOL0     C89292   4.952   1.257   1.073  0.4601  0.1493  0.6457
  662MOL0     C89293   5.070   1.317   1.125 -0.3062  0.3896  0.2162
  662MOL0     O89294   5.185   1.314   1.046  0.2508 -0.1324  0.3845
  662MOL0     C89295   5.168   1.362   0.915  0.6066  0.3004  0.6449
  662MOL0     C89296   5.279   1.438   0.852  0.2980 -0.3409  0.4082
  662MOL0     C89297   5.329   1.542   0.948  0.7823 -0.4633  0.6769
  662MOL0     C89298   5.227   1.649   0.965 -0.2212 -0.9479 -0.3758
  662MOL0     C89299   5.285   1.769   1.037 -0.6120  0.6246 -0.3710
  662MOL0     C89300   5.319   1.868   1.103 -0.1978 -0.1511  0.3964
  662MOL0     C89301   5.063   1.390   1.246 -0.3724  0.1068  0.9997
  662MOL0     C89302   4.945   1.398   1.327  0.5714 -0.3961  0.3295
  662MOL0     H89303   4.442   1.054   1.336 -1.7473  0.0975 -1.4069
  662MOL0     H89304   4.198   1.050   1.413  1.9595 -1.1233  1.2523
  662MOL0     H89305   3.998   1.103   1.403  2.9845  0.9578  0.2519
  662MOL0     H89306   3.986   1.139   1.575  0.8249  2.3248  1.6841
  662MOL0     H89307   3.816   1.332   1.488  1.5638  1.2947 -2.6873
  662MOL0     H89308   3.792   1.234   1.350 -1.4813 -1.0701  0.3011
  662MOL0     H89309   3.764   1.031   1.499  2.1513  0.4866  4.1948
  662MOL0     H89310   3.753   1.134   1.626 -1.3203 -0.9088 -0.4072
  662MOL0     H89311   3.561   1.254   1.550 -1.0230 -0.6634  0.5920
  662MOL0     H89312   3.557   1.166   1.399 -1.8156  0.4306 -0.4739
  662MOL0     H89313   3.558   0.955   1.501 -1.6850 -0.0392 -1.3458
  662MOL0     H89314   3.535   1.021   1.661 -1.1299 -0.1160  0.1950
  662MOL0     H89315   3.315   1.125   1.562 -0.8757  0.1346 -1.1922
  662MOL0     H89316   3.370   1.035   1.418  0.6124 -3.0688  1.5284
  662MOL0     H89317   3.202   0.889   1.523 -1.8877 -0.1973  0.9592
  662MOL0     H89318   3.355   0.820   1.578 -2.1667 -0.6788  1.1128
  662MOL0     H89319   3.297   1.031   1.748  1.5635 -0.2155 -1.7994
  662MOL0     H89320   3.305   0.859   1.795  0.7196  0.8802  1.5476
  662MOL0     H89321   3.050   1.135   1.726 -0.8469  0.3623  0.7262
  662MOL0     H89322   2.768   1.165   1.715  0.4776 -1.3876 -1.9745
  662MOL0     H89323   2.682   1.015   1.735 -1.2702  2.2426 -0.4873
  662MOL0     H89324   2.813   1.186   1.943  0.1130 -0.6152  1.3587
  662MOL0     H89325   2.775   1.016   1.987 -2.3935  1.1140  2.1632
  662MOL0     H89326   2.542   1.046   1.953  0.1906 -1.0172 -0.8694
  662MOL0     H89327   2.574   1.209   1.868  0.0535  1.2550  0.2903
  662MOL0     H89328   2.669   1.290   2.086  0.6130 -1.4038 -0.4636
  662MOL0     H89329   2.610   1.154   2.167 -0.5812 -2.3920  0.1735
  662MOL0     H89330   2.226   1.358   2.096 -1.5343  2.1538  4.2988
  662MOL0     H89331   1.974   1.355   2.067  0.9402 -1.6867 -2.1203
  662MOL0     H89332   1.891   1.221   2.125  0.6031  1.0386  0.6789
  662MOL0     H89333   1.973   1.324   2.240 -1.0205  0.9556 -0.0971
  662MOL0     H89334   1.745   0.787   2.241 -1.6228 -1.9210 -1.1316
  662MOL0     H89335   1.632   0.596   2.280  1.5841  2.8852  0.2317
  662MOL0     H89336   1.811   0.250   2.085  0.2330 -3.9527  0.3755
  662MOL0     H89337   1.775   0.180   2.245  0.3127 -1.0387  0.2345
  662MOL0     H89338   1.684   0.066   2.037  0.8004 -0.6465 -1.1092
  662MOL0     H89339   1.556   0.119   2.154 -0.3546  3.7467 -0.0577
  662MOL0     H89340   1.632   0.291   1.914 -0.3554  2.5694  1.4996
  662MOL0     H89341   1.493   0.298   2.025  1.4835  0.8348 -0.4963
  662MOL0     H89342   1.557   0.102   1.817 -0.3390 -2.5044  0.6857
  662MOL0     H89343   1.417   0.073   1.926  0.3705 -1.9234 -2.8359
  662MOL0     H89344   1.476   0.289   1.724  0.3907 -2.8148 -2.9596
  662MOL0     H89345   1.342   0.321   1.844  0.4412  1.1599 -2.6693
  662MOL0     H89346   1.263   0.099   1.788  3.8500 -0.1788  2.0449
  662MOL0     H89347   1.232   0.217   1.658 -1.0298 -2.6941 -0.6031
  662MOL0     H89348   1.420  -0.029   1.651 -0.6171  0.2197  1.2217
  662MOL0     H89349   1.472   0.118   1.572 -0.1140 -2.0962 -1.4971
  662MOL0     H89350   1.193  -0.016   1.554  0.5855  1.1609  1.4459
  662MOL0     H89351   1.335  -0.075   1.465  3.1585  2.2446 -0.9563
  662MOL0     H89352   1.980   0.373   2.125 -0.5408 -0.9653  1.2809
  662MOL0     H89353   2.088   0.585   2.101  0.2161 -0.1645 -0.2445
  662MOL0     H89354   2.248   0.877   2.181 -1.1899 -0.1556 -1.1528
  662MOL0     H89355   2.446   1.008   2.139 -1.4592 -1.2280 -3.9348
  662MOL0     H89356   4.209   1.462   1.451 -2.9312 -1.5752 -1.2715
  662MOL0     H89357   4.453   1.479   1.399 -0.3721  0.4039 -1.0652
  662MOL0     H89358   4.747   1.211   1.115  2.5779 -3.4197  1.0536
  662MOL0     H89359   4.958   1.199   0.982 -1.0669  0.1303  0.5348
  662MOL0     H89360   5.159   1.271   0.856  3.1098  0.0183  0.5850
  662MOL0     H89361   5.075   1.420   0.906  0.9029  0.5283 -1.5658
  662MOL0     H89362   5.254   1.474   0.752  0.8534  1.9611  1.0254
  662MOL0     H89363   5.363   1.371   0.834 -0.8429 -1.6508 -0.2154
  662MOL0     H89364   5.413   1.599   0.906 -0.2473  1.0493  0.6032
  662MOL0     H89365   5.357   1.497   1.044 -1.7023 -3.5862  0.1210
  662MOL0     H89366   5.152   1.613   1.037  0.4579  2.8377  2.5730
  662MOL0     H89367   5.184   1.696   0.876  3.9642  5.0403  0.1622
  662MOL0     H89368   5.353   1.936   1.179 -4.2135  1.5304  0.9748
  662MOL0     H89369   5.152   1.438   1.287 -0.4389  2.9885 -1.7938
  662MOL0     H89370   4.950   1.439   1.427 -1.7576 -0.2929  0.4397
  663MOL0     O89371   0.419   7.200   7.657 -0.1165  0.2617  0.4677
  663MOL0     C89372   0.404   7.115   7.561  0.5253  0.4371  0.0282
  663MOL0     O89373   0.441   7.138   7.427  0.6586  0.1598  0.1616
  663MOL0     C89374   0.500   7.253   7.402  0.1327 -0.0729  0.0556
  663MOL0     C89375   0.618   7.301   7.481  0.4881 -0.2138  0.2095
  663MOL0     C89376   0.685   7.411   7.436  0.2732 -1.0956 -0.2851
  663MOL0     C89377   0.645   7.482   7.326 -0.6332 -0.7382  0.3286
  663MOL0     O89378   0.715   7.597   7.292 -0.1616 -0.1900  0.1194
  663MOL0     C89379   0.671   7.665   7.172  0.4580  0.7784 -0.9675
  663MOL0     C89380   0.757   7.791   7.146 -0.0496 -0.3219  0.2210
  663MOL0     C89381   0.852   7.773   7.022 -0.3490  0.5434  0.3312
  663MOL0     C89382   0.984   7.846   7.022  0.3532  0.5596 -0.6346
  663MOL0     C89383   1.082   7.814   6.913 -0.4369  0.6539  0.6985
  663MOL0     C89384   1.027   7.860   6.769  0.4339  0.8233 -0.3211
  663MOL0     C89385   1.116   7.817   6.648  0.0901  0.1138  0.9541
  663MOL0     C89386   1.270   7.857   6.676  0.7470 -0.0012  0.5298
  663MOL0     N89387   1.273   8.000   6.712 -0.7208 -0.0625 -0.9274
  663MOL0     C89388   1.234   8.111   6.642  0.0076  0.4713 -0.8362
  663MOL0     C89389   1.280   8.224   6.711 -0.7452 -0.4941 -0.1228
  663MOL0     C89390   1.248   8.368   6.673 -1.1390 -0.2374  0.2882
  663MOL0     C89391   1.131   8.415   6.750 -0.5801  0.6447  0.3131
  663MOL0     C89392   1.151   8.428   6.901  0.6251  0.3876  0.4360
  663MOL0     C89393   1.045   8.502   6.980  0.8597 -0.0080  0.3140
  663MOL0     O89394   0.918   8.456   6.943  0.0557 -0.1463  0.3574
  663MOL0     C89395   0.848   8.400   7.045 -0.1623  0.5854 -0.9612
  663MOL0     C89396   0.820   8.476   7.163  0.2465 -0.1665  0.0302
  663MOL0     C89397   0.745   8.425   7.269 -0.6013  0.3796 -0.0240
  663MOL0     C89398   0.677   8.521   7.369 -0.4769 -0.2574  0.0940
  663MOL0     C89399   0.714   8.283   7.274 -0.1608  0.7963  0.2816
  663MOL0     C89400   0.632   8.218   7.380 -0.8453  0.3677 -0.0417
  663MOL0     O89401   0.584   8.093   7.356 -0.5371 -0.0920  0.3563
  663MOL0     C89402   0.535   8.004   7.441 -1.4087 -0.3018 -0.6731
  663MOL0     C89403   0.396   7.990   7.449 -0.4631  0.7562 -0.2891
  663MOL0     C89404   0.329   7.887   7.516 -0.2194  0.5608 -0.0881
  663MOL0     C89405   0.405   7.803   7.599 -0.8319  0.3803 -0.3421
  663MOL0     O89406   0.344   7.704   7.677  0.1834 -0.3527  0.1556
  663MOL0     C89407   0.344   7.561   7.628 -0.7265 -0.5643 -0.7097
  663MOL0     C89408   0.210   7.541   7.559  0.3961  0.0054 -0.9572
  663MOL0     C89409   0.085   7.574   7.646  0.1168  0.8462  0.0092
  663MOL0     C89410  -0.048   7.556   7.564  0.6079 -0.4298  0.1423
  663MOL0     C89411  -0.166   7.627   7.635 -0.4176  0.9325  0.1362
  663MOL0     C89412  -0.145   7.778   7.661  0.2218 -0.0252  0.6118
  663MOL0     C89413  -0.276   7.841   7.671  0.0609  0.2971 -0.5126
  663MOL0     C89414  -0.252   7.984   7.729 -0.5772 -0.4177  0.4738
  663MOL0    Cl89415  -0.185   8.098   7.620 -0.6482 -1.0812  0.4983
  663MOL0     C89416   0.537   7.822   7.596  0.1263  0.3576 -1.1031
  663MOL0     C89417   0.604   7.911   7.519 -0.5523  0.6631  0.9241
  663MOL0     O89418   0.619   8.271   7.492  0.0640 -0.5804  0.0174
  663MOL0     C89419   0.762   8.202   7.164  0.7766 -0.4243 -0.2779
  663MOL0     C89420   0.819   8.258   7.048  0.2854  1.0329 -0.3751
  663MOL0     N89421   1.339   8.180   6.821 -0.6528 -0.0051 -0.5605
  663MOL0     N89422   1.329   8.053   6.826 -0.1644  0.3278 -0.5447
  663MOL0     C89423   0.540   7.429   7.244  0.3242  0.4090  0.7854
  663MOL0     C89424   0.465   7.320   7.285 -0.6477 -0.8111 -0.1070
  663MOL0     C89425   0.397   6.975   7.592  0.0274 -0.0944  0.3861
  663MOL0     C89426   0.344   6.886   7.498  0.6352 -0.3642 -0.3502
  663MOL0     C89427   0.336   6.750   7.514 -0.2482  0.5509  0.5626
  663MOL0     C89428   0.359   6.700   7.639  0.3969  0.3933 -0.5634
  663MOL0     O89429   0.340   6.570   7.663  0.0973 -0.7354  0.7413
  663MOL0     C89430   0.436   6.489   7.601 -0.1740 -0.7250 -1.3175
  663MOL0     C89431   0.352   6.369   7.542 -0.3953 -0.1288  0.7341
  663MOL0     C89432   0.379   6.343   7.394  0.9211 -0.1199  0.3355
  663MOL0     C89433   0.273   6.237   7.360  0.1454  0.5103 -0.0413
  663MOL0     C89434   0.282   6.203   7.221 -0.0020 -0.2034  0.8245
  663MOL0     C89435   0.284   6.191   7.098 -0.8750 -0.3063  0.1729
  663MOL0     C89436   0.399   6.788   7.748  0.2603 -0.8779  0.8683
  663MOL0     C89437   0.421   6.928   7.725 -0.8911  0.5494  1.3676
  663MOL0     H89438   0.662   7.248   7.565 -0.3212 -3.7550 -1.4381
  663MOL0     H89439   0.762   7.446   7.504  0.8912  1.8726 -2.3128
  663MOL0     H89440   0.684   7.588   7.095 -1.6009 -1.9068  1.1818
  663MOL0     H89441   0.568   7.699   7.161 -0.5027 -1.6949 -0.2384
  663MOL0     H89442   0.692   7.872   7.111 -0.3715 -0.3908  0.6513
  663MOL0     H89443   0.817   7.811   7.236 -0.7824 -2.1109  1.1483
  663MOL0     H89444   0.869   7.667   7.002  1.7710  1.1991 -1.9115
  663MOL0     H89445   0.792   7.798   6.934 -1.8532 -4.6476 -0.4324
  663MOL0     H89446   0.968   7.953   7.005  4.9160  1.4383 -0.6676
  663MOL0     H89447   1.034   7.824   7.116 -1.7954 -0.3511  0.3805
  663MOL0     H89448   1.168   7.881   6.928 -1.1677  2.2376 -1.6232
  663MOL0     H89449   1.121   7.712   6.909 -0.1552  0.7449 -3.4595
  663MOL0     H89450   0.936   7.805   6.742 -0.5800  1.5501  1.4458
  663MOL0     H89451   1.011   7.968   6.766  0.3083  0.7858 -1.8090
  663MOL0     H89452   1.114   7.708   6.639 -3.2960  0.1320  0.3394
  663MOL0     H89453   1.078   7.857   6.554  0.3979 -2.1406 -0.1917
  663MOL0     H89454   1.313   7.843   6.576  2.0157 -0.8214  1.1660
  663MOL0     H89455   1.317   7.789   6.747  1.1583  0.5553  0.7984
  663MOL0     H89456   1.174   8.114   6.552 -0.7783 -6.5276 -1.1184
  663MOL0     H89457   1.340   8.426   6.688 -1.4376  0.0405  1.1206
  663MOL0     H89458   1.215   8.371   6.569 -0.7509 -0.4394  0.1571
  663MOL0     H89459   1.051   8.343   6.733 -1.3556  1.1639  1.6050
  663MOL0     H89460   1.106   8.506   6.694 -1.8270 -0.5911 -1.2383
  663MOL0     H89461   1.241   8.488   6.920  0.2530  1.2779 -0.5152
  663MOL0     H89462   1.165   8.335   6.956 -2.1345 -0.4093 -0.1082
  663MOL0     H89463   1.053   8.610   6.960  0.4019  0.0674  0.5380
  663MOL0     H89464   1.057   8.487   7.088 -0.1492 -3.2114  0.0835
  663MOL0     H89465   0.833   8.584   7.157 -1.5336  0.2534  2.2447
  663MOL0     H89466   0.721   8.495   7.465  1.9539 -1.5047 -1.2445
  663MOL0     H89467   0.697   8.628   7.358  1.6352 -0.7212 -1.0700
  663MOL0     H89468   0.568   8.512   7.371 -0.9707  4.0928  1.1392
  663MOL0     H89469   0.333   8.055   7.389 -1.4646 -1.6757 -2.0239
  663MOL0     H89470   0.221   7.882   7.507 -0.0837  0.0753 -1.7266
  663MOL0     H89471   0.433   7.537   7.569 -0.2415 -2.6091  0.7742
  663MOL0     H89472   0.360   7.502   7.718 -0.6666  2.7270  1.6154
  663MOL0     H89473   0.217   7.603   7.469  1.4262  0.2741 -0.7002
  663MOL0     H89474   0.204   7.434   7.537 -0.5565  0.5084 -3.4481
  663MOL0     H89475   0.094   7.678   7.680  2.0278  1.0466 -0.9341
  663MOL0     H89476   0.087   7.506   7.732  1.5947 -1.9187 -2.0189
  663MOL0     H89477  -0.032   7.603   7.466  0.2470  0.5475  0.5449
  663MOL0     H89478  -0.078   7.452   7.550 -1.0119  0.1926 -1.4386
  663MOL0     H89479  -0.181   7.577   7.731  0.4269  1.3603  0.5032
  663MOL0     H89480  -0.254   7.603   7.575  1.4144 -2.4972 -1.5031
  663MOL0     H89481  -0.091   7.800   7.754 -2.2846  1.0347  1.9221
  663MOL0     H89482  -0.098   7.807   7.567  2.1992 -1.4047  1.1167
  663MOL0     H89483  -0.330   7.791   7.751 -1.5224  0.8846 -1.1761
  663MOL0     H89484  -0.341   7.846   7.583 -0.3548 -2.5727 -0.4725
  663MOL0     H89485  -0.187   7.981   7.817  0.1615  3.1430  0.1767
  663MOL0     H89486  -0.350   8.025   7.756 -1.9880 -1.9964 -1.8309
  663MOL0     H89487   0.614   7.768   7.649 -0.3605 -1.3277 -2.0479
  663MOL0     H89488   0.711   7.893   7.517 -0.8396 -1.4007 -0.9733
  663MOL0     H89489   0.739   8.096   7.153 -0.2565 -0.2342 -0.0703
  663MOL0     H89490   0.851   8.204   6.960  3.5213 -0.3950  1.5069
  663MOL0     H89491   0.501   7.484   7.159  1.4326  1.8351  1.1617
  663MOL0     H89492   0.380   7.282   7.230 -1.8609  2.6449 -0.9182
  663MOL0     H89493   0.318   6.918   7.397 -2.4780 -0.8787  0.2071
  663MOL0     H89494   0.287   6.681   7.447  1.4405 -0.6050  0.4539
  663MOL0     H89495   0.501   6.539   7.529 -0.6656 -1.1859 -2.1034
  663MOL0     H89496   0.491   6.452   7.688 -2.1711  2.7541  1.7411
  663MOL0     H89497   0.245   6.390   7.546 -0.5276 -0.7978  0.6974
  663MOL0     H89498   0.377   6.281   7.601  4.4778 -0.3781 -1.1977
  663MOL0     H89499   0.476   6.304   7.361 -0.0887  0.2432 -3.5576
  663MOL0     H89500   0.349   6.433   7.338 -2.5186  0.1532  2.3375
  663MOL0     H89501   0.171   6.268   7.386 -0.5137 -1.7070  0.2198
  663MOL0     H89502   0.282   6.144   7.416 -0.9298  0.6464  0.3805
  663MOL0     H89503   0.285   6.194   6.991 -4.4421 -0.9711 -0.0226
  663MOL0     H89504   0.415   6.746   7.847  0.8679  0.3508  1.3106
  663MOL0     H89505   0.473   6.978   7.807  2.7208 -1.9976  0.9104
  664MOL0     O89506   5.970   8.559   1.592  0.2773 -0.1998  0.3329
  664MOL0     C89507   6.036   8.635   1.659 -0.1003  0.9637 -0.8197
  664MOL0     O89508   5.998   8.734   1.740 -0.2695  0.2689 -0.3448
  664MOL0     C89509   5.864   8.764   1.761 -0.4960  0.3820  0.1232
  664MOL0     C89510   5.765   8.661   1.770 -0.2523 -0.1273  0.3771
  664MOL0     C89511   5.631   8.698   1.793 -1.0015 -0.2067 -0.6364
  664MOL0     C89512   5.596   8.832   1.818  0.0372 -0.6228  0.8756
  664MOL0     O89513   5.461   8.858   1.835  0.8209 -1.0179 -0.7034
  664MOL0     C89514   5.426   8.970   1.921  0.6647 -0.7553 -0.3251
  664MOL0     C89515   5.390   9.088   1.825 -0.3532 -0.7093 -0.1462
  664MOL0     C89516   5.352   9.216   1.907  0.2750  0.2159 -0.2224
  664MOL0     C89517   5.198   9.224   1.925 -0.2110  0.5303  0.2090
  664MOL0     C89518   5.154   9.347   2.006  0.0581 -0.2000 -0.0244
  664MOL0     C89519   4.999   9.358   1.975  0.3080  0.3339  0.3077
  664MOL0     C89520   4.929   9.459   2.055 -0.6068  0.4703  0.1422
  664MOL0     C89521   4.787   9.470   1.993 -0.2425  0.3346 -0.0362
  664MOL0     N89522   4.703   9.553   2.070  0.0439 -0.4739 -0.7935
  664MOL0     C89523   4.692   9.688   2.049  0.2043 -0.1884 -0.0689
  664MOL0     C89524   4.584   9.720   2.130 -0.1717  0.6326 -0.0285
  664MOL0     C89525   4.513   9.849   2.125  0.1235 -0.9977  0.5046
  664MOL0     C89526   4.365   9.836   2.085  0.6845  0.0360  0.7733
  664MOL0     C89527   4.304   9.977   2.082  0.3095  0.5142 -0.0375
  664MOL0     C89528   4.153   9.981   2.065 -0.7751  0.1961  0.2270
  664MOL0     O89529   4.105  10.117   2.056 -0.5016  0.3336 -0.8388
  664MOL0     C89530   4.108  10.180   1.934 -0.8666  0.7051 -0.2540
  664MOL0     C89531   4.104  10.323   1.927 -0.1836 -0.0772 -0.5764
  664MOL0     C89532   4.096  10.387   1.810  1.0579 -0.1731 -1.1042
  664MOL0     C89533   4.119  10.536   1.824  0.3531 -0.5200  0.2108
  664MOL0     C89534   4.107  10.322   1.685 -0.3618 -0.2646 -0.8086
  664MOL0     C89535   4.123  10.390   1.555 -0.9398  0.6578 -0.2784
  664MOL0     O89536   4.179  10.314   1.459 -0.1031  0.3729 -0.8539
  664MOL0     C89537   4.166  10.364   1.337  0.7500 -0.6177 -0.0444
  664MOL0     C89538   4.042  10.358   1.270 -0.4681 -0.4512 -0.0288
  664MOL0     C89539   4.033  10.414   1.138 -0.4123 -0.2534 -0.4136
  664MOL0     C89540   4.135  10.487   1.076 -0.9876  1.0224 -0.3632
  664MOL0     O89541   4.117  10.541   0.952  1.1255 -0.2988  0.6945
  664MOL0     C89542   4.036  10.657   0.944  0.3628  0.7295 -0.3160
  664MOL0     C89543   4.102  10.772   1.015  0.0343 -0.7568 -0.0326
  664MOL0     C89544   4.201  10.856   0.925  0.7131  0.0310 -0.1563
  664MOL0     C89545   4.333  10.779   0.898 -0.0034 -1.0202  0.3398
  664MOL0     C89546   4.437  10.862   0.821  0.3489 -0.4254  0.5142
  664MOL0     C89547   4.573  10.795   0.831 -0.1460  0.8354  0.4273
  664MOL0     C89548   4.640  10.836   0.958  0.4708 -0.1159 -0.6367
  664MOL0     C89549   4.768  10.756   0.979  0.4159 -0.2076 -0.3271
  664MOL0    Cl89550   4.856  10.719   0.833 -0.0919  0.1382  0.3878
  664MOL0     C89551   4.260  10.481   1.141 -0.2109  0.2405 -0.4821
  664MOL0     C89552   4.277  10.414   1.267  0.7214  0.3521 -0.4981
  664MOL0     O89553   4.066  10.496   1.536  1.0057 -0.6312 -0.7894
  664MOL0     C89554   4.106  10.185   1.685  0.2175 -0.1841  0.2960
  664MOL0     C89555   4.118  10.116   1.808  0.3904 -0.6602 -0.3606
  664MOL0     N89556   4.557   9.617   2.217  0.2463  0.1755 -0.5209
  664MOL0     N89557   4.626   9.512   2.173  0.6021 -0.1088  0.2603
  664MOL0     C89558   5.692   8.924   1.808  0.7986 -0.9329  0.1211
  664MOL0     C89559   5.825   8.895   1.780  0.2154 -0.1552  0.8931
  664MOL0     C89560   6.182   8.617   1.635 -1.3097 -0.4435  0.4086
  664MOL0     C89561   6.228   8.491   1.603  0.0927 -0.2524  0.0045
  664MOL0     C89562   6.367   8.458   1.596 -0.2637 -0.0159 -1.2889
  664MOL0     C89563   6.466   8.549   1.636 -0.1553 -0.1191  0.5561
  664MOL0     O89564   6.601   8.525   1.652  1.0845 -0.2410 -0.4302
  664MOL0     C89565   6.662   8.395   1.647 -0.7897 -0.0098  0.7826
  664MOL0     C89566   6.808   8.416   1.639 -0.6092 -0.3873  0.3976
  664MOL0     C89567   6.850   8.497   1.754 -1.0908  0.3878 -0.2827
  664MOL0     C89568   7.008   8.476   1.774  0.5463 -0.5272  0.3684
  664MOL0     C89569   7.092   8.559   1.695 -0.3098  1.0533  0.5389
  664MOL0     C89570   7.196   8.588   1.643 -0.8471  0.4714 -0.4936
  664MOL0     C89571   6.425   8.688   1.646 -0.7156  0.0745 -0.1632
  664MOL0     C89572   6.284   8.716   1.645 -0.0368 -0.1616  0.1980
  664MOL0     H89573   5.800   8.558   1.774 -1.2882 -0.5191 -0.1181
  664MOL0     H89574   5.548   8.629   1.782 -1.8273  0.6984 -0.2265
  664MOL0     H89575   5.348   8.941   1.992  0.8819  0.6375  0.5039
  664MOL0     H89576   5.514   9.008   1.973  1.2926  0.2411 -2.0247
  664MOL0     H89577   5.486   9.103   1.774 -1.2382  1.9490 -1.1758
  664MOL0     H89578   5.316   9.051   1.753  0.3617 -2.2723 -0.1153
  664MOL0     H89579   5.387   9.195   2.008 -1.8149 -3.3440 -0.0764
  664MOL0     H89580   5.390   9.308   1.861  0.5254  0.1170 -0.2133
  664MOL0     H89581   5.159   9.231   1.823 -1.0136 -1.6030  0.3267
  664MOL0     H89582   5.151   9.136   1.969  0.2450 -0.7772 -1.7782
  664MOL0     H89583   5.180   9.348   2.112  0.1693  1.6896 -0.0235
  664MOL0     H89584   5.193   9.439   1.960 -2.5042 -0.6125 -3.4818
  664MOL0     H89585   4.982   9.368   1.867  0.7582  1.0994  0.2960
  664MOL0     H89586   4.957   9.260   1.996 -1.1119 -0.2074 -3.9907
  664MOL0     H89587   4.922   9.416   2.156  0.3041  1.6373  0.7283
  664MOL0     H89588   4.974   9.559   2.058 -0.6536  0.6737 -3.0313
  664MOL0     H89589   4.745   9.369   1.989  1.1714 -0.3016  0.3716
  664MOL0     H89590   4.794   9.510   1.892  0.8597 -0.9376 -0.4929
  664MOL0     H89591   4.746   9.752   1.980 -0.6925 -0.6946 -1.2740
  664MOL0     H89592   4.521   9.885   2.228  0.4255 -0.8828  0.4429
  664MOL0     H89593   4.566   9.907   2.049  0.2519 -2.8167 -0.8682
  664MOL0     H89594   4.310   9.759   2.141  0.4425  0.2644  0.8559
  664MOL0     H89595   4.350   9.792   1.986  0.6756  3.4449 -0.8873
  664MOL0     H89596   4.343  10.034   1.997 -2.0557  1.8474 -0.3147
  664MOL0     H89597   4.333  10.036   2.169 -3.0487  0.5520  1.1900
  664MOL0     H89598   4.103   9.941   2.154  0.5598  1.2884  1.5095
  664MOL0     H89599   4.126   9.922   1.977 -4.3073  0.8888  0.7001
  664MOL0     H89600   4.107  10.372   2.024  0.0020 -2.3894  0.6601
  664MOL0     H89601   4.019  10.578   1.838  1.0059  1.3507 -0.4275
  664MOL0     H89602   4.165  10.559   1.921  0.5615 -1.8884  0.4559
  664MOL0     H89603   4.170  10.585   1.741  0.4839  0.7512  1.0041
  664MOL0     H89604   3.958  10.300   1.306  1.9297 -2.7119  2.3535
  664MOL0     H89605   3.935  10.414   1.092  0.0903 -1.1464 -1.5357
  664MOL0     H89606   4.028  10.675   0.836 -1.3141  0.4443 -0.2629
  664MOL0     H89607   3.931  10.650   0.971  0.4568 -1.0982 -0.3518
  664MOL0     H89608   4.017  10.835   1.046  0.6825 -1.1756  2.9325
  664MOL0     H89609   4.150  10.751   1.111 -0.4407 -0.1600  0.3455
  664MOL0     H89610   4.232  10.953   0.964  2.1864 -0.2279 -0.6257
  664MOL0     H89611   4.147  10.878   0.833 -0.7020  1.1673  0.8982
  664MOL0     H89612   4.373  10.768   1.000  1.5281  0.9576  0.0139
  664MOL0     H89613   4.315  10.682   0.850 -1.5077 -1.0960  0.9998
  664MOL0     H89614   4.435  10.965   0.856  0.1709 -0.1391 -0.2980
  664MOL0     H89615   4.416  10.874   0.714  1.7472  0.0077  0.2697
  664MOL0     H89616   4.561  10.687   0.816  3.8688  0.6248 -3.1929
  664MOL0     H89617   4.644  10.821   0.752  2.2873 -1.4465  1.6694
  664MOL0     H89618   4.570  10.824   1.041 -0.3702  1.3559 -1.0941
  664MOL0     H89619   4.664  10.942   0.948 -1.9297  0.4687 -0.9391
  664MOL0     H89620   4.743  10.660   1.024 -1.4889 -0.6526 -2.2212
  664MOL0     H89621   4.826  10.796   1.063 -0.3941  0.7514 -0.2113
  664MOL0     H89622   4.347  10.528   1.094  1.0302  0.8085  2.2109
  664MOL0     H89623   4.377  10.405   1.310  0.2459 -4.9691  0.2052
  664MOL0     H89624   4.128  10.131   1.593 -2.6568 -1.0611  0.0451
  664MOL0     H89625   4.143  10.010   1.800 -0.2185 -0.9211  0.8881
  664MOL0     H89626   5.673   9.030   1.822 -0.5591 -1.1037 -0.2625
  664MOL0     H89627   5.898   8.976   1.780  0.7452 -0.5510  3.5667
  664MOL0     H89628   6.152   8.418   1.577 -0.2971  0.5324 -1.1085
  664MOL0     H89629   6.392   8.356   1.568  1.7291 -0.0274  0.3407
  664MOL0     H89630   6.636   8.337   1.735  0.0704 -3.1379 -0.8831
  664MOL0     H89631   6.625   8.346   1.556 -2.6820  1.2775  0.7988
  664MOL0     H89632   6.813   8.479   1.550 -0.4945 -0.4800  0.3405
  664MOL0     H89633   6.878   8.332   1.638  3.2230  2.0875  6.3297
  664MOL0     H89634   6.791   8.492   1.846  0.1462  2.7194  0.7316
  664MOL0     H89635   6.838   8.600   1.721  0.0097  0.6201 -0.0147
  664MOL0     H89636   7.022   8.368   1.766 -1.7032 -1.0085  2.0871
  664MOL0     H89637   7.031   8.509   1.876  0.8966 -1.9700  0.7806
  664MOL0     H89638   7.286   8.628   1.601  0.4714 -2.0892 -0.3275
  664MOL0     H89639   6.503   8.762   1.658  0.5871 -1.6679  3.4294
  664MOL0     H89640   6.241   8.815   1.656 -0.1586 -0.2034  0.1132
  665MOL0     O89641  10.276   6.464   8.162  0.0647  0.0098 -0.0363
  665MOL0     C89642  10.191   6.518   8.228  1.2330  0.5845 -0.3469
  665MOL0     O89643  10.100   6.442   8.305 -0.0473 -0.5858 -0.8186
  665MOL0     C89644  10.127   6.308   8.323 -1.0384  0.4580 -0.3313
  665MOL0     C89645  10.010   6.232   8.358  0.0244  0.1743  1.1218
  665MOL0     C89646  10.027   6.093   8.381 -0.5489 -0.4701 -0.6774
  665MOL0     C89647  10.160   6.032   8.382 -0.5627  0.3970  0.2142
  665MOL0     O89648  10.188   5.900   8.403 -0.2706 -0.1188  0.6351
  665MOL0     C89649  10.091   5.798   8.379 -0.3504  0.6889  0.2066
  665MOL0     C89650  10.145   5.657   8.409 -0.7241 -0.7223  0.3361
  665MOL0     C89651  10.256   5.602   8.306  0.4452 -0.7733  0.9381
  665MOL0     C89652  10.298   5.458   8.351 -0.5036 -1.1849 -0.3479
  665MOL0     C89653  10.425   5.417   8.278 -0.4667 -0.0679 -0.0995
  665MOL0     C89654  10.479   5.281   8.312 -0.7073 -1.4819  0.6157
  665MOL0     C89655  10.376   5.173   8.326 -0.0618 -0.3367 -0.0944
  665MOL0     C89656  10.448   5.047   8.360  0.4054 -0.0046 -0.4938
  665MOL0     N89657  10.369   4.928   8.372 -0.0169 -0.5529  0.4295
  665MOL0     C89658  10.364   4.834   8.475  0.1888 -0.1291  0.1072
  665MOL0     C89659  10.267   4.749   8.453  0.9488  0.9281 -0.1680
  665MOL0     C89660  10.240   4.633   8.530 -0.0891 -0.2295 -1.3855
  665MOL0     C89661  10.103   4.561   8.499 -0.2436  0.1761  0.1781
  665MOL0     C89662  10.094   4.439   8.598 -0.7817 -0.4062  0.5800
  665MOL0     C89663   9.971   4.355   8.589  1.1363  0.0918  0.1112
  665MOL0     O89664  10.002   4.226   8.625 -0.1917  0.7244  0.5196
  665MOL0     C89665   9.899   4.127   8.607 -0.5878 -0.6806 -0.2702
  665MOL0     C89666   9.762   4.164   8.610 -0.3710  0.2277 -0.2460
  665MOL0     C89667   9.664   4.064   8.608 -0.4643  0.4985 -0.6903
  665MOL0     C89668   9.525   4.106   8.607  0.7681 -0.6911 -0.0736
  665MOL0     C89669   9.697   3.924   8.608 -0.3056 -0.0456  0.1713
  665MOL0     C89670   9.597   3.813   8.594  0.1707 -1.1928 -0.0468
  665MOL0     O89671   9.640   3.685   8.648 -0.4682 -0.0454 -0.5140
  665MOL0     C89672   9.569   3.569   8.630  0.9802  0.0758  0.0462
  665MOL0     C89673   9.429   3.557   8.631 -0.2390  0.1756  0.6705
  665MOL0     C89674   9.373   3.436   8.642 -0.1608 -0.1019  0.0164
  665MOL0     C89675   9.451   3.320   8.645  0.4896 -0.0384  0.0983
  665MOL0     O89676   9.398   3.199   8.668  0.3282  0.9258 -0.0325
  665MOL0     C89677   9.258   3.172   8.675 -0.5229 -0.0098 -0.1317
  665MOL0     C89678   9.236   3.026   8.718  0.4374  0.5743 -0.6442
  665MOL0     C89679   9.302   2.990   8.853 -0.0463  0.3818 -0.4865
  665MOL0     C89680   9.250   3.081   8.971 -0.5806  0.2446  0.2553
  665MOL0     C89681   9.313   3.032   9.100  0.8309  0.1102  0.4338
  665MOL0     C89682   9.256   3.121   9.214 -0.0048 -0.0266 -0.5022
  665MOL0     C89683   9.297   3.082   9.364  0.7699 -0.3446  1.0007
  665MOL0     C89684   9.269   3.198   9.469 -0.1678  0.6144  0.5177
  665MOL0    Cl89685   9.264   3.122   9.627 -0.0423 -0.1791 -0.0775
  665MOL0     C89686   9.589   3.330   8.639 -0.1743 -0.2469  0.1042
  665MOL0     C89687   9.645   3.450   8.634  0.8358 -1.3850 -0.3513
  665MOL0     O89688   9.499   3.831   8.523  0.1035  0.3799 -0.2150
  665MOL0     C89689   9.839   3.900   8.612  0.2732  0.4353  0.4168
  665MOL0     C89690   9.934   3.997   8.615 -0.3006 -0.7218 -0.4540
  665MOL0     N89691  10.195   4.798   8.352  0.1752 -1.5424 -0.3238
  665MOL0     N89692  10.252   4.910   8.314 -0.1898  0.1482 -0.2199
  665MOL0     C89693  10.272   6.104   8.357  0.3026  1.3095  0.9784
  665MOL0     C89694  10.256   6.239   8.331  0.2377 -0.8175  0.6040
  665MOL0     C89695  10.200   6.666   8.253  0.2864 -0.7875  0.9176
  665MOL0     C89696  10.296   6.750   8.200  1.1659  0.1020  1.3705
  665MOL0     C89697  10.295   6.890   8.237 -0.0999  1.0554  0.5384
  665MOL0     C89698  10.218   6.939   8.330 -0.5902  0.4972  0.8657
  665MOL0     O89699  10.215   7.067   8.360  0.2322  0.0934 -0.8639
  665MOL0     C89700  10.330   7.119   8.419 -1.4524 -0.4662  0.9125
  665MOL0     C89701  10.298   7.242   8.507 -0.0791  0.8746 -0.4240
  665MOL0     C89702  10.281   7.371   8.433 -0.6343 -0.5356 -0.5170
  665MOL0     C89703  10.271   7.483   8.537  0.5752  0.0922  0.4017
  665MOL0     C89704  10.393   7.562   8.538 -0.3893  0.2819 -0.0013
  665MOL0     C89705  10.496   7.614   8.541 -0.3083 -0.4748  0.2477
  665MOL0     C89706  10.123   6.852   8.377 -0.5465  0.2430 -0.1613
  665MOL0     C89707  10.110   6.721   8.343  0.0589 -0.2847  0.2230
  665MOL0     H89708   9.911   6.274   8.367 -0.6373  0.4497 -4.1170
  665MOL0     H89709   9.948   6.032   8.425 -0.7013 -0.4622 -0.9391
  665MOL0     H89710  10.022   5.817   8.461  1.5672  0.1541  2.0487
  665MOL0     H89711  10.046   5.801   8.279  1.5944  0.2133 -0.7324
  665MOL0     H89712  10.184   5.657   8.511 -0.6734 -0.5859  0.3168
  665MOL0     H89713  10.057   5.592   8.411 -2.7498  1.8568  1.0528
  665MOL0     H89714  10.217   5.596   8.204 -1.0504 -0.7283  1.4835
  665MOL0     H89715  10.349   5.660   8.307  0.4557 -0.4225 -3.1003
  665MOL0     H89716  10.325   5.449   8.457  1.9906  2.7059 -0.4448
  665MOL0     H89717  10.219   5.391   8.316  0.7389 -3.1018  0.3732
  665MOL0     H89718  10.415   5.440   8.171  2.0279 -0.5825 -0.5043
  665MOL0     H89719  10.505   5.485   8.309 -1.1995 -0.3187  2.5406
  665MOL0     H89720  10.550   5.262   8.231 -0.9970  1.7786 -0.5508
  665MOL0     H89721  10.527   5.293   8.409 -0.8943  0.2448  0.5318
  665MOL0     H89722  10.312   5.194   8.412 -0.8825 -1.5482 -0.3719
  665MOL0     H89723  10.316   5.139   8.241  0.6234  0.6407 -0.9928
  665MOL0     H89724  10.508   5.058   8.451  0.3549  0.4459 -0.5097
  665MOL0     H89725  10.521   5.030   8.281  2.2456  2.4691  0.5318
  665MOL0     H89726  10.426   4.820   8.563 -1.2629 -0.9905  1.0421
  665MOL0     H89727  10.322   4.561   8.534  0.6891  0.6925  0.5358
  665MOL0     H89728  10.229   4.674   8.631 -3.1839 -3.3206 -0.2868
  665MOL0     H89729  10.104   4.537   8.392  3.0026 -0.5600  0.2740
  665MOL0     H89730  10.021   4.632   8.518 -1.6612 -0.6676 -2.3483
  665MOL0     H89731  10.092   4.480   8.699 -0.0871  0.7924  0.1220
  665MOL0     H89732  10.185   4.386   8.569  0.9810  2.1066  1.2006
  665MOL0     H89733   9.931   4.365   8.487  0.0473  5.0324  0.7384
  665MOL0     H89734   9.891   4.398   8.650 -0.1379 -0.4079 -1.1440
  665MOL0     H89735   9.727   4.267   8.614 -2.6808 -0.5037 -0.1786
  665MOL0     H89736   9.522   4.209   8.644  0.6014 -1.1251  1.1696
  665MOL0     H89737   9.503   4.117   8.500  0.5242 -1.4356 -0.1015
  665MOL0     H89738   9.439   4.046   8.638 -2.0894  3.1599  0.1731
  665MOL0     H89739   9.379   3.653   8.621  2.6202  1.7068 -0.1892
  665MOL0     H89740   9.264   3.437   8.632 -0.1838 -2.0370 -0.3030
  665MOL0     H89741   9.197   3.238   8.738 -0.4714  2.6385 -2.6636
  665MOL0     H89742   9.214   3.202   8.579  2.1590  2.9577 -0.5901
  665MOL0     H89743   9.131   2.998   8.730  0.9133 -0.3352  1.8890
  665MOL0     H89744   9.277   2.960   8.641  0.8507  1.5965 -1.3224
  665MOL0     H89745   9.410   2.981   8.843 -0.4189 -3.7698 -3.1296
  665MOL0     H89746   9.266   2.892   8.885  0.1441 -0.1113 -1.7218
  665MOL0     H89747   9.281   3.185   8.958  1.2899 -0.0324  1.9870
  665MOL0     H89748   9.141   3.069   8.966 -0.6632  1.0917 -0.3147
  665MOL0     H89749   9.422   3.044   9.092  0.6157  1.7184 -0.2603
  665MOL0     H89750   9.294   2.925   9.113  2.1579 -0.1408  0.5294
  665MOL0     H89751   9.302   3.220   9.212  2.0965 -0.9621 -1.2643
  665MOL0     H89752   9.147   3.118   9.219  0.0606 -1.9352  0.9966
  665MOL0     H89753   9.405   3.064   9.368  0.9909  0.4270 -0.6524
  665MOL0     H89754   9.250   2.989   9.396  1.6417 -1.3282 -0.4430
  665MOL0     H89755   9.168   3.238   9.453 -0.0903  0.7436  0.3464
  665MOL0     H89756   9.343   3.278   9.459  0.8214  0.0524  2.7766
  665MOL0     H89757   9.650   3.241   8.643  0.5003  0.1422 -1.0740
  665MOL0     H89758   9.750   3.467   8.659  0.0366  3.4441  0.8513
  665MOL0     H89759   9.885   3.801   8.614  2.1609  1.1687 -2.1000
  665MOL0     H89760  10.040   3.973   8.624 -0.7270 -2.8984 -0.6370
  665MOL0     H89761  10.365   6.049   8.348 -1.7758 -2.1434 -4.9185
  665MOL0     H89762  10.345   6.302   8.325 -0.1301 -0.2948  0.5603
  665MOL0     H89763  10.362   6.721   8.119 -0.6495 -0.0698 -0.1058
  665MOL0     H89764  10.370   6.953   8.191  1.8428 -1.9528 -0.7355
  665MOL0     H89765  10.375   7.042   8.482 -1.1195 -2.8342 -1.9738
  665MOL0     H89766  10.405   7.144   8.343 -1.8816  0.8438  0.8840
  665MOL0     H89767  10.382   7.239   8.576 -0.3978 -1.6602 -0.0396
  665MOL0     H89768  10.207   7.223   8.565 -0.8320  1.3751 -1.3975
  665MOL0     H89769  10.186   7.360   8.379 -2.8017 -1.5335  3.1621
  665MOL0     H89770  10.352   7.392   8.352 -1.8061  0.9371 -1.2287
  665MOL0     H89771  10.245   7.445   8.636  1.5897 -1.3846  0.1429
  665MOL0     H89772  10.187   7.542   8.500  2.4932  2.4172 -0.5834
  665MOL0     H89773  10.596   7.653   8.550 -0.5135  0.2477 -0.4567
  665MOL0     H89774  10.040   6.885   8.440  0.9174 -2.2919  3.4051
  665MOL0     H89775  10.035   6.656   8.386  0.4060 -1.2032 -0.5209
  666MOL0     O89776   0.342   7.857   7.072 -0.9284 -0.0518  0.7755
  666MOL0     C89777   0.242   7.919   7.031 -0.3654  0.2608  0.6377
  666MOL0     O89778   0.126   7.854   6.986 -0.0204  0.4983 -0.1202
  666MOL0     C89779   0.111   7.718   7.019 -1.1023 -0.1757  0.2574
  666MOL0     C89780   0.135   7.674   7.158  0.2799 -1.2302  0.7518
  666MOL0     C89781   0.159   7.540   7.181  0.4917  0.4530 -0.4412
  666MOL0     C89782   0.135   7.448   7.068  0.6496  0.8816 -0.4067
  666MOL0     O89783   0.123   7.320   7.122 -0.8748 -1.1387  0.8242
  666MOL0     C89784   0.139   7.213   7.028 -0.0998  0.9533 -0.1629
  666MOL0     C89785   0.151   7.076   7.099 -0.0295  0.1721  0.2712
  666MOL0     C89786   0.145   6.953   7.009  0.2632 -0.2827  0.7213
  666MOL0     C89787   0.166   6.824   7.082  0.3357 -0.3284  0.2599
  666MOL0     C89788   0.148   6.720   6.973 -0.4436  0.7326  0.5746
  666MOL0     C89789   0.165   6.589   7.045  1.7697 -0.4389  0.2163
  666MOL0     C89790   0.123   6.455   6.965  0.1849 -0.1371 -0.3047
  666MOL0     C89791   0.015   6.464   6.859  0.4137 -0.3279 -0.2861
  666MOL0     N89792  -0.016   6.328   6.813 -1.0526  0.6724 -0.8448
  666MOL0     C89793  -0.140   6.280   6.811 -0.2072 -0.0227  0.8757
  666MOL0     C89794  -0.127   6.152   6.764 -0.0808  0.2869  1.1153
  666MOL0     C89795  -0.253   6.058   6.750  0.6914  0.0761  0.2837
  666MOL0     C89796  -0.203   5.919   6.799 -0.5353 -0.2727  0.9231
  666MOL0     C89797  -0.317   5.815   6.835 -0.0075  0.1018  0.1646
  666MOL0     C89798  -0.421   5.786   6.724 -0.1957 -0.0491 -0.6165
  666MOL0     O89799  -0.354   5.747   6.598 -0.3760 -0.4965  0.0028
  666MOL0     C89800  -0.395   5.626   6.542  0.6179  0.4928 -0.3827
  666MOL0     C89801  -0.526   5.578   6.533  0.1695 -0.6996  0.2749
  666MOL0     C89802  -0.547   5.451   6.476 -0.4064 -0.6446 -0.3371
  666MOL0     C89803  -0.697   5.410   6.465 -1.0274 -0.4170 -0.6469
  666MOL0     C89804  -0.435   5.368   6.430 -0.7669  0.9138 -0.1453
  666MOL0     C89805  -0.444   5.232   6.374  0.9578  0.0398  0.2878
  666MOL0     O89806  -0.329   5.159   6.350  0.1220  0.4796  0.0456
  666MOL0     C89807  -0.346   5.037   6.300  0.6587  0.6119  0.9559
  666MOL0     C89808  -0.276   5.023   6.180 -0.7335  0.3933 -1.3556
  666MOL0     C89809  -0.271   4.906   6.109 -0.0479  0.6229 -1.3712
  666MOL0     C89810  -0.335   4.795   6.164 -0.0060  0.5839  0.8892
  666MOL0     O89811  -0.337   4.679   6.086  0.3636  0.1739 -0.0635
  666MOL0     C89812  -0.354   4.557   6.154 -0.6821 -0.4036 -0.4058
  666MOL0     C89813  -0.394   4.463   6.050  0.5992 -0.0510  0.3807
  666MOL0     C89814  -0.288   4.442   5.940  0.6683 -0.1787  0.2845
  666MOL0     C89815  -0.352   4.345   5.833 -0.6244  0.6754  0.4251
  666MOL0     C89816  -0.259   4.269   5.735  0.8116 -0.8617 -0.1808
  666MOL0     C89817  -0.193   4.353   5.627  0.5583 -0.0106 -0.6389
  666MOL0     C89818  -0.141   4.267   5.517  0.1115 -0.0397  0.1611
  666MOL0     C89819  -0.041   4.160   5.572  0.4790 -0.1067  0.0131
  666MOL0    Cl89820   0.084   4.210   5.694 -0.9325 -0.8536  0.3994
  666MOL0     C89821  -0.407   4.808   6.284  0.5404 -0.1742 -0.8531
  666MOL0     C89822  -0.409   4.927   6.360 -0.2960  0.2707 -0.4884
  666MOL0     O89823  -0.562   5.201   6.339  0.0610 -0.0405 -0.6091
  666MOL0     C89824  -0.309   5.433   6.419  0.0033 -0.4472  0.1710
  666MOL0     C89825  -0.287   5.561   6.478 -0.7749 -0.3996  0.8727
  666MOL0     N89826   0.012   6.121   6.753  0.4870  0.5272  0.2493
  666MOL0     N89827   0.079   6.232   6.781 -0.8436  0.4362 -0.3878
  666MOL0     C89828   0.109   7.486   6.933 -0.1333  1.3164  0.2028
  666MOL0     C89829   0.096   7.624   6.914  1.2206 -0.6163 -0.2489
  666MOL0     C89830   0.267   8.066   7.002 -0.0884 -0.5382  0.5277
  666MOL0     C89831   0.388   8.127   7.010  0.8833  0.6483 -0.8156
  666MOL0     C89832   0.403   8.255   6.967  0.3574 -0.8335  0.2877
  666MOL0     C89833   0.292   8.323   6.907 -0.4822 -0.2513  0.1554
  666MOL0     O89834   0.311   8.448   6.858 -0.1857 -0.1905 -0.3944
  666MOL0     C89835   0.266   8.436   6.718  0.1118 -0.6165 -0.1076
  666MOL0     C89836   0.146   8.533   6.694 -0.4008 -0.2208 -0.8505
  666MOL0     C89837   0.110   8.541   6.539  0.0885  0.5505 -0.0697
  666MOL0     C89838   0.219   8.617   6.454 -0.0529  0.1928 -0.5078
  666MOL0     C89839   0.174   8.658   6.326  0.0819  0.1326  0.1817
  666MOL0     C89840   0.139   8.687   6.212  0.6191 -0.6179 -0.0502
  666MOL0     C89841   0.170   8.270   6.919  0.7596 -0.2996 -0.2322
  666MOL0     C89842   0.161   8.143   6.960  0.7717  0.4050 -0.4035
  666MOL0     H89843   0.165   7.753   7.227  0.6837 -1.3931  0.7678
  666MOL0     H89844   0.181   7.491   7.274 -3.9241 -1.1608  0.0096
  666MOL0     H89845   0.045   7.213   6.973 -0.1729  3.7863 -0.1738
  666MOL0     H89846   0.230   7.241   6.973  1.3249  1.3033  2.2008
  666MOL0     H89847   0.244   7.078   7.155  0.6320  1.5287 -0.8118
  666MOL0     H89848   0.072   7.054   7.172  0.4338 -1.9012  0.2115
  666MOL0     H89849   0.049   6.956   6.956 -0.1599  2.4020  1.4874
  666MOL0     H89850   0.221   6.979   6.935  1.3314  2.5910  2.6165
  666MOL0     H89851   0.268   6.800   7.115  1.7029 -2.0987 -4.4062
  666MOL0     H89852   0.096   6.806   7.164 -0.8873  1.6945 -0.2682
  666MOL0     H89853   0.049   6.719   6.925 -0.3917 -2.5607  0.3327
  666MOL0     H89854   0.232   6.734   6.905  1.2201 -2.1838  1.8363
  666MOL0     H89855   0.270   6.575   7.071  1.8428  0.4135  0.3857
  666MOL0     H89856   0.105   6.586   7.136 -0.8851  0.0723 -1.3951
  666MOL0     H89857   0.210   6.432   6.902 -2.0643 -1.3084 -3.2401
  666MOL0     H89858   0.108   6.377   7.040  1.0858 -0.2061 -0.1815
  666MOL0     H89859   0.048   6.529   6.777 -2.0673 -1.6648 -2.5035
  666MOL0     H89860  -0.081   6.505   6.891  0.2110 -0.5191 -0.6350
  666MOL0     H89861  -0.230   6.327   6.847  0.4654 -0.9596  4.1911
  666MOL0     H89862  -0.345   6.089   6.801 -0.1017 -1.7925  0.0830
  666MOL0     H89863  -0.288   6.051   6.647 -0.1953  0.8732  0.5172
  666MOL0     H89864  -0.142   5.939   6.888  0.6575  3.1583 -0.5091
  666MOL0     H89865  -0.138   5.878   6.721  2.0520  1.9632  1.7509
  666MOL0     H89866  -0.371   5.831   6.929 -0.6724 -1.9747  0.1655
  666MOL0     H89867  -0.278   5.715   6.856  1.2163  0.1584 -1.5738
  666MOL0     H89868  -0.476   5.880   6.724 -1.2198 -0.5458  2.0269
  666MOL0     H89869  -0.498   5.717   6.761 -2.7612  4.0364  2.5824
  666MOL0     H89870  -0.600   5.651   6.561  1.7513 -0.2922  3.9638
  666MOL0     H89871  -0.727   5.414   6.360 -0.4726  1.5385 -0.7754
  666MOL0     H89872  -0.722   5.308   6.497 -1.3329  0.0780  0.7784
  666MOL0     H89873  -0.765   5.471   6.525  0.5278  1.7014 -0.9147
  666MOL0     H89874  -0.231   5.111   6.134 -1.7618  1.2120 -0.8247
  666MOL0     H89875  -0.228   4.896   6.010 -0.3317  0.3282 -1.4661
  666MOL0     H89876  -0.261   4.524   6.201 -0.6718 -1.4128 -1.0932
  666MOL0     H89877  -0.427   4.558   6.235  0.7735  1.0858  0.9625
  666MOL0     H89878  -0.425   4.369   6.097  0.9961 -0.3663  0.0203
  666MOL0     H89879  -0.482   4.514   6.010  1.4938 -0.1397 -1.8288
  666MOL0     H89880  -0.197   4.408   5.990  0.9821  2.7403  1.9249
  666MOL0     H89881  -0.259   4.533   5.887  0.6395 -0.8465 -0.9162
  666MOL0     H89882  -0.420   4.275   5.884  0.7751  0.5890  2.2935
  666MOL0     H89883  -0.426   4.395   5.770  0.8355  0.6023 -1.4332
  666MOL0     H89884  -0.312   4.179   5.702 -1.4199  0.4924 -0.5043
  666MOL0     H89885  -0.178   4.235   5.801  2.0976  1.8196 -0.2651
  666MOL0     H89886  -0.263   4.426   5.583 -1.3528 -0.3658  1.5918
  666MOL0     H89887  -0.118   4.412   5.679 -0.2954  0.2299  0.3546
  666MOL0     H89888  -0.092   4.327   5.440  0.7282  0.5905  1.0145
  666MOL0     H89889  -0.223   4.213   5.469  1.2915 -1.4138 -0.4067
  666MOL0     H89890  -0.001   4.117   5.480 -0.0790 -0.1639 -0.2056
  666MOL0     H89891  -0.091   4.080   5.627 -1.5045  1.7789  1.0874
  666MOL0     H89892  -0.476   4.728   6.306  1.6667 -1.1825 -0.8460
  666MOL0     H89893  -0.450   4.945   6.459  3.0476  1.6210  0.7726
  666MOL0     H89894  -0.228   5.383   6.367  1.6538  1.9223  0.3178
  666MOL0     H89895  -0.188   5.604   6.483  0.3592 -2.6247 -0.6446
  666MOL0     H89896   0.092   7.418   6.850  2.6521 -1.6696  1.8468
  666MOL0     H89897   0.080   7.656   6.812 -1.2712 -2.0198 -0.3789
  666MOL0     H89898   0.474   8.079   7.055  1.6809  1.5927 -1.2721
  666MOL0     H89899   0.496   8.310   6.966 -1.3829  2.3641 -0.6270
  666MOL0     H89900   0.348   8.465   6.651  1.2655 -0.1000  1.4593
  666MOL0     H89901   0.246   8.336   6.678  0.7262 -1.9750  2.6922
  666MOL0     H89902   0.154   8.636   6.731 -1.7755  0.1903 -1.6201
  666MOL0     H89903   0.059   8.499   6.750  0.2308 -1.5867 -0.6563
  666MOL0     H89904   0.015   8.595   6.534  0.5597  1.6553  1.8156
  666MOL0     H89905   0.110   8.445   6.487  1.1896  0.5007  0.0091
  666MOL0     H89906   0.310   8.558   6.457  0.1514  0.5383  0.6614
  666MOL0     H89907   0.247   8.707   6.510 -0.0594  0.0376 -0.2548
  666MOL0     H89908   0.103   8.707   6.113  0.3477 -1.1169 -0.0588
  666MOL0     H89909   0.085   8.323   6.879 -0.9883 -0.8461  2.4905
  666MOL0     H89910   0.062   8.098   6.957  0.7551  0.1622  1.9290
  667MOL0     O89911   1.511   8.370   2.159 -0.9419  0.6547 -0.5223
  667MOL0     C89912   1.432   8.272   2.154  0.2201 -0.4231 -0.8239
  667MOL0     O89913   1.410   8.192   2.047 -0.6659 -0.4093  0.2372
  667MOL0     C89914   1.490   8.231   1.936  0.5300  0.0127 -0.8767
  667MOL0     C89915   1.469   8.348   1.863 -0.0684  0.1073 -0.5661
  667MOL0     C89916   1.563   8.391   1.771 -0.3233 -0.1472  0.3234
  667MOL0     C89917   1.695   8.330   1.766 -0.4115  0.3115  1.0324
  667MOL0     O89918   1.801   8.372   1.690  0.6941  0.5199  0.0004
  667MOL0     C89919   1.786   8.474   1.603 -0.5968 -0.5875  0.0302
  667MOL0     C89920   1.902   8.484   1.491 -0.5545 -0.2368 -0.1852
  667MOL0     C89921   2.039   8.496   1.553 -0.3442 -0.5764 -0.1335
  667MOL0     C89922   2.145   8.526   1.444 -0.2038  1.1248  0.1413
  667MOL0     C89923   2.276   8.560   1.508 -0.2908  0.3431 -0.0332
  667MOL0     C89924   2.373   8.623   1.409 -0.6739 -0.5150 -0.1807
  667MOL0     C89925   2.423   8.535   1.288 -0.0913 -0.2412 -1.0207
  667MOL0     C89926   2.505   8.422   1.343  0.7217 -0.5546 -0.4154
  667MOL0     N89927   2.642   8.447   1.397 -0.1631 -1.0069  0.1284
  667MOL0     C89928   2.749   8.430   1.309  0.2940  0.3357  0.2255
  667MOL0     C89929   2.857   8.492   1.370 -0.1432 -0.5253  0.2912
  667MOL0     C89930   3.005   8.488   1.313  0.0997 -0.2223  0.0997
  667MOL0     C89931   3.091   8.590   1.368  0.6016  0.3647 -0.0647
  667MOL0     C89932   3.237   8.579   1.329 -1.2913 -0.2425 -0.2117
  667MOL0     C89933   3.262   8.582   1.186 -1.0740 -0.0364  0.0266
  667MOL0     O89934   3.207   8.693   1.110 -0.5226  0.2684  0.4064
  667MOL0     C89935   3.254   8.717   0.978  0.1803  0.0506  0.3212
  667MOL0     C89936   3.338   8.621   0.909 -0.4260 -0.1201 -0.4833
  667MOL0     C89937   3.396   8.648   0.786 -0.1038 -0.5111 -0.8360
  667MOL0     C89938   3.484   8.530   0.734  0.3492 -0.5712  0.3420
  667MOL0     C89939   3.376   8.772   0.727 -0.0415  0.3931  2.0015
  667MOL0     C89940   3.452   8.805   0.601  0.0214 -0.0568  0.1020
  667MOL0     O89941   3.379   8.895   0.519 -0.3979 -0.6336 -0.1161
  667MOL0     C89942   3.426   8.931   0.391  0.1152  0.0928  0.5892
  667MOL0     C89943   3.435   8.835   0.292  0.0606  0.2862 -1.1387
  667MOL0     C89944   3.475   8.868   0.164  0.4693  0.0754  1.0975
  667MOL0     C89945   3.512   9.000   0.142 -0.0890 -0.1269 -0.6862
  667MOL0     O89946   3.553   9.051   0.025 -0.8629  0.2415 -0.1676
  667MOL0     C89947   3.523   8.976  -0.095 -0.2096  0.0003 -1.0438
  667MOL0     C89948   3.555   9.060  -0.224  0.6451 -0.2552 -0.1284
  667MOL0     C89949   3.512   8.977  -0.353  0.3555  0.3737 -0.2165
  667MOL0     C89950   3.550   9.039  -0.479  0.2831 -0.1798  0.3786
  667MOL0     C89951   3.560   8.951  -0.603 -0.4537  0.6803  0.2977
  667MOL0     C89952   3.635   9.014  -0.727  0.6001 -0.1979 -0.1444
  667MOL0     C89953   3.569   8.979  -0.862 -0.2658 -0.7500  0.3268
  667MOL0     C89954   3.653   9.049  -0.962  0.3620 -0.7679  0.1018
  667MOL0    Cl89955   3.611   9.036  -1.135 -0.2524  0.1726 -0.1331
  667MOL0     C89956   3.516   9.092   0.242  0.2565 -0.3150  0.1128
  667MOL0     C89957   3.463   9.068   0.366  0.1677 -0.1368  0.2300
  667MOL0     O89958   3.563   8.763   0.577 -0.3659 -0.3164 -0.1292
  667MOL0     C89959   3.290   8.864   0.788 -0.1378 -0.4816 -0.7728
  667MOL0     C89960   3.228   8.838   0.915 -0.9015  0.4865  0.0675
  667MOL0     N89961   2.803   8.552   1.487  0.2439 -0.4066  0.3879
  667MOL0     N89962   2.676   8.531   1.500  0.8323  0.4381  0.2564
  667MOL0     C89963   1.702   8.206   1.834 -0.1145  0.6179  0.5496
  667MOL0     C89964   1.605   8.159   1.917  1.0904  0.4754  0.4534
  667MOL0     C89965   1.354   8.251   2.277  0.3631 -0.4138  0.3719
  667MOL0     C89966   1.343   8.339   2.387 -0.4604  0.4192 -0.3662
  667MOL0     C89967   1.242   8.317   2.487 -0.3378 -1.2803 -0.8537
  667MOL0     C89968   1.160   8.209   2.491  0.8420  1.1723 -0.5160
  667MOL0     O89969   1.059   8.186   2.594 -0.3987 -0.7905  0.6425
  667MOL0     C89970   0.946   8.261   2.559 -0.2473 -0.7780 -0.0357
  667MOL0     C89971   0.855   8.197   2.460  0.5527 -0.3660  0.5172
  667MOL0     C89972   0.728   8.277   2.440  0.1696  0.2026 -0.1029
  667MOL0     C89973   0.612   8.198   2.371  0.8534 -0.4170  0.3396
  667MOL0     C89974   0.570   8.089   2.452 -0.5987 -0.3468 -0.4766
  667MOL0     C89975   0.544   7.999   2.521 -0.0318  0.3998  0.0287
  667MOL0     C89976   1.185   8.114   2.390 -0.4233 -0.4743 -0.3838
  667MOL0     C89977   1.280   8.132   2.284  0.1540  0.4145 -1.6850
  667MOL0     H89978   1.377   8.404   1.875  0.3503  0.8278 -0.6832
  667MOL0     H89979   1.528   8.464   1.698 -2.3285 -0.6756  0.7055
  667MOL0     H89980   1.696   8.474   1.540  0.7526  1.8795 -2.1119
  667MOL0     H89981   1.784   8.569   1.656  3.8145  0.8114 -1.8143
  667MOL0     H89982   1.901   8.390   1.436 -0.1573 -0.1431 -0.3512
  667MOL0     H89983   1.876   8.562   1.418 -2.6369 -1.1611 -0.5010
  667MOL0     H89984   2.052   8.581   1.622  1.9292  1.6291 -3.0057
  667MOL0     H89985   2.067   8.405   1.606 -0.4833  0.1389  1.2264
  667MOL0     H89986   2.157   8.434   1.386  0.5342 -0.0603  2.0879
  667MOL0     H89987   2.117   8.617   1.390  0.6562  1.8644  0.8997
  667MOL0     H89988   2.260   8.631   1.589 -5.2454  0.6847 -0.9858
  667MOL0     H89989   2.323   8.473   1.556  2.6008  1.4649 -0.6070
  667MOL0     H89990   2.323   8.704   1.354  2.9153  4.0149  2.5236
  667MOL0     H89991   2.458   8.661   1.466 -0.5644  0.1166 -0.7526
  667MOL0     H89992   2.345   8.501   1.219 -0.3973 -3.3335  0.6698
  667MOL0     H89993   2.491   8.597   1.228  0.0233 -0.0162 -0.6603
  667MOL0     H89994   2.505   8.353   1.258 -3.2145  0.5021 -1.4750
  667MOL0     H89995   2.459   8.360   1.420  1.8241 -3.3230 -1.8138
  667MOL0     H89996   2.753   8.365   1.221  0.6846 -0.0970  0.5603
  667MOL0     H89997   3.054   8.391   1.326 -0.4544 -0.4224  0.7564
  667MOL0     H89998   2.987   8.500   1.206 -0.4771 -3.5657 -0.2871
  667MOL0     H89999   3.095   8.584   1.477 -0.8845  0.0751 -0.0117
  667MOL0     H90000   3.050   8.689   1.350  3.5558  2.1887  2.3172
  667MOL0     H90001   3.280   8.490   1.375 -2.4305 -1.5895 -1.6063
  667MOL0     H90002   3.283   8.670   1.369 -1.7933 -1.2223  2.8561
  667MOL0     H90003   3.226   8.486   1.149  2.2965 -0.4712 -2.6598
  667MOL0     H90004   3.370   8.580   1.165 -0.7600  4.2389  0.3224
  667MOL0     H90005   3.358   8.520   0.943 -0.1161 -0.6768 -2.2406
  667MOL0     H90006   3.455   8.517   0.630 -2.1547 -0.9616  1.0166
  667MOL0     H90007   3.588   8.564   0.738  0.2172 -0.2866  2.0831
  667MOL0     H90008   3.485   8.432   0.784 -2.9155 -1.9251 -1.8949
  667MOL0     H90009   3.413   8.731   0.317  1.5340 -0.7063 -3.6497
  667MOL0     H90010   3.486   8.789   0.091 -3.0314  0.3807  0.0518
  667MOL0     H90011   3.594   8.893  -0.085  0.0580  0.5291  4.2534
  667MOL0     H90012   3.419   8.945  -0.095 -0.7065  1.5528 -0.5751
  667MOL0     H90013   3.499   9.152  -0.207  0.0568 -0.3866 -1.2406
  667MOL0     H90014   3.663   9.073  -0.237  1.2916 -4.7393 -1.1376
  667MOL0     H90015   3.404   8.962  -0.357  0.3830  0.4384 -1.4687
  667MOL0     H90016   3.547   8.874  -0.343 -3.4424 -1.1126 -0.7043
  667MOL0     H90017   3.490   9.126  -0.506 -1.0937 -1.1217  0.2948
  667MOL0     H90018   3.654   9.063  -0.455  0.5226  2.5041 -2.7513
  667MOL0     H90019   3.458   8.914  -0.621  0.1796  0.4618 -3.6619
  667MOL0     H90020   3.620   8.866  -0.570  3.8151  3.9851  1.9614
  667MOL0     H90021   3.647   9.120  -0.706 -2.6814 -0.0604  1.6147
  667MOL0     H90022   3.737   8.974  -0.727  0.0465 -1.7491  1.6671
  667MOL0     H90023   3.467   9.018  -0.863  0.2988  1.2103  3.6776
  667MOL0     H90024   3.588   8.878  -0.901  2.9068  0.5325 -1.8738
  667MOL0     H90025   3.758   9.022  -0.948  0.1672 -1.5913  0.0002
  667MOL0     H90026   3.664   9.154  -0.933  4.7173  0.1588 -3.7644
  667MOL0     H90027   3.551   9.192   0.215  0.7091 -1.1940 -2.8907
  667MOL0     H90028   3.456   9.136   0.450  0.1280 -1.0179  0.9588
  667MOL0     H90029   3.256   8.957   0.743  0.3088 -0.1975 -0.5301
  667MOL0     H90030   3.164   8.906   0.970 -0.8409 -0.2628  1.0825
  667MOL0     H90031   1.792   8.146   1.823  0.8147  1.3729  3.2430
  667MOL0     H90032   1.624   8.066   1.969  2.0234 -0.2670 -1.1264
  667MOL0     H90033   1.383   8.440   2.382 -3.8387  1.8194 -2.0970
  667MOL0     H90034   1.234   8.392   2.565  3.2947 -1.7177  0.1462
  667MOL0     H90035   0.902   8.284   2.657 -1.2658 -1.5000 -0.3086
  667MOL0     H90036   0.983   8.354   2.516 -1.0694 -0.4416 -0.0266
  667MOL0     H90037   0.838   8.096   2.496  0.5642 -0.5945 -0.1067
  667MOL0     H90038   0.910   8.191   2.365  0.1281  1.6613  0.0883
  667MOL0     H90039   0.757   8.358   2.372  0.6721 -1.6643 -2.2172
  667MOL0     H90040   0.689   8.315   2.535 -0.6255 -0.8494  0.0109
  667MOL0     H90041   0.625   8.179   2.264  0.1559  2.8706 -0.4279
  667MOL0     H90042   0.524   8.263   2.364  1.7816  0.9107  0.7658
  667MOL0     H90043   0.519   7.919   2.587  0.2550 -0.7452 -1.2282
  667MOL0     H90044   1.154   8.010   2.399  1.8026 -1.2914 -1.4036
  667MOL0     H90045   1.306   8.046   2.224 -2.5291 -1.9467  0.2528
  668MOL0     O90046  10.782  10.394   8.800 -1.1588 -0.6743 -0.5905
  668MOL0     C90047  10.660  10.370   8.808  0.0719 -0.2818  0.4325
  668MOL0     O90048  10.585  10.349   8.704  0.8306  0.4023  0.1092
  668MOL0     C90049  10.643  10.362   8.584  0.6003  0.3089  0.8629
  668MOL0     C90050  10.589  10.452   8.493  0.0929 -0.0589  0.1353
  668MOL0     C90051  10.632  10.454   8.360  0.5888 -0.1580 -0.4441
  668MOL0     C90052  10.728  10.354   8.323  1.0286  1.1146  0.6893
  668MOL0     O90053  10.786  10.339   8.194  1.1852  0.4675  0.1074
  668MOL0     C90054  10.777  10.444   8.100  0.3054 -0.1832  0.0086
  668MOL0     C90055  10.835  10.401   7.968  0.0221 -0.2337 -0.3805
  668MOL0     C90056  10.776  10.484   7.850 -0.0133  0.1742 -0.7442
  668MOL0     C90057  10.863  10.472   7.732 -0.4927  0.6067  0.0502
  668MOL0     C90058  10.803  10.535   7.610 -0.1593 -0.2831 -0.1599
  668MOL0     C90059  10.873  10.483   7.485 -0.3196  0.4342 -0.5210
  668MOL0     C90060  10.798  10.542   7.365  0.2077  0.1945 -0.2071
  668MOL0     C90061  10.886  10.545   7.243 -0.2767 -0.3610 -0.2425
  668MOL0     N90062  10.939  10.408   7.215 -0.4947 -1.3592 -0.3462
  668MOL0     C90063  11.051  10.355   7.270  0.9499 -0.5758  0.4694
  668MOL0     C90064  11.070  10.238   7.207 -0.0255 -0.0794 -1.0396
  668MOL0     C90065  11.169  10.141   7.244  0.3515  1.2735 -0.1777
  668MOL0     C90066  11.315  10.170   7.189 -0.3176 -0.6528 -0.5380
  668MOL0     C90067  11.400  10.046   7.220 -0.3435  0.0368 -0.1938
  668MOL0     C90068  11.548  10.091   7.230  0.1603  0.0695  0.5118
  668MOL0     O90069  11.569  10.184   7.336 -0.2528  0.2782 -0.5667
  668MOL0     C90070  11.676  10.268   7.312 -0.3725 -0.0260  0.0924
  668MOL0     C90071  11.691  10.368   7.410  0.3934  0.6319 -0.4781
  668MOL0     C90072  11.813  10.436   7.433  0.3498 -0.8009 -0.2153
  668MOL0     C90073  11.820  10.527   7.548  0.0217 -0.3946 -0.5142
  668MOL0     C90074  11.914  10.411   7.338 -0.1011 -0.4744  0.1913
  668MOL0     C90075  12.041  10.483   7.326 -0.4904  0.0323 -0.0890
  668MOL0     O90076  12.098  10.527   7.443  0.5784 -0.0797 -0.2017
  668MOL0     C90077  12.190  10.631   7.467 -1.0295  0.3307 -1.1352
  668MOL0     C90078  12.246  10.713   7.364  0.2742  0.7122 -0.7866
  668MOL0     C90079  12.349  10.801   7.397  0.4706  0.4826  0.0823
  668MOL0     C90080  12.370  10.838   7.530  0.7001 -0.3966 -1.2208
  668MOL0     O90081  12.458  10.938   7.546  0.2215  0.3790  0.0705
  668MOL0     C90082  12.507  10.968   7.678  0.2817 -0.3238 -0.6946
  668MOL0     C90083  12.583  11.107   7.682 -0.1932  0.3152 -0.1260
  668MOL0     C90084  12.704  11.111   7.586 -0.9855 -0.2294  0.1435
  668MOL0     C90085  12.791  11.239   7.605  0.4444 -0.0150  0.2490
  668MOL0     C90086  12.895  11.224   7.719  0.1346 -0.5227  0.2902
  668MOL0     C90087  12.976  11.354   7.723 -0.1113 -0.7568 -0.0203
  668MOL0     C90088  13.068  11.342   7.850 -0.5021  0.6742 -0.2723
  668MOL0     C90089  13.103  11.469   7.929 -0.6243 -1.8249  0.5811
  668MOL0    Cl90090  12.951  11.522   8.014 -0.1532  0.5356  0.1128
  668MOL0     C90091  12.302  10.773   7.633  0.3112  0.0539  0.3353
  668MOL0     C90092  12.225  10.657   7.600 -0.4259  0.5314  0.6464
  668MOL0     O90093  12.090  10.506   7.215  0.3045 -0.2158  0.7572
  668MOL0     C90094  11.892  10.312   7.240 -0.0257 -0.5236  0.3276
  668MOL0     C90095  11.775  10.242   7.223  0.0398 -0.3730  0.7348
  668MOL0     N90096  10.973  10.227   7.114 -0.0850 -0.3819 -0.2884
  668MOL0     N90097  10.910  10.333   7.108  0.3516  0.7225  0.2360
  668MOL0     C90098  10.787  10.271   8.415  0.6268  0.0835  0.2193
  668MOL0     C90099  10.748  10.272   8.545 -0.5025 -0.2248 -0.4137
  668MOL0     C90100  10.598  10.397   8.937 -0.5672  0.1641 -0.4228
  668MOL0     C90101  10.661  10.394   9.058  0.3794 -0.1621 -0.0017
  668MOL0     C90102  10.607  10.427   9.175  0.7200 -0.5449 -0.3968
  668MOL0     C90103  10.469  10.456   9.176 -0.3411 -0.0986  0.0115
  668MOL0     O90104  10.421  10.485   9.302  0.7150  0.1181  0.6899
  668MOL0     C90105  10.287  10.512   9.335 -0.4842  0.4183  0.3262
  668MOL0     C90106  10.294  10.647   9.405  0.0907  0.8525 -0.1944
  668MOL0     C90107  10.154  10.707   9.437 -0.2376  0.6423  0.2889
  668MOL0     C90108  10.149  10.837   9.529  0.4067  1.2623 -0.5933
  668MOL0     C90109  10.199  10.805   9.669 -0.6380  0.0049  0.3401
  668MOL0     C90110  10.242  10.782   9.775  0.1928  1.8055  0.2614
  668MOL0     C90111  10.393  10.465   9.058 -0.6350  0.7320  0.3214
  668MOL0     C90112  10.464  10.433   8.941 -0.5825  0.1641  0.3017
  668MOL0     H90113  10.519  10.531   8.517  3.2031  2.9226  0.0653
  668MOL0     H90114  10.611  10.530   8.285 -0.9114 -1.6192 -1.5736
  668MOL0     H90115  10.672  10.471   8.086  1.3238  3.1788 -2.4161
  668MOL0     H90116  10.828  10.530   8.143 -1.2340  0.8249 -0.1066
  668MOL0     H90117  10.943  10.410   7.958 -0.2672  2.7587 -2.1854
  668MOL0     H90118  10.823  10.293   7.956  2.4257 -0.4507 -1.2684
  668MOL0     H90119  10.681  10.434   7.827 -0.9193  1.0069  0.9809
  668MOL0     H90120  10.757  10.590   7.867  1.9459  0.5034 -0.4791
  668MOL0     H90121  10.955  10.528   7.746  1.2267 -1.9648 -0.2773
  668MOL0     H90122  10.902  10.371   7.714 -1.1949  0.6073 -1.7208
  668MOL0     H90123  10.699  10.504   7.606 -0.7990  1.6150  0.6912
  668MOL0     H90124  10.808  10.644   7.620  0.8031 -0.4848  2.0260
  668MOL0     H90125  10.977  10.518   7.478 -0.6416  2.0978  1.8496
  668MOL0     H90126  10.869  10.374   7.486 -0.1809  0.3736 -2.3151
  668MOL0     H90127  10.700  10.495   7.347  0.1360  1.1129 -2.6499
  668MOL0     H90128  10.760  10.642   7.385  0.0756  0.1658 -0.3092
  668MOL0     H90129  10.968  10.609   7.278 -1.8446 -0.3755  4.1304
  668MOL0     H90130  10.851  10.588   7.149  0.5903  0.3310 -0.2579
  668MOL0     H90131  11.106  10.406   7.348 -0.8995  0.0691  1.4110
  668MOL0     H90132  11.162  10.142   7.353 -1.2124 -2.3675 -0.1117
  668MOL0     H90133  11.130  10.046   7.209 -0.0643  1.4455 -0.1860
  668MOL0     H90134  11.356  10.261   7.233 -3.9485  1.0161 -0.2514
  668MOL0     H90135  11.314  10.187   7.081 -1.0463  0.3064 -0.3929
  668MOL0     H90136  11.399   9.971   7.141 -2.7917 -1.3385  1.0287
  668MOL0     H90137  11.373  10.005   7.318 -0.9610 -0.5413 -0.5959
  668MOL0     H90138  11.580  10.134   7.134 -1.5405  0.9630  0.2989
  668MOL0     H90139  11.610  10.001   7.235 -0.6666 -0.6480 -1.3066
  668MOL0     H90140  11.608  10.380   7.478 -0.2571 -0.2283 -1.1001
  668MOL0     H90141  11.840  10.467   7.637 -1.6258 -0.5913 -0.2388
  668MOL0     H90142  11.900  10.602   7.548  2.9386 -3.2687 -1.3570
  668MOL0     H90143  11.721  10.567   7.570  0.2816 -0.1051  0.1646
  668MOL0     H90144  12.227  10.692   7.259  2.1876 -0.7353 -0.9093
  668MOL0     H90145  12.403  10.858   7.322  3.6611  0.2536  2.0425
  668MOL0     H90146  12.420  10.979   7.743 -1.3354 -0.4232 -2.7326
  668MOL0     H90147  12.570  10.884   7.709 -1.8395 -1.4878  0.7292
  668MOL0     H90148  12.517  11.191   7.657 -0.0874  0.4248 -0.0437
  668MOL0     H90149  12.615  11.143   7.780  0.2170  4.1234 -1.4916
  668MOL0     H90150  12.665  11.107   7.484  2.0985 -1.3880 -1.0935
  668MOL0     H90151  12.763  11.020   7.597 -0.4034  0.1483  0.1593
  668MOL0     H90152  12.852  11.261   7.517  2.9496  3.7948  2.6148
  668MOL0     H90153  12.717  11.318   7.621 -0.9826 -0.4066 -3.3663
  668MOL0     H90154  12.957  11.135   7.709 -0.2655 -0.5271 -4.1045
  668MOL0     H90155  12.843  11.209   7.815  0.9347 -0.7663  0.6934
  668MOL0     H90156  13.041  11.375   7.637  0.6291 -0.0574  0.6903
  668MOL0     H90157  12.900  11.432   7.729 -0.0531 -0.6778 -0.2610
  668MOL0     H90158  13.161  11.302   7.807 -1.6469 -1.5445 -0.8406
  668MOL0     H90159  13.027  11.277   7.928  1.5777 -0.7731 -0.2887
  668MOL0     H90160  13.110  11.547   7.853 -0.0821 -0.5759  1.8707
  668MOL0     H90161  13.192  11.459   7.992  1.8749 -2.5726 -2.7946
  668MOL0     H90162  12.322  10.802   7.736  0.6452  0.2580  0.2143
  668MOL0     H90163  12.182  10.598   7.680  3.0169  2.2870  4.1227
  668MOL0     H90164  11.963  10.298   7.159  0.4927 -1.1490  0.8791
  668MOL0     H90165  11.778  10.169   7.142 -3.5237  1.9560 -1.8380
  668MOL0     H90166  10.849  10.189   8.381  2.6430  2.2331 -1.7118
  668MOL0     H90167  10.787  10.193   8.607 -0.5075 -0.4071 -0.6452
  668MOL0     H90168  10.768  10.378   9.060  0.2569 -1.0699  2.5111
  668MOL0     H90169  10.679  10.438   9.255  0.8847 -2.2774 -0.2847
  668MOL0     H90170  10.224  10.517   9.246 -0.9568 -0.7917  0.5599
  668MOL0     H90171  10.252  10.427   9.395  0.2611  0.7055  1.1918
  668MOL0     H90172  10.325  10.728   9.339 -1.6408 -1.3349 -4.0457
  668MOL0     H90173  10.371  10.634   9.481  0.6641  2.8838 -0.3817
  668MOL0     H90174  10.094  10.630   9.485 -0.5790  0.0285 -1.0727
  668MOL0     H90175  10.115  10.722   9.336 -0.2566  0.5359  0.2803
  668MOL0     H90176  10.041  10.855   9.540  0.6465  1.2537  2.9268
  668MOL0     H90177  10.194  10.925   9.482  1.2984  0.3314 -1.5397
  668MOL0     H90178  10.290  10.771   9.870  2.6285  1.7086 -0.8887
  668MOL0     H90179  10.296  10.512   9.058 -0.8772  0.2940 -1.4099
  668MOL0     H90180  10.402  10.442   8.852  1.6780 -1.3374 -1.5435
  669MOL0     O90181   6.571   1.043   8.265  0.7101  0.1716  1.0441
  669MOL0     C90182   6.510   1.070   8.363 -0.0473  1.2616 -0.0807
  669MOL0     O90183   6.576   1.110   8.481  0.8875 -0.1657  0.2881
  669MOL0     C90184   6.708   1.086   8.481  0.3672  0.2938  0.5216
  669MOL0     C90185   6.743   0.952   8.524  0.0568  0.9022 -0.3383
  669MOL0     C90186   6.882   0.924   8.530  0.2416 -0.6772 -0.5300
  669MOL0     C90187   6.973   1.024   8.495 -0.6049  0.7766  0.0548
  669MOL0     O90188   7.108   0.991   8.514  0.6348 -0.4943 -0.3313
  669MOL0     C90189   7.209   1.073   8.455 -0.5287  0.1594 -0.1921
  669MOL0     C90190   7.341   1.016   8.505 -0.6589  0.1601  0.4426
  669MOL0     C90191   7.452   1.071   8.407 -0.6187  0.9920 -0.0905
  669MOL0     C90192   7.591   1.072   8.473  0.3953  0.2429 -0.4169
  669MOL0     C90193   7.687   1.127   8.364  0.3678 -0.5666 -0.5313
  669MOL0     C90194   7.831   1.126   8.420  1.1266 -0.1080  0.0250
  669MOL0     C90195   7.895   0.998   8.450  0.6465  1.8872 -0.6872
  669MOL0     C90196   7.907   0.912   8.323 -0.1342  0.1038  0.1618
  669MOL0     N90197   7.970   0.781   8.355 -0.3004  0.2743 -1.0071
  669MOL0     C90198   7.903   0.695   8.430 -0.1449 -0.3019 -0.2797
  669MOL0     C90199   7.987   0.600   8.477 -0.1677 -0.2865 -0.1017
  669MOL0     C90200   7.951   0.467   8.546  0.8644  0.0074 -0.5522
  669MOL0     C90201   7.996   0.337   8.478  0.0978 -0.4064  0.4184
  669MOL0     C90202   7.905   0.216   8.500  0.4096  0.5831  0.0086
  669MOL0     C90203   7.930   0.119   8.616 -1.2315 -0.0194  0.2395
  669MOL0     O90204   8.060   0.074   8.606  0.0154  0.0153  0.1296
  669MOL0     C90205   8.097  -0.023   8.695 -0.7594  0.7382  0.3626
  669MOL0     C90206   8.206  -0.117   8.670 -0.8085 -0.3656 -0.4633
  669MOL0     C90207   8.240  -0.221   8.754  0.5473  0.4691  1.3717
  669MOL0     C90208   8.328  -0.323   8.695 -0.6516  0.5660 -0.5668
  669MOL0     C90209   8.173  -0.235   8.879  1.0786  0.1626  0.3612
  669MOL0     C90210   8.221  -0.334   8.981 -0.0124 -0.0472 -0.4919
  669MOL0     O90211   8.147  -0.330   9.101 -0.9075  0.3345  0.1944
  669MOL0     C90212   8.196  -0.404   9.200 -0.0931  0.4027 -0.5140
  669MOL0     C90213   8.329  -0.430   9.240 -0.1635 -0.7589  0.9578
  669MOL0     C90214   8.349  -0.517   9.356 -0.2414  0.0503  0.8298
  669MOL0     C90215   8.249  -0.565   9.428 -1.1757  1.0039 -0.9483
  669MOL0     O90216   8.276  -0.660   9.525 -0.0798 -0.0552  0.4971
  669MOL0     C90217   8.247  -0.632   9.661 -0.2707 -0.3231 -0.7028
  669MOL0     C90218   8.367  -0.584   9.738  0.3769  0.2356 -0.6032
  669MOL0     C90219   8.323  -0.530   9.876 -0.0456 -0.3089 -0.4911
  669MOL0     C90220   8.198  -0.451   9.907 -0.7140 -0.2652 -0.6634
  669MOL0     C90221   8.201  -0.427  10.057 -1.0374  1.0839  0.1836
  669MOL0     C90222   8.066  -0.365  10.114 -0.6783 -0.0320 -0.1049
  669MOL0     C90223   8.044  -0.234  10.035 -0.0613 -0.1095 -0.4148
  669MOL0     C90224   7.937  -0.143  10.100 -0.0835  0.2292  0.8134
  669MOL0    Cl90225   7.898  -0.006   9.984  0.2605  0.2812 -0.2680
  669MOL0     C90226   8.121  -0.538   9.394  0.5892 -0.1171  1.0115
  669MOL0     C90227   8.091  -0.463   9.278  0.8255  0.0208  0.6429
  669MOL0     O90228   8.323  -0.403   8.963  0.2887 -0.0278  0.6989
  669MOL0     C90229   8.058  -0.150   8.903 -0.4318  0.5321 -0.9349
  669MOL0     C90230   8.027  -0.049   8.817 -0.8224 -0.7481 -0.1544
  669MOL0     N90231   8.110   0.636   8.427  0.4264 -0.0659 -0.1363
  669MOL0     N90232   8.100   0.751   8.359 -0.2316  0.3505 -0.3306
  669MOL0     C90233   6.929   1.150   8.450  0.1627  0.3145 -0.3217
  669MOL0     C90234   6.799   1.184   8.436 -0.7995  0.1442  0.2981
  669MOL0     C90235   6.367   1.021   8.364 -0.0751  0.2810 -0.5472
  669MOL0     C90236   6.295   0.979   8.248 -0.5467 -0.2059  0.2175
  669MOL0     C90237   6.157   0.962   8.251 -0.9028  0.6676  0.8711
  669MOL0     C90238   6.088   0.976   8.370  0.4491  1.1914 -0.2054
  669MOL0     O90239   5.952   0.980   8.387  1.1475 -0.0374 -0.2708
  669MOL0     C90240   5.852   0.981   8.283  0.0510 -1.0219 -0.4406
  669MOL0     C90241   5.772   0.849   8.270  0.8429  0.7572  0.6444
  669MOL0     C90242   5.849   0.753   8.184 -0.1031  0.6371 -0.4626
  669MOL0     C90243   5.763   0.653   8.120 -0.1751  0.0563 -0.0213
  669MOL0     C90244   5.713   0.545   8.202  0.2033  0.1286 -0.3266
  669MOL0     C90245   5.659   0.455   8.256  1.0708 -0.3706  0.5491
  669MOL0     C90246   6.158   1.006   8.481 -0.3445  0.1834  0.1686
  669MOL0     C90247   6.290   1.039   8.482  0.4438  0.0857 -0.9544
  669MOL0     H90248   6.667   0.882   8.556 -0.3141  1.3492 -0.2208
  669MOL0     H90249   6.915   0.829   8.570 -3.6952 -1.3813  1.5719
  669MOL0     H90250   7.203   1.047   8.349 -2.2855 -1.4187  0.2421
  669MOL0     H90251   7.193   1.179   8.478 -1.7899 -0.1544  0.4923
  669MOL0     H90252   7.371   1.050   8.605 -2.4797 -0.3479  1.2134
  669MOL0     H90253   7.341   0.906   8.497 -0.0141 -0.0737  2.8648
  669MOL0     H90254   7.453   1.008   8.318 -1.9513  0.5042  0.2129
  669MOL0     H90255   7.430   1.172   8.371  0.3641  1.7108  1.2007
  669MOL0     H90256   7.607   1.142   8.556 -1.5048  0.0211  0.1932
  669MOL0     H90257   7.600   0.974   8.518 -1.7028  1.0618  2.0329
  669MOL0     H90258   7.684   1.078   8.266 -0.7634 -2.4404  0.3677
  669MOL0     H90259   7.655   1.231   8.352  2.7064  0.0767 -1.7558
  669MOL0     H90260   7.892   1.180   8.347 -0.1988 -1.1566 -1.9194
  669MOL0     H90261   7.830   1.191   8.508 -1.0943 -1.2970  0.9622
  669MOL0     H90262   7.991   1.030   8.490  0.6648  0.0462  0.8767
  669MOL0     H90263   7.848   0.948   8.536 -0.4383  4.7366  0.4944
  669MOL0     H90264   7.970   0.956   8.246  0.8578 -1.0574  0.2838
  669MOL0     H90265   7.806   0.898   8.284 -0.0196  2.1350 -1.0214
  669MOL0     H90266   7.796   0.700   8.449 -0.4582  3.3709 -1.9366
  669MOL0     H90267   7.986   0.477   8.649  0.8043  2.1775 -0.6994
  669MOL0     H90268   7.842   0.459   8.546  0.9328 -1.4473 -1.7909
  669MOL0     H90269   8.090   0.299   8.518 -1.0625 -3.0128  0.9147
  669MOL0     H90270   7.991   0.346   8.369 -0.5064 -0.6699  0.4171
  669MOL0     H90271   7.899   0.149   8.413  0.1568  1.5741 -0.7479
  669MOL0     H90272   7.812   0.271   8.517  1.0066  0.9588  2.4179
  669MOL0     H90273   7.856   0.038   8.607 -2.0719  0.7846 -0.2274
  669MOL0     H90274   7.906   0.168   8.711  1.6774 -1.4530  1.8524
  669MOL0     H90275   8.258  -0.100   8.577 -1.1363 -1.3980 -0.8483
  669MOL0     H90276   8.333  -0.308   8.587  1.8387 -1.2125 -0.7777
  669MOL0     H90277   8.428  -0.312   8.740 -0.9403 -0.8077  0.4740
  669MOL0     H90278   8.294  -0.426   8.705  3.2327 -0.6998  1.5750
  669MOL0     H90279   8.416  -0.384   9.195 -0.1735  0.1451  1.8166
  669MOL0     H90280   8.452  -0.534   9.388  1.2720  0.5772 -3.1601
  669MOL0     H90281   8.160  -0.568   9.677  1.3106  2.1131 -1.2807
  669MOL0     H90282   8.221  -0.728   9.707  3.0885 -0.7093  0.6723
  669MOL0     H90283   8.443  -0.663   9.747 -0.3780 -0.3348  1.2301
  669MOL0     H90284   8.402  -0.500   9.676 -1.0294 -0.1226 -1.9489
  669MOL0     H90285   8.408  -0.472   9.914  1.3076 -1.4450 -1.7290
  669MOL0     H90286   8.313  -0.615   9.944  1.9341  0.0318  0.3007
  669MOL0     H90287   8.199  -0.357   9.850  0.5164  0.5754  0.6721
  669MOL0     H90288   8.115  -0.514   9.876 -1.5098  0.2537  0.3672
  669MOL0     H90289   8.293  -0.373  10.083 -1.1816  0.7240  1.5489
  669MOL0     H90290   8.210  -0.531  10.090  0.5506  0.4957 -1.8872
  669MOL0     H90291   7.980  -0.427  10.085  0.6361 -0.4683 -3.4581
  669MOL0     H90292   8.081  -0.356  10.222  1.4550  1.8113 -0.4862
  669MOL0     H90293   8.001  -0.263   9.939  2.2875 -1.1264 -1.2331
  669MOL0     H90294   8.127  -0.172  10.000 -1.1860  1.3319 -0.6573
  669MOL0     H90295   7.977  -0.106  10.195 -1.6085  0.1176  1.5330
  669MOL0     H90296   7.852  -0.207  10.128  0.6621 -0.4483  1.5578
  669MOL0     H90297   8.038  -0.586   9.443  0.8950 -2.8707 -0.9002
  669MOL0     H90298   7.986  -0.445   9.259 -0.2121 -2.6212  3.1577
  669MOL0     H90299   8.006  -0.159   8.998 -0.9531 -4.1372 -1.4056
  669MOL0     H90300   7.944   0.012   8.850  0.2323  0.6730 -0.0160
  669MOL0     H90301   7.004   1.219   8.411  3.4580 -2.2032  1.1243
  669MOL0     H90302   6.765   1.280   8.399 -0.8791  0.4963  1.2560
  669MOL0     H90303   6.352   0.961   8.157  2.3281  0.0507  1.8540
  669MOL0     H90304   6.086   0.939   8.173  0.2869 -0.5271  0.1063
  669MOL0     H90305   5.787   1.061   8.320  3.0575  0.6617  1.7262
  669MOL0     H90306   5.890   1.025   8.191 -0.2689 -2.0591 -1.0765
  669MOL0     H90307   5.681   0.871   8.213  0.2505 -1.8482  0.4478
  669MOL0     H90308   5.747   0.792   8.361 -1.6239  1.1164  0.2713
  669MOL0     H90309   5.931   0.703   8.237 -1.8741 -2.0767 -0.0959
  669MOL0     H90310   5.887   0.821   8.107 -0.1116  3.4789  1.8596
  669MOL0     H90311   5.811   0.601   8.036 -2.7728  0.6631 -1.9937
  669MOL0     H90312   5.676   0.711   8.086  0.5127  1.8304  1.1392
  669MOL0     H90313   5.615   0.375   8.312 -1.2874 -0.6213 -1.4906
  669MOL0     H90314   6.105   1.012   8.575 -0.7732 -0.3056 -0.0335
  669MOL0     H90315   6.337   1.090   8.565 -0.1289 -1.7280  0.5545
  670MOL0     O90316  10.882  11.387   9.920 -0.1316  0.6018  0.3160
  670MOL0     C90317  10.819  11.282   9.925  0.1083 -0.9840 -0.1086
  670MOL0     O90318  10.768  11.226  10.035 -1.0593  0.6566  0.1831
  670MOL0     C90319  10.750  11.295  10.156 -0.8826 -0.3180  0.3226
  670MOL0     C90320  10.697  11.422  10.179  0.8243  0.0169  0.0732
  670MOL0     C90321  10.687  11.478  10.301  0.0214 -0.2864 -0.9164
  670MOL0     C90322  10.718  11.398  10.416 -0.1697  0.7562 -0.3899
  670MOL0     O90323  10.702  11.465  10.534  0.4045  0.0927 -0.4316
  670MOL0     C90324  10.779  11.457  10.645 -0.3341  0.3459  1.1429
  670MOL0     C90325  10.741  11.558  10.758 -0.7697 -0.0037 -0.7841
  670MOL0     C90326  10.590  11.563  10.772  0.0402 -1.0099 -0.2542
  670MOL0     C90327  10.516  11.435  10.792 -0.0079  0.5066  0.1419
  670MOL0     C90328  10.373  11.464  10.848 -0.2104 -0.2869 -0.4416
  670MOL0     C90329  10.367  11.499  10.994  0.0223 -0.1491  0.5652
  670MOL0     C90330  10.274  11.611  11.038  0.8442 -0.4883 -0.5568
  670MOL0     C90331  10.124  11.587  11.024 -0.3352 -0.5815  0.5951
  670MOL0     N90332  10.060  11.529  11.142 -0.4327 -0.5159 -0.1056
  670MOL0     C90333   9.930  11.541  11.183  0.2875 -0.4718  0.0016
  670MOL0     C90334   9.929  11.459  11.293  0.3603 -0.1143  0.3615
  670MOL0     C90335   9.801  11.422  11.359 -0.1517 -0.8509 -0.6005
  670MOL0     C90336   9.795  11.280  11.420 -0.4175  0.6438 -0.2485
  670MOL0     C90337   9.654  11.260  11.486 -0.0887  0.0730  0.4084
  670MOL0     C90338   9.640  11.118  11.546 -0.6690 -0.0808  0.1329
  670MOL0     O90339   9.504  11.069  11.550  0.0210  0.0189  0.2682
  670MOL0     C90340   9.409  11.125  11.627  0.2508 -0.1060 -0.1548
  670MOL0     C90341   9.280  11.085  11.615 -0.2685 -0.1660  0.5996
  670MOL0     C90342   9.177  11.127  11.699  0.4531  0.0463 -0.4467
  670MOL0     C90343   9.038  11.062  11.684  0.8174 -0.9853 -0.2528
  670MOL0     C90344   9.209  11.200  11.810  0.3469 -0.6332 -0.8501
  670MOL0     C90345   9.123  11.222  11.911  0.1520 -0.2266 -0.2510
  670MOL0     O90346   9.081  11.345  11.937  0.0368  0.3950 -0.3417
  670MOL0     C90347   8.968  11.365  12.014  0.2405 -0.1201  0.2314
  670MOL0     C90348   8.844  11.349  11.953  0.1813 -0.5574 -0.1930
  670MOL0     C90349   8.729  11.362  12.033 -0.0137  0.0328 -0.3089
  670MOL0     C90350   8.741  11.375  12.168 -0.3649 -0.7644 -0.5497
  670MOL0     O90351   8.626  11.389  12.243 -0.6283 -0.4361  0.2799
  670MOL0     C90352   8.547  11.271  12.231  1.2048  0.4038 -0.3664
  670MOL0     C90353   8.440  11.269  12.335  0.1801  0.0666  0.1794
  670MOL0     C90354   8.348  11.147  12.326 -0.2677  0.2376  0.8985
  670MOL0     C90355   8.242  11.168  12.434 -0.0295  0.2284 -0.9510
  670MOL0     C90356   8.116  11.086  12.405 -1.0302  0.5262 -0.3037
  670MOL0     C90357   8.148  10.933  12.403 -0.2971 -0.4856  0.7160
  670MOL0     C90358   8.150  10.864  12.537 -0.5525 -0.1054 -0.0480
  670MOL0     C90359   8.119  10.715  12.517 -0.1072 -0.7814 -0.1121
  670MOL0    Cl90360   8.119  10.627  12.671 -0.3635  0.1050 -0.3286
  670MOL0     C90361   8.867  11.393  12.227 -0.7329  0.0846  0.2461
  670MOL0     C90362   8.983  11.399  12.154 -0.0666 -0.2127  0.5166
  670MOL0     O90363   9.095  11.126  11.979 -0.3124  0.8915 -0.3574
  670MOL0     C90364   9.338  11.257  11.815  0.1031  0.0935 -0.3126
  670MOL0     C90365   9.442  11.214  11.730  0.3668 -0.6442  0.5097
  670MOL0     N90366  10.049  11.408  11.320 -0.0284 -0.0099  1.0373
  670MOL0     N90367  10.129  11.449  11.231 -0.6054 -0.5435  1.0449
  670MOL0     C90368  10.758  11.261  10.395 -0.2556  1.6388 -0.1775
  670MOL0     C90369  10.782  11.220  10.264  0.3604 -0.6236 -0.8047
  670MOL0     C90370  10.829  11.190   9.804  0.6738  0.0878 -0.4138
  670MOL0     C90371  10.886  11.235   9.688  0.1885  0.8097 -0.2407
  670MOL0     C90372  10.921  11.144   9.579  0.9501 -0.5210 -0.7485
  670MOL0     C90373  10.875  11.016   9.581 -0.9576  1.4600 -0.8335
  670MOL0     O90374  10.923  10.927   9.493  0.6121  0.9147 -0.3496
  670MOL0     C90375  11.057  10.892   9.516 -0.0310 -0.4370 -0.3971
  670MOL0     C90376  11.082  10.794   9.637 -0.0271 -0.0678 -0.1920
  670MOL0     C90377  11.052  10.639   9.608 -0.1990 -0.5497  0.4463
  670MOL0     C90378  11.101  10.550   9.716  0.2603  0.6508 -0.4289
  670MOL0     C90379  11.025  10.422   9.724 -0.4379 -0.2145  0.4625
  670MOL0     C90380  10.972  10.316   9.727  0.0075 -0.4471 -1.0965
  670MOL0     C90381  10.815  10.970   9.697  1.1748  0.3299 -0.3977
  670MOL0     C90382  10.775  11.060   9.805 -0.0915 -0.2931  0.7521
  670MOL0     H90383  10.659  11.483  10.097  0.4556 -1.0191 -0.5381
  670MOL0     H90384  10.650  11.580  10.304 -2.3600 -1.0881  0.2792
  670MOL0     H90385  10.780  11.355  10.685  2.4148 -2.0207 -4.0619
  670MOL0     H90386  10.880  11.479  10.609 -0.6386  1.1840  0.7629
  670MOL0     H90387  10.772  11.519  10.855 -2.2674 -2.6844 -1.3111
  670MOL0     H90388  10.783  11.658  10.742 -0.8288  0.1834  0.1270
  670MOL0     H90389  10.582  11.630  10.858 -2.8285  0.2523 -1.3818
  670MOL0     H90390  10.547  11.614  10.686  2.1394 -0.9279 -1.3194
  670MOL0     H90391  10.508  11.393  10.691 -0.3918 -1.2728  0.8859
  670MOL0     H90392  10.570  11.367  10.858  0.3907 -0.5662 -1.2404
  670MOL0     H90393  10.331  11.551  10.795 -2.2691 -2.0509 -1.8948
  670MOL0     H90394  10.314  11.374  10.826 -0.3072 -2.0010  5.2198
  670MOL0     H90395  10.330  11.414  11.052 -3.8022  0.6639 -0.4053
  670MOL0     H90396  10.465  11.529  11.031 -0.5840  1.0047  1.3247
  670MOL0     H90397  10.291  11.650  11.139  1.0690  1.1394 -1.1836
  670MOL0     H90398  10.285  11.701  10.976 -0.5108 -0.4921 -0.8335
  670MOL0     H90399  10.107  11.531  10.932 -1.7841  1.5570 -0.5031
  670MOL0     H90400  10.077  11.685  11.017 -0.9765 -0.9574 -0.6214
  670MOL0     H90401   9.846  11.571  11.122  0.9011 -3.0964 -2.3130
  670MOL0     H90402   9.788  11.507  11.427  3.1685  1.5196 -2.6084
  670MOL0     H90403   9.725  11.434  11.282 -1.8173 -1.4073  0.8818
  670MOL0     H90404   9.874  11.258  11.492  1.6938  0.4016 -2.4886
  670MOL0     H90405   9.816  11.210  11.338  5.0289  2.0231 -0.4602
  670MOL0     H90406   9.581  11.283  11.409  2.1041  0.6864 -1.5876
  670MOL0     H90407   9.640  11.335  11.564  2.9682  0.5162  0.6234
  670MOL0     H90408   9.681  11.122  11.647 -1.3249 -0.1652  0.4044
  670MOL0     H90409   9.698  11.039  11.495 -1.3466 -1.1223  0.9390
  670MOL0     H90410   9.251  11.017  11.535 -4.5107 -2.1242  3.4577
  670MOL0     H90411   9.025  10.982  11.757 -1.8751  0.7650  1.3923
  670MOL0     H90412   8.957  11.133  11.705  1.0463 -0.7278 -0.2302
  670MOL0     H90413   9.028  11.031  11.580 -1.0823 -0.2532 -0.3299
  670MOL0     H90414   8.853  11.336  11.846 -0.6533 -3.0579 -0.0359
  670MOL0     H90415   8.634  11.382  11.984 -0.7135  2.1453  1.7400
  670MOL0     H90416   8.494  11.263  12.136  1.4462 -1.4097 -0.3798
  670MOL0     H90417   8.606  11.179  12.231  0.5223 -0.2289 -4.5060
  670MOL0     H90418   8.475  11.289  12.437 -1.6783  0.8163  0.7106
  670MOL0     H90419   8.382  11.357  12.306  3.4460  2.3869  0.1801
  670MOL0     H90420   8.399  11.053  12.345  0.3245  0.6763  1.5246
  670MOL0     H90421   8.306  11.136  12.225  3.1561 -2.2575 -0.4372
  670MOL0     H90422   8.289  11.144  12.530 -0.4536 -2.3420 -1.2945
  670MOL0     H90423   8.213  11.273  12.441  2.9935  1.0549  1.5363
  670MOL0     H90424   8.081  11.118  12.306  0.6779 -0.7531 -1.3694
  670MOL0     H90425   8.036  11.088  12.480 -0.2752 -1.3418  0.5866
  670MOL0     H90426   8.074  10.887  12.338  1.4588 -0.4250 -1.4291
  670MOL0     H90427   8.243  10.912  12.353  0.0286 -1.4714  1.7035
  670MOL0     H90428   8.079  10.917  12.602  1.2478  1.9453  0.3504
  670MOL0     H90429   8.244  10.873  12.592 -1.5951 -0.8278  1.9687
  670MOL0     H90430   8.192  10.680  12.444  2.6546 -0.2692  2.1869
  670MOL0     H90431   8.022  10.700  12.469 -0.2822  0.5753 -0.2405
  670MOL0     H90432   8.882  11.413  12.333  1.0277  2.1145 -0.3149
  670MOL0     H90433   9.077  11.414  12.207  1.0698 -2.0590 -0.8245
  670MOL0     H90434   9.360  11.337  11.885  2.5639  0.1695 -1.0952
  670MOL0     H90435   9.544  11.249  11.740 -0.1957  1.5318 -0.7342
  670MOL0     H90436  10.794  11.210  10.485  0.3212  2.0341 -0.1752
  670MOL0     H90437  10.809  11.118  10.238  0.6465 -0.2515 -2.0422
  670MOL0     H90438  10.913  11.340   9.678 -0.8407  0.9852 -1.4003
  670MOL0     H90439  10.978  11.182   9.495  4.7410 -0.3996  1.6567
  670MOL0     H90440  11.099  10.849   9.425  0.4303  2.6686 -1.7743
  670MOL0     H90441  11.111  10.985   9.535  2.0830 -1.0034 -2.9377
  670MOL0     H90442  11.018  10.817   9.723 -0.0043 -1.3350  0.1749
  670MOL0     H90443  11.184  10.801   9.674  0.5361 -2.3990 -1.1683
  670MOL0     H90444  11.103  10.619   9.513 -4.8998 -1.5503 -2.1883
  670MOL0     H90445  10.949  10.620   9.576  0.7088 -1.4926 -2.1246
  670MOL0     H90446  11.085  10.601   9.812  0.1373  1.5837 -0.9364
  670MOL0     H90447  11.210  10.538   9.713  0.0193 -2.3541 -2.1793
  670MOL0     H90448  10.903  10.234   9.736 -1.9803  0.9927 -2.2785
  670MOL0     H90449  10.800  10.863   9.698 -0.4150  0.5138 -1.3477
  670MOL0     H90450  10.721  11.015   9.887  0.0944  0.9539  1.5933
  671MOL0     O90451   1.506  10.667   5.257 -0.6577  0.1800  0.7530
  671MOL0     C90452   1.558  10.617   5.153  0.4894 -0.7680 -0.9382
  671MOL0     O90453   1.624  10.499   5.138 -0.2042 -0.0719  0.2134
  671MOL0     C90454   1.641  10.427   5.253 -0.1952 -0.0183  0.9116
  671MOL0     C90455   1.610  10.294   5.257 -0.1789 -0.1294  0.8314
  671MOL0     C90456   1.661  10.208   5.352 -0.6492  0.1839 -0.0997
  671MOL0     C90457   1.736  10.263   5.461 -0.3017 -0.3807 -0.0426
  671MOL0     O90458   1.799  10.186   5.551  0.5445  0.1277 -0.0939
  671MOL0     C90459   1.727  10.068   5.581  0.0628  0.5876 -0.2509
  671MOL0     C90460   1.785  10.028   5.717 -0.2706  0.3080 -1.1136
  671MOL0     C90461   1.928   9.979   5.709 -0.6753 -0.4459  1.0349
  671MOL0     C90462   1.947   9.887   5.827  0.1352  0.0745 -0.5421
  671MOL0     C90463   2.065   9.793   5.821 -0.2972 -0.0833 -0.3759
  671MOL0     C90464   2.091   9.704   5.952 -0.2969  0.2051  0.4108
  671MOL0     C90465   1.979   9.619   6.015 -0.7249 -0.5490 -0.4596
  671MOL0     C90466   1.946   9.487   5.933  0.2077  0.1482 -0.1931
  671MOL0     N90467   1.919   9.496   5.787 -0.3183 -0.7401  0.0150
  671MOL0     C90468   1.820   9.577   5.743  0.1699  1.1257  0.7367
  671MOL0     C90469   1.834   9.559   5.608 -0.1817  0.0061  0.5076
  671MOL0     C90470   1.764   9.650   5.500 -0.1521  0.9616  0.0022
  671MOL0     C90471   1.702   9.570   5.384  0.1224 -0.0203  0.6954
  671MOL0     C90472   1.560   9.505   5.417 -0.6397  0.2727 -0.8639
  671MOL0     C90473   1.557   9.382   5.509 -0.2007  0.8301 -0.2902
  671MOL0     O90474   1.422   9.343   5.523  0.0749 -0.2631  0.4408
  671MOL0     C90475   1.348   9.286   5.432  0.8345  0.4017  0.7985
  671MOL0     C90476   1.394   9.232   5.315 -0.1947  0.2709  0.8801
  671MOL0     C90477   1.310   9.192   5.214  0.4936  0.6356 -0.1714
  671MOL0     C90478   1.372   9.116   5.101 -0.7180  0.2153 -0.0730
  671MOL0     C90479   1.168   9.218   5.217 -0.1309 -0.0682 -0.1595
  671MOL0     C90480   1.069   9.170   5.120  0.0088 -1.5772  0.1413
  671MOL0     O90481   0.941   9.142   5.171 -0.1434 -0.0727  0.6845
  671MOL0     C90482   0.854   9.045   5.123  0.8392  0.1548 -0.4008
  671MOL0     C90483   0.718   9.048   5.178 -0.0643 -0.0471  0.3184
  671MOL0     C90484   0.628   8.946   5.138 -0.6533  0.1235  0.3392
  671MOL0     C90485   0.658   8.858   5.031  0.4325  0.7808 -0.9893
  671MOL0     O90486   0.546   8.791   4.980  0.3214  0.3001  0.6412
  671MOL0     C90487   0.558   8.690   4.876 -0.3094 -1.3043  0.1258
  671MOL0     C90488   0.430   8.662   4.796 -0.5066  0.2562  0.6542
  671MOL0     C90489   0.300   8.682   4.869  0.1428 -0.7716 -0.6491
  671MOL0     C90490   0.279   8.549   4.952 -0.0214  1.3666 -0.5530
  671MOL0     C90491   0.160   8.571   5.044  0.5792 -0.5303  0.3706
  671MOL0     C90492   0.122   8.458   5.142 -0.4781  0.1530  0.5126
  671MOL0     C90493   0.008   8.517   5.236 -0.2485 -0.0820  0.0285
  671MOL0     C90494  -0.030   8.392   5.314  0.5156  0.4470 -0.4551
  671MOL0    Cl90495  -0.161   8.435   5.427 -0.2624 -0.1812  0.0579
  671MOL0     C90496   0.786   8.858   4.973  0.8496 -0.4781 -0.2140
  671MOL0     C90497   0.888   8.941   5.026 -0.7282  0.0241  0.0332
  671MOL0     O90498   1.106   9.148   5.004 -0.2038 -0.0510 -0.2057
  671MOL0     C90499   1.118   9.281   5.334  0.5005  0.0180 -0.8793
  671MOL0     C90500   1.212   9.315   5.432  0.3385  0.2419  0.0623
  671MOL0     N90501   1.925   9.460   5.578 -0.6011 -0.0225  0.5645
  671MOL0     N90502   1.980   9.431   5.688  0.2787  0.6713 -0.2819
  671MOL0     C90503   1.773  10.397   5.461 -0.2801  0.0978  0.3089
  671MOL0     C90504   1.731  10.472   5.355  0.5724 -0.2776  0.6199
  671MOL0     C90505   1.517  10.688   5.027  0.0218 -0.1549  0.4068
  671MOL0     C90506   1.452  10.808   5.031  0.2395 -0.3521  0.5791
  671MOL0     C90507   1.426  10.891   4.919  0.2542 -1.1297  0.4856
  671MOL0     C90508   1.471  10.846   4.797 -1.0456 -0.0753  0.0594
  671MOL0     O90509   1.437  10.919   4.679  0.4983  0.1525  0.0987
  671MOL0     C90510   1.521  10.905   4.560 -0.2715 -0.7385 -0.2442
  671MOL0     C90511   1.490  11.029   4.477 -0.7684  0.5702 -0.2197
  671MOL0     C90512   1.334  11.060   4.472 -0.5666 -0.1162 -0.3099
  671MOL0     C90513   1.299  11.181   4.563  1.1582 -0.5496 -0.3928
  671MOL0     C90514   1.152  11.192   4.565  0.2819  0.6960 -0.8344
  671MOL0     C90515   1.034  11.205   4.577  0.5596  0.9238  0.0626
  671MOL0     C90516   1.547  10.727   4.790 -0.4508 -1.1435 -0.2553
  671MOL0     C90517   1.559  10.638   4.897 -0.0195 -1.0424 -0.4155
  671MOL0     H90518   1.559  10.242   5.177  1.1533  0.5087 -0.4843
  671MOL0     H90519   1.667  10.100   5.341 -2.3918 -0.1931  2.0318
  671MOL0     H90520   1.618  10.078   5.581 -0.5915 -3.4062  3.5718
  671MOL0     H90521   1.758   9.989   5.512 -0.0267 -1.7380  2.1967
  671MOL0     H90522   1.773  10.117   5.780 -0.2519  2.1315 -3.5179
  671MOL0     H90523   1.716   9.951   5.751 -0.6788  0.6759 -1.0902
  671MOL0     H90524   1.950   9.936   5.611 -0.1011  1.7218  0.1546
  671MOL0     H90525   1.997  10.062   5.724 -1.8963  0.4821  1.7884
  671MOL0     H90526   1.954   9.947   5.918  2.7365  1.0663 -1.2796
  671MOL0     H90527   1.863   9.819   5.842  1.9233 -2.1790 -0.2579
  671MOL0     H90528   2.046   9.737   5.729  1.3289 -3.0922  0.9603
  671MOL0     H90529   2.157   9.850   5.807 -0.9849  0.5975 -2.4994
  671MOL0     H90530   2.174   9.638   5.924  2.1168  3.7469 -1.5882
  671MOL0     H90531   2.126   9.775   6.028  1.9764  1.2055 -1.4227
  671MOL0     H90532   2.012   9.582   6.113 -1.2442  1.5634  0.5836
  671MOL0     H90533   1.902   9.692   6.043  0.7186  0.5434  0.8977
  671MOL0     H90534   1.866   9.431   5.982 -0.2570  1.6507  0.8295
  671MOL0     H90535   2.024   9.413   5.956 -1.0487 -0.3846  2.8047
  671MOL0     H90536   1.761   9.643   5.805 -0.0576  2.1836 -0.5585
  671MOL0     H90537   1.681   9.704   5.547  1.2586  0.7840  2.9526
  671MOL0     H90538   1.843   9.721   5.475  2.2976 -1.8335 -0.8163
  671MOL0     H90539   1.777   9.500   5.346  1.2716  0.8603  1.2785
  671MOL0     H90540   1.671   9.641   5.307  1.3327  2.8884  2.7149
  671MOL0     H90541   1.514   9.474   5.322  1.1172  1.0003 -2.0119
  671MOL0     H90542   1.491   9.582   5.452 -0.5721  0.7928 -1.8204
  671MOL0     H90543   1.607   9.401   5.604  1.9303 -0.8121 -0.9914
  671MOL0     H90544   1.614   9.300   5.463 -0.5617  0.2744  0.2380
  671MOL0     H90545   1.502   9.224   5.312 -0.2922 -1.4365  0.7132
  671MOL0     H90546   1.481   9.118   5.108 -0.7369  3.9021  1.8152
  671MOL0     H90547   1.335   9.014   5.101  0.6626 -0.3289  1.9237
  671MOL0     H90548   1.348   9.169   5.008  3.5923 -1.8033 -2.6699
  671MOL0     H90549   0.694   9.127   5.248  2.0371 -1.0022  2.2683
  671MOL0     H90550   0.528   8.945   5.181 -0.7081 -0.3936  0.2019
  671MOL0     H90551   0.631   8.716   4.799 -3.5920 -0.8982 -3.1145
  671MOL0     H90552   0.585   8.600   4.932 -2.3118  0.1817  3.8620
  671MOL0     H90553   0.433   8.727   4.707  1.2018 -3.1082 -1.9903
  671MOL0     H90554   0.431   8.562   4.752 -0.0900  1.8282 -3.3590
  671MOL0     H90555   0.218   8.708   4.800 -1.5788  2.9247  2.4389
  671MOL0     H90556   0.305   8.768   4.937 -2.4813  0.2637 -1.6125
  671MOL0     H90557   0.275   8.462   4.886  3.1739  0.1931  0.5914
  671MOL0     H90558   0.367   8.525   5.012  0.6255  4.0556 -0.3277
  671MOL0     H90559   0.073   8.600   4.985  2.8007 -1.4126 -3.7579
  671MOL0     H90560   0.174   8.657   5.110 -1.4586  0.3690 -0.3211
  671MOL0     H90561   0.085   8.367   5.093  3.4950 -0.6074 -1.4555
  671MOL0     H90562   0.205   8.418   5.201 -0.9276  2.6615  3.0225
  671MOL0     H90563  -0.072   8.567   5.180 -0.0293  0.9225  0.5819
  671MOL0     H90564   0.050   8.594   5.301 -2.1075 -0.2211  1.4744
  671MOL0     H90565   0.051   8.350   5.374 -0.4623  0.9916  1.3173
  671MOL0     H90566  -0.066   8.313   5.247  2.0082  0.3450 -1.1692
  671MOL0     H90567   0.819   8.797   4.889  0.7404 -0.7683 -0.0507
  671MOL0     H90568   0.992   8.936   4.995 -0.6154  2.3711 -0.1160
  671MOL0     H90569   1.014   9.304   5.353  0.8914  1.1429 -0.0035
  671MOL0     H90570   1.174   9.366   5.520  1.7366 -1.5925  1.8627
  671MOL0     H90571   1.847  10.443   5.525 -0.8588  4.0410 -1.5737
  671MOL0     H90572   1.758  10.577   5.359 -1.2305  0.2962 -0.7687
  671MOL0     H90573   1.441  10.850   5.130 -0.7282 -1.1661  0.8278
  671MOL0     H90574   1.383  10.989   4.937 -0.6803 -1.4457  0.0256
  671MOL0     H90575   1.628  10.900   4.580  0.4953 -1.0942 -3.7658
  671MOL0     H90576   1.511  10.813   4.501 -0.3684  0.5205 -2.2795
  671MOL0     H90577   1.534  10.995   4.382  2.2092 -1.6777  1.7940
  671MOL0     H90578   1.543  11.112   4.523 -1.5603  0.5433  0.7662
  671MOL0     H90579   1.275  10.970   4.487 -0.3537 -0.1848  0.1428
  671MOL0     H90580   1.333  11.094   4.368 -2.0532  0.2023 -0.2050
  671MOL0     H90581   1.343  11.268   4.514  0.5793  0.8502  1.4424
  671MOL0     H90582   1.326  11.165   4.668 -1.9062 -1.7828  0.3376
  671MOL0     H90583   0.929  11.191   4.593  1.0813 -2.3519  1.2292
  671MOL0     H90584   1.589  10.686   4.699  1.0242 -2.1931  0.8342
  671MOL0     H90585   1.611  10.543   4.897  3.6266  0.7265 -2.7675
  672MOL0     O90586  10.077   8.162   9.811  0.0379 -0.2859 -0.5146
  672MOL0     C90587   9.968   8.214   9.835  0.4134 -0.0149 -0.5075
  672MOL0     O90588   9.847   8.143   9.821  0.0852 -0.0785 -0.0681
  672MOL0     C90589   9.853   8.005   9.810  1.3788  0.5849  0.0056
  672MOL0     C90590   9.775   7.957   9.706  0.5424  1.3614 -0.9630
  672MOL0     C90591   9.765   7.816   9.674  1.3437 -1.1694 -0.7473
  672MOL0     C90592   9.828   7.718   9.758  0.0392 -0.8702 -0.3042
  672MOL0     O90593   9.807   7.587   9.724 -0.5328 -0.1538  0.7516
  672MOL0     C90594   9.771   7.489   9.820 -0.9727 -0.5277 -1.1479
  672MOL0     C90595   9.640   7.411   9.771 -0.0064  0.3484 -0.6046
  672MOL0     C90596   9.534   7.520   9.758 -0.6488  0.3956  0.6282
  672MOL0     C90597   9.390   7.463   9.724  0.8189 -0.7931  0.3692
  672MOL0     C90598   9.274   7.546   9.680  0.7781 -0.5086 -0.1990
  672MOL0     C90599   9.230   7.645   9.785  1.0437 -0.3660 -0.6784
  672MOL0     C90600   9.116   7.749   9.739  0.1042  0.4193  0.1837
  672MOL0     C90601   9.135   7.845   9.620 -1.2430 -0.1658  0.3283
  672MOL0     N90602   9.024   7.939   9.615  0.3918  1.3244 -0.2079
  672MOL0     C90603   8.895   7.917   9.583 -0.5915  1.0628  0.1875
  672MOL0     C90604   8.840   8.038   9.561 -0.0657  1.1529 -0.8563
  672MOL0     C90605   8.702   8.040   9.521 -0.2124 -0.0245  0.3359
  672MOL0     C90606   8.692   8.136   9.400 -0.1831  0.0059  0.0740
  672MOL0     C90607   8.546   8.175   9.367  0.4400  0.4632  0.1633
  672MOL0     C90608   8.475   8.252   9.482 -0.4548  1.1091 -0.4282
  672MOL0     O90609   8.355   8.313   9.440 -0.0374  0.0365  0.4999
  672MOL0     C90610   8.313   8.425   9.508 -0.2510 -1.2889  0.1746
  672MOL0     C90611   8.217   8.486   9.438  0.0865  0.1177 -0.3472
  672MOL0     C90612   8.114   8.571   9.494  0.1648  0.0939 -0.1894
  672MOL0     C90613   7.999   8.606   9.395 -0.3747 -0.0308  0.4227
  672MOL0     C90614   8.141   8.623   9.619  0.7205 -0.4673  0.2206
  672MOL0     C90615   8.046   8.716   9.690 -0.0558 -0.6694 -0.3869
  672MOL0     O90616   8.021   8.695   9.822 -0.5488  0.5949  0.8364
  672MOL0     C90617   7.908   8.750   9.881  0.2432  0.2253  0.1328
  672MOL0     C90618   7.917   8.799  10.016  0.6328 -1.1120  0.5515
  672MOL0     C90619   7.812   8.869  10.079 -0.4517 -0.1547  0.7843
  672MOL0     C90620   7.685   8.880  10.024 -0.8246 -0.9321 -1.1187
  672MOL0     O90621   7.593   8.933  10.095  0.3953 -0.2753 -0.5758
  672MOL0     C90622   7.467   8.863  10.102 -0.5188  0.8063 -0.2696
  672MOL0     C90623   7.361   8.929  10.187 -0.5493 -0.2781 -0.2196
  672MOL0     C90624   7.402   8.982  10.327  0.0105  0.3578 -0.2678
  672MOL0     C90625   7.285   8.963  10.430  0.2273 -0.1969 -0.8998
  672MOL0     C90626   7.341   9.035  10.562  0.7690 -0.0114  0.7016
  672MOL0     C90627   7.230   9.063  10.672 -0.2248 -0.0129 -0.6553
  672MOL0     C90628   7.303   9.038  10.811 -0.2365  1.6956  0.1363
  672MOL0     C90629   7.203   9.086  10.922 -1.2722 -0.2317 -0.1783
  672MOL0    Cl90630   7.248   9.048  11.091 -0.3590 -0.2334  0.6757
  672MOL0     C90631   7.676   8.838   9.891  0.5572  1.0938  0.2839
  672MOL0     C90632   7.784   8.774   9.819  1.1402 -0.2188 -0.0485
  672MOL0     O90633   7.994   8.807   9.622 -0.2362  0.3013  0.1483
  672MOL0     C90634   8.260   8.580   9.682 -0.0660 -0.0334 -0.3186
  672MOL0     C90635   8.343   8.480   9.631  0.3920  0.9502 -0.9760
  672MOL0     N90636   8.940   8.137   9.582  0.5726 -0.0417  0.2224
  672MOL0     N90637   9.038   8.069   9.628 -0.2905  0.2423 -0.2188
  672MOL0     C90638   9.906   7.767   9.864 -0.6972 -0.0229 -0.1356
  672MOL0     C90639   9.924   7.908   9.891  0.3414 -0.0434 -0.1923
  672MOL0     C90640   9.978   8.341   9.910 -0.0266  0.5895 -0.3305
  672MOL0     C90641  10.094   8.394   9.982  0.0216  0.5229 -0.8277
  672MOL0     C90642  10.074   8.502  10.066 -1.0759  0.2223 -0.5332
  672MOL0     C90643   9.967   8.579  10.058  0.4158 -1.4091 -0.1162
  672MOL0     O90644   9.948   8.699  10.119  0.0198  0.6364 -0.0381
  672MOL0     C90645  10.061   8.761  10.179  0.2661 -0.5620 -0.5024
  672MOL0     C90646  10.019   8.872  10.271  0.1427 -1.1117 -0.5682
  672MOL0     C90647  10.135   8.924  10.344 -0.6817 -0.2156 -0.4146
  672MOL0     C90648  10.106   9.014  10.454 -0.3199 -0.8223 -0.7148
  672MOL0     C90649  10.047   9.145  10.406  0.0590 -0.1492  0.1037
  672MOL0     C90650   9.982   9.241  10.376  0.3624 -0.6731  0.1924
  672MOL0     C90651   9.855   8.525  10.007  0.6954  0.1502  0.4826
  672MOL0     C90652   9.858   8.405   9.937 -0.2115 -0.2861  0.4528
  672MOL0     H90653   9.728   8.041   9.655  2.5043  3.3523  0.3227
  672MOL0     H90654   9.713   7.787   9.583  3.4886 -0.1506 -2.3924
  672MOL0     H90655   9.849   7.417   9.847 -0.2030  0.5377 -0.4996
  672MOL0     H90656   9.753   7.533   9.918  0.1984 -1.6851 -0.3837
  672MOL0     H90657   9.659   7.353   9.681 -0.5384 -1.4841  0.4155
  672MOL0     H90658   9.623   7.347   9.858  4.8527 -2.8933 -1.6514
  672MOL0     H90659   9.514   7.578   9.849 -0.8222  1.1129  0.1354
  672MOL0     H90660   9.558   7.591   9.679  1.1625 -0.5281  0.2942
  672MOL0     H90661   9.409   7.400   9.637 -0.3182 -1.9035  0.8925
  672MOL0     H90662   9.353   7.406   9.810 -2.3015 -0.7804 -0.8382
  672MOL0     H90663   9.299   7.608   9.593 -1.1469 -1.4209 -1.4855
  672MOL0     H90664   9.190   7.487   9.643  2.2495 -1.2286 -2.6755
  672MOL0     H90665   9.203   7.590   9.876 -0.6005 -0.0660 -0.9439
  672MOL0     H90666   9.314   7.709   9.811 -0.2255  1.5888 -1.1337
  672MOL0     H90667   9.024   7.696   9.713 -0.5126  1.5735 -0.0536
  672MOL0     H90668   9.089   7.814   9.822  2.0742  1.2807  0.2123
  672MOL0     H90669   9.140   7.798   9.521 -0.2771  2.2523 -0.8413
  672MOL0     H90670   9.226   7.906   9.628 -1.2012 -0.3209  1.1998
  672MOL0     H90671   8.846   7.821   9.577  0.7746  0.3870 -0.6602
  672MOL0     H90672   8.675   7.940   9.485  4.1859 -0.9951 -0.8185
  672MOL0     H90673   8.645   8.076   9.607  1.2665  0.9477  0.9424
  672MOL0     H90674   8.727   8.080   9.313 -0.9480 -1.2779  0.5447
  672MOL0     H90675   8.744   8.230   9.420 -1.3478  0.3158  1.9016
  672MOL0     H90676   8.484   8.090   9.338 -0.2422  0.5971  1.1815
  672MOL0     H90677   8.549   8.245   9.283 -0.5994  0.4798  0.1308
  672MOL0     H90678   8.540   8.322   9.536  0.2175 -1.1110  1.8608
  672MOL0     H90679   8.453   8.194   9.572  1.1935  0.7968 -0.1884
  672MOL0     H90680   8.188   8.445   9.341 -5.6264 -0.7193  1.3009
  672MOL0     H90681   7.917   8.538   9.419  0.5426 -1.3056  0.0628
  672MOL0     H90682   7.965   8.709   9.409  0.5930  0.2020  1.2060
  672MOL0     H90683   8.027   8.600   9.289  0.0290 -4.7597  0.5946
  672MOL0     H90684   8.013   8.804  10.066  0.4625  2.4208  0.7567
  672MOL0     H90685   7.834   8.916  10.175  0.6123  0.5337  0.2170
  672MOL0     H90686   7.436   8.852   9.998  2.9236  2.9128 -1.6889
  672MOL0     H90687   7.492   8.761  10.133  3.3277  0.7964 -2.6963
  672MOL0     H90688   7.325   9.008  10.121  2.0027  1.1960  0.0245
  672MOL0     H90689   7.278   8.859  10.199 -0.2236 -0.6676 -0.1984
  672MOL0     H90690   7.422   9.089  10.316 -0.2024  0.4349  0.0739
  672MOL0     H90691   7.496   8.942  10.366  0.9603  0.3251 -2.4480
  672MOL0     H90692   7.196   9.012  10.390 -0.2399 -0.7174 -0.5066
  672MOL0     H90693   7.269   8.855  10.433 -3.8953  0.2075 -1.5123
  672MOL0     H90694   7.384   9.133  10.538 -2.7890  2.2995  2.7582
  672MOL0     H90695   7.415   8.965  10.602 -1.0535 -1.1964  2.1708
  672MOL0     H90696   7.196   9.165  10.653  2.3646  1.3517  1.3737
  672MOL0     H90697   7.149   8.990  10.660 -0.0240 -0.3196 -0.1574
  672MOL0     H90698   7.405   9.077  10.816  1.4738 -2.3631  0.6291
  672MOL0     H90699   7.317   8.929  10.811 -0.5379  1.5327 -3.6126
  672MOL0     H90700   7.099   9.056  10.912 -0.7242 -2.4135  0.1121
  672MOL0     H90701   7.219   9.195  10.918 -2.7804 -0.0310 -1.5677
  672MOL0     H90702   7.577   8.835   9.845  0.5090  1.4588  0.3574
  672MOL0     H90703   7.768   8.727   9.722 -2.3722 -3.4520  1.8226
  672MOL0     H90704   8.263   8.616   9.784  3.1595  1.3366 -0.7822
  672MOL0     H90705   8.430   8.451   9.690 -0.3323 -0.4931 -0.5682
  672MOL0     H90706   9.947   7.691   9.929  1.2613 -0.0385 -1.3256
  672MOL0     H90707   9.976   7.953   9.975  0.5955  0.1397 -0.4450
  672MOL0     H90708  10.185   8.335   9.975 -0.9104 -0.8332 -2.0855
  672MOL0     H90709  10.160   8.535  10.123 -0.9993 -0.7979 -0.0377
  672MOL0     H90710  10.104   8.683  10.242  2.5803  1.6513  0.8424
  672MOL0     H90711  10.132   8.793  10.103 -1.9612  1.3607 -1.9351
  672MOL0     H90712   9.939   8.849  10.342  0.0262  0.9298  0.0201
  672MOL0     H90713   9.982   8.956  10.212  0.8313 -0.7063 -0.4352
  672MOL0     H90714  10.200   8.975  10.272  0.0208  1.0401  1.0373
  672MOL0     H90715  10.194   8.847  10.394 -0.8611  0.6786  1.2580
  672MOL0     H90716  10.199   9.044  10.502 -1.0146  2.4352 -1.1776
  672MOL0     H90717  10.039   8.967  10.527 -3.3483  2.1017 -1.3495
  672MOL0     H90718   9.936   9.336  10.356  0.5653 -1.1065 -2.7014
  672MOL0     H90719   9.760   8.578  10.003  1.6520  1.8591 -2.1685
  672MOL0     H90720   9.768   8.366   9.890  0.5370 -1.2364 -0.2321
  673MOL0     O90721  11.174   0.397   1.856 -0.0059 -0.1810 -0.2408
  673MOL0     C90722  11.184   0.497   1.931  0.1136 -0.4956 -0.1852
  673MOL0     O90723  11.293   0.580   1.947 -0.8592  0.4749  0.1653
  673MOL0     C90724  11.407   0.536   1.889 -0.4102  0.7096  0.1797
  673MOL0     C90725  11.530   0.579   1.946  0.6316  0.1396  0.0249
  673MOL0     C90726  11.654   0.555   1.889  0.4485  0.3124 -0.7863
  673MOL0     C90727  11.670   0.485   1.769  0.2646  0.8288  0.4088
  673MOL0     O90728  11.791   0.445   1.708 -0.8980 -0.4919  0.6068
  673MOL0     C90729  11.897   0.538   1.720 -0.9972  0.1650 -0.4688
  673MOL0     C90730  12.007   0.493   1.618  0.3323 -0.6420 -0.7575
  673MOL0     C90731  11.984   0.557   1.486  0.1479 -0.0536  0.4687
  673MOL0     C90732  12.100   0.523   1.392  0.1965  0.0391  0.4241
  673MOL0     C90733  12.085   0.571   1.246  0.3315  0.3693  0.1230
  673MOL0     C90734  12.223   0.575   1.169 -0.8379  0.1150  0.0586
  673MOL0     C90735  12.215   0.689   1.066 -0.2458  0.2080 -0.1315
  673MOL0     C90736  12.324   0.666   0.950  0.3427  0.0809  0.9900
  673MOL0     N90737  12.453   0.689   1.004  0.5483  0.4074 -0.3594
  673MOL0     C90738  12.511   0.603   1.089  0.3916 -0.2943  0.1269
  673MOL0     C90739  12.632   0.660   1.129  0.5701  0.6929  0.4825
  673MOL0     C90740  12.726   0.579   1.212 -0.0127 -1.4020  0.6349
  673MOL0     C90741  12.713   0.626   1.358 -0.0842  0.6027  0.0284
  673MOL0     C90742  12.806   0.545   1.456 -0.1536  0.3792  0.1004
  673MOL0     C90743  12.763   0.590   1.596  1.3201 -0.2738  0.3829
  673MOL0     O90744  12.806   0.719   1.625  0.4194 -0.1900  0.0861
  673MOL0     C90745  12.731   0.798   1.715 -0.1938 -0.0046 -0.9753
  673MOL0     C90746  12.769   0.929   1.732  0.2342 -0.5501  0.4871
  673MOL0     C90747  12.714   1.016   1.817  0.2516  0.3966  0.0783
  673MOL0     C90748  12.779   1.150   1.819  0.1748 -0.2533  0.0389
  673MOL0     C90749  12.618   0.963   1.904 -0.5156 -0.7632 -0.9366
  673MOL0     C90750  12.559   1.036   2.030  1.0554  0.9068 -0.3978
  673MOL0     O90751  12.582   1.169   2.051 -0.7209 -0.7095  0.4074
  673MOL0     C90752  12.513   1.240   2.144 -0.8122 -0.1497 -0.2446
  673MOL0     C90753  12.371   1.234   2.135 -1.0664  0.9580  0.0341
  673MOL0     C90754  12.289   1.293   2.224  0.7471  0.5178  0.0043
  673MOL0     C90755  12.341   1.378   2.317 -0.1527  0.4342 -0.4795
  673MOL0     O90756  12.245   1.436   2.397 -0.6007 -0.5692  0.0045
  673MOL0     C90757  12.295   1.567   2.451  0.4342  1.1263  0.1671
  673MOL0     C90758  12.331   1.560   2.591 -0.4924 -0.5939 -0.5845
  673MOL0     C90759  12.207   1.546   2.679  0.3223  0.3282  0.1115
  673MOL0     C90760  12.123   1.676   2.708 -0.0492  0.1995 -0.4315
  673MOL0     C90761  12.196   1.792   2.770 -0.2657 -0.4618 -0.2323
  673MOL0     C90762  12.160   1.810   2.920 -0.1809  1.3503 -0.4585
  673MOL0     C90763  12.232   1.693   3.003  0.9561 -0.6746 -0.3630
  673MOL0     C90764  12.199   1.732   3.144  0.6667 -0.4314 -0.4739
  673MOL0    Cl90765  12.260   1.613   3.264  0.4073  0.0307  0.3164
  673MOL0     C90766  12.479   1.397   2.325  0.4177 -0.0853 -0.3310
  673MOL0     C90767  12.562   1.326   2.240 -0.0711  0.9357 -1.2600
  673MOL0     O90768  12.497   0.967   2.114 -0.1386  0.7660 -0.5333
  673MOL0     C90769  12.576   0.835   1.889  0.6122 -0.0826 -0.1831
  673MOL0     C90770  12.633   0.749   1.798 -0.5775 -0.2886  1.4122
  673MOL0     N90771  12.646   0.779   1.066  0.0544  0.8558  1.0669
  673MOL0     N90772  12.532   0.793   0.990 -1.0124 -0.6297  0.7451
  673MOL0     C90773  11.546   0.449   1.700 -0.1204 -0.2451 -0.4629
  673MOL0     C90774  11.422   0.478   1.763 -0.4165  0.5873  0.6646
  673MOL0     C90775  11.069   0.551   2.002 -0.1880  0.8322 -1.1007
  673MOL0     C90776  11.049   0.690   2.031 -0.2805  0.4970 -0.6382
  673MOL0     C90777  10.937   0.742   2.097 -0.4264  0.3537 -0.1188
  673MOL0     C90778  10.841   0.654   2.144  0.4345 -0.4270 -0.6010
  673MOL0     O90779  10.714   0.679   2.195  1.3459  0.1695  0.9097
  673MOL0     C90780  10.651   0.809   2.192 -0.3704  0.6950  1.0702
  673MOL0     C90781  10.513   0.813   2.260 -0.5458 -0.2640 -0.8368
  673MOL0     C90782  10.522   0.796   2.416  0.3027  0.3287 -0.1354
  673MOL0     C90783  10.559   0.922   2.496  0.3053 -0.0196  0.7385
  673MOL0     C90784  10.471   1.034   2.507  0.3388  0.5988  0.6666
  673MOL0     C90785  10.401   1.131   2.528  0.0683 -1.3296 -0.2888
  673MOL0     C90786  10.868   0.520   2.134  0.4811 -0.2562 -0.3880
  673MOL0     C90787  10.974   0.467   2.065  0.3444  0.0302  0.2363
  673MOL0     H90788  11.518   0.638   2.037 -1.3548  0.2103 -0.2363
  673MOL0     H90789  11.744   0.571   1.948 -0.2083 -2.4901  1.1844
  673MOL0     H90790  11.856   0.638   1.705 -1.0297  0.4782  1.4749
  673MOL0     H90791  11.938   0.537   1.821 -3.2857  2.9677  0.6032
  673MOL0     H90792  12.106   0.513   1.660  0.5301 -1.1322 -0.9786
  673MOL0     H90793  11.999   0.384   1.608  1.5850 -1.3716  3.9579
  673MOL0     H90794  11.895   0.523   1.432  1.7363  1.4735 -3.5481
  673MOL0     H90795  11.978   0.666   1.492  1.3799  0.2530 -2.3003
  673MOL0     H90796  12.196   0.560   1.432  0.2007 -0.3948  0.8215
  673MOL0     H90797  12.102   0.414   1.381 -0.8886  0.1888 -1.5638
  673MOL0     H90798  12.014   0.514   1.186 -1.2829  1.7302  0.6819
  673MOL0     H90799  12.049   0.674   1.256 -0.2205  0.1351  0.5864
  673MOL0     H90800  12.306   0.586   1.240 -0.5460 -1.5444  0.0149
  673MOL0     H90801  12.233   0.481   1.115 -0.4615  1.3702 -2.1610
  673MOL0     H90802  12.122   0.704   1.011 -0.8508 -4.3386 -0.7538
  673MOL0     H90803  12.245   0.779   1.120  0.3272  0.2511 -0.5127
  673MOL0     H90804  12.312   0.746   0.877  1.1670 -0.5296  0.1636
  673MOL0     H90805  12.304   0.573   0.896 -1.7865  1.3073 -0.4455
  673MOL0     H90806  12.480   0.500   1.105  0.3648  0.1926  4.3048
  673MOL0     H90807  12.696   0.474   1.212 -2.5155 -0.7640  0.5420
  673MOL0     H90808  12.829   0.586   1.178 -0.9158  0.7888 -2.1551
  673MOL0     H90809  12.609   0.605   1.384 -0.5102  0.3376 -1.8161
  673MOL0     H90810  12.728   0.734   1.372  1.0575  0.3178  1.2009
  673MOL0     H90811  12.912   0.546   1.427 -0.3778  0.2537 -0.7775
  673MOL0     H90812  12.773   0.440   1.454 -1.4170  0.6076  3.2880
  673MOL0     H90813  12.807   0.517   1.664 -0.0002 -1.8996 -0.4405
  673MOL0     H90814  12.654   0.592   1.604  1.3341  1.5801  0.6842
  673MOL0     H90815  12.849   0.968   1.670 -3.8461  4.1812 -2.5581
  673MOL0     H90816  12.843   1.167   1.906 -3.0328  0.7298  2.3926
  673MOL0     H90817  12.842   1.162   1.730  0.3035  1.1484  0.3003
  673MOL0     H90818  12.703   1.228   1.820 -0.1752 -0.4826 -2.4126
  673MOL0     H90819  12.329   1.166   2.061 -2.2277 -0.8989  2.2503
  673MOL0     H90820  12.180   1.290   2.226  0.6331  2.8397  0.5509
  673MOL0     H90821  12.368   1.603   2.379  0.4448  2.3686  0.7759
  673MOL0     H90822  12.215   1.641   2.451  0.6176  1.3566  1.5770
  673MOL0     H90823  12.401   1.478   2.605  2.2969  1.7230 -0.1397
  673MOL0     H90824  12.384   1.648   2.628  0.9721 -2.4379  2.0345
  673MOL0     H90825  12.247   1.510   2.775  1.9802 -0.3310 -0.7820
  673MOL0     H90826  12.139   1.475   2.632  0.3000  0.7518 -0.5081
  673MOL0     H90827  12.073   1.711   2.617 -2.9464  1.9376  1.6372
  673MOL0     H90828  12.041   1.654   2.777  1.0290  3.1043  2.0457
  673MOL0     H90829  12.153   1.876   2.715  1.0063 -1.1077 -2.3245
  673MOL0     H90830  12.304   1.783   2.759 -0.3414 -1.2016 -0.4564
  673MOL0     H90831  12.191   1.907   2.961 -1.7240  1.1943  1.2019
  673MOL0     H90832  12.053   1.793   2.929 -0.4613  1.0387 -3.2867
  673MOL0     H90833  12.341   1.689   2.988  1.3691  1.5522  1.4876
  673MOL0     H90834  12.176   1.599   3.008 -2.6246  1.2812 -0.4161
  673MOL0     H90835  12.090   1.745   3.147  0.6366 -0.0749 -2.2092
  673MOL0     H90836  12.247   1.828   3.164 -0.1638  0.0975 -0.9474
  673MOL0     H90837  12.532   1.435   2.411 -1.0477 -0.2147  0.6598
  673MOL0     H90838  12.666   1.358   2.252  0.3239 -0.8199  0.4653
  673MOL0     H90839  12.507   0.774   1.948  4.1867 -2.8558  1.5626
  673MOL0     H90840  12.611   0.643   1.805 -0.9271 -0.6449 -2.7422
  673MOL0     H90841  11.554   0.411   1.598  1.3044 -2.9550  0.5638
  673MOL0     H90842  11.339   0.449   1.701  1.3208 -4.7725  0.3132
  673MOL0     H90843  11.108   0.754   1.966 -1.4059 -0.7819 -3.0474
  673MOL0     H90844  10.911   0.846   2.082  0.2643  0.5791  0.2151
  673MOL0     H90845  10.731   0.877   2.224  0.0386  1.1561 -0.8251
  673MOL0     H90846  10.644   0.826   2.084  0.6202 -2.9221  0.2657
  673MOL0     H90847  10.442   0.743   2.215 -0.2007 -2.6033  1.9626
  673MOL0     H90848  10.459   0.907   2.248 -2.7582 -1.0629  1.7155
  673MOL0     H90849  10.588   0.714   2.445 -0.4257 -0.1653  0.1645
  673MOL0     H90850  10.432   0.740   2.444 -0.1219  0.5426 -1.0432
  673MOL0     H90851  10.644   0.973   2.449  0.4858 -1.4641 -0.6037
  673MOL0     H90852  10.573   0.894   2.601 -2.5434  2.7005  2.0183
  673MOL0     H90853  10.325   1.206   2.538  0.8712 -0.3816 -1.0315
  673MOL0     H90854  10.796   0.450   2.175 -0.4212  1.1163  0.4644
  673MOL0     H90855  11.001   0.362   2.074 -0.0163 -0.3157 -2.0029
  674MOL0     O90856   1.047   4.253   4.518  0.3889  0.1852 -0.3991
  674MOL0     C90857   1.163   4.241   4.516 -0.1556  0.1836 -0.1538
  674MOL0     O90858   1.236   4.145   4.455  0.2901 -0.0953  0.1946
  674MOL0     C90859   1.166   4.052   4.392  0.6509 -0.2653 -0.1755
  674MOL0     C90860   1.080   3.960   4.457 -0.5417 -0.7404 -0.7230
  674MOL0     C90861   1.029   3.859   4.384  0.4925 -0.2979  0.9776
  674MOL0     C90862   1.052   3.835   4.251  0.0206 -0.2765 -0.2283
  674MOL0     O90863   0.979   3.746   4.186  0.0042  0.9152 -0.1072
  674MOL0     C90864   0.979   3.747   4.041  0.0210 -1.8636 -0.4697
  674MOL0     C90865   0.864   3.663   3.987 -0.0374 -0.0681 -0.1139
  674MOL0     C90866   0.925   3.523   4.007  0.0117 -0.0996  0.3811
  674MOL0     C90867   1.038   3.481   3.908 -0.4713  0.1456  0.7581
  674MOL0     C90868   0.993   3.479   3.756  0.3203  0.4222  0.0069
  674MOL0     C90869   1.115   3.453   3.671  0.5341 -0.2217 -0.5774
  674MOL0     C90870   1.081   3.456   3.526 -0.4559  0.6650 -0.1074
  674MOL0     C90871   1.200   3.431   3.449 -0.0117 -0.1200 -0.5723
  674MOL0     N90872   1.272   3.556   3.424 -0.7179 -0.1637 -0.1503
  674MOL0     C90873   1.238   3.662   3.342  0.1320  0.3200  0.4510
  674MOL0     C90874   1.347   3.746   3.327  0.1467 -0.7393  0.3904
  674MOL0     C90875   1.378   3.848   3.221  0.5540 -0.2199  0.8449
  674MOL0     C90876   1.382   3.981   3.288 -0.1605 -0.0360 -0.0632
  674MOL0     C90877   1.315   4.097   3.218 -0.2923 -0.4275 -0.4074
  674MOL0     C90878   1.268   4.204   3.322  0.9115  0.3508  0.8775
  674MOL0     O90879   1.220   4.312   3.247 -0.7120  0.4758  0.2122
  674MOL0     C90880   1.233   4.438   3.310  0.0033 -0.4417 -0.9232
  674MOL0     C90881   1.299   4.547   3.249  0.1466 -0.7127 -0.0440
  674MOL0     C90882   1.296   4.678   3.312  0.1461 -0.1134 -0.5158
  674MOL0     C90883   1.348   4.802   3.225  0.1437  0.0767  0.3327
  674MOL0     C90884   1.232   4.687   3.439  0.3935 -0.7283 -0.7561
  674MOL0     C90885   1.211   4.814   3.519 -0.3682  0.7176 -0.1736
  674MOL0     O90886   1.080   4.832   3.576  0.1370 -0.4700  0.6580
  674MOL0     C90887   1.071   4.959   3.642 -0.0377  0.5279  0.9083
  674MOL0     C90888   1.044   4.965   3.776  0.2986 -1.7321  0.4887
  674MOL0     C90889   1.042   5.079   3.848  0.3074  0.4468  0.1208
  674MOL0     C90890   1.052   5.198   3.778  0.1761 -0.2668  0.4586
  674MOL0     O90891   1.047   5.320   3.838 -0.3009  0.1238  0.3948
  674MOL0     C90892   0.983   5.337   3.968 -0.0785 -0.5794 -0.3246
  674MOL0     C90893   1.101   5.357   4.062  0.3333 -0.3765 -0.7805
  674MOL0     C90894   1.084   5.326   4.214 -0.5444 -1.5562  0.6116
  674MOL0     C90895   0.962   5.391   4.284 -0.7798  0.1420  0.0186
  674MOL0     C90896   0.983   5.363   4.434  0.2301 -0.0461 -0.2827
  674MOL0     C90897   0.857   5.424   4.508 -0.1333  0.7815 -0.2269
  674MOL0     C90898   0.863   5.434   4.662 -0.3367  0.6511 -0.2865
  674MOL0     C90899   0.921   5.566   4.707  0.3118 -0.1132  0.7328
  674MOL0    Cl90900   1.096   5.594   4.663  0.0882  0.0659 -0.5894
  674MOL0     C90901   1.072   5.201   3.633 -0.2550 -1.2211  0.1070
  674MOL0     C90902   1.081   5.081   3.568 -0.6336  0.4978  0.7583
  674MOL0     O90903   1.302   4.895   3.534  0.5671 -0.5382  0.0232
  674MOL0     C90904   1.169   4.575   3.499  0.0483  0.0126  0.5273
  674MOL0     C90905   1.163   4.450   3.437 -0.3697 -0.5241  0.5413
  674MOL0     N90906   1.445   3.694   3.403 -0.1039  0.8041  0.8818
  674MOL0     N90907   1.404   3.584   3.460 -0.3355 -0.0158 -0.1934
  674MOL0     C90908   1.144   3.925   4.184  0.1000  0.5229  0.4472
  674MOL0     C90909   1.196   4.034   4.255  0.5611 -0.4907 -0.7388
  674MOL0     C90910   1.235   4.346   4.585 -0.0166 -0.2773  0.7791
  674MOL0     C90911   1.357   4.394   4.537 -0.4843 -0.8900 -0.1650
  674MOL0     C90912   1.425   4.495   4.605  0.6547  0.4134  0.3367
  674MOL0     C90913   1.369   4.550   4.718 -0.2176 -0.7604  0.4086
  674MOL0     O90914   1.423   4.654   4.784 -0.4472 -0.5996 -0.3783
  674MOL0     C90915   1.546   4.717   4.750 -0.0229  0.0002  0.5186
  674MOL0     C90916   1.599   4.809   4.863 -0.3660 -0.1067  0.1846
  674MOL0     C90917   1.612   4.728   4.990  0.6634  0.2544 -0.1238
  674MOL0     C90918   1.705   4.815   5.098  0.1117 -0.1284  0.2284
  674MOL0     C90919   1.641   4.940   5.154  0.5184  0.0563 -0.8337
  674MOL0     C90920   1.582   5.045   5.188 -0.1296 -0.0432  1.0617
  674MOL0     C90921   1.244   4.499   4.764 -0.3539 -0.2306 -0.8762
  674MOL0     C90922   1.183   4.405   4.700  0.1359  0.2488  0.1894
  674MOL0     H90923   1.069   3.971   4.564  2.8185 -2.7707 -0.0001
  674MOL0     H90924   0.963   3.788   4.434 -1.7337  3.2686  3.5615
  674MOL0     H90925   0.955   3.850   4.013 -0.0553 -1.1079  2.0933
  674MOL0     H90926   1.081   3.732   4.004  0.1259  1.0743 -1.6790
  674MOL0     H90927   0.781   3.680   4.056  0.4687  0.0802  0.4723
  674MOL0     H90928   0.830   3.694   3.888 -0.1169 -0.3124 -0.1628
  674MOL0     H90929   0.957   3.510   4.110  0.6599 -0.4731  0.1419
  674MOL0     H90930   0.841   3.453   3.999  1.3371 -1.8336  0.9335
  674MOL0     H90931   1.126   3.546   3.911 -1.4616  1.5265  1.0476
  674MOL0     H90932   1.074   3.379   3.924 -2.1762 -0.8922 -1.5140
  674MOL0     H90933   0.925   3.394   3.748  2.0154 -0.9537 -0.1893
  674MOL0     H90934   0.951   3.577   3.731 -0.3315  0.7413  2.1362
  674MOL0     H90935   1.186   3.531   3.700  2.3022 -2.3303  1.1346
  674MOL0     H90936   1.153   3.354   3.697  2.7181  0.7072  0.0996
  674MOL0     H90937   1.010   3.373   3.516 -2.0506  1.9043  0.4729
  674MOL0     H90938   1.023   3.541   3.488  1.0160  0.7837 -2.2368
  674MOL0     H90939   1.156   3.394   3.356 -1.5957  3.2348 -1.2850
  674MOL0     H90940   1.262   3.355   3.498  1.4043  0.5888 -1.2035
  674MOL0     H90941   1.147   3.667   3.284 -0.0551 -0.9945  0.5944
  674MOL0     H90942   1.474   3.818   3.178 -0.0169 -1.9153  0.6872
  674MOL0     H90943   1.311   3.854   3.134  1.6606  4.8709 -0.0236
  674MOL0     H90944   1.488   4.000   3.307  0.5572 -1.6099 -2.1272
  674MOL0     H90945   1.329   3.973   3.384  0.0465 -1.3149 -0.0354
  674MOL0     H90946   1.223   4.054   3.174 -0.9699  1.1692 -0.6092
  674MOL0     H90947   1.388   4.137   3.148  0.7920 -0.6500  0.5795
  674MOL0     H90948   1.343   4.231   3.397  2.2870  0.8171 -0.5974
  674MOL0     H90949   1.185   4.157   3.375  0.6968  1.5427  1.6591
  674MOL0     H90950   1.346   4.530   3.152 -0.2888  2.3975 -0.8974
  674MOL0     H90951   1.450   4.785   3.188  0.7206  2.0324  0.9133
  674MOL0     H90952   1.275   4.828   3.149  1.6032  2.6435 -0.3251
  674MOL0     H90953   1.351   4.892   3.287  1.3883  2.0911 -2.4478
  674MOL0     H90954   1.024   4.881   3.841  3.1524 -0.5311  3.1799
  674MOL0     H90955   1.018   5.079   3.954  0.0956  0.7813  0.0748
  674MOL0     H90956   0.916   5.423   3.971  1.6182  0.9369 -2.4816
  674MOL0     H90957   0.922   5.249   3.990 -2.8885  1.8073  2.5343
  674MOL0     H90958   1.183   5.292   4.032  1.1528  0.7236 -0.9957
  674MOL0     H90959   1.132   5.461   4.049  1.0559 -0.5115 -0.1885
  674MOL0     H90960   1.180   5.361   4.255  1.0438 -4.4198 -0.3867
  674MOL0     H90961   1.097   5.218   4.222 -0.7548 -1.5652  0.8542
  674MOL0     H90962   0.958   5.500   4.271  0.8520  0.3250  0.8895
  674MOL0     H90963   0.867   5.348   4.250  0.4406 -2.7952  0.0615
  674MOL0     H90964   1.084   5.392   4.465  0.4103 -1.0516  0.1327
  674MOL0     H90965   0.978   5.258   4.465  0.1525  0.7269  2.5973
  674MOL0     H90966   0.830   5.518   4.459  1.9700  1.5020 -0.0713
  674MOL0     H90967   0.775   5.360   4.472  1.1854  0.0638 -2.0945
  674MOL0     H90968   0.922   5.353   4.706  0.3692  2.4435  2.2544
  674MOL0     H90969   0.759   5.430   4.697 -0.7279 -1.8718 -1.4604
  674MOL0     H90970   0.907   5.594   4.812  0.9434  2.5829  0.1783
  674MOL0     H90971   0.867   5.643   4.651 -2.9383 -1.7876  1.3026
  674MOL0     H90972   1.069   5.297   3.583 -0.1948 -1.3931 -0.2278
  674MOL0     H90973   1.092   5.082   3.460 -1.6364  0.9375  0.6447
  674MOL0     H90974   1.136   4.582   3.603 -2.2892  2.2046 -0.2778
  674MOL0     H90975   1.115   4.368   3.489  1.2354 -1.3473  0.7890
  674MOL0     H90976   1.169   3.917   4.079 -1.1630  0.4485  0.1241
  674MOL0     H90977   1.268   4.098   4.205  0.3205 -0.8135 -1.5043
  674MOL0     H90978   1.402   4.365   4.443 -1.3465 -0.8129 -0.6038
  674MOL0     H90979   1.508   4.536   4.548  0.0686 -2.3384 -2.7666
  674MOL0     H90980   1.621   4.642   4.723 -0.1168  0.0370  0.1457
  674MOL0     H90981   1.537   4.774   4.658  0.2034  0.9974  1.1045
  674MOL0     H90982   1.539   4.899   4.878  1.7516  1.8252 -2.2129
  674MOL0     H90983   1.694   4.850   4.827 -0.3463 -0.7771 -0.5502
  674MOL0     H90984   1.652   4.629   4.963 -1.2058 -1.9146  4.1731
  674MOL0     H90985   1.524   4.686   5.039  0.9951  0.5932  0.7735
  674MOL0     H90986   1.802   4.837   5.053  1.9996 -2.4608  2.8098
  674MOL0     H90987   1.710   4.744   5.181 -0.9474 -0.2633  0.1992
  674MOL0     H90988   1.531   5.131   5.226 -1.0666 -0.5063  0.8881
  674MOL0     H90989   1.207   4.557   4.848  3.5137  2.0535 -0.5112
  674MOL0     H90990   1.087   4.371   4.737 -1.8684  3.4418 -1.6206
  675MOL0     O90991   6.638   3.484   3.717 -0.0879 -0.9480 -0.0834
  675MOL0     C90992   6.726   3.516   3.798 -0.1436 -0.4078  0.2798
  675MOL0     O90993   6.808   3.631   3.785 -0.9179  0.2721  0.3706
  675MOL0     C90994   6.819   3.691   3.656  1.0257  0.5452  0.3946
  675MOL0     C90995   6.837   3.627   3.527 -0.4238  0.2685  0.3627
  675MOL0     C90996   6.847   3.701   3.409 -1.1063 -0.5667  0.9722
  675MOL0     C90997   6.868   3.848   3.425 -0.1362  0.1344 -0.0752
  675MOL0     O90998   6.904   3.900   3.308 -0.3314  0.5181  0.6313
  675MOL0     C90999   6.952   4.033   3.292  0.0583 -0.7320 -0.1797
  675MOL0     C91000   6.976   4.051   3.144  0.7987  0.3435 -0.4812
  675MOL0     C91001   7.039   4.196   3.121 -0.3454 -0.5000 -0.4331
  675MOL0     C91002   6.937   4.278   3.043  0.2191  0.1312 -0.6877
  675MOL0     C91003   6.987   4.417   3.014 -0.1275 -0.2293  0.8348
  675MOL0     C91004   7.084   4.419   2.893  0.2877  0.1840 -0.0854
  675MOL0     C91005   7.136   4.559   2.857  0.3715  0.0253  0.1338
  675MOL0     C91006   7.199   4.561   2.721 -1.4664 -0.4828  0.0118
  675MOL0     N91007   7.212   4.707   2.686 -1.2513 -0.1133  0.2149
  675MOL0     C91008   7.324   4.780   2.707  0.8631  0.3570 -0.3619
  675MOL0     C91009   7.285   4.907   2.668  0.1388 -0.7262  0.9946
  675MOL0     C91010   7.377   5.025   2.665 -0.5280  0.9873 -0.6438
  675MOL0     C91011   7.447   5.033   2.527  0.7075  0.3075 -0.1746
  675MOL0     C91012   7.535   5.159   2.514  0.9746 -0.0657  0.5716
  675MOL0     C91013   7.685   5.138   2.541  0.6019  0.7544  0.2348
  675MOL0     O91014   7.750   5.267   2.541 -0.0650 -0.0172 -0.1127
  675MOL0     C91015   7.844   5.295   2.640 -0.5761  0.6287  0.0495
  675MOL0     C91016   7.925   5.200   2.707 -0.6011  0.0158 -0.0387
  675MOL0     C91017   8.030   5.236   2.797  0.2663 -0.2828 -0.1832
  675MOL0     C91018   8.114   5.128   2.843  1.2418  1.1133 -0.2326
  675MOL0     C91019   8.042   5.378   2.831 -1.2785  0.9430  0.5161
  675MOL0     C91020   8.154   5.418   2.922 -0.6658 -0.3047 -2.1255
  675MOL0     O91021   8.209   5.547   2.902 -0.7315 -0.1124 -0.4567
  675MOL0     C91022   8.273   5.616   3.006  0.3585  0.0852 -0.4772
  675MOL0     C91023   8.367   5.714   2.978 -0.3587  0.6092 -0.8757
  675MOL0     C91024   8.420   5.807   3.071  0.6495  0.1017 -0.0832
  675MOL0     C91025   8.374   5.791   3.205 -0.3747  0.7556  0.5094
  675MOL0     O91026   8.421   5.874   3.301 -0.1334 -0.1568 -0.3953
  675MOL0     C91027   8.340   5.896   3.414  0.5369  0.2929  0.4145
  675MOL0     C91028   8.405   5.996   3.501 -0.3684  0.3496 -0.5661
  675MOL0     C91029   8.463   6.116   3.426  0.0042  0.4814  0.3952
  675MOL0     C91030   8.374   6.190   3.326  0.6901 -0.3622 -0.3443
  675MOL0     C91031   8.247   6.268   3.376 -0.3854  0.1329 -0.0131
  675MOL0     C91032   8.254   6.349   3.508  0.4207 -0.1817  0.1719
  675MOL0     C91033   8.314   6.484   3.487  1.0494 -0.1686 -0.3801
  675MOL0     C91034   8.467   6.478   3.479  1.0199 -0.5251 -0.6791
  675MOL0    Cl91035   8.522   6.645   3.422  0.0863 -0.1807  0.3908
  675MOL0     C91036   8.287   5.684   3.236  0.7891  0.4882  0.3276
  675MOL0     C91037   8.232   5.602   3.138 -0.7041 -0.5361 -0.9764
  675MOL0     O91038   8.178   5.343   3.018 -0.3122  0.5529  0.2558
  675MOL0     C91039   7.954   5.467   2.772 -0.2143 -0.4290 -0.0346
  675MOL0     C91040   7.864   5.430   2.676 -0.5801 -0.5054 -0.1089
  675MOL0     N91041   7.151   4.909   2.633 -0.2903 -0.2231  0.4065
  675MOL0     N91042   7.118   4.784   2.637  0.2987  0.1530  0.2704
  675MOL0     C91043   6.855   3.913   3.549  0.0075  0.0921 -0.4038
  675MOL0     C91044   6.821   3.832   3.657  0.6955 -0.1106 -0.4306
  675MOL0     C91045   6.742   3.431   3.917 -0.1087 -0.1488 -1.0246
  675MOL0     C91046   6.821   3.472   4.015  0.0844 -0.1341 -1.1033
  675MOL0     C91047   6.855   3.394   4.123 -0.2205 -0.3359  0.1179
  675MOL0     C91048   6.778   3.277   4.149  0.1793  0.2513 -0.7018
  675MOL0     O91049   6.788   3.196   4.257 -0.8401 -0.1402 -0.0298
  675MOL0     C91050   6.897   3.201   4.346 -0.2239  0.3404  0.4330
  675MOL0     C91051   6.894   3.328   4.435 -0.4990 -0.0955 -0.8766
  675MOL0     C91052   6.804   3.287   4.552  1.1182 -0.9451  0.1304
  675MOL0     C91053   6.744   3.414   4.624 -0.0573  0.3315  0.0032
  675MOL0     C91054   6.846   3.472   4.707 -0.2779 -0.3884 -0.4990
  675MOL0     C91055   6.926   3.525   4.778 -0.2886  0.1019 -0.5866
  675MOL0     C91056   6.678   3.245   4.057  0.7581  0.2700 -0.5003
  675MOL0     C91057   6.670   3.313   3.935 -1.0568 -0.1038  0.4604
  675MOL0     H91058   6.832   3.519   3.512 -0.8025 -0.0571  2.5060
  675MOL0     H91059   6.858   3.667   3.307 -3.1111  0.0577  0.4954
  675MOL0     H91060   6.868   4.089   3.332 -0.4968 -1.9199  0.3785
  675MOL0     H91061   7.040   4.045   3.355 -0.3929  1.3848  0.1136
  675MOL0     H91062   7.056   3.981   3.119  1.5698  1.5017 -1.3669
  675MOL0     H91063   6.892   4.036   3.076  0.0790  1.5431  0.1163
  675MOL0     H91064   7.067   4.254   3.210  1.4743  0.9589 -1.9009
  675MOL0     H91065   7.128   4.181   3.060  0.3608  1.5011  0.0374
  675MOL0     H91066   6.920   4.214   2.956 -1.0715  0.7536 -0.9251
  675MOL0     H91067   6.835   4.284   3.081 -0.7422 -1.8867 -2.7016
  675MOL0     H91068   6.905   4.483   2.984  0.8228  1.3870  1.6126
  675MOL0     H91069   7.031   4.458   3.106  0.8383 -0.6561  0.5779
  675MOL0     H91070   7.178   4.363   2.901 -0.5902 -1.5138 -1.0269
  675MOL0     H91071   7.040   4.379   2.801 -0.2442  4.0135 -1.7209
  675MOL0     H91072   7.054   4.628   2.877 -1.3249 -2.2179  1.3720
  675MOL0     H91073   7.216   4.591   2.925 -0.4838  1.3452  0.5673
  675MOL0     H91074   7.143   4.500   2.651  1.3442  0.6647 -3.5372
  675MOL0     H91075   7.297   4.514   2.738 -1.2953  0.5264  2.3075
  675MOL0     H91076   7.422   4.756   2.746 -0.4153 -1.8156  1.8211
  675MOL0     H91077   7.318   5.116   2.686  2.1588  2.2538  2.1086
  675MOL0     H91078   7.450   5.007   2.743  1.9359 -1.9166 -3.3619
  675MOL0     H91079   7.363   5.045   2.458  0.2359  3.0426  0.7402
  675MOL0     H91080   7.503   4.943   2.503 -0.8231 -0.6659 -0.2329
  675MOL0     H91081   7.496   5.245   2.569  1.6828  2.9955 -3.3030
  675MOL0     H91082   7.507   5.190   2.413 -2.8107  0.1723  1.5322
  675MOL0     H91083   7.715   5.080   2.454 -2.0962  0.8752 -0.8545
  675MOL0     H91084   7.698   5.074   2.629 -0.7566 -0.9943 -0.7529
  675MOL0     H91085   7.916   5.095   2.684  3.2082 -0.4890  0.2005
  675MOL0     H91086   8.214   5.156   2.876  1.8479 -2.0053  0.9476
  675MOL0     H91087   8.070   5.078   2.930  1.9250  0.6267 -0.1658
  675MOL0     H91088   8.118   5.050   2.767 -2.0165 -1.2190  1.7090
  675MOL0     H91089   8.398   5.719   2.875  2.1946 -1.0712 -0.2753
  675MOL0     H91090   8.485   5.891   3.049  2.4126 -0.5743  2.1339
  675MOL0     H91091   8.239   5.934   3.393 -0.1531 -0.1663  2.6047
  675MOL0     H91092   8.323   5.802   3.468 -0.5281  0.4467  0.3727
  675MOL0     H91093   8.326   6.040   3.562 -0.5960 -1.0097  0.1513
  675MOL0     H91094   8.489   5.964   3.563  1.2261  5.0797  0.1525
  675MOL0     H91095   8.547   6.089   3.361 -1.4860 -1.3027 -0.9016
  675MOL0     H91096   8.511   6.194   3.486  0.9366 -1.3466  2.1358
  675MOL0     H91097   8.436   6.267   3.278 -0.0853 -1.6653 -3.6610
  675MOL0     H91098   8.333   6.134   3.242  0.7928  0.3225 -0.8599
  675MOL0     H91099   8.172   6.192   3.402  0.5683  0.2738  3.6114
  675MOL0     H91100   8.196   6.333   3.304  0.2010  2.0366  1.2248
  675MOL0     H91101   8.150   6.349   3.539  0.9079 -0.9930  1.9403
  675MOL0     H91102   8.295   6.288   3.589 -0.1487 -2.4016 -1.1402
  675MOL0     H91103   8.289   6.544   3.575  1.4918 -2.1725  1.2136
  675MOL0     H91104   8.270   6.525   3.396  1.9803 -2.5473 -1.9967
  675MOL0     H91105   8.509   6.401   3.414  2.1652 -1.6631  1.3142
  675MOL0     H91106   8.505   6.458   3.580  0.9557  0.2434 -0.4977
  675MOL0     H91107   8.246   5.672   3.335 -0.4401  1.8766  0.0262
  675MOL0     H91108   8.176   5.515   3.172  0.1856 -0.7114  0.1255
  675MOL0     H91109   7.971   5.573   2.788 -0.8604 -0.6842  3.1738
  675MOL0     H91110   7.818   5.511   2.620 -0.8757 -0.6324 -0.0480
  675MOL0     H91111   6.886   4.015   3.569 -2.8419  1.4779 -2.3202
  675MOL0     H91112   6.794   3.868   3.756 -0.4360 -1.6077 -0.1632
  675MOL0     H91113   6.886   3.558   4.004  2.6623 -2.2535 -4.3329
  675MOL0     H91114   6.934   3.422   4.193 -3.5613  1.8748  3.4248
  675MOL0     H91115   6.907   3.105   4.396 -2.4162 -0.2530 -0.1656
  675MOL0     H91116   6.982   3.203   4.277  1.6875 -2.0367  2.5375
  675MOL0     H91117   6.863   3.427   4.401  0.0499  0.9349  1.4296
  675MOL0     H91118   6.993   3.345   4.477 -0.9343  1.1535 -0.3010
  675MOL0     H91119   6.842   3.218   4.628  0.0051 -1.6159  0.1015
  675MOL0     H91120   6.726   3.226   4.505  0.8297 -0.0143 -0.6098
  675MOL0     H91121   6.668   3.379   4.693  0.9255 -3.9564 -0.8067
  675MOL0     H91122   6.707   3.482   4.547  1.1753 -1.6486 -2.5091
  675MOL0     H91123   7.001   3.581   4.831 -0.1489  1.5160 -2.1561
  675MOL0     H91124   6.607   3.166   4.077  1.1064  0.1134  0.1466
  675MOL0     H91125   6.599   3.276   3.861  0.5706 -2.9613  0.1913
  676MOL0     O91126   0.563   3.747   0.440 -0.2571 -0.8386  0.0837
  676MOL0     C91127   0.675   3.791   0.418  0.1294  0.5258 -0.6709
  676MOL0     O91128   0.711   3.911   0.354 -0.3933 -0.0275 -0.0981
  676MOL0     C91129   0.624   4.008   0.355  0.6151 -0.3930  0.0610
  676MOL0     C91130   0.506   4.006   0.273  0.8269  0.1478  0.8968
  676MOL0     C91131   0.420   4.115   0.260 -0.0045  0.2631  0.4725
  676MOL0     C91132   0.452   4.235   0.320 -0.1571 -0.7906  0.0578
  676MOL0     O91133   0.373   4.352   0.299 -0.4891  0.8506 -0.3776
  676MOL0     C91134   0.316   4.404   0.422 -0.3219 -0.3443 -0.2336
  676MOL0     C91135   0.275   4.548   0.396  0.4650  0.0767 -0.9099
  676MOL0     C91136   0.217   4.614   0.522  0.0985 -0.6664  0.3660
  676MOL0     C91137   0.194   4.771   0.490  0.5339 -0.0479  0.2849
  676MOL0     C91138   0.049   4.820   0.465  0.2215  0.4565  0.2893
  676MOL0     C91139  -0.051   4.786   0.584 -0.7081 -0.3796 -0.3959
  676MOL0     C91140  -0.200   4.801   0.546  0.8734 -0.4467 -0.3068
  676MOL0     C91141  -0.269   4.677   0.506 -0.5279  0.2792  0.7864
  676MOL0     N91142  -0.214   4.606   0.388 -0.3204  0.0780  0.2325
  676MOL0     C91143  -0.268   4.615   0.263 -0.0432  0.3208  0.1722
  676MOL0     C91144  -0.166   4.573   0.181 -0.3097 -0.0947  0.2206
  676MOL0     C91145  -0.151   4.584   0.034  0.1522  0.5781 -0.4209
  676MOL0     C91146  -0.091   4.719  -0.004 -0.8764  0.9417 -0.5391
  676MOL0     C91147  -0.187   4.847   0.011 -0.5457  0.0032 -0.9676
  676MOL0     C91148  -0.146   4.931   0.123 -0.0962  0.2945 -0.3200
  676MOL0     O91149  -0.208   5.059   0.106 -0.2212 -0.4446 -0.0331
  676MOL0     C91150  -0.191   5.155   0.198 -0.3254 -1.0156 -0.0537
  676MOL0     C91151  -0.149   5.132   0.338 -0.5184  0.4339  0.1699
  676MOL0     C91152  -0.158   5.223   0.448  1.1383  0.5477  0.7452
  676MOL0     C91153  -0.106   5.169   0.582 -0.0396  0.3368  0.0364
  676MOL0     C91154  -0.215   5.349   0.417 -0.4738 -0.2171 -0.3159
  676MOL0     C91155  -0.238   5.448   0.518  0.2445  0.0726 -0.1696
  676MOL0     O91156  -0.304   5.565   0.484 -0.3617 -0.5217 -0.1796
  676MOL0     C91157  -0.338   5.660   0.581 -0.0422 -1.0301  0.4826
  676MOL0     C91158  -0.311   5.786   0.538 -0.3674  0.1736  0.2708
  676MOL0     C91159  -0.330   5.898   0.634  0.3293 -1.1354 -0.8225
  676MOL0     C91160  -0.401   5.871   0.758 -0.9083  0.5506  0.5580
  676MOL0     O91161  -0.425   5.972   0.844 -0.5766 -0.4180  0.1447
  676MOL0     C91162  -0.319   6.072   0.855 -0.1183  0.0854 -0.3709
  676MOL0     C91163  -0.367   6.149   0.984 -0.6659 -0.0264 -0.4847
  676MOL0     C91164  -0.480   6.251   0.973  0.1765  0.8664 -0.3797
  676MOL0     C91165  -0.414   6.383   0.981 -0.4604  0.2538 -0.5319
  676MOL0     C91166  -0.530   6.486   1.013 -0.1110 -0.5634  0.0917
  676MOL0     C91167  -0.471   6.628   1.013  0.2402 -0.2348 -0.3240
  676MOL0     C91168  -0.599   6.722   1.031 -0.1194 -1.0834 -0.1871
  676MOL0     C91169  -0.549   6.861   1.050 -0.2353  0.4235  0.5608
  676MOL0    Cl91170  -0.690   6.967   1.098  0.3598 -0.0624  0.1293
  676MOL0     C91171  -0.433   5.734   0.787 -0.5378  0.3540 -0.4461
  676MOL0     C91172  -0.396   5.629   0.701 -0.4828 -0.2402 -0.1584
  676MOL0     O91173  -0.220   5.414   0.634 -0.4193  0.3833 -0.6559
  676MOL0     C91174  -0.253   5.378   0.282  0.5718  0.5336  0.6208
  676MOL0     C91175  -0.241   5.284   0.173  0.1106 -0.0519 -0.7948
  676MOL0     N91176  -0.055   4.534   0.260  0.2557  0.9906 -0.0375
  676MOL0     N91177  -0.088   4.547   0.379  0.2642 -0.4726 -0.0546
  676MOL0     C91178   0.563   4.242   0.410  0.0466  0.1089 -0.5389
  676MOL0     C91179   0.653   4.125   0.426 -0.0580  0.9878  0.4040
  676MOL0     C91180   0.791   3.711   0.484  0.5897  0.0251  0.2481
  676MOL0     C91181   0.766   3.588   0.550  0.4027 -0.6892 -0.5510
  676MOL0     C91182   0.879   3.519   0.610  0.5010  0.8331 -0.7290
  676MOL0     C91183   1.010   3.568   0.595 -0.8733  0.5649  0.6140
  676MOL0     O91184   1.130   3.511   0.641  0.3526  0.4956 -0.7627
  676MOL0     C91185   1.132   3.373   0.692 -0.1987 -0.5411 -0.1597
  676MOL0     C91186   1.265   3.346   0.763  0.4496 -0.1079  0.4520
  676MOL0     C91187   1.291   3.448   0.878  0.2143 -0.0432  0.1689
  676MOL0     C91188   1.404   3.549   0.832 -0.0510  0.4684  1.0086
  676MOL0     C91189   1.532   3.478   0.818  0.4253 -0.2207  1.2115
  676MOL0     C91190   1.633   3.422   0.834 -0.4991 -0.1958 -0.6471
  676MOL0     C91191   1.026   3.690   0.526 -0.0278 -0.1586 -0.2738
  676MOL0     C91192   0.918   3.765   0.472  0.0157  1.3167  0.2519
  676MOL0     H91193   0.484   3.913   0.220 -0.5179  0.4446  0.8967
  676MOL0     H91194   0.329   4.099   0.203  0.3081  1.2851 -0.3497
  676MOL0     H91195   0.224   4.350   0.449 -1.8003  3.4609  3.4836
  676MOL0     H91196   0.385   4.397   0.507 -0.4732  1.0833  0.0307
  676MOL0     H91197   0.360   4.611   0.368  0.7108  0.3884  0.4726
  676MOL0     H91198   0.199   4.547   0.317 -0.1282 -1.7151 -0.3597
  676MOL0     H91199   0.122   4.573   0.556  1.4872 -1.0830  4.1434
  676MOL0     H91200   0.286   4.598   0.605  0.1354  0.5855  0.5968
  676MOL0     H91201   0.244   4.819   0.575  2.0457 -0.4820 -0.3230
  676MOL0     H91202   0.252   4.799   0.402 -0.5598 -0.7953 -0.7093
  676MOL0     H91203   0.048   4.929   0.456  0.2270  0.3693 -0.8793
  676MOL0     H91204   0.022   4.778   0.367  4.3492 -2.3583  0.1151
  676MOL0     H91205  -0.022   4.691   0.630  1.7458 -0.4640 -1.9523
  676MOL0     H91206  -0.026   4.862   0.659 -1.0355  1.2954 -1.9137
  676MOL0     H91207  -0.256   4.830   0.635  1.9683 -4.2756  1.8653
  676MOL0     H91208  -0.228   4.869   0.465 -0.7213  0.6159  1.0652
  676MOL0     H91209  -0.366   4.708   0.467  0.2682 -0.8051 -2.3471
  676MOL0     H91210  -0.272   4.607   0.590  1.9251 -1.1118 -0.1596
  676MOL0     H91211  -0.368   4.633   0.226  0.1986  0.4085 -0.4528
  676MOL0     H91212  -0.083   4.501   0.015  0.2840  0.3834  0.7918
  676MOL0     H91213  -0.244   4.551  -0.013  2.6236 -0.0588 -5.5043
  676MOL0     H91214  -0.049   4.710  -0.104  4.2974 -0.5056  1.4299
  676MOL0     H91215  -0.004   4.725   0.062  0.7567 -3.1354 -1.9714
  676MOL0     H91216  -0.287   4.806   0.029  0.3059 -2.4317 -1.3478
  676MOL0     H91217  -0.200   4.888  -0.089  1.6780  1.0922 -0.8891
  676MOL0     H91218  -0.038   4.949   0.128 -0.6732  4.5131  2.4212
  676MOL0     H91219  -0.178   4.868   0.207 -0.3533 -1.4688 -1.6877
  676MOL0     H91220  -0.110   5.036   0.369  0.6819  1.0181  0.5472
  676MOL0     H91221  -0.200   5.154   0.637  0.8763  0.3307  1.6495
  676MOL0     H91222  -0.062   5.070   0.570 -0.3102  0.3639 -1.4188
  676MOL0     H91223  -0.038   5.241   0.627  0.2437  1.6411 -2.3108
  676MOL0     H91224  -0.273   5.804   0.438  0.0802 -1.4552  0.1139
  676MOL0     H91225  -0.303   5.999   0.604 -2.3046 -0.6078 -1.6771
  676MOL0     H91226  -0.224   6.026   0.883 -0.5856  0.2531  1.6429
  676MOL0     H91227  -0.311   6.143   0.773  1.8446 -0.9898 -1.1662
  676MOL0     H91228  -0.406   6.066   1.045 -3.5017  1.0510 -0.6984
  676MOL0     H91229  -0.284   6.188   1.042 -0.3398  0.9902 -1.5992
  676MOL0     H91230  -0.564   6.240   1.043  1.2098 -0.1080  0.7586
  676MOL0     H91231  -0.532   6.224   0.881 -0.9646 -1.5242  0.8822
  676MOL0     H91232  -0.339   6.391   1.060 -0.2041  2.8779 -0.9420
  676MOL0     H91233  -0.371   6.401   0.882 -1.5568  0.7946 -0.9295
  676MOL0     H91234  -0.568   6.450   1.109  3.1667 -0.5667  1.5242
  676MOL0     H91235  -0.604   6.487   0.932  0.2586 -1.6389 -0.2748
  676MOL0     H91236  -0.412   6.614   1.104  0.7455 -0.3931 -0.6746
  676MOL0     H91237  -0.405   6.643   0.928  0.6036 -0.7728 -0.1459
  676MOL0     H91238  -0.666   6.695   1.112 -0.5570 -0.0579 -0.2015
  676MOL0     H91239  -0.669   6.718   0.947 -1.8003 -1.1909  1.1646
  676MOL0     H91240  -0.506   6.910   0.962 -1.9426  2.2070  0.6476
  676MOL0     H91241  -0.469   6.864   1.125 -1.8969 -3.6410  2.8273
  676MOL0     H91242  -0.489   5.727   0.880 -2.9532  1.8457 -1.6979
  676MOL0     H91243  -0.418   5.526   0.727  0.0756  0.0686  1.6803
  676MOL0     H91244  -0.298   5.474   0.256 -1.4359 -0.9933 -2.1086
  676MOL0     H91245  -0.280   5.300   0.073  1.0942  1.1917 -0.9894
  676MOL0     H91246   0.595   4.322   0.476 -2.3904 -0.4428  1.4608
  676MOL0     H91247   0.729   4.126   0.504 -0.5573 -3.8758  1.2794
  676MOL0     H91248   0.660   3.568   0.554  0.0941  0.8152 -0.7428
  676MOL0     H91249   0.864   3.424   0.662 -5.2853  1.4404 -0.7050
  676MOL0     H91250   1.043   3.357   0.753  0.6989 -1.7385  0.8760
  676MOL0     H91251   1.118   3.310   0.604 -1.6965  1.4674 -1.4721
  676MOL0     H91252   1.350   3.341   0.696  1.9518  0.6134  2.2297
  676MOL0     H91253   1.245   3.248   0.809  2.5526 -0.1212  1.4501
  676MOL0     H91254   1.320   3.402   0.973  0.6844 -0.7690 -0.3107
  676MOL0     H91255   1.199   3.505   0.890  0.5718  0.5620  0.0617
  676MOL0     H91256   1.419   3.630   0.904 -1.3557  0.7301  1.0102
  676MOL0     H91257   1.376   3.593   0.736  0.5378 -3.4094 -1.1488
  676MOL0     H91258   1.731   3.382   0.850 -0.1923  0.8791  0.2069
  676MOL0     H91259   1.129   3.717   0.505  0.0022  0.1343  0.2407
  676MOL0     H91260   0.923   3.857   0.414 -3.2401  1.3254 -0.2091
  677MOL0     O91261  11.188   9.590   7.720 -0.2386  0.6118 -0.5153
  677MOL0     C91262  11.299   9.532   7.736  0.0685  0.4170 -0.2967
  677MOL0     O91263  11.421   9.577   7.705  0.4374  0.3730  0.6108
  677MOL0     C91264  11.433   9.711   7.699 -0.8497  0.4070  0.2249
  677MOL0     C91265  11.490   9.776   7.583  0.0301  0.8899 -1.6684
  677MOL0     C91266  11.547   9.905   7.599 -0.4805 -0.5167 -0.3988
  677MOL0     C91267  11.539   9.972   7.727 -0.2867 -0.2551  0.1580
  677MOL0     O91268  11.609  10.086   7.732 -0.0777 -0.2893  0.1856
  677MOL0     C91269  11.611  10.174   7.847 -0.2462  1.3058 -0.4432
  677MOL0     C91270  11.684  10.292   7.801 -0.6368  1.0076 -0.4345
  677MOL0     C91271  11.692  10.385   7.919  0.6360  0.5555 -0.4409
  677MOL0     C91272  11.571  10.477   7.918 -0.5607 -0.0306 -0.0943
  677MOL0     C91273  11.593  10.587   8.024 -0.1416  1.5274 -0.3556
  677MOL0     C91274  11.459  10.675   8.022 -0.0871  0.9818 -0.1784
  677MOL0     C91275  11.480  10.804   8.102  0.1680 -0.0122 -0.1351
  677MOL0     C91276  11.342  10.868   8.106  0.8625 -0.2141  0.0890
  677MOL0     N91277  11.324  10.975   8.206  0.3336  0.2995  0.4781
  677MOL0     C91278  11.392  11.100   8.216  0.3838  0.2201 -0.3481
  677MOL0     C91279  11.339  11.153   8.333  0.0840  0.2622  0.0310
  677MOL0     C91280  11.397  11.272   8.394 -0.4641  0.2059 -0.3767
  677MOL0     C91281  11.343  11.283   8.536 -1.2975 -0.4984  0.5456
  677MOL0     C91282  11.426  11.397   8.603  0.2900  0.1923 -0.9547
  677MOL0     C91283  11.386  11.538   8.579 -0.3134 -0.8945  0.1426
  677MOL0     O91284  11.292  11.588   8.670  0.7138 -0.1963  0.4155
  677MOL0     C91285  11.270  11.725   8.659 -0.0160 -0.7334 -0.1271
  677MOL0     C91286  11.161  11.781   8.584  0.9712  0.4255  0.4057
  677MOL0     C91287  11.133  11.918   8.566  0.0642  1.3532 -0.7952
  677MOL0     C91288  11.002  11.959   8.502  0.3251  1.0707  0.7772
  677MOL0     C91289  11.229  12.005   8.632 -0.3088 -0.5697  0.3320
  677MOL0     C91290  11.226  12.151   8.626 -0.1274  0.4233 -1.4193
  677MOL0     O91291  11.355  12.214   8.616  0.0673 -0.0533  0.1864
  677MOL0     C91292  11.362  12.334   8.580  0.3195 -0.1168 -0.1310
  677MOL0     C91293  11.279  12.382   8.483  0.1273 -0.3467 -0.3980
  677MOL0     C91294  11.255  12.518   8.445  0.5864 -0.1230  0.6815
  677MOL0     C91295  11.343  12.608   8.507  0.0299 -0.3209  0.2361
  677MOL0     O91296  11.345  12.748   8.484  0.0885 -0.2802  0.0379
  677MOL0     C91297  11.281  12.798   8.364 -0.0975 -0.0279 -0.2623
  677MOL0     C91298  11.278  12.953   8.365 -0.4541  0.1190  0.1877
  677MOL0     C91299  11.369  13.016   8.259 -0.3785  0.7110 -0.6199
  677MOL0     C91300  11.325  13.156   8.240 -1.0332 -0.0793 -0.3600
  677MOL0     C91301  11.200  13.160   8.147  0.2930  0.2009 -0.0315
  677MOL0     C91302  11.140  13.285   8.174 -0.1625 -0.2596  0.1994
  677MOL0     C91303  11.028  13.322   8.081 -0.3019  0.1358 -0.8627
  677MOL0     C91304  10.991  13.465   8.081 -0.6948 -0.0157  0.2852
  677MOL0    Cl91305  10.944  13.515   8.241  0.1341  0.1289 -0.2008
  677MOL0     C91306  11.430  12.560   8.608  0.3395  0.4513  0.1606
  677MOL0     C91307  11.437  12.421   8.655 -0.1290  0.2204  0.6422
  677MOL0     O91308  11.112  12.204   8.643 -0.2672 -0.6985 -0.4716
  677MOL0     C91309  11.338  11.954   8.703  0.9474 -0.3349 -1.7220
  677MOL0     C91310  11.356  11.818   8.716 -0.3039  0.7775  0.0308
  677MOL0     N91311  11.224  11.078   8.372 -0.4602  0.9496  0.0761
  677MOL0     N91312  11.223  10.973   8.302  0.3627  0.4623  0.2473
  677MOL0     C91313  11.474   9.918   7.831 -0.2132 -0.4227 -0.2327
  677MOL0     C91314  11.427   9.789   7.817 -0.2620 -0.5388 -0.5041
  677MOL0     C91315  11.295   9.393   7.797  0.4958  0.4876  1.8772
  677MOL0     C91316  11.411   9.314   7.809  0.0622 -0.3490  1.2298
  677MOL0     C91317  11.407   9.176   7.846  0.4437  0.5865 -0.4462
  677MOL0     C91318  11.287   9.126   7.892 -0.8017 -0.1969 -0.2964
  677MOL0     O91319  11.258   8.995   7.911  0.4388  0.3761 -0.0017
  677MOL0     C91320  11.366   8.897   7.917  0.3600 -0.4180  0.2930
  677MOL0     C91321  11.398   8.884   8.075  0.4759 -0.4775 -0.3024
  677MOL0     C91322  11.296   8.799   8.142 -0.5892  0.2076  0.7430
  677MOL0     C91323  11.315   8.804   8.294  0.1033 -0.4427  0.6368
  677MOL0     C91324  11.217   8.717   8.366 -0.4935 -0.3400 -0.6116
  677MOL0     C91325  11.140   8.640   8.429 -0.1830 -0.1664 -0.7222
  677MOL0     C91326  11.180   9.213   7.895 -0.1642  0.3216  0.1333
  677MOL0     C91327  11.181   9.342   7.846  0.0973  0.5933 -0.8345
  677MOL0     H91328  11.506   9.721   7.491 -1.4917  2.7886 -3.1675
  677MOL0     H91329  11.601   9.956   7.520  1.2073 -2.6216 -0.7093
  677MOL0     H91330  11.504  10.193   7.859 -0.5720 -0.4827 -0.2350
  677MOL0     H91331  11.653  10.132   7.939 -1.5896  4.9449  2.0795
  677MOL0     H91332  11.789  10.269   7.781 -0.3438 -0.3876  2.3123
  677MOL0     H91333  11.653  10.339   7.707  1.7113  0.8248 -1.3656
  677MOL0     H91334  11.703  10.329   8.013  0.1826  0.1712 -0.6113
  677MOL0     H91335  11.785  10.442   7.920 -0.1123  1.9142 -2.7127
  677MOL0     H91336  11.548  10.542   7.833  0.9012  1.0417  0.2937
  677MOL0     H91337  11.489  10.420   7.963  2.1720 -2.0348  2.7755
  677MOL0     H91338  11.615  10.538   8.119 -0.5868 -1.9907 -1.9068
  677MOL0     H91339  11.671  10.657   7.994 -1.7884  2.4054 -2.9248
  677MOL0     H91340  11.431  10.689   7.917  5.0168  0.1985 -1.9330
  677MOL0     H91341  11.387  10.613   8.076  2.7535 -0.2773  2.4532
  677MOL0     H91342  11.513  10.788   8.205 -0.1562 -0.6262 -0.1243
  677MOL0     H91343  11.546  10.878   8.054  2.4999 -0.1923  2.5302
  677MOL0     H91344  11.260  10.796   8.120  0.0447  0.6643 -0.0448
  677MOL0     H91345  11.313  10.913   8.010 -1.7744  0.7233  1.2231
  677MOL0     H91346  11.462  11.141   8.145 -2.2205  0.2346 -3.1079
  677MOL0     H91347  11.506  11.258   8.393 -0.4743  0.0449  0.4222
  677MOL0     H91348  11.374  11.366   8.344  1.1337  0.9194  0.1498
  677MOL0     H91349  11.361  11.194   8.598 -1.0965 -0.4063  0.6201
  677MOL0     H91350  11.238  11.313   8.533 -0.5212  2.8470 -3.5619
  677MOL0     H91351  11.533  11.392   8.580  1.0288  0.8579  1.9509
  677MOL0     H91352  11.419  11.374   8.709 -2.5477 -1.6578 -1.4585
  677MOL0     H91353  11.348  11.543   8.477 -1.6088 -1.1930  0.5937
  677MOL0     H91354  11.466  11.612   8.584  0.0374 -1.1325 -1.5195
  677MOL0     H91355  11.083  11.723   8.536 -0.2506  2.3424 -0.0471
  677MOL0     H91356  10.936  12.003   8.577 -3.2798 -0.8828 -0.9189
  677MOL0     H91357  11.013  12.022   8.413  1.9335 -0.0199  0.1603
  677MOL0     H91358  10.946  11.874   8.459 -0.6005  1.5438  1.0157
  677MOL0     H91359  11.243  12.311   8.409  3.2324 -0.5542 -1.8690
  677MOL0     H91360  11.180  12.550   8.374  0.6556 -1.1769  0.1220
  677MOL0     H91361  11.336  12.772   8.274  0.7246  0.5140  0.0765
  677MOL0     H91362  11.179  12.758   8.355 -0.2412  0.0605  0.8131
  677MOL0     H91363  11.171  12.975   8.359 -0.7955 -1.0222  1.4249
  677MOL0     H91364  11.314  12.982   8.464  0.9134 -0.6052 -0.0729
  677MOL0     H91365  11.355  12.953   8.170 -2.7509  0.4135 -0.1111
  677MOL0     H91366  11.472  13.012   8.294 -1.1123  2.6135  2.1591
  677MOL0     H91367  11.300  13.204   8.335 -0.0432  2.3526 -1.2251
  677MOL0     H91368  11.411  13.207   8.194 -1.0727 -1.1551 -1.6726
  677MOL0     H91369  11.119  13.096   8.183 -1.0156  0.2835 -2.6243
  677MOL0     H91370  11.222  13.137   8.042  0.3437 -0.9785  0.2212
  677MOL0     H91371  11.111  13.286   8.280 -0.6915  1.7278  0.0727
  677MOL0     H91372  11.217  13.361   8.161 -0.1497 -0.7276 -3.6873
  677MOL0     H91373  10.945  13.260   8.116  1.9817 -1.2525  2.7092
  677MOL0     H91374  11.036  13.294   7.976  2.1190  0.7731 -0.9111
  677MOL0     H91375  10.913  13.488   8.008 -1.0935  0.6341  0.9063
  677MOL0     H91376  11.085  13.514   8.056  0.3519 -0.8696  2.3041
  677MOL0     H91377  11.487  12.636   8.661 -1.5008  3.3478 -1.7336
  677MOL0     H91378  11.495  12.397   8.744  1.9196  0.9555 -0.4370
  677MOL0     H91379  11.400  12.019   8.764 -0.6697 -1.1405  0.9879
  677MOL0     H91380  11.429  11.778   8.785  1.0063  0.9769 -1.2138
  677MOL0     H91381  11.457   9.972   7.923 -0.3256  0.8009 -0.9475
  677MOL0     H91382  11.376   9.751   7.905 -0.3383 -0.7950 -0.6566
  677MOL0     H91383  11.512   9.333   7.772  0.4009 -4.1275 -0.2797
  677MOL0     H91384  11.491   9.114   7.818 -1.4064 -2.7139  0.7924
  677MOL0     H91385  11.332   8.802   7.876  1.3682 -1.6456  2.1339
  677MOL0     H91386  11.456   8.927   7.862 -0.6711  0.0429 -1.2056
  677MOL0     H91387  11.395   8.981   8.125 -2.7687  0.7687 -2.5789
  677MOL0     H91388  11.499   8.841   8.075  0.9754  0.5660  1.7744
  677MOL0     H91389  11.323   8.702   8.099  1.1607  0.4752  1.1365
  677MOL0     H91390  11.196   8.836   8.121  0.6403  2.9694 -0.8991
  677MOL0     H91391  11.308   8.905   8.334  1.7444 -0.6422  1.5126
  677MOL0     H91392  11.409   8.764   8.334 -0.6225 -1.3903  1.4476
  677MOL0     H91393  11.064   8.575   8.469 -0.9964  0.7482 -0.7390
  677MOL0     H91394  11.084   9.168   7.918  0.5937 -1.0042  0.8099
  677MOL0     H91395  11.089   9.391   7.816  0.4524  2.0044  0.2998
  678MOL0     O91396   6.323   4.461   3.331 -0.0139 -0.0708  0.0751
  678MOL0     C91397   6.431   4.408   3.362  0.4019  0.1741 -0.5170
  678MOL0     O91398   6.549   4.468   3.342  0.7748 -0.8451 -0.4231
  678MOL0     C91399   6.556   4.599   3.294 -0.0968 -0.3689 -0.1107
  678MOL0     C91400   6.485   4.701   3.351 -0.2092 -1.0883 -0.1119
  678MOL0     C91401   6.509   4.825   3.290 -0.7930  0.2818 -0.7322
  678MOL0     C91402   6.589   4.837   3.171  0.0827  0.1795 -0.4232
  678MOL0     O91403   6.621   4.953   3.108  0.2461  0.4324  0.2799
  678MOL0     C91404   6.537   5.077   3.128  0.9451  0.7272 -0.6570
  678MOL0     C91405   6.392   5.088   3.068 -0.6698 -0.0662 -0.5701
  678MOL0     C91406   6.344   5.230   3.039 -0.0478  0.4017  0.2538
  678MOL0     C91407   6.431   5.292   2.920 -0.3186  0.0757 -0.4244
  678MOL0     C91408   6.422   5.442   2.921 -0.1496  0.0692 -0.1127
  678MOL0     C91409   6.510   5.507   2.804 -0.0235 -0.3994 -0.5588
  678MOL0     C91410   6.650   5.532   2.853  0.1003 -0.4803  0.8049
  678MOL0     C91411   6.742   5.572   2.739  0.8149 -0.2205 -0.2265
  678MOL0     N91412   6.758   5.717   2.766  0.4339  0.5239  0.1232
  678MOL0     C91413   6.838   5.774   2.859  1.0805 -0.7695 -0.6338
  678MOL0     C91414   6.824   5.910   2.841  0.2241 -0.2898  0.1243
  678MOL0     C91415   6.886   6.000   2.930 -0.2238 -0.1050  0.1133
  678MOL0     C91416   6.829   6.143   2.901 -0.3137  0.8931  0.7487
  678MOL0     C91417   6.894   6.256   2.981  0.4003  0.5543  0.5265
  678MOL0     C91418   7.040   6.265   2.979  0.0194  0.3637 -0.0053
  678MOL0     O91419   7.080   6.300   2.851 -0.0857  0.1166 -0.0391
  678MOL0     C91420   7.109   6.425   2.818 -0.3223 -0.6723 -0.0587
  678MOL0     C91421   7.070   6.480   2.697  0.0812 -0.0005  0.3221
  678MOL0     C91422   7.110   6.605   2.647 -0.3564 -0.0687  1.0591
  678MOL0     C91423   7.046   6.658   2.521  0.8308  0.2077 -0.1660
  678MOL0     C91424   7.210   6.683   2.718 -0.1681  0.9325  0.1188
  678MOL0     C91425   7.279   6.800   2.679 -0.7458 -0.3535 -0.4663
  678MOL0     O91426   7.407   6.834   2.729  0.0272  0.0941 -0.0825
  678MOL0     C91427   7.481   6.939   2.678  0.0818  0.7251  0.0184
  678MOL0     C91428   7.457   7.065   2.704 -0.6999 -0.0628  1.2494
  678MOL0     C91429   7.535   7.172   2.646 -0.3983 -0.1002 -0.2924
  678MOL0     C91430   7.653   7.149   2.573  0.4787  0.5641  0.3360
  678MOL0     O91431   7.732   7.255   2.528  0.6717  0.1318  0.2168
  678MOL0     C91432   7.794   7.249   2.401  0.0161 -0.1731  0.0265
  678MOL0     C91433   7.863   7.391   2.376  1.1558 -0.2077 -0.1544
  678MOL0     C91434   7.991   7.395   2.456  0.4365 -0.3057 -0.2071
  678MOL0     C91435   8.070   7.521   2.434 -0.2570  0.6497  0.1970
  678MOL0     C91436   7.997   7.647   2.500 -0.1154  0.8111 -0.4361
  678MOL0     C91437   8.077   7.777   2.478  0.3058  0.0821  1.3430
  678MOL0     C91438   8.011   7.909   2.510  0.8843 -0.7685 -0.6139
  678MOL0     C91439   8.033   7.934   2.654 -0.1583 -0.5062 -0.2997
  678MOL0    Cl91440   7.916   7.828   2.739  0.1977 -0.0934  0.0210
  678MOL0     C91441   7.674   7.009   2.544 -0.7770  0.1027  0.1259
  678MOL0     C91442   7.580   6.904   2.586 -0.2714  0.7380  1.0222
  678MOL0     O91443   7.204   6.887   2.636 -0.1188  0.4816  0.6053
  678MOL0     C91444   7.247   6.626   2.842 -0.4488  0.3977 -0.1025
  678MOL0     C91445   7.200   6.505   2.893 -0.4768 -0.6654  0.7628
  678MOL0     N91446   6.727   5.928   2.744  0.3603  0.5216  0.0880
  678MOL0     N91447   6.695   5.813   2.701 -0.4818 -0.5306 -0.1307
  678MOL0     C91448   6.655   4.733   3.127 -0.7846  1.6398  0.5910
  678MOL0     C91449   6.648   4.615   3.193 -0.4902  0.8736 -0.1993
  678MOL0     C91450   6.426   4.266   3.417  0.2277 -0.5831  0.0641
  678MOL0     C91451   6.539   4.208   3.490 -0.4435 -0.2777  0.1023
  678MOL0     C91452   6.525   4.086   3.566  0.5232 -1.2619  0.3540
  678MOL0     C91453   6.404   4.015   3.566 -0.3428 -0.4050 -0.0782
  678MOL0     O91454   6.386   3.908   3.645  0.0035 -0.0105 -0.1464
  678MOL0     C91455   6.468   3.794   3.603  1.1745  0.5424 -1.0336
  678MOL0     C91456   6.408   3.724   3.477 -0.4628  0.6417 -0.2340
  678MOL0     C91457   6.466   3.576   3.466  0.1048 -0.6297 -0.0431
  678MOL0     C91458   6.429   3.518   3.331 -0.0268  0.5111 -0.4724
  678MOL0     C91459   6.427   3.370   3.338  0.0512 -0.4911  0.2424
  678MOL0     C91460   6.410   3.251   3.357 -0.1033 -0.7944 -0.0941
  678MOL0     C91461   6.303   4.062   3.481  0.1629  0.2637  0.5635
  678MOL0     C91462   6.312   4.187   3.412  0.6566  0.1000  0.7637
  678MOL0     H91463   6.415   4.685   3.432  0.4710  0.0227  0.7274
  678MOL0     H91464   6.469   4.911   3.343  0.5571  2.9283 -3.6758
  678MOL0     H91465   6.515   5.092   3.233  1.9595  1.9801 -0.5979
  678MOL0     H91466   6.593   5.168   3.103 -2.8772  2.9478 -1.9450
  678MOL0     H91467   6.390   5.025   2.978  0.5863 -0.9426 -0.0115
  678MOL0     H91468   6.331   5.042   3.146  2.4217  0.5151  2.4034
  678MOL0     H91469   6.241   5.241   3.006  0.7147  0.4837 -2.3066
  678MOL0     H91470   6.361   5.282   3.134  3.3663 -1.6382  0.9339
  678MOL0     H91471   6.533   5.256   2.937 -1.0876 -2.4859 -0.7388
  678MOL0     H91472   6.409   5.258   2.818  1.1233 -1.0291 -0.4023
  678MOL0     H91473   6.317   5.471   2.912  0.5551  2.3595 -2.0771
  678MOL0     H91474   6.457   5.475   3.019  2.3821 -2.2936 -0.1196
  678MOL0     H91475   6.497   5.452   2.711  1.2757 -1.2807 -0.2557
  678MOL0     H91476   6.473   5.606   2.778 -1.1756 -0.4103  0.9196
  678MOL0     H91477   6.643   5.606   2.933 -1.8722  0.4362 -0.1314
  678MOL0     H91478   6.687   5.440   2.898  0.4561  1.1341  4.1197
  678MOL0     H91479   6.709   5.568   2.634 -0.2339  1.0493  0.0259
  678MOL0     H91480   6.840   5.524   2.748  1.2606  0.5591 -0.8478
  678MOL0     H91481   6.905   5.726   2.929  0.4255 -0.4301  0.2407
  678MOL0     H91482   6.868   5.977   3.035  1.2194  0.2632  0.4688
  678MOL0     H91483   6.994   5.993   2.921 -0.3456 -3.0097  0.0620
  678MOL0     H91484   6.724   6.132   2.931 -1.3722  1.0778 -2.5080
  678MOL0     H91485   6.837   6.163   2.794  1.4279  1.9327  1.0304
  678MOL0     H91486   6.879   6.250   3.089 -1.1637  2.0948  0.4345
  678MOL0     H91487   6.842   6.345   2.945 -1.0624 -1.3285 -2.4167
  678MOL0     H91488   7.078   6.166   3.005 -1.7225 -0.5097 -0.6351
  678MOL0     H91489   7.077   6.335   3.056  2.1098 -1.4044  0.7029
  678MOL0     H91490   7.007   6.413   2.640 -0.1027  1.5401 -1.3690
  678MOL0     H91491   6.994   6.580   2.465 -3.0790  1.2096  1.7732
  678MOL0     H91492   6.968   6.734   2.529  1.2079  0.8816 -2.2405
  678MOL0     H91493   7.120   6.692   2.447 -0.3251 -0.8891 -1.9101
  678MOL0     H91494   7.365   7.088   2.758 -3.1660  0.4832 -2.7256
  678MOL0     H91495   7.504   7.275   2.665 -2.0491 -0.7565  0.7640
  678MOL0     H91496   7.865   7.168   2.380 -0.2862 -0.0688 -1.4871
  678MOL0     H91497   7.717   7.239   2.324  1.5032  2.7676 -2.0424
  678MOL0     H91498   7.882   7.416   2.272 -1.8958  1.6547 -0.4078
  678MOL0     H91499   7.790   7.463   2.414 -1.4146 -1.4723 -2.3733
  678MOL0     H91500   8.050   7.304   2.439  1.9411  0.2855  1.6184
  678MOL0     H91501   7.959   7.398   2.560  0.2133 -1.3760 -0.2245
  678MOL0     H91502   8.169   7.505   2.478  0.6519  3.5040 -0.6066
  678MOL0     H91503   8.080   7.534   2.326 -0.4030  1.8050  0.3063
  678MOL0     H91504   7.973   7.622   2.604 -2.7137  1.8889 -0.7147
  678MOL0     H91505   7.900   7.648   2.450 -0.3875 -2.0433 -0.1835
  678MOL0     H91506   8.176   7.773   2.525  2.1176  3.4561 -1.6339
  678MOL0     H91507   8.086   7.772   2.369  1.2370  2.5534  1.2385
  678MOL0     H91508   7.905   7.904   2.482  0.1978  0.4207  1.5662
  678MOL0     H91509   8.062   7.990   2.457 -0.8474 -0.6121 -2.1457
  678MOL0     H91510   8.007   8.037   2.681 -1.8232 -0.6267 -1.2783
  678MOL0     H91511   8.138   7.918   2.679 -0.1316  1.0089  0.6846
  678MOL0     H91512   7.754   6.972   2.481 -1.2339 -2.6046  0.9808
  678MOL0     H91513   7.598   6.801   2.558 -1.6785  1.4795 -3.5705
  678MOL0     H91514   7.323   6.676   2.901  0.6183  0.4499 -1.4632
  678MOL0     H91515   7.231   6.472   2.991 -2.8000 -0.8281  1.5151
  678MOL0     H91516   6.728   4.746   3.048  1.4741 -0.5513  2.1667
  678MOL0     H91517   6.696   4.521   3.167  1.2584  1.1963  1.5953
  678MOL0     H91518   6.628   4.266   3.515 -0.0335 -0.5299 -0.7121
  678MOL0     H91519   6.615   4.065   3.622  2.3965  0.8723 -1.6668
  678MOL0     H91520   6.575   3.811   3.592  1.6973 -0.6321  1.4783
  678MOL0     H91521   6.460   3.726   3.689  1.2256 -0.6631 -1.9456
  678MOL0     H91522   6.440   3.780   3.389 -0.0090 -0.3800 -0.7258
  678MOL0     H91523   6.299   3.727   3.485 -0.6170  2.8096 -2.2369
  678MOL0     H91524   6.419   3.524   3.550 -3.8935 -0.4659 -1.9834
  678MOL0     H91525   6.574   3.585   3.481  0.4735 -2.2038 -1.4280
  678MOL0     H91526   6.486   3.544   3.242 -3.5309 -1.9778 -3.7865
  678MOL0     H91527   6.326   3.553   3.316  0.5180  2.2405 -0.3786
  678MOL0     H91528   6.396   3.149   3.383 -2.5867  0.3035  3.5726
  678MOL0     H91529   6.221   3.992   3.469  0.8568 -0.6958  1.3639
  678MOL0     H91530   6.236   4.215   3.340  0.8474  0.8498  0.8475
  679MOL0     O91531  10.776   9.009   7.838 -0.6309  0.3800  0.3039
  679MOL0     C91532  10.884   9.031   7.780  0.0059 -0.5834 -0.1603
  679MOL0     O91533  10.997   8.955   7.780  0.1061 -0.9448  0.3181
  679MOL0     C91534  11.000   8.827   7.837 -0.5126 -0.8122 -0.0532
  679MOL0     C91535  11.072   8.716   7.788 -0.7555  1.6719  0.0320
  679MOL0     C91536  11.079   8.598   7.862  0.1509 -0.1715  0.1957
  679MOL0     C91537  11.008   8.575   7.981  0.2629 -0.4434  0.2999
  679MOL0     O91538  11.010   8.455   8.043 -0.4228  0.0372 -0.3110
  679MOL0     C91539  10.904   8.434   8.141 -0.2015 -0.2435 -0.5758
  679MOL0     C91540  10.912   8.284   8.163 -0.2288  0.0188  0.4790
  679MOL0     C91541  11.040   8.254   8.247 -0.6065  0.1202  1.1918
  679MOL0     C91542  11.086   8.108   8.243  0.4374  0.5441 -0.7765
  679MOL0     C91543  10.980   8.009   8.268  0.8426  0.7079  0.5114
  679MOL0     C91544  10.910   8.029   8.399  0.8008 -0.2204  0.1111
  679MOL0     C91545  10.809   7.919   8.437 -0.1581  0.4744 -0.1067
  679MOL0     C91546  10.715   7.956   8.556  0.2820  0.2595  0.8058
  679MOL0     N91547  10.794   7.944   8.684  0.0235 -0.1923  0.0713
  679MOL0     C91548  10.867   8.040   8.739 -0.2996 -0.0454 -0.7479
  679MOL0     C91549  10.929   7.985   8.846 -0.2398  0.2641 -0.6374
  679MOL0     C91550  11.019   8.061   8.937 -0.2943 -0.4602  0.0776
  679MOL0     C91551  11.081   7.997   9.064 -0.2774 -0.6824  0.3491
  679MOL0     C91552  11.231   7.999   9.075 -0.0589  0.2720  0.2025
  679MOL0     C91553  11.320   7.921   8.969  0.5053 -0.8711  0.7015
  679MOL0     O91554  11.450   7.975   8.942 -0.3967 -0.5182 -0.7475
  679MOL0     C91555  11.460   8.091   8.871  0.9074  0.0224 -1.0929
  679MOL0     C91556  11.369   8.129   8.768  0.0914  0.0552  0.0157
  679MOL0     C91557  11.378   8.244   8.694  0.0606  0.4806  0.2880
  679MOL0     C91558  11.269   8.264   8.589  0.2589  0.8900 -0.9047
  679MOL0     C91559  11.497   8.324   8.712 -0.4248 -0.1610  0.1540
  679MOL0     C91560  11.526   8.443   8.631 -0.0975  0.6033  0.1254
  679MOL0     O91561  11.651   8.480   8.628  0.5669 -0.0091  0.1693
  679MOL0     C91562  11.683   8.580   8.536  0.3961 -0.2187  0.4689
  679MOL0     C91563  11.746   8.554   8.423 -0.4953 -0.0048  1.2200
  679MOL0     C91564  11.773   8.654   8.318 -0.0289  0.4342  0.7377
  679MOL0     C91565  11.740   8.789   8.341  0.0903  0.6058  0.3732
  679MOL0     O91566  11.764   8.884   8.238  0.6024  0.3389 -0.2579
  679MOL0     C91567  11.725   9.017   8.258  0.5211 -0.7380 -0.5384
  679MOL0     C91568  11.787   9.108   8.149  1.3792  0.1825  0.4839
  679MOL0     C91569  11.744   9.250   8.157  0.4125 -1.0011  0.5312
  679MOL0     C91570  11.806   9.343   8.054  0.0694  0.0413 -0.5242
  679MOL0     C91571  11.738   9.484   8.053 -0.9102 -0.3333 -0.1539
  679MOL0     C91572  11.806   9.575   7.949 -0.8959  1.0394 -0.3166
  679MOL0     C91573  11.777   9.712   7.998 -0.2109 -0.2327  0.2802
  679MOL0     C91574  11.827   9.820   7.909 -0.3515 -0.3863  0.9642
  679MOL0    Cl91575  12.002   9.812   7.887  0.0997  0.3224 -0.4184
  679MOL0     C91576  11.678   8.812   8.466  0.0511 -0.3317  0.2150
  679MOL0     C91577  11.652   8.713   8.559  0.4369 -0.0257  0.9130
  679MOL0     O91578  11.447   8.485   8.555  0.3009  0.6012 -0.1496
  679MOL0     C91579  11.597   8.278   8.805 -0.1744 -0.3046  0.5811
  679MOL0     C91580  11.578   8.162   8.887  0.8617  0.0081  0.2338
  679MOL0     N91581  10.887   7.851   8.851 -0.2728 -0.8618 -0.1571
  679MOL0     N91582  10.808   7.825   8.752 -0.2799  0.2498 -0.2960
  679MOL0     C91583  10.944   8.687   8.032  0.4139  0.2666  0.9290
  679MOL0     C91584  10.942   8.811   7.964 -0.1622  0.3341  1.1890
  679MOL0     C91585  10.892   9.153   7.696 -1.2668  0.4587  0.6136
  679MOL0     C91586  11.006   9.188   7.621  0.0584  1.1334 -0.8916
  679MOL0     C91587  11.003   9.311   7.559  0.1763 -0.0853  0.2140
  679MOL0     C91588  10.888   9.399   7.561 -0.4717  0.3176  0.1866
  679MOL0     O91589  10.891   9.511   7.482 -0.2279 -0.2874  0.1854
  679MOL0     C91590  10.849   9.637   7.533 -0.5402  0.5660 -0.0511
  679MOL0     C91591  10.903   9.744   7.437  0.6521 -0.8031  0.2227
  679MOL0     C91592  11.061   9.747   7.449  0.1650 -0.0777  0.4584
  679MOL0     C91593  11.125   9.620   7.377 -0.2577 -0.7145  0.8674
  679MOL0     C91594  11.255   9.666   7.315 -0.2195 -0.0216  0.0791
  679MOL0     C91595  11.354   9.705   7.265  0.3902 -0.8119 -0.1834
  679MOL0     C91596  10.784   9.370   7.643  0.1676  0.9470  0.7339
  679MOL0     C91597  10.780   9.243   7.709  0.0059  0.2218 -0.0970
  679MOL0     H91598  11.128   8.724   7.695 -0.1719 -0.4860  0.1576
  679MOL0     H91599  11.118   8.509   7.814 -1.2434 -1.2123  0.9003
  679MOL0     H91600  10.913   8.494   8.232 -0.3944  1.1422 -1.4381
  679MOL0     H91601  10.809   8.458   8.092  0.1398 -0.4925 -1.3664
  679MOL0     H91602  10.833   8.258   8.233 -0.7877  2.0681  0.6885
  679MOL0     H91603  10.911   8.235   8.065  0.4676  0.3154  0.3089
  679MOL0     H91604  11.129   8.312   8.219  0.5016 -0.5562  3.1161
  679MOL0     H91605  11.015   8.294   8.345 -1.8268  2.4081  0.0322
  679MOL0     H91606  11.118   8.076   8.143 -1.4459 -0.1758 -1.1865
  679MOL0     H91607  11.153   8.093   8.328 -1.2982 -0.1915  0.5159
  679MOL0     H91608  10.907   7.999   8.186  3.8829 -1.3361 -2.2132
  679MOL0     H91609  11.028   7.912   8.285  2.7503  1.5372  0.0868
  679MOL0     H91610  10.984   8.044   8.478  3.3253  0.9937 -2.3008
  679MOL0     H91611  10.852   8.121   8.388 -0.1748 -1.0001 -1.8569
  679MOL0     H91612  10.751   7.911   8.345  0.7139  0.0280 -0.6269
  679MOL0     H91613  10.870   7.830   8.447 -0.7198  0.2956  2.2727
  679MOL0     H91614  10.642   7.876   8.548  4.8077 -4.2867 -0.8258
  679MOL0     H91615  10.670   8.053   8.532  1.6095  0.5505 -0.7270
  679MOL0     H91616  10.882   8.139   8.698 -2.1002  1.3477  1.6965
  679MOL0     H91617  11.103   8.100   8.878 -0.1429  3.6449  2.5943
  679MOL0     H91618  10.963   8.148   8.973  0.6162  1.0473 -1.8950
  679MOL0     H91619  11.035   7.897   9.071 -1.2093 -0.1991  1.6368
  679MOL0     H91620  11.055   8.051   9.156  2.4824  0.5725  0.4959
  679MOL0     H91621  11.257   7.970   9.177  1.4021 -1.2683 -0.5526
  679MOL0     H91622  11.254   8.106   9.075  1.4061 -0.0017 -0.9994
  679MOL0     H91623  11.266   7.919   8.873  1.5910  2.4353 -0.1108
  679MOL0     H91624  11.347   7.819   8.997  0.5108 -0.9799  0.3096
  679MOL0     H91625  11.277   8.073   8.756 -2.9926  3.9970  2.6886
  679MOL0     H91626  11.207   8.174   8.585  0.4486  0.5401  1.8432
  679MOL0     H91627  11.203   8.351   8.601  1.1218  1.7095 -1.9031
  679MOL0     H91628  11.313   8.286   8.491  1.1233  0.0991 -0.6974
  679MOL0     H91629  11.769   8.452   8.394 -2.3522 -0.0451 -0.2967
  679MOL0     H91630  11.805   8.621   8.220  1.4621  1.9746  0.6477
  679MOL0     H91631  11.616   9.030   8.248  0.5405  0.2821  0.3857
  679MOL0     H91632  11.757   9.056   8.355  1.6802 -0.0354 -1.1863
  679MOL0     H91633  11.896   9.101   8.156  1.4976 -4.8469 -1.6770
  679MOL0     H91634  11.752   9.076   8.050 -0.3912  0.3834  1.0183
  679MOL0     H91635  11.774   9.277   8.259  1.7163 -3.1579  0.7914
  679MOL0     H91636  11.635   9.250   8.163  0.4246 -1.2572  0.7839
  679MOL0     H91637  11.914   9.343   8.071 -0.4018 -1.4612  3.4899
  679MOL0     H91638  11.794   9.287   7.961  0.8027  1.0463 -1.2490
  679MOL0     H91639  11.735   9.531   8.152  0.1542  0.9516 -0.7074
  679MOL0     H91640  11.634   9.481   8.018 -0.7014  1.3981 -1.0322
  679MOL0     H91641  11.912   9.546   7.953 -0.7362  1.5871 -0.5529
  679MOL0     H91642  11.760   9.546   7.853  2.3834  2.0048 -2.3478
  679MOL0     H91643  11.816   9.724   8.100  1.7664 -0.4123 -0.4139
  679MOL0     H91644  11.668   9.717   8.008 -0.0304 -0.7424  4.0504
  679MOL0     H91645  11.784   9.915   7.941 -1.5382 -0.5572 -0.0600
  679MOL0     H91646  11.775   9.815   7.813  0.1462 -3.1830  0.7637
  679MOL0     H91647  11.653   8.916   8.486 -0.4387 -0.5304  0.6660
  679MOL0     H91648  11.617   8.740   8.658 -0.9662 -0.5170  0.5797
  679MOL0     H91649  11.697   8.317   8.822  0.0166  0.3001 -1.5893
  679MOL0     H91650  11.647   8.123   8.961 -0.8941 -2.8975  0.4926
  679MOL0     H91651  10.882   8.689   8.121 -0.3812 -1.4284  0.4621
  679MOL0     H91652  10.893   8.893   8.016  1.2638 -0.2420  3.6235
  679MOL0     H91653  11.094   9.129   7.644 -0.4454  1.0792  1.0794
  679MOL0     H91654  11.092   9.346   7.509 -0.9420 -0.2598 -2.0028
  679MOL0     H91655  10.742   9.657   7.533 -0.7811 -0.6067 -1.6646
  679MOL0     H91656  10.880   9.651   7.637 -1.9043  1.5092  0.2577
  679MOL0     H91657  10.859   9.840   7.463 -3.2535 -1.8818 -1.6821
  679MOL0     H91658  10.859   9.724   7.339 -0.3751 -2.7024  1.0191
  679MOL0     H91659  11.088   9.756   7.555 -0.4631 -0.3753  0.6482
  679MOL0     H91660  11.090   9.840   7.397 -4.8552  2.4190  1.5435
  679MOL0     H91661  11.059   9.573   7.304  1.6400 -0.1760 -1.3205
  679MOL0     H91662  11.152   9.544   7.451  2.3329  1.1072  1.9607
  679MOL0     H91663  11.441   9.745   7.216 -0.1478  0.6468  0.0220
  679MOL0     H91664  10.702   9.441   7.645 -0.0368  0.7055  1.1026
  679MOL0     H91665  10.696   9.232   7.778  0.4243  1.2040  0.5912
  680MOL0     O91666  10.547   0.220   6.714  0.1854  0.8559  0.1294
  680MOL0     C91667  10.592   0.156   6.809 -0.2115  0.8082 -0.0427
  680MOL0     O91668  10.514   0.087   6.907  0.4327  0.4198 -0.5118
  680MOL0     C91669  10.377   0.091   6.899 -0.8164  0.6526 -0.5329
  680MOL0     C91670  10.296   0.205   6.874 -0.1842  0.3956 -0.0348
  680MOL0     C91671  10.165   0.191   6.845 -0.5253 -0.3922 -0.1908
  680MOL0     C91672  10.107   0.069   6.844 -0.8426 -0.1661  0.1817
  680MOL0     O91673   9.976   0.057   6.795 -0.8006  0.3929 -0.1411
  680MOL0     C91674   9.904  -0.046   6.861  0.0678  0.0079 -0.5992
  680MOL0     C91675   9.764  -0.037   6.821  0.1364  0.9969 -0.0347
  680MOL0     C91676   9.753  -0.090   6.670  0.3830 -0.5954 -0.1567
  680MOL0     C91677   9.619  -0.070   6.605 -1.0895  0.0901 -0.3643
  680MOL0     C91678   9.594  -0.139   6.475 -0.9657 -0.6906  0.5241
  680MOL0     C91679   9.457  -0.103   6.411 -0.7834  0.3324 -0.3490
  680MOL0     C91680   9.456  -0.178   6.278 -0.1046 -0.0437  0.5396
  680MOL0     C91681   9.339  -0.141   6.185 -0.9506 -1.6904 -0.0249
  680MOL0     N91682   9.373  -0.190   6.046 -1.2090 -0.5981 -0.0643
  680MOL0     C91683   9.367  -0.320   6.007 -0.5494  0.5799 -0.1823
  680MOL0     C91684   9.345  -0.315   5.873 -0.4791  0.1577  1.4208
  680MOL0     C91685   9.294  -0.419   5.775 -0.3967 -0.3781 -0.3758
  680MOL0     C91686   9.284  -0.562   5.827 -1.3858 -0.3267  0.3260
  680MOL0     C91687   9.296  -0.662   5.707 -0.3324 -0.0193 -0.0370
  680MOL0     C91688   9.334  -0.805   5.748  0.0732 -0.4608  0.0594
  680MOL0     O91689   9.217  -0.886   5.747  0.2513  0.1182 -0.4277
  680MOL0     C91690   9.203  -0.988   5.658  0.1435  0.7715 -0.2748
  680MOL0     C91691   9.311  -1.072   5.623  0.0019 -0.1215  1.0779
  680MOL0     C91692   9.291  -1.185   5.538  0.3279 -0.1784 -0.4689
  680MOL0     C91693   9.409  -1.275   5.535 -0.4986 -0.4776 -0.2607
  680MOL0     C91694   9.168  -1.206   5.475 -0.2588  0.2148  0.3656
  680MOL0     C91695   9.162  -1.299   5.365  0.5606  0.0174  0.6776
  680MOL0     O91696   9.030  -1.346   5.350 -0.4671 -0.3893 -0.4161
  680MOL0     C91697   8.981  -1.402   5.229 -0.7287  0.4874  0.3671
  680MOL0     C91698   9.047  -1.381   5.095  0.8903 -0.8767 -0.1096
  680MOL0     C91699   8.991  -1.433   4.979 -0.0353  0.4449  0.0195
  680MOL0     C91700   8.871  -1.500   4.987 -0.6579  0.1350 -0.8019
  680MOL0     O91701   8.839  -1.563   4.870  0.7692 -0.6666  0.1747
  680MOL0     C91702   8.735  -1.668   4.873 -0.1450 -0.8240 -0.2460
  680MOL0     C91703   8.717  -1.709   4.729 -0.0679 -0.3957 -0.0080
  680MOL0     C91704   8.602  -1.799   4.685  0.1507 -0.6611  0.7809
  680MOL0     C91705   8.594  -1.928   4.763  0.5906  0.1975  0.3529
  680MOL0     C91706   8.480  -2.015   4.710 -0.2510 -0.9901  0.0834
  680MOL0     C91707   8.509  -2.157   4.736 -0.3604 -0.6112  0.6896
  680MOL0     C91708   8.421  -2.247   4.671  0.7697  0.1434  0.4817
  680MOL0     C91709   8.467  -2.397   4.697 -0.0386 -0.2048  0.1664
  680MOL0    Cl91710   8.353  -2.518   4.649 -0.5134 -0.0809 -0.2136
  680MOL0     C91711   8.800  -1.520   5.114 -1.0373  0.1167 -0.1739
  680MOL0     C91712   8.870  -1.477   5.229 -0.0000 -0.8133  0.2831
  680MOL0     O91713   9.256  -1.318   5.288  0.1353  0.7116 -0.1642
  680MOL0     C91714   9.062  -1.122   5.509  0.5493 -0.5588 -0.0918
  680MOL0     C91715   9.082  -1.016   5.599 -1.1248  0.1183  1.1445
  680MOL0     N91716   9.347  -0.184   5.834  0.3658 -0.3831 -0.1718
  680MOL0     N91717   9.360  -0.106   5.935 -0.3513  0.3062  0.4376
  680MOL0     C91718  10.182  -0.046   6.868 -0.4876 -0.1320 -0.1749
  680MOL0     C91719  10.313  -0.032   6.904  0.0371 -0.0660 -0.7110
  680MOL0     C91720  10.740   0.148   6.811 -0.1137  0.5551  0.2501
  680MOL0     C91721  10.798   0.057   6.902 -0.2072  0.2159 -0.4230
  680MOL0     C91722  10.935   0.044   6.912  0.1170 -0.3566  0.5949
  680MOL0     C91723  11.013   0.106   6.823 -0.6954  0.0079  0.6057
  680MOL0     O91724  11.151   0.086   6.846  0.4095  0.3164  0.4088
  680MOL0     C91725  11.239   0.176   6.786 -0.9358  0.1218 -0.4908
  680MOL0     C91726  11.388   0.133   6.819  0.4249  0.4129  0.1410
  680MOL0     C91727  11.425   0.160   6.966  0.4134  0.3797 -0.6343
  680MOL0     C91728  11.568   0.116   6.984  0.3458 -0.9331  0.8327
  680MOL0     C91729  11.635   0.190   7.085 -0.5086  0.2531  0.4205
  680MOL0     C91730  11.681   0.261   7.169 -0.5399  0.4265  0.5976
  680MOL0     C91731  10.960   0.191   6.727  0.2611 -0.2233 -0.7997
  680MOL0     C91732  10.825   0.214   6.722 -0.0914 -0.8653  0.6254
  680MOL0     H91733  10.349   0.300   6.870  1.6402 -0.3824  2.6877
  680MOL0     H91734  10.118   0.283   6.814  0.1853 -0.5786 -1.9081
  680MOL0     H91735   9.946  -0.146   6.845 -0.1609 -0.9344  3.6820
  680MOL0     H91736   9.904  -0.032   6.969 -3.2237 -1.4202 -0.3107
  680MOL0     H91737   9.705  -0.107   6.881 -0.9925 -0.0714 -2.2588
  680MOL0     H91738   9.723   0.063   6.835 -1.2377  0.0901  3.3707
  680MOL0     H91739   9.830  -0.039   6.613  0.9470  1.0786  1.9745
  680MOL0     H91740   9.772  -0.197   6.679  2.4277 -0.1094  3.2373
  680MOL0     H91741   9.541  -0.111   6.670 -0.4869 -0.2469  0.1493
  680MOL0     H91742   9.615   0.038   6.589  1.0379 -0.1781 -3.5854
  680MOL0     H91743   9.679  -0.113   6.411 -1.8122 -2.3243 -1.3989
  680MOL0     H91744   9.599  -0.245   6.500  0.4564 -1.2017 -1.5913
  680MOL0     H91745   9.373  -0.146   6.466 -0.6039 -2.1415 -1.8403
  680MOL0     H91746   9.440   0.005   6.400  0.8852  0.5176 -1.5200
  680MOL0     H91747   9.545  -0.145   6.224  0.3722 -0.7739  0.8525
  680MOL0     H91748   9.455  -0.283   6.310 -0.6361 -0.4993 -0.9249
  680MOL0     H91749   9.321  -0.033   6.179  1.5556 -1.1425  0.8989
  680MOL0     H91750   9.248  -0.200   6.198 -0.5668 -2.8268 -2.0777
  680MOL0     H91751   9.368  -0.400   6.080  1.3006 -0.9521 -1.7819
  680MOL0     H91752   9.196  -0.394   5.734 -0.3945 -1.4150 -1.0366
  680MOL0     H91753   9.359  -0.427   5.688  1.4360 -3.7915  1.0734
  680MOL0     H91754   9.181  -0.576   5.862 -2.3544  2.1743 -1.2608
  680MOL0     H91755   9.358  -0.588   5.903 -2.1939 -2.2366  0.5132
  680MOL0     H91756   9.372  -0.638   5.631 -0.9403  0.2143 -0.5829
  680MOL0     H91757   9.199  -0.662   5.656 -0.1919 -4.9561 -0.7986
  680MOL0     H91758   9.377  -0.820   5.848 -3.3893  0.1214  1.7689
  680MOL0     H91759   9.411  -0.832   5.674  2.3591  0.0012  2.1357
  680MOL0     H91760   9.409  -1.045   5.660  1.1823 -0.8750 -1.2700
  680MOL0     H91761   9.386  -1.379   5.560 -0.2659 -0.6553 -0.7664
  680MOL0     H91762   9.450  -1.288   5.435  0.2964  2.3717 -0.4000
  680MOL0     H91763   9.486  -1.252   5.610 -0.5004 -1.5500  0.0841
  680MOL0     H91764   9.139  -1.326   5.077 -0.6205  3.5248  3.7279
  680MOL0     H91765   9.037  -1.425   4.881 -1.6645 -2.9401 -1.1743
  680MOL0     H91766   8.770  -1.745   4.942 -0.4165  0.6262  1.5645
  680MOL0     H91767   8.642  -1.621   4.906  1.3451  0.5144  2.3019
  680MOL0     H91768   8.716  -1.614   4.675 -0.4191  1.4587  3.0025
  680MOL0     H91769   8.818  -1.747   4.707  2.7589  5.6418  0.4008
  680MOL0     H91770   8.604  -1.816   4.577 -2.9926 -3.8259  1.0338
  680MOL0     H91771   8.512  -1.739   4.701 -0.2054 -0.8129 -0.4932
  680MOL0     H91772   8.692  -1.976   4.756  0.3329 -0.5973  1.7347
  680MOL0     H91773   8.572  -1.909   4.869 -2.1496 -0.8803  0.0534
  680MOL0     H91774   8.462  -2.003   4.602 -0.4569  1.0930  0.3194
  680MOL0     H91775   8.387  -1.982   4.758  1.2836 -2.2162  4.3314
  680MOL0     H91776   8.610  -2.192   4.713 -1.1582 -1.7085 -1.4316
  680MOL0     H91777   8.493  -2.169   4.843 -0.2175  0.6075  0.8600
  680MOL0     H91778   8.425  -2.222   4.565 -2.0154  3.9589  1.0276
  680MOL0     H91779   8.319  -2.230   4.707  0.6228  1.4346 -0.4676
  680MOL0     H91780   8.485  -2.429   4.800 -0.8035 -0.5656  0.1936
  680MOL0     H91781   8.560  -2.420   4.644 -0.8518  1.0046 -1.8944
  680MOL0     H91782   8.710  -1.579   5.120 -2.0279  1.5583 -0.4434
  680MOL0     H91783   8.828  -1.495   5.327 -2.6368 -0.6018 -0.7360
  680MOL0     H91784   8.960  -1.140   5.474  0.2160  2.2810 -0.7864
  680MOL0     H91785   8.989  -0.963   5.619 -1.6867 -0.8794  1.2522
  680MOL0     H91786  10.147  -0.149   6.870 -2.1634  0.3095 -2.4297
  680MOL0     H91787  10.364  -0.128   6.911  0.6248  0.1405 -1.8521
  680MOL0     H91788  10.726   0.014   6.971 -2.5486  4.1399 -0.0502
  680MOL0     H91789  10.982  -0.032   6.975  2.4924  0.7478  0.2575
  680MOL0     H91790  11.234   0.177   6.676 -0.0871  0.3597 -0.5307
  680MOL0     H91791  11.223   0.277   6.824 -1.2708  0.0349 -0.4005
  680MOL0     H91792  11.462   0.188   6.760 -0.6203  0.6047 -1.0439
  680MOL0     H91793  11.387   0.025   6.803 -5.7092 -0.4794  3.3736
  680MOL0     H91794  11.372   0.096   7.036 -1.2543  0.5064 -1.7256
  680MOL0     H91795  11.421   0.266   6.994 -1.9656  0.5602 -1.4538
  680MOL0     H91796  11.625   0.133   6.892 -2.6437  1.8732 -0.6887
  680MOL0     H91797  11.591   0.010   7.001  2.6672 -1.1746 -2.6609
  680MOL0     H91798  11.720   0.321   7.248 -3.0545 -0.2282  2.4496
  680MOL0     H91799  11.028   0.253   6.669  1.4043 -0.1271  0.5819
  680MOL0     H91800  10.789   0.280   6.643  2.4080  2.9360  2.3440
  681MOL0     O91801   9.508   5.275   7.296 -1.0989 -0.3265 -0.0222
  681MOL0     C91802   9.544   5.353   7.205 -0.6404  0.5018  0.0675
  681MOL0     O91803   9.497   5.356   7.079  0.2679 -0.4515  0.6079
  681MOL0     C91804   9.444   5.247   7.015  0.1543 -0.0851  0.1768
  681MOL0     C91805   9.340   5.265   6.922 -1.0228  0.4453 -0.5837
  681MOL0     C91806   9.271   5.154   6.865  0.2282  0.4519 -0.7499
  681MOL0     C91807   9.303   5.019   6.901  0.0922  0.5287 -0.9961
  681MOL0     O91808   9.232   4.900   6.877  0.3867  0.4093 -0.3759
  681MOL0     C91809   9.100   4.912   6.820  0.0081  0.8213 -0.0837
  681MOL0     C91810   9.107   4.921   6.668 -1.2415 -0.4818  0.9420
  681MOL0     C91811   9.137   4.780   6.595  0.0980 -0.2538 -0.4801
  681MOL0     C91812   9.287   4.769   6.552 -0.1903 -0.0407 -0.9578
  681MOL0     C91813   9.316   4.633   6.492 -0.9407  0.9973  0.0878
  681MOL0     C91814   9.449   4.637   6.409  0.7204 -0.6336 -0.6155
  681MOL0     C91815   9.578   4.664   6.484  0.6238 -0.6039 -0.3350
  681MOL0     C91816   9.699   4.689   6.398 -0.7604  0.1918  0.2112
  681MOL0     N91817   9.733   4.592   6.286  0.0651 -0.5110 -0.6886
  681MOL0     C91818   9.844   4.505   6.284 -0.6497  0.3325  0.2271
  681MOL0     C91819   9.842   4.452   6.159 -0.0278 -0.4822  0.2889
  681MOL0     C91820   9.924   4.344   6.084  0.1443  0.2809  0.5693
  681MOL0     C91821   9.926   4.338   5.930 -0.0715  0.1954 -0.8369
  681MOL0     C91822  10.003   4.209   5.889  0.1331 -0.7437  0.1761
  681MOL0     C91823   9.919   4.080   5.879  0.0094 -0.0731 -0.4950
  681MOL0     O91824   9.991   3.964   5.924 -0.5901 -1.2385 -0.1947
  681MOL0     C91825  10.073   3.901   5.833 -0.5963  0.7315 -0.9852
  681MOL0     C91826  10.166   3.821   5.895  0.3161  0.1677 -0.0640
  681MOL0     C91827  10.278   3.757   5.827 -0.0678  0.4166 -0.7126
  681MOL0     C91828  10.370   3.672   5.896 -0.6466  0.7636  0.4533
  681MOL0     C91829  10.301   3.783   5.692 -0.2818 -0.7245  0.4985
  681MOL0     C91830  10.421   3.743   5.609 -0.4109  0.6176 -1.0198
  681MOL0     O91831  10.514   3.642   5.652 -0.2275 -0.0361  0.1012
  681MOL0     C91832  10.609   3.610   5.558 -0.6309 -0.1712  0.4082
  681MOL0     C91833  10.594   3.499   5.483  1.1873 -0.0310  0.8164
  681MOL0     C91834  10.693   3.445   5.403 -1.0293  0.3540 -0.9966
  681MOL0     C91835  10.805   3.524   5.382  0.8469 -0.1852  0.3399
  681MOL0     O91836  10.908   3.477   5.306  0.4283  0.4630  0.6253
  681MOL0     C91837  10.937   3.568   5.200  0.2217 -0.7551 -0.7496
  681MOL0     C91838  11.082   3.616   5.207 -0.6342 -0.2828 -0.3555
  681MOL0     C91839  11.169   3.483   5.219 -0.1170  0.2287  0.8347
  681MOL0     C91840  11.316   3.524   5.191 -0.5170  0.5551  0.1904
  681MOL0     C91841  11.417   3.418   5.225  0.0632  0.0570 -0.1045
  681MOL0     C91842  11.403   3.279   5.150  0.2289  0.6024 -0.2021
  681MOL0     C91843  11.508   3.260   5.031 -0.6971  0.2970 -0.3559
  681MOL0     C91844  11.470   3.133   4.956 -0.0090  0.2149  0.2563
  681MOL0    Cl91845  11.493   2.989   5.054  0.0363  0.3970  1.0081
  681MOL0     C91846  10.823   3.641   5.466  0.2588  0.9199  0.1847
  681MOL0     C91847  10.724   3.685   5.549  0.5456  0.4388 -0.0298
  681MOL0     O91848  10.413   3.787   5.495 -0.4858  0.4894 -0.5993
  681MOL0     C91849  10.195   3.863   5.629 -0.4590  0.5870 -0.4305
  681MOL0     C91850  10.082   3.911   5.694 -0.2602 -0.3821 -0.1732
  681MOL0     N91851   9.739   4.512   6.094 -0.0602 -0.3687  0.8714
  681MOL0     N91852   9.669   4.587   6.172 -0.1822  0.1742 -0.0217
  681MOL0     C91853   9.405   5.007   6.995  0.3159  0.2403 -0.1329
  681MOL0     C91854   9.496   5.117   7.033  0.1046 -0.6580 -0.4715
  681MOL0     C91855   9.651   5.454   7.233  0.7851  0.3910 -0.2164
  681MOL0     C91856   9.691   5.461   7.366  0.4480  0.3903  0.3534
  681MOL0     C91857   9.785   5.559   7.400  0.7663 -0.1005 -0.0612
  681MOL0     C91858   9.832   5.644   7.308 -0.4098  0.1171 -0.0051
  681MOL0     O91859   9.919   5.745   7.358  0.3263  0.9194  0.5137
  681MOL0     C91860   9.947   5.862   7.281 -0.0375 -0.5269 -0.1153
  681MOL0     C91861  10.040   5.943   7.368  0.3843 -0.5996  0.0916
  681MOL0     C91862   9.994   5.979   7.508 -0.0868 -0.3977 -0.0232
  681MOL0     C91863  10.109   6.042   7.590 -0.3982 -0.0800 -0.5864
  681MOL0     C91864  10.178   6.150   7.515 -0.1905 -0.2293 -0.6908
  681MOL0     C91865  10.242   6.228   7.450 -0.2593  0.4416  0.9593
  681MOL0     C91866   9.779   5.651   7.176  0.1198 -1.5914  0.0826
  681MOL0     C91867   9.686   5.557   7.144 -0.4421 -0.7394  1.0830
  681MOL0     H91868   9.327   5.371   6.905 -5.1384  0.5104  1.6569
  681MOL0     H91869   9.197   5.179   6.789 -1.9408 -1.1783  0.7058
  681MOL0     H91870   9.032   4.830   6.846  0.5156  1.3805  3.5413
  681MOL0     H91871   9.060   5.007   6.854 -0.5732 -0.2109  2.3807
  681MOL0     H91872   9.021   4.968   6.620  0.8801  1.3958 -1.2460
  681MOL0     H91873   9.191   4.986   6.645 -2.2520 -0.3455 -3.0353
  681MOL0     H91874   9.097   4.694   6.650 -0.0629 -1.9171 -3.0497
  681MOL0     H91875   9.083   4.785   6.501  3.2328  1.2491 -2.3492
  681MOL0     H91876   9.308   4.856   6.489 -0.7704  0.6737 -0.1890
  681MOL0     H91877   9.342   4.777   6.646 -1.8744  0.0217  0.0609
  681MOL0     H91878   9.336   4.561   6.572  2.9432  1.8407  0.0570
  681MOL0     H91879   9.230   4.625   6.424 -2.8602  3.2405  2.0404
  681MOL0     H91880   9.451   4.540   6.357 -0.0941 -1.9895  1.7239
  681MOL0     H91881   9.438   4.720   6.340  1.3287 -0.4714 -0.5251
  681MOL0     H91882   9.563   4.760   6.535  0.1400  0.3113 -2.1371
  681MOL0     H91883   9.588   4.578   6.551 -2.5160 -0.6729  0.1977
  681MOL0     H91884   9.781   4.707   6.469 -0.1477  1.4408 -0.7670
  681MOL0     H91885   9.677   4.773   6.331  2.7282 -1.9083 -4.1109
  681MOL0     H91886   9.917   4.490   6.363  0.3664 -1.1218 -0.9322
  681MOL0     H91887  10.027   4.348   6.122 -0.2881 -3.0631  2.4451
  681MOL0     H91888   9.888   4.244   6.107 -0.6370 -0.2194 -2.3977
  681MOL0     H91889   9.964   4.436   5.900 -1.2234  1.9748  2.7796
  681MOL0     H91890   9.822   4.327   5.897 -1.2614 -1.5059  2.8176
  681MOL0     H91891  10.069   4.196   5.976 -2.2854 -2.0085  1.9575
  681MOL0     H91892  10.050   4.236   5.794  1.6153  0.4819  1.2149
  681MOL0     H91893   9.888   4.057   5.777  0.7257 -0.0263 -0.7264
  681MOL0     H91894   9.826   4.083   5.936 -0.6244  1.7529 -1.5217
  681MOL0     H91895  10.157   3.810   6.003 -0.3856  1.6715  0.0472
  681MOL0     H91896  10.332   3.674   5.998  0.0286 -0.3347  0.7439
  681MOL0     H91897  10.377   3.571   5.854  1.5674  0.3948  1.5642
  681MOL0     H91898  10.468   3.720   5.887  0.7280 -2.0490 -1.0162
  681MOL0     H91899  10.502   3.451   5.513  1.1243  0.1944  0.9854
  681MOL0     H91900  10.681   3.348   5.356  1.2866 -0.0295 -0.8938
  681MOL0     H91901  10.924   3.515   5.105  1.3022 -2.7768  0.1807
  681MOL0     H91902  10.879   3.661   5.205  0.5044 -0.5299 -1.5375
  681MOL0     H91903  11.121   3.686   5.132  3.5950 -1.9915 -0.0202
  681MOL0     H91904  11.094   3.665   5.304 -2.3563 -4.2010  2.0228
  681MOL0     H91905  11.146   3.410   5.141  0.0034  0.4693  0.5739
  681MOL0     H91906  11.155   3.440   5.319 -3.5924 -0.1403  0.3126
  681MOL0     H91907  11.336   3.541   5.084  1.5216 -1.2281  0.2090
  681MOL0     H91908  11.335   3.621   5.237 -1.7175  1.0758 -0.3724
  681MOL0     H91909  11.424   3.397   5.332  4.3084 -2.0205 -0.5917
  681MOL0     H91910  11.510   3.471   5.206  0.7046  0.0378  2.6847
  681MOL0     H91911  11.423   3.204   5.227  3.0676 -0.5786 -1.9061
  681MOL0     H91912  11.308   3.261   5.099  0.9826 -0.0004 -1.4802
  681MOL0     H91913  11.607   3.242   5.073  2.0741  3.7646 -4.5038
  681MOL0     H91914  11.507   3.343   4.959  2.4608  1.2088  0.5066
  681MOL0     H91915  11.528   3.119   4.865 -2.1707  2.2353 -1.5632
  681MOL0     H91916  11.369   3.136   4.916 -0.3549  1.0035  1.1382
  681MOL0     H91917  10.918   3.694   5.467  1.0015 -0.2537  2.7270
  681MOL0     H91918  10.740   3.770   5.614 -1.2216  1.0499 -0.3642
  681MOL0     H91919  10.196   3.881   5.522 -0.7674 -0.6192 -0.6517
  681MOL0     H91920  10.008   3.970   5.641 -1.1851  0.7811  2.2738
  681MOL0     H91921   9.422   4.902   7.015  0.5632 -0.2605 -2.6531
  681MOL0     H91922   9.581   5.080   7.088 -0.1550 -0.0924  0.3180
  681MOL0     H91923   9.649   5.392   7.438  0.2732  2.2628  2.1708
  681MOL0     H91924   9.821   5.572   7.502  1.1437  0.0126 -0.2080
  681MOL0     H91925   9.985   5.854   7.179 -0.8817 -4.2625 -0.2697
  681MOL0     H91926   9.851   5.914   7.280 -0.9625 -2.1668 -1.6687
  681MOL0     H91927  10.060   6.034   7.310 -1.2597  0.9861  1.8499
  681MOL0     H91928  10.139   5.897   7.375  1.1163  0.7363 -0.9863
  681MOL0     H91929   9.936   5.897   7.551 -0.9660 -0.0696 -0.5519
  681MOL0     H91930   9.923   6.061   7.494 -1.3294 -0.9870  2.3883
  681MOL0     H91931  10.185   5.969   7.619 -0.7393 -0.5663 -0.9244
  681MOL0     H91932  10.065   6.081   7.682 -1.3971  0.3851 -1.2376
  681MOL0     H91933  10.305   6.288   7.387  0.2960  1.3862  2.3658
  681MOL0     H91934   9.821   5.709   7.095 -0.6986 -3.4310 -1.7531
  681MOL0     H91935   9.643   5.555   7.045  2.0324 -3.9741 -0.0871
  682MOL0     O91936   9.813   9.834   7.603  0.1732 -0.2177 -0.0243
  682MOL0     C91937   9.895   9.777   7.678  0.6502 -0.7985 -0.0161
  682MOL0     O91938  10.001   9.709   7.640 -0.9069  0.1372 -0.3087
  682MOL0     C91939  10.021   9.702   7.506  0.1502 -0.1960  0.0921
  682MOL0     C91940  10.105   9.790   7.444 -0.2018  0.3507  0.7322
  682MOL0     C91941  10.122   9.794   7.312  0.6329  0.4614  0.8358
  682MOL0     C91942  10.041   9.704   7.232  0.6405  0.2043  0.6265
  682MOL0     O91943  10.055   9.710   7.096  0.2423  0.7434 -1.3941
  682MOL0     C91944   9.948   9.677   7.004 -0.5726  0.2523 -0.7938
  682MOL0     C91945   9.838   9.777   7.009  0.3262 -0.4755 -0.4058
  682MOL0     C91946   9.794   9.819   6.869  0.1012 -1.1684 -0.2685
  682MOL0     C91947   9.661   9.900   6.864  0.2751 -0.5330 -0.7350
  682MOL0     C91948   9.660  10.026   6.948  0.1499 -0.2080 -0.1581
  682MOL0     C91949   9.725  10.142   6.874 -0.0836  1.0382 -0.6448
  682MOL0     C91950   9.747  10.264   6.968 -0.1548  1.0149 -0.2414
  682MOL0     C91951   9.624  10.325   7.027 -0.0931 -1.2245 -0.5716
  682MOL0     N91952   9.651  10.431   7.126 -0.3330  0.8946  1.0796
  682MOL0     C91953   9.616  10.447   7.248  0.2301  0.4221 -0.3261
  682MOL0     C91954   9.670  10.562   7.286 -0.4040  0.7637  0.0634
  682MOL0     C91955   9.671  10.607   7.422  0.4620 -0.7581  0.0562
  682MOL0     C91956   9.546  10.682   7.461  0.3401  0.1841  1.6141
  682MOL0     C91957   9.539  10.824   7.400 -0.0706  0.7079 -0.6671
  682MOL0     C91958   9.419  10.901   7.438 -0.0148  0.5516  0.3217
  682MOL0     O91959   9.299  10.855   7.370 -0.2851 -0.3439 -0.5097
  682MOL0     C91960   9.200  10.947   7.369  0.4770 -0.6873  0.0850
  682MOL0     C91961   9.143  11.028   7.474  0.4162  0.1232 -0.5576
  682MOL0     C91962   9.045  11.128   7.444  1.6228  0.1701  0.4608
  682MOL0     C91963   8.981  11.200   7.566  0.1050  0.7274 -0.1064
  682MOL0     C91964   9.009  11.159   7.307 -0.0113  0.6244  0.9009
  682MOL0     C91965   8.919  11.264   7.266  0.3980  0.3455  0.9071
  682MOL0     O91966   8.924  11.296   7.135  0.0765  0.0689  0.5080
  682MOL0     C91967   8.855  11.396   7.070 -0.0716 -0.2191 -0.3935
  682MOL0     C91968   8.856  11.379   6.931  0.1495 -1.2458 -0.3576
  682MOL0     C91969   8.811  11.488   6.862 -0.5426 -0.8677 -0.3524
  682MOL0     C91970   8.767  11.600   6.921 -1.1945 -0.3186 -0.3185
  682MOL0     O91971   8.729  11.699   6.834  0.2439  0.0594  0.2399
  682MOL0     C91972   8.700  11.831   6.868 -0.2726 -0.1477 -0.3521
  682MOL0     C91973   8.705  11.910   6.737  0.2516 -0.3806 -1.0327
  682MOL0     C91974   8.835  11.895   6.659  1.0308 -0.1100  0.3758
  682MOL0     C91975   8.826  11.974   6.523  0.0544  0.9765 -0.7375
  682MOL0     C91976   8.953  11.930   6.446  0.0076 -1.6110  0.0128
  682MOL0     C91977   8.946  11.971   6.297 -0.6019 -0.1027  0.2129
  682MOL0     C91978   8.941  12.120   6.291 -0.1333  0.0752  0.2058
  682MOL0     C91979   8.970  12.182   6.149 -0.6495  0.1307 -0.4798
  682MOL0    Cl91980   9.054  12.329   6.159  0.4268 -0.5183 -0.5108
  682MOL0     C91981   8.751  11.610   7.059  1.2738  0.2391 -0.6307
  682MOL0     C91982   8.801  11.511   7.138  0.1033 -0.8159  0.1364
  682MOL0     O91983   8.841  11.312   7.348 -0.1295 -0.5256  0.1567
  682MOL0     C91984   9.068  11.080   7.203 -0.5498  0.5223 -0.1666
  682MOL0     C91985   9.159  10.971   7.236 -0.2013 -0.1386  0.2683
  682MOL0     N91986   9.759  10.615   7.190  0.6385  0.1003 -0.4472
  682MOL0     N91987   9.740  10.530   7.090 -1.1595  0.5403  0.8969
  682MOL0     C91988   9.951   9.612   7.300  0.5271 -0.8733  0.2118
  682MOL0     C91989   9.941   9.611   7.436  0.3547  0.3044 -1.3062
  682MOL0     C91990   9.867   9.760   7.824 -0.4718  0.2270 -0.5111
  682MOL0     C91991   9.780   9.851   7.886 -0.2393  1.2752 -0.2056
  682MOL0     C91992   9.752   9.830   8.027  0.7598  0.8881 -0.5295
  682MOL0     C91993   9.815   9.738   8.110  0.4022 -0.1466  0.1120
  682MOL0     O91994   9.783   9.743   8.240 -0.3921  0.4106  0.2256
  682MOL0     C91995   9.875   9.800   8.329 -0.1228  0.7729 -0.6661
  682MOL0     C91996   9.893   9.687   8.441  0.9359  0.0574  1.1627
  682MOL0     C91997   9.938   9.554   8.379  0.4742 -0.2753 -0.3021
  682MOL0     C91998   9.974   9.456   8.498  1.0032  0.2695  0.6530
  682MOL0     C91999  10.090   9.487   8.583 -0.6567 -0.8304  0.0005
  682MOL0     C92000  10.191   9.495   8.655 -0.2735 -0.2108 -0.0302
  682MOL0     C92001   9.902   9.647   8.047 -0.0354  0.1404 -0.6708
  682MOL0     C92002   9.932   9.658   7.904 -1.3051 -0.0808 -0.5402
  682MOL0     H92003  10.172   9.860   7.492  0.6989  0.2311 -0.3173
  682MOL0     H92004  10.196   9.856   7.263  1.8918 -2.1938 -0.8848
  682MOL0     H92005  10.005   9.671   6.911  3.2919 -1.3270  1.4457
  682MOL0     H92006   9.901   9.581   7.026  1.8891 -0.8593 -0.0402
  682MOL0     H92007   9.766   9.737   7.081  4.0936 -1.0868  3.4199
  682MOL0     H92008   9.878   9.865   7.060  0.5782 -0.7611 -0.1037
  682MOL0     H92009   9.870   9.870   6.809  1.3760 -0.1381  2.0652
  682MOL0     H92010   9.785   9.726   6.812  3.2918 -0.4690 -2.1566
  682MOL0     H92011   9.635   9.928   6.761 -1.1371  1.5086  0.1114
  682MOL0     H92012   9.578   9.839   6.901  1.2474 -2.9078 -2.2544
  682MOL0     H92013   9.554  10.038   6.972 -0.1048 -2.3499 -0.0335
  682MOL0     H92014   9.713  10.005   7.041 -1.4565 -1.6472  0.4807
  682MOL0     H92015   9.809  10.102   6.817 -1.7548 -2.4351 -0.9713
  682MOL0     H92016   9.650  10.172   6.800  0.1438  0.3752 -1.1542
  682MOL0     H92017   9.810  10.228   7.051 -1.8500  2.6658  1.8919
  682MOL0     H92018   9.803  10.337   6.908  2.0420  0.1405  0.6452
  682MOL0     H92019   9.572  10.243   7.078  3.0742 -1.4098  2.7408
  682MOL0     H92020   9.555  10.355   6.947 -0.0094 -1.9171 -0.9186
  682MOL0     H92021   9.552  10.377   7.301  1.3846  1.0077  1.9675
  682MOL0     H92022   9.671  10.523   7.492 -4.4437 -1.4885 -0.4783
  682MOL0     H92023   9.759  10.666   7.449  1.9460 -1.6891 -2.4376
  682MOL0     H92024   9.534  10.670   7.569 -1.5816 -0.8354  1.3246
  682MOL0     H92025   9.455  10.629   7.432  3.0844 -3.6787 -0.8514
  682MOL0     H92026   9.550  10.810   7.292  0.4534 -2.8996 -0.2636
  682MOL0     H92027   9.624  10.881   7.438  0.3228 -0.4236  0.1749
  682MOL0     H92028   9.436  11.009   7.431 -2.1026  1.0003  1.3622
  682MOL0     H92029   9.408  10.890   7.546 -1.0761  0.8302  0.2553
  682MOL0     H92030   9.176  11.004   7.575 -2.5882 -0.1341  0.4744
  682MOL0     H92031   8.874  11.178   7.572  0.7137 -2.5263  0.6690
  682MOL0     H92032   9.018  11.157   7.659 -0.3008  1.4679  0.4112
  682MOL0     H92033   8.984  11.310   7.565 -2.5158  0.8848  0.5168
  682MOL0     H92034   8.904  11.294   6.884 -0.1693 -1.9915  0.6223
  682MOL0     H92035   8.811  11.493   6.754 -0.4939 -0.6531 -0.3431
  682MOL0     H92036   8.600  11.829   6.914 -1.1554  1.4342 -2.0530
  682MOL0     H92037   8.762  11.875   6.947 -3.8682  0.1300  2.6147
  682MOL0     H92038   8.625  11.874   6.672  0.3119 -2.2416 -0.1380
  682MOL0     H92039   8.683  12.011   6.772 -0.1871 -0.8116 -0.0147
  682MOL0     H92040   8.844  11.789   6.636 -2.0834 -0.9282  2.2905
  682MOL0     H92041   8.921  11.921   6.722  0.1477 -2.2465  2.6371
  682MOL0     H92042   8.736  11.957   6.463  0.2653 -2.6832 -0.2245
  682MOL0     H92043   8.832  12.081   6.546 -1.2834  0.5056  2.2045
  682MOL0     H92044   8.968  11.823   6.462  1.5585 -1.0201  3.3741
  682MOL0     H92045   9.037  11.972   6.502 -2.5142  0.8613  2.2161
  682MOL0     H92046   9.035  11.935   6.244 -0.4008 -2.9031  2.1989
  682MOL0     H92047   8.859  11.919   6.256 -0.2904 -1.3666  1.0985
  682MOL0     H92048   9.021  12.144   6.362 -0.7178  1.2379  0.4999
  682MOL0     H92049   8.843  12.149   6.332  0.6467  1.4078  1.2063
  682MOL0     H92050   8.878  12.196   6.092 -2.6415  0.4825  2.5902
  682MOL0     H92051   9.040  12.120   6.093  1.4616  2.4906 -0.6766
  682MOL0     H92052   8.703  11.704   7.083 -1.0757  0.1388 -4.1865
  682MOL0     H92053   8.798  11.521   7.246 -0.2579  1.1007 -0.0117
  682MOL0     H92054   9.061  11.095   7.096 -2.0806 -1.8943 -0.4617
  682MOL0     H92055   9.217  10.923   7.158 -2.4486 -2.3345 -0.1716
  682MOL0     H92056   9.886   9.547   7.243 -0.9591 -1.0042  1.9390
  682MOL0     H92057   9.875   9.543   7.490  0.2859  1.8580  0.7105
  682MOL0     H92058   9.729   9.928   7.828 -2.7595  0.9660  1.4346
  682MOL0     H92059   9.683   9.897   8.078 -3.2871 -3.5517  0.5420
  682MOL0     H92060   9.975   9.826   8.292  1.5006 -1.8425  1.4644
  682MOL0     H92061   9.839   9.889   8.381 -1.9142  0.2773 -0.9992
  682MOL0     H92062   9.799   9.668   8.494 -1.0623  0.5500 -1.9568
  682MOL0     H92063   9.955   9.732   8.519  5.0092 -0.2064 -1.6105
  682MOL0     H92064  10.030   9.571   8.322  0.4406 -0.7062 -0.4894
  682MOL0     H92065   9.849   9.512   8.331 -1.0928  2.1702  0.2907
  682MOL0     H92066   9.994   9.353   8.464 -0.6117  0.8380 -2.3841
  682MOL0     H92067   9.885   9.439   8.559 -0.2290 -2.0060 -1.5442
  682MOL0     H92068  10.273   9.493   8.724 -1.1306  2.5548  1.2152
  682MOL0     H92069   9.948   9.575   8.114 -3.7385 -0.5646  1.3698
  682MOL0     H92070  10.009   9.592   7.866  0.4891  1.1277  0.8101
  683MOL0     O92071   1.891   6.625   8.492 -0.1466 -0.0006 -0.6602
  683MOL0     C92072   1.798   6.696   8.533  0.0100 -0.4188  0.9671
  683MOL0     O92073   1.713   6.763   8.453 -0.7331  0.5547  0.1474
  683MOL0     C92074   1.727   6.749   8.317 -0.2448  0.2703 -0.1856
  683MOL0     C92075   1.831   6.812   8.245  0.3714  0.4196  0.7021
  683MOL0     C92076   1.819   6.805   8.102 -0.0745 -0.4605 -0.2990
  683MOL0     C92077   1.713   6.747   8.032 -0.4594  0.4994 -0.6933
  683MOL0     O92078   1.688   6.752   7.902  0.2704 -0.3194  0.6009
  683MOL0     C92079   1.766   6.822   7.806 -0.3105 -0.4793 -0.4964
  683MOL0     C92080   1.717   6.966   7.808  0.5720 -0.4965  0.5095
  683MOL0     C92081   1.768   7.047   7.688 -0.2262  0.3625 -0.0730
  683MOL0     C92082   1.907   7.114   7.704 -0.2179  0.2640  0.3544
  683MOL0     C92083   1.942   7.183   7.569 -0.4858 -0.3870  0.0291
  683MOL0     C92084   2.079   7.262   7.570  0.2403  0.1011 -0.7743
  683MOL0     C92085   2.113   7.297   7.426  0.0270  0.4833  0.4745
  683MOL0     C92086   2.245   7.371   7.399  0.3712  0.0560 -0.1857
  683MOL0     N92087   2.226   7.512   7.401 -0.9588 -0.4369 -0.4154
  683MOL0     C92088   2.201   7.590   7.295 -0.0025 -0.9167 -0.9825
  683MOL0     C92089   2.215   7.719   7.335  0.2897 -0.2358  0.0222
  683MOL0     C92090   2.220   7.838   7.238  0.0520  0.1658 -1.1807
  683MOL0     C92091   2.325   7.946   7.265 -0.5575 -0.0802  0.2994
  683MOL0     C92092   2.464   7.905   7.325 -0.5765  0.4864 -0.3496
  683MOL0     C92093   2.563   8.032   7.356  0.6285  0.1374 -0.3458
  683MOL0     O92094   2.695   7.994   7.358 -0.3309 -0.3610  0.2531
  683MOL0     C92095   2.798   8.085   7.372  0.7201 -0.0743  0.2851
  683MOL0     C92096   2.927   8.035   7.353 -1.2071 -0.0591  0.3501
  683MOL0     C92097   3.041   8.102   7.384  1.1569 -0.0192 -0.0735
  683MOL0     C92098   3.169   8.027   7.376  0.8027 -0.7187 -0.2312
  683MOL0     C92099   3.025   8.242   7.419  0.1632  0.1705 -0.5673
  683MOL0     C92100   3.138   8.325   7.438  0.0757 -0.8147 -0.0643
  683MOL0     O92101   3.121   8.425   7.531 -0.0134  0.3660  1.0536
  683MOL0     C92102   3.210   8.531   7.544  0.3769 -0.9425 -0.0404
  683MOL0     C92103   3.344   8.521   7.540 -0.1646 -0.3360 -0.4535
  683MOL0     C92104   3.417   8.640   7.561  1.2697  0.6414 -0.1592
  683MOL0     C92105   3.360   8.768   7.571  1.0817  0.4295 -1.2647
  683MOL0     O92106   3.433   8.881   7.593  0.0119  0.6121  0.2595
  683MOL0     C92107   3.578   8.880   7.565 -1.3943  0.3265 -0.1174
  683MOL0     C92108   3.655   8.843   7.693 -0.2487  0.3912  0.4842
  683MOL0     C92109   3.622   8.939   7.805 -0.7186  0.4191  0.7291
  683MOL0     C92110   3.760   8.964   7.882 -0.5954  0.1362 -0.5277
  683MOL0     C92111   3.745   9.006   8.029 -0.0944 -0.1738 -0.7354
  683MOL0     C92112   3.700   9.162   8.057  0.6303 -0.0753  0.5138
  683MOL0     C92113   3.811   9.270   8.033  0.4008  0.7555  0.6381
  683MOL0     C92114   3.756   9.414   8.079  0.8091 -0.0858 -0.4133
  683MOL0    Cl92115   3.684   9.515   7.944 -0.1034  0.0762 -0.3814
  683MOL0     C92116   3.218   8.773   7.572 -0.5241  0.1693  0.1435
  683MOL0     C92117   3.143   8.653   7.561  0.0740 -0.1977 -0.0337
  683MOL0     O92118   3.229   8.316   7.358 -0.4395  0.1318 -0.2092
  683MOL0     C92119   2.894   8.287   7.444  0.6346 -0.6566  0.0338
  683MOL0     C92120   2.785   8.213   7.426  0.6506  0.2350  0.8159
  683MOL0     N92121   2.228   7.716   7.471  0.1772 -0.0329  0.3311
  683MOL0     N92122   2.240   7.594   7.511  0.8815  0.1768  0.0053
  683MOL0     C92123   1.609   6.682   8.103 -0.5710 -0.0884 -0.7763
  683MOL0     C92124   1.624   6.688   8.240 -0.3980  0.8817  0.3513
  683MOL0     C92125   1.801   6.715   8.683  0.4420 -0.4019 -0.1734
  683MOL0     C92126   1.877   6.636   8.771 -0.9650  0.1353 -0.0114
  683MOL0     C92127   1.872   6.660   8.911 -0.0429 -0.3680  0.5261
  683MOL0     C92128   1.797   6.762   8.963 -0.1833  0.1210 -0.4439
  683MOL0     O92129   1.794   6.793   9.101 -0.5128  0.2378 -0.1522
  683MOL0     C92130   1.902   6.750   9.184 -0.5519  0.0491 -0.5674
  683MOL0     C92131   1.901   6.791   9.330  0.1945 -0.3407  0.8501
  683MOL0     C92132   1.791   6.712   9.402 -0.0364  0.1305 -1.0289
  683MOL0     C92133   1.818   6.689   9.556  0.3451 -0.0667 -0.9996
  683MOL0     C92134   1.715   6.784   9.624  0.1383 -0.8364 -0.0730
  683MOL0     C92135   1.654   6.873   9.686 -0.1639 -0.7050 -0.6346
  683MOL0     C92136   1.727   6.843   8.873  0.0542 -0.1181 -0.1190
  683MOL0     C92137   1.728   6.822   8.735  0.4703  0.1535 -0.0015
  683MOL0     H92138   1.912   6.862   8.298  0.7197  2.4368 -1.5603
  683MOL0     H92139   1.889   6.855   8.037 -1.5642  2.5306  0.2102
  683MOL0     H92140   1.873   6.816   7.827 -0.0440  1.8153 -0.9962
  683MOL0     H92141   1.747   6.775   7.709 -0.6740 -0.4242 -0.4515
  683MOL0     H92142   1.609   6.961   7.790  0.7058 -1.2765 -0.1286
  683MOL0     H92143   1.741   7.013   7.903 -3.6236  1.0806  0.9918
  683MOL0     H92144   1.788   6.976   7.607  1.8244  0.1933  0.5254
  683MOL0     H92145   1.689   7.121   7.673 -0.5827  0.2342  1.0898
  683MOL0     H92146   1.908   7.190   7.782  3.4305 -1.7032  2.4937
  683MOL0     H92147   1.988   7.049   7.740 -0.6164 -0.1226  0.5583
  683MOL0     H92148   1.946   7.110   7.488  1.7005  1.8554 -2.0204
  683MOL0     H92149   1.867   7.257   7.543  0.8249  0.4448 -1.5487
  683MOL0     H92150   2.071   7.357   7.624 -1.4455  0.1680 -1.0691
  683MOL0     H92151   2.166   7.203   7.597  0.0586  0.4152  0.5593
  683MOL0     H92152   2.126   7.203   7.372  0.3534  1.2083 -0.7571
  683MOL0     H92153   2.025   7.346   7.382 -0.6593 -0.5823  0.6207
  683MOL0     H92154   2.281   7.346   7.298  1.1333 -1.8009  0.4956
  683MOL0     H92155   2.316   7.345   7.479  0.1052  0.7463  0.2800
  683MOL0     H92156   2.187   7.543   7.199  0.1423 -3.5988  0.2212
  683MOL0     H92157   2.229   7.785   7.143  3.3266 -3.9903  1.0596
  683MOL0     H92158   2.118   7.876   7.250 -0.2847 -1.3782  2.2918
  683MOL0     H92159   2.275   8.018   7.330  0.1767  0.7924 -0.0766
  683MOL0     H92160   2.341   8.002   7.173 -4.3825  1.8538  0.5944
  683MOL0     H92161   2.512   7.827   7.266  0.3134 -0.2903  1.3258
  683MOL0     H92162   2.440   7.844   7.413 -3.0199 -0.2035 -1.4273
  683MOL0     H92163   2.538   8.073   7.454  3.3213 -0.6271  0.7404
  683MOL0     H92164   2.541   8.110   7.283 -2.7387 -2.0439 -1.9179
  683MOL0     H92165   2.932   7.930   7.324 -1.6427 -0.8122  2.7768
  683MOL0     H92166   3.148   7.927   7.337  1.6855 -1.7260  1.7283
  683MOL0     H92167   3.255   8.068   7.323  0.9008  0.6794  0.9407
  683MOL0     H92168   3.209   8.006   7.476  0.9929  0.1073 -0.1244
  683MOL0     H92169   3.395   8.425   7.533  1.1022  0.2429  0.5197
  683MOL0     H92170   3.523   8.618   7.559  0.8574 -1.4888 -1.0910
  683MOL0     H92171   3.599   8.801   7.492 -2.4570  0.8195 -0.9888
  683MOL0     H92172   3.615   8.977   7.532 -0.0101 -0.4052 -0.8196
  683MOL0     H92173   3.631   8.740   7.720  0.3556  0.1875  0.2516
  683MOL0     H92174   3.761   8.847   7.666 -0.8760 -0.7576 -2.4779
  683MOL0     H92175   3.542   8.893   7.863  1.3951 -3.1949  1.0838
  683MOL0     H92176   3.595   9.030   7.750 -0.5204 -1.3599 -2.5438
  683MOL0     H92177   3.828   8.878   7.886  3.2242  2.9315  0.9945
  683MOL0     H92178   3.811   9.046   7.830 -1.8719  0.7336 -0.8632
  683MOL0     H92179   3.837   8.979   8.082 -1.2131 -0.3834  1.2214
  683MOL0     H92180   3.672   8.946   8.083 -0.6611  0.9894 -0.1673
  683MOL0     H92181   3.620   9.173   7.984 -0.7078 -1.4026  1.7092
  683MOL0     H92182   3.671   9.186   8.160 -0.0355  0.5710  0.1797
  683MOL0     H92183   3.861   9.271   7.936 -0.8732 -1.5482 -0.1226
  683MOL0     H92184   3.891   9.247   8.104  0.3270  1.2243  0.8809
  683MOL0     H92185   3.846   9.464   8.118  0.5239 -0.7400  1.1920
  683MOL0     H92186   3.683   9.418   8.161  0.5456 -2.8758 -0.4251
  683MOL0     H92187   3.164   8.867   7.566  0.8177  1.3189  3.6173
  683MOL0     H92188   3.035   8.662   7.568  0.2294  1.0747  1.3998
  683MOL0     H92189   2.870   8.390   7.470 -1.0585 -0.7939 -0.8719
  683MOL0     H92190   2.692   8.264   7.449 -0.7564 -2.4065  1.3886
  683MOL0     H92191   1.536   6.632   8.041 -0.9893  0.2108 -0.5311
  683MOL0     H92192   1.549   6.630   8.293 -0.1209 -0.8844 -1.1010
  683MOL0     H92193   1.937   6.553   8.731  1.5569  1.4523  0.8152
  683MOL0     H92194   1.938   6.604   8.976  1.1986 -1.4651 -1.5531
  683MOL0     H92195   1.928   6.643   9.178 -0.0369  0.1660 -0.4886
  683MOL0     H92196   1.985   6.806   9.140  1.6502  0.5997  3.7891
  683MOL0     H92197   1.889   6.899   9.332 -0.4506 -0.4138  2.1921
  683MOL0     H92198   1.997   6.768   9.376  1.9619  2.4490 -1.1722
  683MOL0     H92199   1.771   6.614   9.358 -6.7605  1.1035 -1.1815
  683MOL0     H92200   1.694   6.761   9.392  0.4902  1.3300 -0.5488
  683MOL0     H92201   1.921   6.706   9.588 -0.5811  0.2774  2.0588
  683MOL0     H92202   1.793   6.585   9.579 -0.7457 -0.2346 -2.7627
  683MOL0     H92203   1.593   6.939   9.743  1.0774 -0.2457  0.1928
  683MOL0     H92204   1.668   6.920   8.922 -1.6301 -2.2841  1.4650
  683MOL0     H92205   1.672   6.889   8.671  0.6364  0.2414 -0.0525
  684MOL0     O92206   2.525   5.827   1.056  0.0010 -0.0327 -0.1610
  684MOL0     C92207   2.492   5.883   0.945 -0.0827 -0.1090  0.6514
  684MOL0     O92208   2.527   5.835   0.817 -0.1395 -0.3304 -0.1567
  684MOL0     C92209   2.600   5.717   0.801  0.7716 -0.4953  1.0736
  684MOL0     C92210   2.665   5.705   0.677  0.6752 -0.9587  0.1954
  684MOL0     C92211   2.746   5.597   0.646  0.2291  0.7751  0.2771
  684MOL0     C92212   2.757   5.492   0.738  0.4076  1.0527 -0.2614
  684MOL0     O92213   2.840   5.380   0.712 -0.7329  0.4189 -0.5336
  684MOL0     C92214   2.894   5.318   0.825 -0.4253 -0.2767  0.2864
  684MOL0     C92215   3.004   5.236   0.776 -1.0499  0.6481  0.6664
  684MOL0     C92216   3.118   5.329   0.730  0.9600  0.7153 -0.4968
  684MOL0     C92217   3.243   5.247   0.691 -0.0577 -0.2149  0.4685
  684MOL0     C92218   3.353   5.333   0.635 -0.2301  0.4269  0.3216
  684MOL0     C92219   3.479   5.257   0.590  0.0095 -0.0263 -0.3799
  684MOL0     C92220   3.439   5.156   0.492  0.2599  0.6257  1.0581
  684MOL0     C92221   3.564   5.088   0.443  0.0708 -0.0723  1.0040
  684MOL0     N92222   3.653   5.010   0.528  0.6468  0.2145  0.1888
  684MOL0     C92223   3.614   4.891   0.598 -0.4288 -0.0036  0.1616
  684MOL0     C92224   3.724   4.858   0.664 -0.1083 -0.5195 -0.4686
  684MOL0     C92225   3.740   4.733   0.746  1.4406  0.3222  0.2778
  684MOL0     C92226   3.881   4.673   0.747  0.2999  0.4927  0.7402
  684MOL0     C92227   3.910   4.604   0.614  0.1781 -1.1911 -0.9030
  684MOL0     C92228   4.061   4.569   0.586  0.9709 -0.0579 -0.0763
  684MOL0     O92229   4.118   4.660   0.496 -0.3771 -0.1672  0.1696
  684MOL0     C92230   4.069   4.652   0.365 -0.0982  0.0017 -1.6338
  684MOL0     C92231   4.094   4.547   0.278  0.8108  0.6652  1.2593
  684MOL0     C92232   4.045   4.552   0.148 -0.1794  0.2259  0.3456
  684MOL0     C92233   4.071   4.417   0.071  0.1063  0.2570  0.2618
  684MOL0     C92234   3.990   4.671   0.090 -0.6961 -0.8448 -1.5512
  684MOL0     C92235   3.954   4.691  -0.056 -0.8292  0.1472 -0.6313
  684MOL0     O92236   3.914   4.819  -0.083 -0.3488  0.3387 -0.7766
  684MOL0     C92237   3.831   4.841  -0.183 -0.7518  0.8035  0.5233
  684MOL0     C92238   3.884   4.850  -0.311 -0.3987  0.1685  0.1724
  684MOL0     C92239   3.802   4.870  -0.421  0.9319  0.8316 -0.5598
  684MOL0     C92240   3.661   4.892  -0.401 -0.5002  1.1620 -0.7031
  684MOL0     O92241   3.567   4.909  -0.499 -0.6233  1.0457 -0.3020
  684MOL0     C92242   3.566   4.836  -0.613  0.5849  0.2444  0.2834
  684MOL0     C92243   3.612   4.914  -0.729 -0.1970  0.5433 -0.1450
  684MOL0     C92244   3.639   4.829  -0.853 -0.1768  0.0730 -0.4743
  684MOL0     C92245   3.686   4.910  -0.980 -0.1380 -0.4190  0.5665
  684MOL0     C92246   3.721   4.824  -1.107 -0.6618  0.0534 -0.2383
  684MOL0     C92247   3.608   4.746  -1.162  0.3375 -0.1932  0.4801
  684MOL0     C92248   3.526   4.845  -1.239 -0.0944 -0.2612  0.2414
  684MOL0     C92249   3.413   4.766  -1.302 -0.1983  0.2523 -0.2876
  684MOL0    Cl92250   3.477   4.720  -1.470 -0.2335  0.4421 -0.2188
  684MOL0     C92251   3.615   4.894  -0.267  1.0286 -0.0007  0.8912
  684MOL0     C92252   3.693   4.864  -0.156  0.4446  1.0356  0.6102
  684MOL0     O92253   3.940   4.591  -0.127 -0.5465  0.6372  0.4912
  684MOL0     C92254   3.964   4.773   0.181 -0.7831 -0.2193  0.5155
  684MOL0     C92255   4.004   4.765   0.313  0.3985 -0.6013 -0.1183
  684MOL0     N92256   3.826   4.954   0.639 -1.0766  0.4880 -0.4863
  684MOL0     N92257   3.785   5.035   0.553 -0.4735  0.3380 -1.1830
  684MOL0     C92258   2.661   5.491   0.845  0.9281  0.4356 -0.5514
  684MOL0     C92259   2.595   5.606   0.879  1.3277 -0.3592  0.7379
  684MOL0     C92260   2.429   6.012   0.944 -0.2649  0.6037 -0.4321
  684MOL0     C92261   2.430   6.091   1.062 -0.0134  0.3673  0.1703
  684MOL0     C92262   2.337   6.189   1.077 -0.2131  0.1151  0.1474
  684MOL0     C92263   2.252   6.235   0.980  1.1665  0.4088  0.1858
  684MOL0     O92264   2.163   6.337   0.991  0.0722 -0.0912 -0.1140
  684MOL0     C92265   2.198   6.449   1.071 -0.1687 -0.4395  1.4218
  684MOL0     C92266   2.099   6.561   1.019  0.6153 -0.2660  0.2821
  684MOL0     C92267   2.112   6.609   0.875 -0.3038  0.5941  0.0099
  684MOL0     C92268   2.241   6.671   0.841  0.1205  0.3010  0.1014
  684MOL0     C92269   2.228   6.732   0.713  0.3070  0.4633  0.8112
  684MOL0     C92270   2.237   6.777   0.604 -0.5299  0.4237  0.8412
  684MOL0     C92271   2.252   6.169   0.865 -0.1250 -0.1434  0.6118
  684MOL0     C92272   2.345   6.061   0.837  0.2721 -0.5022 -0.0021
  684MOL0     H92273   2.659   5.790   0.611  0.2626 -0.4636  0.8546
  684MOL0     H92274   2.811   5.589   0.559  0.3918 -1.2021  0.5275
  684MOL0     H92275   2.935   5.386   0.900  0.0621 -0.1027 -0.1279
  684MOL0     H92276   2.823   5.259   0.884 -2.5985  2.0702  0.2452
  684MOL0     H92277   3.039   5.184   0.866 -3.0149 -3.0603 -0.5057
  684MOL0     H92278   2.969   5.172   0.694 -0.2583  0.5207  0.4261
  684MOL0     H92279   3.073   5.382   0.646 -1.0387  0.0637  0.1029
  684MOL0     H92280   3.144   5.402   0.807 -1.2333  1.9286 -0.8449
  684MOL0     H92281   3.292   5.198   0.776  3.2839  0.1837 -1.0412
  684MOL0     H92282   3.218   5.178   0.611 -1.9728  1.7895 -0.7754
  684MOL0     H92283   3.305   5.394   0.558 -1.7314  1.1748  1.7865
  684MOL0     H92284   3.385   5.395   0.720 -0.4402  1.1058 -0.0843
  684MOL0     H92285   3.553   5.325   0.548  4.1954 -2.4796  2.3052
  684MOL0     H92286   3.532   5.208   0.671  2.5936 -1.0188 -2.5311
  684MOL0     H92287   3.375   5.075   0.528 -3.5549  2.1386 -1.6459
  684MOL0     H92288   3.383   5.189   0.405 -0.3214 -4.1270 -0.6912
  684MOL0     H92289   3.635   5.158   0.397  2.2071 -2.0320  1.1728
  684MOL0     H92290   3.516   5.026   0.367  2.6105 -0.8334 -0.0991
  684MOL0     H92291   3.521   4.837   0.588 -1.2745  1.6978 -1.7926
  684MOL0     H92292   3.692   4.744   0.844 -2.0234 -0.9785 -1.1143
  684MOL0     H92293   3.677   4.655   0.703  1.2388  0.2572  0.6861
  684MOL0     H92294   3.894   4.597   0.825  0.5252  0.7697  0.9771
  684MOL0     H92295   3.966   4.739   0.768  1.2605 -0.1211 -0.9797
  684MOL0     H92296   3.875   4.674   0.538  2.0285  2.7613  1.5354
  684MOL0     H92297   3.845   4.516   0.615 -1.0582 -0.3245  1.1924
  684MOL0     H92298   4.067   4.469   0.541  1.4382 -0.8216  1.6109
  684MOL0     H92299   4.123   4.569   0.676 -3.1123  0.7656  3.0432
  684MOL0     H92300   4.154   4.461   0.306 -0.0676 -1.8860 -3.5425
  684MOL0     H92301   3.978   4.378   0.029 -0.1891  0.1003  1.0572
  684MOL0     H92302   4.140   4.443  -0.010  1.5487 -2.0878  0.6429
  684MOL0     H92303   4.136   4.344   0.119 -1.1524 -3.7221 -3.4713
  684MOL0     H92304   3.989   4.829  -0.332 -0.0706 -1.6697  3.0780
  684MOL0     H92305   3.841   4.860  -0.522  2.1945 -0.2685  0.0042
  684MOL0     H92306   3.606   4.737  -0.592  1.8993  1.1504  2.4431
  684MOL0     H92307   3.466   4.799  -0.636  1.0073 -0.3758 -0.6154
  684MOL0     H92308   3.542   4.994  -0.756  0.7360  0.8129 -1.8935
  684MOL0     H92309   3.710   4.954  -0.704  0.3413 -2.5568  3.6298
  684MOL0     H92310   3.548   4.769  -0.864  0.8127 -1.9159  1.4289
  684MOL0     H92311   3.721   4.772  -0.808 -0.5023 -1.1916 -1.4190
  684MOL0     H92312   3.605   4.982  -0.996 -1.3998 -1.8526  0.1644
  684MOL0     H92313   3.766   4.973  -0.943 -0.6033 -1.2094  3.1554
  684MOL0     H92314   3.799   4.755  -1.076  1.4486  3.0782  1.6870
  684MOL0     H92315   3.760   4.891  -1.184 -0.2776  0.8724  0.6454
  684MOL0     H92316   3.632   4.658  -1.222 -2.1278  0.0767 -1.0514
  684MOL0     H92317   3.550   4.707  -1.078 -2.0561 -1.8642 -1.7870
  684MOL0     H92318   3.589   4.899  -1.310  0.1181 -0.7228  0.0743
  684MOL0     H92319   3.478   4.911  -1.166  0.1795  2.3067 -1.7328
  684MOL0     H92320   3.332   4.839  -1.317  1.1410  1.9119  0.2572
  684MOL0     H92321   3.384   4.677  -1.246 -0.5404 -0.1027 -1.0147
  684MOL0     H92322   3.517   4.940  -0.261  0.2630 -1.3727 -0.4846
  684MOL0     H92323   3.662   4.882  -0.053  0.8898 -0.6281  1.0599
  684MOL0     H92324   3.908   4.860   0.147 -1.7196 -0.4818  1.3266
  684MOL0     H92325   3.988   4.852   0.376 -2.5179 -1.4816  0.4813
  684MOL0     H92326   2.662   5.406   0.913  1.3942  1.3983  0.6925
  684MOL0     H92327   2.547   5.605   0.977  1.2517 -2.1540  0.7182
  684MOL0     H92328   2.485   6.057   1.149 -0.7288 -1.9924 -0.2466
  684MOL0     H92329   2.316   6.231   1.175  0.2320  0.4554  0.1016
  684MOL0     H92330   2.193   6.440   1.180  1.8097 -5.3215  1.3633
  684MOL0     H92331   2.300   6.468   1.039 -0.9053 -1.1897 -1.6749
  684MOL0     H92332   2.104   6.650   1.081  1.9380  0.3110 -0.6135
  684MOL0     H92333   1.995   6.527   1.027 -0.1243  1.2419 -1.9652
  684MOL0     H92334   2.028   6.670   0.840 -1.8162 -0.9459  0.7393
  684MOL0     H92335   2.108   6.518   0.814  0.8237  0.1311  0.6007
  684MOL0     H92336   2.317   6.592   0.841  1.6950  1.6933 -1.9015
  684MOL0     H92337   2.255   6.743   0.923 -1.7209 -0.2912  0.9927
  684MOL0     H92338   2.219   6.817   0.507 -1.0049 -0.7502  0.4302
  684MOL0     H92339   2.187   6.202   0.785 -2.1886 -1.4015  1.6841
  684MOL0     H92340   2.340   6.009   0.742  0.7284  2.4672 -1.7930
  685MOL0     O92341   0.856   8.102   8.776  1.3617 -0.2432 -0.2806
  685MOL0     C92342   0.788   8.043   8.686 -0.7903 -0.2982 -0.2099
  685MOL0     O92343   0.805   8.060   8.547  0.0874  0.1305 -0.3315
  685MOL0     C92344   0.882   8.174   8.516 -0.3884  0.4328  0.4541
  685MOL0     C92345   1.010   8.160   8.467 -0.9456 -0.2846 -0.6814
  685MOL0     C92346   1.090   8.271   8.429  0.7368 -0.3106 -0.4091
  685MOL0     C92347   1.042   8.400   8.440 -0.1634  0.4528  0.0180
  685MOL0     O92348   1.130   8.495   8.390 -0.2949 -0.0773 -0.7643
  685MOL0     C92349   1.135   8.619   8.451  0.8865 -0.6019 -0.2707
  685MOL0     C92350   1.275   8.672   8.451 -0.1413 -0.5905  0.6283
  685MOL0     C92351   1.271   8.821   8.481 -0.1666 -0.2445  0.3205
  685MOL0     C92352   1.409   8.861   8.527  0.3398 -0.4426  0.3375
  685MOL0     C92353   1.394   8.997   8.597  0.3551  0.6652  0.1228
  685MOL0     C92354   1.391   8.993   8.751  0.7641 -0.4937 -0.5494
  685MOL0     C92355   1.379   9.140   8.794  0.6144  0.1780  0.0002
  685MOL0     C92356   1.506   9.215   8.802  0.2092 -1.0938  0.3676
  685MOL0     N92357   1.484   9.359   8.838  0.4826  0.0643 -0.7924
  685MOL0     C92358   1.591   9.430   8.849 -0.3615 -0.3374 -0.3608
  685MOL0     C92359   1.546   9.558   8.852 -0.1085  0.1879  0.1890
  685MOL0     C92360   1.636   9.682   8.871  0.7543 -0.0479 -0.0654
  685MOL0     C92361   1.770   9.673   8.801  0.7177  0.0049  0.5224
  685MOL0     C92362   1.824   9.815   8.762 -0.0037  0.0819  0.1163
  685MOL0     C92363   1.964   9.815   8.709 -0.3374 -0.1019  0.7116
  685MOL0     O92364   2.069   9.795   8.805 -0.0073 -0.8639  0.0049
  685MOL0     C92365   2.149   9.684   8.825 -0.2878  0.8564 -0.1432
  685MOL0     C92366   2.129   9.566   8.751 -0.6072  0.5782  0.1565
  685MOL0     C92367   2.220   9.462   8.757 -0.1452  0.2460  1.2242
  685MOL0     C92368   2.185   9.349   8.672 -0.1100 -0.6262 -0.0820
  685MOL0     C92369   2.334   9.472   8.842  0.1314 -0.2917  0.9515
  685MOL0     C92370   2.451   9.382   8.837  0.6208 -0.2022 -0.4045
  685MOL0     O92371   2.469   9.300   8.723  0.6007 -0.7784 -1.1148
  685MOL0     C92372   2.566   9.206   8.736 -0.0501 -0.0213  0.4417
  685MOL0     C92373   2.522   9.079   8.731 -0.1259 -0.3338  0.5724
  685MOL0     C92374   2.622   8.982   8.760 -0.9673 -0.7758  0.6460
  685MOL0     C92375   2.762   9.014   8.774  0.5469 -0.4957 -0.6647
  685MOL0     O92376   2.864   8.920   8.778 -1.4945 -0.4028  0.3210
  685MOL0     C92377   2.836   8.781   8.788 -0.4502 -0.1347  0.8300
  685MOL0     C92378   2.959   8.684   8.762  1.2613 -1.0209  0.6193
  685MOL0     C92379   2.909   8.530   8.757 -0.1625 -0.1523  0.2790
  685MOL0     C92380   2.832   8.492   8.630  0.3298  0.0945 -0.4308
  685MOL0     C92381   2.848   8.346   8.602 -0.0451  0.4045 -0.4536
  685MOL0     C92382   2.758   8.300   8.488  0.2534  0.2928  0.2579
  685MOL0     C92383   2.769   8.152   8.450  0.8146 -0.2588  0.0351
  685MOL0     C92384   2.667   8.112   8.351 -1.0575  0.4619  0.2157
  685MOL0    Cl92385   2.635   7.937   8.354  0.3284  0.0591  0.1640
  685MOL0     C92386   2.799   9.142   8.776  0.0199  0.1917 -0.4460
  685MOL0     C92387   2.700   9.236   8.754 -0.2200 -0.8589 -0.2337
  685MOL0     O92388   2.529   9.379   8.930  0.1330  0.1142  0.0349
  685MOL0     C92389   2.354   9.590   8.933  0.0900 -0.0380  0.4515
  685MOL0     C92390   2.253   9.695   8.921 -0.7813  0.1549  0.5434
  685MOL0     N92391   1.407   9.559   8.861  0.0915  0.5651 -0.0112
  685MOL0     N92392   1.370   9.432   8.838  0.2641  0.1463 -0.3312
  685MOL0     C92393   0.919   8.413   8.509  0.3311 -0.3373  0.1625
  685MOL0     C92394   0.837   8.305   8.541  0.4825  0.5679 -0.1015
  685MOL0     C92395   0.694   7.935   8.729  0.3949  0.1307 -0.0755
  685MOL0     C92396   0.726   7.858   8.843  0.0591 -1.2457  0.0443
  685MOL0     C92397   0.651   7.748   8.877 -0.3110 -0.0728 -1.4261
  685MOL0     C92398   0.535   7.715   8.807 -0.3760  0.1726  0.2310
  685MOL0     O92399   0.445   7.616   8.833 -0.2521 -0.7150 -0.1991
  685MOL0     C92400   0.483   7.507   8.925  0.5735 -0.5231  0.3405
  685MOL0     C92401   0.559   7.399   8.834  0.9505  0.2122 -0.1309
  685MOL0     C92402   0.465   7.332   8.726  0.5513  0.1108  0.0793
  685MOL0     C92403   0.537   7.228   8.643  1.2932  0.1426  0.3025
  685MOL0     C92404   0.461   7.194   8.520  0.9886  0.0092  0.6892
  685MOL0     C92405   0.416   7.162   8.414 -0.3388 -0.5987  0.2379
  685MOL0     C92406   0.510   7.776   8.687 -0.8835 -0.7918 -0.4305
  685MOL0     C92407   0.583   7.894   8.653 -0.5958  0.4999  0.5884
  685MOL0     H92408   1.043   8.058   8.451  0.3965 -0.0036  0.1101
  685MOL0     H92409   1.177   8.252   8.367 -0.4287  0.8526 -2.5013
  685MOL0     H92410   1.073   8.673   8.377 -0.2562  0.1225  1.1508
  685MOL0     H92411   1.085   8.605   8.547 -1.1560  2.2188 -0.7666
  685MOL0     H92412   1.334   8.633   8.533  0.2842  1.5838  1.4259
  685MOL0     H92413   1.324   8.651   8.355 -0.1448  0.4399  0.3906
  685MOL0     H92414   1.238   8.884   8.398 -0.8857  2.2039  2.3205
  685MOL0     H92415   1.196   8.838   8.560 -0.1593 -0.8035  0.4471
  685MOL0     H92416   1.460   8.794   8.597  1.5685  0.0255 -0.0683
  685MOL0     H92417   1.473   8.882   8.440  1.5591 -2.7322  0.5850
  685MOL0     H92418   1.479   9.056   8.560  0.0831  1.2120  0.3603
  685MOL0     H92419   1.298   9.039   8.569  0.2060  1.4088  1.7033
  685MOL0     H92420   1.308   8.937   8.794  0.3885  0.2420 -0.3019
  685MOL0     H92421   1.488   8.956   8.787  0.8035  0.3722  0.2691
  685MOL0     H92422   1.322   9.186   8.713 -0.6253 -1.9532 -0.4091
  685MOL0     H92423   1.335   9.130   8.895  1.9600 -1.9725  0.4327
  685MOL0     H92424   1.578   9.213   8.719  0.3541  5.6606 -0.2476
  685MOL0     H92425   1.564   9.176   8.887  1.1174 -2.0239 -0.6355
  685MOL0     H92426   1.695   9.400   8.837  0.8974  3.6573 -0.6984
  685MOL0     H92427   1.572   9.767   8.849 -0.6184 -1.1306 -0.4133
  685MOL0     H92428   1.660   9.695   8.977  0.1948 -0.6615  0.1464
  685MOL0     H92429   1.765   9.613   8.710  0.4826 -1.9529  1.7564
  685MOL0     H92430   1.844   9.625   8.866 -0.0735 -1.3166  0.5005
  685MOL0     H92431   1.829   9.880   8.850  3.2563 -1.2270  1.0460
  685MOL0     H92432   1.771   9.858   8.676  0.5196 -2.1355 -1.3758
  685MOL0     H92433   1.985   9.912   8.663  1.7658 -1.4861 -1.4994
  685MOL0     H92434   1.974   9.750   8.622 -2.1731 -1.1908  1.2510
  685MOL0     H92435   2.036   9.553   8.696  0.2804  1.3962 -1.5888
  685MOL0     H92436   2.220   9.364   8.570 -0.1770  2.6007  0.2755
  685MOL0     H92437   2.217   9.248   8.701  0.1110 -0.6529 -0.4181
  685MOL0     H92438   2.077   9.349   8.689 -1.1893  1.2848 -5.2421
  685MOL0     H92439   2.424   9.038   8.710  0.7754 -4.4565  3.0902
  685MOL0     H92440   2.585   8.880   8.760 -1.1996 -0.7029 -0.5541
  685MOL0     H92441   2.806   8.758   8.891  0.2464 -2.6141  0.5637
  685MOL0     H92442   2.762   8.749   8.714  1.9399 -2.0589 -0.9066
  685MOL0     H92443   3.007   8.698   8.665 -0.1881  0.7709  0.1089
  685MOL0     H92444   3.039   8.701   8.836  2.4836 -1.5755 -0.5334
  685MOL0     H92445   2.844   8.502   8.840  0.1568 -2.9377 -0.3179
  685MOL0     H92446   2.994   8.467   8.781 -0.0632  0.2018  0.8764
  685MOL0     H92447   2.729   8.522   8.651  0.7088  1.7601 -0.7958
  685MOL0     H92448   2.863   8.552   8.544 -0.7854  2.8248  0.9283
  685MOL0     H92449   2.814   8.284   8.686 -3.2227 -1.4826 -2.8822
  685MOL0     H92450   2.955   8.327   8.589 -0.0848  0.5131 -0.9443
  685MOL0     H92451   2.659   8.312   8.534  1.4661 -0.7060  3.4457
  685MOL0     H92452   2.778   8.354   8.396 -1.3199 -1.5228 -1.2451
  685MOL0     H92453   2.753   8.087   8.537 -2.1437  0.2683 -0.0030
  685MOL0     H92454   2.870   8.124   8.418  1.5011 -0.9541  2.5726
  685MOL0     H92455   2.714   8.145   8.258 -0.7461 -1.0392 -0.1950
  685MOL0     H92456   2.572   8.162   8.368 -1.3517 -0.5322  1.6804
  685MOL0     H92457   2.899   9.173   8.803 -1.2114  2.1839  2.3405
  685MOL0     H92458   2.741   9.335   8.774  0.4419 -1.3488  0.8991
  685MOL0     H92459   2.445   9.598   8.993  0.4643  2.8003 -0.3466
  685MOL0     H92460   2.260   9.792   8.969 -4.3584  0.0922  1.5125
  685MOL0     H92461   0.888   8.510   8.545  2.5541  0.0788  1.0957
  685MOL0     H92462   0.733   8.306   8.571  0.8925 -1.4772  1.6261
  685MOL0     H92463   0.815   7.876   8.903 -0.6404  0.3101  0.6650
  685MOL0     H92464   0.646   7.701   8.975  2.8739  0.5663 -0.8676
  685MOL0     H92465   0.542   7.533   9.013 -0.5972 -2.7770  1.8913
  685MOL0     H92466   0.386   7.473   8.961 -0.7325 -0.1224 -2.5371
  685MOL0     H92467   0.593   7.314   8.894 -3.2967 -3.0329 -1.8486
  685MOL0     H92468   0.635   7.457   8.781  1.1006  0.3130  0.1934
  685MOL0     H92469   0.430   7.415   8.664 -1.0359  0.5354  1.4736
  685MOL0     H92470   0.375   7.288   8.771  0.2564 -2.1476 -2.4314
  685MOL0     H92471   0.561   7.141   8.704  2.8739 -0.0069 -0.4806
  685MOL0     H92472   0.626   7.277   8.604  0.0695 -0.1382 -3.1590
  685MOL0     H92473   0.389   7.133   8.315 -0.0644  2.8676 -0.9604
  685MOL0     H92474   0.428   7.744   8.624  0.3347 -0.0074 -2.4976
  685MOL0     H92475   0.566   7.954   8.565 -0.1962 -0.4862 -0.1880
  686MOL0     O92476  10.017   8.795   6.284 -0.7489 -0.1939 -0.1881
  686MOL0     C92477   9.993   8.853   6.391 -0.0054 -0.3923  1.3084
  686MOL0     O92478   9.996   8.990   6.407 -0.5511  0.1388 -0.1475
  686MOL0     C92479  10.048   9.070   6.299  0.2961 -0.1122  0.3871
  686MOL0     C92480   9.975   9.185   6.279 -0.4192  0.9411  0.6996
  686MOL0     C92481  10.002   9.254   6.162 -1.2730 -0.2469 -0.3299
  686MOL0     C92482  10.111   9.216   6.073  0.2726  0.0027 -0.5451
  686MOL0     O92483  10.133   9.276   5.956 -0.4990 -0.2533  0.1706
  686MOL0     C92484  10.025   9.352   5.900 -1.1565 -0.4603 -0.7058
  686MOL0     C92485  10.066   9.414   5.772  0.1326  0.2511  0.8046
  686MOL0     C92486  10.084   9.320   5.654  0.7607 -0.3413 -0.2188
  686MOL0     C92487   9.992   9.198   5.639  0.5844  0.0834  0.0542
  686MOL0     C92488   9.839   9.222   5.614  0.3885 -0.1675 -0.1793
  686MOL0     C92489   9.750   9.093   5.589  0.4844  0.9470  0.0202
  686MOL0     C92490   9.600   9.109   5.628 -0.0452  0.2487  0.5371
  686MOL0     C92491   9.518   9.195   5.525 -0.6275  0.6741 -0.1489
  686MOL0     N92492   9.381   9.214   5.546  0.9077  0.2421  0.8658
  686MOL0     C92493   9.320   9.187   5.662  0.0325  0.6429  0.0911
  686MOL0     C92494   9.194   9.233   5.653  0.2952 -0.5399  0.1757
  686MOL0     C92495   9.080   9.222   5.762 -0.8340  0.3653 -0.1475
  686MOL0     C92496   9.122   9.290   5.893  0.5864  0.4274 -0.4178
  686MOL0     C92497   9.013   9.263   6.005  0.1258 -0.8314  0.4170
  686MOL0     C92498   8.876   9.331   5.990  0.0276  0.3423 -0.3451
  686MOL0     O92499   8.797   9.248   5.902 -0.1272  0.0974 -0.4222
  686MOL0     C92500   8.763   9.120   5.935 -1.1620  0.8126  0.0213
  686MOL0     C92501   8.738   9.028   5.828  0.1541 -0.2090 -0.1607
  686MOL0     C92502   8.721   8.894   5.855  0.0582  0.3952  0.6880
  686MOL0     C92503   8.689   8.808   5.736 -0.1223  0.3020 -0.3883
  686MOL0     C92504   8.736   8.845   5.984  0.2131  0.4699 -0.6884
  686MOL0     C92505   8.733   8.701   6.034 -0.3755  0.9608  0.4651
  686MOL0     O92506   8.747   8.600   5.941 -0.1051 -0.4903 -0.3644
  686MOL0     C92507   8.739   8.472   5.988 -0.0752  0.0883  0.0263
  686MOL0     C92508   8.689   8.379   5.892  0.0092 -0.5923 -1.4273
  686MOL0     C92509   8.672   8.248   5.929 -1.2405 -0.3065 -0.3620
  686MOL0     C92510   8.716   8.203   6.049 -0.0324 -0.5393 -0.0270
  686MOL0     O92511   8.710   8.072   6.087  0.4263  0.7261 -0.6362
  686MOL0     C92512   8.827   7.997   6.121 -0.0029  0.5023  0.0615
  686MOL0     C92513   8.816   7.855   6.075  0.0717  0.0030  0.2650
  686MOL0     C92514   8.808   7.845   5.929 -0.4160  0.2718  0.0656
  686MOL0     C92515   8.826   7.707   5.875  0.0560 -0.1097  0.5139
  686MOL0     C92516   8.779   7.691   5.731 -0.1379 -0.0842 -0.1725
  686MOL0     C92517   8.830   7.559   5.673 -0.0350 -0.0971  0.5790
  686MOL0     C92518   8.745   7.519   5.557  0.5504 -0.1759  0.1001
  686MOL0     C92519   8.783   7.603   5.431  0.3887 -0.2539  0.6067
  686MOL0    Cl92520   8.966   7.627   5.415 -0.2464  0.7261 -0.4269
  686MOL0     C92521   8.778   8.289   6.137  0.9694 -0.3386 -0.6459
  686MOL0     C92522   8.800   8.420   6.097  0.5402  0.9114 -0.3920
  686MOL0     O92523   8.729   8.679   6.157 -0.4242  0.6886  0.0053
  686MOL0     C92524   8.753   8.939   6.091 -0.5484  0.0829  0.1643
  686MOL0     C92525   8.762   9.072   6.068  0.1857  1.0979 -0.3311
  686MOL0     N92526   9.187   9.296   5.523  0.6953  0.0856  0.0632
  686MOL0     N92527   9.300   9.290   5.464  0.5527 -0.0263 -0.2370
  686MOL0     C92528  10.195   9.114   6.110 -0.0148 -0.7448 -0.3159
  686MOL0     C92529  10.159   9.032   6.226 -0.0400  0.0261  0.0958
  686MOL0     C92530   9.987   8.772   6.517 -0.0765 -0.8931 -0.3432
  686MOL0     C92531   9.965   8.836   6.637  0.7510 -0.2315 -0.1120
  686MOL0     C92532   9.962   8.763   6.763  0.2802  0.0536 -0.4359
  686MOL0     C92533   9.980   8.623   6.760 -0.0815  0.0024 -0.0716
  686MOL0     O92534  10.010   8.548   6.875 -0.2045  0.2111 -0.2899
  686MOL0     C92535  10.032   8.601   7.007 -0.4125 -0.3195 -0.0742
  686MOL0     C92536  10.086   8.479   7.087 -0.5024 -1.1769  0.0491
  686MOL0     C92537   9.979   8.391   7.125 -0.5924 -0.8481 -0.0906
  686MOL0     C92538   9.936   8.382   7.275 -0.5068 -0.3573 -0.8256
  686MOL0     C92539   9.893   8.523   7.310 -0.5186  0.6593 -0.0654
  686MOL0     C92540   9.856   8.632   7.359 -0.0315  0.0808 -0.5598
  686MOL0     C92541   9.999   8.555   6.636 -0.4692 -1.0644 -0.3353
  686MOL0     C92542   9.997   8.636   6.517 -0.1011  0.7081  0.2172
  686MOL0     H92543   9.891   9.214   6.342 -1.2620  0.8397 -0.3436
  686MOL0     H92544   9.926   9.324   6.130 -1.8660 -0.7532 -0.0541
  686MOL0     H92545   9.935   9.291   5.886  0.0905 -2.8594  0.9276
  686MOL0     H92546  10.018   9.434   5.972 -0.3247 -1.7479  0.9157
  686MOL0     H92547   9.988   9.484   5.741 -0.8633 -0.6204  1.2991
  686MOL0     H92548  10.162   9.464   5.793  0.7642 -0.0113 -1.2295
  686MOL0     H92549  10.055   9.386   5.571  0.4013  1.1077  1.0193
  686MOL0     H92550  10.189   9.292   5.659  0.9721  0.4503 -0.0459
  686MOL0     H92551  10.016   9.138   5.551  3.2480  1.2940 -0.1296
  686MOL0     H92552  10.008   9.134   5.726  1.6678  1.8823  1.2438
  686MOL0     H92553   9.798   9.274   5.701 -0.8901 -1.3504 -0.0204
  686MOL0     H92554   9.826   9.284   5.525  1.1394  1.9985  1.1447
  686MOL0     H92555   9.760   9.039   5.494  1.9496 -0.7246  1.0616
  686MOL0     H92556   9.775   9.011   5.658 -3.7052 -0.2334  0.4094
  686MOL0     H92557   9.563   9.008   5.650  2.7142 -0.7154  1.1520
  686MOL0     H92558   9.602   9.176   5.715 -2.9314  1.5623 -0.2814
  686MOL0     H92559   9.528   9.163   5.421  1.7353  4.2749 -1.2069
  686MOL0     H92560   9.552   9.298   5.518  0.1538  0.3002 -2.5437
  686MOL0     H92561   9.355   9.127   5.745  0.6557 -1.2462 -1.4582
  686MOL0     H92562   9.002   9.294   5.732  0.7455  1.8486 -0.8928
  686MOL0     H92563   9.051   9.118   5.775 -2.2492  0.7849  0.2650
  686MOL0     H92564   9.136   9.398   5.882  1.7170  0.2489 -0.8956
  686MOL0     H92565   9.214   9.247   5.934 -0.9882  0.3061  3.3095
  686MOL0     H92566   9.065   9.308   6.091  0.9423  1.2794 -1.0890
  686MOL0     H92567   9.002   9.156   6.021 -3.3535 -1.0331 -2.2966
  686MOL0     H92568   8.899   9.429   5.948  5.3070 -0.0369  0.9539
  686MOL0     H92569   8.827   9.346   6.086 -1.6288 -0.0208 -1.0908
  686MOL0     H92570   8.738   9.069   5.727  3.3265 -0.9847 -0.5742
  686MOL0     H92571   8.635   8.718   5.767  2.0084 -1.1203 -0.6056
  686MOL0     H92572   8.641   8.862   5.654  1.3785  1.3350 -0.6190
  686MOL0     H92573   8.780   8.758   5.701 -0.5465 -1.0531  0.3437
  686MOL0     H92574   8.653   8.415   5.797 -0.3379 -0.7392 -1.3528
  686MOL0     H92575   8.646   8.175   5.852  1.0746  0.5721 -2.1061
  686MOL0     H92576   8.925   8.044   6.110  0.0956  0.4271  0.5904
  686MOL0     H92577   8.831   7.988   6.230 -3.3381 -2.2804  0.1274
  686MOL0     H92578   8.906   7.798   6.104 -0.9462 -3.0182 -1.9703
  686MOL0     H92579   8.731   7.807   6.125  0.5343 -0.5543  0.5340
  686MOL0     H92580   8.879   7.918   5.888 -0.6656  0.3083 -0.3082
  686MOL0     H92581   8.713   7.891   5.900  0.0330  1.2536  0.0944
  686MOL0     H92582   8.933   7.684   5.875  0.8987  3.2459  0.2421
  686MOL0     H92583   8.777   7.635   5.941 -0.2037 -2.2054 -1.7989
  686MOL0     H92584   8.800   7.783   5.675  0.0073 -0.6647 -1.0974
  686MOL0     H92585   8.670   7.688   5.727 -0.1941  1.0886  0.1750
  686MOL0     H92586   8.936   7.572   5.648  0.0299  1.3393  1.4920
  686MOL0     H92587   8.827   7.486   5.755  2.8200 -1.1257 -0.0882
  686MOL0     H92588   8.638   7.534   5.575  0.7007  0.5856  0.4017
  686MOL0     H92589   8.759   7.415   5.526  3.7086  0.4854 -1.0857
  686MOL0     H92590   8.736   7.701   5.438  0.3673 -0.2040 -0.1837
  686MOL0     H92591   8.734   7.551   5.348 -1.7005 -0.4320  1.8528
  686MOL0     H92592   8.817   8.241   6.226 -0.6119  1.9520  1.4393
  686MOL0     H92593   8.850   8.488   6.166 -1.3082  1.5694  0.3650
  686MOL0     H92594   8.745   8.898   6.191 -0.6981 -1.5561 -0.4914
  686MOL0     H92595   8.764   9.135   6.157  1.6226 -1.7066  1.8077
  686MOL0     H92596  10.270   9.092   6.035  1.6258  1.4247  0.5878
  686MOL0     H92597  10.212   8.939   6.241 -1.0357 -0.6363 -0.3861
  686MOL0     H92598   9.950   8.943   6.647 -2.6503 -0.7926  4.1442
  686MOL0     H92599   9.957   8.812   6.859 -4.2046 -1.1322  0.1395
  686MOL0     H92600  10.108   8.680   7.009 -1.7776  1.0547 -1.0111
  686MOL0     H92601   9.939   8.641   7.048 -0.7959  0.7215 -1.8679
  686MOL0     H92602  10.145   8.512   7.173 -2.3869  1.4380  0.4510
  686MOL0     H92603  10.141   8.425   7.009 -0.5001  0.3214 -1.0257
  686MOL0     H92604  10.022   8.291   7.111 -1.2386 -0.9828 -1.2085
  686MOL0     H92605   9.893   8.402   7.059  1.5013  0.2045 -2.8198
  686MOL0     H92606  10.012   8.351   7.347 -0.8164  1.9777  0.5958
  686MOL0     H92607   9.857   8.307   7.291  0.8880 -2.3051 -2.4343
  686MOL0     H92608   9.835   8.733   7.387 -0.3613 -0.8570  2.9424
  686MOL0     H92609  10.021   8.451   6.617 -1.3504 -0.9294 -2.3605
  686MOL0     H92610  10.030   8.587   6.427  0.0700 -1.5786  1.4555
  687MOL0     O92611   4.251   5.671   7.849 -0.1171  0.3660 -0.4275
  687MOL0     C92612   4.192   5.654   7.743  0.3739 -0.0677  0.3590
  687MOL0     O92613   4.129   5.758   7.675  0.1064 -0.2178  0.3844
  687MOL0     C92614   4.117   5.877   7.748 -0.0416  0.6854  0.8588
  687MOL0     C92615   4.055   5.880   7.872 -0.6915  0.1046  0.9741
  687MOL0     C92616   4.045   6.006   7.940 -0.3476  0.6041  0.0662
  687MOL0     C92617   4.080   6.123   7.882  0.7210 -0.0052 -0.5927
  687MOL0     O92618   4.044   6.241   7.941  0.4800 -0.2378 -0.5994
  687MOL0     C92619   3.910   6.281   7.906  0.1119  0.0279  0.8994
  687MOL0     C92620   3.808   6.236   8.020 -0.3768  0.6179  0.3476
  687MOL0     C92621   3.696   6.157   7.964  0.1733 -0.4076 -0.0663
  687MOL0     C92622   3.600   6.254   7.872 -0.7576  0.2622 -0.9227
  687MOL0     C92623   3.480   6.176   7.827 -0.3016  0.8187  0.0528
  687MOL0     C92624   3.365   6.154   7.934 -0.6625 -0.0500  1.0381
  687MOL0     C92625   3.265   6.043   7.880  0.1861 -0.4258  0.5384
  687MOL0     C92626   3.187   5.995   7.998  0.6955 -1.4650 -0.0673
  687MOL0     N92627   3.060   5.923   7.974 -0.9709 -0.1550  0.2928
  687MOL0     C92628   2.928   5.964   7.983  0.2044 -0.8584 -0.2279
  687MOL0     C92629   2.858   5.850   7.973 -0.8142  0.2929 -1.0263
  687MOL0     C92630   2.727   5.843   8.035  0.3679  0.7557  0.1580
  687MOL0     C92631   2.610   5.881   7.955  0.2366  0.5047 -0.1366
  687MOL0     C92632   2.603   5.808   7.826 -0.5026 -0.4134  0.6974
  687MOL0     C92633   2.477   5.828   7.741  0.3776  0.3510 -0.1910
  687MOL0     O92634   2.481   5.728   7.634  0.0260  0.2002  0.3977
  687MOL0     C92635   2.563   5.774   7.537 -0.1048  1.0052  0.6061
  687MOL0     C92636   2.538   5.882   7.451  0.1780 -0.5054  0.3149
  687MOL0     C92637   2.623   5.912   7.340 -0.4892  0.0370 -0.1329
  687MOL0     C92638   2.559   6.019   7.253 -0.5638  0.2285 -0.3218
  687MOL0     C92639   2.754   5.848   7.335  0.1906 -0.9564 -0.2595
  687MOL0     C92640   2.862   5.880   7.251  0.3953 -0.2698  0.0493
  687MOL0     O92641   2.987   5.851   7.296 -0.4499 -0.9876  1.0509
  687MOL0     C92642   3.109   5.886   7.238  0.2125 -0.0034  0.5064
  687MOL0     C92643   3.215   5.900   7.321 -0.1108  0.4566  0.3930
  687MOL0     C92644   3.343   5.910   7.272  0.6198  0.0770 -0.4796
  687MOL0     C92645   3.364   5.902   7.132  0.1209  0.4519 -0.7572
  687MOL0     O92646   3.481   5.897   7.069  0.0631 -0.4154 -0.0120
  687MOL0     C92647   3.600   5.893   7.150  0.1886 -0.5267  0.3354
  687MOL0     C92648   3.718   5.894   7.056  0.4845  0.3898  0.6907
  687MOL0     C92649   3.744   6.044   7.030 -0.0903 -0.1612  0.8904
  687MOL0     C92650   3.872   6.045   6.952  0.2616  0.6894  0.8684
  687MOL0     C92651   3.970   6.150   7.002 -0.1868  0.8616  0.7967
  687MOL0     C92652   3.926   6.295   6.993  0.1499 -0.4673 -0.5943
  687MOL0     C92653   3.867   6.344   6.859  1.8532 -0.4759 -0.4241
  687MOL0     C92654   3.963   6.313   6.747 -0.3488 -0.2545  0.5544
  687MOL0    Cl92655   4.116   6.399   6.773  0.4535  0.2057 -0.1653
  687MOL0     C92656   3.252   5.893   7.050  0.2317 -0.1157 -0.1694
  687MOL0     C92657   3.127   5.892   7.096  0.6306  1.0872 -1.2321
  687MOL0     O92658   2.838   5.931   7.145  0.0118 -0.3955  0.0376
  687MOL0     C92659   2.788   5.754   7.440  0.6865  0.3123 -0.6712
  687MOL0     C92660   2.691   5.705   7.525  0.6998 -0.6670 -1.1671
  687MOL0     N92661   2.936   5.744   7.956 -0.7012  0.1087  0.1261
  687MOL0     N92662   3.057   5.785   7.956 -0.2895  0.7123  0.3756
  687MOL0     C92663   4.139   6.125   7.757  0.1582  0.4739  0.3339
  687MOL0     C92664   4.165   6.002   7.698 -0.1054 -0.1733  0.0288
  687MOL0     C92665   4.217   5.515   7.693 -0.2287 -0.1881  0.3048
  687MOL0     C92666   4.201   5.397   7.763 -0.6895  0.6087 -0.2737
  687MOL0     C92667   4.220   5.265   7.711 -0.9525 -0.9681 -0.0105
  687MOL0     C92668   4.257   5.251   7.570 -0.5448  0.2237 -0.8509
  687MOL0     O92669   4.291   5.137   7.516  0.0078 -0.5592 -0.3412
  687MOL0     C92670   4.413   5.090   7.577 -0.1252 -0.2302 -0.4656
  687MOL0     C92671   4.480   4.985   7.485  0.7170 -0.4690 -0.6222
  687MOL0     C92672   4.372   4.902   7.407 -0.1039  0.6084  0.2119
  687MOL0     C92673   4.343   4.927   7.256 -0.5697 -0.3650  0.4040
  687MOL0     C92674   4.455   4.887   7.173 -0.6439 -0.4487  0.4015
  687MOL0     C92675   4.553   4.854   7.107  0.8731  0.8476  0.2187
  687MOL0     C92676   4.271   5.376   7.502 -0.0175 -0.2571  1.7761
  687MOL0     C92677   4.246   5.502   7.558  0.9235 -0.4289  0.4711
  687MOL0     H92678   4.009   5.792   7.917 -1.9889  1.7947  3.2189
  687MOL0     H92679   3.992   6.013   8.034  1.4974 -0.6364  1.2769
  687MOL0     H92680   3.906   6.390   7.911  4.9617  0.3580  2.1069
  687MOL0     H92681   3.888   6.255   7.802 -3.7114  0.6471  1.3945
  687MOL0     H92682   3.857   6.171   8.093 -1.1484  1.1250  1.3515
  687MOL0     H92683   3.779   6.329   8.072  3.1842  0.7139  2.5497
  687MOL0     H92684   3.733   6.068   7.913  2.9225  1.4401 -1.5410
  687MOL0     H92685   3.650   6.125   8.058  0.7998  0.3107  0.5043
  687MOL0     H92686   3.561   6.345   7.919  2.3556  1.5087 -0.5461
  687MOL0     H92687   3.654   6.280   7.780 -0.6654  0.2700 -0.8653
  687MOL0     H92688   3.442   6.220   7.734  1.9105  2.2170 -0.2519
  687MOL0     H92689   3.520   6.077   7.800 -1.6761 -0.0356  0.9965
  687MOL0     H92690   3.424   6.121   8.020  0.2848  0.7583  0.7305
  687MOL0     H92691   3.319   6.248   7.968 -0.0295 -0.7696  4.1997
  687MOL0     H92692   3.208   6.096   7.803 -0.6314  2.4888  2.9786
  687MOL0     H92693   3.307   5.952   7.836  0.3669 -0.5631  0.9870
  687MOL0     H92694   3.167   6.082   8.062  0.0978 -0.8041 -1.1319
  687MOL0     H92695   3.259   5.937   8.057  0.0863  0.2907  2.5822
  687MOL0     H92696   2.884   6.060   8.008 -3.3254 -2.1415 -0.9391
  687MOL0     H92697   2.705   5.740   8.064  2.5573 -0.2300 -1.4007
  687MOL0     H92698   2.737   5.905   8.124  1.8970  1.2608 -0.3261
  687MOL0     H92699   2.624   5.990   7.947  0.7759  0.6474  2.1419
  687MOL0     H92700   2.518   5.868   8.012 -0.0983 -0.3503 -0.8510
  687MOL0     H92701   2.620   5.702   7.850  3.1983 -0.6434 -2.0150
  687MOL0     H92702   2.691   5.834   7.768 -1.6497  2.7066  0.1920
  687MOL0     H92703   2.469   5.926   7.693  0.9250 -0.5939 -2.3150
  687MOL0     H92704   2.389   5.815   7.805 -2.3027  0.8797 -3.5094
  687MOL0     H92705   2.451   5.944   7.465  2.0002  2.4418 -0.5732
  687MOL0     H92706   2.528   6.109   7.307  0.7173  0.8949 -0.6563
  687MOL0     H92707   2.631   6.048   7.175  0.8427  2.5944  1.6852
  687MOL0     H92708   2.464   5.984   7.212 -2.9552  2.3807  2.9003
  687MOL0     H92709   3.195   5.865   7.421 -0.0994 -3.0316 -0.7053
  687MOL0     H92710   3.428   5.893   7.336  2.3085 -2.3577 -3.1267
  687MOL0     H92711   3.603   5.970   7.228 -0.8068  0.0872 -0.2084
  687MOL0     H92712   3.597   5.795   7.198 -2.0904 -0.1908  0.9578
  687MOL0     H92713   3.808   5.858   7.107 -0.0680  0.8503  2.0251
  687MOL0     H92714   3.697   5.843   6.961 -1.7692  2.3463  0.0279
  687MOL0     H92715   3.749   6.098   7.125  0.0177  1.9841 -0.2759
  687MOL0     H92716   3.667   6.096   6.971 -0.1493 -0.5224  0.6444
  687MOL0     H92717   3.939   5.959   6.959  1.5455  1.4819 -0.7716
  687MOL0     H92718   3.855   6.060   6.845  0.0748 -1.8320  0.4935
  687MOL0     H92719   4.060   6.146   6.939  0.2774 -1.5679  1.5158
  687MOL0     H92720   4.003   6.112   7.099  0.1726 -2.5000 -0.4799
  687MOL0     H92721   3.853   6.305   7.073  0.9627 -0.0867  0.1197
  687MOL0     H92722   4.000   6.363   7.036 -2.7504  1.7426  1.2418
  687MOL0     H92723   3.855   6.452   6.870  0.9814 -0.5742 -0.3369
  687MOL0     H92724   3.766   6.305   6.840  0.1814  2.8188  0.9160
  687MOL0     H92725   3.913   6.327   6.651 -1.8689 -4.5591  0.4777
  687MOL0     H92726   3.979   6.205   6.738 -0.7251 -0.2233 -0.8460
  687MOL0     H92727   3.289   5.885   6.948 -0.6673  0.5886 -0.5590
  687MOL0     H92728   3.048   5.879   7.023  0.3569 -2.0971 -0.5225
  687MOL0     H92729   2.884   5.703   7.444 -1.7589 -4.9874 -0.2267
  687MOL0     H92730   2.710   5.626   7.596  0.5651  3.1054  3.5167
  687MOL0     H92731   4.181   6.214   7.711 -0.8310 -0.5635 -2.8340
  687MOL0     H92732   4.216   5.998   7.602  3.0143 -0.7713  1.5626
  687MOL0     H92733   4.178   5.411   7.868  3.9835 -0.2149  1.0968
  687MOL0     H92734   4.199   5.180   7.774  1.0796 -1.9203 -0.5402
  687MOL0     H92735   4.478   5.175   7.601 -1.8867  0.9087  0.5228
  687MOL0     H92736   4.399   5.048   7.677  2.4731  0.1024  0.1123
  687MOL0     H92737   4.537   4.914   7.545  0.4281 -0.4604 -0.3325
  687MOL0     H92738   4.532   5.042   7.407 -0.3013  0.7818 -0.4372
  687MOL0     H92739   4.281   4.911   7.468  0.0437  0.9559  0.3885
  687MOL0     H92740   4.400   4.797   7.411  0.6497  0.6135 -2.9003
  687MOL0     H92741   4.341   5.036   7.247 -0.9101 -0.4075 -0.0899
  687MOL0     H92742   4.247   4.884   7.224 -0.4436 -0.7593  0.5434
  687MOL0     H92743   4.641   4.824   7.053 -1.0678 -1.2571 -1.9957
  687MOL0     H92744   4.301   5.384   7.398 -4.2047 -0.1908  0.4261
  687MOL0     H92745   4.259   5.590   7.496 -3.7128 -1.0223 -1.7614
  688MOL0     O92746   0.749   3.791   1.047 -0.6748 -0.0132 -0.4042
  688MOL0     C92747   0.730   3.874   0.961 -0.6757 -0.4457 -0.2957
  688MOL0     O92748   0.825   3.951   0.894  0.1305 -0.3623  0.1631
  688MOL0     C92749   0.956   3.939   0.925  0.4923  0.3976 -0.3283
  688MOL0     C92750   1.031   3.838   0.871  0.0236  0.3131 -0.4269
  688MOL0     C92751   1.167   3.827   0.916  0.5027  0.8477 -0.7585
  688MOL0     C92752   1.229   3.917   1.009  0.3156  0.2148  0.7104
  688MOL0     O92753   1.363   3.903   1.021 -0.5285  0.4758  0.1641
  688MOL0     C92754   1.431   3.953   1.130 -0.4232 -0.8649  0.7810
  688MOL0     C92755   1.566   3.870   1.131  0.1202 -0.4269  0.0923
  688MOL0     C92756   1.660   3.933   1.018 -0.7211 -0.1912 -0.5131
  688MOL0     C92757   1.778   3.844   0.977  0.5827 -0.0089 -0.7370
  688MOL0     C92758   1.805   3.851   0.826 -0.0646  0.6552 -0.1088
  688MOL0     C92759   1.890   3.981   0.799  0.1567 -0.2344  0.6765
  688MOL0     C92760   1.924   4.014   0.644 -0.1984 -0.3941 -1.2929
  688MOL0     C92761   2.034   4.128   0.645 -0.0075 -0.3178 -0.3878
  688MOL0     N92762   1.985   4.260   0.706 -0.1766  1.5315  1.0906
  688MOL0     C92763   1.963   4.369   0.636 -0.9543 -0.3510 -0.6358
  688MOL0     C92764   1.941   4.465   0.736 -0.3152  1.1607 -0.1398
  688MOL0     C92765   1.895   4.609   0.729  0.7574 -0.1593 -0.1800
  688MOL0     C92766   1.834   4.642   0.592  0.1838 -0.2009 -0.6368
  688MOL0     C92767   1.685   4.604   0.576 -0.1789 -0.0860 -0.2249
  688MOL0     C92768   1.617   4.662   0.454 -0.7758  0.3796 -0.2678
  688MOL0     O92769   1.693   4.624   0.329  0.3549  0.8684  0.0576
  688MOL0     C92770   1.737   4.721   0.254  0.3126  0.2860 -0.0468
  688MOL0     C92771   1.667   4.841   0.245 -0.2948 -0.5945 -0.8524
  688MOL0     C92772   1.723   4.952   0.177  0.4158  0.0471 -0.4083
  688MOL0     C92773   1.626   5.068   0.169 -0.4512  0.1750 -0.9562
  688MOL0     C92774   1.848   4.943   0.114 -0.1980 -0.3024  0.1597
  688MOL0     C92775   1.905   5.051   0.030  0.1580  0.1819 -0.5591
  688MOL0     O92776   2.022   5.021  -0.039 -0.2599  0.6313  0.3809
  688MOL0     C92777   2.099   5.135  -0.067 -0.4714  0.0508 -0.0087
  688MOL0     C92778   2.104   5.203  -0.195 -0.7641  0.6852  0.2485
  688MOL0     C92779   2.197   5.296  -0.214  0.1554  0.2736 -0.2436
  688MOL0     C92780   2.259   5.358  -0.108 -0.7208  0.2613  0.2563
  688MOL0     O92781   2.346   5.464  -0.118 -0.4540  0.4079 -0.1650
  688MOL0     C92782   2.327   5.570  -0.221 -0.2665  0.4541  0.6533
  688MOL0     C92783   2.453   5.657  -0.216 -0.4777 -0.9119 -0.4499
  688MOL0     C92784   2.459   5.760  -0.328  0.2100  0.1733  0.5435
  688MOL0     C92785   2.598   5.772  -0.392 -0.4023  0.0036  0.0334
  688MOL0     C92786   2.730   5.777  -0.303  0.1806 -0.4808 -0.1289
  688MOL0     C92787   2.747   5.891  -0.202 -0.3633 -1.0832  0.4443
  688MOL0     C92788   2.873   5.864  -0.127  0.0202  0.3599 -0.2142
  688MOL0     C92789   2.899   5.968  -0.014  0.5404 -0.2208 -0.6585
  688MOL0    Cl92790   2.796   5.910   0.137 -0.1672 -0.4598 -0.3308
  688MOL0     C92791   2.262   5.292   0.013  0.5633 -0.7391 -0.4030
  688MOL0     C92792   2.173   5.193   0.037  1.0800  0.1169 -0.7571
  688MOL0     O92793   1.855   5.161   0.023  0.5838 -0.8374  0.3549
  688MOL0     C92794   1.921   4.825   0.135  0.5617 -0.0392 -0.2825
  688MOL0     C92795   1.872   4.712   0.214 -0.1745 -1.0121 -0.0295
  688MOL0     N92796   1.963   4.404   0.857 -0.1956 -0.3081 -0.2751
  688MOL0     N92797   1.986   4.283   0.839 -0.1808 -0.0702  0.6731
  688MOL0     C92798   1.151   4.026   1.053  0.5666  0.4297  0.3052
  688MOL0     C92799   1.015   4.033   1.010 -0.0492 -0.2957 -0.4696
  688MOL0     C92800   0.590   3.898   0.926  0.9472 -0.6504 -0.2828
  688MOL0     C92801   0.477   3.838   0.995  1.1425 -0.6493  0.2882
  688MOL0     C92802   0.353   3.869   0.947 -0.3096 -0.6418 -0.2639
  688MOL0     C92803   0.316   3.953   0.843 -0.9733 -0.2449 -0.2117
  688MOL0     O92804   0.190   4.016   0.818 -0.4707  0.2254 -0.9206
  688MOL0     C92805   0.110   4.034   0.940 -0.6308  0.4063  1.0297
  688MOL0     C92806   0.046   4.176   0.937  0.1530 -0.0389  0.1354
  688MOL0     C92807   0.126   4.298   1.001 -0.3525  0.6927  0.2020
  688MOL0     C92808   0.239   4.348   0.900 -0.8354 -1.6445  0.6874
  688MOL0     C92809   0.278   4.491   0.915  0.1267  0.0483  0.6588
  688MOL0     C92810   0.305   4.608   0.942 -0.2542 -1.0238  0.1440
  688MOL0     C92811   0.424   3.997   0.769  0.1767  0.1683  0.2176
  688MOL0     C92812   0.558   3.964   0.805  0.1081  0.1036 -0.3732
  688MOL0     H92813   0.992   3.761   0.805  1.9722 -4.2869  3.1280
  688MOL0     H92814   1.217   3.738   0.880  1.3469  1.1240 -0.2820
  688MOL0     H92815   1.451   4.060   1.118 -4.2908  0.3694  3.6325
  688MOL0     H92816   1.376   3.944   1.223 -3.9220 -0.6523 -1.0904
  688MOL0     H92817   1.611   3.885   1.229 -1.9875  0.5408  0.9798
  688MOL0     H92818   1.541   3.764   1.115 -2.0833  0.0940 -0.2798
  688MOL0     H92819   1.596   3.951   0.931  2.7638  0.1436 -3.2135
  688MOL0     H92820   1.699   4.029   1.054 -1.6965  1.1070 -2.7420
  688MOL0     H92821   1.860   3.885   1.038  0.2561  0.3478 -0.5310
  688MOL0     H92822   1.768   3.739   1.004  0.3414  0.5731  1.6516
  688MOL0     H92823   1.867   3.767   0.792 -0.0673  0.9423 -0.8444
  688MOL0     H92824   1.708   3.843   0.776  0.9359 -0.6400 -2.0089
  688MOL0     H92825   1.849   4.070   0.847  2.5621  1.3525 -0.0066
  688MOL0     H92826   1.986   3.964   0.847  1.0536 -0.4275 -1.0832
  688MOL0     H92827   1.969   3.928   0.594 -1.4324 -0.9267 -1.5276
  688MOL0     H92828   1.827   4.038   0.600 -1.5451 -4.5049 -0.9908
  688MOL0     H92829   2.084   4.146   0.549  2.0332  0.1233  0.6970
  688MOL0     H92830   2.120   4.102   0.708 -0.8080 -1.0531  0.4250
  688MOL0     H92831   1.971   4.391   0.530  0.0388  0.9080 -0.3180
  688MOL0     H92832   1.826   4.632   0.811  1.0504  1.3069 -0.3151
  688MOL0     H92833   1.992   4.659   0.739  2.0449 -2.3532 -0.9827
  688MOL0     H92834   1.905   4.611   0.515 -0.2737 -1.5909 -0.5205
  688MOL0     H92835   1.840   4.750   0.574  2.6012 -0.6061 -2.8095
  688MOL0     H92836   1.635   4.632   0.669 -1.0928  0.2131 -0.7907
  688MOL0     H92837   1.685   4.495   0.571  0.0445 -0.0594 -0.8922
  688MOL0     H92838   1.602   4.770   0.461 -2.8613  0.2871 -1.9727
  688MOL0     H92839   1.512   4.630   0.451 -1.1027  1.4646 -1.0063
  688MOL0     H92840   1.566   4.840   0.284  1.5971 -2.1009  5.0132
  688MOL0     H92841   1.583   5.086   0.071  1.2520  3.0085 -1.3161
  688MOL0     H92842   1.546   5.066   0.244  1.3980 -2.0654  1.1302
  688MOL0     H92843   1.682   5.162   0.179 -0.8505  0.2675  0.6353
  688MOL0     H92844   2.062   5.155  -0.282  1.4789 -2.2428  0.6365
  688MOL0     H92845   2.223   5.321  -0.317  0.8530 -1.7813 -0.6213
  688MOL0     H92846   2.315   5.530  -0.322 -1.0079  0.5898  0.6856
  688MOL0     H92847   2.236   5.630  -0.212 -0.1026  0.9615 -0.8220
  688MOL0     H92848   2.456   5.715  -0.124 -0.8791  1.9859 -2.1411
  688MOL0     H92849   2.539   5.590  -0.214  1.2886  1.2632  1.3150
  688MOL0     H92850   2.424   5.851  -0.278 -0.5197  1.4615 -2.1389
  688MOL0     H92851   2.388   5.714  -0.397 -2.6455 -0.4969  3.6700
  688MOL0     H92852   2.621   5.699  -0.469  2.1918 -0.6050  1.2734
  688MOL0     H92853   2.607   5.870  -0.439 -1.6748  1.2468  2.1926
  688MOL0     H92854   2.809   5.775  -0.378  0.2902 -2.0594 -0.0000
  688MOL0     H92855   2.744   5.684  -0.248  2.7046  1.1931  2.3123
  688MOL0     H92856   2.763   5.987  -0.253 -1.4001 -1.2808 -0.2845
  688MOL0     H92857   2.665   5.900  -0.131  0.1019 -1.9037  1.0980
  688MOL0     H92858   2.950   5.860  -0.205  0.7057 -1.3637  0.4881
  688MOL0     H92859   2.874   5.767  -0.077  0.4175  0.1801 -0.5667
  688MOL0     H92860   2.865   6.064  -0.054 -2.5035 -1.3877 -1.1327
  688MOL0     H92861   3.002   5.973   0.024  0.7578 -3.4178 -0.6015
  688MOL0     H92862   2.322   5.329   0.095 -0.8038 -0.1690  0.3787
  688MOL0     H92863   2.160   5.146   0.134 -2.7181 -1.8314 -1.9911
  688MOL0     H92864   2.024   4.815   0.102  1.7438  0.3975  3.0050
  688MOL0     H92865   1.930   4.621   0.228 -0.1825 -0.8644  1.0775
  688MOL0     H92866   1.185   4.096   1.128 -1.6661  1.5865  0.3491
  688MOL0     H92867   0.958   4.119   1.045  3.6517  0.7114  4.1214
  688MOL0     H92868   0.489   3.774   1.082  2.7531  1.9830  2.1700
  688MOL0     H92869   0.275   3.811   0.994 -0.0019  0.6733  2.0405
  688MOL0     H92870   0.031   3.959   0.940  0.6133 -0.9441  0.8882
  688MOL0     H92871   0.167   4.018   1.032  0.2408  0.1968  0.4657
  688MOL0     H92872  -0.047   4.186   0.995  0.7199  0.8956  0.9040
  688MOL0     H92873   0.022   4.201   0.833  3.5297 -0.3393 -0.8327
  688MOL0     H92874   0.163   4.278   1.101  1.2081 -0.7746 -0.6204
  688MOL0     H92875   0.060   4.385   1.013 -0.5655  0.4421  0.8760
  688MOL0     H92876   0.209   4.333   0.796 -3.1773 -0.6606  1.1680
  688MOL0     H92877   0.328   4.285   0.907 -0.0525 -1.0841 -2.5840
  688MOL0     H92878   0.318   4.710   0.975 -3.1071 -0.1195 -1.2008
  688MOL0     H92879   0.404   4.048   0.675  3.3778 -2.1729 -1.9310
  688MOL0     H92880   0.637   4.014   0.750  0.4490 -0.2714 -0.2331
  689MOL0     O92881   7.516  10.236   5.944  0.1202  0.4060  0.3557
  689MOL0     C92882   7.464  10.126   5.952 -0.8211 -0.1769  1.0142
  689MOL0     O92883   7.396  10.068   5.853  1.2269 -0.2427  0.8124
  689MOL0     C92884   7.372  10.131   5.723 -0.3687  0.3456 -0.8634
  689MOL0     C92885   7.284  10.056   5.637 -0.7005  1.4872 -0.7472
  689MOL0     C92886   7.245  10.113   5.509  0.3395 -0.0560 -0.8774
  689MOL0     C92887   7.310  10.229   5.457  0.1382 -0.4146 -0.7950
  689MOL0     O92888   7.269  10.279   5.331  0.5339 -0.3884 -0.0631
  689MOL0     C92889   7.355  10.351   5.250 -1.0438 -0.5852 -0.0950
  689MOL0     C92890   7.294  10.371   5.108 -0.4432  0.8237 -0.9643
  689MOL0     C92891   7.316  10.226   5.040 -0.8960  0.2690 -0.2581
  689MOL0     C92892   7.327  10.229   4.886  0.6766  0.3523  1.1509
  689MOL0     C92893   7.370  10.088   4.821  0.5463 -0.1711 -0.8635
  689MOL0     C92894   7.405  10.129   4.682  0.1006 -0.0144  0.2812
  689MOL0     C92895   7.415   9.994   4.600  0.1405  0.5634 -0.1709
  689MOL0     C92896   7.411  10.015   4.455 -0.1194  0.4462  0.6358
  689MOL0     N92897   7.541  10.059   4.405  0.0026  0.0405  0.1288
  689MOL0     C92898   7.603  10.178   4.427 -0.0558  0.1531  0.1558
  689MOL0     C92899   7.727  10.163   4.378 -0.9330  0.4848  0.4809
  689MOL0     C92900   7.845  10.264   4.377 -0.0111 -0.1941  0.6694
  689MOL0     C92901   7.876  10.336   4.513  0.0549  0.6654 -0.0260
  689MOL0     C92902   7.960  10.465   4.492  0.5129  0.3468 -0.6451
  689MOL0     C92903   8.099  10.437   4.425  0.3988 -1.0692  0.2032
  689MOL0     O92904   8.191  10.538   4.464  0.0509 -0.1632 -0.4015
  689MOL0     C92905   8.318  10.540   4.429  0.0421 -0.7017  0.6022
  689MOL0     C92906   8.370  10.462   4.329  0.8128  0.5587 -0.1045
  689MOL0     C92907   8.497  10.472   4.282  1.3967 -0.5503  0.6004
  689MOL0     C92908   8.540  10.372   4.175  0.3931 -0.0024  0.0685
  689MOL0     C92909   8.575  10.569   4.337  0.4786  1.0722 -0.0045
  689MOL0     C92910   8.723  10.586   4.298  0.3307 -0.1415  0.3125
  689MOL0     O92911   8.789  10.662   4.402  0.2651  0.2000  0.6887
  689MOL0     C92912   8.923  10.663   4.403  0.1636 -0.2121  0.7085
  689MOL0     C92913   8.987  10.633   4.523  0.6544  0.1109 -1.2023
  689MOL0     C92914   9.120  10.632   4.519 -0.2944 -0.0113  1.1688
  689MOL0     C92915   9.196  10.683   4.415 -0.2495  0.1100  0.4951
  689MOL0     O92916   9.332  10.719   4.420 -0.1925  0.0255  0.0819
  689MOL0     C92917   9.418  10.640   4.498 -0.0139  0.4463 -0.2773
  689MOL0     C92918   9.460  10.708   4.626  0.7887 -0.2732  1.1411
  689MOL0     C92919   9.386  10.838   4.671  0.4046  1.4554 -0.0066
  689MOL0     C92920   9.404  10.877   4.814 -0.2873 -0.3953 -1.1735
  689MOL0     C92921   9.346  11.009   4.863  0.3686  0.1521  1.2717
  689MOL0     C92922   9.318  10.969   5.010 -0.2238  0.0526  0.5514
  689MOL0     C92923   9.307  11.083   5.095 -0.3038  0.1071  0.2750
  689MOL0     C92924   9.293  11.057   5.246  0.0009  0.2922 -0.4412
  689MOL0    Cl92925   9.448  11.022   5.314  0.2958  0.0604  0.0609
  689MOL0     C92926   9.138  10.698   4.290 -0.3982  0.2266 -0.2880
  689MOL0     C92927   9.002  10.685   4.290  1.1800 -0.2417  0.0463
  689MOL0     O92928   8.766  10.544   4.188 -0.8707  0.2101  0.3204
  689MOL0     C92929   8.518  10.653   4.428 -0.3252 -0.7747 -0.2736
  689MOL0     C92930   8.389  10.652   4.471 -0.2203  0.8541  0.5073
  689MOL0     N92931   7.727  10.038   4.307 -0.5517  0.0684 -0.1111
  689MOL0     N92932   7.622   9.978   4.331  0.7414 -0.4140  0.4793
  689MOL0     C92933   7.411  10.289   5.539  0.0870 -0.8010  0.1692
  689MOL0     C92934   7.443  10.242   5.672  0.1224 -1.2143 -0.2223
  689MOL0     C92935   7.477  10.057   6.081 -1.0716  0.4875 -0.2253
  689MOL0     C92936   7.531  10.117   6.201  0.4079 -1.1401  0.8122
  689MOL0     C92937   7.529  10.059   6.322 -0.3890 -0.2683 -0.6566
  689MOL0     C92938   7.490   9.924   6.342  0.2777 -0.4799  0.2905
  689MOL0     O92939   7.527   9.866   6.462 -0.1350 -0.0955 -0.3333
  689MOL0     C92940   7.490   9.725   6.483  0.6627 -0.9970 -0.5429
  689MOL0     C92941   7.346   9.691   6.518  0.2893 -0.7884 -0.4124
  689MOL0     C92942   7.301   9.764   6.646 -0.9643  0.0897 -0.4989
  689MOL0     C92943   7.156   9.725   6.696 -0.3946  0.3302 -0.3394
  689MOL0     C92944   7.147   9.727   6.847 -0.1986  0.3491 -0.0124
  689MOL0     C92945   7.141   9.733   6.965  0.0566 -0.1606  0.2134
  689MOL0     C92946   7.440   9.855   6.224  0.6680 -0.4029  0.2260
  689MOL0     C92947   7.428   9.922   6.098 -0.8684 -0.8914  0.1774
  689MOL0     H92948   7.250   9.960   5.674 -0.1344  1.1981 -0.9676
  689MOL0     H92949   7.178  10.055   5.446  0.5340  0.4374 -1.5420
  689MOL0     H92950   7.367  10.455   5.282  0.7990  1.0791 -5.1478
  689MOL0     H92951   7.450  10.296   5.247 -1.5616 -2.0937  4.3906
  689MOL0     H92952   7.193  10.411   5.099 -1.2015 -0.8803 -0.4627
  689MOL0     H92953   7.358  10.447   5.063 -0.9760 -0.1953 -3.5798
  689MOL0     H92954   7.416  10.192   5.070  0.5890  1.6759 -3.1598
  689MOL0     H92955   7.246  10.153   5.080 -2.2751  0.5489 -2.0538
  689MOL0     H92956   7.243  10.273   4.833  1.7688 -0.1442 -1.1258
  689MOL0     H92957   7.409  10.298   4.861 -0.3034  0.2854 -3.0101
  689MOL0     H92958   7.457  10.049   4.874  1.4489  2.7489  0.0131
  689MOL0     H92959   7.289  10.015   4.831 -0.3007  0.4405 -2.7144
  689MOL0     H92960   7.321  10.182   4.636  0.5280  1.1862  0.8438
  689MOL0     H92961   7.491  10.196   4.677  2.1889 -2.6117 -3.2603
  689MOL0     H92962   7.512   9.946   4.619 -0.8646 -2.5396 -2.2208
  689MOL0     H92963   7.337   9.923   4.627  2.1618 -0.9482  2.1801
  689MOL0     H92964   7.330  10.082   4.426 -0.4027 -0.5428 -1.0041
  689MOL0     H92965   7.384   9.918   4.411  2.3696 -0.1212  0.2179
  689MOL0     H92966   7.557  10.267   4.468 -0.5992  0.0611 -0.2467
  689MOL0     H92967   7.931  10.209   4.339 -1.6813 -1.1727 -1.9415
  689MOL0     H92968   7.823  10.345   4.307 -5.3965 -4.0161 -2.8944
  689MOL0     H92969   7.939  10.264   4.566  0.7184  1.7317  0.6641
  689MOL0     H92970   7.783  10.372   4.558  1.0373  1.3694  1.5106
  689MOL0     H92971   7.979  10.499   4.594 -0.4381 -4.0855  1.2253
  689MOL0     H92972   7.910  10.545   4.436  0.3505  0.4939 -0.2953
  689MOL0     H92973   8.091  10.449   4.316  2.6494 -1.4398 -0.0423
  689MOL0     H92974   8.163  10.353   4.454  2.7964  0.8350  0.7342
  689MOL0     H92975   8.313  10.383   4.282  2.2992  0.0256 -1.0745
  689MOL0     H92976   8.468  10.290   4.177 -2.1124  2.0544 -0.4289
  689MOL0     H92977   8.551  10.412   4.074 -0.8889 -2.9373 -1.3569
  689MOL0     H92978   8.639  10.335   4.202  0.2083  1.4795  3.3440
  689MOL0     H92979   8.936  10.601   4.613  1.3549 -3.4295 -1.9086
  689MOL0     H92980   9.162  10.609   4.617 -6.5147 -2.7253  3.6902
  689MOL0     H92981   9.367  10.545   4.520 -1.5080  0.4929 -3.0514
  689MOL0     H92982   9.506  10.615   4.438  0.8565 -0.6760  1.3919
  689MOL0     H92983   9.438  10.635   4.705 -1.7447  0.8727  1.6029
  689MOL0     H92984   9.568  10.722   4.614  0.7960  1.7035  2.9580
  689MOL0     H92985   9.279  10.833   4.651  0.0271  1.6289  1.8069
  689MOL0     H92986   9.429  10.919   4.611  4.3099 -0.4378 -0.0893
  689MOL0     H92987   9.358  10.794   4.869 -1.5403  0.9299 -0.1250
  689MOL0     H92988   9.510  10.881   4.842 -0.7496 -0.7653  0.8464
  689MOL0     H92989   9.259  11.015   4.797  0.9608  0.4789  0.5152
  689MOL0     H92990   9.416  11.093   4.852  0.9060 -0.5016 -0.8302
  689MOL0     H92991   9.229  10.905   5.015  0.1617 -0.6485 -0.8354
  689MOL0     H92992   9.400  10.903   5.039 -0.3735 -2.6276 -4.0860
  689MOL0     H92993   9.214  11.134   5.069  0.9513  2.1694 -0.3502
  689MOL0     H92994   9.389  11.155   5.083 -2.1106  1.7503 -4.5826
  689MOL0     H92995   9.220  10.981   5.277  0.6583 -0.8903 -1.7037
  689MOL0     H92996   9.256  11.147   5.295  1.5793 -0.2671  1.9615
  689MOL0     H92997   9.184  10.716   4.194 -1.2929 -1.2380 -1.0265
  689MOL0     H92998   8.950  10.691   4.195  1.3247 -1.4499 -0.1238
  689MOL0     H92999   8.575  10.739   4.461 -1.6081 -1.0267  2.9386
  689MOL0     H93000   8.361  10.729   4.542  0.5764  0.8523  0.8400
  689MOL0     H93001   7.455  10.380   5.501  0.6811  0.1780  2.9677
  689MOL0     H93002   7.529  10.281   5.724 -2.7248  3.5722  1.5570
  689MOL0     H93003   7.572  10.217   6.187  0.1520 -1.2350 -0.8248
  689MOL0     H93004   7.573  10.102   6.411 -3.0646 -3.2984  2.4136
  689MOL0     H93005   7.514   9.666   6.395  1.1622  1.5928 -2.2551
  689MOL0     H93006   7.557   9.690   6.562  1.1745  0.2536 -0.3988
  689MOL0     H93007   7.337   9.582   6.519 -0.6223 -0.7385  1.6413
  689MOL0     H93008   7.274   9.714   6.439  0.8145 -0.5492 -0.8272
  689MOL0     H93009   7.309   9.870   6.619 -1.7235 -0.3228 -2.5371
  689MOL0     H93010   7.382   9.748   6.717  0.1262  0.3845 -1.6554
  689MOL0     H93011   7.128   9.626   6.660 -2.6543 -0.0437  2.1216
  689MOL0     H93012   7.068   9.781   6.662 -0.2056  0.6313 -0.3419
  689MOL0     H93013   7.115   9.737   7.069 -2.3841  0.1131 -0.3376
  689MOL0     H93014   7.405   9.753   6.226  0.3665 -0.3585 -1.5173
  689MOL0     H93015   7.394   9.879   6.005  0.9687 -1.0504 -0.4738
  690MOL0     O93016   4.909  11.466   4.290 -0.5790 -0.4945 -0.9974
  690MOL0     C93017   4.878  11.395   4.388 -0.0551 -0.6687  0.2329
  690MOL0     O93018   4.903  11.421   4.517 -0.0749  0.2282 -0.1157
  690MOL0     C93019   4.982  11.533   4.559  1.0627 -0.0872  0.0801
  690MOL0     C93020   5.031  11.646   4.488 -0.2544  0.7810  0.5493
  690MOL0     C93021   5.128  11.724   4.553 -0.8043 -0.8532  0.3525
  690MOL0     C93022   5.157  11.702   4.690  0.1025 -0.2218  0.7556
  690MOL0     O93023   5.260  11.770   4.761 -0.1705 -0.2713 -0.2266
  690MOL0     C93024   5.331  11.875   4.697 -0.3004 -0.0305 -0.5021
  690MOL0     C93025   5.456  11.929   4.780  0.9843 -1.0211  0.2988
  690MOL0     C93026   5.431  11.927   4.928  0.3326  0.6481 -0.4139
  690MOL0     C93027   5.545  12.001   4.997 -0.2666  0.2816 -0.4403
  690MOL0     C93028   5.684  11.943   4.987  0.5138 -0.2667  0.5767
  690MOL0     C93029   5.700  11.814   5.052 -0.0045  0.4950  0.1666
  690MOL0     C93030   5.838  11.755   5.013 -0.6119  0.4281 -0.1149
  690MOL0     C93031   5.947  11.768   5.121 -0.0341  0.4645 -0.2153
  690MOL0     N93032   5.913  11.687   5.246 -0.9792 -1.3158  0.7373
  690MOL0     C93033   5.985  11.693   5.361 -0.3603 -0.2703  0.6173
  690MOL0     C93034   5.938  11.599   5.439 -0.0512 -0.4779 -0.9828
  690MOL0     C93035   5.974  11.565   5.584  0.4193  1.5134  0.2869
  690MOL0     C93036   5.961  11.682   5.681  0.1727 -0.5467 -0.1889
  690MOL0     C93037   6.004  11.646   5.819 -0.1402 -0.1820 -0.4780
  690MOL0     C93038   6.109  11.736   5.885 -0.7092 -1.0858  0.1232
  690MOL0     O93039   6.065  11.867   5.886  0.4962 -0.8448  0.5743
  690MOL0     C93040   5.968  11.896   5.983 -0.7477  1.3345 -1.0821
  690MOL0     C93041   6.009  11.882   6.116  0.6427  0.2052  0.0334
  690MOL0     C93042   5.926  11.912   6.223  0.3946 -0.0709  0.4460
  690MOL0     C93043   5.993  11.921   6.369 -0.5462  0.7745  0.1865
  690MOL0     C93044   5.787  11.940   6.192 -0.3265 -0.0222 -0.3606
  690MOL0     C93045   5.680  11.963   6.289  0.9500  0.2460  0.2057
  690MOL0     O93046   5.560  11.994   6.236 -0.0680 -1.5661 -0.8521
  690MOL0     C93047   5.455  12.039   6.314  0.0883  0.3962  0.1096
  690MOL0     C93048   5.418  11.960   6.429  0.2900 -0.2212  0.2050
  690MOL0     C93049   5.316  12.001   6.515 -0.6225 -0.4132  0.3871
  690MOL0     C93050   5.249  12.123   6.486 -0.5641 -0.3444  0.6134
  690MOL0     O93051   5.151  12.165   6.564  0.3699  0.4517 -0.1011
  690MOL0     C93052   5.166  12.160   6.704  0.2745  0.6987 -0.8630
  690MOL0     C93053   5.204  12.296   6.752 -0.4323  0.4715  0.7605
  690MOL0     C93054   5.161  12.330   6.904  0.1294  0.2885  0.0681
  690MOL0     C93055   5.195  12.468   6.951 -0.2110 -0.8540  0.4869
  690MOL0     C93056   5.148  12.472   7.091 -0.1298 -0.5390 -0.7601
  690MOL0     C93057   5.158  12.609   7.159 -0.4065 -0.1208 -0.4284
  690MOL0     C93058   5.138  12.580   7.313  0.7656  0.3412  0.1746
  690MOL0     C93059   4.994  12.579   7.355 -0.1046  0.1482  0.2479
  690MOL0    Cl93060   4.983  12.576   7.536 -0.3779  0.0623 -0.3430
  690MOL0     C93061   5.264  12.193   6.367 -0.6192 -0.5455 -0.6156
  690MOL0     C93062   5.370  12.147   6.281 -0.9728  0.0664  0.5329
  690MOL0     O93063   5.695  11.942   6.408 -0.2650  0.6787  0.1587
  690MOL0     C93064   5.759  11.967   6.058 -0.7789  0.2248  0.8476
  690MOL0     C93065   5.850  11.947   5.958 -0.9903  0.3111  0.3428
  690MOL0     N93066   5.840  11.526   5.365  0.6114  0.0157 -0.8426
  690MOL0     N93067   5.836  11.578   5.246  0.0781  0.1882  0.0374
  690MOL0     C93068   5.108  11.592   4.758 -1.1013 -0.4641  0.6286
  690MOL0     C93069   5.022  11.510   4.688 -0.7685 -0.3403 -0.8938
  690MOL0     C93070   4.796  11.266   4.352 -0.3160 -0.7689  0.2638
  690MOL0     C93071   4.738  11.196   4.455  0.5823 -0.3139  0.3777
  690MOL0     C93072   4.667  11.078   4.418 -0.2316 -0.2542 -1.0421
  690MOL0     C93073   4.669  11.028   4.290  0.2654 -0.0671  0.4031
  690MOL0     O93074   4.604  10.915   4.253 -0.0379 -0.0323  0.0075
  690MOL0     C93075   4.476  10.955   4.193 -0.5921 -0.4184 -0.3084
  690MOL0     C93076   4.473  10.889   4.059  0.0005  0.2430  0.6529
  690MOL0     C93077   4.425  10.739   4.070  0.4797  0.8284  0.2899
  690MOL0     C93078   4.283  10.733   4.134 -0.8615 -0.3746  0.0195
  690MOL0     C93079   4.201  10.646   4.057  0.5386  0.1474 -0.5627
  690MOL0     C93080   4.128  10.570   3.996  0.4575 -1.1395 -0.4059
  690MOL0     C93081   4.737  11.104   4.193 -0.2726  0.3314  0.5475
  690MOL0     C93082   4.800  11.227   4.213  0.4966 -0.2301  0.4258
  690MOL0     H93083   4.990  11.677   4.393 -1.9745  1.1641  1.3750
  690MOL0     H93084   5.166  11.815   4.509  1.0062 -1.4644  0.5800
  690MOL0     H93085   5.378  11.841   4.604  1.9226 -2.8289  1.4631
  690MOL0     H93086   5.266  11.960   4.677 -1.5190 -0.6857  0.5404
  690MOL0     H93087   5.534  11.869   4.731  0.4351  1.3312 -3.9613
  690MOL0     H93088   5.455  12.035   4.751  1.7476 -1.0912 -0.0125
  690MOL0     H93089   5.334  11.969   4.955 -0.1926 -0.3684 -0.6909
  690MOL0     H93090   5.424  11.822   4.955 -0.2661  0.7511 -0.1532
  690MOL0     H93091   5.538  12.094   4.940  0.5507 -0.0382 -1.0977
  690MOL0     H93092   5.518  12.016   5.102 -0.9643  2.1401 -0.8442
  690MOL0     H93093   5.704  11.947   4.879  1.8764  0.5238  0.8361
  690MOL0     H93094   5.754  12.014   5.032  0.5575  0.1580 -0.1408
  690MOL0     H93095   5.705  11.824   5.161 -2.4126 -2.4951  0.7002
  690MOL0     H93096   5.626  11.738   5.028  1.6586 -2.4595  3.5008
  690MOL0     H93097   5.815  11.651   4.989  0.8073 -0.1230  0.7785
  690MOL0     H93098   5.870  11.789   4.914  0.3363 -2.1383 -0.7769
  690MOL0     H93099   5.957  11.876   5.136  3.5401  0.5443 -2.0941
  690MOL0     H93100   6.045  11.731   5.089  1.3068  3.2081  0.4224
  690MOL0     H93101   6.066  11.756   5.394 -0.0151  0.6514 -1.8164
  690MOL0     H93102   5.916  11.480   5.621  1.3173  0.3071 -0.9730
  690MOL0     H93103   6.079  11.533   5.588 -0.2123 -0.8182 -0.2815
  690MOL0     H93104   5.858  11.719   5.685  0.4761  0.2576  0.2941
  690MOL0     H93105   6.021  11.770   5.659  1.6756 -1.0676  1.5801
  690MOL0     H93106   6.051  11.548   5.822 -0.5691 -0.5053 -2.6108
  690MOL0     H93107   5.912  11.638   5.878  0.0325 -0.7707 -0.2923
  690MOL0     H93108   6.203  11.727   5.830 -1.1137  1.1915 -1.0670
  690MOL0     H93109   6.127  11.702   5.987 -0.8994  1.3464  1.0477
  690MOL0     H93110   6.116  11.865   6.127  1.1354  0.5410 -3.1857
  690MOL0     H93111   5.994  11.834   6.435  1.8140  0.6632  0.0915
  690MOL0     H93112   6.094  11.959   6.351 -1.6022  3.2546 -1.0728
  690MOL0     H93113   5.948  11.998   6.432 -2.3219  0.8700 -1.1049
  690MOL0     H93114   5.477  11.871   6.446  0.0989 -0.8724 -2.2498
  690MOL0     H93115   5.279  11.948   6.602  0.1200  1.2762  1.8067
  690MOL0     H93116   5.065  12.148   6.746  0.0547  1.1292 -1.2677
  690MOL0     H93117   5.236  12.091   6.753 -3.8018 -3.9726 -0.7554
  690MOL0     H93118   5.312  12.280   6.750 -0.6635 -1.1720 -0.0973
  690MOL0     H93119   5.174  12.365   6.673 -0.5982 -1.4769 -0.9342
  690MOL0     H93120   5.203  12.254   6.971  0.2259  2.1643  2.2623
  690MOL0     H93121   5.053  12.317   6.910  0.2167 -2.4581 -2.2610
  690MOL0     H93122   5.302  12.481   6.935 -0.6750  1.8221 -0.9387
  690MOL0     H93123   5.151  12.543   6.885  1.6446 -0.4878 -0.4020
  690MOL0     H93124   5.213  12.410   7.152  3.9180  2.2795 -1.7917
  690MOL0     H93125   5.041  12.449   7.090 -0.7483  1.9926 -1.7771
  690MOL0     H93126   5.255  12.652   7.134 -0.0117 -0.4418  0.5057
  690MOL0     H93127   5.094  12.687   7.115  3.7276  3.1078 -1.3554
  690MOL0     H93128   5.168  12.665   7.374 -2.6417  0.2578  2.1930
  690MOL0     H93129   5.183  12.488   7.352 -1.7831 -0.5240  1.2686
  690MOL0     H93130   4.942  12.494   7.311  1.1446 -0.7811  0.5046
  690MOL0     H93131   4.944  12.672   7.326 -1.3659  0.0897  2.0279
  690MOL0     H93132   5.217  12.287   6.339 -1.6940 -0.4535  1.3363
  690MOL0     H93133   5.380  12.204   6.189  1.7671  2.9059  2.3914
  690MOL0     H93134   5.664  12.006   6.023 -0.8485 -0.8986 -0.2925
  690MOL0     H93135   5.829  11.956   5.852  1.3348 -1.8116 -0.4178
  690MOL0     H93136   5.141  11.590   4.861  1.7888 -0.0751 -0.1770
  690MOL0     H93137   4.973  11.429   4.741 -2.7865  1.4703  0.1665
  690MOL0     H93138   4.749  11.233   4.556 -0.7699  4.7160 -1.0113
  690MOL0     H93139   4.620  11.022   4.498  2.0115  0.0382  0.5754
  690MOL0     H93140   4.393  10.930   4.260 -0.7280  1.5382  0.3266
  690MOL0     H93141   4.471  11.060   4.163 -0.4623  0.1616  1.5292
  690MOL0     H93142   4.573  10.890   4.013 -0.0132 -2.7411  0.3356
  690MOL0     H93143   4.400  10.944   3.999  0.4647 -0.6018 -0.7379
  690MOL0     H93144   4.492  10.675   4.127 -0.7994 -0.8693 -0.0269
  690MOL0     H93145   4.423  10.699   3.968 -1.9986  1.7875 -0.1260
  690MOL0     H93146   4.233  10.830   4.141  0.9350  0.5283  1.2530
  690MOL0     H93147   4.290  10.695   4.236 -1.3232  2.3277  1.1435
  690MOL0     H93148   4.064  10.502   3.944  0.0570 -0.2627 -1.0853
  690MOL0     H93149   4.738  11.057   4.096  2.1593  0.8575  0.2555
  690MOL0     H93150   4.859  11.269   4.132  0.6798  1.8835  1.6107
  691MOL0     O93151  10.565   8.468   5.934 -0.6695  0.3374  0.0333
  691MOL0     C93152  10.572   8.441   6.053 -0.6817  1.1756  0.7831
  691MOL0     O93153  10.641   8.343   6.106 -0.6588  0.8689 -0.5655
  691MOL0     C93154  10.702   8.250   6.031  0.6289  0.3329  0.5755
  691MOL0     C93155  10.679   8.120   6.072  0.1893  0.6626 -0.0133
  691MOL0     C93156  10.747   8.011   6.011 -0.1862 -0.1550 -0.1861
  691MOL0     C93157  10.836   8.032   5.900 -0.2519  0.7677 -1.3508
  691MOL0     O93158  10.894   7.911   5.848  1.4154  0.2203  0.3143
  691MOL0     C93159  10.889   7.889   5.711  0.0595 -0.0747  0.7727
  691MOL0     C93160  10.949   7.750   5.698  0.2223  0.0346  0.5062
  691MOL0     C93161  10.949   7.718   5.550 -0.2446  0.0433 -0.2034
  691MOL0     C93162  11.027   7.588   5.526  0.6045  0.4092  0.4611
  691MOL0     C93163  11.032   7.554   5.380 -0.7523  0.4688 -0.1540
  691MOL0     C93164  11.084   7.418   5.342 -0.0977  0.0594 -0.5233
  691MOL0     C93165  11.231   7.399   5.405  1.5944 -0.1896 -0.7228
  691MOL0     C93166  11.312   7.293   5.333 -0.2780  0.2343  0.3176
  691MOL0     N93167  11.267   7.149   5.347  1.7344  0.8054 -0.1449
  691MOL0     C93168  11.136   7.106   5.325 -0.0299  0.4024  0.4415
  691MOL0     C93169  11.135   6.975   5.372  0.3226  0.6943  0.1375
  691MOL0     C93170  11.021   6.878   5.388 -0.5105 -0.9640  0.0720
  691MOL0     C93171  10.881   6.939   5.340 -0.1439  0.0094  0.4271
  691MOL0     C93172  10.778   6.832   5.302  1.0603  0.2828  0.4568
  691MOL0     C93173  10.759   6.739   5.415  0.1390  0.0648  0.1736
  691MOL0     O93174  10.658   6.630   5.396 -0.6932  0.3370  0.4209
  691MOL0     C93175  10.660   6.524   5.488 -0.1314 -1.2779 -0.9883
  691MOL0     C93176  10.732   6.524   5.617  0.2350 -0.4096 -0.0500
  691MOL0     C93177  10.728   6.411   5.701  0.6833 -0.2402  0.1087
  691MOL0     C93178  10.797   6.426   5.839  0.2901 -0.5540  1.2733
  691MOL0     C93179  10.650   6.289   5.668 -0.7974  0.0705 -1.3233
  691MOL0     C93180  10.639   6.167   5.759  0.6174 -1.3645  0.1808
  691MOL0     O93181  10.553   6.067   5.712  0.0711 -0.9739  0.4531
  691MOL0     C93182  10.592   5.939   5.744 -0.1179 -0.5075  0.0465
  691MOL0     C93183  10.610   5.886   5.869 -0.6097 -0.2192 -0.7132
  691MOL0     C93184  10.652   5.756   5.890  0.2374 -0.1590 -0.3870
  691MOL0     C93185  10.685   5.673   5.790 -0.3871  0.5652  0.0041
  691MOL0     O93186  10.740   5.551   5.824  0.5003 -0.2279  0.6501
  691MOL0     C93187  10.719   5.434   5.733 -0.7344  0.0598 -0.8558
  691MOL0     C93188  10.723   5.308   5.816  0.3911  0.1054 -0.0761
  691MOL0     C93189  10.625   5.306   5.934 -0.0796 -0.6147  0.1123
  691MOL0     C93190  10.589   5.172   5.994  0.5995 -0.7528 -0.6306
  691MOL0     C93191  10.564   5.056   5.895 -0.5715 -0.3321 -0.4433
  691MOL0     C93192  10.489   4.941   5.966 -0.6505 -0.6750  0.0249
  691MOL0     C93193  10.468   4.808   5.894 -0.2529  1.5510  0.1126
  691MOL0     C93194  10.395   4.706   5.977 -0.8869 -0.4978 -0.4440
  691MOL0    Cl93195  10.236   4.655   5.883  0.3807  0.2111 -0.0882
  691MOL0     C93196  10.666   5.721   5.662  0.2179 -0.0702 -0.1725
  691MOL0     C93197  10.612   5.855   5.636  0.7653  1.7621  0.3231
  691MOL0     O93198  10.729   6.145   5.838 -0.1239 -0.1737 -0.4201
  691MOL0     C93199  10.591   6.292   5.539  0.2314 -0.0038 -0.1527
  691MOL0     C93200  10.590   6.408   5.459  0.3885  0.2067  1.4217
  691MOL0     N93201  11.266   6.945   5.420  0.1730 -0.4696  0.2856
  691MOL0     N93202  11.335   7.047   5.401  0.0104 -0.2756 -0.3844
  691MOL0     C93203  10.852   8.163   5.859 -0.4942 -0.7034  0.5822
  691MOL0     C93204  10.787   8.273   5.925 -0.0977 -0.0530 -0.6894
  691MOL0     C93205  10.509   8.535   6.149  0.0847  0.4074 -0.4095
  691MOL0     C93206  10.470   8.668   6.117 -0.8649 -0.3155 -0.1008
  691MOL0     C93207  10.434   8.768   6.211 -0.3547  0.6540 -0.5175
  691MOL0     C93208  10.419   8.730   6.341  0.2695  0.1683 -0.1011
  691MOL0     O93209  10.368   8.828   6.425  0.1231 -0.2687  0.3673
  691MOL0     C93210  10.323   8.794   6.563 -0.3734  0.3343 -0.4982
  691MOL0     C93211  10.446   8.773   6.655  0.0618 -0.1167  0.3305
  691MOL0     C93212  10.406   8.728   6.805  0.1638 -0.3919 -0.5657
  691MOL0     C93213  10.546   8.718   6.884 -0.5381 -0.1125 -0.7406
  691MOL0     C93214  10.518   8.704   7.031 -0.9266 -1.7315 -0.4709
  691MOL0     C93215  10.476   8.701   7.148  0.2947 -0.8898  0.4287
  691MOL0     C93216  10.437   8.593   6.377 -0.5458 -0.7335  0.1815
  691MOL0     C93217  10.482   8.498   6.284 -0.3815  0.2794 -0.4110
  691MOL0     H93218  10.610   8.107   6.155  0.7029  2.0587  0.6754
  691MOL0     H93219  10.718   7.912   6.046 -0.5350 -0.5692 -1.5654
  691MOL0     H93220  10.794   7.895   5.658  0.9858 -0.6778 -1.0565
  691MOL0     H93221  10.956   7.962   5.664 -1.1420 -0.1714 -1.1748
  691MOL0     H93222  11.054   7.753   5.729  0.3044 -1.4427  0.4705
  691MOL0     H93223  10.888   7.681   5.757 -0.2788 -0.8182 -0.9529
  691MOL0     H93224  10.849   7.714   5.507  0.0143  1.5287 -1.0084
  691MOL0     H93225  10.993   7.805   5.501  0.9844  0.3462  1.3569
  691MOL0     H93226  11.129   7.603   5.562  0.1164  1.1652  1.5674
  691MOL0     H93227  10.981   7.510   5.587  1.0437 -0.0062  0.2655
  691MOL0     H93228  10.936   7.582   5.336  1.2396  0.9340 -4.7503
  691MOL0     H93229  11.105   7.620   5.334  2.4326 -2.7110 -0.0823
  691MOL0     H93230  11.008   7.350   5.381  0.3556  0.7890  1.8024
  691MOL0     H93231  11.097   7.413   5.234  1.8187 -1.1315 -0.2763
  691MOL0     H93232  11.285   7.494   5.398 -1.9794  2.0794 -0.1990
  691MOL0     H93233  11.218   7.381   5.512 -0.9491 -0.5217 -1.0123
  691MOL0     H93234  11.418   7.302   5.357 -0.2582 -1.7548  1.1072
  691MOL0     H93235  11.310   7.313   5.225  0.0632 -1.5323 -0.0449
  691MOL0     H93236  11.064   7.162   5.266  1.7626  1.9273 -0.3878
  691MOL0     H93237  11.053   6.802   5.317  0.1864 -1.5495  0.9863
  691MOL0     H93238  11.013   6.842   5.491 -0.2746  2.4304  1.3948
  691MOL0     H93239  10.900   7.003   5.253 -0.4529  1.3970  1.3453
  691MOL0     H93240  10.824   7.009   5.402 -2.0166  2.1071 -3.2826
  691MOL0     H93241  10.799   6.788   5.204  3.0937  1.5411  0.2607
  691MOL0     H93242  10.679   6.879   5.297  1.6097  1.4052 -0.3165
  691MOL0     H93243  10.756   6.802   5.504 -1.9531  2.4824 -1.4656
  691MOL0     H93244  10.850   6.679   5.426 -1.6041 -2.6576  0.8417
  691MOL0     H93245  10.805   6.595   5.655 -0.0871 -1.6121  3.0634
  691MOL0     H93246  10.843   6.524   5.850 -0.3113 -0.2123  0.8214
  691MOL0     H93247  10.712   6.401   5.904 -1.3763  1.9347  0.2382
  691MOL0     H93248  10.874   6.350   5.854  0.8516 -1.1521 -3.2148
  691MOL0     H93249  10.577   5.950   5.949  2.1370 -0.1217  0.4444
  691MOL0     H93250  10.683   5.746   5.993  0.8493  2.2191 -0.2892
  691MOL0     H93251  10.622   5.441   5.683 -1.5503 -1.4689  0.4398
  691MOL0     H93252  10.804   5.427   5.664  0.2941 -0.0710  0.3754
  691MOL0     H93253  10.691   5.228   5.748  0.2424  1.2509 -1.4098
  691MOL0     H93254  10.826   5.292   5.850  0.3914 -0.0165 -0.1300
  691MOL0     H93255  10.525   5.346   5.918  0.7899  1.6462 -0.0625
  691MOL0     H93256  10.667   5.374   6.009 -0.9659 -0.9964  0.9695
  691MOL0     H93257  10.678   5.146   6.052  3.0801  4.8370 -1.3215
  691MOL0     H93258  10.497   5.179   6.053  1.4400  0.3423  0.5983
  691MOL0     H93259  10.661   5.029   5.853 -1.3983 -1.5786 -1.6084
  691MOL0     H93260  10.495   5.084   5.815 -1.3317 -2.5229 -0.6115
  691MOL0     H93261  10.542   4.917   6.058  1.5694 -2.2942 -1.5817
  691MOL0     H93262  10.391   4.982   5.993 -0.9435 -0.0598 -1.8050
  691MOL0     H93263  10.565   4.763   5.869 -1.0413  0.4570 -1.1021
  691MOL0     H93264  10.419   4.822   5.797  0.7411 -1.1079 -0.8776
  691MOL0     H93265  10.363   4.747   6.073 -1.0097  1.4928 -1.2897
  691MOL0     H93266  10.464   4.622   5.991 -1.7217 -1.0421  0.5746
  691MOL0     H93267  10.678   5.653   5.578 -2.5196 -1.6160  0.5670
  691MOL0     H93268  10.605   5.884   5.532  0.3503 -1.8199 -0.7829
  691MOL0     H93269  10.554   6.202   5.492 -1.1800  0.2772  0.3805
  691MOL0     H93270  10.546   6.406   5.360  0.3631 -0.7344  1.4414
  691MOL0     H93271  10.924   8.183   5.781 -1.3175  0.4913  0.1083
  691MOL0     H93272  10.812   8.377   5.904  1.1730  0.1390  1.4073
  691MOL0     H93273  10.495   8.695   6.015 -1.4132 -2.5287 -0.8811
  691MOL0     H93274  10.425   8.874   6.190 -4.6156  1.0616  2.1840
  691MOL0     H93275  10.261   8.876   6.601 -1.0035  0.0039 -0.7864
  691MOL0     H93276  10.256   8.708   6.559 -1.1132  0.8158  0.9513
  691MOL0     H93277  10.491   8.873   6.654 -0.0270 -0.0284 -2.2736
  691MOL0     H93278  10.517   8.697   6.619 -3.3209 -2.7815 -1.2996
  691MOL0     H93279  10.351   8.635   6.815 -1.0946  0.2065 -1.5584
  691MOL0     H93280  10.344   8.811   6.841 -1.4690 -1.5891 -0.5137
  691MOL0     H93281  10.608   8.808   6.871 -2.1783  0.9674 -1.4657
  691MOL0     H93282  10.598   8.631   6.844  2.0659  1.8311 -1.9257
  691MOL0     H93283  10.440   8.688   7.249 -1.0501 -2.6550 -0.2320
  691MOL0     H93284  10.427   8.560   6.480  2.6370  2.7419  1.8340
  691MOL0     H93285  10.512   8.397   6.308  2.6824  0.9675 -0.9090
  692MOL0     O93286   4.394   9.571  10.408  0.3221 -0.2770 -0.0867
  692MOL0     C93287   4.499   9.509  10.437  0.2517 -0.1647 -0.9824
  692MOL0     O93288   4.599   9.475  10.354  0.5706  0.7887  0.5420
  692MOL0     C93289   4.568   9.438  10.229 -0.3308 -1.1440 -0.2626
  692MOL0     C93290   4.667   9.463  10.137 -0.0706 -0.0128 -0.2271
  692MOL0     C93291   4.657   9.443  10.001  0.7584  0.3831 -0.0603
  692MOL0     C93292   4.538   9.389   9.950 -0.8504  1.5207  0.1341
  692MOL0     O93293   4.548   9.368   9.811 -0.2700 -0.6765 -0.4488
  692MOL0     C93294   4.427   9.322   9.748  0.7318  0.6324 -0.0666
  692MOL0     C93295   4.451   9.309   9.592 -0.0330 -0.5993  0.5305
  692MOL0     C93296   4.500   9.443   9.537  0.3856 -0.4268 -0.1312
  692MOL0     C93297   4.511   9.434   9.389  0.1511 -0.4383  0.3946
  692MOL0     C93298   4.575   9.569   9.334 -0.2243  0.0256 -0.1881
  692MOL0     C93299   4.511   9.594   9.195 -0.1233  0.4105  0.3882
  692MOL0     C93300   4.560   9.727   9.136  0.4523 -1.4826 -0.2600
  692MOL0     C93301   4.709   9.731   9.102  0.1047 -0.2217  0.0616
  692MOL0     N93302   4.751   9.868   9.060  0.1124  0.1810 -0.4721
  692MOL0     C93303   4.738   9.937   8.942 -1.3136  0.0646  0.6290
  692MOL0     C93304   4.798  10.061   8.963 -0.9577 -0.6563  0.7350
  692MOL0     C93305   4.810  10.181   8.860 -0.1106  0.0473  0.5705
  692MOL0     C93306   4.853  10.143   8.715 -0.2553  0.4682 -1.0412
  692MOL0     C93307   4.846  10.267   8.640 -0.9438 -0.1135  0.4605
  692MOL0     C93308   4.886  10.230   8.503 -1.1350  0.3696  0.6744
  692MOL0     O93309   4.913  10.353   8.433 -0.6849  0.5288  0.9310
  692MOL0     C93310   4.926  10.337   8.297  0.9567  0.7238  0.9072
  692MOL0     C93311   4.925  10.227   8.223  0.6453 -0.0970 -0.1272
  692MOL0     C93312   4.908  10.237   8.081 -0.5938  0.2297  0.6928
  692MOL0     C93313   4.888  10.099   8.019  0.0745 -0.0548 -0.0090
  692MOL0     C93314   4.910  10.358   8.006 -0.1285  0.4648 -0.7322
  692MOL0     C93315   4.904  10.376   7.860  0.1964  0.1765  0.4991
  692MOL0     O93316   4.971  10.486   7.808 -0.4192 -0.4045 -0.3092
  692MOL0     C93317   4.995  10.489   7.674 -0.2982 -1.2462 -0.1903
  692MOL0     C93318   5.122  10.456   7.627 -0.0040 -0.8150  0.7565
  692MOL0     C93319   5.137  10.459   7.488 -0.4903 -0.6274  0.4512
  692MOL0     C93320   5.028  10.483   7.402 -0.4326 -0.8065  0.5918
  692MOL0     O93321   5.039  10.495   7.265 -0.2711 -0.7282 -0.5282
  692MOL0     C93322   5.143  10.427   7.199 -0.6433  0.1350  0.6201
  692MOL0     C93323   5.111  10.395   7.050 -0.9599  0.6827 -0.5941
  692MOL0     C93324   5.234  10.323   6.995 -0.0395 -0.8051  0.0770
  692MOL0     C93325   5.209  10.234   6.882 -0.0103  0.3819 -0.5557
  692MOL0     C93326   5.348  10.186   6.817  0.5941 -0.3753 -0.7985
  692MOL0     C93327   5.441  10.113   6.911  0.3525 -0.2422  0.4263
  692MOL0     C93328   5.377   9.991   6.962  0.5843 -0.0166 -0.4935
  692MOL0     C93329   5.480   9.885   7.001  1.1090 -0.8238  0.4935
  692MOL0    Cl93330   5.615   9.945   7.094  0.1926 -0.4115 -0.0070
  692MOL0     C93331   4.906  10.520   7.450  0.0301  0.7330 -1.1399
  692MOL0     C93332   4.892  10.524   7.589 -0.2350  0.2710 -0.6161
  692MOL0     O93333   4.825  10.300   7.792  0.0344  0.1255 -0.9265
  692MOL0     C93334   4.923  10.474   8.088  0.0657 -0.4849 -0.2173
  692MOL0     C93335   4.917  10.466   8.225 -0.8567 -0.4823  0.0760
  692MOL0     N93336   4.845  10.065   9.096  0.7805  0.5298 -0.4692
  692MOL0     N93337   4.805   9.957   9.154  0.5016  0.2925 -0.5263
  692MOL0     C93338   4.441   9.348  10.043 -1.0871  0.5354 -0.7726
  692MOL0     C93339   4.451   9.380  10.180 -0.0627 -0.6118 -0.3707
  692MOL0     C93340   4.532   9.505  10.584 -1.2316 -0.3293  0.1997
  692MOL0     C93341   4.659   9.450  10.618  0.8249 -0.2332 -0.9594
  692MOL0     C93342   4.705   9.468  10.754  0.0183  0.6996 -0.0603
  692MOL0     C93343   4.622   9.537  10.845 -0.6020  0.6551  0.2638
  692MOL0     O93344   4.680   9.572  10.973 -0.0190  0.5062  0.7777
  692MOL0     C93345   4.632   9.686  11.050 -0.5374 -0.0763 -1.6734
  692MOL0     C93346   4.663   9.818  10.978 -0.6421  0.0632  0.2762
  692MOL0     C93347   4.814   9.835  10.954  0.2453 -1.0650 -0.9823
  692MOL0     C93348   4.853   9.966  10.899  0.3881  0.0341  0.7276
  692MOL0     C93349   4.997   9.976  10.888  0.1105  0.3574  0.1986
  692MOL0     C93350   5.115   9.976  10.862 -0.8004  0.0993 -0.1291
  692MOL0     C93351   4.494   9.579  10.807  0.3493 -0.2115  0.8214
  692MOL0     C93352   4.445   9.560  10.680 -0.3374  0.2806 -0.3259
  692MOL0     H93353   4.759   9.504  10.176  0.6029 -0.8370 -0.9287
  692MOL0     H93354   4.739   9.474   9.937  2.7925  0.6783  2.5541
  692MOL0     H93355   4.405   9.219   9.776  0.9061  0.0486 -1.8989
  692MOL0     H93356   4.339   9.380   9.777  0.1844 -0.6974  1.0095
  692MOL0     H93357   4.533   9.239   9.574  0.6014 -0.6990  3.3650
  692MOL0     H93358   4.363   9.263   9.546 -0.5159 -0.4479  1.2807
  692MOL0     H93359   4.437   9.529   9.562 -0.4400 -0.1660 -2.8000
  692MOL0     H93360   4.602   9.458   9.575  2.5449 -1.4940 -4.7218
  692MOL0     H93361   4.580   9.350   9.375 -0.9562 -1.5451  1.3162
  692MOL0     H93362   4.420   9.412   9.333  1.5732 -0.6759 -1.9463
  692MOL0     H93363   4.543   9.649   9.402 -0.8909 -0.2919 -0.1210
  692MOL0     H93364   4.684   9.566   9.333 -0.1914  0.0316  1.3043
  692MOL0     H93365   4.538   9.510   9.129  1.0759  1.0995 -0.0251
  692MOL0     H93366   4.402   9.597   9.199 -0.1031  0.5924  0.8390
  692MOL0     H93367   4.494   9.758   9.054 -0.6869 -1.1048  0.7630
  692MOL0     H93368   4.540   9.795   9.219 -3.0169 -0.8212 -1.4826
  692MOL0     H93369   4.735   9.666   9.018  0.5712 -0.7898  0.6373
  692MOL0     H93370   4.778   9.715   9.185 -0.9479  1.3705  1.3058
  692MOL0     H93371   4.683   9.903   8.855  1.2313 -2.8723 -0.0238
  692MOL0     H93372   4.721  10.241   8.843  0.3986  0.0621 -3.0455
  692MOL0     H93373   4.885  10.245   8.907 -0.8995  1.0678  0.4611
  692MOL0     H93374   4.777  10.080   8.669  0.8089 -0.4878 -1.5529
  692MOL0     H93375   4.951  10.097   8.734 -1.1165 -0.5734  1.2938
  692MOL0     H93376   4.909  10.347   8.682 -0.5823  0.1211 -0.4928
  692MOL0     H93377   4.744  10.304   8.631 -0.6030  1.0395  1.1272
  692MOL0     H93378   4.806  10.173   8.456 -0.6628  0.4384 -0.2473
  692MOL0     H93379   4.972  10.163   8.513  0.4198  1.9022 -1.3323
  692MOL0     H93380   4.935  10.130   8.271 -3.0698  0.7027  2.6424
  692MOL0     H93381   4.911  10.016   8.087 -1.1130  0.9393  1.6794
  692MOL0     H93382   4.782  10.092   7.991 -0.1068 -0.0424  0.6471
  692MOL0     H93383   4.942  10.079   7.926 -0.7853 -1.7939 -0.1819
  692MOL0     H93384   5.208  10.447   7.692  0.1079 -1.9787  0.4740
  692MOL0     H93385   5.236  10.426   7.457 -0.2389  0.0826  0.4828
  692MOL0     H93386   5.229  10.494   7.204 -1.0319  0.8055 -1.1315
  692MOL0     H93387   5.158  10.333   7.253 -0.1184 -1.4349 -2.1057
  692MOL0     H93388   5.015  10.344   7.043 -0.7881 -0.3770  2.7429
  692MOL0     H93389   5.108  10.490   6.995 -1.1528  0.6171 -0.6960
  692MOL0     H93390   5.268  10.265   7.081 -0.9225  0.5027  1.3561
  692MOL0     H93391   5.310  10.398   6.973 -2.5119  1.7361 -0.4405
  692MOL0     H93392   5.154  10.152   6.929  1.8904  0.8667  2.8810
  692MOL0     H93393   5.144  10.290   6.814 -0.6573  2.2596  1.4645
  692MOL0     H93394   5.407  10.274   6.789 -1.3360  1.3904  0.4319
  692MOL0     H93395   5.305  10.133   6.732  0.1062 -2.5068  0.6896
  692MOL0     H93396   5.520  10.067   6.851  1.6028  1.7498  0.4407
  692MOL0     H93397   5.480  10.171   6.995  0.3418 -1.3101  1.1843
  692MOL0     H93398   5.320   9.948   6.880  0.1016 -4.2224  1.7672
  692MOL0     H93399   5.317  10.009   7.052 -0.4217 -2.0178 -0.7171
  692MOL0     H93400   5.515   9.835   6.910  1.9565 -0.4580  0.6126
  692MOL0     H93401   5.437   9.806   7.063  1.8749 -3.7481 -2.3664
  692MOL0     H93402   4.823  10.537   7.383  0.1870 -4.5342 -3.0778
  692MOL0     H93403   4.796  10.543   7.635 -0.8858  2.0282 -2.5500
  692MOL0     H93404   4.937  10.567   8.034 -1.2360 -0.7766 -1.0982
  692MOL0     H93405   4.914  10.558   8.283  1.2581 -0.8268  0.7925
  692MOL0     H93406   4.347   9.299  10.021 -1.5540 -0.1431  2.2869
  692MOL0     H93407   4.376   9.361  10.256 -0.7472  0.5401 -0.7300
  692MOL0     H93408   4.727   9.402  10.549  1.4606 -4.0221  1.9847
  692MOL0     H93409   4.799   9.419  10.780  0.0063  0.0441 -1.2156
  692MOL0     H93410   4.524   9.674  11.055 -0.6020  0.8217 -0.6187
  692MOL0     H93411   4.665   9.695  11.154  1.7058 -0.3019 -2.2981
  692MOL0     H93412   4.635   9.900  11.045  0.8711 -2.0460  3.7368
  692MOL0     H93413   4.603   9.837  10.889  0.7520  5.3754  0.1303
  692MOL0     H93414   4.850   9.752  10.892  0.0632  0.5670 -3.3829
  692MOL0     H93415   4.868   9.826  11.049  1.6178  1.1403 -1.4899
  692MOL0     H93416   4.797  10.044  10.951 -0.1139 -0.6252  1.1941
  692MOL0     H93417   4.828   9.964  10.792  1.7467  2.8588  0.2572
  692MOL0     H93418   5.212   9.988  10.819 -1.9467  4.0698 -2.1043
  692MOL0     H93419   4.437   9.629  10.885  3.8216  2.5824  1.8519
  692MOL0     H93420   4.345   9.588  10.648 -1.9125 -1.7350  2.4448
  693MOL0     O93421   5.664   9.290   5.071  0.3223 -0.1498 -0.0765
  693MOL0     C93422   5.603   9.322   5.172  0.9247  0.7535 -0.7556
  693MOL0     O93423   5.627   9.282   5.302  0.3096  0.5495  0.5433
  693MOL0     C93424   5.740   9.197   5.322 -0.4845 -0.5684  0.3787
  693MOL0     C93425   5.740   9.088   5.416 -0.3630  0.0100 -0.0591
  693MOL0     C93426   5.861   9.010   5.431  0.2966 -0.3394  0.4391
  693MOL0     C93427   5.979   9.039   5.356  0.2666  0.2874 -0.6222
  693MOL0     O93428   6.094   8.965   5.366 -0.7122  0.0839  0.7831
  693MOL0     C93429   6.109   8.850   5.440 -0.6313 -0.2350 -1.3586
  693MOL0     C93430   6.134   8.883   5.590  0.0964  0.3130  0.0481
  693MOL0     C93431   6.163   8.768   5.690  0.5519  0.0292  0.0283
  693MOL0     C93432   6.037   8.674   5.695  0.1977 -1.3550 -0.5499
  693MOL0     C93433   6.071   8.566   5.796  0.1348  0.2635 -0.3675
  693MOL0     C93434   5.931   8.506   5.846 -0.3339  0.5895  0.6990
  693MOL0     C93435   5.953   8.413   5.970  0.1514 -0.2290  0.1546
  693MOL0     C93436   5.819   8.376   6.034 -0.3296 -0.3883 -0.7298
  693MOL0     N93437   5.850   8.277   6.135 -0.0647 -0.2956  0.5893
  693MOL0     C93438   5.818   8.287   6.262 -0.0998 -0.1857 -0.5918
  693MOL0     C93439   5.853   8.170   6.323  0.4639  0.9662  0.8166
  693MOL0     C93440   5.839   8.114   6.458 -0.3560 -0.3011 -0.0901
  693MOL0     C93441   5.725   8.189   6.538  0.3113 -0.7969  0.5380
  693MOL0     C93442   5.705   8.135   6.669 -0.2979  0.8400  0.1176
  693MOL0     C93443   5.833   8.131   6.752 -0.5443 -1.1731 -0.0944
  693MOL0     O93444   5.906   8.013   6.740 -0.3482 -0.7350 -0.2822
  693MOL0     C93445   5.901   7.916   6.839 -0.9913 -0.5752  0.7515
  693MOL0     C93446   5.789   7.866   6.895  0.2319 -0.5905 -1.2479
  693MOL0     C93447   5.801   7.780   7.004 -0.4674 -1.2316  0.0849
  693MOL0     C93448   5.667   7.721   7.043 -0.2844  0.5109  0.5407
  693MOL0     C93449   5.921   7.762   7.075 -0.1140  0.8081  0.4708
  693MOL0     C93450   5.946   7.665   7.189  0.1378  0.4282 -1.6964
  693MOL0     O93451   5.842   7.594   7.228  0.1453  0.6283  0.3566
  693MOL0     C93452   5.861   7.499   7.332 -0.6646 -0.8145 -0.7825
  693MOL0     C93453   5.892   7.359   7.322  0.3981 -0.4207 -0.3127
  693MOL0     C93454   5.868   7.279   7.433 -0.1747  0.7534  0.1377
  693MOL0     C93455   5.849   7.326   7.563  0.0224  0.8549  0.3310
  693MOL0     O93456   5.834   7.229   7.673  0.1859  0.4732  0.1522
  693MOL0     C93457   5.846   7.273   7.807  0.4588  0.8221 -0.1941
  693MOL0     C93458   5.848   7.152   7.899  0.6584 -0.0198  1.5240
  693MOL0     C93459   5.962   7.054   7.860  0.8459 -0.3355  0.1899
  693MOL0     C93460   5.942   6.922   7.924 -0.1283  0.2765 -0.0385
  693MOL0     C93461   6.075   6.845   7.914  0.3780 -0.0112 -0.3253
  693MOL0     C93462   6.164   6.893   8.027  0.2196  0.0478  0.4465
  693MOL0     C93463   6.316   6.864   7.998  0.3941  0.3525 -1.0860
  693MOL0     C93464   6.358   6.717   7.999  0.6990 -0.6275 -0.3229
  693MOL0    Cl93465   6.302   6.643   8.152  0.3486 -0.0360 -0.0665
  693MOL0     C93466   5.848   7.469   7.578  0.0115  1.2751  0.1939
  693MOL0     C93467   5.844   7.552   7.466  0.0278  0.4247  0.4348
  693MOL0     O93468   6.062   7.646   7.216 -0.0265  0.1649  0.1423
  693MOL0     C93469   6.034   7.809   7.010 -0.3272  1.1109  0.3894
  693MOL0     C93470   6.024   7.877   6.890 -0.2385 -0.8872  0.2100
  693MOL0     N93471   5.901   8.089   6.225 -0.7337 -0.3899  0.7212
  693MOL0     N93472   5.882   8.149   6.108 -0.0431  0.1811  0.0394
  693MOL0     C93473   5.974   9.146   5.277  0.2646 -0.1076 -0.1926
  693MOL0     C93474   5.864   9.232   5.258 -0.2630  0.7560 -0.8781
  693MOL0     C93475   5.472   9.393   5.142  0.1680  1.0830 -0.0809
  693MOL0     C93476   5.368   9.399   5.238  0.0985  0.8941  1.0723
  693MOL0     C93477   5.256   9.484   5.223  0.6945  0.1840  0.2695
  693MOL0     C93478   5.243   9.562   5.106  0.5150 -0.5263  0.3926
  693MOL0     O93479   5.133   9.635   5.092  0.6688 -1.1057 -0.9465
  693MOL0     C93480   5.044   9.608   4.972 -0.2314  0.7296  0.1647
  693MOL0     C93481   4.904   9.560   5.017 -0.3174  0.4958  0.3113
  693MOL0     C93482   4.831   9.508   4.899  0.1152 -0.0675  0.6313
  693MOL0     C93483   4.680   9.488   4.937 -0.2131 -0.2495  0.3266
  693MOL0     C93484   4.614   9.423   4.820 -1.1263  0.4246  0.3273
  693MOL0     C93485   4.548   9.378   4.725  1.1198  0.0532 -0.2112
  693MOL0     C93486   5.342   9.546   5.008  0.5798 -0.6280 -0.4042
  693MOL0     C93487   5.458   9.472   5.027 -0.6884  0.2579  0.9895
  693MOL0     H93488   5.655   9.064   5.479 -0.2128  0.5933  0.3808
  693MOL0     H93489   5.847   8.924   5.495 -0.4120  0.7880  1.8654
  693MOL0     H93490   6.019   8.791   5.421 -0.7563 -0.4102 -0.2883
  693MOL0     H93491   6.189   8.792   5.394 -2.3063 -1.4850 -2.8045
  693MOL0     H93492   6.225   8.943   5.590  0.0272  0.4150 -0.0026
  693MOL0     H93493   6.046   8.928   5.636  0.1064 -1.8672  2.4590
  693MOL0     H93494   6.251   8.705   5.676  0.9523  0.3103  1.1811
  693MOL0     H93495   6.187   8.826   5.779  3.0463  1.6289 -1.5818
  693MOL0     H93496   5.950   8.728   5.733  1.6534  0.3778  0.4725
  693MOL0     H93497   6.011   8.635   5.597  4.9041  1.4754 -3.2980
  693MOL0     H93498   6.128   8.480   5.758 -0.5423 -2.0829  3.4488
  693MOL0     H93499   6.123   8.614   5.879  3.9895  0.8786 -2.8945
  693MOL0     H93500   5.869   8.594   5.859 -1.6192 -0.0970 -0.4384
  693MOL0     H93501   5.879   8.440   5.774  0.2098  0.5259  0.3577
  693MOL0     H93502   6.013   8.328   5.938  0.3605 -0.5361  1.2988
  693MOL0     H93503   6.006   8.470   6.047  0.0469  2.0913 -1.4034
  693MOL0     H93504   5.746   8.342   5.960 -0.1555 -3.4087  0.3345
  693MOL0     H93505   5.773   8.458   6.090 -2.7903 -2.9658  1.3332
  693MOL0     H93506   5.759   8.365   6.309  0.9689  1.1798 -1.4277
  693MOL0     H93507   5.806   8.010   6.461  0.3327 -0.5262  2.7491
  693MOL0     H93508   5.936   8.123   6.508 -0.3046 -2.7597  0.3918
  693MOL0     H93509   5.628   8.192   6.488 -0.5128  2.4660  2.0834
  693MOL0     H93510   5.757   8.293   6.544 -1.3535  0.0101 -2.5024
  693MOL0     H93511   5.674   8.031   6.658  0.9129  0.4517  0.1672
  693MOL0     H93512   5.625   8.194   6.713 -0.6829 -0.7080  1.6221
  693MOL0     H93513   5.813   8.150   6.858  0.0374  0.2529 -0.2231
  693MOL0     H93514   5.889   8.222   6.728 -1.0277 -0.4006  1.5530
  693MOL0     H93515   5.691   7.884   6.852  0.0599  2.4058  0.1502
  693MOL0     H93516   5.644   7.690   7.146 -1.4794  1.8542  0.7098
  693MOL0     H93517   5.579   7.771   7.001 -0.4371  0.0627  0.3173
  693MOL0     H93518   5.669   7.626   6.988  0.5571 -0.0170  1.4416
  693MOL0     H93519   5.915   7.312   7.227  3.1162  1.1252 -0.5258
  693MOL0     H93520   5.887   7.174   7.416  0.2683  0.8375  0.0828
  693MOL0     H93521   5.942   7.325   7.816 -0.2338  2.1361 -0.2618
  693MOL0     H93522   5.760   7.330   7.842  2.4079  3.2275  0.9671
  693MOL0     H93523   5.856   7.189   8.002 -2.9776 -0.3019  2.0490
  693MOL0     H93524   5.752   7.099   7.901  0.8755 -0.4828  0.4303
  693MOL0     H93525   6.061   7.100   7.867  0.5578  0.4082 -0.4173
  693MOL0     H93526   5.939   7.042   7.753  1.0361  0.9988 -0.0108
  693MOL0     H93527   5.918   6.927   8.031  0.1726 -0.5064  0.0702
  693MOL0     H93528   5.869   6.856   7.876  0.1697  0.4410 -0.7312
  693MOL0     H93529   6.116   6.884   7.821 -2.8764  2.7569 -0.7934
  693MOL0     H93530   6.063   6.737   7.916 -4.2676  0.2860 -1.4986
  693MOL0     H93531   6.155   7.000   8.045  2.0270  0.4673 -0.8275
  693MOL0     H93532   6.132   6.831   8.111  0.3397  0.0029  0.4601
  693MOL0     H93533   6.374   6.920   8.072  0.8860  0.6006 -1.6537
  693MOL0     H93534   6.339   6.905   7.900 -3.8216  0.4071 -2.2552
  693MOL0     H93535   6.464   6.695   7.985  0.2939 -3.0523 -0.1136
  693MOL0     H93536   6.309   6.662   7.918 -3.6695  2.4240 -0.1198
  693MOL0     H93537   5.822   7.518   7.672  1.1795  2.7004 -0.1866
  693MOL0     H93538   5.817   7.658   7.469 -2.5699 -0.1056 -0.8333
  693MOL0     H93539   6.131   7.783   7.050  1.0111  1.1227 -2.6063
  693MOL0     H93540   6.112   7.918   6.842  0.5203 -1.4097  1.0959
  693MOL0     H93541   6.073   9.175   5.243 -0.8782  1.2282 -2.6033
  693MOL0     H93542   5.867   9.328   5.208 -2.7235  1.9348  0.9839
  693MOL0     H93543   5.389   9.341   5.327  1.1069  0.1373  0.3709
  693MOL0     H93544   5.170   9.489   5.290  0.3069  1.3628 -0.2835
  693MOL0     H93545   5.040   9.706   4.924 -0.1292  2.6917  3.7927
  693MOL0     H93546   5.089   9.534   4.905 -5.2511  0.3735 -3.3546
  693MOL0     H93547   4.858   9.655   5.047 -1.3908  0.3300 -0.7599
  693MOL0     H93548   4.902   9.487   5.099  2.4518  0.1965  0.2053
  693MOL0     H93549   4.866   9.409   4.868 -1.8782 -1.9489  3.7381
  693MOL0     H93550   4.859   9.578   4.820 -3.9945  0.0597 -0.9764
  693MOL0     H93551   4.629   9.582   4.961 -0.1655  0.2273 -1.3247
  693MOL0     H93552   4.672   9.417   5.020 -5.8363  0.1002  0.4586
  693MOL0     H93553   4.506   9.349   4.631 -0.6165  2.3583 -0.2429
  693MOL0     H93554   5.318   9.593   4.913 -1.2708  0.1997  0.4148
  693MOL0     H93555   5.530   9.470   4.945 -2.3058  1.2605 -0.5179
  694MOL0     O93556   2.116   5.162   1.352  0.0506  0.4217 -0.0479
  694MOL0     C93557   2.106   5.260   1.271 -0.2263 -0.2243  0.6085
  694MOL0     O93558   2.033   5.374   1.304  0.0861  0.8925  0.2544
  694MOL0     C93559   1.986   5.397   1.428  0.1085 -0.4050  0.1899
  694MOL0     C93560   1.845   5.385   1.442  0.0128 -0.2642  0.5197
  694MOL0     C93561   1.793   5.417   1.565  0.2491  0.3736 -0.9641
  694MOL0     C93562   1.879   5.454   1.677 -0.0287 -0.2823  0.2788
  694MOL0     O93563   1.821   5.484   1.791 -0.4385 -0.8864  0.2831
  694MOL0     C93564   1.781   5.379   1.876  0.4568 -0.3302 -0.0466
  694MOL0     C93565   1.891   5.330   1.965 -0.0436  0.2124  0.1241
  694MOL0     C93566   1.847   5.268   2.103  0.3893 -0.2086 -0.1698
  694MOL0     C93567   1.959   5.238   2.206  0.2411  0.2491 -0.5753
  694MOL0     C93568   1.896   5.166   2.327  0.1370 -1.0132  0.7794
  694MOL0     C93569   1.998   5.106   2.418  0.4391  0.1459  0.3202
  694MOL0     C93570   1.926   5.011   2.513  0.8010  0.6237 -0.1331
  694MOL0     C93571   1.868   5.096   2.634  0.3234  0.0793  0.7930
  694MOL0     N93572   1.819   5.002   2.735  0.2323 -0.1291 -0.0447
  694MOL0     C93573   1.908   4.950   2.823  0.9661 -0.4077 -0.0860
  694MOL0     C93574   1.840   4.840   2.872 -1.1080  1.6517 -0.5931
  694MOL0     C93575   1.903   4.743   2.974  0.4578 -0.4651  0.4011
  694MOL0     C93576   2.047   4.771   3.019  0.3904  1.0784 -0.7108
  694MOL0     C93577   2.103   4.671   3.126 -0.0980  0.3768  0.5079
  694MOL0     C93578   2.251   4.650   3.088  0.2815 -0.3136 -0.2424
  694MOL0     O93579   2.311   4.771   3.138 -0.6759 -1.3502  0.4132
  694MOL0     C93580   2.349   4.774   3.273  0.6729 -0.2945 -0.4204
  694MOL0     C93581   2.415   4.663   3.331  0.0831 -1.2518 -0.1762
  694MOL0     C93582   2.445   4.665   3.465  0.7147  0.2817 -0.4475
  694MOL0     C93583   2.509   4.538   3.519 -0.7884  0.0257 -0.1480
  694MOL0     C93584   2.412   4.778   3.541  0.3494  0.5427 -0.3760
  694MOL0     C93585   2.447   4.807   3.684 -0.2480 -0.2850 -1.1559
  694MOL0     O93586   2.390   4.913   3.744  0.0194  0.0137  0.5559
  694MOL0     C93587   2.410   4.961   3.864 -0.8204 -0.9044 -0.8563
  694MOL0     C93588   2.311   5.050   3.911  0.7039 -0.0980 -0.0235
  694MOL0     C93589   2.318   5.123   4.020  0.1098 -0.2382  0.4361
  694MOL0     C93590   2.427   5.102   4.109 -0.1566  0.0403 -0.3473
  694MOL0     O93591   2.421   5.164   4.230 -0.5440 -0.3025 -0.2660
  694MOL0     C93592   2.528   5.146   4.329 -0.5195  0.1598  0.2103
  694MOL0     C93593   2.512   5.217   4.462  0.1238 -0.1083  0.0111
  694MOL0     C93594   2.536   5.372   4.462  1.0025  0.0949  1.0041
  694MOL0     C93595   2.516   5.428   4.604  0.5327  0.3599 -0.7191
  694MOL0     C93596   2.532   5.573   4.606  0.1092  0.7460 -0.2706
  694MOL0     C93597   2.511   5.618   4.747 -0.2690  0.4535 -0.6745
  694MOL0     C93598   2.533   5.771   4.770 -0.1233  0.2686 -0.0554
  694MOL0     C93599   2.555   5.808   4.912  0.1477 -0.3815 -0.1499
  694MOL0    Cl93600   2.708   5.744   4.989  0.9648  0.2200  0.3512
  694MOL0     C93601   2.527   5.005   4.076  0.6047  1.1478 -1.0211
  694MOL0     C93602   2.507   4.935   3.955 -0.8395  0.0261 -0.4245
  694MOL0     O93603   2.540   4.743   3.726 -0.1805 -0.2679  0.0475
  694MOL0     C93604   2.348   4.885   3.477  0.8726  0.1389 -0.0522
  694MOL0     C93605   2.314   4.884   3.349  0.0892  0.9470  0.1771
  694MOL0     N93606   1.719   4.827   2.809 -0.2728 -0.6004 -0.9845
  694MOL0     N93607   1.709   4.925   2.728 -0.8381 -0.1204  0.3615
  694MOL0     C93608   2.015   5.464   1.652 -0.7045  0.5296 -0.0320
  694MOL0     C93609   2.071   5.425   1.530 -0.1694 -0.3090  0.4326
  694MOL0     C93610   2.167   5.270   1.138  0.0770  0.2713  0.0266
  694MOL0     C93611   2.221   5.155   1.073  0.0622 -0.0540  0.6094
  694MOL0     C93612   2.279   5.158   0.944  0.6507 -0.0207 -0.0984
  694MOL0     C93613   2.297   5.288   0.888  1.1167  0.1602  0.3073
  694MOL0     O93614   2.392   5.301   0.787 -0.4332  0.2749  0.6407
  694MOL0     C93615   2.370   5.234   0.660 -0.2848  0.8960 -0.2066
  694MOL0     C93616   2.503   5.182   0.617  0.9680  0.2799  0.9875
  694MOL0     C93617   2.563   5.090   0.721  0.2309 -0.7975  0.1119
  694MOL0     C93618   2.688   5.013   0.668  0.3911  0.0734 -0.7333
  694MOL0     C93619   2.744   4.929   0.773 -0.1746 -1.1196  0.6563
  694MOL0     C93620   2.781   4.861   0.870 -0.1972  0.0246  0.2048
  694MOL0     C93621   2.239   5.395   0.947  0.0265 -0.8179  0.1615
  694MOL0     C93622   2.166   5.387   1.069 -0.2455 -0.8892  0.2474
  694MOL0     H93623   1.779   5.365   1.358 -2.0137  3.6960  0.9355
  694MOL0     H93624   1.688   5.430   1.587  0.5960 -0.1457  1.1978
  694MOL0     H93625   1.699   5.421   1.933  2.2968  0.1248  2.4232
  694MOL0     H93626   1.731   5.294   1.828 -1.6611 -1.3161  3.5441
  694MOL0     H93627   1.966   5.260   1.927  1.0311 -0.8435  3.8214
  694MOL0     H93628   1.933   5.420   2.009 -0.9497  0.9597 -0.4906
  694MOL0     H93629   1.760   5.315   2.152  0.6034 -2.6102  2.7967
  694MOL0     H93630   1.806   5.170   2.075  0.3310 -0.2121 -0.0717
  694MOL0     H93631   2.032   5.172   2.158  0.0628 -0.1112 -0.3638
  694MOL0     H93632   2.007   5.333   2.229 -1.0173  0.6029  0.6924
  694MOL0     H93633   1.830   5.231   2.385 -1.2027 -2.2393  0.6596
  694MOL0     H93634   1.842   5.080   2.287  0.2016 -1.3696  1.4507
  694MOL0     H93635   2.069   5.044   2.363 -0.8759  1.2276 -2.8609
  694MOL0     H93636   2.042   5.193   2.468  0.9130 -1.0808  2.1314
  694MOL0     H93637   1.841   4.961   2.464  0.6426  1.3047 -0.5755
  694MOL0     H93638   1.997   4.933   2.543  1.2172 -0.4528 -3.4888
  694MOL0     H93639   1.778   5.151   2.607  0.7751  0.2424 -0.4536
  694MOL0     H93640   1.940   5.171   2.668 -0.6798  1.1038  0.7117
  694MOL0     H93641   2.011   4.981   2.836  0.5937 -0.2911  3.6212
  694MOL0     H93642   1.829   4.755   3.054 -1.6348  0.4962 -1.5678
  694MOL0     H93643   1.898   4.645   2.927 -0.4936 -0.3728  0.2936
  694MOL0     H93644   2.041   4.871   3.065 -0.6350  0.7853 -0.1716
  694MOL0     H93645   2.105   4.795   2.930  0.9500  3.8904  0.2817
  694MOL0     H93646   2.054   4.573   3.125  1.6144 -0.5220  0.8102
  694MOL0     H93647   2.099   4.719   3.224 -0.7530  1.8732 -0.2239
  694MOL0     H93648   2.256   4.650   2.979 -0.5025  0.5802 -0.2909
  694MOL0     H93649   2.291   4.554   3.123  0.4457 -1.4114 -3.1374
  694MOL0     H93650   2.439   4.582   3.263 -3.2303  0.4033 -3.6946
  694MOL0     H93651   2.618   4.547   3.526 -0.8031 -0.3211  0.5457
  694MOL0     H93652   2.478   4.499   3.616 -1.3709  1.1878  0.1473
  694MOL0     H93653   2.498   4.453   3.451 -2.4268 -0.7716  1.0625
  694MOL0     H93654   2.228   5.057   3.842 -1.4715 -1.3344  2.3239
  694MOL0     H93655   2.241   5.199   4.030 -0.6456 -0.8821 -0.2929
  694MOL0     H93656   2.525   5.038   4.348 -1.3865  0.0572 -0.4312
  694MOL0     H93657   2.627   5.179   4.296  0.1811 -0.8779  1.1897
  694MOL0     H93658   2.412   5.207   4.504  0.9302  0.5274  2.2285
  694MOL0     H93659   2.586   5.178   4.533  2.3355 -1.6163 -2.8652
  694MOL0     H93660   2.471   5.421   4.388  3.2591  0.6796 -0.7039
  694MOL0     H93661   2.637   5.394   4.424  0.6972  1.8885  1.1306
  694MOL0     H93662   2.422   5.396   4.649  1.6093  2.1247  3.1413
  694MOL0     H93663   2.593   5.381   4.666 -1.8765 -1.8068  0.8184
  694MOL0     H93664   2.453   5.620   4.546  1.0855  0.7060 -1.6347
  694MOL0     H93665   2.629   5.602   4.566  0.1728 -0.3386 -0.9328
  694MOL0     H93666   2.416   5.581   4.788  0.1333  2.7801  2.8977
  694MOL0     H93667   2.583   5.569   4.813  0.6267 -1.5871 -3.0216
  694MOL0     H93668   2.443   5.820   4.731 -2.1402 -0.4052  3.3794
  694MOL0     H93669   2.624   5.805   4.719 -1.6702  3.3967 -0.9782
  694MOL0     H93670   2.470   5.795   4.979  1.3592  0.9206  1.7570
  694MOL0     H93671   2.561   5.917   4.909 -2.6584 -0.1929 -2.1431
  694MOL0     H93672   2.590   4.963   4.155 -0.9872 -0.9777 -0.7883
  694MOL0     H93673   2.590   4.869   3.931 -0.5352 -0.3453  1.4669
  694MOL0     H93674   2.327   4.978   3.530 -1.0772 -0.4775  0.3593
  694MOL0     H93675   2.270   4.959   3.284  2.1232 -0.6491 -3.3270
  694MOL0     H93676   2.066   5.499   1.741  2.2641 -3.5067  0.1304
  694MOL0     H93677   2.179   5.421   1.521 -0.1094 -4.3796  1.1594
  694MOL0     H93678   2.219   5.058   1.122 -4.0837 -0.3339  0.2756
  694MOL0     H93679   2.327   5.079   0.887  0.9395  1.5692 -2.1802
  694MOL0     H93680   2.293   5.157   0.668 -0.2332  0.8838  0.2490
  694MOL0     H93681   2.333   5.311   0.593 -3.4929  0.1933  0.6169
  694MOL0     H93682   2.571   5.265   0.597  1.3195 -0.2243 -0.0045
  694MOL0     H93683   2.493   5.137   0.517  2.0494  0.2127  0.8990
  694MOL0     H93684   2.487   5.014   0.741  0.8162 -1.2065  0.8323
  694MOL0     H93685   2.586   5.149   0.810  1.7920  1.2414 -1.5364
  694MOL0     H93686   2.769   5.077   0.632  0.0573  0.1979 -1.2624
  694MOL0     H93687   2.647   4.955   0.585  1.0018 -0.4308 -0.6892
  694MOL0     H93688   2.812   4.797   0.950 -1.0703 -1.1058 -0.3237
  694MOL0     H93689   2.259   5.497   0.915 -2.6398  0.1686  1.3681
  694MOL0     H93690   2.149   5.487   1.108  0.3399 -0.9831  0.7735
  695MOL0     O93691   2.587   7.600   0.633  0.2373  0.9226 -0.0679
  695MOL0     C93692   2.669   7.540   0.703 -0.1241  0.3509  0.1265
  695MOL0     O93693   2.691   7.404   0.702  0.0459  0.4037  0.4442
  695MOL0     C93694   2.622   7.319   0.621 -0.0752  0.2692  0.0617
  695MOL0     C93695   2.592   7.190   0.662 -0.4687 -0.2483  0.3932
  695MOL0     C93696   2.530   7.094   0.590 -1.0025  0.0542 -0.9136
  695MOL0     C93697   2.492   7.120   0.464  0.1524 -0.7085 -0.4207
  695MOL0     O93698   2.439   7.013   0.396  0.4859  0.1417 -0.9046
  695MOL0     C93699   2.323   7.039   0.317  0.0783 -0.2224  0.1039
  695MOL0     C93700   2.337   7.034   0.167 -0.4253 -0.1777 -0.6648
  695MOL0     C93701   2.382   6.901   0.117  0.9413 -0.0601 -0.5566
  695MOL0     C93702   2.325   6.862  -0.021  0.5333  0.3051 -0.2467
  695MOL0     C93703   2.384   6.717  -0.056  0.9753 -0.6450 -0.3401
  695MOL0     C93704   2.500   6.724  -0.166 -0.6185  0.4670 -0.4924
  695MOL0     C93705   2.555   6.580  -0.191 -0.9886 -0.0561 -0.7446
  695MOL0     C93706   2.656   6.575  -0.309  1.2671 -0.5000 -0.9847
  695MOL0     N93707   2.773   6.663  -0.285  0.2637  0.4841 -0.4552
  695MOL0     C93708   2.854   6.650  -0.174  0.5398 -0.1390  0.1294
  695MOL0     C93709   2.953   6.742  -0.201  0.3327  0.7736  0.3641
  695MOL0     C93710   3.084   6.762  -0.126  0.8096 -0.6518  0.3255
  695MOL0     C93711   3.110   6.676  -0.001 -0.0190 -0.4731  0.1239
  695MOL0     C93712   3.248   6.672   0.034 -0.0384 -0.1403  0.2480
  695MOL0     C93713   3.318   6.801   0.093 -0.2018 -0.6244  0.5629
  695MOL0     O93714   3.374   6.775   0.221 -0.7247 -0.2259 -0.8615
  695MOL0     C93715   3.416   6.885   0.304  0.0880  0.1518  0.2615
  695MOL0     C93716   3.427   7.023   0.270 -0.3809 -1.3123 -0.6540
  695MOL0     C93717   3.468   7.119   0.364 -0.0036 -0.7750  0.2198
  695MOL0     C93718   3.468   7.265   0.329  0.3015  0.1667 -0.6298
  695MOL0     C93719   3.496   7.084   0.495 -0.2581 -0.7298 -0.0860
  695MOL0     C93720   3.540   7.189   0.597 -0.3720 -1.0150  0.6007
  695MOL0     O93721   3.664   7.181   0.662  0.3422 -0.3020 -0.2492
  695MOL0     C93722   3.707   7.299   0.716  0.2674  0.5198 -0.1838
  695MOL0     C93723   3.750   7.400   0.633 -0.5686  0.7995  0.2671
  695MOL0     C93724   3.801   7.519   0.691  0.0279  0.3159  0.6763
  695MOL0     C93725   3.799   7.550   0.822  0.4666 -1.6368 -0.4388
  695MOL0     O93726   3.824   7.671   0.885  0.5686  0.2056  0.1362
  695MOL0     C93727   3.868   7.785   0.811  0.0065  0.6290 -0.1023
  695MOL0     C93728   3.816   7.906   0.883 -0.2814 -0.1296  0.7028
  695MOL0     C93729   3.896   8.032   0.829  0.3485 -0.3100  0.4899
  695MOL0     C93730   3.852   8.159   0.906  0.0849 -0.1955  0.3585
  695MOL0     C93731   3.940   8.285   0.874  0.7862  0.2150 -0.5096
  695MOL0     C93732   3.880   8.416   0.921 -0.7948 -0.2804 -0.2286
  695MOL0     C93733   3.914   8.452   1.071  0.2762 -0.6958 -0.1023
  695MOL0     C93734   3.892   8.604   1.069 -0.2461  0.3651 -1.0360
  695MOL0    Cl93735   3.739   8.664   1.000 -0.6252  0.0574 -0.3972
  695MOL0     C93736   3.772   7.445   0.905  0.2570  0.6634 -0.7007
  695MOL0     C93737   3.723   7.320   0.857 -0.2464 -0.5012  0.1134
  695MOL0     O93738   3.455   7.266   0.637  0.5871  0.7045  0.1492
  695MOL0     C93739   3.494   6.948   0.527  1.1288  0.1879 -0.2769
  695MOL0     C93740   3.465   6.844   0.428 -0.1564  0.1881  0.0764
  695MOL0     N93741   2.919   6.815  -0.309 -0.2761 -0.6522  0.4428
  695MOL0     N93742   2.808   6.774  -0.365  0.1278  1.1161  0.2276
  695MOL0     C93743   2.521   7.251   0.406 -0.5561  0.2785 -0.6346
  695MOL0     C93744   2.586   7.342   0.484  0.0534 -0.1700 -0.8803
  695MOL0     C93745   2.751   7.617   0.801 -0.2061 -0.0231 -0.1211
  695MOL0     C93746   2.783   7.753   0.768 -0.2836  0.5068  0.2583
  695MOL0     C93747   2.855   7.834   0.851  0.0999 -0.7712 -0.6696
  695MOL0     C93748   2.912   7.786   0.963  0.2742  1.2345  1.3799
  695MOL0     O93749   2.998   7.861   1.039  0.1121 -0.2683  0.1767
  695MOL0     C93750   2.988   7.832   1.182 -0.3042 -0.2043 -0.0431
  695MOL0     C93751   2.841   7.842   1.245  0.1826  0.5613 -0.9218
  695MOL0     C93752   2.798   7.715   1.333 -0.4738 -0.4080  0.8229
  695MOL0     C93753   2.686   7.777   1.419 -0.0554  0.2354  0.2429
  695MOL0     C93754   2.603   7.668   1.476 -0.7807 -1.0693  0.4291
  695MOL0     C93755   2.529   7.588   1.530 -0.4852 -0.1440  0.3909
  695MOL0     C93756   2.897   7.645   0.988 -0.0511  0.8000 -1.0023
  695MOL0     C93757   2.819   7.565   0.909  1.8164  0.4105 -0.0653
  695MOL0     H93758   2.611   7.159   0.764 -0.8736 -0.7806  0.3053
  695MOL0     H93759   2.505   6.996   0.630  1.0242 -0.5389 -0.9682
  695MOL0     H93760   2.251   6.963   0.349  0.2380 -0.0425  0.9158
  695MOL0     H93761   2.276   7.135   0.341 -2.3870 -0.3547 -3.3825
  695MOL0     H93762   2.248   7.069   0.114 -0.0808  0.5450 -0.7926
  695MOL0     H93763   2.417   7.107   0.149  1.8262 -1.3752  3.2960
  695MOL0     H93764   2.492   6.899   0.118  0.9892 -0.9986 -2.7550
  695MOL0     H93765   2.355   6.828   0.193  3.1853 -0.7401 -0.3373
  695MOL0     H93766   2.217   6.857  -0.007  0.4689 -0.2758 -0.9016
  695MOL0     H93767   2.335   6.940  -0.097 -0.4343 -0.5159 -1.2565
  695MOL0     H93768   2.417   6.665   0.034 -1.5087  4.3960  3.9871
  695MOL0     H93769   2.315   6.651  -0.111  1.7133  0.1009 -2.2531
  695MOL0     H93770   2.464   6.778  -0.254  1.1625  1.9092 -0.3739
  695MOL0     H93771   2.590   6.766  -0.122 -0.7768 -1.4805  1.9029
  695MOL0     H93772   2.605   6.533  -0.106  1.4052  1.2783 -1.3101
  695MOL0     H93773   2.469   6.521  -0.223 -4.5746  3.4622  1.4421
  695MOL0     H93774   2.612   6.600  -0.406 -2.1182  0.4054  0.6390
  695MOL0     H93775   2.688   6.470  -0.307  0.1759 -0.8389  0.2948
  695MOL0     H93776   2.845   6.569  -0.103 -2.1546 -1.6214 -1.7322
  695MOL0     H93777   3.157   6.743  -0.205  2.0244  1.2053  0.9158
  695MOL0     H93778   3.094   6.865  -0.088 -3.8250 -0.7280  2.3957
  695MOL0     H93779   3.066   6.576  -0.014 -0.9663 -0.2505  1.4427
  695MOL0     H93780   3.046   6.715   0.079  0.8996 -0.0256  0.6574
  695MOL0     H93781   3.311   6.625  -0.042  0.4324  1.6515 -0.5381
  695MOL0     H93782   3.249   6.601   0.117 -1.1753 -1.2438 -0.6523
  695MOL0     H93783   3.244   6.881   0.103 -2.1119 -1.7729 -2.6663
  695MOL0     H93784   3.393   6.843   0.025 -3.4467  0.4185 -2.6883
  695MOL0     H93785   3.397   7.064   0.175 -2.1268 -2.6046 -0.7111
  695MOL0     H93786   3.402   7.328   0.389  0.1891  1.4700 -2.0565
  695MOL0     H93787   3.569   7.299   0.351  0.0781 -0.1820  1.0022
  695MOL0     H93788   3.429   7.279   0.227  0.3325  0.1478 -0.6440
  695MOL0     H93789   3.770   7.377   0.529  0.6107 -1.3682  0.9135
  695MOL0     H93790   3.831   7.594   0.619  0.6808  1.4650  2.0933
  695MOL0     H93791   3.978   7.782   0.812  0.0032 -1.5590 -0.0248
  695MOL0     H93792   3.831   7.791   0.708 -1.4331 -4.1804 -0.1339
  695MOL0     H93793   3.708   7.916   0.871 -0.4563 -1.6553  0.7970
  695MOL0     H93794   3.838   7.880   0.988  1.0709 -3.1067 -0.1927
  695MOL0     H93795   3.885   8.056   0.723 -3.6281 -1.2044  0.5535
  695MOL0     H93796   4.004   8.016   0.838  0.8481 -0.1460 -3.4684
  695MOL0     H93797   3.750   8.176   0.870 -0.6618  1.8802  3.0402
  695MOL0     H93798   3.855   8.145   1.015 -1.5284  0.1579  0.4776
  695MOL0     H93799   3.942   8.294   0.765  3.5400  1.2640 -0.4490
  695MOL0     H93800   4.045   8.274   0.905  0.9165  4.5949  1.3042
  695MOL0     H93801   3.924   8.493   0.856  3.2505  0.1841  2.6719
  695MOL0     H93802   3.773   8.426   0.902 -0.4074 -0.3606 -2.8351
  695MOL0     H93803   4.018   8.425   1.092  0.3645 -3.6447 -3.4094
  695MOL0     H93804   3.847   8.406   1.146  1.7881 -1.7668  0.6414
  695MOL0     H93805   3.973   8.644   1.008  2.3673 -1.3883  1.0303
  695MOL0     H93806   3.906   8.642   1.171 -0.4685  0.4742 -1.0457
  695MOL0     H93807   3.801   7.446   1.010  2.5647 -1.4749 -1.2113
  695MOL0     H93808   3.690   7.249   0.931 -0.5447 -3.7959 -2.9213
  695MOL0     H93809   3.501   6.914   0.630  0.6700 -2.7994 -1.1567
  695MOL0     H93810   3.457   6.742   0.464 -0.5584  0.3929  0.5685
  695MOL0     H93811   2.496   7.281   0.305  2.1786  1.8211 -0.9465
  695MOL0     H93812   2.627   7.433   0.441 -0.0334  1.1348  1.5800
  695MOL0     H93813   2.743   7.793   0.675 -0.6997 -3.6625 -1.5639
  695MOL0     H93814   2.865   7.937   0.818  0.6199 -0.5326  0.2189
  695MOL0     H93815   3.028   7.732   1.200 -3.6230 -1.5709  0.4977
  695MOL0     H93816   3.052   7.899   1.239 -1.6530  1.8624 -0.8372
  695MOL0     H93817   2.761   7.852   1.171 -0.7070  0.6129  0.0322
  695MOL0     H93818   2.830   7.931   1.307  2.4673 -0.8466  1.7753
  695MOL0     H93819   2.886   7.678   1.387  0.7793  1.6359  0.2597
  695MOL0     H93820   2.755   7.639   1.267  1.1550 -0.5037 -0.1703
  695MOL0     H93821   2.619   7.837   1.357  1.4440  1.4280 -0.2700
  695MOL0     H93822   2.724   7.833   1.505 -0.9143  0.7631  0.2976
  695MOL0     H93823   2.475   7.516   1.589 -0.2339  2.3629  4.0515
  695MOL0     H93824   2.952   7.595   1.068 -2.5304 -1.5610 -0.6432
  695MOL0     H93825   2.815   7.460   0.935  1.6176  0.8829  2.0361
  696MOL0     O93826   8.655   1.546  11.041  0.4427  0.6575 -0.2385
  696MOL0     C93827   8.644   1.509  10.926 -0.1051  0.8104  0.3788
  696MOL0     O93828   8.688   1.576  10.813  1.1551  0.2956  0.4005
  696MOL0     C93829   8.781   1.677  10.823 -0.3719  0.8711 -0.5785
  696MOL0     C93830   8.779   1.784  10.914  0.7612 -0.3975  0.5281
  696MOL0     C93831   8.887   1.869  10.918  0.0865 -0.3479  0.6568
  696MOL0     C93832   8.997   1.864  10.835 -0.3211  0.5237  0.7941
  696MOL0     O93833   9.099   1.954  10.831  0.7139 -0.5117  0.4124
  696MOL0     C93834   9.214   1.915  10.907 -0.2865  0.1721  0.2242
  696MOL0     C93835   9.325   2.022  10.892  0.2262 -0.4771 -0.4266
  696MOL0     C93836   9.465   1.984  10.948  0.2346  0.5975  0.6267
  696MOL0     C93837   9.476   2.001  11.104  0.8843 -0.1140 -0.7474
  696MOL0     C93838   9.610   1.963  11.161 -0.0928 -0.2768  0.2687
  696MOL0     C93839   9.712   2.082  11.181 -0.2304 -0.3035  0.2850
  696MOL0     C93840   9.731   2.143  11.040  0.6565  0.2120 -0.1409
  696MOL0     C93841   9.827   2.262  11.040  1.2339 -0.6604  0.1901
  696MOL0     N93842   9.945   2.204  10.972  0.5751 -0.6778  0.3069
  696MOL0     C93843  10.046   2.142  11.034  0.4760 -0.5471  0.2558
  696MOL0     C93844  10.154   2.159  10.970 -0.0133  0.2697 -0.3607
  696MOL0     C93845  10.283   2.152  11.031 -1.2371 -0.3062 -0.4505
  696MOL0     C93846  10.369   2.037  10.974 -0.2237  1.0686 -0.1995
  696MOL0     C93847  10.492   2.075  10.903  0.0256  0.3407  1.1748
  696MOL0     C93848  10.544   1.972  10.801 -0.0103  0.4657 -0.1772
  696MOL0     O93849  10.646   2.019  10.709  0.5234 -0.1985  0.7340
  696MOL0     C93850  10.601   2.080  10.594  0.6148 -0.0228 -0.1619
  696MOL0     C93851  10.699   2.060  10.493 -0.1493  1.4944  0.3511
  696MOL0     C93852  10.672   2.121  10.376  0.4594 -0.1814  0.4759
  696MOL0     C93853  10.770   2.090  10.261  0.6256  0.0007  1.0129
  696MOL0     C93854  10.550   2.196  10.349 -0.5499 -0.0443 -0.6582
  696MOL0     C93855  10.526   2.273  10.227  0.1442 -0.1414  0.6933
  696MOL0     O93856  10.483   2.401  10.236 -0.9629  0.0841 -0.4104
  696MOL0     C93857  10.457   2.463  10.119  0.1143  0.0538  0.1017
  696MOL0     C93858  10.541   2.552  10.068 -0.0843  0.0309  0.0892
  696MOL0     C93859  10.521   2.612   9.944 -0.2864 -0.6464 -0.3489
  696MOL0     C93860  10.413   2.573   9.867  0.1187  0.7793  0.1639
  696MOL0     O93861  10.400   2.600   9.736  0.4939  0.3610  0.4187
  696MOL0     C93862  10.413   2.740   9.685 -0.3440 -0.6439 -0.3407
  696MOL0     C93863  10.275   2.806   9.697  0.4968 -0.2411 -0.1738
  696MOL0     C93864  10.265   2.954   9.688 -0.1490 -0.4079  0.7064
  696MOL0     C93865  10.312   3.025   9.814 -0.2237  0.8371 -0.4388
  696MOL0     C93866  10.298   3.178   9.805  0.0557  0.5875  0.1364
  696MOL0     C93867  10.318   3.243   9.941  0.5087  0.3713  0.6612
  696MOL0     C93868  10.309   3.395   9.937  0.0094  0.1789  0.2341
  696MOL0     C93869  10.318   3.450  10.078  0.2873  0.9101  0.1607
  696MOL0    Cl93870  10.311   3.632  10.090 -0.0943  0.2194  0.6403
  696MOL0     C93871  10.322   2.483   9.917  1.0872 -0.4105 -0.2230
  696MOL0     C93872  10.346   2.429  10.045  0.3729 -0.7868  0.0757
  696MOL0     O93873  10.546   2.216  10.117 -0.1545  0.0253 -0.3108
  696MOL0     C93874  10.453   2.209  10.445  0.1988 -0.1573 -1.4016
  696MOL0     C93875  10.481   2.144  10.571  0.1803 -0.3062  0.6020
  696MOL0     N93876  10.124   2.215  10.852  0.3989  0.0913  0.5788
  696MOL0     N93877   9.995   2.229  10.843  0.9342  1.0091 -0.6944
  696MOL0     C93878   8.996   1.768  10.733 -0.3314  0.3268 -0.0755
  696MOL0     C93879   8.895   1.666  10.736 -0.1105  0.3574  0.2976
  696MOL0     C93880   8.565   1.389  10.895 -0.1077  0.3089 -0.3077
  696MOL0     C93881   8.464   1.337  10.980  0.2021 -0.1942 -0.0184
  696MOL0     C93882   8.374   1.241  10.940 -0.2781 -0.2076 -0.4339
  696MOL0     C93883   8.419   1.155  10.836  0.2037  0.2533 -0.0276
  696MOL0     O93884   8.344   1.044  10.801 -0.5686  0.4322  0.0307
  696MOL0     C93885   8.396   0.939  10.724  0.4358  0.1192  0.2491
  696MOL0     C93886   8.323   0.803  10.743  0.0324  0.0553 -0.9608
  696MOL0     C93887   8.208   0.798  10.645  1.0420  0.6121 -0.1832
  696MOL0     C93888   8.131   0.669  10.645  0.5797 -0.4435  0.6427
  696MOL0     C93889   8.209   0.558  10.603 -0.2605 -0.1791 -0.2612
  696MOL0     C93890   8.278   0.466  10.567  0.1059 -0.6259  0.3869
  696MOL0     C93891   8.535   1.191  10.761 -0.7185  1.1361 -0.0128
  696MOL0     C93892   8.603   1.307  10.782  0.0549 -0.4707  0.5271
  696MOL0     H93893   8.691   1.806  10.974  2.0355  1.8563  1.7008
  696MOL0     H93894   8.890   1.947  10.994 -0.3144  0.0461  0.2775
  696MOL0     H93895   9.199   1.908  11.015  0.6544  0.6215  0.3975
  696MOL0     H93896   9.263   1.824  10.869 -0.3463  0.9213 -1.7782
  696MOL0     H93897   9.330   2.039  10.784 -2.3126 -0.6644 -0.6495
  696MOL0     H93898   9.297   2.115  10.941  2.2748 -1.0893  2.1290
  696MOL0     H93899   9.479   1.877  10.928  3.4333  0.4481  2.8246
  696MOL0     H93900   9.537   2.035  10.884  2.5754  3.1036  4.7683
  696MOL0     H93901   9.463   2.107  11.123 -2.4003 -0.4372 -0.5967
  696MOL0     H93902   9.392   1.948  11.149  1.6631 -1.3169 -0.6309
  696MOL0     H93903   9.592   1.915  11.258  1.7982  0.3917  1.0043
  696MOL0     H93904   9.648   1.883  11.095 -0.2595 -1.0473  1.0860
  696MOL0     H93905   9.672   2.161  11.245  1.7461  1.8515 -0.9933
  696MOL0     H93906   9.804   2.047  11.229 -1.3354  0.0657  2.8750
  696MOL0     H93907   9.755   2.062  10.970  1.6461 -1.6054  2.1478
  696MOL0     H93908   9.632   2.182  11.016  0.6785  0.4205  0.1101
  696MOL0     H93909   9.840   2.312  11.136 -0.2325  2.4449 -1.1176
  696MOL0     H93910   9.781   2.339  10.978  0.0581 -1.0414  0.5684
  696MOL0     H93911  10.041   2.097  11.133 -1.0993  0.2916  0.6025
  696MOL0     H93912  10.325   2.252  11.017  1.3059 -1.2522 -0.1474
  696MOL0     H93913  10.264   2.140  11.138  0.5508  1.8176  0.1732
  696MOL0     H93914  10.299   1.974  10.918 -1.1096  1.8564  0.0003
  696MOL0     H93915  10.395   1.979  11.063  3.3645  1.4283 -0.8963
  696MOL0     H93916  10.574   2.086  10.975  0.8914 -1.8413  0.5951
  696MOL0     H93917  10.483   2.179  10.869  0.3829  1.1690  3.4064
  696MOL0     H93918  10.466   1.918  10.745 -0.8432  3.1214 -1.8049
  696MOL0     H93919  10.590   1.894  10.861 -4.3051 -1.3842  1.1128
  696MOL0     H93920  10.788   2.011  10.532 -1.7682  0.1409  2.6506
  696MOL0     H93921  10.815   2.185  10.231  0.0997  0.0221  0.2509
  696MOL0     H93922  10.855   2.023  10.277  3.4612  3.2195  0.7193
  696MOL0     H93923  10.713   2.048  10.178  1.7934 -2.5388  1.3814
  696MOL0     H93924  10.626   2.578  10.131 -0.0428 -0.0064  0.0489
  696MOL0     H93925  10.602   2.673   9.908  0.6964 -1.2358  0.7735
  696MOL0     H93926  10.493   2.789   9.741 -2.3597  0.5916  1.6498
  696MOL0     H93927  10.437   2.733   9.579 -1.1327  0.7022 -0.6384
  696MOL0     H93928  10.222   2.764   9.611 -0.0440  0.7046 -0.3177
  696MOL0     H93929  10.212   2.773   9.781 -0.9463 -1.9716 -1.8206
  696MOL0     H93930  10.164   2.988   9.663 -0.2213 -1.5527 -0.7090
  696MOL0     H93931  10.336   2.985   9.611 -0.9326 -0.8167 -0.2045
  696MOL0     H93932  10.238   2.996   9.889  0.3294  2.0053  0.5939
  696MOL0     H93933  10.406   2.979   9.846 -1.0449 -4.9414 -4.6219
  696MOL0     H93934  10.205   3.209   9.757 -0.9001 -1.3782  0.6304
  696MOL0     H93935  10.373   3.219   9.735 -0.0047  1.8922  0.8115
  696MOL0     H93936  10.243   3.204  10.011 -0.7652  2.5616  0.6158
  696MOL0     H93937  10.417   3.215   9.979 -0.3885 -3.4233  0.5564
  696MOL0     H93938  10.214   3.421   9.890  0.3564  0.2016 -0.4615
  696MOL0     H93939  10.396   3.430   9.882  2.7075 -0.5754  3.6351
  696MOL0     H93940  10.414   3.415  10.116 -0.0322 -0.2450 -0.0301
  696MOL0     H93941  10.241   3.417  10.149 -0.4389  1.7769 -0.2139
  696MOL0     H93942  10.234   2.448   9.863  2.1184 -3.5244 -0.0495
  696MOL0     H93943  10.278   2.354  10.082 -2.1201 -0.5425 -3.5309
  696MOL0     H93944  10.369   2.276  10.433  1.2894  1.5450 -0.0876
  696MOL0     H93945  10.398   2.157  10.640  0.9464  1.5013  1.2228
  696MOL0     H93946   9.073   1.770  10.656  1.9819 -2.6978  1.9177
  696MOL0     H93947   8.900   1.588  10.660  0.0265 -0.2866  0.9497
  696MOL0     H93948   8.424   1.398  11.061 -0.2073 -1.4983  0.7827
  696MOL0     H93949   8.288   1.222  11.004 -0.0321  0.7473  0.2042
  696MOL0     H93950   8.370   0.977  10.624  1.1158 -2.3525 -0.9279
  696MOL0     H93951   8.504   0.928  10.728  0.9200  1.7849 -3.5092
  696MOL0     H93952   8.292   0.795  10.847  1.0306 -2.3926 -0.7787
  696MOL0     H93953   8.388   0.720  10.712 -1.1671  0.0450 -3.7991
  696MOL0     H93954   8.239   0.817  10.542  0.7062 -1.0349 -0.6223
  696MOL0     H93955   8.140   0.883  10.657  0.2017  0.0320 -0.7300
  696MOL0     H93956   8.048   0.684  10.576  1.1682  0.2169  0.0653
  696MOL0     H93957   8.089   0.647  10.744 -1.5068  0.9969  0.1411
  696MOL0     H93958   8.349   0.389  10.541  2.6325  2.0310 -1.2313
  696MOL0     H93959   8.572   1.130  10.679  3.5350  3.0326  0.2079
  696MOL0     H93960   8.690   1.337  10.725  0.6639  0.0026  1.6771
  697MOL0     O93961   2.613   0.732  10.838  0.1232  0.1655  0.1022
  697MOL0     C93962   2.668   0.819  10.772 -0.4313 -0.3153 -0.3300
  697MOL0     O93963   2.704   0.942  10.821 -0.2517 -0.2141 -0.6176
  697MOL0     C93964   2.695   0.970  10.956  0.6953  1.3084 -0.5887
  697MOL0     C93965   2.578   0.940  11.033 -0.0645  0.8491 -0.0530
  697MOL0     C93966   2.577   0.948  11.175 -1.0444  0.1256  0.4119
  697MOL0     C93967   2.694   0.991  11.239  1.0645  0.2638  0.5241
  697MOL0     O93968   2.715   1.003  11.373  0.2373  1.0683  0.6214
  697MOL0     C93969   2.623   0.943  11.462  0.2282 -0.3744 -0.2576
  697MOL0     C93970   2.686   0.941  11.598  0.2207  0.0436 -0.5860
  697MOL0     C93971   2.825   0.865  11.610 -0.1754  0.0023 -0.3024
  697MOL0     C93972   2.935   0.949  11.689 -0.1021 -0.2635  0.5814
  697MOL0     C93973   3.023   1.009  11.581  0.3769 -0.3518  0.0926
  697MOL0     C93974   3.119   0.916  11.524 -0.2362  0.0501 -0.0592
  697MOL0     C93975   3.233   0.980  11.454 -0.8793  0.2709 -0.2688
  697MOL0     C93976   3.344   0.881  11.411  0.2722  0.1628 -0.1087
  697MOL0     N93977   3.467   0.949  11.355  0.1915  0.3218 -0.0479
  697MOL0     C93978   3.460   1.036  11.250  0.1096 -0.8541  0.6052
  697MOL0     C93979   3.589   1.048  11.205 -0.3952 -0.2348  0.2223
  697MOL0     C93980   3.622   1.116  11.069 -0.6575  0.9196  1.0084
  697MOL0     C93981   3.650   1.267  11.084  1.3193  0.2865 -0.5638
  697MOL0     C93982   3.779   1.295  11.158 -0.0741  0.3804 -0.1234
  697MOL0     C93983   3.810   1.439  11.158 -0.5884 -0.3226  0.3128
  697MOL0     O93984   3.833   1.494  11.025 -0.3073  0.8238 -1.3238
  697MOL0     C93985   3.903   1.617  11.036 -0.6438  0.2528 -0.3531
  697MOL0     C93986   3.864   1.735  11.101  0.3143 -0.5689  0.0909
  697MOL0     C93987   3.948   1.843  11.105  0.6779 -0.5355  0.4876
  697MOL0     C93988   3.904   1.960  11.185  0.0763 -0.2799 -0.1156
  697MOL0     C93989   4.070   1.848  11.038 -0.2555 -0.5349  0.7169
  697MOL0     C93990   4.180   1.962  11.027  0.6589 -0.2309 -0.4776
  697MOL0     O93991   4.285   1.956  10.937 -0.0323  1.2282 -0.3145
  697MOL0     C93992   4.388   2.055  10.924 -0.1459 -0.1220  0.0805
  697MOL0     C93993   4.438   2.121  11.039  0.2916 -0.3998  0.0098
  697MOL0     C93994   4.514   2.235  11.025  0.9103  0.5693  0.7396
  697MOL0     C93995   4.556   2.280  10.893  0.3857  0.1927 -0.0079
  697MOL0     O93996   4.620   2.392  10.860  0.0132 -0.0344 -0.5445
  697MOL0     C93997   4.753   2.379  10.915  0.5469 -0.0304 -0.4592
  697MOL0     C93998   4.818   2.511  10.898  0.4926 -0.0485  0.5147
  697MOL0     C93999   4.971   2.500  10.912  0.0110  0.0184 -0.1326
  697MOL0     C94000   5.034   2.637  10.963 -0.7521  0.7576  0.5079
  697MOL0     C94001   5.188   2.637  10.964  0.2546 -0.6881 -1.2954
  697MOL0     C94002   5.244   2.770  11.024  0.1458  0.8675 -0.4151
  697MOL0     C94003   5.401   2.749  11.020  0.3956  0.1464 -0.0699
  697MOL0     C94004   5.475   2.817  11.141  0.5374 -0.0943  1.4487
  697MOL0    Cl94005   5.470   2.717  11.286  0.1043  0.1712 -0.3132
  697MOL0     C94006   4.522   2.202  10.790  0.1263 -0.4812  0.9141
  697MOL0     C94007   4.443   2.087  10.800  0.1221  0.2124  0.7927
  697MOL0     O94008   4.172   2.055  11.109 -0.0283  0.5638  0.0018
  697MOL0     C94009   4.097   1.738  10.959 -0.2173  1.2738  0.1568
  697MOL0     C94010   4.008   1.634  10.951 -0.3393  1.5380 -0.5886
  697MOL0     N94011   3.678   0.987  11.294  0.9810  0.6661  0.1346
  697MOL0     N94012   3.602   0.925  11.383  0.8477 -0.4728  0.1337
  697MOL0     C94013   2.801   1.017  11.165 -0.8108  0.5405  1.2515
  697MOL0     C94014   2.812   0.993  11.027  0.1714  0.1538 -0.0051
  697MOL0     C94015   2.707   0.799  10.627 -0.3155  0.3291 -0.1061
  697MOL0     C94016   2.782   0.898  10.559  0.5759  1.3135  0.5209
  697MOL0     C94017   2.841   0.854  10.441  0.2780 -0.2132  0.4148
  697MOL0     C94018   2.823   0.727  10.380 -0.4371 -0.1602  0.2531
  697MOL0     O94019   2.878   0.706  10.256 -0.1049 -0.1351  0.5253
  697MOL0     C94020   2.803   0.644  10.156  0.6950 -0.4440 -0.3993
  697MOL0     C94021   2.887   0.648  10.026 -0.8140  0.0376  0.2248
  697MOL0     C94022   2.940   0.781   9.984  0.3087 -0.5335 -0.0968
  697MOL0     C94023   2.841   0.873   9.923  0.8463 -0.9723 -0.5411
  697MOL0     C94024   2.772   0.809   9.808 -0.3122 -0.2741  0.1338
  697MOL0     C94025   2.760   0.770   9.692 -0.1886  0.4835 -0.3762
  697MOL0     C94026   2.743   0.641  10.451 -0.5181  0.8541  0.3509
  697MOL0     C94027   2.682   0.674  10.566  0.3164  0.1203 -0.1183
  697MOL0     H94028   2.494   0.901  10.976  0.1259  3.0022 -1.9669
  697MOL0     H94029   2.493   0.913  11.234  0.3966  0.7071  2.9625
  697MOL0     H94030   2.527   0.995  11.462  0.6144  0.3850  1.1630
  697MOL0     H94031   2.607   0.836  11.441 -2.6079 -0.3979  1.4368
  697MOL0     H94032   2.681   1.043  11.637 -1.1920 -0.3819  0.4206
  697MOL0     H94033   2.614   0.890  11.662  1.9377 -0.4289  1.0628
  697MOL0     H94034   2.797   0.785  11.679 -2.5294  1.6116  0.7389
  697MOL0     H94035   2.862   0.813  11.521  1.9981  0.6820  0.1318
  697MOL0     H94036   2.882   1.022  11.751 -1.9906 -1.0720  0.0062
  697MOL0     H94037   2.989   0.868  11.740  1.8004 -0.8955 -2.2040
  697MOL0     H94038   2.949   1.042  11.507 -0.2310 -1.8009  0.0104
  697MOL0     H94039   3.074   1.095  11.623  0.6057  0.1014 -1.0591
  697MOL0     H94040   3.158   0.867  11.614  0.5512  1.0182  0.1465
  697MOL0     H94041   3.072   0.840  11.461 -0.2933 -0.1704  0.2427
  697MOL0     H94042   3.193   1.014  11.359 -0.0272  3.1775  0.3201
  697MOL0     H94043   3.280   1.061  11.511 -1.0119 -0.4473  0.9070
  697MOL0     H94044   3.299   0.811  11.341 -2.6051  1.3098  0.4848
  697MOL0     H94045   3.370   0.820  11.499 -1.1728 -1.3979 -0.7303
  697MOL0     H94046   3.373   1.071  11.196 -0.4436 -2.6941  0.2237
  697MOL0     H94047   3.711   1.062  11.034 -0.1632  1.3301  1.6112
  697MOL0     H94048   3.537   1.098  11.003 -1.1050 -1.2680  2.0871
  697MOL0     H94049   3.564   1.310  11.134  0.6142 -1.4421 -0.2005
  697MOL0     H94050   3.666   1.305  10.983  0.4153 -0.0217 -0.8334
  697MOL0     H94051   3.862   1.243  11.109 -1.2964 -1.2563 -0.5585
  697MOL0     H94052   3.783   1.259  11.261 -0.5854 -1.1946 -0.6236
  697MOL0     H94053   3.897   1.467  11.218 -0.5239  1.7915 -0.6544
  697MOL0     H94054   3.728   1.494  11.206 -0.4529  1.2059 -1.1215
  697MOL0     H94055   3.778   1.729  11.167  0.6518 -3.5094  0.4033
  697MOL0     H94056   3.815   1.933  11.242  1.3586 -1.5715  1.3745
  697MOL0     H94057   3.984   1.964  11.260 -0.0216 -2.3269  0.1551
  697MOL0     H94058   3.899   2.060  11.142  4.5594  0.8424  1.4192
  697MOL0     H94059   4.401   2.093  11.137  0.7900 -0.7514  0.0969
  697MOL0     H94060   4.533   2.290  11.116 -4.1182 -0.3951  2.6684
  697MOL0     H94061   4.751   2.354  11.022 -2.8307  0.9958 -0.1530
  697MOL0     H94062   4.818   2.306  10.866  2.7200  1.5048 -0.0212
  697MOL0     H94063   4.801   2.572  10.809 -0.5058  0.4061  0.9967
  697MOL0     H94064   4.789   2.568  10.987  1.0821  1.3341 -0.1415
  697MOL0     H94065   5.022   2.483  10.817  0.7559 -3.0228  0.6781
  697MOL0     H94066   5.001   2.415  10.975 -1.9158 -0.0688  0.7641
  697MOL0     H94067   4.993   2.718  10.902  1.0352  0.8344 -0.6586
  697MOL0     H94068   4.997   2.651  11.064 -3.0631  0.8500 -0.2920
  697MOL0     H94069   5.227   2.623  10.863 -0.7394  1.1586 -1.9663
  697MOL0     H94070   5.222   2.550  11.022 -0.1972 -1.8197 -2.6597
  697MOL0     H94071   5.202   2.855  10.969 -0.2789  1.1705  0.3657
  697MOL0     H94072   5.204   2.769  11.126  3.0638  2.3158  0.8266
  697MOL0     H94073   5.430   2.803  10.929  2.1526 -0.4033  0.1311
  697MOL0     H94074   5.434   2.646  11.008  0.4481  0.2421 -0.7736
  697MOL0     H94075   5.420   2.907  11.169  1.7249  1.2873 -0.4278
  697MOL0     H94076   5.576   2.845  11.108 -0.4427  1.1931 -0.6643
  697MOL0     H94077   4.545   2.244  10.693 -1.6475  0.1732  0.7382
  697MOL0     H94078   4.411   2.027  10.715 -0.0652 -0.8376  1.5900
  697MOL0     H94079   4.186   1.748  10.898 -2.1877 -1.8526 -3.7362
  697MOL0     H94080   4.020   1.554  10.879 -3.0884  2.0736 -1.7423
  697MOL0     H94081   2.901   1.044  11.197  1.5828 -2.4075 -2.7040
  697MOL0     H94082   2.902   1.016  10.971 -0.2458 -0.6840 -1.0437
  697MOL0     H94083   2.806   0.991  10.609 -2.7632  1.0593  2.9679
  697MOL0     H94084   2.899   0.929  10.388  0.0324  1.2001  2.0569
  697MOL0     H94085   2.775   0.543  10.189 -2.7388  0.9464  1.4141
  697MOL0     H94086   2.704   0.690  10.146 -0.0695 -1.3929  2.0513
  697MOL0     H94087   2.825   0.604   9.949  2.0206 -0.1919 -2.1029
  697MOL0     H94088   2.968   0.577  10.045 -1.8347 -0.6606  2.3349
  697MOL0     H94089   3.025   0.771   9.916 -1.0476 -2.2773 -1.6641
  697MOL0     H94090   2.996   0.827  10.065  0.5741  0.2298 -0.7004
  697MOL0     H94091   2.883   0.970   9.893 -1.5083  1.0505  2.1645
  697MOL0     H94092   2.760   0.901   9.991  1.6844 -3.3946  1.6246
  697MOL0     H94093   2.758   0.737   9.590  0.7584  0.7622 -0.4916
  697MOL0     H94094   2.729   0.543  10.406  1.4462 -1.1064  3.5852
  697MOL0     H94095   2.619   0.598  10.612 -1.2433  1.2637 -0.2765
  698MOL0     O94096  10.509   6.625   8.803 -0.4480  0.5003 -0.0929
  698MOL0     C94097  10.489   6.536   8.717 -0.1852  0.9120 -0.5348
  698MOL0     O94098  10.376   6.527   8.634 -0.5802 -0.0405 -0.0018
  698MOL0     C94099  10.274   6.609   8.668 -0.4917 -0.2318  0.4416
  698MOL0     C94100  10.286   6.750   8.681 -0.1242 -0.5873 -0.5680
  698MOL0     C94101  10.170   6.838   8.709 -0.6228 -0.0874  0.0174
  698MOL0     C94102  10.041   6.780   8.707 -0.3016 -0.8023  0.7133
  698MOL0     O94103   9.916   6.843   8.697 -0.1807  1.3615 -0.4373
  698MOL0     C94104   9.898   6.978   8.734 -0.5807 -0.3142  0.7348
  698MOL0     C94105   9.748   7.003   8.708  0.0990  0.0102  0.3012
  698MOL0     C94106   9.707   7.142   8.751  0.4722  0.0551  0.6903
  698MOL0     C94107   9.732   7.185   8.900  0.1616  0.5281  0.1017
  698MOL0     C94108   9.631   7.289   8.932 -0.0942  0.0241 -0.6415
  698MOL0     C94109   9.633   7.425   8.852 -0.6177  0.7577  0.7228
  698MOL0     C94110   9.555   7.539   8.916  0.1041 -0.2506  0.0150
  698MOL0     C94111   9.600   7.593   9.054 -0.2135 -0.0543  0.2347
  698MOL0     N94112   9.536   7.709   9.124 -0.8519 -0.3908 -0.6485
  698MOL0     C94113   9.553   7.722   9.262 -0.7015 -0.2322 -0.0910
  698MOL0     C94114   9.516   7.849   9.281 -0.4832 -1.1331  0.1838
  698MOL0     C94115   9.526   7.919   9.418  0.1550  0.1393  0.1858
  698MOL0     C94116   9.467   8.068   9.393  0.4281  0.8815  0.4897
  698MOL0     C94117   9.312   8.075   9.352  0.0402 -0.2653  1.5971
  698MOL0     C94118   9.267   8.215   9.360 -0.1200 -0.0794  0.7417
  698MOL0     O94119   9.365   8.283   9.268  0.3650 -0.3191  0.2520
  698MOL0     C94120   9.318   8.361   9.169 -0.8978  1.2626 -0.0786
  698MOL0     C94121   9.238   8.472   9.195 -0.8312  0.6032 -0.8826
  698MOL0     C94122   9.208   8.564   9.089 -0.9063 -0.3612 -0.2214
  698MOL0     C94123   9.117   8.676   9.102 -0.8197 -0.0191  0.3924
  698MOL0     C94124   9.271   8.544   8.956 -0.3549 -1.1422  0.4204
  698MOL0     C94125   9.248   8.626   8.822  0.3098  0.5117 -0.4725
  698MOL0     O94126   9.322   8.592   8.708  0.1838 -0.7007 -0.5172
  698MOL0     C94127   9.283   8.630   8.587 -0.0249  0.7852 -0.2670
  698MOL0     C94128   9.357   8.726   8.523  0.4323  0.6498  0.2263
  698MOL0     C94129   9.308   8.788   8.407 -0.1258  0.3874 -0.4592
  698MOL0     C94130   9.191   8.743   8.342  0.9271 -0.0372  0.3043
  698MOL0     O94131   9.157   8.794   8.223 -0.5217 -0.1057 -0.2220
  698MOL0     C94132   9.063   8.728   8.145 -0.0612  0.2915 -0.1044
  698MOL0     C94133   9.085   8.790   8.015 -0.2295 -0.3794  1.3118
  698MOL0     C94134   8.968   8.750   7.921 -0.4845  0.1152 -0.6623
  698MOL0     C94135   8.977   8.609   7.860 -0.0292  0.4707 -0.0467
  698MOL0     C94136   8.909   8.601   7.722  0.5505  0.5074 -0.3124
  698MOL0     C94137   8.934   8.477   7.634 -0.1294 -0.1245 -0.3210
  698MOL0     C94138   8.898   8.344   7.699  0.4691  0.2546 -0.6503
  698MOL0     C94139   8.941   8.233   7.606  0.8402  1.0363 -0.0027
  698MOL0    Cl94140   8.807   8.226   7.487  0.0095 -0.1440 -0.6965
  698MOL0     C94141   9.109   8.634   8.413 -0.0007 -0.0253  0.5169
  698MOL0     C94142   9.167   8.577   8.520 -0.9132 -0.3986 -0.5153
  698MOL0     O94143   9.150   8.711   8.816 -0.7105 -0.2335 -0.5551
  698MOL0     C94144   9.348   8.430   8.935  0.3405  0.1023 -1.4527
  698MOL0     C94145   9.378   8.338   9.044 -0.0336  0.6338  0.7438
  698MOL0     N94146   9.485   7.912   9.160 -0.2110  0.1846 -0.2466
  698MOL0     N94147   9.492   7.824   9.070  0.4638  0.3879 -0.9627
  698MOL0     C94148  10.039   6.644   8.700  0.0342 -0.9438  0.0704
  698MOL0     C94149  10.147   6.562   8.683 -0.0738  0.4089  0.5599
  698MOL0     C94150  10.594   6.431   8.694 -0.3164  0.5972  0.3326
  698MOL0     C94151  10.723   6.462   8.684  0.2078 -1.1999 -0.1065
  698MOL0     C94152  10.822   6.384   8.617 -0.4768 -0.0904 -0.3647
  698MOL0     C94153  10.786   6.262   8.582  0.8943 -0.5398 -0.0284
  698MOL0     O94154  10.868   6.185   8.512  0.1702  0.0702 -0.9889
  698MOL0     C94155  10.937   6.226   8.393 -0.1205 -1.1693 -0.4703
  698MOL0     C94156  10.986   6.099   8.317 -0.2733  0.2919 -1.3934
  698MOL0     C94157  11.054   6.150   8.187  0.6351  0.4691 -0.0768
  698MOL0     C94158  11.113   6.030   8.126  0.8053 -0.7523  0.3764
  698MOL0     C94159  11.258   6.056   8.102  0.8783 -0.0815 -0.2076
  698MOL0     C94160  11.379   6.064   8.117 -0.3976  0.2678  0.3410
  698MOL0     C94161  10.655   6.218   8.590 -0.8021  0.8943 -0.0816
  698MOL0     C94162  10.559   6.306   8.643  0.2418 -0.2603 -0.0752
  698MOL0     H94163  10.383   6.800   8.680  0.0785 -0.7756 -4.4946
  698MOL0     H94164  10.190   6.945   8.708  0.3626 -0.2587  0.7712
  698MOL0     H94165   9.918   6.988   8.841 -0.1952 -1.7632  0.8237
  698MOL0     H94166   9.968   7.033   8.671 -0.2913 -0.8217  0.6103
  698MOL0     H94167   9.736   6.999   8.599  2.4029 -0.2090  0.0027
  698MOL0     H94168   9.692   6.926   8.762  2.1656 -1.9462 -0.2227
  698MOL0     H94169   9.764   7.214   8.693  1.0427 -1.3651 -0.5708
  698MOL0     H94170   9.600   7.154   8.729  0.7253  1.7340  0.2819
  698MOL0     H94171   9.704   7.094   8.953  0.2147  1.3211  1.5529
  698MOL0     H94172   9.836   7.202   8.930  0.0498 -2.8916  3.1799
  698MOL0     H94173   9.528   7.256   8.938 -0.4343  0.5233 -2.9342
  698MOL0     H94174   9.648   7.318   9.036 -0.5488  0.3416 -0.6534
  698MOL0     H94175   9.736   7.459   8.844 -0.1515 -0.9376 -1.5255
  698MOL0     H94176   9.603   7.387   8.754  1.4944  3.1032 -0.9513
  698MOL0     H94177   9.556   7.623   8.846  0.9023  0.9989  1.4786
  698MOL0     H94178   9.450   7.512   8.932  1.3034 -3.5923  4.1094
  698MOL0     H94179   9.709   7.608   9.053 -0.0237 -1.2841  0.3523
  698MOL0     H94180   9.596   7.503   9.116 -1.3628 -0.4579 -0.4123
  698MOL0     H94181   9.586   7.647   9.334 -0.7853  1.3748  1.7065
  698MOL0     H94182   9.472   7.855   9.489 -1.6321 -2.1404 -2.9286
  698MOL0     H94183   9.632   7.930   9.441  0.1220  0.6852  0.0844
  698MOL0     H94184   9.522   8.108   9.307  1.5245  0.0742  0.7849
  698MOL0     H94185   9.486   8.118   9.489 -2.5675 -0.2976  1.8022
  698MOL0     H94186   9.259   8.007   9.419  0.0525 -3.6982 -1.5602
  698MOL0     H94187   9.298   8.041   9.249  0.4372  1.3914  0.9589
  698MOL0     H94188   9.275   8.243   9.465  2.2507 -1.9585  1.1546
  698MOL0     H94189   9.166   8.233   9.320  0.6950  2.4215 -0.3843
  698MOL0     H94190   9.183   8.488   9.287  0.1048 -1.9037  0.2047
  698MOL0     H94191   9.029   8.659   9.038  1.1014 -3.3514 -1.6868
  698MOL0     H94192   9.084   8.690   9.205 -2.4683  2.5705 -0.3865
  698MOL0     H94193   9.170   8.768   9.076  2.0117 -1.1629  1.7631
  698MOL0     H94194   9.447   8.762   8.571  1.7484 -2.0205 -0.0564
  698MOL0     H94195   9.364   8.875   8.374  1.5762  0.0892  1.4407
  698MOL0     H94196   9.084   8.621   8.150 -0.8316  0.1843  1.4451
  698MOL0     H94197   8.956   8.744   8.162 -0.1919  2.1094 -2.2004
  698MOL0     H94198   9.095   8.899   8.017 -1.9740  0.0063 -2.0677
  698MOL0     H94199   9.183   8.764   7.973 -1.2565 -0.5921 -1.1878
  698MOL0     H94200   8.956   8.814   7.833 -1.2652 -1.4666 -1.7741
  698MOL0     H94201   8.870   8.765   7.967 -0.3681  0.9403 -0.6787
  698MOL0     H94202   9.085   8.595   7.858  0.2249  2.2036  0.2146
  698MOL0     H94203   8.921   8.552   7.936  1.6934 -0.1555  0.7976
  698MOL0     H94204   8.938   8.690   7.664 -0.4529  1.7785  1.0613
  698MOL0     H94205   8.800   8.609   7.731  0.3670 -0.3747 -1.5646
  698MOL0     H94206   8.876   8.484   7.541 -0.6138 -1.5521 -0.1431
  698MOL0     H94207   9.037   8.478   7.595  0.7540 -2.5089  1.6789
  698MOL0     H94208   8.792   8.337   7.724  0.8128 -1.0667  0.4915
  698MOL0     H94209   8.942   8.337   7.799 -1.9446 -1.7150  0.3772
  698MOL0     H94210   8.956   8.146   7.670  0.2381  3.5001  3.7773
  698MOL0     H94211   9.039   8.255   7.561 -0.7035  0.1054 -4.3663
  698MOL0     H94212   9.041   8.577   8.349 -0.0546  0.1707  0.3976
  698MOL0     H94213   9.110   8.491   8.555 -1.6831  0.3132  0.0016
  698MOL0     H94214   9.373   8.419   8.830  0.7843 -0.3246 -1.3046
  698MOL0     H94215   9.425   8.241   9.038 -0.4632  0.4025  1.0573
  698MOL0     H94216   9.941   6.599   8.705  0.3264 -1.8431 -1.7525
  698MOL0     H94217  10.134   6.455   8.672  3.1191  0.0836 -2.1028
  698MOL0     H94218  10.744   6.559   8.728  2.0943 -1.3548 -0.5628
  698MOL0     H94219  10.928   6.405   8.624 -0.7278  0.6703  3.2828
  698MOL0     H94220  10.875   6.294   8.335  2.1982  0.5442 -1.1039
  698MOL0     H94221  11.024   6.287   8.420  0.3812  0.0596 -4.3156
  698MOL0     H94222  10.903   6.028   8.303 -0.8354  0.3733  1.0816
  698MOL0     H94223  11.067   6.050   8.370 -0.6464 -1.7914 -2.6421
  698MOL0     H94224  11.137   6.218   8.210  0.1220  2.2668 -2.9788
  698MOL0     H94225  10.979   6.196   8.121  1.3164  0.4702 -0.8700
  698MOL0     H94226  11.050   6.022   8.037  0.5372 -2.1168  0.6738
  698MOL0     H94227  11.104   5.937   8.182 -0.3655 -1.1865 -0.4966
  698MOL0     H94228  11.486   6.056   8.126  0.1043  1.7846 -2.8465
  698MOL0     H94229  10.628   6.117   8.558 -1.0385  1.0324 -0.3214
  698MOL0     H94230  10.453   6.288   8.651 -0.0012  0.9006 -0.4693
  699MOL0     O94231   5.308   4.686   6.785  1.2322 -0.0747 -0.1699
  699MOL0     C94232   5.383   4.770   6.837  0.1279 -0.4845  0.3140
  699MOL0     O94233   5.442   4.872   6.770  0.1966  0.0657  0.2165
  699MOL0     C94234   5.414   4.906   6.642  0.1017  0.5127  0.2532
  699MOL0     C94235   5.511   4.988   6.590 -0.3966 -0.4334  0.0748
  699MOL0     C94236   5.504   5.040   6.463 -0.1279  0.6086  0.4171
  699MOL0     C94237   5.395   5.000   6.383 -0.1947 -1.0130  0.0582
  699MOL0     O94238   5.376   5.033   6.251  0.0692  0.1188  0.6353
  699MOL0     C94239   5.484   5.099   6.186 -1.1103 -0.8159  1.2393
  699MOL0     C94240   5.469   5.114   6.036 -0.5673 -0.2543 -0.5691
  699MOL0     C94241   5.604   5.130   5.974 -1.0225  0.2800  0.6563
  699MOL0     C94242   5.588   5.134   5.815  0.2035 -0.2788 -1.1009
  699MOL0     C94243   5.723   5.154   5.754 -0.2516  0.4051 -0.8455
  699MOL0     C94244   5.718   5.164   5.604 -0.5841 -0.4371  0.0888
  699MOL0     C94245   5.698   5.030   5.539  0.4336  0.2980 -0.2483
  699MOL0     C94246   5.720   5.036   5.392 -0.6885  0.3157  0.4703
  699MOL0     N94247   5.627   5.127   5.323 -0.1068 -0.9152 -0.2855
  699MOL0     C94248   5.659   5.237   5.252 -0.8708  0.7999 -0.4143
  699MOL0     C94249   5.543   5.287   5.206  0.3918 -0.7022  0.1447
  699MOL0     C94250   5.523   5.405   5.119 -0.2210 -0.7127 -0.1192
  699MOL0     C94251   5.414   5.503   5.169  1.2735  0.5829 -0.0435
  699MOL0     C94252   5.334   5.561   5.053  0.5114 -1.6124 -1.5375
  699MOL0     C94253   5.433   5.637   4.951  0.0689  0.0998 -0.2547
  699MOL0     O94254   5.513   5.733   5.018  0.3965 -0.2034 -0.2362
  699MOL0     C94255   5.612   5.793   4.943 -0.2609  0.4911  0.9288
  699MOL0     C94256   5.717   5.864   5.013 -0.1350  0.4311 -0.3606
  699MOL0     C94257   5.805   5.945   4.953  0.1650  0.5396  0.4785
  699MOL0     C94258   5.898   6.034   5.034  0.2713  0.7259 -0.0147
  699MOL0     C94259   5.811   5.939   4.809 -0.2025  0.6352  0.0554
  699MOL0     C94260   5.914   6.015   4.733 -0.1974 -0.1417  1.0450
  699MOL0     O94261   5.883   6.049   4.608  0.9629  0.8651  0.5850
  699MOL0     C94262   5.967   6.122   4.530  0.3262 -0.5458 -0.2323
  699MOL0     C94263   6.020   6.080   4.408 -0.0928 -0.1918  0.3790
  699MOL0     C94264   6.103   6.156   4.324  1.0091  0.0942 -0.5586
  699MOL0     C94265   6.133   6.282   4.366  0.4652 -0.2684  0.5074
  699MOL0     O94266   6.215   6.363   4.291  0.3475  0.3268  1.0535
  699MOL0     C94267   6.216   6.506   4.317  0.2345  0.6454  0.3829
  699MOL0     C94268   6.351   6.531   4.368 -0.5070  0.3092 -1.3172
  699MOL0     C94269   6.384   6.682   4.375  0.4498 -0.6669  0.6395
  699MOL0     C94270   6.385   6.735   4.515 -0.4259 -0.2115  0.1259
  699MOL0     C94271   6.253   6.714   4.587 -1.5192 -0.7817 -0.4317
  699MOL0     C94272   6.256   6.796   4.719  0.1467  0.1051  0.5119
  699MOL0     C94273   6.324   6.716   4.836 -0.1863 -0.6993  0.4202
  699MOL0     C94274   6.263   6.579   4.873  0.1167  0.4382 -0.3447
  699MOL0    Cl94275   6.124   6.568   4.977 -0.3277 -0.6273 -0.2718
  699MOL0     C94276   6.079   6.326   4.489 -0.6455  0.2739 -0.0326
  699MOL0     C94277   5.997   6.252   4.571  0.2678 -0.2557  0.7446
  699MOL0     O94278   6.022   6.024   4.777 -0.8062  0.5447 -0.2970
  699MOL0     C94279   5.721   5.858   4.737  0.5171 -0.9698 -0.2337
  699MOL0     C94280   5.614   5.793   4.804 -0.0321  0.5326  0.6190
  699MOL0     N94281   5.443   5.205   5.237 -0.5349  0.5793  0.7434
  699MOL0     N94282   5.497   5.109   5.296 -0.0933 -0.4226  0.2139
  699MOL0     C94283   5.289   4.928   6.442  0.0786  0.9958 -0.7749
  699MOL0     C94284   5.302   4.873   6.570  0.0978  0.2514 -0.3994
  699MOL0     C94285   5.397   4.773   6.985 -0.1842 -0.3932 -0.3030
  699MOL0     C94286   5.478   4.866   7.049 -0.7078  0.2054 -0.2014
  699MOL0     C94287   5.475   4.870   7.190 -0.0652 -0.0311  0.4975
  699MOL0     C94288   5.399   4.779   7.273 -0.5200  0.7220  0.7771
  699MOL0     O94289   5.407   4.783   7.408 -0.6245  0.1147  0.0197
  699MOL0     C94290   5.386   4.667   7.485  0.3206 -0.3562  0.0827
  699MOL0     C94291   5.500   4.676   7.594  0.0888 -0.8279 -0.3934
  699MOL0     C94292   5.473   4.805   7.678  0.2732  0.0243  0.4929
  699MOL0     C94293   5.600   4.883   7.702 -0.0593 -0.4454  0.0283
  699MOL0     C94294   5.590   4.995   7.614 -0.0286 -0.9545  0.2641
  699MOL0     C94295   5.577   5.091   7.533  0.8417  0.6074  1.2156
  699MOL0     C94296   5.329   4.690   7.203  0.5481  0.3388  1.8672
  699MOL0     C94297   5.316   4.690   7.063  0.4024  0.3960 -1.7121
  699MOL0     H94298   5.585   5.027   6.659 -0.1036  1.4000 -1.2104
  699MOL0     H94299   5.587   5.103   6.432  1.3868 -1.6188 -0.2636
  699MOL0     H94300   5.495   5.199   6.228  1.8275 -0.6293  0.2418
  699MOL0     H94301   5.576   5.041   6.201 -0.8106 -0.2581  1.6093
  699MOL0     H94302   5.409   5.033   5.995  0.0610 -0.1966 -1.6348
  699MOL0     H94303   5.420   5.210   6.021  1.0996  1.2426  2.5325
  699MOL0     H94304   5.656   5.224   5.994  1.2217  0.2433 -3.8160
  699MOL0     H94305   5.680   5.057   6.003 -0.5908  1.0032  1.3834
  699MOL0     H94306   5.557   5.039   5.772 -1.9993  0.4823 -1.3207
  699MOL0     H94307   5.524   5.217   5.784  1.5819  0.3502 -2.3879
  699MOL0     H94308   5.768   5.245   5.796 -1.2127  0.8336 -0.7197
  699MOL0     H94309   5.791   5.074   5.787 -2.4179 -0.1240  2.9464
  699MOL0     H94310   5.635   5.234   5.588  1.8870  2.7017 -0.0036
  699MOL0     H94311   5.809   5.217   5.575 -0.6845  1.0551  2.3070
  699MOL0     H94312   5.763   4.951   5.578  0.3474 -0.6020 -1.8308
  699MOL0     H94313   5.591   5.008   5.550  0.5068 -0.0060 -0.1316
  699MOL0     H94314   5.710   4.939   5.344  3.2935 -0.3876  0.7562
  699MOL0     H94315   5.818   5.083   5.378 -1.6813  2.6902  0.9292
  699MOL0     H94316   5.754   5.287   5.237 -1.7191  2.7158  0.3020
  699MOL0     H94317   5.614   5.464   5.105 -2.1602  2.0228 -2.4399
  699MOL0     H94318   5.484   5.361   5.027 -1.4936 -2.6468  1.2579
  699MOL0     H94319   5.470   5.576   5.229  0.1033  0.2852  1.4648
  699MOL0     H94320   5.342   5.461   5.239 -0.1320 -1.6342 -2.6404
  699MOL0     H94321   5.277   5.645   5.093 -1.2818 -4.2700  2.0655
  699MOL0     H94322   5.258   5.493   5.012 -1.5963  0.9389 -2.1246
  699MOL0     H94323   5.377   5.682   4.869  1.8939  2.5306 -0.2545
  699MOL0     H94324   5.492   5.564   4.895 -2.0879 -1.1394 -1.0725
  699MOL0     H94325   5.699   5.858   5.120  0.6550 -1.1666 -0.2899
  699MOL0     H94326   5.906   6.133   4.989 -0.8989  2.6061  3.5849
  699MOL0     H94327   5.864   6.031   5.138  1.1365 -1.4253  0.2748
  699MOL0     H94328   5.997   5.991   5.049  1.0481  2.5173  0.1047
  699MOL0     H94329   5.991   5.989   4.357 -0.4701  2.3009 -4.4384
  699MOL0     H94330   6.120   6.117   4.224  0.1302 -1.6427 -0.0662
  699MOL0     H94331   6.202   6.563   4.225  2.7021  1.0700  0.2064
  699MOL0     H94332   6.138   6.542   4.385  0.1671  0.1491  0.5737
  699MOL0     H94333   6.348   6.494   4.471 -3.3260 -0.4947 -1.6198
  699MOL0     H94334   6.432   6.486   4.311  0.2450  1.5623 -1.2870
  699MOL0     H94335   6.301   6.740   4.333  0.7745  0.1086  1.0473
  699MOL0     H94336   6.478   6.709   4.327  0.3162  2.1180  1.7345
  699MOL0     H94337   6.467   6.693   4.573 -1.0729 -1.6340  0.0487
  699MOL0     H94338   6.406   6.842   4.505  1.1898 -0.3933  1.2489
  699MOL0     H94339   6.226   6.612   4.616 -1.1350 -0.1298  2.6206
  699MOL0     H94340   6.173   6.752   4.523  0.6733 -0.4487 -3.1466
  699MOL0     H94341   6.298   6.897   4.714  0.2667 -0.0041 -1.4078
  699MOL0     H94342   6.152   6.810   4.749 -0.4491  0.0084 -1.4030
  699MOL0     H94343   6.321   6.781   4.923 -3.8998  1.4553 -1.1011
  699MOL0     H94344   6.425   6.691   4.801 -0.8169  0.7908 -2.7809
  699MOL0     H94345   6.337   6.527   4.935 -1.6104  0.4618  1.8325
  699MOL0     H94346   6.242   6.514   4.787  0.6633  1.2285 -1.0992
  699MOL0     H94347   6.100   6.420   4.538  2.3518 -1.6119  2.6451
  699MOL0     H94348   5.955   6.294   4.662 -0.1703 -0.9071  0.8517
  699MOL0     H94349   5.729   5.854   4.629  1.4102 -0.2545 -0.2075
  699MOL0     H94350   5.542   5.740   4.742 -1.1302  2.0548  0.5391
  699MOL0     H94351   5.201   4.898   6.386 -0.1313  1.6946 -0.8232
  699MOL0     H94352   5.217   4.818   6.612  1.3441 -1.5921 -0.1740
  699MOL0     H94353   5.531   4.934   6.984 -1.3353  1.3627  0.4751
  699MOL0     H94354   5.551   4.925   7.246  0.1708 -2.0166  2.2736
  699MOL0     H94355   5.290   4.675   7.537 -0.3610 -1.9841 -0.8636
  699MOL0     H94356   5.384   4.572   7.432 -0.6923 -0.3690  0.1285
  699MOL0     H94357   5.602   4.682   7.555  0.1994  0.0428  0.0128
  699MOL0     H94358   5.505   4.597   7.669  3.3270 -0.8933 -0.5277
  699MOL0     H94359   5.427   4.768   7.771 -1.0417 -0.9668 -0.5120
  699MOL0     H94360   5.392   4.864   7.635 -0.6245 -0.8862  0.8842
  699MOL0     H94361   5.690   4.824   7.680  0.0922  0.5074 -2.1708
  699MOL0     H94362   5.607   4.925   7.802  0.2521  2.3111 -1.0588
  699MOL0     H94363   5.570   5.157   7.449 -1.2268 -3.9115 -2.6244
  699MOL0     H94364   5.257   4.628   7.255 -2.2526  0.7925 -1.1397
  699MOL0     H94365   5.255   4.609   7.026  0.8416 -0.2288 -1.0901
  700MOL0     O94366   2.932   5.660   8.799  0.6004  0.5030 -0.2570
  700MOL0     C94367   2.922   5.780   8.799 -0.4096 -0.6475  0.7568
  700MOL0     O94368   3.024   5.867   8.791  0.0947 -0.0320 -0.2485
  700MOL0     C94369   3.142   5.826   8.740  0.3113  0.0983  0.0041
  700MOL0     C94370   3.261   5.851   8.807  0.1087  0.1781  0.0127
  700MOL0     C94371   3.383   5.817   8.757  0.6050  0.8410 -0.7078
  700MOL0     C94372   3.401   5.755   8.637 -0.2206  1.2281 -0.1502
  700MOL0     O94373   3.529   5.738   8.584  0.3549 -0.3718  0.2939
  700MOL0     C94374   3.619   5.655   8.663 -0.1493 -0.0611  0.5924
  700MOL0     C94375   3.595   5.504   8.634 -0.1063 -0.0400 -0.4333
  700MOL0     C94376   3.695   5.458   8.531 -0.2352  0.1810 -0.4539
  700MOL0     C94377   3.641   5.332   8.453 -0.2395 -0.9665  1.0614
  700MOL0     C94378   3.743   5.270   8.346  0.5630  0.0476 -0.2328
  700MOL0     C94379   3.882   5.225   8.396  1.4956 -0.1805 -0.3093
  700MOL0     C94380   3.951   5.159   8.276 -0.4304 -0.4504  0.5082
  700MOL0     C94381   4.082   5.097   8.308  0.2667  0.1245 -0.6606
  700MOL0     N94382   4.133   5.049   8.177  0.3151 -0.4458  0.2293
  700MOL0     C94383   4.084   4.934   8.118 -0.6002  0.0622  0.0043
  700MOL0     C94384   4.149   4.933   7.996  0.6004 -0.5572 -0.5057
  700MOL0     C94385   4.126   4.819   7.889 -0.0873  0.4451 -0.4474
  700MOL0     C94386   3.981   4.815   7.829 -0.1981  0.8700  0.2191
  700MOL0     C94387   3.964   4.714   7.722  0.0731  0.0865 -0.1529
  700MOL0     C94388   3.837   4.745   7.642 -0.7259  0.0354 -0.0110
  700MOL0     O94389   3.715   4.735   7.710 -0.4904  0.9885 -0.2229
  700MOL0     C94390   3.601   4.773   7.651 -0.3032 -0.0652  0.9708
  700MOL0     C94391   3.520   4.872   7.693 -0.9811 -0.4107 -0.5195
  700MOL0     C94392   3.403   4.919   7.616 -1.2120  0.1857 -0.4195
  700MOL0     C94393   3.303   5.009   7.691 -1.2271 -0.6192  0.4862
  700MOL0     C94394   3.373   4.866   7.487 -0.4265  0.3471 -0.4325
  700MOL0     C94395   3.248   4.901   7.412 -0.3706  0.4201 -0.1668
  700MOL0     O94396   3.262   4.931   7.284 -0.7785  0.0418 -0.1694
  700MOL0     C94397   3.164   4.975   7.206  0.3603  0.8381 -0.1016
  700MOL0     C94398   3.154   4.922   7.070  0.5555  0.6278 -0.9593
  700MOL0     C94399   3.028   4.945   7.000 -0.5082  0.6019 -0.2782
  700MOL0     C94400   2.918   5.019   7.057 -0.4188  0.1030 -1.0487
  700MOL0     O94401   2.810   5.037   6.977  0.2636 -0.6723 -0.4152
  700MOL0     C94402   2.682   5.056   7.040 -0.2979 -0.2983 -0.1975
  700MOL0     C94403   2.577   5.012   6.941 -0.6940 -0.1621  0.5048
  700MOL0     C94404   2.524   5.146   6.869 -0.0400  0.7746  0.6450
  700MOL0     C94405   2.418   5.112   6.760  0.0290 -0.4688  0.2975
  700MOL0     C94406   2.367   5.246   6.691  0.1669  0.3165 -0.3825
  700MOL0     C94407   2.252   5.303   6.771  0.9904  0.1303 -0.4577
  700MOL0     C94408   2.177   5.419   6.698  0.8283 -0.0006 -0.4078
  700MOL0     C94409   2.060   5.465   6.784  0.4191 -0.1080 -1.2479
  700MOL0    Cl94410   2.124   5.545   6.934  0.3566  0.6232  0.0652
  700MOL0     C94411   2.938   5.069   7.183  0.2725 -1.6315 -0.3685
  700MOL0     C94412   3.058   5.056   7.259  0.0042 -1.3779  0.1899
  700MOL0     O94413   3.143   4.881   7.473  0.7994 -0.5435 -0.4416
  700MOL0     C94414   3.465   4.766   7.440  0.3822  0.1881  0.1695
  700MOL0     C94415   3.569   4.717   7.520 -0.3436 -0.3145  0.3415
  700MOL0     N94416   4.238   5.039   7.991 -0.1445 -0.3882 -0.6222
  700MOL0     N94417   4.209   5.113   8.083  0.1356 -0.1881  0.0530
  700MOL0     C94418   3.289   5.731   8.559 -1.3303 -0.6607 -0.2240
  700MOL0     C94419   3.161   5.757   8.618 -0.5761  1.1385  0.7336
  700MOL0     C94420   2.789   5.827   8.831  0.4736 -0.6215  0.4580
  700MOL0     C94421   2.670   5.748   8.826  1.2629 -0.1786  0.3596
  700MOL0     C94422   2.555   5.800   8.885  0.5692 -0.1566 -0.6041
  700MOL0     C94423   2.547   5.933   8.931 -0.1771 -0.4780 -0.6418
  700MOL0     O94424   2.433   5.998   8.974  0.0776 -0.1745  0.6080
  700MOL0     C94425   2.304   5.931   8.982  0.3152 -0.4993  0.0905
  700MOL0     C94426   2.189   6.031   9.014  0.6437  0.4992  1.3760
  700MOL0     C94427   2.202   6.156   8.924  0.7108 -0.2752  1.0349
  700MOL0     C94428   2.226   6.122   8.775  0.3779 -1.1354  0.7513
  700MOL0     C94429   2.203   6.239   8.690  0.1766 -0.6548  0.7674
  700MOL0     C94430   2.189   6.338   8.619 -0.2419  0.0358 -0.4602
  700MOL0     C94431   2.660   6.012   8.939 -0.7122 -0.1259  0.0493
  700MOL0     C94432   2.773   5.961   8.877 -0.3592  0.6081  0.3783
  700MOL0     H94433   3.251   5.914   8.895  2.6282  2.0580 -0.9226
  700MOL0     H94434   3.462   5.850   8.824  1.9680 -0.3696 -1.6757
  700MOL0     H94435   3.722   5.675   8.632 -0.3403 -3.9730 -3.6116
  700MOL0     H94436   3.606   5.673   8.770  1.6859 -0.0672  0.8480
  700MOL0     H94437   3.616   5.459   8.731  0.1192 -2.0031 -1.3505
  700MOL0     H94438   3.492   5.479   8.606  0.6264 -1.5883 -1.9112
  700MOL0     H94439   3.723   5.536   8.460  0.6159  0.7373  0.4790
  700MOL0     H94440   3.786   5.427   8.582 -0.0280 -0.2426 -1.0645
  700MOL0     H94441   3.605   5.257   8.524  1.0102 -0.3362  2.3989
  700MOL0     H94442   3.552   5.362   8.395 -0.1092 -0.8448  0.9224
  700MOL0     H94443   3.705   5.184   8.291 -0.0637  0.8339 -1.0706
  700MOL0     H94444   3.762   5.355   8.279  2.4505  1.6204  2.1072
  700MOL0     H94445   3.934   5.312   8.438 -1.8486  1.2619  1.2242
  700MOL0     H94446   3.865   5.159   8.482 -1.3532 -1.7545 -1.9429
  700MOL0     H94447   3.885   5.086   8.230  0.2584 -1.2393  0.7526
  700MOL0     H94448   3.967   5.238   8.202 -2.0986 -0.6747 -0.1339
  700MOL0     H94449   4.071   5.011   8.375  1.6516  1.7164  1.7360
  700MOL0     H94450   4.134   5.174   8.364 -1.0072  2.0216 -1.9767
  700MOL0     H94451   4.014   4.862   8.159 -0.7241  0.6097  0.7698
  700MOL0     H94452   4.199   4.837   7.809  2.7583  0.3997  1.9682
  700MOL0     H94453   4.150   4.727   7.944  0.4478  0.6863 -0.2711
  700MOL0     H94454   3.962   4.915   7.788 -0.7692  0.3431 -0.8329
  700MOL0     H94455   3.907   4.794   7.907  0.4304  0.1437  0.6375
  700MOL0     H94456   3.949   4.617   7.771  2.2123 -1.1775 -1.8334
  700MOL0     H94457   4.048   4.710   7.652  2.2507 -0.6120  2.3479
  700MOL0     H94458   3.830   4.684   7.551 -1.0629  0.1429 -0.0597
  700MOL0     H94459   3.848   4.847   7.606 -0.7349  0.9462  2.3943
  700MOL0     H94460   3.537   4.898   7.797 -0.4609 -0.7610 -0.5106
  700MOL0     H94461   3.370   5.086   7.728  0.6409 -2.2698  0.6821
  700MOL0     H94462   3.207   5.036   7.646 -2.8546  1.4308  4.5976
  700MOL0     H94463   3.274   4.954   7.782  0.8391 -2.5451  0.0607
  700MOL0     H94464   3.242   4.877   7.028  0.2838 -0.2339 -0.6243
  700MOL0     H94465   3.026   4.895   6.903  1.1939 -0.8990  0.3935
  700MOL0     H94466   2.671   4.989   7.125 -0.6308  2.1796  1.8028
  700MOL0     H94467   2.674   5.160   7.074  0.4253  0.1333 -1.2708
  700MOL0     H94468   2.627   4.944   6.872  2.4505 -0.4524  2.8854
  700MOL0     H94469   2.495   4.969   6.999  0.0897 -2.7521 -0.1936
  700MOL0     H94470   2.604   5.196   6.814 -1.0547 -0.6426 -2.3451
  700MOL0     H94471   2.485   5.219   6.941 -0.5321  1.6970 -0.5271
  700MOL0     H94472   2.463   5.047   6.684 -1.5694 -0.4133 -0.7471
  700MOL0     H94473   2.336   5.046   6.791  0.8220 -1.0319  1.2569
  700MOL0     H94474   2.320   5.203   6.602 -1.6181  0.5139  0.4364
  700MOL0     H94475   2.458   5.300   6.664  3.7381 -5.0543 -0.7104
  700MOL0     H94476   2.174   5.231   6.799 -1.5827  1.5933 -3.3250
  700MOL0     H94477   2.296   5.342   6.863  0.7932  0.0976 -0.3496
  700MOL0     H94478   2.137   5.373   6.607 -1.1568 -1.2867  1.0437
  700MOL0     H94479   2.234   5.510   6.673  0.8222  0.1795  0.2139
  700MOL0     H94480   2.011   5.373   6.816 -0.7932  0.6916 -0.7012
  700MOL0     H94481   1.987   5.521   6.724 -1.8086 -2.2096 -0.6431
  700MOL0     H94482   2.860   5.134   7.221  1.3564  0.4716 -1.5620
  700MOL0     H94483   3.070   5.098   7.358  2.3970  2.7687 -1.5672
  700MOL0     H94484   3.444   4.732   7.339  0.6345 -0.1341  0.2254
  700MOL0     H94485   3.629   4.642   7.468 -0.9167 -1.6224  1.5143
  700MOL0     H94486   3.311   5.683   8.464  0.1003  0.5327 -0.5301
  700MOL0     H94487   3.074   5.726   8.560  1.5131 -2.0514 -0.9570
  700MOL0     H94488   2.656   5.654   8.773  1.4868  0.3266 -0.6108
  700MOL0     H94489   2.463   5.744   8.870 -0.1486  0.4353  1.3120
  700MOL0     H94490   2.282   5.879   8.888 -0.9543  0.4680 -0.1714
  700MOL0     H94491   2.320   5.865   9.068  3.5438  1.6221  1.2948
  700MOL0     H94492   2.187   6.058   9.120  0.5144 -0.1144  1.5342
  700MOL0     H94493   2.093   5.980   8.998  1.2868 -0.4374  0.3005
  700MOL0     H94494   2.281   6.228   8.948 -0.0615  1.5413 -1.4357
  700MOL0     H94495   2.104   6.203   8.931  0.5031  0.1865 -2.7862
  700MOL0     H94496   2.158   6.050   8.727 -0.0241 -0.1424 -0.2313
  700MOL0     H94497   2.327   6.084   8.762  1.0346  0.6669  0.3245
  700MOL0     H94498   2.200   6.423   8.556 -2.4561  0.7618  0.0497
  700MOL0     H94499   2.655   6.108   8.989 -1.9536 -0.2837  0.2588
  700MOL0     H94500   2.855   6.032   8.887 -1.8235  2.4491 -0.1423
  701MOL0     O94501   7.823   3.950   2.168 -0.5120 -0.0123 -0.1550
  701MOL0     C94502   7.733   4.006   2.112 -0.2513  0.7348  0.1063
  701MOL0     O94503   7.719   4.019   1.984  0.0709 -0.0671 -0.2797
  701MOL0     C94504   7.792   3.945   1.891  0.7070  0.7918  0.8504
  701MOL0     C94505   7.885   3.841   1.905 -0.5215  0.0083  0.3737
  701MOL0     C94506   7.945   3.782   1.792 -0.4957  0.4578  0.0263
  701MOL0     C94507   7.916   3.826   1.664 -0.3775 -1.2507 -0.0442
  701MOL0     O94508   7.973   3.764   1.553  0.3350  0.7586 -0.4977
  701MOL0     C94509   7.929   3.803   1.413 -0.1408  0.1091  0.3880
  701MOL0     C94510   7.980   3.703   1.318 -0.9644  0.6291  0.3627
  701MOL0     C94511   8.136   3.709   1.303  1.4728  0.1836 -0.0990
  701MOL0     C94512   8.168   3.619   1.188 -0.1279  0.0582 -0.3346
  701MOL0     C94513   8.320   3.633   1.158  0.6554  0.4385 -0.4683
  701MOL0     C94514   8.368   3.559   1.025 -0.1168  0.4121  0.0793
  701MOL0     C94515   8.525   3.571   1.013  0.9091  0.0199 -0.3451
  701MOL0     C94516   8.596   3.460   1.101 -0.5704 -0.1072  0.2678
  701MOL0     N94517   8.562   3.323   1.042 -0.1692  0.5764 -0.1229
  701MOL0     C94518   8.600   3.201   1.094  0.2811 -0.8994  0.3474
  701MOL0     C94519   8.572   3.114   0.993  0.7407  0.2975  0.0224
  701MOL0     C94520   8.599   2.971   1.010  0.4943 -0.3133  0.4925
  701MOL0     C94521   8.681   2.912   0.890 -0.7786 -1.1714 -0.0617
  701MOL0     C94522   8.660   2.756   0.874 -0.2501 -0.6276 -0.7538
  701MOL0     C94523   8.748   2.704   0.753  0.7210 -0.9614 -0.8212
  701MOL0     O94524   8.885   2.689   0.790 -0.1361 -0.3517  0.2932
  701MOL0     C94525   8.926   2.568   0.836 -0.0371 -0.2277  0.2794
  701MOL0     C94526   9.052   2.512   0.799  0.4013  0.1978  0.3091
  701MOL0     C94527   9.081   2.379   0.823 -0.4663 -0.7509  0.3264
  701MOL0     C94528   9.199   2.330   0.761  0.5234 -0.6653  0.4942
  701MOL0     C94529   8.998   2.302   0.911 -0.6241  0.0397 -0.7952
  701MOL0     C94530   9.032   2.162   0.938 -0.7898  0.7521 -0.4516
  701MOL0     O94531   8.930   2.070   0.960  0.5659 -0.3674  0.0573
  701MOL0     C94532   8.950   1.936   0.968  0.8941 -0.0258  0.0766
  701MOL0     C94533   8.836   1.871   0.992 -0.5992  0.4972  0.4045
  701MOL0     C94534   8.827   1.729   1.004 -0.7483 -0.4248 -0.2473
  701MOL0     C94535   8.942   1.651   0.983 -1.5157 -0.1650  0.9500
  701MOL0     O94536   8.934   1.511   0.955 -0.3751 -0.1587 -0.7568
  701MOL0     C94537   9.055   1.435   0.975 -0.4708  0.3949  0.3290
  701MOL0     C94538   9.034   1.286   0.960  0.4235  0.1036 -0.4778
  701MOL0     C94539   9.009   1.213   1.093 -0.1164 -0.3038  0.4332
  701MOL0     C94540   8.956   1.071   1.075  0.1665 -0.1876  0.2936
  701MOL0     C94541   8.963   0.982   1.196 -0.9960  0.3391 -0.0440
  701MOL0     C94542   8.835   1.011   1.296 -0.1698  0.2426  1.1183
  701MOL0     C94543   8.827   0.920   1.424  0.4502 -0.3630 -0.0134
  701MOL0     C94544   8.713   0.962   1.517  1.1436  0.8979  0.1963
  701MOL0    Cl94545   8.758   1.114   1.583  0.5295 -0.1655 -0.3708
  701MOL0     C94546   9.058   1.729   0.956  1.5046  0.0347 -0.1101
  701MOL0     C94547   9.065   1.867   0.947 -0.2123  0.0284  0.1132
  701MOL0     O94548   9.150   2.147   0.982  0.3189 -0.8687  1.0954
  701MOL0     C94549   8.878   2.355   0.954  0.5624  0.6422  0.2046
  701MOL0     C94550   8.836   2.477   0.913 -0.2335  0.2954 -0.1389
  701MOL0     N94551   8.533   3.178   0.879  0.4145  0.0911  0.1538
  701MOL0     N94552   8.537   3.300   0.907  0.4579  0.3060 -0.2644
  701MOL0     C94553   7.840   3.944   1.654  0.1038  0.1437 -0.4989
  701MOL0     C94554   7.775   3.998   1.759  0.3357  0.2086 -0.4386
  701MOL0     C94555   7.643   4.100   2.189 -0.5859 -0.5339 -0.6495
  701MOL0     C94556   7.638   4.100   2.333  0.6119 -0.4382 -0.4737
  701MOL0     C94557   7.554   4.190   2.407 -0.4397 -0.5844  0.6173
  701MOL0     C94558   7.468   4.287   2.345 -0.9859  0.4641 -0.2607
  701MOL0     O94559   7.404   4.373   2.434  0.1870 -0.6726  0.5895
  701MOL0     C94560   7.304   4.464   2.383  0.5784 -1.2882 -0.0150
  701MOL0     C94561   7.162   4.420   2.402  0.2719 -0.4233  0.0916
  701MOL0     C94562   7.126   4.328   2.277  0.2088  0.3234  0.0096
  701MOL0     C94563   6.979   4.295   2.259 -0.1678 -0.2407 -0.7536
  701MOL0     C94564   6.959   4.203   2.145  0.1926 -0.3733 -0.7399
  701MOL0     C94565   6.926   4.131   2.059 -0.0948  0.9080 -0.2230
  701MOL0     C94566   7.480   4.299   2.196  0.1908  0.2086 -0.5437
  701MOL0     C94567   7.562   4.201   2.130  0.0388 -0.1348  0.4618
  701MOL0     H94568   7.916   3.790   1.995  3.6728 -1.2073 -1.4847
  701MOL0     H94569   7.997   3.689   1.814  0.2049  1.1160  1.2766
  701MOL0     H94570   7.820   3.810   1.416 -0.5157 -3.8651  2.1131
  701MOL0     H94571   7.988   3.894   1.396  0.1855 -0.0026  0.9081
  701MOL0     H94572   7.965   3.597   1.339  0.4201  0.1117 -1.0419
  701MOL0     H94573   7.929   3.725   1.224 -1.0142  0.9435  0.4616
  701MOL0     H94574   8.157   3.810   1.265 -1.5084  0.4632 -1.3169
  701MOL0     H94575   8.196   3.688   1.392  0.4275 -0.1540  0.5521
  701MOL0     H94576   8.157   3.516   1.225  2.2907  0.4370  1.7452
  701MOL0     H94577   8.111   3.633   1.096 -0.8190 -0.9306 -0.0819
  701MOL0     H94578   8.336   3.741   1.149 -0.2677  0.5576 -0.7695
  701MOL0     H94579   8.379   3.602   1.245  1.2952  1.7001 -0.4297
  701MOL0     H94580   8.334   3.456   1.033 -1.1782  0.7742  0.4854
  701MOL0     H94581   8.312   3.602   0.941 -3.3089 -2.0047  0.7787
  701MOL0     H94582   8.548   3.557   0.907 -1.8341 -2.2253 -0.7564
  701MOL0     H94583   8.567   3.669   1.034  2.5911 -0.3519 -1.7394
  701MOL0     H94584   8.556   3.477   1.202 -2.4948 -0.6885 -0.3662
  701MOL0     H94585   8.706   3.463   1.108 -0.6640  1.3594  3.0886
  701MOL0     H94586   8.644   3.197   1.192 -1.2613  1.7727  1.2782
  701MOL0     H94587   8.656   2.963   1.103  1.7870  0.1216 -0.2217
  701MOL0     H94588   8.507   2.913   1.008 -0.4403  1.1228 -0.1242
  701MOL0     H94589   8.788   2.926   0.907 -0.9035 -0.1605 -0.0493
  701MOL0     H94590   8.647   2.963   0.800  2.0891  0.3864 -0.3666
  701MOL0     H94591   8.560   2.728   0.840 -0.2202 -4.8029  1.9049
  701MOL0     H94592   8.687   2.709   0.969  1.8080  2.8691  0.5804
  701MOL0     H94593   8.741   2.775   0.670 -1.5500  1.5066  1.3292
  701MOL0     H94594   8.701   2.609   0.724 -1.9031 -0.3095  0.9535
  701MOL0     H94595   9.115   2.587   0.753  0.9879  1.0675  2.4218
  701MOL0     H94596   9.288   2.346   0.821 -0.1450  0.5123  1.2185
  701MOL0     H94597   9.182   2.224   0.742 -1.2057  0.1858 -3.9252
  701MOL0     H94598   9.210   2.384   0.666 -3.1742 -1.5380 -0.5900
  701MOL0     H94599   8.741   1.917   1.014 -0.0671  0.8686  2.0823
  701MOL0     H94600   8.729   1.685   0.996 -1.4134  0.4746  2.0046
  701MOL0     H94601   9.128   1.464   0.898  0.6940 -2.0010  0.4325
  701MOL0     H94602   9.098   1.458   1.073  2.0991 -0.4834 -0.5203
  701MOL0     H94603   8.953   1.271   0.888  0.9202 -1.1646 -0.8043
  701MOL0     H94604   9.127   1.246   0.917  0.3791 -0.1364 -0.3520
  701MOL0     H94605   8.934   1.265   1.153 -1.4955 -1.6249 -0.0915
  701MOL0     H94606   9.106   1.200   1.143  1.2108  0.3207 -1.8480
  701MOL0     H94607   8.856   1.073   1.030  0.6424  0.4400 -0.7609
  701MOL0     H94608   9.017   1.040   0.990 -2.0917  2.4518 -2.5043
  701MOL0     H94609   9.044   1.003   1.266 -0.9753 -3.5982  1.4005
  701MOL0     H94610   8.988   0.878   1.174  1.5989  0.9316 -0.1700
  701MOL0     H94611   8.835   1.119   1.318 -0.6498  0.8541 -1.5067
  701MOL0     H94612   8.754   0.974   1.232  3.2121  0.1309 -3.5688
  701MOL0     H94613   8.921   0.915   1.480 -1.1600 -0.8798  2.8521
  701MOL0     H94614   8.807   0.819   1.387  1.1495 -0.3599 -0.3976
  701MOL0     H94615   8.694   0.886   1.594 -0.2830  0.6236 -0.3849
  701MOL0     H94616   8.617   0.969   1.464 -0.5109  0.2993  2.8852
  701MOL0     H94617   9.153   1.682   0.933  1.9928  0.5512  0.8053
  701MOL0     H94618   9.160   1.915   0.926  0.0139 -0.1037  0.8000
  701MOL0     H94619   8.805   2.284   0.993  0.5500  0.8463  0.5586
  701MOL0     H94620   8.737   2.507   0.945 -0.5768 -1.9061  1.0634
  701MOL0     H94621   7.824   3.988   1.556 -1.2869 -0.0147 -0.3636
  701MOL0     H94622   7.698   4.071   1.739  0.0096 -0.0285 -0.0739
  701MOL0     H94623   7.696   4.034   2.397 -1.5938 -0.2551  1.8696
  701MOL0     H94624   7.558   4.162   2.512  0.4630 -4.1393 -0.2338
  701MOL0     H94625   7.307   4.559   2.438  0.7918 -1.4872  0.3201
  701MOL0     H94626   7.312   4.486   2.276 -0.2962  0.6985  0.2873
  701MOL0     H94627   7.085   4.498   2.400  0.3364 -0.3723 -0.3892
  701MOL0     H94628   7.146   4.359   2.491 -0.7633 -1.9514 -1.0810
  701MOL0     H94629   7.178   4.232   2.277 -0.7132 -0.1965 -0.7387
  701MOL0     H94630   7.162   4.376   2.186 -0.9459 -1.7301 -1.6007
  701MOL0     H94631   6.925   4.384   2.227  3.5583  2.6365  0.1461
  701MOL0     H94632   6.937   4.253   2.351  0.4951 -0.7131 -0.6587
  701MOL0     H94633   6.915   4.067   1.973 -1.2407 -3.2015  2.6878
  701MOL0     H94634   7.421   4.367   2.135  2.0542  1.1618 -1.3695
  701MOL0     H94635   7.569   4.216   2.023  1.6665 -0.9388  0.4184
  702MOL0     O94636   0.955   6.781   7.275  0.8317 -0.5125  0.3904
  702MOL0     C94637   0.910   6.889   7.307 -0.4536  0.2154 -1.0993
  702MOL0     O94638   0.856   6.924   7.436  0.6147  0.0634  0.1185
  702MOL0     C94639   0.846   6.819   7.533  0.3200  0.8254  1.6596
  702MOL0     C94640   0.959   6.744   7.559 -0.0495 -0.5056 -0.7343
  702MOL0     C94641   0.959   6.631   7.647 -0.0058 -1.1181  0.0694
  702MOL0     C94642   0.847   6.599   7.722 -0.1711  0.6714  0.7723
  702MOL0     O94643   0.839   6.484   7.793 -0.9051 -0.0755 -0.0308
  702MOL0     C94644   0.821   6.520   7.935 -0.0024 -0.1498  1.0422
  702MOL0     C94645   0.786   6.394   8.027 -0.0648 -1.5595 -0.1929
  702MOL0     C94646   0.636   6.368   8.025  0.9443  0.2392 -0.1657
  702MOL0     C94647   0.597   6.258   8.118 -0.0067  0.6540 -0.5922
  702MOL0     C94648   0.636   6.103   8.087 -1.1517  0.9704 -0.5676
  702MOL0     C94649   0.619   6.015   8.209  0.9653  0.2765 -0.5338
  702MOL0     C94650   0.671   5.874   8.194  0.4802 -0.5999 -0.3879
  702MOL0     C94651   0.823   5.860   8.222 -0.3532 -1.1839  0.6591
  702MOL0     N94652   0.911   5.894   8.110 -0.2700  0.7396  0.1037
  702MOL0     C94653   0.989   6.008   8.096  0.9615  0.0673 -0.1872
  702MOL0     C94654   1.032   6.009   7.964 -0.6351 -0.0861 -0.7558
  702MOL0     C94655   1.097   6.119   7.882 -1.3356 -0.3002 -0.2142
  702MOL0     C94656   1.222   6.188   7.947  0.6633 -0.2109  0.7906
  702MOL0     C94657   1.267   6.309   7.865 -0.4495 -0.2157 -0.2109
  702MOL0     C94658   1.369   6.396   7.946 -0.6776  0.6307  1.0863
  702MOL0     O94659   1.320   6.452   8.059  0.0527 -0.1215 -0.5284
  702MOL0     C94660   1.234   6.557   8.047  0.2903 -0.8819 -0.0828
  702MOL0     C94661   1.150   6.595   8.157 -1.3741 -0.4109 -0.4686
  702MOL0     C94662   1.077   6.709   8.164  0.5082 -0.6617 -0.4135
  702MOL0     C94663   1.008   6.731   8.299  0.0617  0.1445 -0.5123
  702MOL0     C94664   1.068   6.790   8.044 -0.8756  0.4791 -0.5608
  702MOL0     C94665   1.000   6.918   8.049 -0.1444  0.2955  0.1103
  702MOL0     O94666   1.040   7.008   7.945 -0.2254 -0.8219  0.1351
  702MOL0     C94667   0.998   7.144   7.951 -0.6488 -0.5103 -0.7606
  702MOL0     C94668   0.884   7.191   7.877  0.3569  0.3982 -0.5399
  702MOL0     C94669   0.851   7.329   7.891  0.0673  0.8492  0.4027
  702MOL0     C94670   0.942   7.422   7.948  0.3716  1.3264 -0.2318
  702MOL0     O94671   0.938   7.556   7.953  0.1363  0.1410  0.7033
  702MOL0     C94672   0.828   7.629   7.884 -0.5417  0.7387  0.6203
  702MOL0     C94673   0.841   7.786   7.910  0.6093 -0.4949  0.7948
  702MOL0     C94674   0.970   7.842   7.865  0.1315  0.3148  0.0820
  702MOL0     C94675   0.953   7.991   7.855  0.0286  1.2800  0.5737
  702MOL0     C94676   0.956   8.055   7.988 -0.2148  0.2146 -0.3209
  702MOL0     C94677   0.908   8.206   7.972  0.4868  0.1689 -0.4875
  702MOL0     C94678   0.920   8.280   8.098  0.2636  0.0663 -0.1095
  702MOL0     C94679   0.860   8.421   8.083 -0.6028  0.7471  0.5709
  702MOL0    Cl94680   0.681   8.414   8.056  0.1805 -0.6160  0.1121
  702MOL0     C94681   1.043   7.366   8.032 -0.5288  0.2856  0.9275
  702MOL0     C94682   1.071   7.229   8.036  1.1179  0.0058 -0.4035
  702MOL0     O94683   0.911   6.939   8.127  0.1565  0.0722  0.1385
  702MOL0     C94684   1.129   6.747   7.926  0.8802  0.6327 -0.2038
  702MOL0     C94685   1.210   6.634   7.928 -0.2778  0.0506 -0.2766
  702MOL0     N94686   0.976   5.899   7.894  0.1661  0.6486  0.3311
  702MOL0     N94687   0.911   5.830   7.987  0.1804  0.0420 -0.1431
  702MOL0     C94688   0.737   6.686   7.704 -0.1869  0.3232 -1.3768
  702MOL0     C94689   0.731   6.784   7.609  0.5414  0.4201 -0.1283
  702MOL0     C94690   0.904   7.000   7.201 -0.3934 -0.3630 -0.7788
  702MOL0     C94691   0.924   6.979   7.065  0.2244 -0.6166  0.5643
  702MOL0     C94692   0.933   7.089   6.979  0.2025 -1.6098  0.8406
  702MOL0     C94693   0.928   7.227   7.021 -0.1186  0.5982 -0.5492
  702MOL0     O94694   0.933   7.344   6.946 -0.5111 -0.2269  1.5126
  702MOL0     C94695   0.910   7.332   6.804  0.1350 -0.2329  1.2704
  702MOL0     C94696   0.918   7.478   6.751  0.2487  0.1469 -0.7969
  702MOL0     C94697   0.865   7.495   6.609 -0.5182  0.5663  0.1341
  702MOL0     C94698   0.944   7.437   6.490  0.0734  0.1763  0.0446
  702MOL0     C94699   1.083   7.471   6.478 -0.0071  0.3902 -0.2819
  702MOL0     C94700   1.198   7.495   6.494 -0.0892  0.1147  0.2575
  702MOL0     C94701   0.911   7.243   7.155  0.4513  0.2524  0.8287
  702MOL0     C94702   0.894   7.134   7.248  1.2076  0.0013  0.0917
  702MOL0     H94703   1.057   6.775   7.524 -0.8838  1.6826 -1.3279
  702MOL0     H94704   1.052   6.577   7.660  0.4266 -0.3039  0.4264
  702MOL0     H94705   0.919   6.560   7.965  0.8455 -1.4226  0.0775
  702MOL0     H94706   0.746   6.598   7.950  1.5121  1.6933 -0.4067
  702MOL0     H94707   0.840   6.304   7.996 -0.4581 -1.8427 -0.0680
  702MOL0     H94708   0.821   6.409   8.130  2.4146  2.0001 -1.3679
  702MOL0     H94709   0.578   6.448   8.074 -2.2322 -0.3462 -2.6205
  702MOL0     H94710   0.597   6.349   7.925 -1.2592  2.0822  0.2427
  702MOL0     H94711   0.638   6.290   8.214 -2.5680 -1.0731  1.2229
  702MOL0     H94712   0.490   6.257   8.141 -0.2704 -2.0809 -1.6292
  702MOL0     H94713   0.584   6.062   7.999  1.0619 -1.7074 -0.7601
  702MOL0     H94714   0.742   6.106   8.060 -1.1266  3.4132 -0.4503
  702MOL0     H94715   0.680   6.059   8.288  1.8845 -2.6365  0.4815
  702MOL0     H94716   0.515   6.008   8.242  0.4614 -4.0106 -2.3729
  702MOL0     H94717   0.624   5.802   8.262  1.3603  0.5465  1.5263
  702MOL0     H94718   0.657   5.851   8.088 -0.6916 -0.7837 -0.2079
  702MOL0     H94719   0.827   5.752   8.241 -0.6685 -0.9634  2.0622
  702MOL0     H94720   0.861   5.910   8.312 -1.7929  1.8407 -0.2802
  702MOL0     H94721   0.987   6.094   8.163 -0.6324  0.5103 -0.7449
  702MOL0     H94722   1.135   6.079   7.788  2.3054  1.0179  0.5227
  702MOL0     H94723   1.021   6.196   7.861 -0.0414  1.1790  0.3310
  702MOL0     H94724   1.302   6.114   7.936  0.1764 -0.8184  1.2902
  702MOL0     H94725   1.206   6.209   8.053  2.3298  0.7726  0.8961
  702MOL0     H94726   1.174   6.364   7.847 -0.8346 -0.7639  0.0772
  702MOL0     H94727   1.307   6.286   7.765 -3.9372 -0.7106 -1.6300
  702MOL0     H94728   1.425   6.471   7.890 -0.4600  1.4668  2.3878
  702MOL0     H94729   1.444   6.322   7.974 -0.7973  0.7928  1.8385
  702MOL0     H94730   1.161   6.534   8.245  2.9240 -0.1047 -0.5406
  702MOL0     H94731   1.036   6.831   8.331  0.3153  0.2214 -0.9706
  702MOL0     H94732   0.900   6.713   8.298 -0.0069  0.5528 -0.7532
  702MOL0     H94733   1.049   6.663   8.374  0.6653  4.3452  3.3864
  702MOL0     H94734   0.840   7.121   7.807  1.8837 -0.4883 -0.6421
  702MOL0     H94735   0.770   7.371   7.833  0.4414  0.7461 -0.2062
  702MOL0     H94736   0.831   7.613   7.776  2.4009  0.0295  0.7120
  702MOL0     H94737   0.729   7.595   7.917 -0.9840  0.6734 -0.7229
  702MOL0     H94738   0.762   7.845   7.862  1.3616 -0.5269 -0.5010
  702MOL0     H94739   0.838   7.806   8.018 -1.1000 -2.6614  1.2341
  702MOL0     H94740   0.999   7.801   7.768  1.0650  1.6067 -0.2168
  702MOL0     H94741   1.050   7.821   7.936  0.1651 -2.2466 -0.6225
  702MOL0     H94742   1.030   8.026   7.785  0.2895 -0.2847  0.0429
  702MOL0     H94743   0.864   8.030   7.805 -1.5790  0.8884  2.9736
  702MOL0     H94744   1.057   8.045   8.028 -0.3821 -0.2023  0.0108
  702MOL0     H94745   0.885   8.013   8.060 -1.8726  1.0047 -1.4254
  702MOL0     H94746   0.967   8.251   7.891  1.0080  0.0038 -0.2045
  702MOL0     H94747   0.802   8.211   7.944  0.7811  2.4427 -1.3648
  702MOL0     H94748   1.028   8.295   8.111  0.2037  0.3608  0.0588
  702MOL0     H94749   0.872   8.228   8.181  0.2757 -1.7367 -1.1922
  702MOL0     H94750   0.912   8.471   8.000 -0.2175  0.6904  0.7771
  702MOL0     H94751   0.881   8.477   8.175  0.3986  0.2911  0.6359
  702MOL0     H94752   1.118   7.428   8.080  2.0173 -0.9904 -1.1299
  702MOL0     H94753   1.148   7.190   8.103  0.1513 -0.4861  0.4526
  702MOL0     H94754   1.107   6.792   7.830 -1.6132  1.0900  0.5235
  702MOL0     H94755   1.272   6.606   7.843  1.7544  1.8810  0.5169
  702MOL0     H94756   0.651   6.657   7.763 -0.8340  0.7790 -2.0750
  702MOL0     H94757   0.635   6.831   7.592  0.7640  1.6851  1.6997
  702MOL0     H94758   0.923   6.878   7.025 -4.4689 -0.9059  0.9250
  702MOL0     H94759   0.952   7.076   6.873 -2.1011  0.3209  0.0889
  702MOL0     H94760   0.981   7.264   6.757  0.8767 -0.7937  3.1211
  702MOL0     H94761   0.813   7.286   6.785 -0.7667  1.9135  0.4035
  702MOL0     H94762   1.012   7.530   6.767  1.1273 -1.9884  1.6127
  702MOL0     H94763   0.845   7.535   6.809 -0.5494 -2.6688  1.1779
  702MOL0     H94764   0.852   7.604   6.603 -0.4307  0.5304 -0.8516
  702MOL0     H94765   0.771   7.443   6.624  1.7349 -3.6245  1.2634
  702MOL0     H94766   0.882   7.472   6.406 -2.3246 -1.8895  0.8055
  702MOL0     H94767   0.916   7.331   6.493 -1.5730  0.2969 -3.7896
  702MOL0     H94768   1.300   7.522   6.513 -0.6473  2.7676 -0.0215
  702MOL0     H94769   0.917   7.343   7.196  5.1950  1.5285 -2.2067
  702MOL0     H94770   0.879   7.147   7.355  2.1986 -0.7956  0.3401
  703MOL0     O94771   5.492   5.630   1.114  0.0019  0.6331  0.2851
  703MOL0     C94772   5.525   5.733   1.172  0.3859  0.4034 -0.7562
  703MOL0     O94773   5.464   5.860   1.151 -0.0603 -0.4112 -1.2445
  703MOL0     C94774   5.357   5.852   1.064  1.6289 -0.1880 -0.1705
  703MOL0     C94775   5.242   5.898   1.122 -0.3211 -0.5974 -0.1979
  703MOL0     C94776   5.115   5.881   1.060  0.0219  0.0059  0.2069
  703MOL0     C94777   5.102   5.824   0.931  0.0607 -0.2986 -0.2547
  703MOL0     O94778   4.982   5.822   0.867 -0.1730 -0.4130  0.1590
  703MOL0     C94779   4.905   5.695   0.871  0.1286 -0.6046 -0.4576
  703MOL0     C94780   4.798   5.701   0.998 -1.0343  0.4067  0.2956
  703MOL0     C94781   4.740   5.845   0.999 -0.4980 -0.2607  0.3292
  703MOL0     C94782   4.609   5.824   1.072  0.1998 -0.5410 -1.0402
  703MOL0     C94783   4.545   5.959   1.091  0.6322 -0.6046 -0.6450
  703MOL0     C94784   4.382   5.965   1.069 -0.7845  0.4975  0.1776
  703MOL0     C94785   4.330   6.109   1.060 -0.3278  1.2315 -0.1585
  703MOL0     C94786   4.397   6.192   0.944 -0.2248  0.3500 -0.1990
  703MOL0     N94787   4.305   6.206   0.835  1.6980  0.6239  0.8735
  703MOL0     C94788   4.237   6.113   0.764  0.0321  0.8127 -0.5250
  703MOL0     C94789   4.170   6.184   0.680 -0.6349 -1.0551  0.6559
  703MOL0     C94790   4.092   6.154   0.559 -1.2735  1.0703  0.1760
  703MOL0     C94791   4.157   6.044   0.467 -0.9571  0.1594 -0.1179
  703MOL0     C94792   4.164   6.081   0.321 -1.1306  0.3396  0.4200
  703MOL0     C94793   4.296   6.158   0.280  0.1668  0.0412 -0.0160
  703MOL0     O94794   4.416   6.084   0.306  0.3599  0.1259  0.3212
  703MOL0     C94795   4.524   6.093   0.225  0.1406  0.3667  1.1009
  703MOL0     C94796   4.586   5.976   0.174 -0.8647  1.2930  0.1090
  703MOL0     C94797   4.702   5.987   0.088 -0.1104  0.0041 -0.0351
  703MOL0     C94798   4.765   5.850   0.044 -0.4699  0.8840  0.1359
  703MOL0     C94799   4.773   6.104   0.070  0.0862 -0.4198  0.1797
  703MOL0     C94800   4.899   6.112  -0.009 -0.0641  0.4026  0.0476
  703MOL0     O94801   4.997   6.018   0.004  0.3559 -0.5754 -0.9767
  703MOL0     C94802   5.105   6.033  -0.079  0.9652 -0.4586  0.2419
  703MOL0     C94803   5.102   6.090  -0.207  0.5792  0.0427  0.4426
  703MOL0     C94804   5.216   6.103  -0.285  0.2659  0.7078  0.8010
  703MOL0     C94805   5.343   6.065  -0.233 -0.5523 -0.2827 -1.2584
  703MOL0     O94806   5.457   6.082  -0.310  0.1508  0.3424 -0.8666
  703MOL0     C94807   5.459   6.171  -0.417 -0.3619 -0.3043  0.4820
  703MOL0     C94808   5.576   6.129  -0.492 -0.1789  0.0093  0.5208
  703MOL0     C94809   5.605   6.210  -0.614  1.0153 -0.1784  0.0346
  703MOL0     C94810   5.693   6.145  -0.715 -0.9906  0.2345  1.1574
  703MOL0     C94811   5.743   6.255  -0.807  0.1802  0.6635 -0.1965
  703MOL0     C94812   5.863   6.212  -0.896 -0.0666  0.5799  0.1560
  703MOL0     C94813   5.878   6.287  -1.028  0.4144  0.6402  0.0663
  703MOL0     C94814   5.948   6.417  -1.012 -1.0530  0.1942 -0.6706
  703MOL0    Cl94815   6.127   6.385  -0.982  0.4075  0.0152  0.4567
  703MOL0     C94816   5.342   5.995  -0.106  0.0197  0.1869 -0.0767
  703MOL0     C94817   5.222   5.978  -0.032  0.1079 -0.2255 -0.6776
  703MOL0     O94818   4.918   6.229  -0.062  0.3425  0.4845  0.8072
  703MOL0     C94819   4.718   6.224   0.132 -0.4918 -0.0240 -0.3356
  703MOL0     C94820   4.591   6.217   0.207 -0.4482 -0.7809  0.6046
  703MOL0     N94821   4.189   6.322   0.699 -0.5392 -0.4633  0.1005
  703MOL0     N94822   4.262   6.326   0.807  0.6941  0.4248  0.5435
  703MOL0     C94823   5.223   5.781   0.868 -0.5079 -0.7143  0.1759
  703MOL0     C94824   5.348   5.791   0.938  0.1717 -0.5973 -0.1040
  703MOL0     C94825   5.589   5.719   1.300  0.3975 -1.2811  0.0336
  703MOL0     C94826   5.553   5.615   1.382 -0.1886  0.0754 -1.5872
  703MOL0     C94827   5.608   5.620   1.506  0.1846 -0.0625 -0.8148
  703MOL0     C94828   5.695   5.720   1.555  0.9017  0.2936  0.0906
  703MOL0     O94829   5.754   5.700   1.678  0.1671  0.3626  0.2159
  703MOL0     C94830   5.679   5.654   1.789 -0.5677  1.8450  0.7817
  703MOL0     C94831   5.732   5.694   1.922  0.0960  0.4854 -0.8631
  703MOL0     C94832   5.652   5.618   2.038 -0.0495  0.7555  0.2441
  703MOL0     C94833   5.701   5.672   2.175  0.3992  0.5610 -0.4795
  703MOL0     C94834   5.665   5.812   2.188  0.0015  0.3754  0.4135
  703MOL0     C94835   5.635   5.924   2.201  1.0467 -0.8656 -0.0898
  703MOL0     C94836   5.737   5.826   1.464 -0.5971 -0.2184  0.4892
  703MOL0     C94837   5.683   5.814   1.332  0.8359  0.5634 -0.0676
  703MOL0     H94838   5.254   5.951   1.216  1.5028 -0.7074 -0.3278
  703MOL0     H94839   5.025   5.926   1.101 -1.0730  0.6815 -2.6953
  703MOL0     H94840   4.852   5.686   0.776 -1.4788 -5.2481  0.5712
  703MOL0     H94841   4.950   5.596   0.885 -1.0007 -1.3917 -2.0626
  703MOL0     H94842   4.719   5.632   0.965 -0.5948  1.0635 -2.4094
  703MOL0     H94843   4.830   5.665   1.096  1.9467 -1.1781 -1.1382
  703MOL0     H94844   4.812   5.911   1.047  2.2715 -2.5392 -0.4557
  703MOL0     H94845   4.731   5.888   0.899 -1.0307 -2.0740 -0.4420
  703MOL0     H94846   4.543   5.763   1.009 -0.1453 -0.7169 -0.5064
  703MOL0     H94847   4.616   5.770   1.166 -1.0465  3.2588  1.4528
  703MOL0     H94848   4.572   5.979   1.195  0.4429 -0.9218 -0.5319
  703MOL0     H94849   4.592   6.040   1.035 -0.0323 -0.8319 -1.5585
  703MOL0     H94850   4.371   5.913   0.973 -1.4521 -1.7817  1.4080
  703MOL0     H94851   4.319   5.908   1.138 -0.7495 -1.4388 -1.2978
  703MOL0     H94852   4.222   6.112   1.042 -0.1291 -0.3511 -2.0209
  703MOL0     H94853   4.350   6.158   1.155  2.7878  0.5668 -0.3447
  703MOL0     H94854   4.489   6.146   0.907  0.7590  1.3792  0.8801
  703MOL0     H94855   4.420   6.288   0.992  2.5407  0.3370 -1.2955
  703MOL0     H94856   4.242   6.005   0.776 -2.3101  0.7944  0.6884
  703MOL0     H94857   3.996   6.117   0.594 -0.3242 -1.5623  0.1947
  703MOL0     H94858   4.082   6.245   0.499 -3.3565  1.0861  0.5021
  703MOL0     H94859   4.098   5.951   0.476 -0.0618 -0.5123 -1.0030
  703MOL0     H94860   4.257   6.014   0.498 -0.7383  0.9526 -0.0494
  703MOL0     H94861   4.086   6.154   0.296  2.1694  3.3536 -2.2039
  703MOL0     H94862   4.155   5.994   0.255 -1.3382  2.0061 -1.8600
  703MOL0     H94863   4.297   6.259   0.322  2.0137  0.6611 -1.4135
  703MOL0     H94864   4.299   6.165   0.171  4.0525  0.2557 -0.0362
  703MOL0     H94865   4.551   5.874   0.186  2.2771 -0.2070 -2.1935
  703MOL0     H94866   4.801   5.856  -0.059  1.5785  2.3631  0.8744
  703MOL0     H94867   4.849   5.820   0.107 -0.9121 -1.2701 -0.2230
  703MOL0     H94868   4.703   5.760   0.049  1.0067 -0.3705 -2.1226
  703MOL0     H94869   5.010   6.137  -0.242  0.4463  1.1444  2.1667
  703MOL0     H94870   5.194   6.145  -0.383  2.1368  2.9887  1.2690
  703MOL0     H94871   5.372   6.156  -0.481  1.1396 -4.7492 -0.9732
  703MOL0     H94872   5.477   6.275  -0.389 -5.9323  1.3910 -1.0446
  703MOL0     H94873   5.665   6.135  -0.428  1.1553  0.7804 -1.3116
  703MOL0     H94874   5.565   6.025  -0.523  2.8796  0.1568 -1.4982
  703MOL0     H94875   5.635   6.311  -0.583 -1.6778  2.0358 -3.6990
  703MOL0     H94876   5.509   6.231  -0.663  2.5074 -0.9326 -3.5414
  703MOL0     H94877   5.778   6.098  -0.665  0.6947  2.2846  0.3767
  703MOL0     H94878   5.658   6.063  -0.778 -0.2564 -2.1143  3.6142
  703MOL0     H94879   5.772   6.345  -0.753 -1.1403  1.4950 -0.8147
  703MOL0     H94880   5.660   6.269  -0.877 -0.3904 -3.0325 -0.4756
  703MOL0     H94881   5.955   6.220  -0.838 -1.1948 -1.0345  2.3053
  703MOL0     H94882   5.855   6.103  -0.911  2.3313  0.7178 -3.1671
  703MOL0     H94883   5.780   6.303  -1.075 -0.6554 -0.9311  1.5970
  703MOL0     H94884   5.933   6.216  -1.090  1.3911  2.1295 -0.8406
  703MOL0     H94885   5.909   6.487  -0.938 -2.7365  0.0021 -1.3346
  703MOL0     H94886   5.948   6.472  -1.107 -0.4803  1.5130  0.0631
  703MOL0     H94887   5.434   5.959  -0.062  0.1705  1.1198  0.4019
  703MOL0     H94888   5.219   5.930   0.065 -1.5398 -2.9133 -1.9399
  703MOL0     H94889   4.781   6.312   0.132  1.5048 -1.3139  2.4507
  703MOL0     H94890   4.560   6.300   0.269  1.4558  0.7000 -0.2812
  703MOL0     H94891   5.221   5.748   0.765  0.2863 -0.7850  0.1745
  703MOL0     H94892   5.430   5.746   0.883  0.6761  2.8096 -2.4558
  703MOL0     H94893   5.486   5.539   1.342 -2.0931  2.4111 -3.1208
  703MOL0     H94894   5.581   5.535   1.569 -0.3458 -0.8060 -2.0036
  703MOL0     H94895   5.574   5.682   1.777 -0.6479  2.3187  2.3257
  703MOL0     H94896   5.681   5.546   1.803 -0.9655  1.8846  1.1768
  703MOL0     H94897   5.725   5.803   1.924  0.4918  0.5084 -0.3446
  703MOL0     H94898   5.837   5.664   1.924  0.2871  1.1103  1.6076
  703MOL0     H94899   5.665   5.510   2.038  0.8553  0.7907 -2.8995
  703MOL0     H94900   5.543   5.619   2.026  0.0862 -1.7440 -1.9975
  703MOL0     H94901   5.810   5.670   2.180  0.7673 -0.5026 -4.8290
  703MOL0     H94902   5.665   5.616   2.262  4.0499 -1.2451  0.0774
  703MOL0     H94903   5.627   6.031   2.208 -0.7121 -0.9102 -1.0462
  703MOL0     H94904   5.816   5.898   1.484 -1.6979  1.0590  0.3669
  703MOL0     H94905   5.702   5.889   1.256 -1.5510  0.7307 -0.5657
  704MOL0     O94906   3.488   2.638   6.049 -0.3532  0.4174  0.0905
  704MOL0     C94907   3.575   2.556   6.093  0.7962  0.1114 -0.3970
  704MOL0     O94908   3.647   2.471   6.016 -0.2303 -0.5957 -0.6497
  704MOL0     C94909   3.672   2.499   5.891  0.3326  0.6167  0.7679
  704MOL0     C94910   3.673   2.404   5.785 -0.5595  0.0425  0.6426
  704MOL0     C94911   3.696   2.441   5.648  0.8694  1.5800  0.5903
  704MOL0     C94912   3.704   2.575   5.619  0.3973 -0.2707  0.2114
  704MOL0     O94913   3.723   2.619   5.487 -0.3575 -0.3107  0.0000
  704MOL0     C94914   3.801   2.741   5.457  0.0919 -0.1145 -0.6359
  704MOL0     C94915   3.817   2.746   5.300  0.2918 -0.8943  0.8858
  704MOL0     C94916   3.862   2.885   5.236  0.2324  0.2832 -0.1787
  704MOL0     C94917   3.774   3.007   5.285  1.1158  0.4165  0.0394
  704MOL0     C94918   3.812   3.143   5.216 -0.7471 -0.4377 -1.2578
  704MOL0     C94919   3.729   3.256   5.260  0.2308 -0.2918  0.6898
  704MOL0     C94920   3.778   3.385   5.204 -0.0576 -0.4773 -1.0051
  704MOL0     C94921   3.731   3.427   5.063 -0.1923 -0.2191 -0.5560
  704MOL0     N94922   3.777   3.563   5.019  0.3707  1.0388 -0.4494
  704MOL0     C94923   3.903   3.580   4.980  0.2889  0.9233  0.0589
  704MOL0     C94924   3.904   3.711   4.951 -0.1896 -0.0272 -0.8230
  704MOL0     C94925   4.020   3.811   4.924  0.2649  0.5411 -0.2849
  704MOL0     C94926   4.043   3.811   4.774  0.0261 -0.3999  0.6237
  704MOL0     C94927   3.940   3.908   4.710 -0.8583  0.4078 -0.5396
  704MOL0     C94928   3.918   3.881   4.565  0.2738  0.0368 -0.4049
  704MOL0     O94929   4.012   3.959   4.488  0.4125 -0.5559 -1.0947
  704MOL0     C94930   4.019   3.932   4.353 -0.0924  1.2913  0.1399
  704MOL0     C94931   3.950   3.829   4.281  0.2767  0.1954 -0.9325
  704MOL0     C94932   3.960   3.829   4.139 -0.2658 -0.6318  0.6354
  704MOL0     C94933   3.916   3.708   4.059 -0.1008 -0.2571 -0.1110
  704MOL0     C94934   4.028   3.932   4.065 -0.2935  0.7124 -0.5737
  704MOL0     C94935   4.040   3.954   3.913  1.0482 -0.2733 -0.5762
  704MOL0     O94936   4.134   4.042   3.868 -1.0598 -0.3541  0.3413
  704MOL0     C94937   4.157   4.023   3.731  0.3604 -0.7119  0.6426
  704MOL0     C94938   4.201   4.141   3.665 -0.9209  0.0337 -0.0107
  704MOL0     C94939   4.241   4.159   3.536  0.0809  0.4289  0.1611
  704MOL0     C94940   4.260   4.039   3.464  0.4350 -0.8089  0.9584
  704MOL0     O94941   4.339   4.030   3.349  0.4008 -0.1749 -0.3813
  704MOL0     C94942   4.286   4.114   3.248 -0.8655  0.2743  0.8716
  704MOL0     C94943   4.339   4.076   3.110 -0.0934 -0.6095 -0.9556
  704MOL0     C94944   4.486   4.076   3.094 -0.3078  0.4884 -0.6094
  704MOL0     C94945   4.518   4.040   2.954  0.8375  0.6124 -0.0567
  704MOL0     C94946   4.663   4.031   2.916 -0.5818 -0.3126  0.9975
  704MOL0     C94947   4.744   3.923   2.991 -0.0322 -0.1312  0.7135
  704MOL0     C94948   4.879   3.876   2.928 -0.2055 -0.2509 -0.5723
  704MOL0     C94949   4.902   3.901   2.776 -0.7047  0.0820 -0.3023
  704MOL0    Cl94950   5.076   3.874   2.723  0.8398 -0.3167  0.3180
  704MOL0     C94951   4.225   3.911   3.525 -0.7277  0.0856  0.0200
  704MOL0     C94952   4.174   3.900   3.657  0.7681 -0.5674 -0.4859
  704MOL0     O94953   3.942   3.906   3.849 -0.0526 -0.3199 -1.4858
  704MOL0     C94954   4.104   4.018   4.138 -0.5784 -0.2432  0.4107
  704MOL0     C94955   4.098   4.008   4.276 -0.0771  0.9387 -0.4465
  704MOL0     N94956   3.768   3.755   4.963 -1.1963 -0.4769  1.2454
  704MOL0     N94957   3.692   3.665   5.003  0.3373 -0.5040 -0.4793
  704MOL0     C94958   3.693   2.671   5.719  1.3957 -0.0786 -0.3265
  704MOL0     C94959   3.684   2.636   5.855 -0.2384  0.1125  0.4233
  704MOL0     C94960   3.587   2.543   6.242 -0.2021  0.2672 -0.1985
  704MOL0     C94961   3.703   2.483   6.300  1.3499  0.5452  0.0211
  704MOL0     C94962   3.706   2.459   6.442 -0.4916 -0.0981 -0.1735
  704MOL0     C94963   3.594   2.505   6.531 -0.1584  0.5737  0.6164
  704MOL0     O94964   3.620   2.495   6.667  0.1228 -0.3294  1.1559
  704MOL0     C94965   3.523   2.552   6.752  0.3156  0.7484 -0.2515
  704MOL0     C94966   3.559   2.509   6.888  0.5900  0.2306  0.2965
  704MOL0     C94967   3.685   2.571   6.945  0.1993 -0.5584 -0.2180
  704MOL0     C94968   3.686   2.552   7.093 -0.4831 -1.6314 -0.6250
  704MOL0     C94969   3.677   2.408   7.114  0.3515  0.8088 -0.7443
  704MOL0     C94970   3.669   2.289   7.126 -0.0505  0.1408 -0.1299
  704MOL0     C94971   3.491   2.565   6.465  1.2386  0.0612  0.2770
  704MOL0     C94972   3.482   2.591   6.327 -0.2291 -0.7681 -0.4002
  704MOL0     H94973   3.674   2.297   5.804  2.8794  0.1427  1.7352
  704MOL0     H94974   3.686   2.359   5.578 -4.6477  0.7146  1.8811
  704MOL0     H94975   3.770   2.834   5.505  4.7646 -0.4919  4.0847
  704MOL0     H94976   3.899   2.725   5.503  0.4608 -1.7159 -1.8954
  704MOL0     H94977   3.895   2.676   5.268 -1.3888 -1.7764 -1.6187
  704MOL0     H94978   3.724   2.723   5.248 -0.7627 -1.0397  2.7486
  704MOL0     H94979   3.971   2.894   5.245  0.7264  0.4105 -4.2632
  704MOL0     H94980   3.849   2.874   5.128  0.8995  0.6359 -0.3018
  704MOL0     H94981   3.672   2.979   5.253  1.1988 -1.9605  1.6240
  704MOL0     H94982   3.779   3.032   5.391 -1.7355 -0.5083  0.4893
  704MOL0     H94983   3.915   3.171   5.240 -1.1843  1.6226 -1.6059
  704MOL0     H94984   3.799   3.145   5.108 -1.6633 -0.7412 -1.1636
  704MOL0     H94985   3.626   3.230   5.234  0.4236 -1.8392  1.3738
  704MOL0     H94986   3.744   3.267   5.368  1.1953  0.3194  0.5080
  704MOL0     H94987   3.743   3.473   5.258  1.3074 -0.2252 -0.4870
  704MOL0     H94988   3.887   3.384   5.201 -0.0238 -0.5451 -0.0605
  704MOL0     H94989   3.622   3.435   5.055 -0.2722  0.3990  0.9466
  704MOL0     H94990   3.782   3.350   5.003  2.7020  0.1320  1.2940
  704MOL0     H94991   3.990   3.516   4.990 -0.2100  0.0132 -1.1646
  704MOL0     H94992   4.003   3.911   4.965 -2.0507  1.1107 -2.3663
  704MOL0     H94993   4.110   3.781   4.978 -0.3782  0.1334  0.5893
  704MOL0     H94994   4.042   3.712   4.728  1.5259  0.3687 -1.1817
  704MOL0     H94995   4.141   3.853   4.752 -0.5535  1.5736  1.5342
  704MOL0     H94996   3.977   4.009   4.732 -0.1857 -0.1135  0.8662
  704MOL0     H94997   3.846   3.888   4.762  0.2543 -1.3171  0.9406
  704MOL0     H94998   3.821   3.919   4.535  0.4536  1.8747  1.1425
  704MOL0     H94999   3.938   3.775   4.548  1.4516 -0.0707  1.3080
  704MOL0     H95000   3.900   3.754   4.340  1.1111 -0.8558 -1.5339
  704MOL0     H95001   3.913   3.630   4.136 -0.9375  1.0799  1.2577
  704MOL0     H95002   3.820   3.725   4.009  0.8989  1.9656 -1.4118
  704MOL0     H95003   3.987   3.685   3.979 -2.9780  0.7112 -3.1644
  704MOL0     H95004   4.192   4.234   3.721  0.1936 -0.6142  1.3157
  704MOL0     H95005   4.253   4.260   3.499  0.2828  0.5960  0.6847
  704MOL0     H95006   4.177   4.110   3.242 -0.8515  1.3948 -0.9537
  704MOL0     H95007   4.307   4.220   3.265  0.7089  0.3669 -1.3361
  704MOL0     H95008   4.296   3.980   3.081 -2.9787  0.5229 -0.7868
  704MOL0     H95009   4.297   4.144   3.035 -1.6861 -0.5733 -0.0847
  704MOL0     H95010   4.532   3.999   3.156  0.7492  0.7791 -0.9955
  704MOL0     H95011   4.524   4.176   3.118  0.8499 -0.5446  2.3024
  704MOL0     H95012   4.472   3.941   2.946 -1.4832  1.5774  0.3331
  704MOL0     H95013   4.469   4.106   2.881  0.4646 -1.2420 -1.5467
  704MOL0     H95014   4.712   4.126   2.940 -4.8526  2.6556 -0.8605
  704MOL0     H95015   4.657   4.011   2.809  3.3384 -2.2850  0.9314
  704MOL0     H95016   4.758   3.957   3.094 -1.8301  2.3394  0.2375
  704MOL0     H95017   4.679   3.834   2.990 -2.9441  1.8205 -1.2915
  704MOL0     H95018   4.892   3.772   2.959 -0.2802  0.3420  1.6277
  704MOL0     H95019   4.956   3.935   2.979 -0.3478 -0.4320 -0.1396
  704MOL0     H95020   4.872   4.005   2.759 -3.7531 -0.6593 -0.0519
  704MOL0     H95021   4.836   3.833   2.721 -0.9619 -0.9578  1.2397
  704MOL0     H95022   4.242   3.815   3.477 -0.8038  0.1588 -0.1554
  704MOL0     H95023   4.148   3.802   3.696 -2.5439  0.5684  0.5787
  704MOL0     H95024   4.167   4.100   4.103  1.4393 -1.8101  0.2051
  704MOL0     H95025   4.143   4.082   4.341 -2.0284  0.0617  2.0815
  704MOL0     H95026   3.700   2.779   5.709 -0.4695  0.2273  1.2643
  704MOL0     H95027   3.691   2.717   5.927 -0.7481 -1.3093  2.1375
  704MOL0     H95028   3.781   2.439   6.238 -0.5409 -1.4709 -1.0507
  704MOL0     H95029   3.786   2.410   6.496  3.2217  0.4354 -4.5312
  704MOL0     H95030   3.520   2.661   6.746  1.7130  0.9292  1.5824
  704MOL0     H95031   3.424   2.521   6.717  0.8395  0.8910 -1.9446
  704MOL0     H95032   3.566   2.400   6.886  1.2606  0.2768 -2.0607
  704MOL0     H95033   3.476   2.533   6.956 -0.2660 -2.3482  0.2743
  704MOL0     H95034   3.690   2.679   6.929  1.2206 -0.0430  2.9283
  704MOL0     H95035   3.779   2.533   6.902  2.5006  0.8765  3.1503
  704MOL0     H95036   3.601   2.603   7.139  0.1662  0.3212 -1.4723
  704MOL0     H95037   3.776   2.586   7.145 -0.2429 -0.4248 -1.7931
  704MOL0     H95038   3.677   2.183   7.133  0.8289  0.1252 -0.9845
  704MOL0     H95039   3.409   2.608   6.522  0.7575 -0.4163 -0.0498
  704MOL0     H95040   3.410   2.649   6.271  1.4284  0.5581 -1.2482
  705MOL0     O95041   4.057   5.497   1.126  0.1631 -0.1880  0.5062
  705MOL0     C95042   4.147   5.562   1.172 -0.3541 -1.5076  1.2422
  705MOL0     O95043   4.157   5.697   1.156 -0.3891  0.5309  0.0551
  705MOL0     C95044   4.075   5.756   1.079  0.1594  0.1773  0.1008
  705MOL0     C95045   4.065   5.743   0.940 -0.6082 -0.1065 -0.0067
  705MOL0     C95046   3.979   5.827   0.865 -0.7670  0.5200  0.1661
  705MOL0     C95047   3.900   5.922   0.930  0.0983  0.4057  0.3299
  705MOL0     O95048   3.836   6.012   0.849  0.3130  0.2695  0.6084
  705MOL0     C95049   3.775   6.130   0.907 -0.3344 -0.2199  0.7520
  705MOL0     C95050   3.879   6.234   0.942 -0.6606  1.3235  0.2140
  705MOL0     C95051   3.842   6.337   1.043 -0.2693 -0.1706 -0.1545
  705MOL0     C95052   3.965   6.429   1.069  0.0163  0.0389  0.3285
  705MOL0     C95053   3.928   6.554   1.134  0.1286 -0.4620  1.1248
  705MOL0     C95054   4.052   6.623   1.170  0.0932 -0.4067  0.0496
  705MOL0     C95055   4.026   6.772   1.195 -0.1412 -0.3163  0.1320
  705MOL0     C95056   3.953   6.806   1.322  0.0512 -0.5571  0.1882
  705MOL0     N95057   3.945   6.944   1.350 -0.7715  0.3533 -0.8136
  705MOL0     C95058   3.868   7.031   1.280 -0.1651  1.0244 -0.8743
  705MOL0     C95059   3.907   7.156   1.319  0.2423 -0.2580  0.0233
  705MOL0     C95060   3.844   7.286   1.271  0.4969  0.1254 -0.0210
  705MOL0     C95061   3.695   7.288   1.264  0.9988 -1.1545 -0.7653
  705MOL0     C95062   3.630   7.295   1.410 -0.3978  0.0994  1.0452
  705MOL0     C95063   3.483   7.263   1.399  0.6908  0.1781 -0.6975
  705MOL0     O95064   3.440   7.142   1.331 -0.4141 -0.1242  0.5374
  705MOL0     C95065   3.485   7.021   1.380 -0.0765 -0.1995 -0.3909
  705MOL0     C95066   3.514   6.918   1.288 -1.2224  0.4752  0.0863
  705MOL0     C95067   3.578   6.795   1.326 -0.2526 -0.9008  0.0523
  705MOL0     C95068   3.590   6.700   1.214 -0.8220  0.5247  0.3195
  705MOL0     C95069   3.599   6.776   1.468  0.2125  0.8686  0.4888
  705MOL0     C95070   3.659   6.654   1.517 -1.0760  1.0011  0.2276
  705MOL0     O95071   3.664   6.643   1.650  0.9473 -0.5549 -0.2633
  705MOL0     C95072   3.729   6.553   1.729  0.8220  0.2341  0.9262
  705MOL0     C95073   3.687   6.527   1.859  0.0206 -0.6053  0.3518
  705MOL0     C95074   3.759   6.445   1.940  0.3241  0.4082 -0.9715
  705MOL0     C95075   3.870   6.374   1.906 -0.1348  0.1699  0.6448
  705MOL0     O95076   3.915   6.274   1.996  0.4667  0.1405  0.6138
  705MOL0     C95077   3.930   6.138   1.952  0.0092  0.5220 -0.1423
  705MOL0     C95078   3.797   6.066   1.959  0.7202 -0.3140 -0.0196
  705MOL0     C95079   3.749   6.053   2.098 -0.0637  0.1168  0.4624
  705MOL0     C95080   3.640   5.948   2.116  0.9069  0.6045  0.6963
  705MOL0     C95081   3.578   5.935   2.244 -0.1895 -0.0852 -0.2474
  705MOL0     C95082   3.485   5.819   2.250 -0.3665  0.2531 -0.7696
  705MOL0     C95083   3.421   5.813   2.395 -0.1347 -0.4142  0.5791
  705MOL0     C95084   3.295   5.719   2.406 -0.5890 -1.1281 -0.4322
  705MOL0    Cl95085   3.163   5.779   2.521 -0.0766  0.2228 -0.1928
  705MOL0     C95086   3.910   6.398   1.778  0.0561 -0.4550  0.3864
  705MOL0     C95087   3.840   6.483   1.683 -0.7337  1.0658 -1.1104
  705MOL0     O95088   3.690   6.563   1.441 -0.5705 -0.4916  0.2113
  705MOL0     C95089   3.567   6.879   1.553 -0.4856 -0.8908  0.0237
  705MOL0     C95090   3.511   6.995   1.510 -0.5600  0.1533 -1.0360
  705MOL0     N95091   4.012   7.137   1.404 -1.2150  0.3213 -0.1394
  705MOL0     N95092   4.037   7.009   1.429 -0.3355 -0.3645 -0.3238
  705MOL0     C95093   3.904   5.936   1.067 -0.1771 -0.3513 -0.4226
  705MOL0     C95094   3.991   5.861   1.136 -0.5857 -0.4237 -0.2688
  705MOL0     C95095   4.264   5.484   1.215 -0.1290  0.2754  0.4896
  705MOL0     C95096   4.271   5.351   1.208 -0.3740  0.4221 -0.1895
  705MOL0     C95097   4.386   5.285   1.226 -0.8147 -0.4461 -0.7185
  705MOL0     C95098   4.509   5.345   1.259  0.7509  0.1435 -0.4154
  705MOL0     O95099   4.617   5.278   1.305  0.2304  0.1641 -0.3589
  705MOL0     C95100   4.714   5.257   1.213 -1.0352  0.6670 -0.7999
  705MOL0     C95101   4.832   5.177   1.261  0.4907 -0.7446  0.0425
  705MOL0     C95102   4.801   5.039   1.309  0.3332 -0.2588 -0.3603
  705MOL0     C95103   4.917   4.975   1.376 -0.9291  0.1787 -0.2295
  705MOL0     C95104   5.030   4.947   1.288 -0.0326 -0.8106 -0.2443
  705MOL0     C95105   5.131   4.924   1.228  0.6541  0.0936  1.1627
  705MOL0     C95106   4.506   5.484   1.263 -0.2935  1.1175  0.5847
  705MOL0     C95107   4.389   5.546   1.231  0.1072 -1.0305  0.5875
  705MOL0     H95108   4.121   5.662   0.892  1.1955  1.2948 -0.3776
  705MOL0     H95109   3.983   5.821   0.757  2.1178  0.7056  0.1669
  705MOL0     H95110   3.700   6.166   0.836  0.1430  1.5652  1.0899
  705MOL0     H95111   3.707   6.102   0.988 -1.9789  1.3435 -0.0285
  705MOL0     H95112   3.953   6.181   1.003 -0.1672  1.6789 -0.0705
  705MOL0     H95113   3.930   6.277   0.855  0.3645  2.0738  1.1525
  705MOL0     H95114   3.755   6.394   1.007 -0.6073  0.8325  2.1147
  705MOL0     H95115   3.808   6.299   1.140 -0.1145  1.1159  0.4232
  705MOL0     H95116   4.031   6.379   1.141  1.5906  0.7771 -0.5454
  705MOL0     H95117   4.034   6.445   0.985 -0.8019  0.8224 -0.2165
  705MOL0     H95118   3.874   6.613   1.059 -0.5198 -2.9344 -0.5019
  705MOL0     H95119   3.866   6.534   1.222 -1.7209 -0.9387 -0.2171
  705MOL0     H95120   4.096   6.575   1.258  3.4322  1.0918 -0.6180
  705MOL0     H95121   4.136   6.619   1.099 -0.6617 -1.0544 -0.8323
  705MOL0     H95122   4.110   6.841   1.204 -0.2321 -0.1976  0.0792
  705MOL0     H95123   3.956   6.798   1.115 -0.3234  0.2476  0.4695
  705MOL0     H95124   4.029   6.763   1.387  1.7102  0.8792 -0.7115
  705MOL0     H95125   3.849   6.771   1.323 -1.2711  2.4487 -3.9263
  705MOL0     H95126   3.776   7.015   1.223 -1.3106  1.1560  0.8591
  705MOL0     H95127   3.873   7.360   1.346  1.4138 -1.2595  1.0451
  705MOL0     H95128   3.880   7.334   1.179 -1.4392  3.8664  0.9583
  705MOL0     H95129   3.662   7.203   1.204  4.6957 -2.4097 -1.2848
  705MOL0     H95130   3.653   7.370   1.204 -0.6933 -1.1530  0.3492
  705MOL0     H95131   3.653   7.393   1.452 -0.6841 -0.0212  1.4861
  705MOL0     H95132   3.676   7.215   1.469 -0.6493 -3.2764 -2.8586
  705MOL0     H95133   3.429   7.336   1.338 -1.4860  2.8760  3.9047
  705MOL0     H95134   3.433   7.268   1.496  1.1490 -0.7367 -0.4044
  705MOL0     H95135   3.478   6.939   1.188  0.1361  2.8966  0.0417
  705MOL0     H95136   3.638   6.603   1.230  0.4064  0.2654 -3.7124
  705MOL0     H95137   3.490   6.672   1.179  0.0708 -0.6930 -1.4279
  705MOL0     H95138   3.645   6.731   1.124  0.6817 -4.8284 -0.9781
  705MOL0     H95139   3.600   6.583   1.892 -1.6981 -3.5524  1.2876
  705MOL0     H95140   3.721   6.421   2.039  1.3450  2.4477 -0.0412
  705MOL0     H95141   3.977   6.125   1.855  1.2507 -3.0587  0.8027
  705MOL0     H95142   3.997   6.086   2.021 -0.9193 -0.9239 -0.2816
  705MOL0     H95143   3.723   6.130   1.910 -0.7546 -0.2085  2.2169
  705MOL0     H95144   3.794   5.965   1.916  1.5315  0.1449 -1.2279
  705MOL0     H95145   3.717   6.153   2.128  1.8573  0.2339  2.4109
  705MOL0     H95146   3.835   6.022   2.159 -0.2071  0.5871  0.9105
  705MOL0     H95147   3.557   5.971   2.048  0.3171  0.0398  1.2133
  705MOL0     H95148   3.678   5.849   2.091  1.5236  0.5821  1.6861
  705MOL0     H95149   3.524   6.023   2.280 -1.6035 -0.2347 -1.8668
  705MOL0     H95150   3.663   5.915   2.310 -2.5683 -1.7048  2.5496
  705MOL0     H95151   3.412   5.822   2.168  1.6831 -2.4361 -2.9052
  705MOL0     H95152   3.555   5.735   2.240  2.9150  2.9762 -4.1165
  705MOL0     H95153   3.382   5.912   2.419 -3.2134 -1.2788 -0.4098
  705MOL0     H95154   3.498   5.787   2.468  0.4517  0.0025  0.1161
  705MOL0     H95155   3.331   5.617   2.421 -0.0248 -0.8308  0.2829
  705MOL0     H95156   3.249   5.730   2.307 -0.6481 -1.5257 -0.4491
  705MOL0     H95157   3.989   6.337   1.734  1.4040  1.2987  0.2616
  705MOL0     H95158   3.871   6.492   1.579 -0.9137 -0.6302 -1.3288
  705MOL0     H95159   3.584   6.863   1.659 -4.6248  1.8196  1.3547
  705MOL0     H95160   3.523   7.078   1.579 -2.6997 -0.1581 -0.2251
  705MOL0     H95161   3.847   6.003   1.131  2.8689  1.6635  0.3649
  705MOL0     H95162   3.997   5.886   1.241 -2.2242  0.8510 -0.4344
  705MOL0     H95163   4.180   5.292   1.203 -0.2838  0.3730 -1.5431
  705MOL0     H95164   4.383   5.176   1.228  1.2229 -0.5256  0.4293
  705MOL0     H95165   4.677   5.197   1.129  0.4461 -2.5082  0.6056
  705MOL0     H95166   4.746   5.357   1.183 -3.9343  2.9686  2.8907
  705MOL0     H95167   4.874   5.230   1.347  1.8709  0.5882 -1.3692
  705MOL0     H95168   4.911   5.183   1.186 -0.3187 -2.0423 -0.9600
  705MOL0     H95169   4.778   4.989   1.214  0.1295  1.7057 -1.3995
  705MOL0     H95170   4.727   5.043   1.389  0.0688  3.5619 -0.5937
  705MOL0     H95171   4.878   4.879   1.411 -1.3362  0.2795 -0.3984
  705MOL0     H95172   4.953   5.032   1.462 -0.1349 -1.0624  0.2847
  705MOL0     H95173   5.209   4.905   1.157 -0.4644 -1.9858  0.4087
  705MOL0     H95174   4.596   5.538   1.292 -0.8798  1.7853  1.1969
  705MOL0     H95175   4.393   5.654   1.218 -0.7429 -1.3066 -2.7775
  706MOL0     O95176   3.707   8.814   2.165  0.3099  0.1231  0.2724
  706MOL0     C95177   3.625   8.824   2.252  0.4395 -0.0750  0.0403
  706MOL0     O95178   3.529   8.929   2.279 -0.3531 -0.5756 -0.4374
  706MOL0     C95179   3.518   9.037   2.192 -0.2964  0.2912 -0.1296
  706MOL0     C95180   3.439   9.151   2.239  0.3336 -0.1206 -0.1644
  706MOL0     C95181   3.416   9.263   2.162  0.6715  0.3036 -0.0307
  706MOL0     C95182   3.474   9.276   2.036 -0.4433 -0.0965 -0.0688
  706MOL0     O95183   3.482   9.411   1.993  0.2568 -0.7370 -0.4346
  706MOL0     C95184   3.599   9.456   1.931  0.0200  0.1839 -0.7255
  706MOL0     C95185   3.609   9.595   1.996  0.1646  0.4330 -0.3982
  706MOL0     C95186   3.714   9.684   1.931 -0.3887 -0.0919  0.1787
  706MOL0     C95187   3.693   9.700   1.782  0.5009 -0.4032 -0.0691
  706MOL0     C95188   3.801   9.793   1.721 -0.2181  0.6645 -0.6358
  706MOL0     C95189   3.776   9.803   1.563 -0.3953  0.7552  0.0153
  706MOL0     C95190   3.888   9.890   1.499 -0.2958  0.1937  1.1545
  706MOL0     C95191   3.884   9.873   1.346 -1.0008 -0.7790  0.5471
  706MOL0     N95192   3.974   9.962   1.277 -0.1674 -0.7775 -0.0650
  706MOL0     C95193   3.953  10.005   1.149  0.3014 -0.0116  0.3187
  706MOL0     C95194   4.066  10.050   1.100 -0.2701  0.5359  0.3487
  706MOL0     C95195   4.117  10.106   0.969  0.5884 -0.5064 -0.0490
  706MOL0     C95196   4.168  10.009   0.865 -0.2550 -0.2994 -0.6859
  706MOL0     C95197   4.185  10.073   0.729 -0.1694 -0.2037  1.2177
  706MOL0     C95198   4.290   9.994   0.648 -0.9377  0.8319 -0.0102
  706MOL0     O95199   4.222   9.882   0.596  0.1300  0.3371  0.5430
  706MOL0     C95200   4.303   9.779   0.546  1.0344 -0.1868 -0.5378
  706MOL0     C95201   4.443   9.770   0.532 -0.6758 -0.1432 -0.4773
  706MOL0     C95202   4.522   9.649   0.492  0.2226 -0.2026 -0.7937
  706MOL0     C95203   4.670   9.645   0.495 -0.2256  1.0836 -0.2979
  706MOL0     C95204   4.441   9.546   0.440 -0.3636  0.9380 -0.5038
  706MOL0     C95205   4.495   9.415   0.385  1.5347  1.1695 -0.3888
  706MOL0     O95206   4.402   9.328   0.346  0.0468 -0.1099 -0.1940
  706MOL0     C95207   4.450   9.214   0.294  0.9314  0.7800  0.2234
  706MOL0     C95208   4.414   9.176   0.163  0.0415 -0.7011  0.1303
  706MOL0     C95209   4.479   9.071   0.098  0.7849 -0.0703  0.1808
  706MOL0     C95210   4.553   8.986   0.170 -0.2062  0.4811 -0.0967
  706MOL0     O95211   4.609   8.867   0.122 -0.4945 -0.6122  0.4782
  706MOL0     C95212   4.582   8.819  -0.005  0.1108  0.1453 -0.4442
  706MOL0     C95213   4.636   8.672  -0.005  0.4577  0.2798  0.3341
  706MOL0     C95214   4.784   8.652   0.002  0.4687 -0.2264 -0.0366
  706MOL0     C95215   4.848   8.657  -0.131  0.0362 -0.0115 -0.1028
  706MOL0     C95216   4.983   8.597  -0.131  0.5225  0.1044  0.1671
  706MOL0     C95217   4.976   8.435  -0.126  0.0079 -0.0253 -0.0610
  706MOL0     C95218   4.963   8.380  -0.264  0.3486  0.4113 -0.3254
  706MOL0     C95219   4.984   8.226  -0.254  1.0467  0.0076  1.2488
  706MOL0    Cl95220   5.001   8.133  -0.409 -0.0835 -0.1793 -0.2842
  706MOL0     C95221   4.583   9.018   0.300  0.2997  0.4240 -0.2208
  706MOL0     C95222   4.539   9.127   0.369 -0.5129  0.0222 -0.0612
  706MOL0     O95223   4.613   9.390   0.396 -0.2571 -0.3573  0.1101
  706MOL0     C95224   4.299   9.556   0.448 -0.4792  0.4626 -0.2174
  706MOL0     C95225   4.232   9.667   0.499 -0.4115 -0.0339 -0.1603
  706MOL0     N95226   4.167  10.023   1.191  0.4552  0.6434 -0.7238
  706MOL0     N95227   4.108   9.970   1.302  0.5756 -0.6220 -0.0765
  706MOL0     C95228   3.542   9.169   1.981  0.1402 -0.5960  0.1753
  706MOL0     C95229   3.565   9.053   2.061  0.5604 -0.0690  0.5672
  706MOL0     C95230   3.645   8.725   2.358 -0.2437 -0.0219  0.6487
  706MOL0     C95231   3.615   8.760   2.488 -0.2155 -0.2197  0.5839
  706MOL0     C95232   3.659   8.681   2.595 -0.6589  0.3758  0.6412
  706MOL0     C95233   3.728   8.555   2.566 -0.0517  0.0672  0.1374
  706MOL0     O95234   3.782   8.473   2.668 -0.4449 -0.3571 -0.2730
  706MOL0     C95235   3.760   8.517   2.798  0.3550 -0.3911  0.7374
  706MOL0     C95236   3.816   8.406   2.900  0.5155  0.3145 -0.8734
  706MOL0     C95237   3.971   8.402   2.913 -0.4350  0.4466 -0.1893
  706MOL0     C95238   4.062   8.520   2.933  0.3177 -0.1441  0.3805
  706MOL0     C95239   4.197   8.479   2.965 -1.2582  0.3379 -0.1173
  706MOL0     C95240   4.311   8.455   3.002  0.8784  0.1491  0.3705
  706MOL0     C95241   3.747   8.511   2.429  0.3853  0.5490  0.3368
  706MOL0     C95242   3.707   8.602   2.331  0.3908 -0.1485  0.2131
  706MOL0     H95243   3.391   9.148   2.336 -3.0761 -0.9993 -1.7005
  706MOL0     H95244   3.382   9.355   2.208  4.4504  2.0823 -0.3560
  706MOL0     H95245   3.687   9.408   1.974  0.4805  3.6067  2.7012
  706MOL0     H95246   3.584   9.451   1.823  0.7792  2.6385 -1.0177
  706MOL0     H95247   3.517   9.652   2.012 -0.6067 -1.4464  2.8063
  706MOL0     H95248   3.646   9.576   2.097  1.5761 -0.8699 -1.1295
  706MOL0     H95249   3.720   9.783   1.975  1.5225  0.7980 -1.8715
  706MOL0     H95250   3.804   9.621   1.932 -1.5462 -2.0447 -2.9357
  706MOL0     H95251   3.704   9.603   1.734  0.2103 -0.2661 -0.4228
  706MOL0     H95252   3.596   9.741   1.751 -1.1687 -3.3342  0.8945
  706MOL0     H95253   3.798   9.894   1.763  1.2542 -0.1273  1.5770
  706MOL0     H95254   3.898   9.748   1.743 -1.3207 -2.2984 -1.3421
  706MOL0     H95255   3.776   9.705   1.514 -2.8555  0.5818  0.2616
  706MOL0     H95256   3.678   9.848   1.547  0.2499  1.6554 -1.7164
  706MOL0     H95257   3.880   9.996   1.521 -1.4798  1.2058 -3.1219
  706MOL0     H95258   3.982   9.851   1.539  0.2280 -0.5149 -0.6746
  706MOL0     H95259   3.785   9.867   1.300  0.5019 -2.0354 -2.8646
  706MOL0     H95260   3.932   9.776   1.332  2.9051  1.0457 -0.0849
  706MOL0     H95261   3.866   9.992   1.085 -1.4272 -2.4793  2.9214
  706MOL0     H95262   4.046  10.178   0.926  0.9387  0.3084  0.6939
  706MOL0     H95263   4.207  10.159   1.004 -1.3104  2.4656  0.6801
  706MOL0     H95264   4.107   9.918   0.862  0.2895 -0.7627  1.0934
  706MOL0     H95265   4.262   9.974   0.909 -0.8076  1.4180  2.1005
  706MOL0     H95266   4.208  10.180   0.727  1.4510 -0.5282 -0.0514
  706MOL0     H95267   4.089  10.076   0.676 -0.3698 -0.4232  1.5654
  706MOL0     H95268   4.376   9.965   0.709 -0.8504  2.3391  0.6117
  706MOL0     H95269   4.339  10.049   0.567 -2.1217  0.5683 -0.9320
  706MOL0     H95270   4.506   9.850   0.568  0.4263 -1.7181  1.3011
  706MOL0     H95271   4.700   9.742   0.534 -0.0815  0.5856  0.8605
  706MOL0     H95272   4.696   9.563   0.562 -0.7081  0.4880 -0.8271
  706MOL0     H95273   4.720   9.633   0.398  1.9497 -1.0658  0.9499
  706MOL0     H95274   4.350   9.245   0.109 -1.3649 -1.0855  1.2519
  706MOL0     H95275   4.453   9.056  -0.007  0.2585  0.3975  0.2418
  706MOL0     H95276   4.475   8.808  -0.024  0.1695 -0.4982 -0.4080
  706MOL0     H95277   4.631   8.877  -0.084 -1.3203  3.4835  0.9189
  706MOL0     H95278   4.609   8.618   0.087  4.9736  0.0615  1.7962
  706MOL0     H95279   4.588   8.626  -0.092 -0.8958  1.8007  0.2325
  706MOL0     H95280   4.803   8.557   0.053  0.2833  0.0152  0.4891
  706MOL0     H95281   4.837   8.726   0.064  1.9533 -0.4761 -0.9465
  706MOL0     H95282   4.785   8.608  -0.206  1.6783 -0.7935 -1.0158
  706MOL0     H95283   4.858   8.762  -0.162  1.0212 -0.0256  0.1392
  706MOL0     H95284   5.045   8.632  -0.049 -1.0672 -1.0224  1.9347
  706MOL0     H95285   5.032   8.633  -0.222  0.9128 -0.6054  0.0858
  706MOL0     H95286   5.070   8.397  -0.085  0.8240  0.5400 -1.3440
  706MOL0     H95287   4.897   8.396  -0.062 -1.3693 -0.4197 -1.9365
  706MOL0     H95288   5.042   8.424  -0.327 -1.1274  0.8983 -1.9297
  706MOL0     H95289   4.869   8.418  -0.304  0.5707  1.1407 -0.1739
  706MOL0     H95290   4.900   8.183  -0.198  0.3771 -1.6251 -0.8610
  706MOL0     H95291   5.070   8.187  -0.198 -0.3100 -2.1597  1.9557
  706MOL0     H95292   4.658   8.956   0.350 -2.7644 -0.9616  3.1375
  706MOL0     H95293   4.571   9.151   0.470  1.3443 -2.4161  0.0274
  706MOL0     H95294   4.234   9.482   0.401 -0.4667 -0.2912  0.9230
  706MOL0     H95295   4.125   9.658   0.483 -0.5297  1.3091 -0.2397
  706MOL0     H95296   3.595   9.174   1.886  3.4995 -0.4450  1.8731
  706MOL0     H95297   3.615   8.980   1.998 -0.9488  2.5538 -4.0995
  706MOL0     H95298   3.565   8.856   2.495  0.5480  0.8092 -4.5340
  706MOL0     H95299   3.634   8.715   2.695 -0.4974 -2.6410  1.8100
  706MOL0     H95300   3.781   8.620   2.829  0.5111  0.2378 -1.3063
  706MOL0     H95301   3.652   8.526   2.812 -0.2426  3.7367 -3.7446
  706MOL0     H95302   3.779   8.305   2.879  2.3534 -1.2449  2.5412
  706MOL0     H95303   3.783   8.440   2.998  1.8414 -0.0839 -0.2769
  706MOL0     H95304   4.003   8.345   2.825  0.9916 -1.1824  1.2900
  706MOL0     H95305   3.984   8.340   3.002  0.2665  0.3149 -0.3770
  706MOL0     H95306   4.025   8.589   3.009  2.0010  1.1265  0.0778
  706MOL0     H95307   4.072   8.573   2.838  0.5313  1.1879  1.1231
  706MOL0     H95308   4.403   8.430   3.050  0.5605 -2.2012 -0.1272
  706MOL0     H95309   3.796   8.415   2.416  2.2992  1.5216  0.0108
  706MOL0     H95310   3.734   8.566   2.233  2.7291 -0.5317  0.9464
  707MOL0     O95311   9.005   6.324   4.835 -0.3061 -0.5061 -0.2329
  707MOL0     C95312   8.897   6.369   4.873  1.1740  0.1471  0.7171
  707MOL0     O95313   8.793   6.296   4.941 -0.4788  0.0878 -0.5924
  707MOL0     C95314   8.773   6.157   4.941 -0.2872 -0.3690 -0.4721
  707MOL0     C95315   8.679   6.107   5.029 -0.1009 -0.0812 -0.0598
  707MOL0     C95316   8.656   5.965   5.042 -0.0415 -0.0932  0.8030
  707MOL0     C95317   8.730   5.875   4.968  0.1391  0.6889 -0.0261
  707MOL0     O95318   8.702   5.744   4.946  0.1000 -0.1312 -0.0601
  707MOL0     C95319   8.594   5.689   5.018 -0.6911 -0.0968  0.4712
  707MOL0     C95320   8.624   5.647   5.171 -0.8134  0.0863  0.2781
  707MOL0     C95321   8.575   5.506   5.196  0.0958 -0.4710  0.3032
  707MOL0     C95322   8.641   5.469   5.337 -0.1664  0.5859 -0.3087
  707MOL0     C95323   8.626   5.316   5.354  0.1431  0.3319 -0.9990
  707MOL0     C95324   8.722   5.267   5.470 -0.2659  0.0187 -0.3767
  707MOL0     C95325   8.721   5.116   5.489  0.1262  0.3593 -0.5826
  707MOL0     C95326   8.603   5.055   5.566  0.2294  0.1797 -0.3091
  707MOL0     N95327   8.500   4.985   5.485 -0.0597  0.0405  0.5517
  707MOL0     C95328   8.393   4.906   5.533  0.1638  0.6144 -0.6435
  707MOL0     C95329   8.343   4.835   5.428  0.1934 -0.2500 -0.2563
  707MOL0     C95330   8.233   4.738   5.425 -0.3331  0.2245 -0.7033
  707MOL0     C95331   8.298   4.602   5.416  0.2913  0.3169 -0.5481
  707MOL0     C95332   8.179   4.503   5.400  0.1080  0.4593  0.2260
  707MOL0     C95333   8.131   4.464   5.243  0.9453  0.5535 -0.2516
  707MOL0     O95334   7.994   4.458   5.234  0.6888 -0.0313 -1.6757
  707MOL0     C95335   7.932   4.567   5.187 -0.6131 -0.0487  0.4844
  707MOL0     C95336   7.951   4.628   5.059 -1.5839 -0.4638 -0.8412
  707MOL0     C95337   7.878   4.735   5.012 -0.5763 -0.9651 -0.3757
  707MOL0     C95338   7.920   4.802   4.874 -0.8863  0.8674 -1.3182
  707MOL0     C95339   7.768   4.780   5.087 -0.2974 -0.0447  0.3085
  707MOL0     C95340   7.674   4.886   5.040  0.8949  0.0913  0.1331
  707MOL0     O95341   7.625   4.865   4.915  0.2083  0.3694  0.2772
  707MOL0     C95342   7.514   4.927   4.876  0.2334 -0.0260  0.3138
  707MOL0     C95343   7.534   5.046   4.813  0.6452 -0.1983  0.1394
  707MOL0     C95344   7.426   5.120   4.755  0.3252  0.2605 -0.4689
  707MOL0     C95345   7.296   5.070   4.761  0.2195 -0.0731 -0.1010
  707MOL0     O95346   7.192   5.133   4.701  0.7180  0.5034  0.0166
  707MOL0     C95347   7.176   5.269   4.748 -0.0737 -0.4389  0.0333
  707MOL0     C95348   7.068   5.328   4.635 -0.1321 -0.4232 -0.5610
  707MOL0     C95349   7.026   5.462   4.647 -0.3003 -0.3274 -0.2044
  707MOL0     C95350   6.924   5.494   4.764 -0.3576 -0.4185  0.8057
  707MOL0     C95351   6.811   5.590   4.716  0.7774  0.5538 -0.5730
  707MOL0     C95352   6.736   5.622   4.843  0.0601  0.2847  1.2088
  707MOL0     C95353   6.614   5.697   4.816  0.8120  0.3466  0.3707
  707MOL0     C95354   6.502   5.689   4.914 -0.2863 -0.3817 -0.3661
  707MOL0    Cl95355   6.562   5.722   5.077  0.1876 -0.7679  0.1805
  707MOL0     C95356   7.278   4.946   4.831 -0.2961 -1.3750  0.7888
  707MOL0     C95357   7.384   4.868   4.882  0.4834 -0.5507 -0.3849
  707MOL0     O95358   7.647   4.980   5.122 -0.1182 -0.2063 -0.3896
  707MOL0     C95359   7.746   4.726   5.215 -0.0986 -0.1651 -0.0801
  707MOL0     C95360   7.826   4.612   5.259 -0.1187  0.2847 -0.4161
  707MOL0     N95361   8.408   4.884   5.318 -0.1329  0.6464 -0.8394
  707MOL0     N95362   8.497   4.961   5.350 -0.4612 -0.5733  0.5759
  707MOL0     C95363   8.812   5.933   4.875 -0.0610 -0.5426  0.3954
  707MOL0     C95364   8.838   6.068   4.864 -0.4086 -0.9454  0.0093
  707MOL0     C95365   8.884   6.516   4.874 -0.3868  0.2865 -0.5163
  707MOL0     C95366   8.989   6.592   4.835  0.6391 -1.2657 -0.0385
  707MOL0     C95367   8.988   6.730   4.841 -0.1829 -0.3059 -0.4177
  707MOL0     C95368   8.888   6.799   4.909  1.6595  0.1062  0.2923
  707MOL0     O95369   8.876   6.935   4.923  0.2302 -0.6350  0.2793
  707MOL0     C95370   8.827   7.010   4.813 -1.1301  0.5394 -0.3587
  707MOL0     C95371   8.690   7.057   4.843 -0.1155  0.0969 -0.7149
  707MOL0     C95372   8.564   6.994   4.776  0.7300  1.4864  0.6934
  707MOL0     C95373   8.581   6.949   4.625 -0.5936 -0.9411 -0.0063
  707MOL0     C95374   8.627   6.817   4.592  0.4884 -1.1937  1.0130
  707MOL0     C95375   8.685   6.721   4.563  0.2781 -0.9827  0.3268
  707MOL0     C95376   8.772   6.720   4.946 -0.2403  0.1073  0.5898
  707MOL0     C95377   8.767   6.579   4.933  0.0370  0.3996  0.5268
  707MOL0     H95378   8.618   6.183   5.077 -0.9740  0.5926 -2.1318
  707MOL0     H95379   8.587   5.928   5.117 -0.2470 -4.1740 -1.1398
  707MOL0     H95380   8.512   5.761   5.031  1.0581  1.9241  0.9151
  707MOL0     H95381   8.569   5.597   4.965  1.9095 -0.6198  0.0013
  707MOL0     H95382   8.729   5.654   5.199 -0.5242  1.5623 -1.0405
  707MOL0     H95383   8.567   5.713   5.236 -4.6823 -1.0186 -1.6594
  707MOL0     H95384   8.466   5.507   5.210  0.4457 -1.2605  4.1318
  707MOL0     H95385   8.595   5.441   5.110 -2.4898 -1.0547  0.0546
  707MOL0     H95386   8.746   5.502   5.342 -0.7284  2.3559  0.4841
  707MOL0     H95387   8.586   5.511   5.421 -1.0065 -1.3231  0.1425
  707MOL0     H95388   8.520   5.298   5.371  0.0777  0.0054 -1.7314
  707MOL0     H95389   8.655   5.266   5.261 -1.4453 -2.2851 -0.2024
  707MOL0     H95390   8.822   5.305   5.450  0.3598 -0.5055  1.5375
  707MOL0     H95391   8.688   5.305   5.566 -0.5852 -2.5185  0.5989
  707MOL0     H95392   8.728   5.060   5.396  1.1698 -0.5996  0.0495
  707MOL0     H95393   8.818   5.094   5.536  0.5017 -1.3912 -2.0781
  707MOL0     H95394   8.556   5.126   5.635  0.9040  1.1414 -0.8151
  707MOL0     H95395   8.638   4.978   5.635 -0.9367  2.4144  3.0307
  707MOL0     H95396   8.364   4.900   5.637  0.2458 -1.0301 -0.6875
  707MOL0     H95397   8.189   4.754   5.524 -0.9281 -0.6225 -0.8177
  707MOL0     H95398   8.160   4.750   5.344 -0.3604  3.1925 -0.3711
  707MOL0     H95399   8.365   4.583   5.501  0.5628  0.3565 -0.7533
  707MOL0     H95400   8.368   4.601   5.332 -0.5635 -0.9435 -1.2682
  707MOL0     H95401   8.100   4.544   5.463 -0.8288 -0.7293 -0.1362
  707MOL0     H95402   8.200   4.410   5.453 -3.2550 -0.7760 -0.3562
  707MOL0     H95403   8.163   4.362   5.218  0.7347 -0.4443  2.9943
  707MOL0     H95404   8.179   4.534   5.174 -3.0884  4.1360  0.1680
  707MOL0     H95405   8.026   4.577   4.999 -0.9410 -1.8130  1.0246
  707MOL0     H95406   7.998   4.878   4.877  2.6225 -2.4614 -0.6184
  707MOL0     H95407   7.972   4.723   4.819  1.2960  0.0163  1.7394
  707MOL0     H95408   7.839   4.838   4.810 -0.6626  0.7671 -1.6579
  707MOL0     H95409   7.635   5.081   4.790  1.4034 -2.0072  0.5714
  707MOL0     H95410   7.449   5.207   4.695 -2.0571  2.0168  0.9760
  707MOL0     H95411   7.119   5.278   4.840  0.0977 -1.6090  0.2765
  707MOL0     H95412   7.271   5.323   4.743  0.1822 -0.9743 -1.5946
  707MOL0     H95413   7.128   5.325   4.544  1.1218  0.1146  0.2168
  707MOL0     H95414   6.977   5.267   4.628  0.4498 -1.2822 -0.7283
  707MOL0     H95415   6.982   5.497   4.553 -0.4522  0.8972  0.3009
  707MOL0     H95416   7.113   5.519   4.680  0.1868 -2.6526  3.0651
  707MOL0     H95417   6.882   5.399   4.798  0.0667 -0.4223  1.3408
  707MOL0     H95418   6.969   5.558   4.841 -3.2949 -1.7149  3.8654
  707MOL0     H95419   6.733   5.543   4.655  1.5821 -1.5988 -0.0409
  707MOL0     H95420   6.861   5.673   4.666  1.3173  0.7995  0.3559
  707MOL0     H95421   6.714   5.524   4.885  1.8738  0.3741  2.4714
  707MOL0     H95422   6.797   5.673   4.918  0.6786 -1.5634  2.0164
  707MOL0     H95423   6.559   5.662   4.728  0.2620  0.0982  0.7986
  707MOL0     H95424   6.637   5.803   4.805 -1.2003  0.8540  0.5341
  707MOL0     H95425   6.469   5.585   4.909  0.8108 -0.7609  0.0553
  707MOL0     H95426   6.425   5.757   4.877  0.4768 -0.5411 -2.3890
  707MOL0     H95427   7.177   4.910   4.845  0.1163 -3.1741 -0.5276
  707MOL0     H95428   7.368   4.770   4.927  2.5750 -1.1079 -0.7055
  707MOL0     H95429   7.660   4.764   5.270  0.5932  0.5862  0.4932
  707MOL0     H95430   7.815   4.563   5.355 -3.6308 -0.5996 -1.1405
  707MOL0     H95431   8.880   5.864   4.825  0.0727  0.2246 -0.4939
  707MOL0     H95432   8.928   6.096   4.810 -0.5450 -0.5763 -0.0286
  707MOL0     H95433   9.070   6.538   4.788  0.2734  0.5327 -2.9476
  707MOL0     H95434   9.068   6.795   4.806 -2.5709  2.1725 -1.5810
  707MOL0     H95435   8.892   7.095   4.793  0.2725 -0.6125 -0.8110
  707MOL0     H95436   8.824   6.958   4.716 -2.1430  1.8718 -1.0860
  707MOL0     H95437   8.690   7.164   4.820  1.8261  0.4539  0.6777
  707MOL0     H95438   8.663   7.053   4.948 -0.6609  1.1904 -0.7970
  707MOL0     H95439   8.476   7.059   4.774 -1.4213 -1.2291  0.7833
  707MOL0     H95440   8.536   6.906   4.834  2.3473 -0.5706 -1.4297
  707MOL0     H95441   8.647   7.021   4.575 -0.3151 -0.4362  1.0620
  707MOL0     H95442   8.481   6.959   4.582 -0.1425  1.6842 -0.5981
  707MOL0     H95443   8.732   6.626   4.547 -3.1865 -2.7065 -0.5669
  707MOL0     H95444   8.685   6.762   4.995  1.0534  1.1034  2.1132
  707MOL0     H95445   8.685   6.518   4.969  0.1791  0.7507  1.4586
  708MOL0     O95446   4.646   1.386   3.644 -0.9044  0.1125  0.1028
  708MOL0     C95447   4.665   1.409   3.763 -0.0993  0.4533 -0.4755
  708MOL0     O95448   4.773   1.346   3.835  1.1748 -0.8994 -0.6130
  708MOL0     C95449   4.876   1.304   3.756 -0.2797  0.2757 -0.6028
  708MOL0     C95450   4.965   1.389   3.691  0.7487 -0.5689 -0.0791
  708MOL0     C95451   5.081   1.345   3.625  0.3778 -1.1766  0.4531
  708MOL0     C95452   5.114   1.210   3.624 -0.0825  0.1290  0.1241
  708MOL0     O95453   5.226   1.166   3.568 -0.6013 -0.7245 -0.0380
  708MOL0     C95454   5.349   1.227   3.605 -0.7438 -0.2793 -0.0456
  708MOL0     C95455   5.452   1.141   3.536  0.0493  0.9291 -0.0819
  708MOL0     C95456   5.491   1.017   3.620 -0.2691  0.5569  0.1580
  708MOL0     C95457   5.598   0.943   3.547  0.5105  0.2398 -0.4773
  708MOL0     C95458   5.660   0.822   3.628  0.7994  0.0749 -0.1954
  708MOL0     C95459   5.776   0.758   3.552 -0.1878  0.3721 -0.1542
  708MOL0     C95460   5.834   0.620   3.605  0.6355 -0.4869  1.7141
  708MOL0     C95461   5.728   0.508   3.591  0.5920  0.1485 -0.1276
  708MOL0     N95462   5.781   0.376   3.640  0.5015 -0.1566 -0.2218
  708MOL0     C95463   5.692   0.269   3.638 -0.1294  2.2136 -0.0830
  708MOL0     C95464   5.751   0.173   3.716 -0.1095 -0.2744 -0.2444
  708MOL0     C95465   5.708   0.035   3.762 -0.3540 -0.8703 -0.8769
  708MOL0     C95466   5.708  -0.069   3.657 -0.0551  0.8563  0.4664
  708MOL0     C95467   5.675  -0.211   3.714 -0.5091  0.0665  0.5808
  708MOL0     C95468   5.734  -0.322   3.624 -1.2932  0.0214  1.0177
  708MOL0     O95469   5.681  -0.444   3.651 -0.7466 -0.2869  1.1470
  708MOL0     C95470   5.567  -0.482   3.594 -0.4364 -0.4025  0.4698
  708MOL0     C95471   5.523  -0.607   3.644  0.8199  0.1072  0.1123
  708MOL0     C95472   5.398  -0.668   3.612 -0.1121 -0.7676  0.8458
  708MOL0     C95473   5.364  -0.811   3.655  0.2868  0.1743 -0.2333
  708MOL0     C95474   5.308  -0.591   3.522  0.2104  0.4570  1.3263
  708MOL0     C95475   5.171  -0.628   3.486  0.2960 -1.0604  0.4152
  708MOL0     O95476   5.082  -0.523   3.477 -0.0884  0.3068  0.2924
  708MOL0     C95477   4.964  -0.543   3.414 -0.2453 -0.3424  0.5451
  708MOL0     C95478   4.844  -0.495   3.472 -0.2998  0.0941  0.2525
  708MOL0     C95479   4.723  -0.512   3.404  0.1985  0.4915  0.4765
  708MOL0     C95480   4.713  -0.572   3.275 -0.9967  0.5536 -0.0839
  708MOL0     O95481   4.597  -0.592   3.218  0.1676 -0.1262 -0.0472
  708MOL0     C95482   4.595  -0.675   3.108  0.5580 -0.0707 -0.0625
  708MOL0     C95483   4.447  -0.714   3.072  0.2493 -0.4294 -0.1154
  708MOL0     C95484   4.343  -0.608   3.058  0.0322 -1.3859  0.5807
  708MOL0     C95485   4.238  -0.663   2.970  0.7535 -0.8602  0.0090
  708MOL0     C95486   4.106  -0.577   2.958  0.1359  0.4552  0.2238
  708MOL0     C95487   4.135  -0.463   2.866 -0.3304 -0.5719  0.0635
  708MOL0     C95488   4.113  -0.504   2.719 -0.1456  0.7325 -0.0642
  708MOL0     C95489   4.127  -0.381   2.629 -0.3887  0.3335  0.2050
  708MOL0    Cl95490   4.296  -0.304   2.657 -0.0686 -0.1501 -0.1413
  708MOL0     C95491   4.843  -0.607   3.216  0.3508  0.1688 -0.0905
  708MOL0     C95492   4.964  -0.594   3.281 -0.0018  0.0238  0.3555
  708MOL0     O95493   5.145  -0.743   3.457 -0.5162 -0.4658 -0.1315
  708MOL0     C95494   5.344  -0.462   3.485 -0.1798 -0.1114 -0.4948
  708MOL0     C95495   5.467  -0.404   3.530 -0.9042 -0.3836 -0.2103
  708MOL0     N95496   5.872   0.231   3.760 -1.4255 -0.2687 -0.2321
  708MOL0     N95497   5.892   0.346   3.711  0.5211  0.2003  0.3447
  708MOL0     C95498   5.023   1.121   3.685 -0.2687 -0.6662 -0.3215
  708MOL0     C95499   4.908   1.161   3.754  0.4433 -1.0164 -0.3484
  708MOL0     C95500   4.568   1.493   3.838 -0.7210  0.1474 -0.8609
  708MOL0     C95501   4.554   1.477   3.972 -0.8919  0.9596  0.3498
  708MOL0     C95502   4.474   1.561   4.049 -0.0396 -0.5239 -0.7985
  708MOL0     C95503   4.405   1.670   3.995 -0.2818 -0.1904 -0.1386
  708MOL0     O95504   4.341   1.758   4.076  0.5698  0.3991 -0.0281
  708MOL0     C95505   4.206   1.775   4.045 -0.0326  0.0759  0.6357
  708MOL0     C95506   4.116   1.669   4.101  0.7664 -0.2220 -0.5422
  708MOL0     C95507   4.112   1.675   4.251 -0.1726 -0.0944 -0.0864
  708MOL0     C95508   4.054   1.801   4.316 -0.0471 -0.0816  0.1855
  708MOL0     C95509   3.920   1.837   4.261 -0.4028 -0.3421 -1.2170
  708MOL0     C95510   3.813   1.878   4.237 -0.2397  0.9755 -0.0362
  708MOL0     C95511   4.428   1.700   3.861  0.4612  0.7245 -0.0902
  708MOL0     C95512   4.509   1.610   3.784 -0.1728 -0.0495 -0.1139
  708MOL0     H95513   4.938   1.494   3.693  0.8327 -0.4380 -2.4212
  708MOL0     H95514   5.150   1.415   3.579 -0.0110 -0.2263  1.2835
  708MOL0     H95515   5.366   1.324   3.557  1.5204  0.7210  2.5246
  708MOL0     H95516   5.360   1.236   3.713  0.5655 -0.0178 -0.1826
  708MOL0     H95517   5.415   1.120   3.435 -1.0406  2.9017 -0.1461
  708MOL0     H95518   5.540   1.202   3.517 -0.9318  2.7822  0.9936
  708MOL0     H95519   5.540   1.032   3.716  0.2229  1.3775 -0.2132
  708MOL0     H95520   5.402   0.953   3.628 -0.6616  1.1511  0.6794
  708MOL0     H95521   5.559   0.896   3.457  0.7083 -0.0212 -0.4276
  708MOL0     H95522   5.682   1.010   3.525  1.2736 -0.2225  0.8982
  708MOL0     H95523   5.692   0.842   3.730  1.6661  3.2796 -0.9608
  708MOL0     H95524   5.576   0.752   3.634 -1.3247  2.4966  0.0880
  708MOL0     H95525   5.750   0.751   3.446 -0.6085  0.5622 -0.0643
  708MOL0     H95526   5.864   0.824   3.552  0.1423 -0.0206 -2.0012
  708MOL0     H95527   5.923   0.599   3.545  1.0548  2.8400  0.9673
  708MOL0     H95528   5.865   0.629   3.710 -2.4659  2.1348  2.5679
  708MOL0     H95529   5.696   0.503   3.487 -2.7927 -1.9938  0.8537
  708MOL0     H95530   5.642   0.529   3.655  3.0095  2.3946  2.7066
  708MOL0     H95531   5.590   0.274   3.599 -0.2979 -1.0237 -0.3294
  708MOL0     H95532   5.780   0.013   3.841 -0.6595  3.6236  0.9853
  708MOL0     H95533   5.605   0.043   3.799 -1.1233 -1.7313 -2.7090
  708MOL0     H95534   5.804  -0.093   3.611 -1.0019 -2.7802  0.0179
  708MOL0     H95535   5.624  -0.045   3.591 -1.8233  1.7291  2.9066
  708MOL0     H95536   5.567  -0.224   3.730 -0.6800 -1.7400 -1.5171
  708MOL0     H95537   5.717  -0.212   3.815 -0.6837  1.0324  0.6685
  708MOL0     H95538   5.842  -0.325   3.637 -1.0287  1.2230 -0.5591
  708MOL0     H95539   5.715  -0.303   3.518 -0.1071 -1.8878  0.4203
  708MOL0     H95540   5.590  -0.650   3.718 -0.9297 -0.1456  1.6301
  708MOL0     H95541   5.447  -0.865   3.701 -0.8490 -2.0536 -0.7072
  708MOL0     H95542   5.279  -0.821   3.724 -1.5551  0.4052 -2.3275
  708MOL0     H95543   5.335  -0.851   3.558  1.6187  1.7104 -1.3238
  708MOL0     H95544   4.839  -0.440   3.565  0.5500  0.7869 -0.0965
  708MOL0     H95545   4.632  -0.478   3.453 -1.3863 -0.1999 -1.8404
  708MOL0     H95546   4.633  -0.616   3.024 -1.7221  3.6451  1.2332
  708MOL0     H95547   4.647  -0.766   3.139  0.2932 -0.0256  0.5159
  708MOL0     H95548   4.464  -0.762   2.975 -2.0017  2.5826 -2.2015
  708MOL0     H95549   4.412  -0.783   3.148 -1.3044  1.7034  1.2195
  708MOL0     H95550   4.397  -0.528   3.007  2.3977 -1.4801  2.7438
  708MOL0     H95551   4.308  -0.571   3.155  0.2391 -0.0273  0.1556
  708MOL0     H95552   4.284  -0.694   2.875  0.7175  2.1287 -1.1102
  708MOL0     H95553   4.197  -0.757   3.007 -1.5402 -0.9597 -2.5001
  708MOL0     H95554   4.084  -0.546   3.060 -3.0343 -4.5519  1.4434
  708MOL0     H95555   4.021  -0.638   2.924  2.0982 -1.3268 -1.8134
  708MOL0     H95556   4.066  -0.384   2.896  1.3561  0.4238  1.5038
  708MOL0     H95557   4.234  -0.417   2.872  0.3416 -0.6605 -5.2672
  708MOL0     H95558   4.018  -0.558   2.711 -1.5277  3.1541 -1.2099
  708MOL0     H95559   4.184  -0.585   2.696 -1.4247 -0.9384  1.5609
  708MOL0     H95560   4.046  -0.310   2.650 -1.9409 -1.6509  1.3765
  708MOL0     H95561   4.136  -0.426   2.530 -0.8448 -3.2582  1.6587
  708MOL0     H95562   4.843  -0.631   3.110  0.5662  1.6022 -0.4463
  708MOL0     H95563   5.057  -0.611   3.227  0.4017  2.9168 -0.0661
  708MOL0     H95564   5.274  -0.397   3.433  1.2541  3.0632  1.2962
  708MOL0     H95565   5.474  -0.296   3.523  0.2695 -0.0600  3.6501
  708MOL0     H95566   5.048   1.016   3.680  0.4131 -0.5968  1.1388
  708MOL0     H95567   4.834   1.096   3.798  0.0121 -0.7361 -0.6510
  708MOL0     H95568   4.613   1.405   4.028  1.2061  2.7328  0.5479
  708MOL0     H95569   4.469   1.562   4.157  0.5001  1.9597 -0.7381
  708MOL0     H95570   4.170   1.872   4.081 -0.5182  0.9030 -1.8529
  708MOL0     H95571   4.188   1.777   3.937 -0.1764 -1.4338  0.6107
  708MOL0     H95572   4.140   1.572   4.057  4.4556  0.8232 -1.1818
  708MOL0     H95573   4.011   1.684   4.075  0.5311  4.0386  1.9752
  708MOL0     H95574   4.205   1.656   4.306 -0.5928  0.2521  0.7710
  708MOL0     H95575   4.056   1.589   4.292 -0.1818  0.4199  1.0212
  708MOL0     H95576   4.115   1.891   4.305  0.3284 -0.0078  2.3577
  708MOL0     H95577   4.041   1.768   4.419  0.6149 -1.7505 -0.2298
  708MOL0     H95578   3.721   1.924   4.204 -0.5360  1.9517  1.9958
  708MOL0     H95579   4.370   1.767   3.800 -0.1337  0.6729  0.4108
  708MOL0     H95580   4.521   1.609   3.676  0.8844 -0.9033 -0.0019
  709MOL0     O95581   4.605   6.879   6.499  0.5493  0.8866  0.3925
  709MOL0     C95582   4.619   6.941   6.396  1.2614 -0.1278 -0.8144
  709MOL0     O95583   4.538   7.030   6.343 -0.2763  0.1416 -0.1181
  709MOL0     C95584   4.431   7.083   6.417 -0.0213  0.7128 -1.2943
  709MOL0     C95585   4.343   7.019   6.508 -0.0153 -0.3095 -0.5335
  709MOL0     C95586   4.234   7.083   6.569 -0.8714  0.0220 -0.0486
  709MOL0     C95587   4.202   7.213   6.532 -1.2703 -0.5745 -0.2946
  709MOL0     O95588   4.086   7.264   6.593 -0.6366  0.1752  0.5724
  709MOL0     C95589   4.048   7.403   6.567 -0.6634  0.2487 -0.4608
  709MOL0     C95590   3.945   7.427   6.457 -0.7949  0.2468  1.8750
  709MOL0     C95591   3.813   7.366   6.491 -0.3379 -0.6380 -0.2204
  709MOL0     C95592   3.716   7.359   6.376 -0.0354 -0.0541  0.7975
  709MOL0     C95593   3.572   7.316   6.423 -0.8018  0.1412  0.3308
  709MOL0     C95594   3.551   7.186   6.490 -0.5607  0.2153 -0.7518
  709MOL0     C95595   3.408   7.135   6.471 -0.4215  0.9314 -0.3323
  709MOL0     C95596   3.389   7.005   6.532 -0.9473  0.2696 -0.1122
  709MOL0     N95597   3.260   6.940   6.503 -0.0243  0.1703 -0.6929
  709MOL0     C95598   3.237   6.811   6.540 -0.1848  0.0151 -0.0910
  709MOL0     C95599   3.102   6.800   6.541 -0.5849  0.1353  0.1621
  709MOL0     C95600   3.044   6.665   6.534  0.1847  1.6728 -0.0154
  709MOL0     C95601   3.020   6.599   6.669  0.2113 -0.2167 -0.3626
  709MOL0     C95602   2.954   6.464   6.661  0.0638  0.0529 -0.3860
  709MOL0     C95603   3.054   6.353   6.605  0.1846  0.0929 -0.8050
  709MOL0     O95604   3.004   6.217   6.648 -0.6244  0.2025 -0.0397
  709MOL0     C95605   2.884   6.172   6.597  0.0281 -0.3272 -0.8733
  709MOL0     C95606   2.800   6.092   6.676  0.6481 -0.0920 -1.1485
  709MOL0     C95607   2.669   6.064   6.642 -0.6501 -0.6485  0.0089
  709MOL0     C95608   2.592   6.000   6.750  0.3867  0.3811  0.3188
  709MOL0     C95609   2.622   6.094   6.510  0.4240  0.3144 -0.5718
  709MOL0     C95610   2.485   6.057   6.464  0.1953 -0.7612 -0.4066
  709MOL0     O95611   2.431   6.166   6.392 -0.1312  0.1151  0.1505
  709MOL0     C95612   2.298   6.162   6.377 -0.7564 -0.3467  0.2801
  709MOL0     C95613   2.215   6.215   6.466  0.2313 -0.2622 -0.1627
  709MOL0     C95614   2.081   6.209   6.452  0.2511 -0.6265 -0.4876
  709MOL0     C95615   2.030   6.159   6.337  1.0136 -0.6662 -0.9889
  709MOL0     O95616   1.897   6.176   6.311 -0.2110 -0.3970  0.9102
  709MOL0     C95617   1.845   6.309   6.335 -0.0845 -0.0630 -0.5840
  709MOL0     C95618   1.721   6.345   6.257  0.2966  0.4998 -0.7168
  709MOL0     C95619   1.749   6.385   6.114  0.5592 -0.8468  0.2047
  709MOL0     C95620   1.764   6.256   6.027 -0.4751 -0.8646  0.0088
  709MOL0     C95621   1.793   6.295   5.875 -0.3126  0.3187  0.2335
  709MOL0     C95622   1.932   6.366   5.850 -0.3464 -0.0920  0.4019
  709MOL0     C95623   2.051   6.274   5.864 -0.2268  1.5365  0.2134
  709MOL0     C95624   2.161   6.314   5.770 -0.3436 -0.1784  0.7312
  709MOL0    Cl95625   2.310   6.218   5.808  0.1446 -0.0491 -0.5893
  709MOL0     C95626   2.115   6.101   6.236 -0.2715 -0.2437  0.3121
  709MOL0     C95627   2.255   6.105   6.257 -0.1511 -0.1900  0.3850
  709MOL0     O95628   2.423   5.957   6.498 -1.8732 -0.5634 -0.2839
  709MOL0     C95629   2.713   6.160   6.424  0.3832 -0.2507  0.5613
  709MOL0     C95630   2.837   6.204   6.468  0.9303 -0.8685 -0.3237
  709MOL0     N95631   3.042   6.909   6.498 -0.5822  0.4731  0.0779
  709MOL0     N95632   3.138   7.001   6.487  0.0705 -0.3366 -0.5872
  709MOL0     C95633   4.286   7.278   6.434 -0.2188 -0.4387 -0.5494
  709MOL0     C95634   4.395   7.215   6.383  0.8673  0.3759 -0.0781
  709MOL0     C95635   4.734   6.908   6.310 -0.5342  1.2521 -0.9075
  709MOL0     C95636   4.836   6.822   6.365 -0.5367 -0.3923 -0.4086
  709MOL0     C95637   4.938   6.772   6.289 -0.4142 -0.7538  0.3456
  709MOL0     C95638   4.960   6.817   6.161 -0.1250 -0.1170 -0.5707
  709MOL0     O95639   5.069   6.792   6.083  0.2126  1.3969  0.2652
  709MOL0     C95640   5.149   6.680   6.118 -0.8516  0.9847 -0.8621
  709MOL0     C95641   5.267   6.661   6.023 -0.2192  0.5027  0.8200
  709MOL0     C95642   5.233   6.657   5.873  0.1620 -0.1576 -0.0908
  709MOL0     C95643   5.365   6.639   5.790  0.2596  0.0405 -0.5631
  709MOL0     C95644   5.330   6.617   5.650 -0.5297 -0.7372  0.3936
  709MOL0     C95645   5.311   6.611   5.532 -0.7822  0.5100 -0.3489
  709MOL0     C95646   4.877   6.917   6.105  0.0729 -0.0456 -0.1512
  709MOL0     C95647   4.752   6.951   6.176  0.5177 -0.8091 -0.1483
  709MOL0     H95648   4.354   6.917   6.544  1.1107  0.0461  0.1737
  709MOL0     H95649   4.177   7.035   6.647  0.2267  3.0585  2.8538
  709MOL0     H95650   3.993   7.445   6.652 -3.4284 -0.2063 -1.9101
  709MOL0     H95651   4.136   7.468   6.565  0.0811 -0.6844  0.5814
  709MOL0     H95652   3.937   7.536   6.460  4.2728  0.8834  1.9651
  709MOL0     H95653   3.979   7.398   6.357 -1.1191  2.7874  0.9607
  709MOL0     H95654   3.834   7.262   6.518  1.5741 -1.0167 -2.8023
  709MOL0     H95655   3.770   7.432   6.568  1.0773  0.2728 -0.1698
  709MOL0     H95656   3.701   7.457   6.329 -3.0275 -0.3309  0.9603
  709MOL0     H95657   3.754   7.279   6.312  0.4678  0.5557  0.3204
  709MOL0     H95658   3.535   7.394   6.490  3.4937  1.2458  1.7505
  709MOL0     H95659   3.512   7.311   6.332 -1.4863 -0.1583  0.7964
  709MOL0     H95660   3.618   7.111   6.447 -0.6679 -2.2688  2.9847
  709MOL0     H95661   3.574   7.201   6.596 -0.9963 -2.6882 -0.1609
  709MOL0     H95662   3.333   7.204   6.511  0.4105  1.3723  0.5150
  709MOL0     H95663   3.386   7.124   6.364  1.1288  0.1511 -0.5933
  709MOL0     H95664   3.394   7.008   6.642  2.2740 -1.0237 -0.1244
  709MOL0     H95665   3.470   6.946   6.490 -0.7253  1.0033 -0.7304
  709MOL0     H95666   3.313   6.734   6.554 -0.8261 -0.6303 -0.0893
  709MOL0     H95667   2.948   6.672   6.481  1.1883 -0.6452 -2.4169
  709MOL0     H95668   3.102   6.595   6.473  0.6461  3.6910 -2.0150
  709MOL0     H95669   2.949   6.660   6.725 -1.6388 -0.6632 -2.0915
  709MOL0     H95670   3.107   6.600   6.735 -1.5770  1.4291  2.1212
  709MOL0     H95671   2.857   6.469   6.611 -0.7465  0.3451  1.1496
  709MOL0     H95672   2.917   6.424   6.756 -4.1514 -0.0872 -1.8379
  709MOL0     H95673   3.152   6.380   6.646 -0.4539 -0.4102  1.1736
  709MOL0     H95674   3.074   6.358   6.498 -0.3468  0.2768 -0.9017
  709MOL0     H95675   2.842   6.038   6.759  0.0211 -0.8494 -1.3160
  709MOL0     H95676   2.487   6.029   6.762  0.1906 -0.2941  0.2583
  709MOL0     H95677   2.587   5.891   6.739 -2.2948  0.3136  1.5499
  709MOL0     H95678   2.635   6.014   6.850 -0.1703 -1.4786  0.8488
  709MOL0     H95679   2.242   6.267   6.557 -0.8383 -0.0400  0.0402
  709MOL0     H95680   2.030   6.250   6.539  1.0123  2.3297 -1.3141
  709MOL0     H95681   1.799   6.295   6.434  3.2030  0.0013  1.0742
  709MOL0     H95682   1.922   6.387   6.334  1.7583 -1.8103 -0.4423
  709MOL0     H95683   1.647   6.265   6.264 -1.5791  2.1334 -1.1664
  709MOL0     H95684   1.662   6.422   6.306 -0.8500 -1.2342  0.7221
  709MOL0     H95685   1.835   6.453   6.108 -0.8088  0.8915 -4.7616
  709MOL0     H95686   1.664   6.437   6.069  1.5995  0.9243  0.1683
  709MOL0     H95687   1.844   6.194   6.069 -0.1695 -0.2355  0.3563
  709MOL0     H95688   1.665   6.209   6.036 -1.8503  1.9937  0.9580
  709MOL0     H95689   1.704   6.352   5.849 -0.2653  1.3676  2.1377
  709MOL0     H95690   1.799   6.202   5.817 -0.4736  0.3077  0.2354
  709MOL0     H95691   1.936   6.392   5.744 -0.8825  1.3601  0.7105
  709MOL0     H95692   1.940   6.458   5.908  0.1667  0.0740  0.0759
  709MOL0     H95693   2.024   6.169   5.850 -0.3393  1.3105  1.8906
  709MOL0     H95694   2.079   6.271   5.970 -2.0220  0.7966  0.7064
  709MOL0     H95695   2.182   6.422   5.774  0.1985 -0.0827 -2.2501
  709MOL0     H95696   2.130   6.294   5.667 -0.6540 -0.5423  0.8955
  709MOL0     H95697   2.089   6.052   6.143  2.5129 -1.1077 -0.1002
  709MOL0     H95698   2.329   6.067   6.187 -0.5394 -1.8669  0.8343
  709MOL0     H95699   2.677   6.184   6.324  1.7935  1.8471  0.4969
  709MOL0     H95700   2.899   6.254   6.394 -1.6910  2.6671 -0.3721
  709MOL0     H95701   4.268   7.379   6.397 -1.3376 -0.3918  0.0712
  709MOL0     H95702   4.455   7.266   6.308  0.8802 -0.5770 -0.7279
  709MOL0     H95703   4.820   6.772   6.460 -1.1095  3.8050  1.9314
  709MOL0     H95704   5.003   6.695   6.328  0.7090  0.2434  0.5114
  709MOL0     H95705   5.185   6.699   6.220 -0.8105  3.5195 -1.3059
  709MOL0     H95706   5.099   6.585   6.142  0.3634  1.0762  2.5734
  709MOL0     H95707   5.317   6.572   6.062  1.4002 -0.2251 -2.5428
  709MOL0     H95708   5.335   6.747   6.033 -1.5084  1.5211  1.1384
  709MOL0     H95709   5.181   6.752   5.863 -1.0744 -0.6463  1.3000
  709MOL0     H95710   5.159   6.580   5.846  0.9669 -0.8644 -0.3363
  709MOL0     H95711   5.416   6.549   5.824  0.8773  0.9911  1.1736
  709MOL0     H95712   5.424   6.728   5.816  0.7681 -0.9409  2.0257
  709MOL0     H95713   5.288   6.588   5.430  0.2327 -1.6135 -0.1700
  709MOL0     H95714   4.910   6.954   6.008 -4.1659  1.3965 -1.2658
  709MOL0     H95715   4.678   7.011   6.123 -2.1009 -1.4016  2.5431
  710MOL0     O95716   6.811   1.543   4.492 -0.1360 -0.2317  0.5036
  710MOL0     C95717   6.807   1.494   4.604  0.6741 -0.1595  0.5732
  710MOL0     O95718   6.725   1.394   4.643  0.0646 -0.1158 -0.2951
  710MOL0     C95719   6.671   1.296   4.556 -0.1382  0.2503 -0.2349
  710MOL0     C95720   6.706   1.257   4.425 -0.1905  0.3018 -0.3636
  710MOL0     C95721   6.654   1.148   4.357  0.0033 -0.1335 -0.8241
  710MOL0     C95722   6.549   1.078   4.411 -0.0521  0.5528  0.1535
  710MOL0     O95723   6.504   0.971   4.337  0.0011 -0.1927 -1.6995
  710MOL0     C95724   6.442   0.867   4.410 -0.3868  0.1345 -0.3610
  710MOL0     C95725   6.413   0.751   4.311 -0.0789 -0.6601  0.5924
  710MOL0     C95726   6.388   0.615   4.376 -0.2153  0.5050  0.4572
  710MOL0     C95727   6.323   0.516   4.276 -0.0381  0.2222 -0.4235
  710MOL0     C95728   6.313   0.369   4.339 -0.0202 -0.5430 -0.7452
  710MOL0     C95729   6.230   0.357   4.468  0.4637  0.0814 -0.6359
  710MOL0     C95730   6.199   0.203   4.498 -0.2715  0.9426 -0.1694
  710MOL0     C95731   6.128   0.201   4.635 -0.3963 -0.1534  0.6766
  710MOL0     N95732   5.972   0.196   4.630 -0.1786 -0.2338  0.3332
  710MOL0     C95733   5.899   0.086   4.589  0.0233 -0.0260 -0.1129
  710MOL0     C95734   5.782   0.141   4.543  0.1089  0.5525 -0.1677
  710MOL0     C95735   5.662   0.074   4.490 -0.7247 -0.0734  0.2702
  710MOL0     C95736   5.580   0.009   4.609 -0.7905  0.1166  0.8335
  710MOL0     C95737   5.450  -0.039   4.573 -0.6686 -0.5562  0.8862
  710MOL0     C95738   5.400  -0.139   4.674  0.4737  0.8869 -0.3372
  710MOL0     O95739   5.466  -0.268   4.676  0.1045 -0.2776  0.3242
  710MOL0     C95740   5.469  -0.356   4.562 -0.8804 -0.0649 -0.4124
  710MOL0     C95741   5.367  -0.350   4.472  0.1841 -0.6588  0.5075
  710MOL0     C95742   5.368  -0.422   4.356  0.0660 -0.5473 -0.0932
  710MOL0     C95743   5.251  -0.399   4.257 -0.8243 -0.3287 -0.8496
  710MOL0     C95744   5.476  -0.509   4.322  0.0534 -0.1850 -0.4087
  710MOL0     C95745   5.488  -0.590   4.200 -0.0587  0.6564 -0.4050
  710MOL0     O95746   5.589  -0.675   4.202  0.7433 -0.3643 -0.0639
  710MOL0     C95747   5.610  -0.761   4.095 -0.8080 -0.2572 -0.7217
  710MOL0     C95748   5.679  -0.709   3.986  1.1796  0.1937  0.6857
  710MOL0     C95749   5.692  -0.800   3.867 -0.4859 -0.2562 -0.5632
  710MOL0     C95750   5.644  -0.934   3.869 -0.9744  0.1628 -0.0759
  710MOL0     O95751   5.668  -1.016   3.759 -0.6126  0.1978  0.2496
  710MOL0     C95752   5.646  -1.157   3.760  0.0924  0.1914 -0.0259
  710MOL0     C95753   5.676  -1.211   3.618  0.2193 -0.6947  0.6100
  710MOL0     C95754   5.582  -1.155   3.504  0.4679 -0.0755  0.2188
  710MOL0     C95755   5.624  -1.228   3.376  1.8153 -1.2217 -0.1417
  710MOL0     C95756   5.515  -1.191   3.268  0.0734 -0.6064 -0.1279
  710MOL0     C95757   5.552  -1.226   3.122 -0.3035  0.5424  0.6252
  710MOL0     C95758   5.428  -1.242   3.024 -0.5689  0.3104 -0.2157
  710MOL0     C95759   5.467  -1.300   2.877 -1.3282  0.2687 -0.0457
  710MOL0    Cl95760   5.597  -1.196   2.800  0.2953  0.1968  0.1362
  710MOL0     C95761   5.592  -0.977   3.989  0.1587  0.0935 -0.6760
  710MOL0     C95762   5.570  -0.894   4.100  0.0139 -0.2451  0.2017
  710MOL0     O95763   5.404  -0.593   4.115 -0.1565 -0.1061 -1.3393
  710MOL0     C95764   5.574  -0.513   4.423  0.3608 -0.9031  1.1083
  710MOL0     C95765   5.577  -0.435   4.538 -0.3143 -0.2590  0.0309
  710MOL0     N95766   5.785   0.271   4.578 -0.4394 -0.1547 -0.2129
  710MOL0     N95767   5.899   0.308   4.636  0.3696 -1.0178  0.5830
  710MOL0     C95768   6.514   1.109   4.542  0.0308  0.0803  0.6697
  710MOL0     C95769   6.578   1.214   4.616 -0.3126  0.6165 -0.0304
  710MOL0     C95770   6.911   1.539   4.700  0.6172 -0.3912  0.6921
  710MOL0     C95771   6.905   1.502   4.835  0.3412  0.3213  0.1395
  710MOL0     C95772   6.996   1.528   4.931  0.2652  0.2967  0.5379
  710MOL0     C95773   7.107   1.593   4.882  0.4260 -0.1862  0.2768
  710MOL0     O95774   7.210   1.616   4.970 -0.5233 -0.3438 -0.4233
  710MOL0     C95775   7.330   1.688   4.931  0.6603 -0.0128  0.7524
  710MOL0     C95776   7.389   1.743   5.058  0.0641  0.6504  0.1516
  710MOL0     C95777   7.420   1.638   5.165  0.0536  0.9441 -0.6575
  710MOL0     C95778   7.516   1.520   5.123  0.6451  0.0013  0.3237
  710MOL0     C95779   7.550   1.428   5.239 -0.2057  0.3444 -0.2086
  710MOL0     C95780   7.576   1.375   5.350  0.6699 -0.1216  1.3695
  710MOL0     C95781   7.119   1.633   4.748 -0.8781 -0.9005  0.1636
  710MOL0     C95782   7.016   1.621   4.662  0.1817  0.2451 -0.1746
  710MOL0     H95783   6.774   1.328   4.378 -0.7160  0.4643 -0.8929
  710MOL0     H95784   6.700   1.130   4.260  2.9295  0.1761  0.3747
  710MOL0     H95785   6.513   0.830   4.483 -0.0200  0.8848 -0.3269
  710MOL0     H95786   6.346   0.895   4.454 -0.1620  0.2076  0.0876
  710MOL0     H95787   6.334   0.781   4.242  1.1441 -1.4048 -1.2087
  710MOL0     H95788   6.500   0.746   4.245  2.0935 -0.8615  3.2865
  710MOL0     H95789   6.479   0.568   4.414 -1.1998 -0.9065  1.1244
  710MOL0     H95790   6.319   0.624   4.460 -0.7947 -4.9288  0.9204
  710MOL0     H95791   6.218   0.539   4.256  0.1760 -1.0144 -3.5456
  710MOL0     H95792   6.379   0.494   4.185 -1.1311 -3.9258 -0.3158
  710MOL0     H95793   6.268   0.314   4.256  1.5559  1.6558 -3.2491
  710MOL0     H95794   6.414   0.331   4.356  1.4580  2.9367 -0.9157
  710MOL0     H95795   6.266   0.414   4.554 -2.8178 -0.5823  1.3339
  710MOL0     H95796   6.129   0.401   4.463  0.3251  0.7969  4.0070
  710MOL0     H95797   6.147   0.153   4.416  1.1187 -3.5595  1.3978
  710MOL0     H95798   6.293   0.148   4.507  0.1673  1.7215  0.1733
  710MOL0     H95799   6.152   0.289   4.695 -0.3075  0.2259  0.0851
  710MOL0     H95800   6.163   0.111   4.687  0.1543 -1.2200 -1.4297
  710MOL0     H95801   5.933  -0.018   4.588  0.4445  0.0812  1.0053
  710MOL0     H95802   5.611   0.146   4.425  2.2398 -0.4267 -2.7079
  710MOL0     H95803   5.698  -0.006   4.424  0.4712 -0.5174  1.4213
  710MOL0     H95804   5.565   0.082   4.688 -3.6180 -0.7983  1.2654
  710MOL0     H95805   5.637  -0.076   4.648  0.2630  1.1622  1.6249
  710MOL0     H95806   5.459  -0.094   4.479 -3.3202 -0.3558  0.4368
  710MOL0     H95807   5.371   0.037   4.565 -0.5724 -0.1973  2.9168
  710MOL0     H95808   5.293  -0.161   4.663  0.1546  0.7084  2.4424
  710MOL0     H95809   5.401  -0.082   4.767  0.8461 -2.6983  2.0367
  710MOL0     H95810   5.293  -0.273   4.493 -0.1609 -0.2423 -1.8978
  710MOL0     H95811   5.194  -0.308   4.275 -2.1109 -1.4332  1.0766
  710MOL0     H95812   5.289  -0.390   4.155 -2.1107  2.6065 -1.1827
  710MOL0     H95813   5.186  -0.487   4.267 -0.5730 -0.2409  4.2129
  710MOL0     H95814   5.709  -0.605   3.981 -0.5725  0.6895 -1.5868
  710MOL0     H95815   5.739  -0.763   3.776 -2.1653  2.6155 -0.3820
  710MOL0     H95816   5.699  -1.211   3.839 -0.4037 -2.8169 -1.6008
  710MOL0     H95817   5.543  -1.179   3.790  0.3331  0.1649  0.8185
  710MOL0     H95818   5.780  -1.185   3.600 -0.6494  2.6048 -0.3807
  710MOL0     H95819   5.667  -1.320   3.614  1.3793 -0.7581 -1.4905
  710MOL0     H95820   5.599  -1.049   3.483  1.3093 -0.2768 -0.1822
  710MOL0     H95821   5.478  -1.176   3.529 -0.1929  1.6534 -0.9422
  710MOL0     H95822   5.722  -1.195   3.341  1.1058  1.8605  0.5647
  710MOL0     H95823   5.626  -1.336   3.397  2.8706 -1.2368 -0.2725
  710MOL0     H95824   5.505  -1.083   3.283 -0.0012 -0.9990  3.4325
  710MOL0     H95825   5.419  -1.229   3.302 -1.4526  4.2155  1.8903
  710MOL0     H95826   5.628  -1.162   3.076  2.3787 -1.7966  1.4719
  710MOL0     H95827   5.601  -1.324   3.122 -1.4796 -0.1458 -2.4115
  710MOL0     H95828   5.378  -1.145   3.009  0.8398  0.9847 -0.6865
  710MOL0     H95829   5.361  -1.316   3.069  0.7287 -0.0630  1.1515
  710MOL0     H95830   5.386  -1.335   2.813  0.1436  0.1616 -1.9216
  710MOL0     H95831   5.527  -1.391   2.891  0.9210  2.0047  2.7548
  710MOL0     H95832   5.556  -1.077   4.009  1.7499 -0.4833 -0.5417
  710MOL0     H95833   5.525  -0.925   4.193 -0.1488  2.3578  1.0585
  710MOL0     H95834   5.657  -0.582   4.415  0.4050 -0.6429 -1.9280
  710MOL0     H95835   5.667  -0.431   4.598  1.8669 -0.4814 -2.9533
  710MOL0     H95836   6.441   1.052   4.597 -2.7359  1.0434 -1.7500
  710MOL0     H95837   6.561   1.248   4.718 -0.9805  0.6859 -0.1650
  710MOL0     H95838   6.805   1.468   4.858  0.4972  0.3570  0.9260
  710MOL0     H95839   6.992   1.502   5.036  3.5978 -1.4888  0.3723
  710MOL0     H95840   7.398   1.622   4.877 -0.1039  1.2595 -1.9358
  710MOL0     H95841   7.315   1.776   4.867  2.3556 -0.3193 -0.1268
  710MOL0     H95842   7.337   1.824   5.110  1.0786  0.4160  1.6055
  710MOL0     H95843   7.478   1.784   5.009 -2.3688  1.2235 -4.3391
  710MOL0     H95844   7.332   1.587   5.205  1.6218 -2.3213 -1.0666
  710MOL0     H95845   7.471   1.684   5.250  2.0840  0.9591 -1.8113
  710MOL0     H95846   7.608   1.562   5.082  1.5281 -2.2717 -0.1734
  710MOL0     H95847   7.470   1.457   5.047 -0.6532  0.4670  0.6971
  710MOL0     H95848   7.591   1.319   5.440 -0.6203 -2.9617 -0.0805
  710MOL0     H95849   7.204   1.696   4.723  1.8262 -3.1972  2.6873
  710MOL0     H95850   7.033   1.670   4.567  3.3899  2.1774  1.2385
  711MOL0     O95851   1.140   4.301   6.233  0.4739  0.5361  0.0353
  711MOL0     C95852   1.172   4.361   6.339  0.3833 -0.2000  0.1638
  711MOL0     O95853   1.104   4.474   6.395 -0.8460 -0.1152 -0.7562
  711MOL0     C95854   1.003   4.522   6.310  0.0169 -0.3168  0.1234
  711MOL0     C95855   0.876   4.465   6.320  0.0095  0.2743  0.1965
  711MOL0     C95856   0.771   4.485   6.228 -0.1163  0.5059 -0.9353
  711MOL0     C95857   0.788   4.580   6.128 -0.1785  0.4950 -1.1652
  711MOL0     O95858   0.675   4.596   6.053  0.3079  0.8322  0.3770
  711MOL0     C95859   0.683   4.680   5.940  0.7556  0.0676 -0.1583
  711MOL0     C95860   0.549   4.734   5.900 -0.1495 -0.2303  0.1393
  711MOL0     C95861   0.579   4.835   5.798 -0.0752  0.5643 -0.1482
  711MOL0     C95862   0.458   4.847   5.713  0.4252 -0.1916 -0.1131
  711MOL0     C95863   0.479   4.945   5.605  0.1104 -0.5494  0.6953
  711MOL0     C95864   0.352   4.939   5.515  0.2702 -0.0470  0.6446
  711MOL0     C95865   0.361   5.015   5.377  0.5980  1.6246  0.7191
  711MOL0     C95866   0.222   5.002   5.302  0.4339 -1.2520  0.1228
  711MOL0     N95867   0.235   5.010   5.156  0.1232 -0.5686  0.3566
  711MOL0     C95868   0.204   4.908   5.070 -0.5581 -0.2788  0.0386
  711MOL0     C95869   0.238   4.956   4.945  0.0755 -0.6515 -1.0502
  711MOL0     C95870   0.218   4.879   4.812  0.1789 -0.2239 -0.4918
  711MOL0     C95871   0.170   4.967   4.697  0.3581  0.3177 -0.3057
  711MOL0     C95872   0.153   4.894   4.568 -1.4114  0.5283 -0.3174
  711MOL0     C95873   0.282   4.833   4.512 -0.2381 -0.9962  0.1715
  711MOL0     O95874   0.266   4.792   4.381  0.1230  0.0745  0.3447
  711MOL0     C95875   0.294   4.669   4.324  0.2213 -0.1077  0.0204
  711MOL0     C95876   0.261   4.654   4.190  0.4244 -0.2406  1.1001
  711MOL0     C95877   0.281   4.525   4.121 -0.6656  0.3634 -0.7266
  711MOL0     C95878   0.238   4.505   3.979  0.0772 -0.6173 -0.2214
  711MOL0     C95879   0.336   4.417   4.197  0.3403  0.0178 -0.0621
  711MOL0     C95880   0.353   4.279   4.149  0.5755  0.0579  0.6538
  711MOL0     O95881   0.328   4.246   4.021 -0.0552 -0.3380 -0.0511
  711MOL0     C95882   0.343   4.117   3.980 -0.8269  0.2907  0.0878
  711MOL0     C95883   0.258   4.018   4.021  0.3831 -0.2002  1.0222
  711MOL0     C95884   0.301   3.886   3.995 -0.0284 -0.1761 -0.9703
  711MOL0     C95885   0.419   3.854   3.937 -0.8327  0.7192  0.3314
  711MOL0     O95886   0.469   3.724   3.917  0.7793 -0.2436 -1.3011
  711MOL0     C95887   0.393   3.616   3.974 -0.4253  0.1268 -0.0963
  711MOL0     C95888   0.470   3.491   3.987  0.3335  0.2356  0.1373
  711MOL0     C95889   0.389   3.397   4.075  1.0099 -0.0574  0.1014
  711MOL0     C95890   0.444   3.254   4.084  0.2929  0.3540 -0.0201
  711MOL0     C95891   0.385   3.183   4.205  0.3903 -0.2588 -0.2795
  711MOL0     C95892   0.241   3.147   4.176  0.0635  1.1196  0.3772
  711MOL0     C95893   0.148   3.113   4.301 -0.5957 -1.0619  0.3437
  711MOL0     C95894   0.013   3.045   4.285 -0.9567  0.6188 -0.1612
  711MOL0    Cl95895  -0.076   3.078   4.438  0.1976 -0.1142 -0.3286
  711MOL0     C95896   0.503   3.956   3.895 -0.5353 -0.2060  0.1839
  711MOL0     C95897   0.467   4.093   3.921 -0.1310 -0.1918  0.5181
  711MOL0     O95898   0.395   4.192   4.226 -0.0805  0.3790 -0.2829
  711MOL0     C95899   0.381   4.442   4.336  0.5185 -0.1886 -0.0859
  711MOL0     C95900   0.368   4.564   4.387  0.1933 -0.5937 -0.0664
  711MOL0     N95901   0.287   5.081   4.969  0.1732 -0.4015  0.1824
  711MOL0     N95902   0.283   5.122   5.089 -0.1990 -0.2176 -0.6147
  711MOL0     C95903   0.923   4.624   6.103  0.0412  0.0070  0.5533
  711MOL0     C95904   1.029   4.598   6.199 -0.3498  0.0146  0.3277
  711MOL0     C95905   1.288   4.311   6.423  0.3632 -0.4753  0.3760
  711MOL0     C95906   1.335   4.375   6.541 -0.4265 -0.2423 -0.4539
  711MOL0     C95907   1.452   4.331   6.601  0.4679  0.4802  0.2514
  711MOL0     C95908   1.530   4.219   6.552  0.4738 -0.0912 -0.0446
  711MOL0     O95909   1.657   4.177   6.591  0.5158 -0.4981  0.1938
  711MOL0     C95910   1.718   4.255   6.695  0.3431  0.9345  0.2123
  711MOL0     C95911   1.693   4.210   6.841  0.5921 -0.2090 -0.0245
  711MOL0     C95912   1.739   4.071   6.860  0.1775  0.0412  0.3714
  711MOL0     C95913   1.720   4.036   7.015  0.4078  0.1949  0.7194
  711MOL0     C95914   1.807   3.923   7.061 -0.4739  0.5034  0.1706
  711MOL0     C95915   1.863   3.814   7.082  0.1864 -0.4608 -0.1431
  711MOL0     C95916   1.464   4.145   6.444 -0.4667 -0.1853  0.2447
  711MOL0     C95917   1.341   4.183   6.385 -0.1897 -0.2119  0.7740
  711MOL0     H95918   0.865   4.399   6.406  2.8684 -0.3785  0.1732
  711MOL0     H95919   0.672   4.446   6.250  1.0479 -0.6258  3.2888
  711MOL0     H95920   0.737   4.772   5.964  0.5664  0.5090 -1.3419
  711MOL0     H95921   0.735   4.633   5.855  0.3872  1.2707 -1.0823
  711MOL0     H95922   0.485   4.650   5.873  0.2815 -1.2167  2.0073
  711MOL0     H95923   0.504   4.775   5.991 -3.6516  0.6157 -1.7950
  711MOL0     H95924   0.612   4.936   5.825 -0.5892  1.4897 -2.6510
  711MOL0     H95925   0.657   4.792   5.735  1.1371  1.7439  0.5043
  711MOL0     H95926   0.424   4.752   5.670  1.0783 -0.4997  0.0358
  711MOL0     H95927   0.374   4.880   5.776  0.4994  0.0030 -0.1168
  711MOL0     H95928   0.497   5.047   5.640  1.4178 -0.0663 -1.1949
  711MOL0     H95929   0.560   4.919   5.536  0.5503  2.0838  0.1299
  711MOL0     H95930   0.320   4.836   5.496  0.2790  0.6180 -4.4774
  711MOL0     H95931   0.276   4.994   5.570 -0.5117  0.9207 -1.2984
  711MOL0     H95932   0.399   5.118   5.376 -0.7055  2.1194  0.3474
  711MOL0     H95933   0.432   4.976   5.302 -0.5025  1.5131 -0.2983
  711MOL0     H95934   0.153   5.081   5.335  1.1058 -0.1640 -0.9774
  711MOL0     H95935   0.177   4.910   5.339 -2.3602  0.3685  1.1041
  711MOL0     H95936   0.152   4.813   5.082  1.5842 -1.5854 -0.5155
  711MOL0     H95937   0.319   4.843   4.788  0.7943  1.1840 -0.1041
  711MOL0     H95938   0.151   4.792   4.806  1.9446 -1.7531  0.6732
  711MOL0     H95939   0.241   5.047   4.680 -0.4664  1.0364 -0.4352
  711MOL0     H95940   0.076   5.002   4.741 -0.4858  0.0009 -1.8014
  711MOL0     H95941   0.130   4.972   4.495 -1.9858 -1.7893 -2.7788
  711MOL0     H95942   0.071   4.821   4.571  0.6346 -1.9679 -1.3305
  711MOL0     H95943   0.328   4.756   4.574 -0.0609 -1.5151 -0.5789
  711MOL0     H95944   0.361   4.908   4.508 -2.0526  0.9883 -0.8621
  711MOL0     H95945   0.238   4.741   4.128  1.6297  1.1876  2.5768
  711MOL0     H95946   0.319   4.456   3.924  0.3413  0.3317 -0.6844
  711MOL0     H95947   0.151   4.439   3.977 -0.2376 -0.1826 -1.4028
  711MOL0     H95948   0.207   4.593   3.923 -2.1974  0.3872  2.3678
  711MOL0     H95949   0.172   4.054   4.077 -0.9029  0.9228 -1.5200
  711MOL0     H95950   0.237   3.801   4.018  0.7017 -0.7814 -1.1289
  711MOL0     H95951   0.362   3.646   4.074  0.6375 -1.5289  0.7785
  711MOL0     H95952   0.306   3.589   3.911 -2.2913 -1.3629  2.8810
  711MOL0     H95953   0.476   3.443   3.889 -1.4213  0.9819 -0.3749
  711MOL0     H95954   0.573   3.517   4.011 -0.3469  0.8291  2.7400
  711MOL0     H95955   0.283   3.393   4.049  0.8339  2.2238  0.2172
  711MOL0     H95956   0.392   3.432   4.178  1.1591  1.2242 -0.3169
  711MOL0     H95957   0.418   3.206   3.989 -0.6009  0.7121  0.0400
  711MOL0     H95958   0.554   3.259   4.089  0.2956  1.8347 -0.7606
  711MOL0     H95959   0.387   3.251   4.291 -0.9284  0.0877 -0.5048
  711MOL0     H95960   0.447   3.101   4.244  0.7827  0.6708  1.1661
  711MOL0     H95961   0.190   3.219   4.110 -0.6640 -0.6506 -1.0631
  711MOL0     H95962   0.242   3.054   4.118  2.0423  3.9998 -4.9587
  711MOL0     H95963   0.140   3.209   4.353  2.9015  0.7776 -2.1541
  711MOL0     H95964   0.203   3.049   4.372  2.7808  1.3578  0.1347
  711MOL0     H95965   0.016   2.935   4.285 -0.5506  0.6248  0.3550
  711MOL0     H95966  -0.042   3.079   4.197  0.6088 -2.4549 -2.5257
  711MOL0     H95967   0.597   3.911   3.865  0.3260  0.9147  1.0831
  711MOL0     H95968   0.546   4.163   3.900 -0.2912 -0.2426 -0.2648
  711MOL0     H95969   0.436   4.363   4.387 -0.0651  0.0155  0.8851
  711MOL0     H95970   0.412   4.576   4.486  2.2589 -0.4206 -0.9525
  711MOL0     H95971   0.943   4.687   6.017 -1.5263  2.9006  2.1722
  711MOL0     H95972   1.136   4.617   6.189  0.1126 -1.4884  1.9777
  711MOL0     H95973   1.274   4.459   6.571 -1.1431  0.7633 -4.2163
  711MOL0     H95974   1.485   4.392   6.684 -0.8040  0.2665  0.9290
  711MOL0     H95975   1.823   4.262   6.667  0.0661  0.9338 -0.8696
  711MOL0     H95976   1.691   4.361   6.695  1.8066  1.3437 -1.2422
  711MOL0     H95977   1.585   4.220   6.856  0.7497  0.9813  0.4532
  711MOL0     H95978   1.736   4.287   6.906 -2.8751  2.9207 -1.0524
  711MOL0     H95979   1.844   4.058   6.835  0.1057  0.2424 -0.0374
  711MOL0     H95980   1.675   4.010   6.796 -2.3186  1.9295  0.8892
  711MOL0     H95981   1.619   4.022   7.054  0.3021  4.2614  2.4612
  711MOL0     H95982   1.755   4.125   7.069  2.9082  2.0059 -3.3834
  711MOL0     H95983   1.911   3.723   7.109 -0.1062 -1.0117 -1.3808
  711MOL0     H95984   1.522   4.064   6.400 -0.1641  1.6483 -3.0573
  711MOL0     H95985   1.295   4.132   6.301 -2.0224  0.5141  1.3001
  712MOL0     O95986   5.011   8.173   2.919  0.1771 -0.2200  0.6363
  712MOL0     C95987   5.027   8.059   2.966  0.8052 -0.0530  0.0052
  712MOL0     O95988   4.938   7.999   3.044  0.0225  0.4568  0.0862
  712MOL0     C95989   4.827   8.062   3.096  0.4512 -0.1963 -1.4722
  712MOL0     C95990   4.698   8.010   3.102  0.9626 -0.3166 -0.0362
  712MOL0     C95991   4.587   8.072   3.161 -0.5951  1.0965  0.1870
  712MOL0     C95992   4.607   8.179   3.238  0.9711 -1.1159  0.4064
  712MOL0     O95993   4.506   8.244   3.302 -0.6910 -0.9458 -0.1388
  712MOL0     C95994   4.526   8.382   3.350 -0.4021 -0.7046  0.1116
  712MOL0     C95995   4.406   8.428   3.421  0.1173 -0.3599 -0.3903
  712MOL0     C95996   4.413   8.379   3.558  0.2490 -0.2018 -1.1877
  712MOL0     C95997   4.343   8.462   3.661 -0.5616  0.1641  0.2673
  712MOL0     C95998   4.394   8.435   3.802  0.1814 -0.2171 -0.8335
  712MOL0     C95999   4.362   8.546   3.903 -0.1280  0.5141  0.0623
  712MOL0     C96000   4.383   8.491   4.049 -0.9548 -0.1800  0.0547
  712MOL0     C96001   4.527   8.450   4.088 -0.8704 -0.0563  1.1198
  712MOL0     N96002   4.548   8.407   4.229 -0.4392  0.2209  0.1099
  712MOL0     C96003   4.649   8.447   4.307  0.0049 -0.0133 -0.4944
  712MOL0     C96004   4.632   8.395   4.435  0.4516 -0.7817 -0.5326
  712MOL0     C96005   4.731   8.391   4.552 -0.8605 -0.4814 -0.1149
  712MOL0     C96006   4.668   8.405   4.693  0.4482 -0.7854  0.8299
  712MOL0     C96007   4.688   8.281   4.781 -0.8293 -1.3009  0.3322
  712MOL0     C96008   4.620   8.310   4.918  0.3699 -0.3603 -0.2012
  712MOL0     O96009   4.481   8.285   4.910 -0.1312 -0.2480  0.2355
  712MOL0     C96010   4.410   8.296   5.020 -0.0193 -1.0231  0.1185
  712MOL0     C96011   4.439   8.348   5.147 -1.0136  0.3417  0.7014
  712MOL0     C96012   4.354   8.349   5.265 -0.1377  1.0838  1.2881
  712MOL0     C96013   4.413   8.380   5.394 -0.2447 -0.4227 -1.4560
  712MOL0     C96014   4.223   8.292   5.244  0.9617  1.0041  0.4948
  712MOL0     C96015   4.115   8.300   5.351 -0.5738 -0.0788  0.5572
  712MOL0     O96016   4.034   8.184   5.354  0.5184  0.0084 -0.8752
  712MOL0     C96017   3.925   8.174   5.438  0.0906 -0.4519  0.5245
  712MOL0     C96018   3.829   8.270   5.433  0.1467 -0.0353 -0.3887
  712MOL0     C96019   3.704   8.245   5.504 -1.3029  0.1123  0.0101
  712MOL0     C96020   3.701   8.131   5.579 -0.2012 -0.1611 -1.4471
  712MOL0     O96021   3.585   8.109   5.639 -0.0926  0.3131  0.8333
  712MOL0     C96022   3.596   8.133   5.777  0.8180 -0.0748 -0.3121
  712MOL0     C96023   3.512   8.046   5.871  0.7488  0.0034 -0.5037
  712MOL0     C96024   3.380   8.009   5.806 -0.9529 -0.0364 -0.3234
  712MOL0     C96025   3.286   8.128   5.794  0.2759 -0.0987 -0.8047
  712MOL0     C96026   3.155   8.077   5.735  0.9033  0.2217 -0.9173
  712MOL0     C96027   3.050   8.191   5.702 -0.9478  0.4524  0.4518
  712MOL0     C96028   3.129   8.280   5.592 -0.2367  0.3167  0.2067
  712MOL0     C96029   3.063   8.342   5.472  0.5152  1.1936 -0.4200
  712MOL0    Cl96030   3.019   8.224   5.343  0.0319 -0.0556 -0.1711
  712MOL0     C96031   3.798   8.036   5.585  0.8052 -0.1809 -0.1720
  712MOL0     C96032   3.912   8.054   5.508 -0.4301  0.0933  0.3826
  712MOL0     O96033   4.095   8.396   5.418 -0.1152 -0.5083 -0.5038
  712MOL0     C96034   4.183   8.254   5.116 -0.5298  0.7674 -0.2010
  712MOL0     C96035   4.281   8.250   5.020 -0.1664 -0.1186  0.3706
  712MOL0     N96036   4.521   8.317   4.428 -0.2887 -0.2814 -0.1578
  712MOL0     N96037   4.473   8.318   4.304  0.6650 -0.7969 -0.0580
  712MOL0     C96038   4.736   8.232   3.244  0.0942  0.4917 -0.9923
  712MOL0     C96039   4.837   8.179   3.167  0.7118 -0.6590  0.0824
  712MOL0     C96040   5.138   7.970   2.911 -0.2067 -1.9086 -0.0784
  712MOL0     C96041   5.246   8.031   2.848  0.1704 -0.7351 -0.7307
  712MOL0     C96042   5.355   7.953   2.817 -0.3770  0.2997  1.1988
  712MOL0     C96043   5.359   7.818   2.835  0.4050  0.3270  0.0148
  712MOL0     O96044   5.460   7.745   2.788  0.8718  0.0177 -0.2163
  712MOL0     C96045   5.551   7.799   2.699  0.0165  0.1921  0.3049
  712MOL0     C96046   5.635   7.691   2.639  0.0136  0.3761 -0.1009
  712MOL0     C96047   5.751   7.752   2.558 -1.6482 -0.4284  0.3731
  712MOL0     C96048   5.875   7.658   2.569  0.1251  0.0063  0.4913
  712MOL0     C96049   5.988   7.692   2.475  0.0004  0.8845 -0.2356
  712MOL0     C96050   6.091   7.735   2.426 -1.0408  0.0990 -0.7411
  712MOL0     C96051   5.247   7.756   2.894  0.5884 -0.7321  0.0658
  712MOL0     C96052   5.141   7.831   2.931  0.6258  1.0381 -0.4161
  712MOL0     H96053   4.677   7.918   3.049  2.5918 -0.5238 -0.3597
  712MOL0     H96054   4.481   8.051   3.155 -0.8514  1.7694  1.7948
  712MOL0     H96055   4.615   8.386   3.412  1.2210 -1.6568 -2.0064
  712MOL0     H96056   4.548   8.458   3.274  3.6052 -0.9753  0.7951
  712MOL0     H96057   4.421   8.536   3.412  0.1169 -0.4393 -1.4451
  712MOL0     H96058   4.317   8.400   3.364  0.7235 -0.4930 -1.2997
  712MOL0     H96059   4.359   8.284   3.551 -1.8158  0.7806  0.3752
  712MOL0     H96060   4.514   8.364   3.598  0.0850 -0.7572 -0.9655
  712MOL0     H96061   4.346   8.569   3.639  1.1655  0.0572 -0.1220
  712MOL0     H96062   4.239   8.432   3.649 -0.4276 -0.0072 -0.5179
  712MOL0     H96063   4.337   8.344   3.826 -0.5757  0.3501 -0.4440
  712MOL0     H96064   4.499   8.403   3.798 -0.4901 -2.7252 -0.6739
  712MOL0     H96065   4.423   8.631   3.873  1.8816 -1.5405 -2.1491
  712MOL0     H96066   4.257   8.573   3.889 -0.1029 -0.1596 -1.8076
  712MOL0     H96067   4.352   8.571   4.117 -2.8862 -1.5414  0.8601
  712MOL0     H96068   4.332   8.398   4.078  3.7738 -4.3291 -3.0704
  712MOL0     H96069   4.604   8.525   4.067  1.8009 -2.6313  0.8689
  712MOL0     H96070   4.555   8.369   4.019  1.0395  2.4108 -1.2362
  712MOL0     H96071   4.733   8.508   4.274 -0.9876  2.9434  1.9233
  712MOL0     H96072   4.798   8.305   4.544  2.4004  2.0056 -2.8389
  712MOL0     H96073   4.790   8.481   4.535  3.2131 -2.2324  3.1329
  712MOL0     H96074   4.562   8.433   4.693 -0.4752 -2.6135 -5.3624
  712MOL0     H96075   4.724   8.485   4.742  2.5421 -2.4316  1.3124
  712MOL0     H96076   4.792   8.270   4.811 -0.5824 -1.3117 -0.5049
  712MOL0     H96077   4.656   8.184   4.741 -1.6863 -1.3517  1.0911
  712MOL0     H96078   4.643   8.412   4.950  1.5851 -0.4165 -0.8362
  712MOL0     H96079   4.643   8.244   5.002 -3.2031 -0.1505  1.1067
  712MOL0     H96080   4.535   8.395   5.167 -2.6315  3.4093  1.8954
  712MOL0     H96081   4.338   8.424   5.461  1.6279  0.4551  0.1725
  712MOL0     H96082   4.449   8.282   5.428 -0.1031 -0.0645 -0.5460
  712MOL0     H96083   4.507   8.437   5.399 -1.3535  1.5080 -1.6578
  712MOL0     H96084   3.848   8.359   5.374 -2.0682  1.3724  0.8740
  712MOL0     H96085   3.616   8.307   5.520 -0.6466  0.8348  0.9526
  712MOL0     H96086   3.701   8.128   5.804 -0.0768 -0.4540  3.7120
  712MOL0     H96087   3.555   8.233   5.795  1.3532 -0.0099  0.6108
  712MOL0     H96088   3.560   7.950   5.888 -3.2078 -1.9512  1.0368
  712MOL0     H96089   3.501   8.095   5.968 -2.2339  0.0663 -0.7803
  712MOL0     H96090   3.326   7.939   5.870 -1.5778 -0.8512 -1.6976
  712MOL0     H96091   3.390   7.961   5.709  0.6533 -2.0229  0.7552
  712MOL0     H96092   3.256   8.177   5.887  2.6141 -0.6751  0.3320
  712MOL0     H96093   3.334   8.195   5.722  3.6178 -1.5982 -0.1950
  712MOL0     H96094   3.108   8.007   5.805  0.5164  1.7887  0.4396
  712MOL0     H96095   3.175   8.017   5.645 -0.5784  2.0858 -2.5896
  712MOL0     H96096   2.946   8.174   5.674 -1.0893  1.8867  0.0360
  712MOL0     H96097   3.044   8.232   5.804 -0.7458 -1.3414  1.2271
  712MOL0     H96098   3.213   8.223   5.552  0.7223  2.2183 -0.6131
  712MOL0     H96099   3.182   8.357   5.649  0.9172 -0.1438 -0.2062
  712MOL0     H96100   3.130   8.418   5.429 -0.5083  2.1689 -0.3411
  712MOL0     H96101   2.973   8.391   5.511  1.1584  2.3688 -0.3567
  712MOL0     H96102   3.784   7.944   5.641  2.4402 -1.5515 -1.9159
  712MOL0     H96103   3.972   7.965   5.492 -1.6265 -0.6140 -0.3241
  712MOL0     H96104   4.082   8.215   5.105 -0.5598  0.7464  0.1562
  712MOL0     H96105   4.231   8.221   4.928 -0.3064  1.7263 -0.1857
  712MOL0     H96106   4.770   8.317   3.303  0.4733  0.4794 -1.1864
  712MOL0     H96107   4.931   8.233   3.170  0.0376  0.5208  0.9926
  712MOL0     H96108   5.245   8.135   2.819 -2.1544 -0.6196 -0.4042
  712MOL0     H96109   5.438   8.002   2.768 -2.8320  2.3591 -1.2024
  712MOL0     H96110   5.496   7.836   2.612 -1.0033 -2.3615 -0.2218
  712MOL0     H96111   5.615   7.879   2.737  0.4998  1.0936 -2.1954
  712MOL0     H96112   5.580   7.627   2.570  0.5592 -0.9579  0.6607
  712MOL0     H96113   5.684   7.639   2.721 -0.5674 -1.5496 -0.9295
  712MOL0     H96114   5.776   7.848   2.604 -0.0096 -0.8014  0.3209
  712MOL0     H96115   5.735   7.768   2.451 -2.7652 -4.2419 -0.1757
  712MOL0     H96116   5.833   7.566   2.527 -0.9132  1.4826 -1.9527
  712MOL0     H96117   5.917   7.654   2.670 -1.9762  0.6716  1.4472
  712MOL0     H96118   6.182   7.774   2.385 -1.8264 -1.0830 -3.9168
  712MOL0     H96119   5.259   7.650   2.915 -1.0669 -0.8865  0.4080
  712MOL0     H96120   5.063   7.779   2.985  1.5748  1.2522  1.2252
  713MOL0     O96121   9.725   8.164   0.055 -0.5185  0.2784 -0.1276
  713MOL0     C96122   9.751   8.189  -0.056 -0.4947 -0.4038 -0.0706
  713MOL0     O96123   9.718   8.107  -0.164  0.1387 -0.6283 -0.0222
  713MOL0     C96124   9.661   7.989  -0.132  0.3739  1.7730 -0.8141
  713MOL0     C96125   9.738   7.868  -0.133  0.3664  0.5215 -0.5589
  713MOL0     C96126   9.672   7.750  -0.103  0.0634  0.5069  0.3168
  713MOL0     C96127   9.538   7.742  -0.063 -0.4996 -0.2965  0.0132
  713MOL0     O96128   9.486   7.615  -0.054  0.3364  0.0118 -0.1994
  713MOL0     C96129   9.391   7.594   0.058 -0.0237 -0.3625  0.5412
  713MOL0     C96130   9.370   7.445   0.091  0.1588 -0.2497 -0.0418
  713MOL0     C96131   9.498   7.401   0.154 -0.0243  0.4067  0.3777
  713MOL0     C96132   9.529   7.468   0.293  0.4566 -0.1824  0.1295
  713MOL0     C96133   9.674   7.469   0.332 -0.7793 -0.7252 -0.1203
  713MOL0     C96134   9.712   7.320   0.376 -0.2514 -1.0340  0.6369
  713MOL0     C96135   9.818   7.251   0.288 -0.0586  0.3554  0.9128
  713MOL0     C96136   9.953   7.321   0.296 -0.3902 -1.2172 -1.0383
  713MOL0     N96137  10.010   7.357   0.430 -1.0401  0.8750  1.0910
  713MOL0     C96138  10.091   7.276   0.503 -0.2912  0.0273 -0.3945
  713MOL0     C96139  10.146   7.351   0.598 -0.5446  0.7671  0.2156
  713MOL0     C96140  10.235   7.309   0.718  0.2612 -0.8792  0.1481
  713MOL0     C96141  10.375   7.377   0.734  0.6512  0.7370 -0.1051
  713MOL0     C96142  10.484   7.300   0.650 -0.0976 -0.6087  1.0539
  713MOL0     C96143  10.624   7.368   0.650  0.0451  0.0064 -0.1919
  713MOL0     O96144  10.612   7.503   0.628 -0.3449 -1.0857 -0.1374
  713MOL0     C96145  10.715   7.592   0.670  0.1621 -0.0095 -0.1656
  713MOL0     C96146  10.713   7.725   0.612  0.2415  0.6262  0.4834
  713MOL0     C96147  10.842   7.793   0.604 -0.4315 -0.9000  0.4071
  713MOL0     C96148  10.862   7.922   0.514 -0.0334 -0.1187 -0.2120
  713MOL0     C96149  10.957   7.738   0.673 -0.0251 -0.6500 -0.1521
  713MOL0     C96150  11.101   7.789   0.665 -0.9333 -0.2340  0.4184
  713MOL0     O96151  11.168   7.805   0.550  0.1775  0.5587  0.1289
  713MOL0     C96152  11.289   7.857   0.546  0.4204 -0.5504 -0.0321
  713MOL0     C96153  11.393   7.786   0.478 -1.0018 -0.6456 -0.2843
  713MOL0     C96154  11.518   7.837   0.476 -0.3450  0.4613  0.0769
  713MOL0     C96155  11.559   7.954   0.529 -0.1645  0.0494 -0.3425
  713MOL0     O96156  11.692   8.001   0.516 -0.3357 -0.5257 -0.3474
  713MOL0     C96157  11.702   8.134   0.503 -0.4315  0.3796  0.4220
  713MOL0     C96158  11.816   8.181   0.408  0.9223 -0.5638  0.0994
  713MOL0     C96159  11.951   8.162   0.461 -0.0163  0.4007  0.2333
  713MOL0     C96160  12.021   8.028   0.422  0.2696 -0.1376 -1.0575
  713MOL0     C96161  12.150   7.991   0.503  0.0848  0.3356  0.2273
  713MOL0     C96162  12.210   7.865   0.477  0.8223  0.2505 -0.1651
  713MOL0     C96163  12.361   7.859   0.512  0.1268  0.1138  0.7341
  713MOL0     C96164  12.378   7.884   0.665  0.3216 -0.4979  0.6071
  713MOL0    Cl96165  12.550   7.904   0.696  0.2272 -0.2144  0.4115
  713MOL0     C96166  11.455   8.024   0.595  0.1821 -0.6831  0.6588
  713MOL0     C96167  11.321   7.976   0.603 -0.5025 -0.2879 -0.2298
  713MOL0     O96168  11.153   7.818   0.769  0.3332  0.7568 -1.0179
  713MOL0     C96169  10.949   7.619   0.743 -0.9033 -0.2586  0.7377
  713MOL0     C96170  10.831   7.550   0.742 -0.1053  0.6332 -0.1234
  713MOL0     N96171  10.094   7.472   0.590  0.7442 -0.0257  0.1672
  713MOL0     N96172  10.015   7.479   0.485 -0.9537 -0.1797  0.3679
  713MOL0     C96173   9.460   7.855  -0.079  1.1177  0.4400  0.0078
  713MOL0     C96174   9.526   7.973  -0.114 -0.0219 -0.9949  1.1536
  713MOL0     C96175   9.824   8.313  -0.086  0.2250  0.5650 -0.4265
  713MOL0     C96176   9.794   8.373  -0.208 -0.0648 -0.5752 -0.0677
  713MOL0     C96177   9.876   8.469  -0.254 -1.4292 -0.6192  0.8516
  713MOL0     C96178  10.005   8.492  -0.185  0.1623 -0.7124 -0.4169
  713MOL0     O96179  10.089   8.585  -0.247  0.4163  1.3136  0.3066
  713MOL0     C96180  10.233   8.604  -0.206  0.3924 -0.6432  0.2609
  713MOL0     C96181  10.285   8.733  -0.268  0.1405 -0.5623  0.5256
  713MOL0     C96182  10.439   8.728  -0.250 -0.0515  0.3391  0.6831
  713MOL0     C96183  10.508   8.844  -0.329  0.0157  0.3597 -0.3372
  713MOL0     C96184  10.504   8.973  -0.271  0.1920 -0.3435  0.3543
  713MOL0     C96185  10.489   9.077  -0.200  0.4576  0.4984 -0.3726
  713MOL0     C96186  10.019   8.439  -0.053 -0.0127  0.3086 -0.3043
  713MOL0     C96187   9.931   8.338  -0.009  0.1722 -0.5567  0.1711
  713MOL0     H96188   9.839   7.893  -0.164  0.5284  1.4837  0.6435
  713MOL0     H96189   9.716   7.654  -0.126  0.2690  0.7691 -0.3897
  713MOL0     H96190   9.403   7.663   0.142 -1.2620  0.7784 -0.1680
  713MOL0     H96191   9.295   7.624   0.015  0.7677 -0.6956 -1.6191
  713MOL0     H96192   9.286   7.431   0.159 -2.1019  3.5055 -1.7370
  713MOL0     H96193   9.350   7.391  -0.003 -2.2037 -0.6550  0.6314
  713MOL0     H96194   9.502   7.293   0.164  2.9666  0.4420  0.4421
  713MOL0     H96195   9.582   7.425   0.087 -0.1346 -2.0804 -0.7552
  713MOL0     H96196   9.495   7.571   0.294 -0.3784 -0.3757  3.3770
  713MOL0     H96197   9.469   7.411   0.365  1.0856  0.4951  1.2104
  713MOL0     H96198   9.730   7.507   0.247  0.2102  2.5266  1.7858
  713MOL0     H96199   9.692   7.538   0.416 -0.3403  0.0507 -0.8320
  713MOL0     H96200   9.757   7.316   0.476  0.9535 -0.8492  0.1230
  713MOL0     H96201   9.627   7.252   0.368  0.2855 -1.6931  0.4820
  713MOL0     H96202   9.843   7.157   0.338 -0.8312 -0.8359 -0.8593
  713MOL0     H96203   9.782   7.223   0.189  0.1798  3.0556 -0.0214
  713MOL0     H96204   9.931   7.418   0.251 -0.5042  0.6134  2.6071
  713MOL0     H96205  10.032   7.263   0.247  0.0419 -0.9431 -0.6694
  713MOL0     H96206  10.094   7.168   0.494 -1.9430  0.0706 -2.2467
  713MOL0     H96207  10.186   7.331   0.814 -1.1829  2.9121 -1.2438
  713MOL0     H96208  10.245   7.200   0.709 -4.4213 -1.5099 -0.3155
  713MOL0     H96209  10.400   7.366   0.840  2.2397  1.7964 -0.3413
  713MOL0     H96210  10.365   7.481   0.703 -0.6172  0.5263 -0.4729
  713MOL0     H96211  10.447   7.300   0.547  3.8455 -2.2644 -0.5425
  713MOL0     H96212  10.503   7.200   0.690  0.5111 -1.3287 -0.9150
  713MOL0     H96213  10.686   7.325   0.571 -1.7339  1.9041 -2.7971
  713MOL0     H96214  10.664   7.346   0.749 -0.5034 -0.0763  0.0190
  713MOL0     H96215  10.633   7.745   0.542 -0.0690 -1.2303  0.2592
  713MOL0     H96216  10.765   7.962   0.483  0.5498 -1.2229 -4.1270
  713MOL0     H96217  10.912   8.009   0.558  0.9763 -0.7962  0.0397
  713MOL0     H96218  10.918   7.890   0.425 -1.7525  1.2357 -1.8561
  713MOL0     H96219  11.352   7.701   0.425 -1.8187  0.6460 -1.7890
  713MOL0     H96220  11.602   7.788   0.428  0.2494  2.2029 -0.7208
  713MOL0     H96221  11.608   8.182   0.475  1.2649  3.6598 -0.1879
  713MOL0     H96222  11.723   8.175   0.603 -2.4338  2.1622  0.1754
  713MOL0     H96223  11.811   8.114   0.322 -1.0045 -2.2154  1.4000
  713MOL0     H96224  11.809   8.287   0.381 -3.6863 -0.8384 -0.6292
  713MOL0     H96225  11.946   8.172   0.570 -0.0160  2.7937  0.0722
  713MOL0     H96226  12.020   8.243   0.435 -2.5105  2.2273 -1.0864
  713MOL0     H96227  11.945   7.950   0.435  0.2059  0.2317  1.1094
  713MOL0     H96228  12.050   8.030   0.316  1.2753  1.2604 -0.7840
  713MOL0     H96229  12.121   7.987   0.608  1.1176 -4.0139  0.5463
  713MOL0     H96230  12.229   8.067   0.501  3.6017 -3.0118 -1.0652
  713MOL0     H96231  12.156   7.799   0.546  0.6518 -0.9134 -1.3803
  713MOL0     H96232  12.192   7.835   0.373 -4.1250 -0.5029  0.6486
  713MOL0     H96233  12.430   7.922   0.455  0.7647  1.0221  2.4643
  713MOL0     H96234  12.389   7.754   0.497 -0.4890  0.0573 -0.0780
  713MOL0     H96235  12.341   7.800   0.724  0.4429  1.5768  3.8738
  713MOL0     H96236  12.329   7.975   0.703  0.3585 -1.2972  2.6635
  713MOL0     H96237  11.463   8.125   0.634 -0.7251  0.0227 -0.8776
  713MOL0     H96238  11.240   8.034   0.647  0.3285  0.8746 -0.1927
  713MOL0     H96239  11.039   7.588   0.796 -1.2170 -1.8976  0.3829
  713MOL0     H96240  10.824   7.457   0.798 -4.0633 -1.3224 -3.3130
  713MOL0     H96241   9.353   7.872  -0.077  0.6084 -2.3282  1.9806
  713MOL0     H96242   9.463   8.058  -0.137 -1.6293 -2.3679  0.1854
  713MOL0     H96243   9.698   8.350  -0.255  0.0131 -1.7420  0.3294
  713MOL0     H96244   9.842   8.513  -0.347 -4.8067 -1.6689  1.4626
  713MOL0     H96245  10.239   8.625  -0.099 -3.0840  0.5236  0.3451
  713MOL0     H96246  10.291   8.523  -0.252  0.0754 -0.0192 -1.3024
  713MOL0     H96247  10.252   8.823  -0.215  3.6315  1.8126 -0.9625
  713MOL0     H96248  10.253   8.724  -0.372 -0.8545 -3.9204  0.9953
  713MOL0     H96249  10.475   8.632  -0.288 -1.7670  0.6662 -2.0890
  713MOL0     H96250  10.456   8.729  -0.142  0.9345  0.0892  0.5383
  713MOL0     H96251  10.449   8.852  -0.421 -0.8284  1.0148  0.2460
  713MOL0     H96252  10.605   8.801  -0.353  0.1811  0.9502 -0.7450
  713MOL0     H96253  10.473   9.154  -0.127  0.2924 -1.3232  1.6146
  713MOL0     H96254  10.101   8.474   0.008  0.7107  1.6267 -1.9320
  713MOL0     H96255   9.940   8.290   0.089  2.1039 -2.0072 -0.6390
  714MOL0     O96256   6.426  10.249   1.691 -0.5116 -0.2452  0.1862
  714MOL0     C96257   6.390  10.201   1.800  0.4204 -0.5281 -0.5519
  714MOL0     O96258   6.339  10.076   1.822  0.3257  0.0340  1.1377
  714MOL0     C96259   6.368   9.984   1.723 -0.4649 -0.1857  0.7318
  714MOL0     C96260   6.284   9.915   1.647 -0.3064 -0.2932 -0.2231
  714MOL0     C96261   6.331   9.832   1.550  0.4813  0.0171  0.0991
  714MOL0     C96262   6.461   9.795   1.540 -0.8581  0.1196  0.8242
  714MOL0     O96263   6.505   9.691   1.466  0.0824  0.0374 -0.2143
  714MOL0     C96264   6.418   9.633   1.359 -0.3170 -1.3716 -1.4034
  714MOL0     C96265   6.487   9.522   1.286 -0.0644 -0.0813 -0.1599
  714MOL0     C96266   6.401   9.473   1.174 -0.9952 -0.5746  0.2486
  714MOL0     C96267   6.478   9.393   1.063 -0.1713 -0.2826 -0.4391
  714MOL0     C96268   6.381   9.346   0.957 -0.1615  0.4124  0.7529
  714MOL0     C96269   6.306   9.226   1.001  0.6275  0.3777  0.1574
  714MOL0     C96270   6.227   9.167   0.883 -0.3050 -0.5407 -0.4080
  714MOL0     C96271   6.156   9.035   0.928 -0.0883 -0.4215  0.2060
  714MOL0     N96272   6.042   9.040   1.017 -1.2455 -0.3868  0.3923
  714MOL0     C96273   6.034   8.991   1.143  0.0532 -0.4247 -0.4172
  714MOL0     C96274   5.907   8.956   1.177 -0.5887 -0.6564 -0.4311
  714MOL0     C96275   5.854   8.881   1.289  0.0777  0.1296 -0.1384
  714MOL0     C96276   5.889   8.942   1.419  0.0222 -0.4866  0.0450
  714MOL0     C96277   5.790   9.064   1.448  1.0715  0.7860  0.2407
  714MOL0     C96278   5.642   9.033   1.453  0.0722 -0.7223  0.5360
  714MOL0     O96279   5.585   9.041   1.318  0.2666  0.6865 -0.4674
  714MOL0     C96280   5.458   9.008   1.305  0.7363 -0.2093 -0.2146
  714MOL0     C96281   5.375   8.929   1.390 -0.0137 -0.0304 -0.8748
  714MOL0     C96282   5.238   8.902   1.373 -0.4432 -0.5896  0.2316
  714MOL0     C96283   5.159   8.826   1.477  0.6425 -0.8708 -0.7593
  714MOL0     C96284   5.176   8.964   1.262  0.3234  0.2345  0.7178
  714MOL0     C96285   5.032   8.968   1.222 -0.0085  0.2200  0.0942
  714MOL0     O96286   4.945   8.924   1.326  0.4976  0.7260  0.3342
  714MOL0     C96287   4.811   8.944   1.333 -0.3064  1.7126  0.1096
  714MOL0     C96288   4.737   9.015   1.239 -0.2187  0.3331 -0.8352
  714MOL0     C96289   4.601   9.026   1.263 -1.3007  0.3298 -0.6225
  714MOL0     C96290   4.536   8.955   1.377  0.3399  0.5343 -0.2069
  714MOL0     O96291   4.402   8.972   1.410 -0.6134 -0.0532  0.1785
  714MOL0     C96292   4.309   8.990   1.294 -0.5334 -0.7991  0.9637
  714MOL0     C96293   4.168   8.956   1.313 -0.3813 -0.0408 -0.2068
  714MOL0     C96294   4.152   8.800   1.313  0.6692 -0.8514  0.8884
  714MOL0     C96295   4.211   8.732   1.431  0.6360  1.0520  0.6807
  714MOL0     C96296   4.213   8.571   1.420 -0.1941 -0.2622  1.4744
  714MOL0     C96297   4.319   8.517   1.313  0.3170  0.7056 -0.9080
  714MOL0     C96298   4.299   8.354   1.328 -0.0783 -0.3539 -0.6597
  714MOL0     C96299   4.407   8.281   1.243  0.1745 -0.3608 -1.8424
  714MOL0    Cl96300   4.540   8.262   1.369  0.0615  0.0836 -0.2320
  714MOL0     C96301   4.616   8.875   1.460 -0.5881 -0.1727 -0.8439
  714MOL0     C96302   4.753   8.866   1.437  0.6309  0.1017 -0.2709
  714MOL0     O96303   5.001   9.022   1.113 -0.8989  0.0912  0.6611
  714MOL0     C96304   5.264   9.031   1.168 -0.3172 -0.1750  0.7150
  714MOL0     C96305   5.404   9.047   1.184  0.7961 -0.2031 -0.7165
  714MOL0     N96306   5.827   8.990   1.063  0.2351  0.2505 -1.2357
  714MOL0     N96307   5.912   9.042   0.977 -0.0307 -0.1082 -0.0573
  714MOL0     C96308   6.555   9.862   1.628 -0.3766  0.1320  0.1532
  714MOL0     C96309   6.511   9.954   1.711  0.2499  0.1592 -0.1147
  714MOL0     C96310   6.394  10.287   1.920  0.0228 -0.5057 -0.1752
  714MOL0     C96311   6.434  10.419   1.912 -1.0366 -0.5137  0.6330
  714MOL0     C96312   6.433  10.508   2.023 -0.1065 -0.2334  0.7824
  714MOL0     C96313   6.394  10.468   2.150  0.7827  0.0678  0.1207
  714MOL0     O96314   6.386  10.567   2.248 -0.0795 -0.0070 -0.2287
  714MOL0     C96315   6.348  10.530   2.379 -0.6043 -0.6289 -0.8663
  714MOL0     C96316   6.450  10.454   2.458 -0.1753  0.7309 -0.0252
  714MOL0     C96317   6.592  10.490   2.424  0.0914 -0.1735  0.1855
  714MOL0     C96318   6.690  10.449   2.535 -0.3160  0.8260  0.2871
  714MOL0     C96319   6.665  10.519   2.656  0.3187  1.4511 -0.3761
  714MOL0     C96320   6.628  10.587   2.750 -0.0534  0.9221 -0.3374
  714MOL0     C96321   6.347  10.333   2.161  0.0762 -0.1620  0.4658
  714MOL0     C96322   6.351  10.252   2.047  0.0087  0.2894  0.7746
  714MOL0     H96323   6.177   9.923   1.665 -0.6751 -2.6013 -1.1073
  714MOL0     H96324   6.259   9.785   1.483 -0.0250  1.9578 -0.8028
  714MOL0     H96325   6.327   9.595   1.406 -0.1381 -0.1157  0.0194
  714MOL0     H96326   6.382   9.712   1.292 -0.6727 -1.1987 -1.0111
  714MOL0     H96327   6.583   9.554   1.244 -0.3900  0.3819 -0.5563
  714MOL0     H96328   6.513   9.436   1.350 -0.7929 -0.0402  0.2027
  714MOL0     H96329   6.328   9.399   1.209 -3.1988 -0.1015 -2.8667
  714MOL0     H96330   6.349   9.554   1.121 -1.5748 -1.5881 -0.7921
  714MOL0     H96331   6.546   9.461   1.010  0.5706 -0.9600 -0.3551
  714MOL0     H96332   6.526   9.309   1.112 -0.6417 -1.3388 -1.7161
  714MOL0     H96333   6.312   9.422   0.920  0.5994  0.4808 -0.5944
  714MOL0     H96334   6.438   9.303   0.874  0.9095 -1.5794  2.4149
  714MOL0     H96335   6.367   9.150   1.051 -1.7432  0.4252  3.3881
  714MOL0     H96336   6.234   9.247   1.080  1.3018 -0.3867  1.0035
  714MOL0     H96337   6.149   9.236   0.849 -0.4143 -1.3820 -1.9625
  714MOL0     H96338   6.296   9.157   0.798 -0.4381 -2.2052 -0.3439
  714MOL0     H96339   6.234   8.964   0.958 -1.6490 -2.1467  0.3785
  714MOL0     H96340   6.120   8.978   0.843 -1.9851  0.6686  0.2262
  714MOL0     H96341   6.116   8.979   1.213 -0.8000  3.8376  1.6257
  714MOL0     H96342   5.750   8.854   1.272 -0.1939  0.9085  0.2838
  714MOL0     H96343   5.900   8.781   1.282 -1.0822 -0.3522 -1.2135
  714MOL0     H96344   5.993   8.968   1.439  0.0328 -1.8152  1.9845
  714MOL0     H96345   5.865   8.880   1.506 -2.7885 -0.5622 -0.6832
  714MOL0     H96346   5.826   9.133   1.372  1.7549 -0.1778 -0.3398
  714MOL0     H96347   5.804   9.110   1.547  0.3116 -0.3167  0.8859
  714MOL0     H96348   5.591   9.100   1.523 -0.1167  0.4832 -0.7017
  714MOL0     H96349   5.627   8.934   1.498  1.0108 -0.4696  1.4266
  714MOL0     H96350   5.417   8.884   1.480 -1.1494  1.7798  0.6320
  714MOL0     H96351   5.107   8.747   1.423 -0.9396 -0.2989 -0.1145
  714MOL0     H96352   5.210   8.777   1.560 -3.2278 -2.1416  1.0983
  714MOL0     H96353   5.087   8.888   1.531 -0.3022 -2.3900 -0.2281
  714MOL0     H96354   4.782   9.078   1.163  2.4753 -4.6636 -3.9487
  714MOL0     H96355   4.543   9.093   1.200 -3.1272  1.6714  2.2593
  714MOL0     H96356   4.317   9.094   1.262 -1.5385 -1.0001 -0.0186
  714MOL0     H96357   4.338   8.929   1.208 -2.1031  1.4214 -1.2543
  714MOL0     H96358   4.125   9.007   1.399  2.6012  1.9487  0.2197
  714MOL0     H96359   4.120   9.005   1.228 -3.3347 -3.6607 -0.9313
  714MOL0     H96360   4.197   8.757   1.222  0.6474 -1.8477  1.3355
  714MOL0     H96361   4.044   8.781   1.316  0.3908 -0.6638 -2.9670
  714MOL0     H96362   4.319   8.750   1.435  0.8990 -0.1757 -0.3067
  714MOL0     H96363   4.176   8.768   1.528  1.1529 -1.7284  2.0156
  714MOL0     H96364   4.114   8.543   1.384 -0.8243  3.8024 -0.4838
  714MOL0     H96365   4.220   8.527   1.520 -2.7552 -1.3954  1.2334
  714MOL0     H96366   4.300   8.544   1.208 -0.4034 -0.8361 -1.2020
  714MOL0     H96367   4.421   8.536   1.348 -0.2960  2.0289  0.2574
  714MOL0     H96368   4.201   8.327   1.289  2.1183 -4.5973 -4.1334
  714MOL0     H96369   4.301   8.309   1.427 -0.6854 -2.3259 -1.4960
  714MOL0     H96370   4.441   8.343   1.159  2.8240 -0.6481 -1.0725
  714MOL0     H96371   4.374   8.182   1.209  3.3594 -1.6963 -1.4060
  714MOL0     H96372   4.586   8.817   1.547  1.1225 -1.9529 -1.3816
  714MOL0     H96373   4.819   8.795   1.486 -0.2781 -1.9042 -1.8260
  714MOL0     H96374   5.223   9.076   1.077  1.2361  0.5928  0.3576
  714MOL0     H96375   5.479   9.090   1.118  2.1221 -1.7808 -0.3182
  714MOL0     H96376   6.658   9.827   1.630  0.1049  1.4888  2.4914
  714MOL0     H96377   6.584  10.005   1.773  3.2794 -3.1015 -0.6787
  714MOL0     H96378   6.456  10.454   1.812 -0.3039 -0.3297  0.8529
  714MOL0     H96379   6.482  10.604   2.010 -0.6352  0.0575  0.9234
  714MOL0     H96380   6.342  10.623   2.436  1.8675  1.2369 -3.4027
  714MOL0     H96381   6.247  10.490   2.368 -0.3675 -1.3890 -0.4000
  714MOL0     H96382   6.434  10.347   2.448 -1.1231  1.0219 -2.0775
  714MOL0     H96383   6.434  10.472   2.565  1.0298  5.4577 -0.3650
  714MOL0     H96384   6.589  10.598   2.409 -2.4238 -0.1812  0.1706
  714MOL0     H96385   6.634  10.439   2.337  1.6122 -0.3759  1.0060
  714MOL0     H96386   6.788  10.471   2.492  0.3158  0.3870  1.4643
  714MOL0     H96387   6.680  10.340   2.539  0.3578  0.4217 -3.9095
  714MOL0     H96388   6.606  10.637   2.843  2.4373  1.2416  0.1345
  714MOL0     H96389   6.295  10.292   2.247 -1.7088 -1.7850 -1.2743
  714MOL0     H96390   6.307  10.153   2.054  2.2335 -0.7765  0.2851
  715MOL0     O96391   3.741   3.363   9.355  0.0403 -0.1761 -0.0217
  715MOL0     C96392   3.806   3.326   9.454  0.6055 -0.6351 -0.2785
  715MOL0     O96393   3.946   3.309   9.459 -0.1459  0.0910 -0.0360
  715MOL0     C96394   4.011   3.346   9.340 -0.5817  0.4027  0.5277
  715MOL0     C96395   4.010   3.269   9.221  0.2740  0.1239  0.0107
  715MOL0     C96396   4.086   3.308   9.103 -0.4756 -0.0619 -0.5100
  715MOL0     C96397   4.157   3.430   9.105  0.6671  0.5945 -0.8787
  715MOL0     O96398   4.224   3.484   9.000  0.1519  1.3850 -0.3022
  715MOL0     C96399   4.143   3.502   8.882 -0.0415 -0.0324  1.0155
  715MOL0     C96400   4.034   3.611   8.877  1.0512 -0.6116  0.4645
  715MOL0     C96401   3.903   3.553   8.937  0.2794  0.0323 -0.2794
  715MOL0     C96402   3.764   3.619   8.891  0.0521 -0.4405  0.5272
  715MOL0     C96403   3.646   3.572   8.974 -0.0518 -0.1023 -0.0394
  715MOL0     C96404   3.505   3.604   8.912  0.3354  0.2791 -0.3134
  715MOL0     C96405   3.382   3.550   8.987 -0.7415  0.1829 -0.7512
  715MOL0     C96406   3.367   3.606   9.122  0.2358  0.0288 -0.0964
  715MOL0     N96407   3.307   3.515   9.214 -0.2018  0.8410 -0.6781
  715MOL0     C96408   3.181   3.531   9.254  0.2144 -0.4473 -0.2349
  715MOL0     C96409   3.182   3.470   9.382 -0.3235  1.0967 -0.2026
  715MOL0     C96410   3.076   3.458   9.487  0.5576  0.0031  0.4751
  715MOL0     C96411   2.973   3.356   9.435  0.2190  0.5307 -0.2892
  715MOL0     C96412   2.853   3.322   9.532  0.3653 -0.1929  0.6616
  715MOL0     C96413   2.892   3.290   9.673  0.6898  0.1612  0.0040
  715MOL0     O96414   3.007   3.216   9.696  0.0896  0.1356  0.1174
  715MOL0     C96415   3.002   3.084   9.660 -0.9952 -0.0415 -0.2748
  715MOL0     C96416   2.890   3.006   9.658 -0.5461  0.0550 -0.4434
  715MOL0     C96417   2.900   2.868   9.632  0.5136 -0.4572 -0.2615
  715MOL0     C96418   2.766   2.788   9.640 -0.1457 -0.4510  0.1441
  715MOL0     C96419   3.028   2.808   9.605  0.4552  1.4509 -0.3042
  715MOL0     C96420   3.033   2.658   9.574 -0.1105 -0.3430  0.7048
  715MOL0     O96421   3.151   2.598   9.600 -1.1607  0.4544  0.4360
  715MOL0     C96422   3.170   2.465   9.595  0.8424  0.4984 -0.5734
  715MOL0     C96423   3.124   2.379   9.495 -0.3488 -1.5620  0.1802
  715MOL0     C96424   3.152   2.246   9.490 -1.1211 -0.8872 -0.6381
  715MOL0     C96425   3.231   2.195   9.603 -0.2689  0.4533 -1.0339
  715MOL0     O96426   3.247   2.060   9.597 -0.3407  0.3099 -0.2179
  715MOL0     C96427   3.342   2.015   9.694 -0.1062 -0.1283 -0.9174
  715MOL0     C96428   3.321   1.860   9.684 -0.5817 -0.0481  0.6558
  715MOL0     C96429   3.195   1.799   9.748  0.0364 -0.3398  0.5076
  715MOL0     C96430   3.205   1.646   9.765 -1.1894 -0.4279  0.4103
  715MOL0     C96431   3.096   1.579   9.847 -0.1019  0.0074 -0.5283
  715MOL0     C96432   2.994   1.497   9.769 -0.6754 -0.5022 -0.1943
  715MOL0     C96433   2.847   1.483   9.839 -0.8611 -1.1216  0.1500
  715MOL0     C96434   2.766   1.354   9.795 -0.5773  0.0490 -0.1681
  715MOL0    Cl96435   2.874   1.212   9.832 -0.4812  0.3139  0.0500
  715MOL0     C96436   3.302   2.279   9.687  0.0804  0.2981 -0.8942
  715MOL0     C96437   3.265   2.415   9.680 -0.3238  1.2977 -0.2016
  715MOL0     O96438   2.934   2.604   9.529  0.1800 -0.2449  0.4462
  715MOL0     C96439   3.143   2.885   9.609 -0.9757 -0.1086  0.2008
  715MOL0     C96440   3.125   3.025   9.634 -0.5864 -0.1404 -0.4662
  715MOL0     N96441   3.299   3.400   9.393  0.4617 -0.7296  0.2458
  715MOL0     N96442   3.383   3.433   9.299  0.5935  0.0212  0.5991
  715MOL0     C96443   4.157   3.504   9.228  0.4025 -0.9216 -0.0057
  715MOL0     C96444   4.086   3.468   9.340  0.8802  0.1049 -0.0078
  715MOL0     C96445   3.727   3.311   9.571  0.4932  0.8359 -0.3328
  715MOL0     C96446   3.592   3.353   9.569 -0.0345  0.4784 -0.1692
  715MOL0     C96447   3.513   3.334   9.685 -0.2482  0.2706  0.4492
  715MOL0     C96448   3.567   3.281   9.803 -0.4581  0.3480 -0.4109
  715MOL0     O96449   3.491   3.242   9.913 -2.0063  0.1920  0.4688
  715MOL0     C96450   3.348   3.210   9.881  0.0305 -0.4653 -0.5676
  715MOL0     C96451   3.323   3.078   9.955 -0.7515 -0.7228 -0.1420
  715MOL0     C96452   3.417   2.966   9.915 -0.6771 -0.6131 -0.2830
  715MOL0     C96453   3.410   2.844  10.005  0.1870 -0.3470 -0.2091
  715MOL0     C96454   3.519   2.752   9.968 -0.5773  0.8528 -0.5738
  715MOL0     C96455   3.620   2.693   9.930  0.1305  0.0810 -0.4134
  715MOL0     C96456   3.700   3.258   9.803  0.9094  1.0461  0.9293
  715MOL0     C96457   3.783   3.265   9.695 -0.4182  0.6364 -0.7344
  715MOL0     H96458   3.959   3.174   9.216  2.8418 -1.3429 -4.7607
  715MOL0     H96459   4.087   3.245   9.015  0.5306 -0.4982 -0.2008
  715MOL0     H96460   4.205   3.535   8.798 -1.0550  1.6619  0.8879
  715MOL0     H96461   4.093   3.411   8.850 -2.3404  2.3820 -3.1555
  715MOL0     H96462   4.070   3.690   8.943 -0.8061 -0.1148  0.9448
  715MOL0     H96463   4.029   3.653   8.776  0.9722  3.0856  1.8535
  715MOL0     H96464   3.894   3.448   8.907 -0.0941 -0.3323  1.0496
  715MOL0     H96465   3.912   3.573   9.044 -5.5835  0.7446  0.4186
  715MOL0     H96466   3.762   3.728   8.896  0.8058 -0.4347  0.8643
  715MOL0     H96467   3.743   3.595   8.786  0.2667  2.9780 -0.4354
  715MOL0     H96468   3.645   3.465   8.998 -1.1932 -0.5219 -1.7332
  715MOL0     H96469   3.651   3.628   9.067 -0.2241  1.5948 -1.0143
  715MOL0     H96470   3.503   3.709   8.881  2.1652 -0.2784 -2.6696
  715MOL0     H96471   3.492   3.555   8.815 -1.9402 -1.1895  0.6554
  715MOL0     H96472   3.300   3.596   8.930  1.0963  0.0130 -3.7055
  715MOL0     H96473   3.372   3.441   8.984  1.4233 -0.0938  0.3854
  715MOL0     H96474   3.332   3.708   9.104  3.8765  0.9619 -3.2884
  715MOL0     H96475   3.466   3.619   9.168  0.4304  2.8128 -1.1215
  715MOL0     H96476   3.106   3.576   9.190  0.1133 -0.4783 -0.1386
  715MOL0     H96477   3.125   3.414   9.574  1.5972  3.3317  1.7244
  715MOL0     H96478   3.044   3.555   9.525 -1.5725  0.6916 -2.7012
  715MOL0     H96479   3.022   3.266   9.398 -0.0253  0.7477 -1.1541
  715MOL0     H96480   2.927   3.400   9.346  1.7305  1.4767 -0.6354
  715MOL0     H96481   2.782   3.257   9.481  0.4810  0.7013 -0.6936
  715MOL0     H96482   2.793   3.413   9.534  1.1737  0.3490  0.9971
  715MOL0     H96483   2.808   3.246   9.727  1.1264 -0.3982  0.2446
  715MOL0     H96484   2.915   3.380   9.731 -5.4313  0.6650  2.3723
  715MOL0     H96485   2.791   3.042   9.685  0.8149  2.2270  2.1444
  715MOL0     H96486   2.683   2.842   9.687 -1.5297  1.1530 -3.7152
  715MOL0     H96487   2.739   2.767   9.536  1.1809 -3.2710  0.2805
  715MOL0     H96488   2.773   2.691   9.690 -1.2268  0.8662  3.1284
  715MOL0     H96489   3.049   2.403   9.420  2.4383 -0.2794 -2.4202
  715MOL0     H96490   3.100   2.180   9.422 -2.0091  1.1864 -2.0867
  715MOL0     H96491   3.445   2.049   9.683 -0.1919  0.3296 -0.3450
  715MOL0     H96492   3.318   2.050   9.795 -0.8605 -0.5582 -0.9374
  715MOL0     H96493   3.313   1.816   9.584  1.6696 -0.3752  0.5861
  715MOL0     H96494   3.410   1.816   9.729 -1.1149 -1.0614  0.7430
  715MOL0     H96495   3.104   1.829   9.696 -1.1681 -2.6145  1.1728
  715MOL0     H96496   3.184   1.847   9.846 -0.3202  2.0609 -0.6365
  715MOL0     H96497   3.209   1.606   9.664 -0.9248  1.0340 -0.1870
  715MOL0     H96498   3.299   1.623   9.816  1.3628  0.7458 -3.3865
  715MOL0     H96499   3.041   1.665   9.888 -1.8651 -2.6457  3.2753
  715MOL0     H96500   3.124   1.509   9.926 -0.5781 -2.4109 -2.3794
  715MOL0     H96501   2.981   1.544   9.671 -3.8547 -3.8263 -1.6130
  715MOL0     H96502   3.048   1.403   9.756  0.9666  0.1095  1.6562
  715MOL0     H96503   2.791   1.569   9.801 -0.7223 -1.0380  0.1351
  715MOL0     H96504   2.853   1.496   9.948 -2.7826  2.9492 -0.0315
  715MOL0     H96505   2.766   1.358   9.686  2.5768 -0.0790 -0.2523
  715MOL0     H96506   2.663   1.350   9.832  0.3694  2.3235  3.1654
  715MOL0     H96507   3.379   2.246   9.756  2.9126  0.3102 -3.7857
  715MOL0     H96508   3.301   2.491   9.748  2.1875  2.8716 -3.0230
  715MOL0     H96509   3.235   2.839   9.575  0.2466  2.0984  0.3201
  715MOL0     H96510   3.209   3.092   9.621  1.0471 -1.3450  2.7283
  715MOL0     H96511   4.217   3.593   9.241 -1.3370  0.4276 -0.7911
  715MOL0     H96512   4.097   3.527   9.430 -0.4366  0.1023  0.1814
  715MOL0     H96513   3.551   3.404   9.482 -0.4517  0.8105  0.2199
  715MOL0     H96514   3.414   3.377   9.679 -0.5762 -0.6394 -4.2747
  715MOL0     H96515   3.287   3.293   9.917  1.2988  0.6153 -0.7997
  715MOL0     H96516   3.324   3.192   9.776 -0.2365 -1.0673 -0.4022
  715MOL0     H96517   3.225   3.047   9.918 -0.5383  0.9417 -2.2429
  715MOL0     H96518   3.327   3.089  10.064 -4.7294 -0.0686  0.0970
  715MOL0     H96519   3.517   3.004   9.935 -2.3557  2.7032  3.1732
  715MOL0     H96520   3.386   2.947   9.812 -6.2702  2.3261  0.4573
  715MOL0     H96521   3.313   2.797   9.985  0.2165 -0.6984  0.4394
  715MOL0     H96522   3.417   2.875  10.110 -4.5327  1.1846 -0.0971
  715MOL0     H96523   3.706   2.642   9.892 -0.2617 -1.0772  0.2077
  715MOL0     H96524   3.751   3.205   9.883  3.4806  1.7560 -0.1744
  715MOL0     H96525   3.887   3.239   9.708 -0.7326  0.3996  1.7759
  716MOL0     O96526  11.343   0.069   9.641  0.1148 -0.2577  0.0523
  716MOL0     C96527  11.458   0.039   9.607 -0.4487  0.3078 -0.1079
  716MOL0     O96528  11.511   0.062   9.490  1.2422  0.3842  0.0901
  716MOL0     C96529  11.434   0.137   9.396  0.2180  0.5300  0.5276
  716MOL0     C96530  11.429   0.077   9.272 -0.7820 -0.0501 -0.3233
  716MOL0     C96531  11.341   0.132   9.179  0.0951 -0.2370  0.2663
  716MOL0     C96532  11.259   0.244   9.205 -0.5719  0.6565 -0.3231
  716MOL0     O96533  11.153   0.303   9.127  0.2288 -0.2009 -0.5106
  716MOL0     C96534  11.082   0.215   9.038  0.5056  0.5105 -0.5753
  716MOL0     C96535  10.940   0.243   8.998  0.1888 -0.7156 -0.3837
  716MOL0     C96536  10.937   0.325   8.870  0.0425 -1.2517 -0.4799
  716MOL0     C96537  10.804   0.396   8.849  0.1849 -0.7888  1.5820
  716MOL0     C96538  10.793   0.526   8.931  0.0448  0.1942 -0.0979
  716MOL0     C96539  10.663   0.603   8.923  0.3296  0.0777  0.2776
  716MOL0     C96540  10.665   0.742   8.991  0.5270  0.1699  0.3378
  716MOL0     C96541  10.638   0.743   9.139  0.3755  0.1233 -0.1922
  716MOL0     N96542  10.494   0.709   9.175 -0.3357 -0.0262  0.1050
  716MOL0     C96543  10.446   0.716   9.310  0.6124  0.3053 -0.4944
  716MOL0     C96544  10.311   0.706   9.305 -0.0451  0.4114 -0.2287
  716MOL0     C96545  10.220   0.693   9.421 -0.4183 -0.3413  0.3077
  716MOL0     C96546  10.187   0.833   9.479 -0.1044 -0.5076  0.1706
  716MOL0     C96547  10.042   0.884   9.477 -0.3345  0.9420  0.5825
  716MOL0     C96548   9.958   0.816   9.589 -0.5539 -0.0620 -0.0814
  716MOL0     O96549   9.938   0.682   9.555 -0.4651 -0.0861  0.7124
  716MOL0     C96550   9.851   0.610   9.632  0.0234  1.2408  0.7302
  716MOL0     C96551   9.784   0.503   9.570 -0.4963  0.2381  0.0974
  716MOL0     C96552   9.691   0.427   9.647 -0.6313  0.0802  0.0987
  716MOL0     C96553   9.628   0.315   9.564 -0.8731 -0.3334  0.7681
  716MOL0     C96554   9.676   0.436   9.786 -0.2634  0.0178  0.6333
  716MOL0     C96555   9.580   0.352   9.878  0.2544 -0.9448 -0.8674
  716MOL0     O96556   9.589   0.379  10.017  0.2415  0.2113 -0.5219
  716MOL0     C96557   9.520   0.322  10.122  0.0952  0.9164  0.4526
  716MOL0     C96558   9.598   0.276  10.227 -0.7383 -0.5413 -0.9042
  716MOL0     C96559   9.550   0.199  10.335  0.3974 -0.2678  1.1976
  716MOL0     C96560   9.422   0.151  10.329  0.5876 -0.9394 -0.2510
  716MOL0     O96561   9.367   0.108  10.443 -0.5322 -0.1074 -0.2358
  716MOL0     C96562   9.263   0.008  10.425  0.5842  0.1786 -0.2753
  716MOL0     C96563   9.248  -0.079  10.549 -0.2247  0.5706 -0.0451
  716MOL0     C96564   9.221  -0.001  10.672 -0.5347  0.7018 -0.7451
  716MOL0     C96565   9.180  -0.094  10.779  0.6820 -0.1482 -0.5813
  716MOL0     C96566   9.281  -0.196  10.819 -0.1174  0.1201  0.4002
  716MOL0     C96567   9.417  -0.130  10.859  0.7405 -0.4461  0.5074
  716MOL0     C96568   9.509  -0.228  10.927 -0.6244 -0.3474 -0.4568
  716MOL0     C96569   9.650  -0.174  10.937  0.0188  0.2586 -0.9145
  716MOL0    Cl96570   9.744  -0.247  11.080 -0.3300  0.0906 -0.1596
  716MOL0     C96571   9.341   0.179  10.212  0.1777  0.1130  0.1328
  716MOL0     C96572   9.388   0.266  10.121 -0.0415 -0.4441  0.4751
  716MOL0     O96573   9.499   0.267   9.835 -0.0209 -0.1740 -0.2097
  716MOL0     C96574   9.745   0.544   9.842 -0.6600  0.1994  0.0361
  716MOL0     C96575   9.833   0.627   9.770 -0.4314 -1.0800  0.2108
  716MOL0     N96576  10.266   0.684   9.176 -1.0447 -0.0557  0.2232
  716MOL0     N96577  10.374   0.688   9.096 -0.3298  0.0634 -0.3365
  716MOL0     C96578  11.283   0.304   9.332  0.4925  0.1308  0.9361
  716MOL0     C96579  11.368   0.254   9.424  0.0363 -0.6708 -0.4724
  716MOL0     C96580  11.537  -0.035   9.713 -0.2712  0.8081  0.3819
  716MOL0     C96581  11.487  -0.045   9.844 -0.7658 -0.2875 -0.2489
  716MOL0     C96582  11.569  -0.097   9.948 -0.4554 -0.4804 -0.6420
  716MOL0     C96583  11.691  -0.151   9.905  0.1319  0.2126 -0.5254
  716MOL0     O96584  11.754  -0.213  10.007  0.0835  0.7333  0.1055
  716MOL0     C96585  11.861  -0.139  10.065 -0.3788 -0.2867 -0.3921
  716MOL0     C96586  11.963  -0.227  10.140  0.2704  0.3732  0.4306
  716MOL0     C96587  12.065  -0.144  10.219 -0.0127  0.0651 -0.7176
  716MOL0     C96588  12.163  -0.244  10.290  0.4517  0.1133  0.7642
  716MOL0     C96589  12.101  -0.293  10.409 -0.2552 -1.5419  0.2701
  716MOL0     C96590  12.068  -0.352  10.514 -0.3760 -0.0190  0.5269
  716MOL0     C96591  11.736  -0.146   9.774  0.7768  0.0033 -0.8759
  716MOL0     C96592  11.663  -0.087   9.672 -0.1127  0.0544  0.1114
  716MOL0     H96593  11.483  -0.010   9.236 -2.3902 -0.4176 -1.9848
  716MOL0     H96594  11.327   0.072   9.090 -0.7292  2.3729 -1.4891
  716MOL0     H96595  11.144   0.218   8.948 -0.1705  2.4520 -1.0257
  716MOL0     H96596  11.089   0.118   9.089  0.3471  1.2365  0.8647
  716MOL0     H96597  10.899   0.143   8.983 -0.3147 -0.5267 -0.2850
  716MOL0     H96598  10.889   0.290   9.082 -0.5830 -0.5114 -0.9564
  716MOL0     H96599  11.019   0.398   8.869  2.6771 -4.0034 -0.7816
  716MOL0     H96600  10.967   0.264   8.784  1.6977 -0.6398 -0.3784
  716MOL0     H96601  10.793   0.416   8.742  2.0256  1.9002  1.8180
  716MOL0     H96602  10.718   0.332   8.872 -0.2710 -0.0768  1.8798
  716MOL0     H96603  10.812   0.498   9.035  2.6731 -1.1261 -0.8534
  716MOL0     H96604  10.872   0.595   8.898 -0.7914  0.9541 -0.5647
  716MOL0     H96605  10.629   0.604   8.819 -1.7032 -0.3973  0.9114
  716MOL0     H96606  10.583   0.539   8.961 -1.3371 -0.2671 -3.4120
  716MOL0     H96607  10.755   0.799   8.965 -0.7838  1.7792 -0.9194
  716MOL0     H96608  10.588   0.804   8.946  0.3157 -0.7809 -0.6263
  716MOL0     H96609  10.647   0.844   9.180 -3.2433  0.1671  0.8912
  716MOL0     H96610  10.706   0.687   9.205 -1.1354 -1.2355  0.2849
  716MOL0     H96611  10.499   0.719   9.405 -0.6841  1.6848  0.2216
  716MOL0     H96612  10.134   0.639   9.381 -0.3844  0.1685 -0.4849
  716MOL0     H96613  10.267   0.631   9.497  1.0466 -3.4934 -2.8645
  716MOL0     H96614  10.241   0.909   9.422  1.1681 -0.5784  1.2334
  716MOL0     H96615  10.233   0.837   9.579 -2.0889  0.8931  1.0843
  716MOL0     H96616  10.007   0.859   9.377  1.4408  1.0346 -0.1126
  716MOL0     H96617  10.060   0.992   9.490  3.6510  0.3701  1.1661
  716MOL0     H96618   9.859   0.862   9.594 -0.5720 -0.1610  0.5905
  716MOL0     H96619  10.021   0.813   9.678  1.1636 -0.8005 -1.2742
  716MOL0     H96620   9.811   0.470   9.471  0.4486 -0.4066  0.5524
  716MOL0     H96621   9.653   0.216   9.605  0.5122 -0.5480 -0.5013
  716MOL0     H96622   9.521   0.322   9.544 -0.6093  0.6940 -0.3611
  716MOL0     H96623   9.674   0.310   9.465 -0.8165  0.2064  0.7664
  716MOL0     H96624   9.706   0.292  10.228 -0.8568  0.2702 -0.0594
  716MOL0     H96625   9.613   0.181  10.421  2.3374 -1.3126 -0.3467
  716MOL0     H96626   9.169   0.060  10.404 -0.3767 -1.6006 -0.6068
  716MOL0     H96627   9.290  -0.057  10.341 -1.1788 -0.1154 -0.6587
  716MOL0     H96628   9.162  -0.146  10.539 -1.4389  1.3531  3.3956
  716MOL0     H96629   9.338  -0.140  10.558 -1.1531 -0.5700  2.5324
  716MOL0     H96630   9.141   0.072  10.655  0.8866  2.1998 -1.2972
  716MOL0     H96631   9.304   0.063  10.704 -1.2737  1.1201  0.4057
  716MOL0     H96632   9.173  -0.032  10.869  1.3580 -0.8732 -0.0213
  716MOL0     H96633   9.079  -0.122  10.747  0.3497  1.1353 -0.7301
  716MOL0     H96634   9.291  -0.276  10.746 -0.9851  1.0166 -0.7454
  716MOL0     H96635   9.236  -0.241  10.908 -1.2020  1.2739  0.4771
  716MOL0     H96636   9.456  -0.085  10.767 -0.2893 -0.1898  0.1732
  716MOL0     H96637   9.386  -0.046  10.922 -5.3440 -0.7232 -1.4190
  716MOL0     H96638   9.500  -0.325  10.876 -4.3315 -1.2367  1.5866
  716MOL0     H96639   9.470  -0.245  11.028  0.2485  3.7219  0.7377
  716MOL0     H96640   9.626  -0.068  10.941 -4.4679 -0.5436 -1.3972
  716MOL0     H96641   9.700  -0.192  10.842  0.7176 -0.1349 -0.4792
  716MOL0     H96642   9.242   0.138  10.197  0.0217 -0.4469  2.3999
  716MOL0     H96643   9.328   0.274  10.031  1.7359 -2.0254 -0.9319
  716MOL0     H96644   9.735   0.563   9.948  0.3786  1.9217 -0.1405
  716MOL0     H96645   9.890   0.690   9.838  1.6240 -2.9894  0.3835
  716MOL0     H96646  11.232   0.395   9.363 -0.6765 -0.1408 -0.0985
  716MOL0     H96647  11.365   0.307   9.519 -2.7140 -1.0687 -0.2499
  716MOL0     H96648  11.393  -0.000   9.874  0.0216  0.9679  0.4538
  716MOL0     H96649  11.551  -0.098  10.055 -2.7076  2.6412 -0.8271
  716MOL0     H96650  11.903  -0.066   9.995  3.2197 -2.0370 -0.2740
  716MOL0     H96651  11.815  -0.078  10.144 -1.6755 -2.5202  0.6558
  716MOL0     H96652  12.020  -0.284  10.066  1.2936  2.4356 -0.4573
  716MOL0     H96653  11.906  -0.290  10.209  0.2862  2.5113  2.5172
  716MOL0     H96654  12.017  -0.083  10.296  0.5993 -0.4242  0.0765
  716MOL0     H96655  12.124  -0.089  10.146 -0.2708 -1.6336 -2.2820
  716MOL0     H96656  12.267  -0.211  10.293 -0.0763  1.8416  1.6418
  716MOL0     H96657  12.177  -0.328  10.221  0.5890 -0.6934  1.7596
  716MOL0     H96658  12.057  -0.418  10.598 -0.8178 -1.4778 -0.6354
  716MOL0     H96659  11.824  -0.202   9.744 -2.0829 -3.2008 -4.3608
  716MOL0     H96660  11.696  -0.085   9.568 -0.9995  0.0773 -0.1847
  717MOL0     O96661   2.710   0.422   2.133 -0.1803 -0.0693 -0.4419
  717MOL0     C96662   2.678   0.457   2.248 -0.3662  0.4889  0.3253
  717MOL0     O96663   2.551   0.455   2.295  0.8443 -0.0263  0.0654
  717MOL0     C96664   2.451   0.373   2.223  0.6235  0.1766 -0.2062
  717MOL0     C96665   2.393   0.259   2.285  1.4001 -1.4461 -0.1439
  717MOL0     C96666   2.295   0.186   2.233  0.8841 -0.0567  0.5473
  717MOL0     C96667   2.239   0.223   2.109 -0.7235  0.9858  0.0735
  717MOL0     O96668   2.131   0.163   2.062  1.2983  0.1506 -0.3813
  717MOL0     C96669   2.120   0.020   2.067 -0.9304 -0.7627  0.6969
  717MOL0     C96670   2.015  -0.021   1.964 -0.7244 -0.5197 -0.6749
  717MOL0     C96671   2.062   0.003   1.822  0.6450 -0.4684  0.2025
  717MOL0     C96672   1.962  -0.056   1.716 -0.8076  0.1732 -0.0610
  717MOL0     C96673   1.999   0.015   1.592 -0.1529  0.1590 -0.0794
  717MOL0     C96674   1.976  -0.062   1.466  0.4574 -0.2491  1.5220
  717MOL0     C96675   1.835  -0.130   1.458  0.1342 -0.2830  0.2299
  717MOL0     C96676   1.800  -0.160   1.312  0.5520  0.2951  0.7219
  717MOL0     N96677   1.900  -0.259   1.264  0.1531 -1.1412 -0.6757
  717MOL0     C96678   1.880  -0.389   1.282 -0.4756 -0.7933  0.6313
  717MOL0     C96679   1.988  -0.453   1.243  0.3575  0.0334  0.9751
  717MOL0     C96680   1.991  -0.601   1.242  0.1361 -0.3261  1.2012
  717MOL0     C96681   1.915  -0.663   1.123  0.8697  0.8042 -0.8075
  717MOL0     C96682   1.977  -0.798   1.092 -0.2572 -0.4769  0.3071
  717MOL0     C96683   1.928  -0.834   0.945 -0.4826  0.7348 -0.9005
  717MOL0     O96684   1.788  -0.860   0.958 -0.0785  0.2997 -0.1559
  717MOL0     C96685   1.724  -0.983   0.961 -0.6853 -0.7474  0.7821
  717MOL0     C96686   1.591  -0.994   0.997 -0.4596 -0.1960 -0.4182
  717MOL0     C96687   1.515  -1.107   0.984 -0.1839 -0.4908 -0.2126
  717MOL0     C96688   1.374  -1.098   1.039  0.2554 -0.9779 -0.0008
  717MOL0     C96689   1.571  -1.227   0.932  0.6333  0.6292 -0.3449
  717MOL0     C96690   1.503  -1.354   0.913  0.8092  0.1861  0.0549
  717MOL0     O96691   1.569  -1.438   0.826  0.3307  0.0866  0.1312
  717MOL0     C96692   1.517  -1.569   0.791 -0.3902 -0.9944 -0.8072
  717MOL0     C96693   1.566  -1.637   0.676 -0.2005 -0.5391 -1.3355
  717MOL0     C96694   1.529  -1.764   0.644 -0.7941  0.0073  0.0735
  717MOL0     C96695   1.440  -1.837   0.722 -1.3487 -0.0421  0.0779
  717MOL0     O96696   1.390  -1.954   0.670  0.2127  0.0571  0.2466
  717MOL0     C96697   1.315  -2.037   0.759  0.3436 -0.5578 -0.0452
  717MOL0     C96698   1.281  -2.162   0.667  0.0002  1.1781 -0.0426
  717MOL0     C96699   1.413  -2.216   0.588 -0.5890 -1.1171 -0.1669
  717MOL0     C96700   1.512  -2.281   0.693 -0.1169 -0.1474  0.3752
  717MOL0     C96701   1.632  -2.348   0.617 -0.5975  0.9280  2.1259
  717MOL0     C96702   1.760  -2.350   0.694  0.2141 -1.1328 -1.1053
  717MOL0     C96703   1.766  -2.439   0.821 -0.6058 -1.5206 -0.3211
  717MOL0     C96704   1.868  -2.399   0.930 -0.4981 -0.3975 -0.4262
  717MOL0    Cl96705   2.021  -2.384   0.833 -0.1457  0.1004 -0.3563
  717MOL0     C96706   1.388  -1.779   0.833  0.1671  0.0672  0.6498
  717MOL0     C96707   1.423  -1.651   0.865 -0.8871  0.2922 -0.0947
  717MOL0     O96708   1.389  -1.370   0.963 -0.4269  0.4997 -0.0351
  717MOL0     C96709   1.708  -1.215   0.889  0.8474 -0.5571  0.5641
  717MOL0     C96710   1.787  -1.099   0.903  0.0027  1.1317 -0.2729
  717MOL0     N96711   2.080  -0.357   1.205 -0.1694 -0.4878  0.5444
  717MOL0     N96712   2.027  -0.244   1.210 -0.3410  0.1044 -0.2319
  717MOL0     C96713   2.305   0.321   2.039 -0.5953  1.1286 -0.5434
  717MOL0     C96714   2.403   0.404   2.097  0.1008  0.1143  0.0985
  717MOL0     C96715   2.784   0.505   2.334 -0.4723 -1.1533 -0.0466
  717MOL0     C96716   2.916   0.473   2.303  0.0813 -0.2315  0.4609
  717MOL0     C96717   3.018   0.506   2.383 -0.3644  0.4076 -0.3754
  717MOL0     C96718   2.991   0.590   2.490 -0.7631 -0.2092 -0.0679
  717MOL0     O96719   3.100   0.625   2.576 -0.6660  0.0953 -0.0818
  717MOL0     C96720   3.089   0.717   2.681 -0.0935 -0.0533  0.0705
  717MOL0     C96721   3.118   0.864   2.654  0.3700  1.1362  0.2023
  717MOL0     C96722   3.117   0.959   2.774  0.2624  0.4107  0.8434
  717MOL0     C96723   3.011   1.060   2.795  0.3865  0.8870  0.2204
  717MOL0     C96724   2.881   0.989   2.811 -0.1942  0.3848  0.6154
  717MOL0     C96725   2.768   0.938   2.821 -0.1801  0.9357 -0.3053
  717MOL0     C96726   2.863   0.640   2.507 -0.2146  0.4933  0.3384
  717MOL0     C96727   2.762   0.607   2.426  0.7109  0.6864 -0.2544
  717MOL0     H96728   2.430   0.218   2.378  0.7093 -0.0350  0.7781
  717MOL0     H96729   2.251   0.111   2.298  0.5300 -1.4294 -1.1852
  717MOL0     H96730   2.211  -0.042   2.058 -2.6889 -4.0773  3.2790
  717MOL0     H96731   2.087  -0.006   2.168  0.2101 -1.2694  0.9663
  717MOL0     H96732   1.992  -0.128   1.974 -1.1330 -0.6439 -2.5893
  717MOL0     H96733   1.923   0.033   1.987 -0.2844  0.1081 -0.3468
  717MOL0     H96734   2.058   0.112   1.811  1.1918 -0.4873 -0.2401
  717MOL0     H96735   2.164  -0.032   1.807  0.8144  0.5877 -1.3820
  717MOL0     H96736   1.995  -0.160   1.703  0.2003  0.4636  0.0594
  717MOL0     H96737   1.857  -0.045   1.744 -0.1615 -0.3090  2.9189
  717MOL0     H96738   1.936   0.104   1.582  2.6923  2.1604 -1.5446
  717MOL0     H96739   2.105   0.040   1.590  0.2486 -1.4419 -0.0635
  717MOL0     H96740   1.999   0.000   1.379 -1.1945  0.6770  1.7000
  717MOL0     H96741   2.043  -0.149   1.468  0.2631 -0.4523  0.2963
  717MOL0     H96742   1.838  -0.222   1.517  1.6297  0.5494  1.5237
  717MOL0     H96743   1.765  -0.055   1.496  0.2372 -0.4979  0.8526
  717MOL0     H96744   1.797  -0.082   1.236 -1.0864 -3.1720 -3.2208
  717MOL0     H96745   1.703  -0.211   1.308 -0.3570  1.4870  4.3782
  717MOL0     H96746   1.798  -0.448   1.322  0.6674 -2.7643  0.2126
  717MOL0     H96747   2.097  -0.625   1.254  0.7195 -0.3840 -2.8158
  717MOL0     H96748   1.942  -0.636   1.334 -1.2620  0.6610  0.8742
  717MOL0     H96749   1.927  -0.593   1.039 -1.1414  2.3812  0.1227
  717MOL0     H96750   1.811  -0.678   1.154  1.6225 -1.9240  0.6251
  717MOL0     H96751   1.943  -0.872   1.165  0.6028 -1.1416  0.0531
  717MOL0     H96752   2.087  -0.798   1.093 -0.1102  2.0991 -2.3828
  717MOL0     H96753   1.982  -0.916   0.897 -1.4611 -0.2991 -0.3029
  717MOL0     H96754   1.936  -0.743   0.885 -3.7031 -0.0236 -2.7004
  717MOL0     H96755   1.562  -0.910   1.059 -3.6083 -1.1578 -0.3726
  717MOL0     H96756   1.366  -1.153   1.133  2.5056  0.9227  1.4143
  717MOL0     H96757   1.342  -0.995   1.061  0.7639 -0.3393 -2.0135
  717MOL0     H96758   1.299  -1.142   0.973 -2.2448  0.0872  1.9726
  717MOL0     H96759   1.629  -1.573   0.616  0.9271  2.2078  2.3516
  717MOL0     H96760   1.563  -1.803   0.548 -0.3467 -1.9326  0.9635
  717MOL0     H96761   1.382  -2.052   0.845  1.4355 -0.5941 -0.8719
  717MOL0     H96762   1.228  -1.993   0.807  1.8330  2.2016  0.3451
  717MOL0     H96763   1.251  -2.241   0.735  2.9147  0.9448  1.1412
  717MOL0     H96764   1.199  -2.142   0.597  3.6201  0.4091 -5.1435
  717MOL0     H96765   1.459  -2.141   0.523  0.8419 -1.8476 -0.0543
  717MOL0     H96766   1.384  -2.300   0.524 -1.1634 -0.9229 -0.1603
  717MOL0     H96767   1.552  -2.201   0.756  0.1533 -0.2973  0.3952
  717MOL0     H96768   1.465  -2.353   0.760  0.2434 -1.1966 -0.4779
  717MOL0     H96769   1.640  -2.289   0.526 -0.2731 -0.7503  1.0320
  717MOL0     H96770   1.613  -2.453   0.595  2.4751  0.9280 -1.4819
  717MOL0     H96771   1.839  -2.376   0.624 -0.4215 -4.1982 -0.8251
  717MOL0     H96772   1.781  -2.246   0.720 -0.4611 -1.3157  0.2582
  717MOL0     H96773   1.792  -2.540   0.788  0.9471 -0.6261 -1.9559
  717MOL0     H96774   1.671  -2.450   0.876  0.3455 -1.4020  1.4135
  717MOL0     H96775   1.884  -2.468   1.013  4.0338 -0.4712 -1.0708
  717MOL0     H96776   1.850  -2.303   0.979  2.3912 -0.0232  0.0653
  717MOL0     H96777   1.321  -1.831   0.901  0.4926  3.4447  3.8555
  717MOL0     H96778   1.376  -1.610   0.954 -2.4640 -0.4548 -0.5537
  717MOL0     H96779   1.764  -1.296   0.844 -1.2488 -0.5733 -2.3360
  717MOL0     H96780   1.886  -1.105   0.859 -1.1232  0.4465 -2.9279
  717MOL0     H96781   2.282   0.323   1.933  0.2500  0.6095 -0.7443
  717MOL0     H96782   2.443   0.471   2.022  0.0382 -1.5923 -1.5347
  717MOL0     H96783   2.943   0.411   2.218 -4.0662 -4.3125  1.7380
  717MOL0     H96784   3.118   0.471   2.361 -0.6254 -0.5689 -0.0446
  717MOL0     H96785   2.988   0.715   2.723  0.6104  0.6642  1.9010
  717MOL0     H96786   3.158   0.688   2.761 -1.1217 -0.8094  0.7104
  717MOL0     H96787   3.043   0.901   2.584 -3.1162  1.6206  3.8604
  717MOL0     H96788   3.213   0.877   2.601  0.7830 -0.3904  0.5034
  717MOL0     H96789   3.207   1.020   2.764  0.2568  0.2534 -0.4226
  717MOL0     H96790   3.127   0.899   2.865 -2.2750  0.6907  1.4014
  717MOL0     H96791   2.993   1.121   2.706 -0.7349  0.1713 -0.0666
  717MOL0     H96792   3.033   1.129   2.877  1.3337  0.8411  0.0183
  717MOL0     H96793   2.690   0.867   2.841 -1.9607  3.4609  2.6888
  717MOL0     H96794   2.846   0.724   2.574  1.8262  1.4746 -0.2709
  717MOL0     H96795   2.660   0.644   2.438 -0.2859 -1.1425 -2.3460
  718MOL0     O96796   6.704   4.509   3.741 -0.5778 -0.2345  0.0032
  718MOL0     C96797   6.596   4.562   3.727  0.0672 -0.3144  0.9209
  718MOL0     O96798   6.484   4.523   3.774 -0.5798  0.0848  0.7736
  718MOL0     C96799   6.478   4.406   3.846 -0.1966  0.3627 -0.0996
  718MOL0     C96800   6.398   4.305   3.804  0.0720  0.1192 -0.1626
  718MOL0     C96801   6.379   4.188   3.875  0.1712  0.1585  0.8774
  718MOL0     C96802   6.452   4.166   3.988 -0.0911  0.1606 -0.1584
  718MOL0     O96803   6.458   4.049   4.054  1.6679  0.9483  0.2464
  718MOL0     C96804   6.450   3.934   3.970  0.7308  0.1338 -0.0442
  718MOL0     C96805   6.564   3.842   3.993  0.2486  0.3661 -0.7508
  718MOL0     C96806   6.590   3.804   4.132  0.0802 -0.0140 -0.5155
  718MOL0     C96807   6.477   3.726   4.212 -0.0298 -0.4509  0.5711
  718MOL0     C96808   6.526   3.704   4.358  0.6302 -0.1874 -0.3027
  718MOL0     C96809   6.409   3.644   4.438 -0.9240  0.9173 -0.0622
  718MOL0     C96810   6.417   3.497   4.414  1.0676  0.8823 -0.9289
  718MOL0     C96811   6.303   3.454   4.516  0.4292  0.0047 -0.4956
  718MOL0     N96812   6.351   3.433   4.654  0.8230  0.2345  0.6690
  718MOL0     C96813   6.413   3.316   4.689 -0.6675 -0.4594 -0.5104
  718MOL0     C96814   6.400   3.310   4.825  0.8840 -0.3195  0.0584
  718MOL0     C96815   6.460   3.215   4.926  0.1119 -0.6195  0.0715
  718MOL0     C96816   6.594   3.263   4.975 -0.3858  0.2068 -0.1263
  718MOL0     C96817   6.669   3.169   5.084 -0.0801  0.2029  0.8107
  718MOL0     C96818   6.684   3.028   5.022 -0.1974 -1.1267 -1.1027
  718MOL0     O96819   6.767   3.019   4.898  0.6503  0.3064 -0.2619
  718MOL0     C96820   6.898   3.050   4.906 -0.2346 -0.3345  0.4388
  718MOL0     C96821   6.991   2.952   4.920  0.0653 -0.2116  0.4916
  718MOL0     C96822   7.132   2.962   4.936  0.4767 -0.5421 -0.7644
  718MOL0     C96823   7.232   2.844   4.945 -0.0097  0.6765  0.5129
  718MOL0     C96824   7.175   3.100   4.938  0.3671 -0.3727 -0.3012
  718MOL0     C96825   7.323   3.136   4.936  0.4982  0.1779  0.8945
  718MOL0     O96826   7.403   3.160   5.041  0.0549  0.2685  0.5101
  718MOL0     C96827   7.335   3.171   5.156 -0.0514 -1.3725 -0.4945
  718MOL0     C96828   7.295   3.057   5.231  0.4002 -0.8191  0.0529
  718MOL0     C96829   7.238   3.081   5.359 -0.5328  0.0368 -1.2318
  718MOL0     C96830   7.189   3.201   5.405 -0.0099  0.0050  1.0175
  718MOL0     O96831   7.129   3.217   5.536 -0.5206  0.2347  0.1325
  718MOL0     C96832   7.161   3.332   5.615  0.3128 -0.9964 -0.0406
  718MOL0     C96833   7.033   3.397   5.664  0.4478  0.1108 -0.1354
  718MOL0     C96834   6.955   3.310   5.752 -1.1395 -0.0333 -0.0835
  718MOL0     C96835   6.857   3.228   5.680 -0.5841 -0.1852 -0.1992
  718MOL0     C96836   6.767   3.140   5.776 -0.0389 -0.3631 -0.7965
  718MOL0     C96837   6.705   3.047   5.684 -0.5851  0.5995 -0.0936
  718MOL0     C96838   6.629   2.947   5.762  0.0188  0.1904 -0.9636
  718MOL0     C96839   6.487   2.990   5.792  0.3671 -0.3259 -0.1101
  718MOL0    Cl96840   6.405   2.872   5.890  0.5620 -0.0215 -0.4487
  718MOL0     C96841   7.240   3.312   5.324  0.5052 -0.5149  1.1945
  718MOL0     C96842   7.308   3.299   5.208 -0.5020  0.8254  1.3481
  718MOL0     O96843   7.366   3.128   4.822 -0.1706 -0.0947  0.0303
  718MOL0     C96844   7.083   3.202   4.917  0.2594 -0.4390  0.0468
  718MOL0     C96845   6.947   3.174   4.891  0.3209  0.6765 -0.3422
  718MOL0     N96846   6.312   3.412   4.873  1.0281 -0.4895  0.0995
  718MOL0     N96847   6.295   3.479   4.769  0.0939 -0.8680 -0.0205
  718MOL0     C96848   6.542   4.264   4.031 -0.1833 -0.5077  0.1907
  718MOL0     C96849   6.561   4.382   3.963  0.1680  0.8044 -0.5476
  718MOL0     C96850   6.602   4.703   3.671 -0.9889 -0.6605  1.7796
  718MOL0     C96851   6.708   4.748   3.587 -0.1529 -0.3265 -0.7233
  718MOL0     C96852   6.714   4.876   3.530 -0.7635  0.0049  1.3984
  718MOL0     C96853   6.626   4.976   3.562 -0.2979  0.2991  0.4079
  718MOL0     O96854   6.632   5.102   3.517 -0.7083  0.1681  0.9060
  718MOL0     C96855   6.724   5.147   3.429  0.0963  0.0061  0.3076
  718MOL0     C96856   6.698   5.289   3.371  0.0373 -0.8193  0.6144
  718MOL0     C96857   6.829   5.335   3.303 -0.5542 -0.5999  0.8848
  718MOL0     C96858   6.786   5.440   3.186 -1.0560 -1.7587  0.6464
  718MOL0     C96859   6.904   5.529   3.154 -0.1360 -0.8674 -0.1301
  718MOL0     C96860   7.010   5.589   3.123 -0.2038  0.4565  0.2341
  718MOL0     C96861   6.521   4.937   3.655 -0.6783 -0.6283  0.6536
  718MOL0     C96862   6.509   4.808   3.703 -0.4205  0.5856  0.4038
  718MOL0     H96863   6.346   4.307   3.708  1.1418 -1.3767 -0.7973
  718MOL0     H96864   6.308   4.118   3.832  0.2588 -0.5469  1.8493
  718MOL0     H96865   6.352   3.886   3.980  0.1349  1.1799 -0.6016
  718MOL0     H96866   6.468   3.956   3.864 -0.3945  2.5233  0.1913
  718MOL0     H96867   6.561   3.758   3.923 -2.3465  1.1656 -1.7142
  718MOL0     H96868   6.651   3.896   3.953 -0.0366  0.0821 -1.7761
  718MOL0     H96869   6.681   3.744   4.144 -1.1854 -1.8405  0.4550
  718MOL0     H96870   6.615   3.891   4.194 -0.9761 -1.7646  2.6234
  718MOL0     H96871   6.384   3.782   4.214 -0.1709 -0.6688  2.7815
  718MOL0     H96872   6.453   3.635   4.156 -2.0361 -0.0576  0.7478
  718MOL0     H96873   6.614   3.641   4.370  0.1434 -0.9574 -0.6806
  718MOL0     H96874   6.551   3.797   4.410  0.3317 -1.4102  2.1463
  718MOL0     H96875   6.422   3.671   4.543  1.6742  0.1845 -0.1058
  718MOL0     H96876   6.313   3.672   4.394 -1.5971 -2.7252 -1.2601
  718MOL0     H96877   6.377   3.472   4.316 -0.1499  2.7685 -0.9787
  718MOL0     H96878   6.513   3.450   4.438 -0.5592 -1.7081  1.0418
  718MOL0     H96879   6.264   3.357   4.485 -0.4899 -0.8133  2.9204
  718MOL0     H96880   6.213   3.516   4.520 -1.1110 -1.8019 -3.4564
  718MOL0     H96881   6.470   3.243   4.633 -1.6196 -1.3902 -0.3115
  718MOL0     H96882   6.394   3.212   5.014 -0.5708  1.7180 -0.3026
  718MOL0     H96883   6.479   3.128   4.863 -0.0789  1.1850 -2.6440
  718MOL0     H96884   6.572   3.360   5.022 -2.8989 -0.2143 -0.2937
  718MOL0     H96885   6.664   3.291   4.896  0.6015 -1.8489 -0.0418
  718MOL0     H96886   6.605   3.157   5.172 -2.7519  0.7078 -0.9351
  718MOL0     H96887   6.757   3.229   5.107 -2.1058  3.5333  0.5459
  718MOL0     H96888   6.588   2.977   5.005 -0.3851 -1.6804  1.3154
  718MOL0     H96889   6.737   2.974   5.100 -0.3336 -0.9643 -0.8965
  718MOL0     H96890   6.954   2.850   4.925 -1.9219  0.5203  4.4217
  718MOL0     H96891   7.168   2.755   4.935 -0.9895  1.6299 -3.2014
  718MOL0     H96892   7.309   2.844   4.867 -2.3943 -1.5956 -2.0764
  718MOL0     H96893   7.287   2.840   5.040  1.9168  3.2674 -0.3956
  718MOL0     H96894   7.301   2.958   5.189  1.3048  0.9878 -4.7341
  718MOL0     H96895   7.193   3.004   5.422 -2.1593  1.0079 -1.1347
  718MOL0     H96896   7.228   3.308   5.698 -0.3098  0.3279  0.8836
  718MOL0     H96897   7.218   3.399   5.551 -1.0987  1.2548  0.9299
  718MOL0     H96898   7.049   3.490   5.720  0.5551 -0.0232  0.0595
  718MOL0     H96899   6.978   3.431   5.576  1.2074 -0.6052 -0.8923
  718MOL0     H96900   6.900   3.376   5.819 -0.4895 -1.6252  2.1232
  718MOL0     H96901   7.016   3.253   5.823 -0.8766  0.1458 -0.1608
  718MOL0     H96902   6.793   3.290   5.617 -0.5753  1.8337  1.6755
  718MOL0     H96903   6.928   3.171   5.619  0.7294 -2.3463  3.0698
  718MOL0     H96904   6.692   3.197   5.832  1.8522  0.3506  1.1121
  718MOL0     H96905   6.838   3.086   5.840 -0.3199 -0.8598 -0.8987
  718MOL0     H96906   6.651   3.097   5.604  2.0881  0.0945 -2.3543
  718MOL0     H96907   6.788   2.998   5.633 -1.6217 -1.2252 -0.0984
  718MOL0     H96908   6.679   2.925   5.857 -0.4430 -1.6875 -1.1104
  718MOL0     H96909   6.610   2.855   5.706  1.3743  0.9034 -2.6858
  718MOL0     H96910   6.426   3.008   5.703  0.0192  0.6803  0.3240
  718MOL0     H96911   6.498   3.077   5.858  0.6490 -1.4910  1.4468
  718MOL0     H96912   7.235   3.416   5.355 -0.4188  0.0956 -0.8284
  718MOL0     H96913   7.340   3.376   5.139 -2.1628  0.7127  0.3860
  718MOL0     H96914   7.130   3.296   4.889 -0.7160 -0.4330 -1.6866
  718MOL0     H96915   6.870   3.250   4.877 -0.0614  0.9676  2.7267
  718MOL0     H96916   6.609   4.235   4.111  1.4801  0.9247 -0.6244
  718MOL0     H96917   6.624   4.459   4.007  0.9776  0.5183 -1.1611
  718MOL0     H96918   6.786   4.677   3.561 -2.4345 -3.8120  1.1614
  718MOL0     H96919   6.790   4.883   3.453 -0.1634  1.8226  2.1203
  718MOL0     H96920   6.812   5.170   3.490  2.7485 -0.3894 -3.0423
  718MOL0     H96921   6.759   5.088   3.343  0.0085  1.6200 -0.8862
  718MOL0     H96922   6.667   5.360   3.448  0.9666 -1.1642  1.3207
  718MOL0     H96923   6.620   5.289   3.294  1.4919 -0.8844 -0.9138
  718MOL0     H96924   6.897   5.264   3.255  2.1650  1.1633  1.8738
  718MOL0     H96925   6.893   5.383   3.378  1.1835 -2.6608  0.8149
  718MOL0     H96926   6.704   5.507   3.213  0.6443 -0.1123  2.0857
  718MOL0     H96927   6.760   5.389   3.093 -2.3541 -3.9923  2.1442
  718MOL0     H96928   7.104   5.637   3.102 -0.7246  0.9330 -1.0920
  718MOL0     H96929   6.473   5.016   3.710  0.4417  2.3879 -2.3414
  718MOL0     H96930   6.426   4.792   3.772 -1.1394  3.2688  0.2698
  719MOL0     O96931   1.094   9.205   7.665 -0.3450 -0.9387 -0.4816
  719MOL0     C96932   1.174   9.150   7.593 -0.6262  0.1652  0.8163
  719MOL0     O96933   1.263   9.223   7.512 -0.2113 -0.0192 -0.3292
  719MOL0     C96934   1.292   9.353   7.548  0.5496  0.3627  0.3379
  719MOL0     C96935   1.342   9.402   7.674 -0.2805  0.2523  0.9209
  719MOL0     C96936   1.384   9.538   7.686 -1.4378  0.7255  0.5174
  719MOL0     C96937   1.372   9.625   7.576 -0.8773  1.1764  0.2492
  719MOL0     O96938   1.402   9.755   7.596  0.2880  0.3358 -0.2815
  719MOL0     C96939   1.449   9.832   7.485  0.1350 -0.3439 -0.0310
  719MOL0     C96940   1.544   9.953   7.506  0.6158 -0.1021  1.0246
  719MOL0     C96941   1.481  10.088   7.525 -0.1144 -0.8959  0.3772
  719MOL0     C96942   1.595  10.194   7.553 -0.4798 -0.1615 -0.4670
  719MOL0     C96943   1.541  10.338   7.571 -0.8767  0.2261 -0.0948
  719MOL0     C96944   1.652  10.416   7.630 -0.0768  0.0215  0.4067
  719MOL0     C96945   1.626  10.568   7.633  0.6673  0.4731  0.2686
  719MOL0     C96946   1.736  10.662   7.669 -0.2293  0.1393 -0.4775
  719MOL0     N96947   1.802  10.629   7.797  0.1336  0.9540  0.0946
  719MOL0     C96948   1.734  10.640   7.914  0.2596 -0.8431  0.0520
  719MOL0     C96949   1.831  10.647   8.012 -0.1116  0.1085  0.3118
  719MOL0     C96950   1.796  10.674   8.154 -0.7912  0.7024 -0.1831
  719MOL0     C96951   1.932  10.660   8.231 -0.6876 -0.4936  0.0982
  719MOL0     C96952   1.910  10.686   8.381  0.4755  0.3653 -0.7625
  719MOL0     C96953   1.879  10.830   8.439 -0.4348  0.2410 -0.9631
  719MOL0     O96954   1.975  10.927   8.406 -0.6218 -0.4957 -0.7379
  719MOL0     C96955   2.003  11.020   8.509  0.2566  0.2359 -0.6846
  719MOL0     C96956   2.126  11.083   8.506  0.6248 -0.4340  0.3752
  719MOL0     C96957   2.154  11.185   8.596 -0.3995  0.0340  0.6049
  719MOL0     C96958   2.280  11.277   8.584  0.7469 -0.5224  0.8800
  719MOL0     C96959   2.056  11.221   8.697 -0.3302 -0.2641 -0.6557
  719MOL0     C96960   2.076  11.322   8.804  0.5553  0.8962 -0.4187
  719MOL0     O96961   1.973  11.384   8.869 -0.7104  0.2930  0.1900
  719MOL0     C96962   2.004  11.450   8.983  0.9335  0.5387  0.2850
  719MOL0     C96963   2.016  11.590   8.990  0.8945 -0.8454  0.8475
  719MOL0     C96964   2.055  11.653   9.114 -0.2448  0.2697  0.4782
  719MOL0     C96965   2.065  11.580   9.234  0.4890  0.2155 -0.0681
  719MOL0     O96966   2.089  11.648   9.351  0.0890  0.2845 -0.2662
  719MOL0     C96967   2.125  11.576   9.471  0.5174  0.9111 -0.1333
  719MOL0     C96968   2.114  11.663   9.597  0.7173  0.4061 -0.3710
  719MOL0     C96969   2.218  11.764   9.611 -1.0202  0.1791 -0.7476
  719MOL0     C96970   2.216  11.851   9.740 -1.0412 -0.4436  0.4862
  719MOL0     C96971   2.344  11.932   9.770 -0.4622  0.6537  0.4797
  719MOL0     C96972   2.479  11.858   9.800 -0.5425  0.6169 -0.7711
  719MOL0     C96973   2.595  11.953   9.798 -0.5133  0.2525  0.2256
  719MOL0     C96974   2.725  11.872   9.780  0.0890  0.1816  1.4972
  719MOL0    Cl96975   2.754  11.758   9.922 -0.1163 -0.5434 -0.1976
  719MOL0     C96976   2.045  11.438   9.231  1.3304 -0.4994 -0.0662
  719MOL0     C96977   2.002  11.379   9.108  0.0560  0.2703 -0.1466
  719MOL0     O96978   2.188  11.328   8.850 -0.0298  0.7123  0.2478
  719MOL0     C96979   1.935  11.154   8.699  0.8668  0.5931  0.3555
  719MOL0     C96980   1.906  11.053   8.604  0.5399  0.1692 -0.1732
  719MOL0     N96981   1.948  10.637   7.937 -0.6772  0.6138  0.5682
  719MOL0     N96982   1.939  10.632   7.811  0.1431  0.5729  1.2336
  719MOL0     C96983   1.316   9.576   7.452 -0.9755 -0.3267 -0.5378
  719MOL0     C96984   1.288   9.441   7.447 -0.3771 -0.4772  0.4412
  719MOL0     C96985   1.150   8.998   7.567 -0.4414  0.3910 -0.6985
  719MOL0     C96986   1.059   8.918   7.634 -0.3679  0.1385  0.0801
  719MOL0     C96987   1.046   8.784   7.611  1.2820 -0.2432 -1.3482
  719MOL0     C96988   1.134   8.715   7.528 -0.6987 -0.1690 -0.5729
  719MOL0     O96989   1.132   8.582   7.508  0.1892 -0.3871 -0.3021
  719MOL0     C96990   1.013   8.510   7.554  0.0953  1.2562 -0.6254
  719MOL0     C96991   1.047   8.362   7.543  0.1343 -0.4234 -0.6239
  719MOL0     C96992   1.078   8.326   7.398 -0.2011  0.1210  0.1686
  719MOL0     C96993   1.157   8.195   7.393 -0.0898  0.2742 -0.3628
  719MOL0     C96994   1.149   8.136   7.263  0.1001  0.4536 -0.6813
  719MOL0     C96995   1.159   8.102   7.155  0.6624  0.4468  1.3254
  719MOL0     C96996   1.234   8.789   7.469  0.1675 -0.4817  0.8505
  719MOL0     C96997   1.239   8.925   7.480  0.8129 -1.2539  0.0793
  719MOL0     H96998   1.354   9.336   7.759  1.9251  1.9387  2.0101
  719MOL0     H96999   1.420   9.587   7.776  3.0694 -0.7394 -0.2184
  719MOL0     H97000   1.500   9.758   7.423 -0.6139  0.5463 -1.7742
  719MOL0     H97001   1.363   9.853   7.421 -0.7124 -0.6626  0.9829
  719MOL0     H97002   1.611   9.933   7.590 -0.3789  0.6474  2.0152
  719MOL0     H97003   1.608   9.960   7.418  1.8791 -1.1394  1.8324
  719MOL0     H97004   1.414  10.121   7.446 -1.5624  4.0830  3.2592
  719MOL0     H97005   1.419  10.086   7.615 -2.3631  0.5626 -1.0309
  719MOL0     H97006   1.648  10.162   7.644  0.1105  2.7091  0.2947
  719MOL0     H97007   1.671  10.185   7.475 -1.1998 -0.8951 -1.1018
  719MOL0     H97008   1.542  10.376   7.468  0.7084 -1.4561 -0.7441
  719MOL0     H97009   1.441  10.353   7.613 -1.8067  0.8504 -2.3578
  719MOL0     H97010   1.663  10.387   7.735 -3.1588  1.7441  1.3381
  719MOL0     H97011   1.739  10.403   7.565 -1.0306 -0.6505 -0.7854
  719MOL0     H97012   1.587  10.603   7.537 -0.4465  0.0532  0.5532
  719MOL0     H97013   1.538  10.578   7.698 -1.5815 -2.0179 -2.1086
  719MOL0     H97014   1.714  10.768   7.684  2.0252  0.4658  0.9641
  719MOL0     H97015   1.809  10.654   7.588 -0.6568 -0.0930 -0.8432
  719MOL0     H97016   1.629  10.645   7.938  0.4830  1.9147  0.8321
  719MOL0     H97017   1.762  10.777   8.161  2.4468  1.8451  0.4027
  719MOL0     H97018   1.725  10.610   8.207 -0.7909  1.7847  1.1669
  719MOL0     H97019   2.002  10.736   8.195  0.6018 -1.2679  0.8910
  719MOL0     H97020   1.983  10.565   8.215  0.9643  0.2283  0.8292
  719MOL0     H97021   2.002  10.654   8.429  0.7391 -0.1197 -1.5611
  719MOL0     H97022   1.833  10.619   8.419  1.6726  0.1147  1.3367
  719MOL0     H97023   1.855  10.811   8.544  3.0575  0.0887 -0.0701
  719MOL0     H97024   1.791  10.871   8.389 -1.1558  1.2933  1.0719
  719MOL0     H97025   2.193  11.062   8.423 -0.1835  0.9827 -0.6784
  719MOL0     H97026   2.271  11.386   8.591  4.4455  0.1565 -1.8227
  719MOL0     H97027   2.348  11.259   8.668  2.2409  0.6685 -0.0130
  719MOL0     H97028   2.336  11.260   8.492  0.0458  1.2349  0.0739
  719MOL0     H97029   2.007  11.649   8.899 -0.3219 -2.4256 -0.0983
  719MOL0     H97030   2.079  11.758   9.123 -0.1949  0.3048 -0.0497
  719MOL0     H97031   2.047  11.502   9.493 -1.2955  2.4749 -0.9643
  719MOL0     H97032   2.223  11.529   9.462  0.6095  1.1888 -0.6215
  719MOL0     H97033   2.022  11.716   9.574  1.8214  1.9409 -1.4152
  719MOL0     H97034   2.105  11.591   9.680  3.8811 -2.0702 -1.9324
  719MOL0     H97035   2.218  11.832   9.525 -0.5036  1.0670 -0.0651
  719MOL0     H97036   2.311  11.707   9.605 -1.8471 -1.0772 -2.4128
  719MOL0     H97037   2.128  11.916   9.739 -1.8745 -1.3737  3.0396
  719MOL0     H97038   2.200  11.787   9.828 -5.1052 -2.8603 -1.7075
  719MOL0     H97039   2.318  12.005   9.847 -0.8245  3.1273 -1.8494
  719MOL0     H97040   2.359  11.989   9.678  0.0962  1.8347  1.2758
  719MOL0     H97041   2.467  11.801   9.893 -2.2697  1.7162 -0.2866
  719MOL0     H97042   2.492  11.786   9.719 -2.7350  1.5173 -2.0186
  719MOL0     H97043   2.597  12.016   9.887  0.9227  1.1269 -0.3903
  719MOL0     H97044   2.595  12.013   9.706  2.7175 -0.2739 -0.2317
  719MOL0     H97045   2.805  11.945   9.762 -0.5731  0.5233 -0.2660
  719MOL0     H97046   2.710  11.801   9.698 -1.1830  0.7159  1.2391
  719MOL0     H97047   2.042  11.373   9.318  3.4553  1.6347  1.7256
  719MOL0     H97048   1.999  11.270   9.115  1.4045  0.0441 -2.2916
  719MOL0     H97049   1.862  11.183   8.774 -0.0116 -1.4848  0.3677
  719MOL0     H97050   1.803  11.018   8.601  1.0057 -1.2334 -1.8799
  719MOL0     H97051   1.294   9.634   7.362  0.6221 -0.7661 -1.2457
  719MOL0     H97052   1.249   9.404   7.353  1.3622 -0.0204 -0.4861
  719MOL0     H97053   0.995   8.963   7.710 -2.1692 -1.8891 -0.1386
  719MOL0     H97054   0.985   8.721   7.675  2.0554 -0.9378 -1.2755
  719MOL0     H97055   0.975   8.516   7.656 -1.3315  1.9242 -1.1542
  719MOL0     H97056   0.928   8.527   7.487 -1.8582  0.0548  1.3928
  719MOL0     H97057   0.966   8.297   7.577  1.9766 -1.1181  2.9281
  719MOL0     H97058   1.138   8.342   7.601 -1.8017 -1.8735  2.1218
  719MOL0     H97059   1.139   8.399   7.343 -3.9986  1.4544 -2.6442
  719MOL0     H97060   0.978   8.313   7.357 -0.4642 -0.5594  0.9996
  719MOL0     H97061   1.124   8.123   7.469  0.0283 -0.5873 -1.1061
  719MOL0     H97062   1.264   8.200   7.415 -0.4398  3.4046  1.0868
  719MOL0     H97063   1.186   8.078   7.054  0.3433 -2.6909  1.8833
  719MOL0     H97064   1.311   8.747   7.405 -0.9116  1.2751 -1.7997
  719MOL0     H97065   1.321   8.971   7.426  0.1382 -2.7206 -2.3642
  720MOL0     O97066   7.739   0.210   0.275  0.4686 -0.5864  0.1288
  720MOL0     C97067   7.726   0.097   0.325 -0.1817 -0.5366  0.1870
  720MOL0     O97068   7.738  -0.018   0.263 -1.0399  0.1365  0.2469
  720MOL0     C97069   7.747  -0.028   0.124 -1.2781  0.2719 -0.2267
  720MOL0     C97070   7.643  -0.092   0.049  0.3775 -0.0219  0.0759
  720MOL0     C97071   7.658  -0.117  -0.086  0.6534  0.3621  0.5806
  720MOL0     C97072   7.786  -0.093  -0.148  0.5560  0.1817 -0.2735
  720MOL0     O97073   7.829  -0.157  -0.269  0.0660 -0.9508  0.9758
  720MOL0     C97074   7.745  -0.270  -0.303  0.2088 -0.8505 -0.9691
  720MOL0     C97075   7.810  -0.368  -0.404 -0.1710 -0.6841  0.5282
  720MOL0     C97076   7.958  -0.405  -0.352  0.6706  0.3340  0.6104
  720MOL0     C97077   8.028  -0.509  -0.434  0.3410 -0.4874 -0.1713
  720MOL0     C97078   7.986  -0.650  -0.391  0.1684  0.3784 -0.0912
  720MOL0     C97079   8.042  -0.776  -0.470  0.6880  0.0960 -0.4655
  720MOL0     C97080   8.038  -0.770  -0.618  1.4145 -0.6577  0.1022
  720MOL0     C97081   7.894  -0.754  -0.673  0.8949  0.5008  0.5145
  720MOL0     N97082   7.902  -0.767  -0.821 -0.9054 -0.0411  0.6008
  720MOL0     C97083   7.969  -0.692  -0.917  0.9238  0.7078 -0.0276
  720MOL0     C97084   7.932  -0.737  -1.041  0.6248 -0.0268 -0.2558
  720MOL0     C97085   7.976  -0.715  -1.180  0.2311 -0.6800 -0.1752
  720MOL0     C97086   7.868  -0.671  -1.287 -0.5561 -0.0615  0.0323
  720MOL0     C97087   7.769  -0.571  -1.231 -0.2870 -0.9318 -0.1374
  720MOL0     C97088   7.666  -0.514  -1.338  0.9621  0.0016  1.4490
  720MOL0     O97089   7.610  -0.393  -1.282 -0.9060 -0.0379 -0.3173
  720MOL0     C97090   7.507  -0.327  -1.340  0.6311 -0.5721 -0.4921
  720MOL0     C97091   7.487  -0.323  -1.480  0.3771  0.5650 -0.8104
  720MOL0     C97092   7.384  -0.252  -1.550  1.3488  0.6910 -0.5792
  720MOL0     C97093   7.388  -0.265  -1.695 -0.1681 -0.0373  0.9738
  720MOL0     C97094   7.300  -0.156  -1.477 -0.1919  0.8051  0.0915
  720MOL0     C97095   7.192  -0.083  -1.543  0.0057 -1.5683 -0.0735
  720MOL0     O97096   7.157   0.029  -1.470 -0.9140  1.3416 -0.3754
  720MOL0     C97097   7.023   0.055  -1.471 -0.2257  1.1130  0.3429
  720MOL0     C97098   6.926  -0.042  -1.478  0.5096  0.6224  0.4534
  720MOL0     C97099   6.788  -0.012  -1.473  0.5306 -0.3397  0.6824
  720MOL0     C97100   6.747   0.124  -1.443 -0.2259 -0.7261  0.4109
  720MOL0     O97101   6.617   0.153  -1.423  0.4314 -0.7294  0.6013
  720MOL0     C97102   6.533   0.065  -1.360  0.1047  0.3224 -0.1324
  720MOL0     C97103   6.417   0.132  -1.289 -0.3575 -0.6551  0.8159
  720MOL0     C97104   6.345   0.237  -1.375 -0.3025 -0.5944  0.4192
  720MOL0     C97105   6.262   0.172  -1.483 -0.5309  0.4267  0.2136
  720MOL0     C97106   6.146   0.258  -1.536  0.6864 -0.3691 -0.1195
  720MOL0     C97107   6.192   0.380  -1.605  0.1554 -0.0270  0.0963
  720MOL0     C97108   6.244   0.357  -1.752  0.1944 -0.4331  0.4877
  720MOL0     C97109   6.125   0.312  -1.843 -0.0265 -0.2669  0.1279
  720MOL0    Cl97110   6.168   0.328  -2.007  0.2213  0.6595 -0.1046
  720MOL0     C97111   6.852   0.224  -1.440 -0.6148  0.4809 -0.0805
  720MOL0     C97112   6.990   0.185  -1.450 -0.3869 -0.5681  0.0211
  720MOL0     O97113   7.133  -0.123  -1.636  0.0100  0.5640 -0.0922
  720MOL0     C97114   7.319  -0.153  -1.332 -1.1868  0.4076  0.7782
  720MOL0     C97115   7.417  -0.232  -1.267 -0.2308 -0.5063  0.4555
  720MOL0     N97116   7.829  -0.835  -1.021 -1.1478 -0.5153  0.9702
  720MOL0     N97117   7.817  -0.854  -0.899 -0.4143 -0.5709 -0.6477
  720MOL0     C97118   7.879  -0.016  -0.081 -0.9684  0.1836 -0.5371
  720MOL0     C97119   7.866   0.004   0.056  0.1367 -0.4324  0.6452
  720MOL0     C97120   7.708   0.101   0.474 -0.2189  0.3305 -0.0665
  720MOL0     C97121   7.700   0.234   0.533  1.1734 -0.4501 -0.6784
  720MOL0     C97122   7.696   0.237   0.675  0.0428 -0.1261  0.2803
  720MOL0     C97123   7.709   0.128   0.762  0.0481  0.3334 -0.2941
  720MOL0     O97124   7.714   0.153   0.900 -0.4519  0.4289  0.3872
  720MOL0     C97125   7.688   0.049   0.991 -0.1092 -0.0952  0.7269
  720MOL0     C97126   7.792  -0.038   1.039  1.3302  0.9866 -0.4720
  720MOL0     C97127   7.869   0.036   1.151 -0.1009 -0.2539 -0.4626
  720MOL0     C97128   8.007  -0.031   1.186  0.6373  0.6718 -0.3505
  720MOL0     C97129   7.994  -0.177   1.219 -0.1845  0.4997 -0.8993
  720MOL0     C97130   7.977  -0.296   1.246 -0.1966 -0.6022  0.5982
  720MOL0     C97131   7.737   0.005   0.699  0.0356  0.3699  0.5878
  720MOL0     C97132   7.735  -0.003   0.561 -1.5111 -0.0136 -0.0118
  720MOL0     H97133   7.554  -0.127   0.099  0.6474 -2.3845 -0.9846
  720MOL0     H97134   7.572  -0.167  -0.129 -0.7445  3.7482 -0.9923
  720MOL0     H97135   7.722  -0.331  -0.215  1.9775 -2.3618 -1.4829
  720MOL0     H97136   7.651  -0.222  -0.334 -0.9359 -1.3777  1.4473
  720MOL0     H97137   7.741  -0.453  -0.405  0.1040 -0.9445 -1.4055
  720MOL0     H97138   7.818  -0.323  -0.504 -0.3061  0.0755  0.8472
  720MOL0     H97139   8.026  -0.318  -0.352  1.3825 -0.2053  1.3537
  720MOL0     H97140   7.944  -0.433  -0.247  5.1533 -1.0603  1.0680
  720MOL0     H97141   8.001  -0.497  -0.540 -1.7379  2.4803  0.5819
  720MOL0     H97142   8.136  -0.493  -0.437  0.0880  1.5902 -3.3060
  720MOL0     H97143   8.013  -0.662  -0.286  2.7061  2.0141 -0.4655
  720MOL0     H97144   7.876  -0.651  -0.390  0.0215 -4.3372  1.2652
  720MOL0     H97145   8.146  -0.777  -0.435  0.5706  3.7526  0.4466
  720MOL0     H97146   7.983  -0.859  -0.431 -0.2055  0.1637 -1.6232
  720MOL0     H97147   8.107  -0.690  -0.648 -0.0727  0.3283 -0.8139
  720MOL0     H97148   8.080  -0.862  -0.660 -0.8090 -1.2821 -0.9153
  720MOL0     H97149   7.837  -0.662  -0.653 -0.8802 -0.5322  0.4042
  720MOL0     H97150   7.834  -0.834  -0.632 -0.9900  1.6769  0.1717
  720MOL0     H97151   8.050  -0.622  -0.897  2.5832 -0.8771 -0.8181
  720MOL0     H97152   8.048  -0.632  -1.176  0.6693 -1.0114  4.4603
  720MOL0     H97153   8.020  -0.803  -1.226 -3.0686 -1.3614 -2.3982
  720MOL0     H97154   7.803  -0.754  -1.317  0.9841 -0.2513 -3.3041
  720MOL0     H97155   7.913  -0.628  -1.378  0.6315  1.1077  1.1189
  720MOL0     H97156   7.824  -0.485  -1.191  0.1071 -1.6793  0.9731
  720MOL0     H97157   7.721  -0.626  -1.150  3.0537 -4.1979 -0.1207
  720MOL0     H97158   7.597  -0.593  -1.370  0.6271  1.1578 -0.9591
  720MOL0     H97159   7.723  -0.483  -1.426 -2.8139  1.3520 -0.7688
  720MOL0     H97160   7.552  -0.390  -1.536 -1.3927 -1.1919 -0.8810
  720MOL0     H97161   7.388  -0.161  -1.728  1.8389  1.0717  4.0231
  720MOL0     H97162   7.477  -0.316  -1.735 -0.5967 -1.8040  2.1557
  720MOL0     H97163   7.300  -0.318  -1.733  0.6230  0.0094 -1.0443
  720MOL0     H97164   6.950  -0.146  -1.498  2.1992  1.2621 -1.0451
  720MOL0     H97165   6.709  -0.084  -1.492  0.5768 -1.2331  3.4853
  720MOL0     H97166   6.478   0.014  -1.440  1.9384  0.1288 -1.3095
  720MOL0     H97167   6.581  -0.001  -1.287 -0.2028  2.2907  1.9872
  720MOL0     H97168   6.352   0.061  -1.237 -0.0687 -0.9761  0.7438
  720MOL0     H97169   6.468   0.182  -1.207  2.0092 -2.7792  0.7603
  720MOL0     H97170   6.413   0.299  -1.434 -0.7207 -1.4760 -1.0394
  720MOL0     H97171   6.279   0.295  -1.310 -2.2945 -1.9731 -0.2699
  720MOL0     H97172   6.322   0.148  -1.571 -0.1313  0.5047  0.4670
  720MOL0     H97173   6.227   0.076  -1.445  2.5404  0.0273  2.3765
  720MOL0     H97174   6.092   0.282  -1.444 -0.6853 -3.0926 -0.1140
  720MOL0     H97175   6.070   0.198  -1.586 -0.5251 -1.6849  3.0058
  720MOL0     H97176   6.105   0.447  -1.603  0.4980  0.4001  1.5013
  720MOL0     H97177   6.269   0.438  -1.553  1.8097 -0.7797 -1.4162
  720MOL0     H97178   6.323   0.282  -1.762  1.4057  1.1319 -3.7620
  720MOL0     H97179   6.291   0.448  -1.792 -0.7630 -0.2793 -0.3341
  720MOL0     H97180   6.032   0.368  -1.830  1.1195  2.1659 -1.3134
  720MOL0     H97181   6.117   0.204  -1.833 -1.7749 -0.1958 -0.2424
  720MOL0     H97182   6.820   0.327  -1.431 -3.0702 -0.3167  0.9980
  720MOL0     H97183   7.065   0.263  -1.448  0.0939 -0.9726 -1.2005
  720MOL0     H97184   7.277  -0.073  -1.271 -0.6118  0.6923  0.8129
  720MOL0     H97185   7.428  -0.244  -1.160  2.6087  1.0117  0.4343
  720MOL0     H97186   7.973   0.012  -0.127  0.5092 -5.8397 -2.0690
  720MOL0     H97187   7.945   0.058   0.107 -1.1957  2.3547 -0.0520
  720MOL0     H97188   7.699   0.330   0.482  3.2845 -1.3639 -2.6366
  720MOL0     H97189   7.685   0.333   0.724 -3.6724 -0.1338 -0.2922
  720MOL0     H97190   7.651   0.097   1.083 -0.5669 -0.9828  1.0217
  720MOL0     H97191   7.603   0.003   0.941 -2.2569  4.4600 -0.3894
  720MOL0     H97192   7.852  -0.074   0.955 -2.0883  1.9721 -3.6276
  720MOL0     H97193   7.737  -0.124   1.078  2.7707  1.1270  2.0526
  720MOL0     H97194   7.822   0.029   1.249 -1.1717 -2.1230 -1.0528
  720MOL0     H97195   7.884   0.141   1.124  0.5662 -0.9504 -3.2136
  720MOL0     H97196   8.044   0.020   1.276 -0.1373 -2.6938  2.0654
  720MOL0     H97197   8.076  -0.026   1.102  3.4755 -2.7160  1.4942
  720MOL0     H97198   7.951  -0.399   1.253  0.5802 -0.8153  0.4372
  720MOL0     H97199   7.746  -0.080   0.767 -1.1867 -0.6937 -0.5126
  720MOL0     H97200   7.737  -0.102   0.516  2.5544 -0.0519 -0.0934
  721MOL0     O97201   9.247   6.690   1.280  0.1299  0.2978  0.0208
  721MOL0     C97202   9.259   6.586   1.334  0.5189 -0.6979  0.2072
  721MOL0     O97203   9.328   6.567   1.450  0.1302  0.2683  0.2776
  721MOL0     C97204   9.423   6.659   1.487 -0.4458 -0.2734  0.7627
  721MOL0     C97205   9.404   6.794   1.505  0.2308  0.2518 -0.0906
  721MOL0     C97206   9.513   6.875   1.548  0.0037 -0.5199 -0.9913
  721MOL0     C97207   9.641   6.819   1.573 -0.0742  0.2930 -1.2547
  721MOL0     O97208   9.748   6.903   1.615  1.2519  0.0852  0.6294
  721MOL0     C97209   9.721   6.964   1.740  0.3966  0.4749 -0.1077
  721MOL0     C97210   9.845   7.053   1.767 -0.5758 -1.2185 -0.7162
  721MOL0     C97211   9.850   7.134   1.898 -0.9041 -0.1349  0.1306
  721MOL0     C97212   9.753   7.256   1.904  0.0751 -0.1170  0.2177
  721MOL0     C97213   9.785   7.347   2.020  0.4091 -0.4315  0.5070
  721MOL0     C97214   9.723   7.494   1.999 -0.3658  0.9428  1.1527
  721MOL0     C97215   9.756   7.586   2.118  0.4332  0.1999  0.0065
  721MOL0     C97216   9.683   7.723   2.123  0.3010  0.4295 -0.0459
  721MOL0     N97217   9.684   7.796   1.993  0.0749 -0.1483  0.5935
  721MOL0     C97218   9.797   7.807   1.910 -0.2484 -0.2610 -0.0347
  721MOL0     C97219   9.747   7.859   1.795  0.3322 -0.3414 -0.9762
  721MOL0     C97220   9.821   7.870   1.668  0.0888 -0.1755 -0.6793
  721MOL0     C97221   9.848   7.735   1.604  0.4076  0.1462  0.0057
  721MOL0     C97222   9.718   7.652   1.585 -0.0762  0.5081  0.4161
  721MOL0     C97223   9.733   7.562   1.470 -0.3471  1.4151  0.5615
  721MOL0     O97224   9.855   7.479   1.475 -0.0016  0.3880 -0.8286
  721MOL0     C97225   9.855   7.364   1.407  0.2960 -0.2289 -0.7150
  721MOL0     C97226   9.958   7.345   1.314  0.2391 -0.3247 -0.7991
  721MOL0     C97227   9.967   7.222   1.242 -0.0170 -1.4846 -0.4142
  721MOL0     C97228  10.050   7.211   1.117  0.3601 -0.1621 -0.8334
  721MOL0     C97229   9.885   7.110   1.278 -0.2181  0.3622 -0.1828
  721MOL0     C97230   9.874   6.976   1.208 -0.1528 -0.9761  0.5536
  721MOL0     O97231   9.876   6.862   1.284  0.4364  0.0168 -0.0850
  721MOL0     C97232   9.801   6.758   1.241  0.4246 -1.1016 -0.8307
  721MOL0     C97233   9.872   6.638   1.259 -0.5519  0.7022 -0.2972
  721MOL0     C97234   9.815   6.521   1.194  0.1213 -0.1751 -1.0600
  721MOL0     C97235   9.690   6.522   1.139 -0.5128 -0.2219  0.1991
  721MOL0     O97236   9.645   6.398   1.092 -0.4538  0.7317 -0.2293
  721MOL0     C97237   9.501   6.393   1.047  0.6475 -0.2566  0.5705
  721MOL0     C97238   9.473   6.255   0.994  0.8744 -0.5474  0.4964
  721MOL0     C97239   9.561   6.227   0.865  0.1476  0.0949  0.2251
  721MOL0     C97240   9.539   6.094   0.798 -0.0716 -0.4571  1.3897
  721MOL0     C97241   9.615   6.069   0.672 -0.0449 -0.4444 -1.0186
  721MOL0     C97242   9.628   6.185   0.573  0.2861  1.1631  0.5048
  721MOL0     C97243   9.508   6.246   0.524  0.1728  1.1651 -0.6922
  721MOL0     C97244   9.536   6.340   0.413 -0.1616 -0.0524 -0.1576
  721MOL0    Cl97245   9.631   6.471   0.461 -0.0480  0.5746  0.6624
  721MOL0     C97246   9.617   6.642   1.142 -0.1225  0.8074 -0.5047
  721MOL0     C97247   9.667   6.765   1.200  0.8283 -0.3812  0.2516
  721MOL0     O97248   9.851   6.982   1.084 -0.5220 -0.5619  1.2262
  721MOL0     C97249   9.799   7.128   1.385 -0.1671 -0.8438 -0.1577
  721MOL0     C97250   9.787   7.245   1.451 -0.6498 -0.9649 -1.3913
  721MOL0     N97251   9.613   7.887   1.816  0.0240  0.2555 -0.0093
  721MOL0     N97252   9.569   7.845   1.934 -0.6116  0.5045  0.1511
  721MOL0     C97253   9.654   6.683   1.551  0.5984 -0.0323 -0.1586
  721MOL0     C97254   9.552   6.604   1.506 -0.4865 -0.7239  0.6200
  721MOL0     C97255   9.196   6.458   1.280  0.2730 -0.2009 -0.4454
  721MOL0     C97256   9.124   6.469   1.157 -0.6809  0.1719 -0.3199
  721MOL0     C97257   9.074   6.360   1.090 -0.0233  0.3987 -0.2861
  721MOL0     C97258   9.121   6.232   1.128 -0.1808  0.3521 -0.0511
  721MOL0     O97259   9.114   6.122   1.045  0.6129  0.2144  0.6315
  721MOL0     C97260   9.181   6.001   1.072  0.2835  0.5993  0.9381
  721MOL0     C97261   9.191   5.911   0.953 -0.9568  0.3579 -0.0192
  721MOL0     C97262   9.069   5.826   0.929 -0.2601 -0.4010  0.8456
  721MOL0     C97263   8.985   5.884   0.821  0.9358  0.2203 -0.1375
  721MOL0     C97264   8.898   5.780   0.757  0.2388  0.1312 -0.2435
  721MOL0     C97265   8.819   5.712   0.701 -0.7529 -0.3420 -0.4026
  721MOL0     C97266   9.190   6.217   1.246  0.0251 -1.2444 -0.9731
  721MOL0     C97267   9.222   6.326   1.330  0.9104 -0.0394  0.0051
  721MOL0     H97268   9.301   6.827   1.497 -1.8093 -5.2972 -1.1590
  721MOL0     H97269   9.507   6.982   1.562 -1.0309 -0.7446  0.4705
  721MOL0     H97270   9.645   7.039   1.714  1.1251  0.3460 -3.0198
  721MOL0     H97271   9.699   6.898   1.824 -2.8615  2.0132  0.3999
  721MOL0     H97272   9.924   6.979   1.781 -0.4511 -1.0052 -0.2836
  721MOL0     H97273   9.877   7.121   1.688  0.5949  0.1407  0.8672
  721MOL0     H97274   9.823   7.062   1.976  0.4727 -1.1523 -0.2897
  721MOL0     H97275   9.956   7.158   1.898 -0.1509 -2.9901 -0.5023
  721MOL0     H97276   9.753   7.308   1.808 -2.5357 -1.4875 -0.6176
  721MOL0     H97277   9.651   7.219   1.922  0.7031 -1.3151  1.4255
  721MOL0     H97278   9.755   7.305   2.116  2.7821 -2.0007  0.6531
  721MOL0     H97279   9.892   7.364   2.038  0.2391 -0.7331  1.9693
  721MOL0     H97280   9.769   7.532   1.907  2.6623 -2.2233  1.1166
  721MOL0     H97281   9.615   7.499   1.982 -0.4493  2.8801  2.0432
  721MOL0     H97282   9.748   7.534   2.214 -3.1422 -0.3641 -0.4936
  721MOL0     H97283   9.858   7.623   2.102  1.1905 -1.1100  1.4239
  721MOL0     H97284   9.706   7.795   2.202 -0.6147  0.8323 -0.1318
  721MOL0     H97285   9.579   7.698   2.147  0.7104  0.3388  1.7651
  721MOL0     H97286   9.896   7.763   1.921  0.8934  2.0546 -0.4864
  721MOL0     H97287   9.774   7.934   1.594 -1.2723  2.5254  2.2907
  721MOL0     H97288   9.916   7.916   1.697  0.4335 -0.1762 -1.7547
  721MOL0     H97289   9.923   7.677   1.658  1.1372 -0.4871 -1.6414
  721MOL0     H97290   9.900   7.745   1.509  1.4888 -3.9117 -0.0172
  721MOL0     H97291   9.638   7.720   1.554 -0.6562 -0.2863  0.1372
  721MOL0     H97292   9.698   7.600   1.679  3.0658 -1.9075 -0.0945
  721MOL0     H97293   9.727   7.612   1.373 -3.9378 -0.0672 -0.1285
  721MOL0     H97294   9.648   7.493   1.465 -0.1750  1.2964 -1.7027
  721MOL0     H97295  10.019   7.434   1.301  0.7857 -0.4574  0.6781
  721MOL0     H97296  10.086   7.110   1.092 -0.9094 -0.4222 -1.6810
  721MOL0     H97297  10.001   7.258   1.032 -0.8622  1.0413  0.4910
  721MOL0     H97298  10.145   7.262   1.137 -0.3947 -0.0084  3.1852
  721MOL0     H97299   9.971   6.634   1.302 -0.2875 -1.2142 -1.0078
  721MOL0     H97300   9.877   6.432   1.205  3.6799  2.3661  2.0864
  721MOL0     H97301   9.427   6.420   1.123 -2.8982 -2.9428 -1.6202
  721MOL0     H97302   9.485   6.470   0.972 -2.5807 -0.2059  1.1724
  721MOL0     H97303   9.489   6.182   1.074 -2.9314 -1.9046  0.1873
  721MOL0     H97304   9.368   6.238   0.971  1.3378 -1.2548 -1.2979
  721MOL0     H97305   9.669   6.239   0.883  0.3670  0.2589 -1.0920
  721MOL0     H97306   9.532   6.308   0.797 -2.6681 -1.4479 -0.5566
  721MOL0     H97307   9.530   6.011   0.868 -1.0405  0.1438  2.0115
  721MOL0     H97308   9.435   6.093   0.763  0.5746 -0.5677 -0.6074
  721MOL0     H97309   9.562   5.989   0.620  1.3887  0.3811 -3.9466
  721MOL0     H97310   9.719   6.038   0.688  0.2790  1.1109  0.1826
  721MOL0     H97311   9.690   6.262   0.619  0.0230  0.9921  1.1546
  721MOL0     H97312   9.679   6.145   0.485  0.1048 -0.7829  1.2451
  721MOL0     H97313   9.469   6.311   0.604  1.1093 -2.4317  3.0172
  721MOL0     H97314   9.433   6.172   0.494  0.1166  0.2678  1.4454
  721MOL0     H97315   9.441   6.380   0.377  0.6043  2.3509  0.3315
  721MOL0     H97316   9.587   6.291   0.330  1.7840  1.0195  0.3478
  721MOL0     H97317   9.521   6.644   1.092 -1.2545  3.9061  1.5176
  721MOL0     H97318   9.616   6.861   1.203  0.4853 -0.5133  4.3819
  721MOL0     H97319   9.741   7.040   1.412  1.5102 -2.0964 -0.4632
  721MOL0     H97320   9.709   7.266   1.524 -0.4128 -1.3815 -1.0137
  721MOL0     H97321   9.750   6.637   1.573  0.5995  1.0724  2.4425
  721MOL0     H97322   9.568   6.498   1.486 -0.9007 -0.3377 -2.2548
  721MOL0     H97323   9.101   6.570   1.125  0.1063 -0.3580 -2.7614
  721MOL0     H97324   9.007   6.374   1.006 -1.8136  1.6329  1.2703
  721MOL0     H97325   9.285   6.022   1.100  0.2305  2.1095  0.1392
  721MOL0     H97326   9.143   5.948   1.159  1.2946 -1.9549 -0.0751
  721MOL0     H97327   9.272   5.839   0.968 -0.2002  1.0052 -0.8393
  721MOL0     H97328   9.229   5.963   0.864  3.2355  0.6010  1.7018
  721MOL0     H97329   9.007   5.828   1.019  1.7009  0.7523  2.2644
  721MOL0     H97330   9.106   5.726   0.901 -0.2914 -1.1263  3.1718
  721MOL0     H97331   9.035   5.925   0.733  1.2546  0.9678  0.3794
  721MOL0     H97332   8.916   5.957   0.865 -0.9008 -0.2790 -2.0511
  721MOL0     H97333   8.754   5.636   0.665 -1.9459 -0.3094  1.5215
  721MOL0     H97334   9.212   6.120   1.289 -1.7385 -0.2404  2.6630
  721MOL0     H97335   9.267   6.304   1.426 -2.1120 -0.3772  1.4418
  722MOL0     O97336   4.947  10.085   0.961  0.0432  0.3340  0.6318
  722MOL0     C97337   5.001  10.055   0.853  0.2359  0.6520 -0.2239
  722MOL0     O97338   4.968   9.949   0.765 -0.4111  0.1751 -0.3193
  722MOL0     C97339   4.874   9.854   0.819 -0.0957 -0.4011  0.0783
  722MOL0     C97340   4.901   9.725   0.810 -0.0697 -0.1546  0.3890
  722MOL0     C97341   4.806   9.636   0.849  0.7519 -0.3217 -0.5412
  722MOL0     C97342   4.680   9.669   0.885  0.4004 -0.3798 -0.0183
  722MOL0     O97343   4.585   9.571   0.909 -0.6716 -0.0799 -0.2763
  722MOL0     C97344   4.546   9.505   0.793 -0.4242  0.1601 -0.4182
  722MOL0     C97345   4.462   9.387   0.849 -0.1396 -0.1991  0.8652
  722MOL0     C97346   4.338   9.422   0.929 -0.2463  0.8581 -0.6792
  722MOL0     C97347   4.217   9.451   0.845  0.5530 -0.3690 -0.0847
  722MOL0     C97348   4.111   9.526   0.928  0.2437  0.1453 -0.0958
  722MOL0     C97349   4.000   9.582   0.845 -0.7863  0.3619 -0.3703
  722MOL0     C97350   3.928   9.472   0.759 -0.1198  0.3722  0.3591
  722MOL0     C97351   3.799   9.508   0.686  0.7309  0.4206  0.0537
  722MOL0     N97352   3.703   9.578   0.786  0.6200  0.8529  0.5623
  722MOL0     C97353   3.636   9.519   0.884 -0.0007 -0.1150  0.9755
  722MOL0     C97354   3.596   9.614   0.973 -0.0814 -0.1868  0.7968
  722MOL0     C97355   3.530   9.590   1.104  0.1000  0.8112 -0.2524
  722MOL0     C97356   3.646   9.589   1.210  0.3746  0.4763 -0.5334
  722MOL0     C97357   3.619   9.503   1.337 -0.6883  1.1280  0.1054
  722MOL0     C97358   3.634   9.349   1.323  0.6600 -0.1254  0.1508
  722MOL0     O97359   3.608   9.281   1.446  0.3610 -0.7022 -0.1006
  722MOL0     C97360   3.633   9.141   1.461  0.1751 -0.1667  0.5654
  722MOL0     C97361   3.574   9.063   1.563 -0.4902 -0.7789  0.5125
  722MOL0     C97362   3.589   8.917   1.564  0.3823 -0.8399 -0.0272
  722MOL0     C97363   3.523   8.843   1.671 -0.6222 -0.1422 -0.0182
  722MOL0     C97364   3.654   8.856   1.454 -0.9662  0.2937 -0.0159
  722MOL0     C97365   3.678   8.707   1.427  0.2401 -0.1472  0.0301
  722MOL0     O97366   3.570   8.622   1.445  0.4660 -0.7931 -0.0503
  722MOL0     C97367   3.578   8.483   1.449 -0.1808 -0.0404  0.2768
  722MOL0     C97368   3.574   8.425   1.328  0.3870  0.1652 -0.1954
  722MOL0     C97369   3.589   8.284   1.306 -0.5534 -0.2593  0.2893
  722MOL0     C97370   3.614   8.199   1.415  0.7754  0.1716 -0.1656
  722MOL0     O97371   3.640   8.062   1.414  0.2617 -0.1162  0.3618
  722MOL0     C97372   3.634   7.999   1.284 -0.2306 -0.1366 -0.1592
  722MOL0     C97373   3.688   7.851   1.305 -0.0783  0.0585  0.0725
  722MOL0     C97374   3.843   7.844   1.294  0.3580  1.0937 -0.0383
  722MOL0     C97375   3.908   7.701   1.278  0.2976  0.8886  0.3831
  722MOL0     C97376   4.057   7.711   1.228  0.3715  0.4665  0.2925
  722MOL0     C97377   4.105   7.568   1.242 -0.0543  0.2078  1.8935
  722MOL0     C97378   4.251   7.549   1.193  0.9127  0.0572 -0.0901
  722MOL0     C97379   4.267   7.572   1.043 -0.4026  1.0871 -0.5326
  722MOL0    Cl97380   4.443   7.555   1.023 -0.4386 -0.2762 -0.0536
  722MOL0     C97381   3.621   8.264   1.540 -0.2803  0.0723 -0.2803
  722MOL0     C97382   3.601   8.399   1.556  0.0452 -1.0604 -0.3849
  722MOL0     O97383   3.789   8.666   1.381 -0.9833 -0.2573 -1.0899
  722MOL0     C97384   3.711   8.940   1.351 -0.2882 -0.7285 -0.3924
  722MOL0     C97385   3.704   9.069   1.360  0.0207 -0.5076  1.0652
  722MOL0     N97386   3.636   9.732   0.913  0.1493 -0.0787  0.2696
  722MOL0     N97387   3.705   9.713   0.806  0.7826  0.8053 -0.6519
  722MOL0     C97388   4.645   9.798   0.904 -0.2143 -0.3022  0.3929
  722MOL0     C97389   4.745   9.893   0.875  0.6513  0.5253  0.2922
  722MOL0     C97390   5.115  10.134   0.807  0.3144 -0.0195 -0.2880
  722MOL0     C97391   5.214  10.081   0.733  0.2580 -0.5835  0.9615
  722MOL0     C97392   5.328  10.150   0.692 -0.3541 -0.7996 -0.4027
  722MOL0     C97393   5.345  10.281   0.739 -0.4237 -0.2982  0.3035
  722MOL0     O97394   5.442  10.363   0.696 -0.3893  0.3080 -0.0025
  722MOL0     C97395   5.439  10.504   0.718 -0.0981 -0.1334 -0.2084
  722MOL0     C97396   5.525  10.562   0.602  0.0651  0.1454 -0.4106
  722MOL0     C97397   5.682  10.575   0.628  0.9938 -0.7820  0.1962
  722MOL0     C97398   5.763  10.570   0.494  0.5149  0.1345 -0.3860
  722MOL0     C97399   5.897  10.582   0.550  0.5590 -0.8577 -0.0290
  722MOL0     C97400   6.019  10.582   0.584  0.6486  0.3010 -0.0609
  722MOL0     C97401   5.244  10.336   0.820  0.1328 -0.0238 -0.4676
  722MOL0     C97402   5.131  10.268   0.849  0.9767 -0.6521 -0.4258
  722MOL0     H97403   4.999   9.702   0.771 -1.1908 -0.1205 -2.8015
  722MOL0     H97404   4.823   9.530   0.865 -3.0346 -1.2749 -1.8244
  722MOL0     H97405   4.483   9.566   0.728  1.2792  0.7560 -1.5791
  722MOL0     H97406   4.635   9.474   0.738  1.4284  0.8926  2.0030
  722MOL0     H97407   4.421   9.333   0.763  1.9254  2.7796 -2.2371
  722MOL0     H97408   4.526   9.324   0.912  0.4191 -4.1722 -3.1378
  722MOL0     H97409   4.324   9.344   1.005  1.6244  1.3963  0.2603
  722MOL0     H97410   4.370   9.511   0.983  0.7884  0.2366 -0.2352
  722MOL0     H97411   4.246   9.508   0.756  0.0825 -1.8714 -1.2485
  722MOL0     H97412   4.167   9.357   0.821 -0.8608 -0.6144  3.2722
  722MOL0     H97413   4.066   9.461   1.003 -3.7034  1.3517 -1.1443
  722MOL0     H97414   4.165   9.604   0.982  1.0919  0.2047 -1.0043
  722MOL0     H97415   3.930   9.645   0.900 -0.6644  1.0132 -0.9535
  722MOL0     H97416   4.043   9.660   0.781 -3.8587  3.3586  0.8903
  722MOL0     H97417   4.001   9.441   0.682  0.8344  1.5569  0.7579
  722MOL0     H97418   3.907   9.387   0.825 -0.2324 -1.0949 -1.4576
  722MOL0     H97419   3.764   9.412   0.646 -2.8138  0.7650  1.9343
  722MOL0     H97420   3.822   9.578   0.604 -0.2976  0.5004 -0.1798
  722MOL0     H97421   3.607   9.414   0.886  0.9409 -0.3732  1.3074
  722MOL0     H97422   3.455   9.666   1.126 -1.6620 -1.5776  2.7772
  722MOL0     H97423   3.467   9.501   1.096 -0.8818  1.5835 -1.4107
  722MOL0     H97424   3.667   9.691   1.243  1.6242  0.1837 -0.3784
  722MOL0     H97425   3.735   9.544   1.164 -0.5762  1.2334 -3.3017
  722MOL0     H97426   3.515   9.527   1.360 -1.2080  1.0882 -1.9748
  722MOL0     H97427   3.680   9.540   1.420 -1.4882  1.2871  0.6367
  722MOL0     H97428   3.741   9.345   1.300  0.4741 -2.3300 -0.5294
  722MOL0     H97429   3.572   9.302   1.247 -2.7333 -0.2186  2.7317
  722MOL0     H97430   3.525   9.105   1.650  2.3190 -4.1198  4.0776
  722MOL0     H97431   3.418   8.843   1.639 -1.6057 -0.1984  2.9171
  722MOL0     H97432   3.567   8.746   1.696 -2.8892 -0.5544  3.0763
  722MOL0     H97433   3.527   8.898   1.765 -0.0907 -1.3533  0.7007
  722MOL0     H97434   3.562   8.485   1.239  2.8621  0.6440 -0.2879
  722MOL0     H97435   3.578   8.255   1.202  1.8850  1.9729 -0.7125
  722MOL0     H97436   3.531   7.985   1.250  0.2603 -3.1655 -0.6610
  722MOL0     H97437   3.695   8.056   1.214  0.3548  0.7517  1.0335
  722MOL0     H97438   3.659   7.816   1.405 -1.0279 -0.0579 -0.2360
  722MOL0     H97439   3.643   7.792   1.225  1.2433 -0.5466 -0.2660
  722MOL0     H97440   3.887   7.888   1.383  0.5053 -1.2493  1.1423
  722MOL0     H97441   3.877   7.897   1.205  2.9550 -1.5354 -0.7703
  722MOL0     H97442   3.911   7.650   1.375 -2.8095  0.2780  0.2660
  722MOL0     H97443   3.846   7.637   1.215 -0.2588  0.5996  1.2212
  722MOL0     H97444   4.102   7.786   1.294  1.3490  0.2452 -0.1152
  722MOL0     H97445   4.068   7.739   1.123  1.2791 -1.8527 -0.2744
  722MOL0     H97446   4.111   7.537   1.347  1.3694 -0.5028  1.6307
  722MOL0     H97447   4.045   7.494   1.188  2.0359 -0.8239  0.8775
  722MOL0     H97448   4.286   7.446   1.206 -0.1959  0.0308  3.8906
  722MOL0     H97449   4.316   7.617   1.249 -0.0190 -0.7416  2.0669
  722MOL0     H97450   4.226   7.668   1.010 -1.1005  1.2971  0.8640
  722MOL0     H97451   4.210   7.491   0.997  1.5226 -2.4301  2.6714
  722MOL0     H97452   3.652   8.212   1.630 -2.2120  0.8727  0.9018
  722MOL0     H97453   3.622   8.446   1.652 -2.1716  0.7233 -0.6929
  722MOL0     H97454   3.752   8.892   1.263  0.0183 -1.7322  0.2869
  722MOL0     H97455   3.735   9.109   1.264  1.1148 -2.3633  0.5880
  722MOL0     H97456   4.543   9.814   0.936 -0.7672  0.1843 -1.4856
  722MOL0     H97457   4.729  10.000   0.882 -1.9666  0.4430 -2.4499
  722MOL0     H97458   5.204   9.978   0.699 -2.1745 -0.0844 -0.0651
  722MOL0     H97459   5.408  10.100   0.638 -2.0298 -1.2796 -2.5956
  722MOL0     H97460   5.345  10.557   0.704  1.5480  2.7965 -1.0959
  722MOL0     H97461   5.473  10.543   0.814 -4.0791  2.9063  0.2328
  722MOL0     H97462   5.499  10.667   0.585 -2.5971 -0.5416 -1.1450
  722MOL0     H97463   5.509  10.515   0.504 -0.5929 -2.3704  0.8175
  722MOL0     H97464   5.705  10.479   0.675  4.6816 -1.7145 -3.0180
  722MOL0     H97465   5.713  10.667   0.679 -0.5504  2.4875 -4.0942
  722MOL0     H97466   5.741  10.661   0.438 -0.8458  0.4475  0.5942
  722MOL0     H97467   5.742  10.484   0.430 -2.2932 -0.3310  0.9710
  722MOL0     H97468   6.124  10.570   0.606  0.0967  0.4030  3.0549
  722MOL0     H97469   5.249  10.434   0.866 -1.3452 -1.3314  2.7302
  722MOL0     H97470   5.057  10.314   0.914 -1.5865 -2.3316 -1.9995
  723MOL0     O97471   2.902   6.277   3.657  0.3082 -0.5311 -0.4573
  723MOL0     C97472   2.780   6.275   3.673 -0.8110  0.2553 -0.4050
  723MOL0     O97473   2.679   6.255   3.581  0.1790  0.5288 -0.3626
  723MOL0     C97474   2.722   6.224   3.453  1.2093 -0.0460 -0.7361
  723MOL0     C97475   2.755   6.318   3.355  0.2610 -0.0371 -0.6322
  723MOL0     C97476   2.771   6.284   3.215  1.0843 -0.0298 -0.6439
  723MOL0     C97477   2.752   6.150   3.181  0.4220  0.3123 -0.7140
  723MOL0     O97478   2.764   6.101   3.054 -0.4169  0.7627  0.6595
  723MOL0     C97479   2.780   6.196   2.953 -0.1539  0.2597  0.7382
  723MOL0     C97480   2.758   6.111   2.827  0.3903 -0.2442  0.8269
  723MOL0     C97481   2.769   6.189   2.700  0.3890  0.3396  0.1333
  723MOL0     C97482   2.901   6.265   2.684 -0.0991 -0.2050 -0.2454
  723MOL0     C97483   2.926   6.332   2.555  0.7719 -0.3817  0.4125
  723MOL0     C97484   3.073   6.375   2.537 -0.4362  0.1235 -0.1264
  723MOL0     C97485   3.124   6.306   2.411 -0.5155 -1.0872  0.2663
  723MOL0     C97486   3.271   6.338   2.384  0.1705  0.4768 -0.0375
  723MOL0     N97487   3.301   6.314   2.245  0.2171 -1.0250 -0.0106
  723MOL0     C97488   3.232   6.364   2.142 -0.0663  0.0615  0.1611
  723MOL0     C97489   3.287   6.306   2.030  0.4945  0.5448 -0.1125
  723MOL0     C97490   3.233   6.317   1.893  0.3814  0.1191 -0.0658
  723MOL0     C97491   3.316   6.397   1.797 -0.4724 -0.3747 -0.7763
  723MOL0     C97492   3.251   6.397   1.656  0.3337  0.6162 -1.3011
  723MOL0     C97493   3.361   6.431   1.548 -0.0342 -0.0800 -0.1934
  723MOL0     O97494   3.299   6.443   1.418  0.5686  0.4772 -0.1335
  723MOL0     C97495   3.204   6.544   1.393  0.1527 -0.0239  0.5399
  723MOL0     C97496   3.202   6.670   1.452 -1.0326  0.1567 -0.3956
  723MOL0     C97497   3.113   6.769   1.417  0.1730 -0.0282  0.1473
  723MOL0     C97498   3.118   6.905   1.490  0.0467 -0.0254 -0.2827
  723MOL0     C97499   3.012   6.736   1.327 -0.4393  0.3872 -1.0945
  723MOL0     C97500   2.909   6.835   1.279 -0.0060  0.0871  0.5853
  723MOL0     O97501   2.882   6.957   1.340 -0.0977  0.6726 -0.1389
  723MOL0     C97502   2.806   7.043   1.267  0.2667  0.2369 -0.1233
  723MOL0     C97503   2.845   7.086   1.144  0.8344 -0.0701  0.1073
  723MOL0     C97504   2.763   7.170   1.068 -0.1706 -0.8618 -0.0519
  723MOL0     C97505   2.648   7.227   1.128  0.1626  0.3232 -0.2914
  723MOL0     O97506   2.576   7.312   1.053  0.8297 -0.3926  0.5075
  723MOL0     C97507   2.500   7.418   1.115  0.0123  0.2596  0.3598
  723MOL0     C97508   2.451   7.493   0.992  0.3546 -0.0594  0.4302
  723MOL0     C97509   2.432   7.643   1.040  0.3107  0.6214  0.2641
  723MOL0     C97510   2.407   7.741   0.922  0.9556 -0.2395 -0.1133
  723MOL0     C97511   2.358   7.887   0.967  0.5580  0.8115  1.0752
  723MOL0     C97512   2.455   7.989   0.915 -0.3792 -0.3027  0.4678
  723MOL0     C97513   2.571   8.002   1.003 -0.5007 -0.3924 -0.2979
  723MOL0     C97514   2.663   8.123   0.962 -1.4777 -0.2500 -0.6587
  723MOL0    Cl97515   2.812   8.148   1.069  0.0697  0.0565 -0.0747
  723MOL0     C97516   2.611   7.198   1.262 -0.3298  0.2056 -0.6778
  723MOL0     C97517   2.693   7.101   1.337  0.7707  0.0275  0.7510
  723MOL0     O97518   2.843   6.797   1.184  0.1495 -0.6004 -0.9492
  723MOL0     C97519   3.015   6.606   1.274  0.6454 -0.5314 -0.2985
  723MOL0     C97520   3.108   6.518   1.310  0.8554 -0.5485  0.5738
  723MOL0     N97521   3.394   6.233   2.065  0.0376 -0.0925 -0.4063
  723MOL0     N97522   3.410   6.251   2.193 -0.2794  0.2899  0.2206
  723MOL0     C97523   2.733   6.054   3.277 -0.6436  0.9977  0.1261
  723MOL0     C97524   2.713   6.091   3.412  0.3202  0.3465  0.4626
  723MOL0     C97525   2.739   6.304   3.815 -0.3436  0.5615 -0.5140
  723MOL0     C97526   2.622   6.364   3.849 -0.1888 -0.9961  0.5076
  723MOL0     C97527   2.593   6.379   3.983  0.8094  0.4894  0.4196
  723MOL0     C97528   2.668   6.334   4.089  0.6259 -0.2351  0.6233
  723MOL0     O97529   2.627   6.370   4.213 -0.1720 -0.1713  0.3986
  723MOL0     C97530   2.715   6.376   4.325 -0.1186 -1.3695  0.2208
  723MOL0     C97531   2.658   6.474   4.429 -0.1465  0.1996  0.2327
  723MOL0     C97532   2.535   6.422   4.504 -0.5429  1.2988  0.2160
  723MOL0     C97533   2.476   6.529   4.606 -0.3586 -1.4909 -0.1865
  723MOL0     C97534   2.426   6.656   4.551 -0.3592  1.3217  0.4651
  723MOL0     C97535   2.382   6.765   4.512  0.5514  0.0029  0.0767
  723MOL0     C97536   2.790   6.277   4.055 -0.9041 -0.1479  0.0917
  723MOL0     C97537   2.834   6.272   3.917  0.1004  0.5826 -0.0254
  723MOL0     H97538   2.773   6.419   3.392 -2.3088  0.8716 -1.6728
  723MOL0     H97539   2.803   6.356   3.141  0.5718 -1.3935 -2.2480
  723MOL0     H97540   2.707   6.277   2.964 -0.2987  0.0910  1.0250
  723MOL0     H97541   2.879   6.242   2.946 -0.0437 -0.0109  0.5289
  723MOL0     H97542   2.837   6.034   2.828  2.7384  2.0202  1.4030
  723MOL0     H97543   2.657   6.070   2.819  1.0347 -1.6176 -1.1345
  723MOL0     H97544   2.768   6.127   2.610 -1.2078 -1.4300  1.3018
  723MOL0     H97545   2.689   6.262   2.682 -0.0902  0.2786  1.8770
  723MOL0     H97546   2.915   6.339   2.763 -0.9474  0.9725 -1.1574
  723MOL0     H97547   2.978   6.187   2.693 -0.5082 -0.8663 -1.9723
  723MOL0     H97548   2.912   6.245   2.491  4.4520 -3.6162  3.4775
  723MOL0     H97549   2.850   6.408   2.533  1.1201 -0.9251 -3.4407
  723MOL0     H97550   3.094   6.481   2.521  2.7510 -0.2602  0.8118
  723MOL0     H97551   3.130   6.354   2.629 -1.5858 -1.4021  0.2807
  723MOL0     H97552   3.104   6.198   2.412 -0.7140 -1.1228 -2.1056
  723MOL0     H97553   3.061   6.352   2.335 -1.1900  1.6264  2.2959
  723MOL0     H97554   3.341   6.279   2.444 -3.0232 -3.3828  0.3683
  723MOL0     H97555   3.296   6.442   2.406  0.5900  0.6800 -1.3961
  723MOL0     H97556   3.149   6.435   2.145 -1.7042 -1.5991 -2.3356
  723MOL0     H97557   3.222   6.215   1.853  0.6404 -0.3987  1.1292
  723MOL0     H97558   3.136   6.367   1.900  1.2304  1.6790  1.0072
  723MOL0     H97559   3.416   6.352   1.796 -0.5850 -0.6298 -0.7901
  723MOL0     H97560   3.324   6.495   1.844  3.3413 -1.2581  0.8078
  723MOL0     H97561   3.175   6.476   1.655 -0.0863  0.2252 -0.6593
  723MOL0     H97562   3.199   6.306   1.626 -1.3027  0.6744  1.0924
  723MOL0     H97563   3.436   6.351   1.547 -1.9365 -1.9969 -2.6496
  723MOL0     H97564   3.415   6.523   1.569  0.6501 -0.0493 -1.9527
  723MOL0     H97565   3.278   6.688   1.528 -0.0058  0.4294 -1.4567
  723MOL0     H97566   3.109   6.989   1.421 -0.7101 -0.4811 -0.7554
  723MOL0     H97567   3.028   6.910   1.553 -1.5307 -0.8607 -2.3307
  723MOL0     H97568   3.206   6.915   1.553 -0.6229 -0.3491  0.7300
  723MOL0     H97569   2.926   7.044   1.086  0.9161 -1.0989  0.9218
  723MOL0     H97570   2.792   7.204   0.968 -0.8767 -0.2456 -0.0583
  723MOL0     H97571   2.411   7.376   1.162  0.8814 -0.2509  1.6065
  723MOL0     H97572   2.555   7.484   1.183 -0.4592  0.0960  0.9078
  723MOL0     H97573   2.516   7.486   0.905  0.3403  2.7788  0.1070
  723MOL0     H97574   2.355   7.467   0.946  0.0814  0.2576  0.8077
  723MOL0     H97575   2.525   7.686   1.078  0.9433  1.5517 -2.1169
  723MOL0     H97576   2.352   7.655   1.114  0.4219 -0.9829  0.6800
  723MOL0     H97577   2.498   7.742   0.863 -0.4366 -1.4080 -2.4319
  723MOL0     H97578   2.328   7.696   0.860 -0.0322 -1.5054  1.9394
  723MOL0     H97579   2.345   7.896   1.075  0.0482  0.3119  1.0588
  723MOL0     H97580   2.262   7.910   0.920  0.5269 -0.6600  0.3642
  723MOL0     H97581   2.491   7.986   0.811  0.5787  1.2031  0.7338
  723MOL0     H97582   2.397   8.081   0.916 -0.1759 -0.1807  1.6175
  723MOL0     H97583   2.622   7.907   1.018 -1.4400 -0.6419  1.6412
  723MOL0     H97584   2.532   8.014   1.104  0.4041  0.0687  0.0140
  723MOL0     H97585   2.592   8.204   0.982  1.1354  1.6909  1.4755
  723MOL0     H97586   2.693   8.116   0.857 -2.3411  2.9320 -1.2025
  723MOL0     H97587   2.523   7.229   1.317  1.3866 -1.7089  3.5695
  723MOL0     H97588   2.673   7.077   1.441  1.2214  2.9413  1.5972
  723MOL0     H97589   2.934   6.579   1.206 -0.1997  0.8800  0.1064
  723MOL0     H97590   3.101   6.420   1.265 -1.1473 -0.9678  1.7065
  723MOL0     H97591   2.707   5.954   3.241  1.1010  0.5902 -0.1053
  723MOL0     H97592   2.676   6.010   3.474  2.1166 -1.4816 -0.7372
  723MOL0     H97593   2.546   6.386   3.774  0.1081 -1.8644 -0.0756
  723MOL0     H97594   2.490   6.404   4.005 -0.6694 -3.0993 -1.5600
  723MOL0     H97595   2.714   6.276   4.369  0.4244 -1.3251  0.3451
  723MOL0     H97596   2.815   6.414   4.300 -1.1637  1.1121 -0.4848
  723MOL0     H97597   2.640   6.571   4.382  1.7653  0.5663  0.2016
  723MOL0     H97598   2.721   6.496   4.515  0.1134 -2.7211  0.9032
  723MOL0     H97599   2.556   6.336   4.569 -0.1233  2.4816  1.7276
  723MOL0     H97600   2.450   6.386   4.445 -2.1048  2.5157  1.6262
  723MOL0     H97601   2.559   6.551   4.674 -1.3849  0.8586  0.4047
  723MOL0     H97602   2.392   6.488   4.664 -0.0761 -2.1782 -0.2498
  723MOL0     H97603   2.339   6.848   4.460  2.3119  0.8297 -0.1379
  723MOL0     H97604   2.862   6.235   4.125 -0.0341 -0.1741 -0.7867
  723MOL0     H97605   2.925   6.215   3.901 -0.6754 -1.4463  2.2030
  724MOL0     O97606   2.304   6.729   1.204 -0.2498  0.5712 -1.1977
  724MOL0     C97607   2.390   6.752   1.292 -0.7419  0.1551  0.9712
  724MOL0     O97608   2.420   6.875   1.340  0.6635 -0.4529 -0.5745
  724MOL0     C97609   2.339   6.982   1.304  0.7179 -0.2711 -0.2983
  724MOL0     C97610   2.250   7.017   1.412 -0.3396  0.0281  0.4076
  724MOL0     C97611   2.171   7.128   1.390  0.3837 -0.8414 -0.6238
  724MOL0     C97612   2.168   7.200   1.268  0.7520  0.5203 -0.1167
  724MOL0     O97613   2.071   7.299   1.281  0.0110  0.1746  0.0051
  724MOL0     C97614   2.113   7.428   1.259 -0.8599  0.3134 -0.1451
  724MOL0     C97615   2.197   7.470   1.381  0.5681 -0.9808  0.3955
  724MOL0     C97616   2.118   7.538   1.495 -0.1419 -0.7316 -0.2876
  724MOL0     C97617   2.104   7.692   1.470  0.4331 -0.6806 -0.1945
  724MOL0     C97618   1.993   7.743   1.560  0.1281 -0.3771 -1.0362
  724MOL0     C97619   2.039   7.719   1.700 -0.2813  0.2556 -0.0195
  724MOL0     C97620   1.948   7.795   1.798 -0.1743  0.4019 -0.3045
  724MOL0     C97621   1.981   7.765   1.942  0.5345 -0.2730 -0.0294
  724MOL0     N97622   1.875   7.814   2.038 -0.1437 -0.3781  0.7387
  724MOL0     C97623   1.745   7.777   2.044 -0.5162  0.1052 -0.3854
  724MOL0     C97624   1.699   7.846   2.149 -0.9656 -0.7223 -0.1393
  724MOL0     C97625   1.557   7.846   2.195 -0.0529  0.1942 -0.4529
  724MOL0     C97626   1.534   7.749   2.308 -0.3206  0.0793  1.0813
  724MOL0     C97627   1.543   7.598   2.276  0.0602 -0.0991 -0.3367
  724MOL0     C97628   1.682   7.538   2.293  1.1182 -0.5027  0.0933
  724MOL0     O97629   1.662   7.411   2.234 -0.2029  0.0294  0.1124
  724MOL0     C97630   1.749   7.313   2.269  0.2216  0.8319 -0.3451
  724MOL0     C97631   1.872   7.327   2.325 -0.4992  0.4661  0.5193
  724MOL0     C97632   1.967   7.221   2.338  0.6407 -0.3541  0.9861
  724MOL0     C97633   2.107   7.251   2.395  1.0216 -0.2973 -0.0326
  724MOL0     C97634   1.919   7.091   2.293  0.3509 -1.0381 -0.6035
  724MOL0     C97635   2.014   6.975   2.294 -0.2230  0.1557 -0.3777
  724MOL0     O97636   2.143   6.974   2.343 -1.0423 -0.3768 -0.2155
  724MOL0     C97637   2.216   6.858   2.348 -0.5058 -0.3744  0.2936
  724MOL0     C97638   2.282   6.817   2.229  1.0122  0.5378  0.7921
  724MOL0     C97639   2.366   6.707   2.232 -0.1386 -0.6734  0.0553
  724MOL0     C97640   2.382   6.631   2.354  1.0700 -0.8491  1.1479
  724MOL0     O97641   2.458   6.516   2.343  0.5950 -0.2217  0.3907
  724MOL0     C97642   2.504   6.448   2.457  0.5519 -0.2311 -0.2947
  724MOL0     C97643   2.429   6.315   2.472  0.1358  0.0823  0.0090
  724MOL0     C97644   2.451   6.208   2.365  1.3067 -0.3878  0.5139
  724MOL0     C97645   2.598   6.182   2.321 -0.7454 -0.8428 -0.9318
  724MOL0     C97646   2.610   6.069   2.225  0.0394 -0.1709 -0.6831
  724MOL0     C97647   2.735   6.082   2.146 -0.8287  0.7964 -0.0995
  724MOL0     C97648   2.768   5.954   2.077 -1.0286  1.0460  0.4109
  724MOL0     C97649   2.883   5.972   1.969 -0.0245  0.1098 -0.2942
  724MOL0    Cl97650   3.038   6.032   2.050 -0.1227  0.1021  0.4453
  724MOL0     C97651   2.303   6.671   2.461 -0.8403 -0.6022  0.2406
  724MOL0     C97652   2.225   6.781   2.457 -0.4691  0.5669  0.7163
  724MOL0     O97653   1.955   6.871   2.266 -0.5776  0.3397 -0.2320
  724MOL0     C97654   1.783   7.080   2.250  0.4014  0.4876 -0.8663
  724MOL0     C97655   1.705   7.190   2.235 -0.0547 -0.1965 -0.1100
  724MOL0     N97656   1.806   7.930   2.193  0.1202  0.2879  0.2746
  724MOL0     N97657   1.913   7.904   2.124  0.2171 -0.8688 -0.4113
  724MOL0     C97658   2.258   7.165   1.165  0.4397  0.1054 -0.1535
  724MOL0     C97659   2.338   7.049   1.182  0.0150  0.1785 -0.5946
  724MOL0     C97660   2.484   6.642   1.350 -0.8142 -0.6724 -0.6184
  724MOL0     C97661   2.594   6.673   1.432  0.4579  0.5089 -0.6398
  724MOL0     C97662   2.676   6.576   1.491  0.3198  0.1541 -0.3107
  724MOL0     C97663   2.655   6.439   1.460  0.3752 -0.5617 -0.0824
  724MOL0     O97664   2.721   6.330   1.525 -0.2314  0.3816  0.2966
  724MOL0     C97665   2.836   6.362   1.600  0.0038 -0.0892 -0.0239
  724MOL0     C97666   2.918   6.231   1.615  0.3698  0.1120  0.0657
  724MOL0     C97667   2.943   6.167   1.475 -0.6695  0.1238  0.4929
  724MOL0     C97668   3.054   6.062   1.453  0.2559  0.3493 -1.1584
  724MOL0     C97669   3.034   5.948   1.555 -0.8727 -0.4618  0.1684
  724MOL0     C97670   3.038   5.869   1.643  0.3024 -0.2191 -0.4668
  724MOL0     C97671   2.548   6.402   1.378  0.5989 -0.0111  0.8859
  724MOL0     C97672   2.462   6.502   1.324  0.8450  1.0191 -0.2689
  724MOL0     H97673   2.261   6.968   1.508  1.9114  1.6592  1.0470
  724MOL0     H97674   2.116   7.158   1.479  2.1957  0.0470  0.2463
  724MOL0     H97675   2.169   7.444   1.166 -1.6799  2.3798 -0.3493
  724MOL0     H97676   2.027   7.496   1.248 -2.5015 -1.4395  1.2889
  724MOL0     H97677   2.251   7.388   1.428  3.2011  1.2952  1.6378
  724MOL0     H97678   2.276   7.531   1.337 -0.8003 -0.4261 -1.4221
  724MOL0     H97679   2.019   7.493   1.506 -1.4562  0.9215 -3.8114
  724MOL0     H97680   2.179   7.529   1.586  1.8621  1.6080 -1.3092
  724MOL0     H97681   2.198   7.746   1.486 -0.2015  0.2095  0.7322
  724MOL0     H97682   2.055   7.708   1.373 -4.0619 -1.2938  1.6909
  724MOL0     H97683   1.972   7.849   1.541  1.8771  0.1311 -0.3723
  724MOL0     H97684   1.899   7.696   1.531 -1.5297  2.4804 -0.6650
  724MOL0     H97685   2.027   7.616   1.737  0.2731  0.0703 -0.3335
  724MOL0     H97686   2.143   7.752   1.707 -0.5633  0.8013  2.4956
  724MOL0     H97687   1.957   7.903   1.782 -0.9105  0.1350 -2.9169
  724MOL0     H97688   1.845   7.760   1.787  0.1691 -0.8959  0.3816
  724MOL0     H97689   2.071   7.825   1.949 -1.2372  2.4000  1.8559
  724MOL0     H97690   2.018   7.664   1.962  1.9886 -0.2308 -2.2033
  724MOL0     H97691   1.691   7.696   1.996 -2.1182  0.2779  1.0023
  724MOL0     H97692   1.534   7.943   2.242  1.4371  0.5470 -0.3936
  724MOL0     H97693   1.489   7.831   2.110  0.1081 -0.5939 -0.4413
  724MOL0     H97694   1.430   7.743   2.341 -1.5314 -1.1082 -2.4702
  724MOL0     H97695   1.605   7.773   2.389 -1.5930  3.0964  1.4454
  724MOL0     H97696   1.499   7.592   2.176 -0.6175 -0.4439 -0.0216
  724MOL0     H97697   1.476   7.549   2.347  1.6709  0.0267  1.3367
  724MOL0     H97698   1.706   7.532   2.400  2.3501 -0.5064 -0.1657
  724MOL0     H97699   1.754   7.589   2.228  0.4977 -4.7974 -4.5323
  724MOL0     H97700   1.896   7.432   2.341  1.0040  0.5315 -1.7412
  724MOL0     H97701   2.116   7.351   2.437  1.1966 -0.2117 -0.2686
  724MOL0     H97702   2.135   7.171   2.465 -0.0430 -0.1618  0.5594
  724MOL0     H97703   2.174   7.241   2.309  0.5202 -0.9166 -0.3549
  724MOL0     H97704   2.267   6.887   2.148 -1.9947  0.0287  0.8147
  724MOL0     H97705   2.423   6.675   2.145 -0.0338  2.0620 -1.0061
  724MOL0     H97706   2.610   6.428   2.439  0.1227 -2.3248 -0.7862
  724MOL0     H97707   2.491   6.500   2.552  1.1148 -3.0436  1.4518
  724MOL0     H97708   2.450   6.270   2.570 -1.3599  1.3527  0.9574
  724MOL0     H97709   2.326   6.351   2.469 -0.8960 -2.6108  0.1823
  724MOL0     H97710   2.402   6.235   2.271  1.0378 -0.5371  0.6102
  724MOL0     H97711   2.403   6.113   2.392  0.4103 -1.5619 -4.2980
  724MOL0     H97712   2.637   6.268   2.266  0.9592  0.1615  1.6838
  724MOL0     H97713   2.659   6.172   2.411  1.2630  0.6582 -2.0567
  724MOL0     H97714   2.535   6.066   2.145 -0.0092 -0.6229 -0.6262
  724MOL0     H97715   2.600   5.978   2.286 -1.4347  0.7950  0.5839
  724MOL0     H97716   2.720   6.159   2.069  2.6904 -1.1703 -3.0721
  724MOL0     H97717   2.816   6.108   2.215 -1.3634 -0.0088  0.8516
  724MOL0     H97718   2.685   5.909   2.022 -0.5399 -2.3638  2.1410
  724MOL0     H97719   2.793   5.871   2.144 -0.3324 -1.8538 -3.1046
  724MOL0     H97720   2.855   6.047   1.894 -2.9137 -0.4474  0.1097
  724MOL0     H97721   2.911   5.879   1.919  3.2105 -0.4098  2.1520
  724MOL0     H97722   2.295   6.610   2.550 -1.8790  0.4080  0.8737
  724MOL0     H97723   2.159   6.801   2.541 -0.3722  2.4665  0.3828
  724MOL0     H97724   1.745   6.978   2.245  3.4827 -0.9259  1.1934
  724MOL0     H97725   1.603   7.171   2.201 -0.0838 -0.4577  0.1175
  724MOL0     H97726   2.256   7.229   1.078  0.1042  3.2997  2.0365
  724MOL0     H97727   2.408   7.010   1.110  0.9824  0.4848  0.1426
  724MOL0     H97728   2.611   6.774   1.469  0.3306  0.3246 -0.0649
  724MOL0     H97729   2.750   6.606   1.564 -0.6844  4.2837 -0.7650
  724MOL0     H97730   2.886   6.443   1.545 -0.5623 -1.3854 -2.6146
  724MOL0     H97731   2.816   6.407   1.697  1.7603  1.6218 -0.3707
  724MOL0     H97732   2.871   6.160   1.683 -1.6903  1.3602  0.0355
  724MOL0     H97733   3.015   6.258   1.659  0.1423  1.4882 -0.2229
  724MOL0     H97734   2.967   6.245   1.402 -1.8499 -1.5826 -1.8519
  724MOL0     H97735   2.847   6.129   1.439 -0.0332 -1.8264  0.7713
  724MOL0     H97736   3.155   6.099   1.473 -0.0412  3.8759 -4.8919
  724MOL0     H97737   3.052   6.011   1.356  0.9291 -0.5978 -0.6968
  724MOL0     H97738   3.021   5.813   1.732  0.5645  0.0483 -0.2499
  724MOL0     H97739   2.523   6.308   1.330  0.5474  0.6294 -0.3841
  724MOL0     H97740   2.385   6.468   1.256 -0.0172 -0.3135  1.3052
  725MOL0     O97741  10.763   5.842   2.966  0.1559  0.3428  0.2882
  725MOL0     C97742  10.796   5.727   2.926  0.9106  0.3530 -0.9886
  725MOL0     O97743  10.741   5.655   2.833 -0.2584 -0.5664 -0.2017
  725MOL0     C97744  10.621   5.697   2.792 -0.0124  0.4041  0.5236
  725MOL0     C97745  10.611   5.799   2.696  1.8010  0.3680 -0.6050
  725MOL0     C97746  10.476   5.843   2.667 -1.4779 -0.2098  0.6958
  725MOL0     C97747  10.363   5.782   2.716 -1.0095 -0.1720  0.0036
  725MOL0     O97748  10.244   5.828   2.664 -0.7062 -0.0186  0.5029
  725MOL0     C97749  10.142   5.731   2.619  0.0270 -0.5379  0.4646
  725MOL0     C97750  10.025   5.789   2.537 -1.4020  0.0417  0.4863
  725MOL0     C97751   9.919   5.863   2.627 -0.9367  0.1620  0.0938
  725MOL0     C97752   9.955   6.000   2.669  0.0068  0.5222 -0.4099
  725MOL0     C97753   9.849   6.072   2.751 -0.9243 -0.3948  0.1001
  725MOL0     C97754   9.725   6.102   2.670 -0.3799 -0.1285 -0.5598
  725MOL0     C97755   9.660   6.238   2.711  0.7968  0.8792 -0.0315
  725MOL0     C97756   9.574   6.220   2.842 -0.6104  0.6500  0.5608
  725MOL0     N97757   9.502   6.341   2.879 -0.1126  0.1022 -0.0381
  725MOL0     C97758   9.383   6.385   2.828  0.5801 -0.1246  0.6958
  725MOL0     C97759   9.355   6.506   2.891 -1.0169  0.5767 -0.3849
  725MOL0     C97760   9.243   6.603   2.863  0.2537 -0.4669  1.1122
  725MOL0     C97761   9.116   6.552   2.938  0.0641 -0.8222 -0.7285
  725MOL0     C97762   9.114   6.532   3.086 -0.3025  0.6116  0.6992
  725MOL0     C97763   9.161   6.654   3.171 -0.2192 -0.8029  0.9208
  725MOL0     O97764   9.098   6.764   3.118  0.4557  0.1037 -0.6474
  725MOL0     C97765   9.094   6.884   3.194 -0.2959 -0.6695  0.1078
  725MOL0     C97766   9.041   7.003   3.132 -0.7330  0.2516 -0.2503
  725MOL0     C97767   9.036   7.121   3.194  0.0665 -0.7700  0.0167
  725MOL0     C97768   8.971   7.227   3.123 -0.3347  0.6830  0.9402
  725MOL0     C97769   9.074   7.138   3.334  1.0808  0.2663 -0.4978
  725MOL0     C97770   9.062   7.269   3.410  0.4050  0.8300 -0.8053
  725MOL0     O97771   9.089   7.237   3.541 -0.5147 -0.2357  0.7740
  725MOL0     C97772   9.068   7.347   3.628 -0.2970  0.0724  0.3183
  725MOL0     C97773   8.932   7.389   3.643  0.0879  0.0659 -0.0699
  725MOL0     C97774   8.897   7.472   3.749 -0.4634  0.2264 -0.1742
  725MOL0     C97775   8.992   7.540   3.810  0.1303  0.0419 -0.0811
  725MOL0     O97776   8.958   7.636   3.897  1.1438  0.0628  0.4314
  725MOL0     C97777   8.819   7.664   3.937  0.4732 -0.3307  0.1005
  725MOL0     C97778   8.754   7.754   3.824  0.7246 -0.3331 -0.3866
  725MOL0     C97779   8.825   7.881   3.785  0.8427  0.2412 -0.3125
  725MOL0     C97780   8.750   7.939   3.666 -0.6102  0.2514  0.6734
  725MOL0     C97781   8.777   8.090   3.651  0.0927  0.3595 -0.0922
  725MOL0     C97782   8.679   8.155   3.551 -1.3955  0.3935  0.4692
  725MOL0     C97783   8.691   8.311   3.525 -1.0611 -1.2525 -0.3761
  725MOL0     C97784   8.602   8.365   3.414 -0.4451  0.3909 -0.5459
  725MOL0    Cl97785   8.446   8.278   3.394  0.2621 -0.6364 -0.1307
  725MOL0     C97786   9.128   7.516   3.790 -0.0212  0.1156  0.0927
  725MOL0     C97787   9.163   7.414   3.708 -0.8580  0.0799 -0.1107
  725MOL0     O97788   9.028   7.376   3.363 -0.6066 -0.3353 -0.3930
  725MOL0     C97789   9.133   7.025   3.391 -0.5015  0.5859  0.7362
  725MOL0     C97790   9.142   6.898   3.326 -0.5443  0.7905 -1.1218
  725MOL0     N97791   9.466   6.534   2.963 -0.7409 -0.9063 -0.2023
  725MOL0     N97792   9.556   6.441   2.956 -0.0536  0.1076 -0.6501
  725MOL0     C97793  10.380   5.683   2.818  0.0976 -1.7503  0.8971
  725MOL0     C97794  10.508   5.649   2.853 -0.5907 -0.1854  0.5992
  725MOL0     C97795  10.912   5.657   2.989  0.2703 -0.1592  0.0449
  725MOL0     C97796  11.005   5.734   3.057  0.4244 -0.0469 -0.2360
  725MOL0     C97797  11.098   5.687   3.146  0.2725 -0.4358 -0.2681
  725MOL0     C97798  11.133   5.548   3.141 -0.6322 -0.1743  0.3769
  725MOL0     O97799  11.229   5.484   3.214 -0.7468 -0.8453 -0.3503
  725MOL0     C97800  11.352   5.552   3.242  0.4209 -0.2329 -1.5703
  725MOL0     C97801  11.435   5.538   3.118 -0.1031 -0.5445  0.0383
  725MOL0     C97802  11.583   5.568   3.148  0.6232 -0.4034 -0.3703
  725MOL0     C97803  11.654   5.436   3.188 -0.6680  0.0683 -0.1990
  725MOL0     C97804  11.786   5.467   3.243  0.7071  0.5217  0.8846
  725MOL0     C97805  11.891   5.480   3.302 -0.8774 -0.0140 -1.5447
  725MOL0     C97806  11.053   5.468   3.058  0.6523 -0.0906  0.8260
  725MOL0     C97807  10.941   5.517   2.985 -0.7039 -0.2383  0.3323
  725MOL0     H97808  10.694   5.847   2.646  2.1081  1.4928  0.9298
  725MOL0     H97809  10.451   5.930   2.607 -0.6295  0.8477  1.8225
  725MOL0     H97810  10.196   5.656   2.560  3.1132  0.6818  1.5480
  725MOL0     H97811  10.098   5.682   2.707  0.2600  0.7908  1.3426
  725MOL0     H97812  10.074   5.862   2.472  0.5746 -1.3071  0.3840
  725MOL0     H97813   9.983   5.707   2.478  0.7947 -2.4146  2.0988
  725MOL0     H97814   9.826   5.865   2.569  0.4326  1.8157 -2.2383
  725MOL0     H97815   9.888   5.808   2.716 -0.0902  0.8969  0.8629
  725MOL0     H97816  10.040   5.993   2.737  0.0338  1.5957 -0.3261
  725MOL0     H97817   9.987   6.054   2.580 -0.7042 -1.4280 -1.9421
  725MOL0     H97818   9.830   6.026   2.848 -0.2594 -2.4706 -0.6933
  725MOL0     H97819   9.895   6.170   2.767  1.0556 -1.6050  2.3356
  725MOL0     H97820   9.752   6.117   2.565  0.7107 -1.1226 -0.4380
  725MOL0     H97821   9.658   6.017   2.684  0.5844 -0.9629 -0.9514
  725MOL0     H97822   9.739   6.313   2.719  0.2002  1.5162 -0.0118
  725MOL0     H97823   9.583   6.258   2.636 -2.7092 -1.0380  2.7260
  725MOL0     H97824   9.651   6.195   2.915 -0.7966 -1.9826 -0.0344
  725MOL0     H97825   9.519   6.126   2.830  1.1582 -0.2891 -0.5386
  725MOL0     H97826   9.330   6.338   2.746  1.9222  1.6353 -1.2791
  725MOL0     H97827   9.266   6.707   2.890 -1.1840  0.2219 -0.1100
  725MOL0     H97828   9.218   6.612   2.757  1.0214  1.9627  1.0575
  725MOL0     H97829   9.089   6.456   2.895  0.1352 -1.1539 -0.0424
  725MOL0     H97830   9.032   6.620   2.922 -1.1458 -0.4819  4.9211
  725MOL0     H97831   9.163   6.439   3.118 -0.3057  1.0122  1.9433
  725MOL0     H97832   9.005   6.531   3.098 -0.4752  3.5903  0.2134
  725MOL0     H97833   9.269   6.664   3.157 -0.3987 -0.2438 -0.1221
  725MOL0     H97834   9.152   6.632   3.278  1.3413 -1.4729  0.9398
  725MOL0     H97835   9.016   7.000   3.027 -1.6412 -1.0319 -0.0214
  725MOL0     H97836   8.887   7.257   3.186 -2.1170 -1.7291 -0.1253
  725MOL0     H97837   9.046   7.306   3.113 -1.8824  2.5886  3.2397
  725MOL0     H97838   8.940   7.208   3.019  2.6752  3.4797 -0.6339
  725MOL0     H97839   8.849   7.355   3.582  0.2286  1.1532 -0.8939
  725MOL0     H97840   8.791   7.492   3.759 -0.3273 -0.0429  2.7341
  725MOL0     H97841   8.761   7.571   3.938  0.3833 -0.3488 -1.9049
  725MOL0     H97842   8.817   7.706   4.038  0.2443 -0.2377  0.0575
  725MOL0     H97843   8.743   7.702   3.728 -0.0597  1.6086 -1.3966
  725MOL0     H97844   8.652   7.770   3.861  0.7731 -1.8575  0.4969
  725MOL0     H97845   8.931   7.864   3.764  1.0523 -0.8938  1.4891
  725MOL0     H97846   8.820   7.946   3.872 -1.8974 -0.1452 -0.0922
  725MOL0     H97847   8.767   7.885   3.572  0.7405  0.9239  0.5140
  725MOL0     H97848   8.641   7.928   3.676 -0.4061 -0.5304  2.3343
  725MOL0     H97849   8.882   8.105   3.626 -0.5039  3.2691 -1.2052
  725MOL0     H97850   8.767   8.141   3.747  1.0505 -2.9689  1.9585
  725MOL0     H97851   8.681   8.100   3.456 -5.4098  0.7725 -0.0089
  725MOL0     H97852   8.581   8.128   3.591 -1.5269 -0.1177 -0.1760
  725MOL0     H97853   8.797   8.331   3.509 -1.2716  0.2716 -0.0579
  725MOL0     H97854   8.666   8.370   3.614  2.4715  0.5660 -0.3980
  725MOL0     H97855   8.655   8.338   3.322  1.3217 -0.4813  0.6798
  725MOL0     H97856   8.606   8.475   3.412 -2.2061  0.4939 -2.9924
  725MOL0     H97857   9.201   7.564   3.855 -1.1178 -0.6192  1.9630
  725MOL0     H97858   9.268   7.389   3.699 -1.6701 -2.9451 -3.0573
  725MOL0     H97859   9.170   7.033   3.492  3.2884  2.2349 -0.6121
  725MOL0     H97860   9.169   6.812   3.387  1.1671  2.3124  0.4091
  725MOL0     H97861  10.295   5.646   2.874 -0.9853 -3.0010 -1.4366
  725MOL0     H97862  10.514   5.584   2.940 -0.3154 -0.3291  0.4736
  725MOL0     H97863  10.986   5.841   3.047 -3.3712 -0.5127  0.4320
  725MOL0     H97864  11.163   5.749   3.208 -0.3128 -1.8192  1.8390
  725MOL0     H97865  11.329   5.651   3.281 -1.7144 -0.0735 -3.0968
  725MOL0     H97866  11.398   5.495   3.324 -3.0437  1.5484  1.9253
  725MOL0     H97867  11.398   5.608   3.043  1.3995 -0.9752 -1.1468
  725MOL0     H97868  11.422   5.438   3.076  0.1296  0.4723 -2.6301
  725MOL0     H97869  11.585   5.643   3.228 -1.6937 -0.8568  0.1707
  725MOL0     H97870  11.629   5.608   3.057 -0.0655  1.6919  0.1437
  725MOL0     H97871  11.672   5.379   3.097  0.4133 -0.7041  0.4729
  725MOL0     H97872  11.602   5.366   3.254  1.5280 -1.0402  0.4406
  725MOL0     H97873  11.989   5.483   3.344 -1.6161 -1.8030  0.4870
  725MOL0     H97874  11.080   5.365   3.041 -0.0319 -0.2072  0.4065
  725MOL0     H97875  10.882   5.450   2.923  0.5265  0.9161 -2.2153
  726MOL0     O97876   9.061   3.531   1.750 -0.2424 -0.7003 -0.1242
  726MOL0     C97877   9.095   3.414   1.771  0.1721 -0.6226 -0.8501
  726MOL0     O97878   9.112   3.311   1.688 -0.6438  0.0611  0.7776
  726MOL0     C97879   9.124   3.339   1.551 -0.0940 -0.8827 -1.1905
  726MOL0     C97880   9.086   3.230   1.479 -0.2947  0.0580  1.1182
  726MOL0     C97881   9.086   3.240   1.332  0.0167  0.0457 -0.2393
  726MOL0     C97882   9.113   3.358   1.269  0.3188  0.2385  0.2716
  726MOL0     O97883   9.097   3.365   1.134  0.0126  0.1174  0.1642
  726MOL0     C97884   9.115   3.491   1.065  0.4313 -0.3340  0.2030
  726MOL0     C97885   9.065   3.466   0.925  0.2630 -0.5932  0.4988
  726MOL0     C97886   8.913   3.470   0.917  0.6489  1.0329 -0.9266
  726MOL0     C97887   8.863   3.455   0.776  0.2502  0.1511  0.6498
  726MOL0     C97888   8.880   3.599   0.706  0.2880  0.1407 -0.1990
  726MOL0     C97889   8.821   3.597   0.567 -0.2670 -0.3517  0.0330
  726MOL0     C97890   8.670   3.588   0.574 -0.2262  0.6001 -0.0155
  726MOL0     C97891   8.609   3.603   0.437 -0.7019 -0.0076  0.6738
  726MOL0     N97892   8.620   3.732   0.366  0.1004  0.0005  0.3817
  726MOL0     C97893   8.685   3.747   0.246  0.7075 -1.1864 -1.0394
  726MOL0     C97894   8.670   3.881   0.211  0.7653  0.0839  0.1685
  726MOL0     C97895   8.710   3.940   0.082  0.2868 -0.6151 -1.4283
  726MOL0     C97896   8.600   4.045   0.030  0.0482 -1.2465  0.0916
  726MOL0     C97897   8.607   4.178   0.110 -0.7615 -0.6816 -0.6889
  726MOL0     C97898   8.492   4.275   0.076 -0.0523  0.4364 -0.2646
  726MOL0     O97899   8.525   4.336  -0.043 -0.0583 -0.1892 -0.0596
  726MOL0     C97900   8.431   4.421  -0.094  0.5799  0.5389  0.5232
  726MOL0     C97901   8.463   4.467  -0.222 -0.4259  0.2807 -0.0105
  726MOL0     C97902   8.388   4.566  -0.292  0.7714 -0.2767  0.2917
  726MOL0     C97903   8.444   4.605  -0.431 -0.4742  0.1550  0.8217
  726MOL0     C97904   8.274   4.624  -0.217  0.2931 -0.0090  1.3973
  726MOL0     C97905   8.177   4.724  -0.284 -0.0561 -0.5794 -0.1599
  726MOL0     O97906   8.066   4.772  -0.221 -0.0226  0.1851  0.3206
  726MOL0     C97907   7.973   4.831  -0.300  0.8616 -0.5684  0.4335
  726MOL0     C97908   7.945   4.963  -0.270 -0.4039  0.6073 -0.7553
  726MOL0     C97909   7.868   5.045  -0.353 -0.0564 -0.4234  0.3617
  726MOL0     C97910   7.785   4.983  -0.440  1.0450 -0.4114 -0.1817
  726MOL0     O97911   7.700   5.060  -0.504  0.3638 -0.2999 -0.1695
  726MOL0     C97912   7.640   5.015  -0.624 -0.0039  0.6164  0.8071
  726MOL0     C97913   7.494   5.070  -0.637  0.4242  0.3670  0.6623
  726MOL0     C97914   7.450   5.189  -0.559 -0.1538  0.4808 -0.5392
  726MOL0     C97915   7.496   5.322  -0.620 -1.0212 -0.7493 -0.2223
  726MOL0     C97916   7.442   5.438  -0.537  0.1935 -0.1265 -0.2215
  726MOL0     C97917   7.515   5.482  -0.422 -0.5299  0.1430  0.5314
  726MOL0     C97918   7.449   5.593  -0.337 -0.4543  0.4359 -0.4626
  726MOL0     C97919   7.437   5.730  -0.405 -0.0504  0.7323  0.1855
  726MOL0    Cl97920   7.591   5.794  -0.482 -0.2501 -0.2123 -0.3706
  726MOL0     C97921   7.790   4.846  -0.443 -0.1284 -1.0052  0.7742
  726MOL0     C97922   7.888   4.766  -0.386  0.2789 -0.2316  0.0685
  726MOL0     O97923   8.209   4.760  -0.400  0.3834 -0.3533 -0.2054
  726MOL0     C97924   8.246   4.580  -0.083  0.6420  0.7372  0.4096
  726MOL0     C97925   8.310   4.475  -0.031 -0.1444 -0.4121 -0.8964
  726MOL0     N97926   8.586   3.941   0.304 -0.2716 -0.1227  0.0220
  726MOL0     N97927   8.553   3.850   0.396 -0.4494 -0.3555  1.1523
  726MOL0     C97928   9.143   3.468   1.353  0.8271 -0.5631 -0.5550
  726MOL0     C97929   9.150   3.465   1.495 -0.6997 -0.8059 -0.0473
  726MOL0     C97930   9.114   3.376   1.918  1.2689  0.3738 -0.2192
  726MOL0     C97931   9.077   3.453   2.027  0.5143 -1.1355  0.2614
  726MOL0     C97932   9.097   3.413   2.154  0.5618 -0.0040  0.3335
  726MOL0     C97933   9.155   3.290   2.187 -0.7406 -0.3028 -0.9136
  726MOL0     O97934   9.181   3.244   2.310 -0.1443 -0.2249 -0.1753
  726MOL0     C97935   9.101   3.293   2.425 -0.3154  0.2705  0.1292
  726MOL0     C97936   8.995   3.190   2.455  0.9009 -0.4097 -0.0878
  726MOL0     C97937   9.059   3.063   2.479 -0.1320 -0.7187 -0.9234
  726MOL0     C97938   8.969   2.964   2.544 -0.1303 -0.1690  0.6905
  726MOL0     C97939   8.871   2.903   2.452  0.3218 -0.3353  0.8197
  726MOL0     C97940   8.778   2.874   2.379 -0.0901 -0.3878 -0.3462
  726MOL0     C97941   9.206   3.206   2.087  0.0179 -0.0569  0.1935
  726MOL0     C97942   9.176   3.253   1.954  0.2878 -0.3740  0.4145
  726MOL0     H97943   9.055   3.146   1.540 -1.1280  1.9955  3.5479
  726MOL0     H97944   9.064   3.157   1.266  1.1764  0.2172 -0.8560
  726MOL0     H97945   9.044   3.567   1.099  0.1903  0.0049 -1.0058
  726MOL0     H97946   9.212   3.542   1.061 -0.5864  1.6626 -2.2631
  726MOL0     H97947   9.096   3.546   0.856  0.1980 -1.8774 -1.0927
  726MOL0     H97948   9.101   3.371   0.886  1.3965  0.5534 -1.4167
  726MOL0     H97949   8.884   3.381   0.974 -0.1252  2.8036  1.6381
  726MOL0     H97950   8.865   3.562   0.950  1.5316  1.0641  0.3521
  726MOL0     H97951   8.918   3.382   0.715 -3.0822 -0.9324 -1.3215
  726MOL0     H97952   8.760   3.420   0.767  0.5527 -0.4594 -0.7941
  726MOL0     H97953   8.836   3.677   0.769 -0.6830 -1.7359  1.5706
  726MOL0     H97954   8.986   3.620   0.694  0.3008  1.3283  1.5605
  726MOL0     H97955   8.843   3.687   0.509  1.9338 -0.7665  0.1245
  726MOL0     H97956   8.849   3.502   0.520 -2.4823 -1.4555  0.8085
  726MOL0     H97957   8.638   3.487   0.602 -1.8598  1.3964  1.1632
  726MOL0     H97958   8.623   3.655   0.647 -1.3381 -0.0072 -0.1459
  726MOL0     H97959   8.501   3.588   0.440 -0.9296  0.8119 -1.5868
  726MOL0     H97960   8.652   3.521   0.378 -0.0804 -1.3316  2.8370
  726MOL0     H97961   8.724   3.661   0.193 -0.0734 -1.5522 -1.0328
  726MOL0     H97962   8.807   3.989   0.078 -0.2113  0.7542  1.1395
  726MOL0     H97963   8.707   3.863   0.005  2.4015  0.0530 -2.2347
  726MOL0     H97964   8.499   4.005   0.035  0.1248 -1.3363  0.9882
  726MOL0     H97965   8.630   4.059  -0.074  2.5883 -0.3649  0.8600
  726MOL0     H97966   8.703   4.225   0.089  0.7299 -4.3369 -3.1233
  726MOL0     H97967   8.599   4.160   0.218 -2.8542 -0.0143 -0.6799
  726MOL0     H97968   8.486   4.356   0.149  1.3635 -0.1678  0.5581
  726MOL0     H97969   8.405   4.209   0.074  1.3887 -1.5903 -0.1777
  726MOL0     H97970   8.562   4.434  -0.252  0.0108  1.4490  0.0778
  726MOL0     H97971   8.379   4.562  -0.508 -0.0198 -2.0417  1.5932
  726MOL0     H97972   8.458   4.712  -0.447  3.9806 -0.0455  2.1863
  726MOL0     H97973   8.542   4.561  -0.448 -0.9121 -0.3123 -0.6102
  726MOL0     H97974   8.014   5.004  -0.198 -0.5990  0.5355 -0.5274
  726MOL0     H97975   7.876   5.153  -0.346 -0.9011 -0.4626  2.9755
  726MOL0     H97976   7.695   5.035  -0.716 -1.9310 -1.3399 -0.8765
  726MOL0     H97977   7.615   4.909  -0.617  0.0862  0.4630 -0.9508
  726MOL0     H97978   7.472   5.082  -0.743 -1.6917  2.8141  1.2848
  726MOL0     H97979   7.433   4.989  -0.596  1.4739  0.0808  1.7231
  726MOL0     H97980   7.495   5.186  -0.460  0.8774  1.1604 -0.9726
  726MOL0     H97981   7.341   5.183  -0.548 -0.0419 -0.1306  0.3482
  726MOL0     H97982   7.605   5.338  -0.625 -0.9064 -1.7767 -3.0471
  726MOL0     H97983   7.463   5.336  -0.723  1.2831  1.8460 -0.7460
  726MOL0     H97984   7.340   5.418  -0.503  1.3537 -1.5503  2.7047
  726MOL0     H97985   7.430   5.523  -0.606 -2.8660 -0.1315  0.1649
  726MOL0     H97986   7.553   5.402  -0.357 -0.4438  1.8768  2.7361
  726MOL0     H97987   7.611   5.523  -0.451 -1.3809  0.5031 -1.9708
  726MOL0     H97988   7.523   5.608  -0.258  1.8702  0.6736 -2.5247
  726MOL0     H97989   7.352   5.564  -0.296  0.0465  1.4248  1.5699
  726MOL0     H97990   7.402   5.807  -0.336 -0.4182 -0.5487  1.4783
  726MOL0     H97991   7.363   5.713  -0.484  0.9874  1.0257 -0.8707
  726MOL0     H97992   7.716   4.790  -0.499 -1.6990  1.2761  0.4256
  726MOL0     H97993   7.900   4.659  -0.401  0.7136 -0.0905 -0.6468
  726MOL0     H97994   8.174   4.633  -0.021 -1.2126 -0.3788 -0.7176
  726MOL0     H97995   8.292   4.434   0.068  0.9495 -0.2402 -0.6073
  726MOL0     H97996   9.155   3.563   1.301  0.5560 -1.3632 -2.1362
  726MOL0     H97997   9.191   3.545   1.555 -2.2605  0.9649 -1.2421
  726MOL0     H97998   9.030   3.550   2.009  3.2167  0.1148 -0.5290
  726MOL0     H97999   9.075   3.486   2.231 -0.9559  1.4053 -1.3509
  726MOL0     H98000   9.161   3.314   2.514 -0.3724 -0.3184  0.3058
  726MOL0     H98001   9.054   3.387   2.395 -2.3074 -1.3392 -2.1559
  726MOL0     H98002   8.929   3.183   2.369  0.1536 -2.9714  0.6234
  726MOL0     H98003   8.932   3.228   2.537  1.3001 -0.7004  0.3615
  726MOL0     H98004   9.134   3.091   2.554 -0.1472 -4.5895  0.7396
  726MOL0     H98005   9.114   3.030   2.390  1.5248  0.4085 -0.3843
  726MOL0     H98006   8.921   3.015   2.628  1.7672  1.6158  0.7625
  726MOL0     H98007   9.040   2.890   2.581 -1.4307 -1.8778 -0.0997
  726MOL0     H98008   8.692   2.853   2.320 -0.5583  1.5754 -0.4089
  726MOL0     H98009   9.257   3.111   2.094  2.0978  0.7760 -1.9924
  726MOL0     H98010   9.220   3.198   1.871  0.4993  1.0588 -0.4767
  727MOL0     O98011   1.544   3.028   5.694 -1.0796  0.2408 -0.2308
  727MOL0     C98012   1.620   3.123   5.673  0.3418 -0.1002 -1.3095
  727MOL0     O98013   1.583   3.251   5.695  0.5553  0.0327  0.2447
  727MOL0     C98014   1.446   3.256   5.695  0.4068 -0.9455  0.9659
  727MOL0     C98015   1.364   3.230   5.589 -0.4920  0.4622  0.6422
  727MOL0     C98016   1.223   3.254   5.590 -0.2430  0.6656  1.3074
  727MOL0     C98017   1.162   3.310   5.701  0.7417  1.0268 -0.2660
  727MOL0     O98018   1.029   3.341   5.714 -0.4181 -0.1628  0.0582
  727MOL0     C98019   0.954   3.363   5.590 -1.0536  0.2753  0.4028
  727MOL0     C98020   0.823   3.430   5.625  0.4186 -0.6348  0.4693
  727MOL0     C98021   0.843   3.565   5.699 -0.5935 -0.3225  0.2954
  727MOL0     C98022   0.820   3.670   5.589 -1.0683 -0.2700 -0.2180
  727MOL0     C98023   0.819   3.801   5.668  0.9368 -0.8246  0.2071
  727MOL0     C98024   0.806   3.918   5.559 -0.2731 -0.4922  0.7722
  727MOL0     C98025   0.936   3.942   5.486  1.0403  0.0555 -0.4603
  727MOL0     C98026   0.953   4.071   5.402 -0.2404  0.5581 -0.2852
  727MOL0     N98027   0.871   4.057   5.285  0.0613 -0.9867 -0.5968
  727MOL0     C98028   0.743   4.108   5.283 -1.2937  0.4322  0.6111
  727MOL0     C98029   0.673   4.031   5.197  0.2846 -0.8705  0.1875
  727MOL0     C98030   0.526   4.046   5.166  0.1918 -1.5338  0.1465
  727MOL0     C98031   0.440   3.976   5.268 -0.0255 -0.5343 -0.1941
  727MOL0     C98032   0.427   4.074   5.397 -0.1375 -1.1208  0.0938
  727MOL0     C98033   0.340   4.004   5.491  0.0938 -0.1165 -0.9071
  727MOL0     O98034   0.390   3.876   5.537  0.6594  0.1728 -0.0171
  727MOL0     C98035   0.327   3.808   5.639  0.6674 -0.1373  0.2361
  727MOL0     C98036   0.408   3.727   5.716  0.5481 -0.3185  0.1038
  727MOL0     C98037   0.366   3.648   5.821  0.3268  0.0431  0.6455
  727MOL0     C98038   0.458   3.548   5.893  0.2161 -0.3432 -0.6672
  727MOL0     C98039   0.233   3.666   5.866 -0.1897  0.2399 -0.0174
  727MOL0     C98040   0.170   3.604   5.982  0.5212  0.0231 -0.8083
  727MOL0     O98041   0.032   3.601   5.981 -0.2831  0.1042  0.3545
  727MOL0     C98042  -0.035   3.518   6.069 -0.3023  0.3683  0.1548
  727MOL0     C98043  -0.027   3.527   6.209  0.6364  0.0449 -0.7769
  727MOL0     C98044  -0.114   3.465   6.306 -0.9373 -0.2695  0.5147
  727MOL0     C98045  -0.190   3.351   6.257 -0.0604 -0.3779  0.5225
  727MOL0     O98046  -0.271   3.280   6.343  0.8474 -0.2241 -0.0522
  727MOL0     C98047  -0.265   3.135   6.322 -0.3999 -0.1024  0.0194
  727MOL0     C98048  -0.214   3.057   6.442  0.6388  0.8281  0.5217
  727MOL0     C98049  -0.063   3.034   6.423  0.6658 -0.7880 -0.4194
  727MOL0     C98050  -0.024   2.905   6.351 -0.1260  0.2703 -1.6164
  727MOL0     C98051   0.129   2.858   6.370  0.6127 -1.1566  0.1773
  727MOL0     C98052   0.167   2.731   6.306  0.6041  0.2571  0.0111
  727MOL0     C98053   0.320   2.707   6.302  0.1742  1.1505 -0.1724
  727MOL0     C98054   0.352   2.552   6.303  1.0728 -0.2625  0.1847
  727MOL0    Cl98055   0.522   2.534   6.329 -0.5521  0.3056  0.2911
  727MOL0     C98056  -0.190   3.334   6.117  0.2544  1.3389  0.4794
  727MOL0     C98057  -0.121   3.415   6.029  0.0746 -0.5381  0.4197
  727MOL0     O98058   0.241   3.563   6.077 -0.1438 -0.6440  0.0655
  727MOL0     C98059   0.163   3.773   5.805  0.6352 -0.1303 -0.2302
  727MOL0     C98060   0.199   3.844   5.682 -0.3060 -0.3081  0.2095
  727MOL0     N98061   0.756   3.927   5.150 -0.8889  0.0039 -0.6052
  727MOL0     N98062   0.876   3.944   5.208  0.2009 -0.2736 -0.5340
  727MOL0     C98063   1.244   3.337   5.815  0.8538  0.3151  0.9373
  727MOL0     C98064   1.383   3.315   5.803 -0.3920  0.4216  0.7614
  727MOL0     C98065   1.759   3.088   5.637 -0.7337 -0.2370 -0.6330
  727MOL0     C98066   1.816   2.960   5.643 -0.5768  0.0334 -0.7063
  727MOL0     C98067   1.952   2.940   5.619 -1.1848 -0.6891  0.4349
  727MOL0     C98068   2.041   3.046   5.587  1.0012 -0.5101 -0.4275
  727MOL0     O98069   2.180   3.034   5.571 -0.2763 -0.2333  0.4621
  727MOL0     C98070   2.258   2.916   5.607  0.0171  0.0971 -0.1980
  727MOL0     C98071   2.285   2.920   5.758  0.8844 -1.2167 -0.3034
  727MOL0     C98072   2.350   2.795   5.818 -0.7856  0.6378  0.5481
  727MOL0     C98073   2.493   2.789   5.773  0.2677 -0.0200 -1.3957
  727MOL0     C98074   2.554   2.687   5.849  0.1988 -0.0478 -0.1519
  727MOL0     C98075   2.612   2.608   5.921 -0.0652  0.0381  0.1527
  727MOL0     C98076   1.987   3.174   5.591 -0.5408 -0.2411  0.4730
  727MOL0     C98077   1.852   3.191   5.617  0.5574  0.1744 -0.2133
  727MOL0     H98078   1.396   3.187   5.494  0.7006 -0.2792  1.3366
  727MOL0     H98079   1.167   3.223   5.503  0.2046  2.7886  0.1890
  727MOL0     H98080   1.011   3.436   5.532 -1.1711  1.0878  1.2826
  727MOL0     H98081   0.935   3.267   5.539 -3.9368 -1.2351  3.8300
  727MOL0     H98082   0.751   3.429   5.542 -2.2541  3.8067  2.3657
  727MOL0     H98083   0.782   3.362   5.699 -2.1176  1.2417  0.9134
  727MOL0     H98084   0.797   3.584   5.796  4.8628  0.3241  3.1873
  727MOL0     H98085   0.951   3.574   5.718 -0.7746  0.1196  1.1627
  727MOL0     H98086   0.910   3.662   5.527  0.2194  0.6597  1.4338
  727MOL0     H98087   0.724   3.662   5.538 -1.4047 -0.1009  0.3784
  727MOL0     H98088   0.730   3.812   5.731 -0.4660  2.9694 -2.1289
  727MOL0     H98089   0.906   3.816   5.732 -0.3935  1.3608  1.6003
  727MOL0     H98090   0.740   3.895   5.476  3.4371 -2.2978 -1.9896
  727MOL0     H98091   0.782   4.006   5.619 -0.1417 -0.2275  0.4332
  727MOL0     H98092   1.017   3.937   5.559 -0.0928 -0.3162  0.8256
  727MOL0     H98093   0.954   3.852   5.427  1.1474 -1.0452  1.2000
  727MOL0     H98094   1.058   4.072   5.371 -0.7671  0.4946 -2.2115
  727MOL0     H98095   0.933   4.160   5.461  0.6903 -0.3404  1.4627
  727MOL0     H98096   0.718   4.190   5.349  3.1272  0.9110  2.0537
  727MOL0     H98097   0.502   4.152   5.153 -0.7755 -1.7921 -0.2831
  727MOL0     H98098   0.500   4.005   5.068 -0.5132 -3.1352  0.9683
  727MOL0     H98099   0.495   3.894   5.313  2.2997  1.7459  1.4060
  727MOL0     H98100   0.340   3.946   5.235 -0.8805  0.7978  1.0447
  727MOL0     H98101   0.394   4.173   5.361 -2.9137 -2.0475 -0.1974
  727MOL0     H98102   0.526   4.099   5.436  0.0100 -0.1617 -0.8473
  727MOL0     H98103   0.250   3.968   5.440  1.0091 -1.9705 -1.3123
  727MOL0     H98104   0.309   4.064   5.577  2.5554  3.2638 -2.1800
  727MOL0     H98105   0.511   3.724   5.685  1.3036 -2.9036  2.4647
  727MOL0     H98106   0.553   3.533   5.841 -0.1724  0.9352 -1.8097
  727MOL0     H98107   0.481   3.567   5.998  0.1140 -1.3197 -0.4593
  727MOL0     H98108   0.388   3.464   5.888 -1.6639  1.0269  1.1796
  727MOL0     H98109   0.046   3.600   6.242  0.1283  0.5016 -0.6668
  727MOL0     H98110  -0.116   3.483   6.413  0.1732 -0.6069  0.6124
  727MOL0     H98111  -0.371   3.105   6.321  0.3882 -3.3807 -2.3014
  727MOL0     H98112  -0.226   3.098   6.227  0.3285  0.0151  0.2712
  727MOL0     H98113  -0.213   3.123   6.529  1.0443  1.9324 -0.2995
  727MOL0     H98114  -0.270   2.966   6.464  1.8534 -0.2269 -0.5597
  727MOL0     H98115  -0.017   3.027   6.522  1.2568  0.2141 -0.6128
  727MOL0     H98116  -0.021   3.122   6.374 -1.5899  0.3075 -0.4994
  727MOL0     H98117  -0.086   2.832   6.405  0.9898 -0.3863 -1.1844
  727MOL0     H98118  -0.049   2.901   6.245  0.9628 -0.7939 -1.8495
  727MOL0     H98119   0.149   2.848   6.477 -2.0103  0.1194  0.8627
  727MOL0     H98120   0.195   2.932   6.323  0.5815 -1.8063 -0.9245
  727MOL0     H98121   0.130   2.651   6.371  0.6272  1.4644  1.5774
  727MOL0     H98122   0.119   2.732   6.208 -0.8394  0.4676  0.7046
  727MOL0     H98123   0.373   2.753   6.386 -0.7143  0.1957  0.9407
  727MOL0     H98124   0.363   2.741   6.207 -0.5279 -0.6259 -1.1853
  727MOL0     H98125   0.331   2.498   6.210  2.9165 -0.9483  0.1142
  727MOL0     H98126   0.300   2.507   6.388  3.2160  0.1483  1.8000
  727MOL0     H98127  -0.241   3.255   6.064  1.3261  0.8240  0.1779
  727MOL0     H98128  -0.128   3.411   5.921  0.0963  0.9821  0.3408
  727MOL0     H98129   0.072   3.797   5.858  0.6616 -2.2140  0.8729
  727MOL0     H98130   0.131   3.916   5.638 -0.3346 -0.9211 -0.7757
  727MOL0     H98131   1.210   3.378   5.910  1.1080 -0.2943  1.2973
  727MOL0     H98132   1.449   3.350   5.881 -0.6945  2.8870  0.0072
  727MOL0     H98133   1.758   2.869   5.645  0.8105 -0.8673  0.4302
  727MOL0     H98134   1.980   2.835   5.626 -0.0324 -0.3311  1.7087
  727MOL0     H98135   2.204   2.825   5.578 -1.8098 -0.0263  3.0951
  727MOL0     H98136   2.349   2.923   5.546 -0.9173 -2.7935 -2.1543
  727MOL0     H98137   2.191   2.942   5.810 -0.2627 -1.1489 -2.2995
  727MOL0     H98138   2.348   3.004   5.785 -1.8162 -0.0882  3.3556
  727MOL0     H98139   2.292   2.707   5.790 -1.9079  1.3919  0.4316
  727MOL0     H98140   2.356   2.816   5.925  0.2696  1.2949  0.3789
  727MOL0     H98141   2.541   2.887   5.784 -0.6901  0.1583  2.6278
  727MOL0     H98142   2.491   2.763   5.666 -5.8699 -0.7735 -1.4329
  727MOL0     H98143   2.660   2.532   5.981  0.1712  0.1841  0.1501
  727MOL0     H98144   2.055   3.259   5.582  2.0278 -2.1305  0.7794
  727MOL0     H98145   1.817   3.291   5.641 -1.3024 -0.7247  1.0034
  728MOL0     O98146   2.971   1.941   8.407 -0.4117 -0.2806  0.3377
  728MOL0     C98147   2.926   1.898   8.514 -0.3837  0.3594  0.4649
  728MOL0     O98148   2.981   1.784   8.576 -0.3287 -0.4304 -0.4072
  728MOL0     C98149   3.077   1.694   8.536  0.1995 -0.4683  0.5242
  728MOL0     C98150   3.176   1.732   8.449 -0.0921 -0.3370 -0.2066
  728MOL0     C98151   3.270   1.643   8.412  1.6421  0.1948 -0.0587
  728MOL0     C98152   3.259   1.502   8.454 -0.6615 -0.1498 -0.4765
  728MOL0     O98153   3.348   1.416   8.398  0.0996 -1.0220 -0.4501
  728MOL0     C98154   3.422   1.329   8.490  0.5753 -0.1951 -0.1984
  728MOL0     C98155   3.510   1.230   8.414  0.0081  0.6728  0.2630
  728MOL0     C98156   3.568   1.141   8.532 -0.5013  0.4751  0.4796
  728MOL0     C98157   3.650   1.019   8.475  0.7827 -0.0041 -0.7683
  728MOL0     C98158   3.730   0.950   8.582 -0.1028 -1.2004 -0.5044
  728MOL0     C98159   3.648   0.911   8.701  0.0663  0.8765 -0.1060
  728MOL0     C98160   3.723   0.836   8.803 -0.1577  0.5376  0.4360
  728MOL0     C98161   3.828   0.907   8.881 -0.5708 -0.1178  0.2271
  728MOL0     N98162   3.779   1.024   8.950 -0.3005 -0.7184  0.5320
  728MOL0     C98163   3.849   1.140   8.954  0.2518 -0.0143  0.3474
  728MOL0     C98164   3.821   1.195   9.072 -0.7873  0.1279  0.7432
  728MOL0     C98165   3.877   1.316   9.141 -0.2922 -0.4653 -0.8298
  728MOL0     C98166   3.803   1.439   9.090  0.3872  0.0365  0.1032
  728MOL0     C98167   3.860   1.564   9.146  0.5229 -0.4879 -0.2119
  728MOL0     C98168   3.800   1.696   9.092  0.0566  1.3845  0.4117
  728MOL0     O98169   3.884   1.815   9.104 -0.9031 -0.1277 -1.0427
  728MOL0     C98170   3.842   1.928   9.028 -0.3138 -0.3003 -0.1608
  728MOL0     C98171   3.937   2.016   8.976  0.3627  0.1908 -0.0597
  728MOL0     C98172   3.903   2.127   8.895 -0.3315 -0.6570 -0.0602
  728MOL0     C98173   4.018   2.226   8.856  0.3369  0.8488 -0.6810
  728MOL0     C98174   3.768   2.144   8.852 -0.0240  0.7449 -0.6268
  728MOL0     C98175   3.727   2.249   8.760  0.3683 -0.4315 -0.9168
  728MOL0     O98176   3.602   2.244   8.727  0.8251 -0.2530 -0.0839
  728MOL0     C98177   3.555   2.341   8.646 -0.6590  0.2958  0.0223
  728MOL0     C98178   3.551   2.321   8.508  0.1226  0.2948 -0.0077
  728MOL0     C98179   3.484   2.426   8.433 -0.2680 -0.1262 -0.7339
  728MOL0     C98180   3.438   2.543   8.495 -0.2317 -1.7850 -0.1603
  728MOL0     O98181   3.378   2.639   8.412  0.5007  0.0441  0.2695
  728MOL0     C98182   3.279   2.730   8.453  0.3281 -0.0565 -0.0815
  728MOL0     C98183   3.228   2.831   8.344  0.8204  0.5522  0.1222
  728MOL0     C98184   3.353   2.895   8.280 -0.1741 -0.1826  1.0657
  728MOL0     C98185   3.334   2.989   8.163  0.6326  0.2608 -0.6687
  728MOL0     C98186   3.243   3.109   8.211 -0.2023  0.6652 -0.6198
  728MOL0     C98187   3.199   3.204   8.100 -0.0454 -0.1231 -0.7443
  728MOL0     C98188   3.136   3.335   8.157  1.0243 -0.4647  0.5390
  728MOL0     C98189   3.125   3.437   8.045  0.5263 -0.9519 -0.4473
  728MOL0    Cl98190   3.291   3.501   8.006 -0.5708 -0.3308 -0.2390
  728MOL0     C98191   3.436   2.551   8.634 -0.7937 -1.0220 -1.3127
  728MOL0     C98192   3.497   2.451   8.706  0.3986  0.0655  0.7589
  728MOL0     O98193   3.809   2.324   8.704  0.6402 -0.8612 -0.4334
  728MOL0     C98194   3.667   2.053   8.901 -0.0912 -0.6353 -0.5214
  728MOL0     C98195   3.707   1.958   8.999  0.0071  0.8899  0.2294
  728MOL0     N98196   3.723   1.119   9.132 -0.0499 -0.0861 -1.0169
  728MOL0     N98197   3.707   1.016   9.065 -0.0249 -0.2680  0.7952
  728MOL0     C98198   3.151   1.461   8.536  0.1123  0.5358  0.8894
  728MOL0     C98199   3.059   1.559   8.569 -0.1955 -0.2884  0.3259
  728MOL0     C98200   2.822   1.969   8.574 -0.4111  0.5443 -0.5796
  728MOL0     C98201   2.783   1.935   8.708 -0.1070 -0.4384  0.4712
  728MOL0     C98202   2.672   2.001   8.756  0.0574 -0.9564 -0.7977
  728MOL0     C98203   2.608   2.110   8.685 -1.4350 -0.3202 -0.6953
  728MOL0     O98204   2.503   2.166   8.755  0.8781  0.4217 -0.0409
  728MOL0     C98205   2.457   2.297   8.721  0.6166 -0.2238  0.6445
  728MOL0     C98206   2.330   2.338   8.798 -0.1034  0.0984  0.7240
  728MOL0     C98207   2.201   2.263   8.739  0.4954  0.1871 -0.7097
  728MOL0     C98208   2.072   2.296   8.827  0.5053  0.5405 -0.7938
  728MOL0     C98209   2.054   2.439   8.858 -0.7626  0.1143 -0.6675
  728MOL0     C98210   2.031   2.558   8.853 -0.8707 -0.3721 -0.7047
  728MOL0     C98211   2.663   2.149   8.563  0.4364 -0.1558  0.4097
  728MOL0     C98212   2.767   2.078   8.503 -1.0096 -1.1310 -1.1848
  728MOL0     H98213   3.177   1.838   8.427 -3.8833 -0.4174 -1.4949
  728MOL0     H98214   3.362   1.672   8.361 -0.0511  3.8006 -1.3661
  728MOL0     H98215   3.476   1.390   8.564  1.0596  1.3078 -1.7328
  728MOL0     H98216   3.351   1.271   8.549  1.3019 -0.4222  0.4636
  728MOL0     H98217   3.449   1.174   8.343 -1.0873  0.9563  0.9661
  728MOL0     H98218   3.590   1.282   8.359  1.0388  1.5344  2.4626
  728MOL0     H98219   3.632   1.211   8.586 -0.4866  0.8153  0.0259
  728MOL0     H98220   3.485   1.105   8.594 -2.5539  2.6492 -0.8393
  728MOL0     H98221   3.584   0.954   8.416 -0.0531 -1.1578  1.3252
  728MOL0     H98222   3.730   1.058   8.411  0.1346  3.6430  0.3739
  728MOL0     H98223   3.777   0.860   8.540 -0.0073 -0.0728 -2.9859
  728MOL0     H98224   3.805   1.021   8.618  1.4396 -0.2996 -4.9347
  728MOL0     H98225   3.602   1.004   8.736 -0.2675  1.1761 -1.2948
  728MOL0     H98226   3.573   0.843   8.659  3.6098 -2.6057 -1.4452
  728MOL0     H98227   3.651   0.788   8.869 -0.3691 -0.0146 -0.1861
  728MOL0     H98228   3.769   0.755   8.747 -1.9289 -0.5218  0.4555
  728MOL0     H98229   3.905   0.941   8.812  0.1464  0.4607  1.3015
  728MOL0     H98230   3.875   0.839   8.953  2.2344  2.3908  0.9231
  728MOL0     H98231   3.931   1.171   8.890 -0.1320 -0.4277 -0.3551
  728MOL0     H98232   3.868   1.296   9.249 -2.3405 -2.2377 -1.2514
  728MOL0     H98233   3.982   1.336   9.121 -0.1240 -0.9823 -0.4924
  728MOL0     H98234   3.695   1.445   9.108  0.3522  2.8407 -0.5638
  728MOL0     H98235   3.820   1.442   8.983 -0.8925  0.0168 -0.1247
  728MOL0     H98236   3.964   1.566   9.112 -1.2063 -0.1606 -6.9244
  728MOL0     H98237   3.859   1.560   9.255 -1.0621 -2.1368 -0.2419
  728MOL0     H98238   3.699   1.700   9.133 -0.1688 -1.7870  0.4300
  728MOL0     H98239   3.792   1.678   8.984 -3.5438  0.1403  0.7604
  728MOL0     H98240   4.041   1.991   8.992  0.2567  0.0253  0.3973
  728MOL0     H98241   3.987   2.331   8.860 -0.6732  0.6103 -1.7103
  728MOL0     H98242   4.104   2.212   8.921 -0.8461 -2.0704  0.4254
  728MOL0     H98243   4.051   2.204   8.754  2.9727 -1.8989  0.6186
  728MOL0     H98244   3.603   2.240   8.458 -0.7323 -1.4835  1.8152
  728MOL0     H98245   3.459   2.416   8.327 -0.3046  2.5281 -1.0341
  728MOL0     H98246   3.198   2.678   8.505  0.1258 -1.4286 -1.6982
  728MOL0     H98247   3.321   2.806   8.520 -2.5334  2.6817 -1.1135
  728MOL0     H98248   3.178   2.774   8.265 -0.4851  1.7123  0.0711
  728MOL0     H98249   3.154   2.902   8.383 -1.2814 -3.4664  4.4796
  728MOL0     H98250   3.416   2.815   8.241 -1.2843 -0.4163 -0.3312
  728MOL0     H98251   3.403   2.940   8.367 -1.9242 -0.3919  2.2374
  728MOL0     H98252   3.426   3.035   8.126  0.5759  0.7461 -0.2202
  728MOL0     H98253   3.283   2.932   8.085  1.5049 -1.0701 -0.3049
  728MOL0     H98254   3.303   3.158   8.288  0.2819 -0.2446 -0.4070
  728MOL0     H98255   3.147   3.068   8.246  1.3260 -2.1022  0.6903
  728MOL0     H98256   3.293   3.228   8.050 -0.5358  2.2487 -0.6327
  728MOL0     H98257   3.128   3.159   8.029  0.7371 -2.6517 -0.0319
  728MOL0     H98258   3.191   3.370   8.244 -0.6546 -0.1998  1.5279
  728MOL0     H98259   3.037   3.308   8.195 -0.1391  0.8432 -1.3532
  728MOL0     H98260   3.059   3.521   8.070 -0.5423 -1.4236 -1.5785
  728MOL0     H98261   3.085   3.388   7.956 -1.4510  2.1669 -1.4359
  728MOL0     H98262   3.412   2.636   8.697  5.1204  0.8678 -0.9855
  728MOL0     H98263   3.507   2.452   8.814  4.3531 -3.4555  0.7045
  728MOL0     H98264   3.564   2.062   8.870 -0.1324 -1.7267 -0.7241
  728MOL0     H98265   3.633   1.894   9.046  1.1233  0.8073  1.9615
  728MOL0     H98266   3.133   1.357   8.561 -2.9098  1.1313  1.5488
  728MOL0     H98267   2.974   1.539   8.634  0.7985  3.0801  2.9730
  728MOL0     H98268   2.832   1.851   8.757  1.0133 -1.0127 -1.5219
  728MOL0     H98269   2.640   1.979   8.857 -1.8971  1.9903 -0.6400
  728MOL0     H98270   2.541   2.361   8.750  2.3121 -2.3932  0.7957
  728MOL0     H98271   2.441   2.311   8.614  1.0950  1.9115  0.8065
  728MOL0     H98272   2.317   2.445   8.783 -2.5383 -0.1242  0.7850
  728MOL0     H98273   2.340   2.323   8.906  0.0389 -2.2224  0.4392
  728MOL0     H98274   2.198   2.155   8.723  2.2465  0.1997 -1.2742
  728MOL0     H98275   2.174   2.314   8.646  0.3047 -3.2449 -2.6924
  728MOL0     H98276   2.070   2.233   8.917  0.4423 -0.6267 -1.5994
  728MOL0     H98277   1.980   2.271   8.772  0.5689 -1.6694 -0.0181
  728MOL0     H98278   2.033   2.665   8.859  3.4788 -0.3644  2.9602
  728MOL0     H98279   2.622   2.241   8.522  0.1055 -0.7514 -0.6359
  728MOL0     H98280   2.806   2.121   8.411 -1.2615  1.2374 -0.2480
  729MOL0     O98281   7.232   0.656   7.184  0.1157 -0.0532 -0.4169
  729MOL0     C98282   7.292   0.750   7.241 -0.2868  0.4328  0.8219
  729MOL0     O98283   7.369   0.853   7.180  1.1654 -0.2572  1.0069
  729MOL0     C98284   7.396   0.822   7.052  0.3743 -0.4035 -0.6074
  729MOL0     C98285   7.306   0.862   6.956 -0.2680  0.4990  0.4797
  729MOL0     C98286   7.340   0.840   6.820  0.5317 -0.1139  0.6473
  729MOL0     C98287   7.460   0.782   6.781 -0.6104 -0.8262 -0.1752
  729MOL0     O98288   7.484   0.758   6.652 -0.3606  0.2797  0.3425
  729MOL0     C98289   7.528   0.625   6.619 -0.3208 -0.2760 -0.8745
  729MOL0     C98290   7.487   0.585   6.473 -0.3809 -0.1589  0.5331
  729MOL0     C98291   7.354   0.542   6.433 -0.2280 -0.0329 -0.5203
  729MOL0     C98292   7.262   0.664   6.409 -0.6463 -0.5822 -0.1971
  729MOL0     C98293   7.143   0.664   6.504 -0.3812  0.5422 -0.0242
  729MOL0     C98294   7.030   0.552   6.488  0.0373  0.1550  0.4186
  729MOL0     C98295   6.942   0.578   6.369 -0.1576 -0.1241 -0.8901
  729MOL0     C98296   6.821   0.497   6.395  0.1038  0.2429 -0.6022
  729MOL0     N98297   6.739   0.481   6.279 -0.2190 -0.2343 -0.0290
  729MOL0     C98298   6.648   0.565   6.229  0.1061  0.0803 -0.6728
  729MOL0     C98299   6.575   0.493   6.143  0.1841 -0.0325 -0.0355
  729MOL0     C98300   6.454   0.551   6.080  0.7139  0.0068  0.4011
  729MOL0     C98301   6.448   0.537   5.934 -0.3220 -0.2414 -0.0800
  729MOL0     C98302   6.308   0.585   5.890  0.0620  0.2429 -0.3215
  729MOL0     C98303   6.292   0.544   5.742 -0.1091  0.4932 -1.0369
  729MOL0     O98304   6.162   0.581   5.694 -0.2485  0.5272  0.6030
  729MOL0     C98305   6.151   0.591   5.555 -0.1000  0.2669  1.3553
  729MOL0     C98306   6.024   0.605   5.515 -0.3383 -0.1417 -0.1744
  729MOL0     C98307   5.997   0.589   5.378  0.2870 -0.2554 -0.2694
  729MOL0     C98308   5.854   0.558   5.341  0.3414  0.2555 -0.0866
  729MOL0     C98309   6.090   0.593   5.279 -0.1598  0.2693 -0.2570
  729MOL0     C98310   6.064   0.608   5.125  0.8582  0.5096  0.1493
  729MOL0     O98311   6.137   0.537   5.030 -0.2059 -0.1593  0.4733
  729MOL0     C98312   6.143   0.581   4.902  0.2324  0.1469 -0.3636
  729MOL0     C98313   6.205   0.700   4.868  0.5767 -0.0913 -0.8287
  729MOL0     C98314   6.187   0.758   4.740 -0.1496  0.0535 -0.2444
  729MOL0     C98315   6.102   0.702   4.645 -0.1988  0.4490  0.0914
  729MOL0     O98316   6.090   0.759   4.525 -0.2757  0.8112  0.1333
  729MOL0     C98317   5.987   0.853   4.508 -0.6829 -1.1174  0.6543
  729MOL0     C98318   6.015   0.950   4.389  0.8696  1.0381 -0.1823
  729MOL0     C98319   6.029   0.898   4.245  1.4609  0.7474  0.3256
  729MOL0     C98320   5.900   0.816   4.192  0.4874 -1.2686 -0.4852
  729MOL0     C98321   5.936   0.662   4.184 -0.0967  0.4275  0.4589
  729MOL0     C98322   5.837   0.573   4.120 -0.3575 -0.7935  0.7194
  729MOL0     C98323   5.714   0.547   4.214  0.1691 -0.6528 -0.1956
  729MOL0     C98324   5.721   0.423   4.298  0.3680 -0.5995 -0.2841
  729MOL0    Cl98325   5.786   0.279   4.190 -0.2847 -0.4261  0.0382
  729MOL0     C98326   6.052   0.578   4.672  0.1107  0.2052 -0.4977
  729MOL0     C98327   6.063   0.520   4.805 -0.8536 -0.2441  0.2081
  729MOL0     O98328   5.986   0.697   5.099 -0.4249  0.5157  0.1685
  729MOL0     C98329   6.225   0.580   5.321  0.2481 -0.0111  0.0131
  729MOL0     C98330   6.255   0.578   5.460  0.2839 -0.6732  0.5521
  729MOL0     N98331   6.621   0.364   6.133 -0.0910  0.6319  0.5993
  729MOL0     N98332   6.720   0.356   6.222 -0.0983  0.9891 -0.0070
  729MOL0     C98333   7.544   0.742   6.889  0.2297  0.4800  0.2584
  729MOL0     C98334   7.510   0.757   7.025 -0.2846  0.2696 -0.6230
  729MOL0     C98335   7.264   0.769   7.383 -0.2265 -0.4567  0.7151
  729MOL0     C98336   7.342   0.862   7.454 -0.4586 -0.8106  1.0252
  729MOL0     C98337   7.310   0.901   7.580 -0.5177  0.2259  0.3912
  729MOL0     C98338   7.209   0.830   7.651 -0.1153  0.3779  0.8816
  729MOL0     O98339   7.191   0.862   7.786 -0.1806 -0.0499  0.7110
  729MOL0     C98340   7.150   1.001   7.813 -0.1979 -0.2731  0.8334
  729MOL0     C98341   7.142   1.013   7.968  0.5533 -0.4782 -0.0949
  729MOL0     C98342   7.162   1.154   8.030 -1.8476 -1.4196 -1.1580
  729MOL0     C98343   7.307   1.198   8.054  0.2401  0.0478  0.2049
  729MOL0     C98344   7.318   1.310   8.146  0.7478 -0.5183 -0.1476
  729MOL0     C98345   7.317   1.398   8.235 -0.3947 -0.0207  0.3281
  729MOL0     C98346   7.146   0.727   7.591 -0.6615 -0.7964  0.0862
  729MOL0     C98347   7.158   0.710   7.454  0.2521  0.3040  1.0807
  729MOL0     H98348   7.211   0.910   6.977  0.2694  1.9945 -0.3443
  729MOL0     H98349   7.267   0.864   6.744 -0.8905 -1.5698  1.4739
  729MOL0     H98350   7.638   0.627   6.620 -0.3279  1.4353 -0.8291
  729MOL0     H98351   7.493   0.551   6.692  1.3117 -0.4766 -0.2265
  729MOL0     H98352   7.518   0.666   6.407 -3.2683  0.4399 -0.2238
  729MOL0     H98353   7.562   0.509   6.447  0.1879  0.5339  0.1276
  729MOL0     H98354   7.360   0.484   6.341  3.3452 -4.0090  1.8533
  729MOL0     H98355   7.321   0.470   6.509 -2.9041  2.2241  0.6978
  729MOL0     H98356   7.310   0.761   6.420 -1.1080 -0.4715  0.9389
  729MOL0     H98357   7.222   0.664   6.307 -1.5051  2.0857  0.0790
  729MOL0     H98358   7.189   0.664   6.603  1.3471  4.9635 -0.6011
  729MOL0     H98359   7.084   0.753   6.484  0.6162  0.9348 -1.3755
  729MOL0     H98360   7.073   0.452   6.481 -1.9117 -0.7921  1.1078
  729MOL0     H98361   6.970   0.560   6.580 -0.4799 -0.3478  0.1285
  729MOL0     H98362   6.911   0.683   6.367  1.5960  0.4638 -0.2005
  729MOL0     H98363   7.000   0.559   6.279  3.8451  0.6559  1.2613
  729MOL0     H98364   6.763   0.549   6.471  1.4344  1.2111 -0.2203
  729MOL0     H98365   6.846   0.396   6.430 -0.6854  1.6794  5.0409
  729MOL0     H98366   6.636   0.669   6.258  0.7731 -0.3337  1.2117
  729MOL0     H98367   6.369   0.488   6.109  1.2277 -2.0298 -2.1662
  729MOL0     H98368   6.446   0.655   6.115  3.5446  1.4656 -2.7326
  729MOL0     H98369   6.467   0.430   5.917 -0.4978 -0.4148  0.7788
  729MOL0     H98370   6.523   0.596   5.880 -0.5061 -0.3206 -0.4224
  729MOL0     H98371   6.301   0.693   5.906  0.8215  0.4187 -1.1195
  729MOL0     H98372   6.230   0.529   5.943  1.0433 -0.1204  0.7662
  729MOL0     H98373   6.291   0.436   5.724 -2.4964  0.8235 -3.4406
  729MOL0     H98374   6.380   0.569   5.682  0.6187 -0.8397 -0.5648
  729MOL0     H98375   5.943   0.606   5.588 -0.5276  0.7145 -0.3871
  729MOL0     H98376   5.850   0.465   5.285  1.2077  2.6942 -4.7255
  729MOL0     H98377   5.787   0.558   5.427 -1.2558  3.4655 -1.1555
  729MOL0     H98378   5.816   0.631   5.269 -0.8832 -0.8727 -0.6299
  729MOL0     H98379   6.273   0.748   4.937  1.4309 -1.3320 -0.7788
  729MOL0     H98380   6.232   0.851   4.707  1.4075 -0.4100  0.4433
  729MOL0     H98381   5.897   0.795   4.487 -1.1463  0.8726 -4.1099
  729MOL0     H98382   5.975   0.915   4.598 -1.0874 -0.2089 -0.0063
  729MOL0     H98383   5.935   1.025   4.398 -0.8103 -0.2975 -2.8150
  729MOL0     H98384   6.099   1.008   4.429  0.7009  0.2653  1.4108
  729MOL0     H98385   6.125   0.850   4.221 -0.2277 -1.7618 -2.0454
  729MOL0     H98386   6.028   0.987   4.181  5.3181  0.4387 -0.4221
  729MOL0     H98387   5.815   0.828   4.259 -0.3088 -2.2186 -1.3076
  729MOL0     H98388   5.862   0.850   4.096 -2.1490 -2.1359  0.1658
  729MOL0     H98389   5.961   0.628   4.285  0.4549 -2.0798 -0.4387
  729MOL0     H98390   6.031   0.647   4.132 -0.2106 -1.7082  0.7759
  729MOL0     H98391   5.796   0.628   4.035 -1.1080 -2.9285 -0.3892
  729MOL0     H98392   5.885   0.479   4.091 -1.0475 -0.8814 -0.1824
  729MOL0     H98393   5.627   0.536   4.149 -1.4832 -0.8120  1.9532
  729MOL0     H98394   5.691   0.633   4.277 -0.2575 -2.0997  1.7177
  729MOL0     H98395   5.626   0.397   4.347  1.2740 -1.4085  1.1119
  729MOL0     H98396   5.793   0.445   4.377  0.4120 -0.5754 -0.3314
  729MOL0     H98397   5.998   0.527   4.593 -0.9690 -0.0173  0.3580
  729MOL0     H98398   6.026   0.420   4.827  1.8185 -1.2637  0.4158
  729MOL0     H98399   6.306   0.570   5.250  0.6224  0.8812  0.3038
  729MOL0     H98400   6.360   0.566   5.486  0.9410 -1.7907 -2.2551
  729MOL0     H98401   7.643   0.711   6.857  0.2729  2.1165 -1.3274
  729MOL0     H98402   7.567   0.715   7.107 -3.1823 -4.2230 -0.5525
  729MOL0     H98403   7.424   0.909   7.401  0.4233 -2.3689  0.9489
  729MOL0     H98404   7.367   0.976   7.633  2.3394 -2.8718  2.1298
  729MOL0     H98405   7.231   1.058   7.768 -1.6766  1.3359  0.1018
  729MOL0     H98406   7.060   1.015   7.753  1.0787  2.4080 -0.5896
  729MOL0     H98407   7.215   0.946   8.015  1.1496  1.2381  1.6214
  729MOL0     H98408   7.043   0.976   7.996  0.2273 -0.3853 -1.0898
  729MOL0     H98409   7.106   1.163   8.124 -2.3943  3.5667 -1.7017
  729MOL0     H98410   7.116   1.231   7.967 -0.5525  0.8672  0.5297
  729MOL0     H98411   7.342   1.220   7.952  1.9958  1.8130  1.1180
  729MOL0     H98412   7.369   1.113   8.085  2.3859  1.8658  1.2004
  729MOL0     H98413   7.313   1.485   8.298  0.5463 -1.0023  1.7760
  729MOL0     H98414   7.069   0.662   7.631 -0.6786 -1.5133 -1.0767
  729MOL0     H98415   7.097   0.636   7.402  2.3936 -1.2401  0.6457
  730MOL0     O98416   0.784   5.955  10.581  0.9013 -0.4872 -0.5373
  730MOL0     C98417   0.835   5.849  10.620  0.6705 -0.2914 -0.0287
  730MOL0     O98418   0.756   5.742  10.680 -0.5479  0.1027  0.5452
  730MOL0     C98419   0.628   5.766  10.730  0.1641  0.1064 -1.2197
  730MOL0     C98420   0.545   5.655  10.733  0.9339 -0.3581 -0.0408
  730MOL0     C98421   0.436   5.641  10.817 -0.1716  0.3675  0.9210
  730MOL0     C98422   0.377   5.745  10.879  0.2344 -0.9202 -0.3119
  730MOL0     O98423   0.261   5.723  10.948 -0.3514 -0.4754 -0.3890
  730MOL0     C98424   0.240   5.606  11.014  0.7652  0.0983  0.3301
  730MOL0     C98425   0.101   5.586  11.091  0.8754 -0.6060 -0.0910
  730MOL0     C98426   0.088   5.644  11.228 -0.9945  1.1010  0.0165
  730MOL0     C98427   0.083   5.790  11.232 -0.2424 -0.1845  0.0712
  730MOL0     C98428  -0.050   5.852  11.187 -0.2300  0.4644  0.3309
  730MOL0     C98429  -0.027   5.959  11.080  0.6348  0.9519  0.1073
  730MOL0     C98430  -0.155   6.040  11.053  0.9023 -0.3839  0.2911
  730MOL0     C98431  -0.154   6.116  10.914 -0.1013 -1.4812 -0.3997
  730MOL0     N98432  -0.285   6.154  10.852 -0.1814  0.4400  0.4514
  730MOL0     C98433  -0.375   6.231  10.914  0.1421  0.1111  0.4185
  730MOL0     C98434  -0.477   6.252  10.824  0.4430 -0.8049  0.7417
  730MOL0     C98435  -0.598   6.339  10.836 -0.4055 -0.1776 -0.2855
  730MOL0     C98436  -0.720   6.267  10.879  0.0002 -0.7475 -0.5940
  730MOL0     C98437  -0.823   6.363  10.935 -0.4034 -0.4084 -0.2664
  730MOL0     C98438  -0.941   6.294  11.009  1.4731 -0.2396 -0.5747
  730MOL0     O98439  -1.019   6.233  10.903  0.0579 -0.3346 -0.5182
  730MOL0     C98440  -1.143   6.289  10.890  0.1532  1.0793 -0.4317
  730MOL0     C98441  -1.258   6.256  10.967  0.1047 -0.9263  0.2402
  730MOL0     C98442  -1.372   6.328  10.947 -0.6625 -1.4353  0.0943
  730MOL0     C98443  -1.481   6.292  11.039 -0.6935  0.5572 -0.0367
  730MOL0     C98444  -1.386   6.426  10.845  0.1610 -0.1271 -0.5722
  730MOL0     C98445  -1.517   6.496  10.819 -0.3282 -0.1413  0.4856
  730MOL0     O98446  -1.528   6.521  10.685 -0.6251  0.1280  0.1613
  730MOL0     C98447  -1.629   6.600  10.641 -0.6910  0.7314 -0.1109
  730MOL0     C98448  -1.654   6.594  10.505  0.4246 -0.5102  0.2849
  730MOL0     C98449  -1.736   6.696  10.435 -0.0858  0.5890  0.8332
  730MOL0     C98450  -1.783   6.803  10.511  0.5832 -0.2334  0.5130
  730MOL0     O98451  -1.854   6.891  10.432  0.7371 -0.1675  0.1214
  730MOL0     C98452  -1.831   7.020  10.477  0.4086 -0.2972 -0.1621
  730MOL0     C98453  -1.860   7.117  10.365  0.5611 -0.2798  0.4992
  730MOL0     C98454  -1.878   7.258  10.433 -0.3518 -0.1658  0.3618
  730MOL0     C98455  -1.912   7.355  10.321 -0.0684 -0.3392 -0.2668
  730MOL0     C98456  -1.880   7.495  10.376  0.0005  0.1194 -0.4136
  730MOL0     C98457  -1.961   7.585  10.293  0.2635 -1.2552 -0.4036
  730MOL0     C98458  -1.973   7.733  10.351 -0.6855  0.0130  0.3524
  730MOL0     C98459  -2.095   7.820  10.301  0.2349  0.0794 -0.3014
  730MOL0    Cl98460  -2.092   7.828  10.120  0.6798 -0.5767 -0.0441
  730MOL0     C98461  -1.770   6.808  10.647 -0.1807  0.8400 -0.1148
  730MOL0     C98462  -1.684   6.717  10.716  0.9008 -0.1930 -0.2661
  730MOL0     O98463  -1.603   6.512  10.913 -0.0512  0.2600 -0.0694
  730MOL0     C98464  -1.271   6.459  10.760  0.1339  0.5896 -0.9120
  730MOL0     C98465  -1.151   6.398  10.793  0.5465  0.7599  0.0322
  730MOL0     N98466  -0.440   6.179  10.706 -0.2735  0.2688 -0.1957
  730MOL0     N98467  -0.323   6.122  10.729 -0.2016 -0.1040 -0.3110
  730MOL0     C98468   0.454   5.863  10.869 -1.6282  1.8430 -0.1508
  730MOL0     C98469   0.581   5.884  10.801  0.8764  0.8377  0.0438
  730MOL0     C98470   0.984   5.832  10.600 -0.0493 -1.2498 -0.4947
  730MOL0     C98471   1.054   5.928  10.523 -0.7590  0.3307 -0.0229
  730MOL0     C98472   1.188   5.916  10.520  0.0346  0.3300 -0.6714
  730MOL0     C98473   1.260   5.809  10.571  0.4693 -0.7699  0.1128
  730MOL0     O98474   1.384   5.805  10.538  0.0907  0.4759 -0.1560
  730MOL0     C98475   1.471   5.886  10.619 -0.7721 -1.0087 -0.2585
  730MOL0     C98476   1.599   5.904  10.534  0.7208 -0.6130 -0.0469
  730MOL0     C98477   1.697   5.783  10.543 -1.0753 -0.5876 -0.7194
  730MOL0     C98478   1.822   5.808  10.456 -0.2091 -0.6622  0.2512
  730MOL0     C98479   1.796   5.816  10.309 -0.4212  0.1167 -0.0353
  730MOL0     C98480   1.771   5.831  10.198  0.1270 -0.3976  0.0407
  730MOL0     C98481   1.194   5.708  10.640  0.0633 -0.9766  0.3301
  730MOL0     C98482   1.054   5.728  10.661  0.3557  0.2622  0.7025
  730MOL0     H98483   0.579   5.561  10.691  0.2196  0.7811 -3.4925
  730MOL0     H98484   0.384   5.546  10.820 -2.9862  1.8131  2.3364
  730MOL0     H98485   0.243   5.515  10.953 -0.2956  0.4214 -0.2143
  730MOL0     H98486   0.329   5.582  11.074  1.3176  2.0379  0.3473
  730MOL0     H98487   0.024   5.620  11.022  1.2413  0.0036 -0.2026
  730MOL0     H98488   0.092   5.484  11.130  0.4623  1.0226  4.7750
  730MOL0     H98489   0.004   5.588  11.270 -0.2568  0.0468  0.1559
  730MOL0     H98490   0.177   5.613  11.285 -0.6113  1.3500 -0.4436
  730MOL0     H98491   0.117   5.822  11.331 -2.6503  0.9064  0.6292
  730MOL0     H98492   0.164   5.824  11.166 -1.3189 -0.5521 -1.4989
  730MOL0     H98493  -0.112   5.769  11.151 -3.7580  3.1975 -0.5052
  730MOL0     H98494  -0.106   5.886  11.275  0.0971 -3.0354  2.0519
  730MOL0     H98495   0.054   6.024  11.112  1.4133 -0.4105  0.9821
  730MOL0     H98496   0.003   5.915  10.984 -0.7096 -2.4007  1.0834
  730MOL0     H98497  -0.240   5.971  11.043  1.1661 -0.4990 -1.3573
  730MOL0     H98498  -0.185   6.113  11.129 -1.2522 -1.0009  0.1073
  730MOL0     H98499  -0.110   6.048  10.841  0.9661  0.8958 -2.1154
  730MOL0     H98500  -0.088   6.203  10.916  0.6987 -2.0408  2.3547
  730MOL0     H98501  -0.377   6.263  11.018 -3.2762 -1.0814  0.8591
  730MOL0     H98502  -0.557   6.403  10.915 -1.2045 -0.1052  0.0831
  730MOL0     H98503  -0.607   6.392  10.741  0.0258 -0.4855 -0.5005
  730MOL0     H98504  -0.687   6.198  10.958 -1.7746  0.4762  1.3369
  730MOL0     H98505  -0.770   6.205  10.804 -2.9198 -2.2881  2.3387
  730MOL0     H98506  -0.862   6.429  10.858 -1.6385  1.4004  1.7908
  730MOL0     H98507  -0.780   6.437  11.003 -2.2768  0.4952 -0.0138
  730MOL0     H98508  -0.991   6.367  11.073  3.3975  0.0779  0.6455
  730MOL0     H98509  -0.902   6.211  11.068  0.0718  0.1782  0.9877
  730MOL0     H98510  -1.237   6.204  11.060  4.0134 -1.4846 -0.7638
  730MOL0     H98511  -1.452   6.211  11.106  2.1919  1.3582 -0.1722
  730MOL0     H98512  -1.508   6.378  11.100 -3.2866 -2.0019  2.7665
  730MOL0     H98513  -1.567   6.254  10.985  0.1279 -0.5236 -0.6361
  730MOL0     H98514  -1.610   6.508  10.456 -2.7943 -0.5890 -2.8344
  730MOL0     H98515  -1.769   6.684  10.332  3.5013 -0.4876 -0.3455
  730MOL0     H98516  -1.897   7.033  10.563  3.4690 -0.6401  2.4275
  730MOL0     H98517  -1.731   7.044  10.514 -0.8663  1.4549  2.5123
  730MOL0     H98518  -1.793   7.099  10.281  0.2274 -0.7643  0.3344
  730MOL0     H98519  -1.961   7.092  10.330  0.8205  0.8789 -1.2045
  730MOL0     H98520  -1.775   7.280  10.465 -0.3233 -0.2328  0.3170
  730MOL0     H98521  -1.941   7.252  10.522  2.1911  3.0449  2.6249
  730MOL0     H98522  -1.851   7.341  10.232 -0.7815  4.4494 -1.8157
  730MOL0     H98523  -2.012   7.326  10.288 -0.0631 -2.8584  1.6317
  730MOL0     H98524  -1.775   7.521  10.356  0.3151 -0.6034  0.2409
  730MOL0     H98525  -1.879   7.505  10.485  2.2402  1.6496 -0.5061
  730MOL0     H98526  -1.909   7.583  10.197 -0.4606 -0.4598 -0.8281
  730MOL0     H98527  -2.066   7.556  10.278  0.0457 -3.0868  3.5695
  730MOL0     H98528  -1.879   7.783  10.327 -0.9107  1.4844  2.2736
  730MOL0     H98529  -1.979   7.730  10.460  3.8499  0.3761  0.8155
  730MOL0     H98530  -2.087   7.915  10.354 -1.6809  0.1470 -0.0855
  730MOL0     H98531  -2.187   7.771  10.334  0.2250 -0.0646 -0.5397
  730MOL0     H98532  -1.822   6.878  10.713  0.8695 -0.6225  2.4205
  730MOL0     H98533  -1.659   6.738  10.820  3.3009  0.9482 -0.9909
  730MOL0     H98534  -1.267   6.535  10.683  2.9077  1.0592 -0.4242
  730MOL0     H98535  -1.063   6.433  10.741  1.9681 -0.6818  1.3893
  730MOL0     H98536   0.412   5.950  10.919  0.5493  1.6610  2.1902
  730MOL0     H98537   0.631   5.980  10.796  0.0494  1.4003  1.7512
  730MOL0     H98538   0.997   6.003  10.469  0.5865  3.3229  2.4354
  730MOL0     H98539   1.241   5.991  10.462 -1.5414  0.7951 -1.5590
  730MOL0     H98540   1.424   5.982  10.647 -0.4260 -0.9734  0.2186
  730MOL0     H98541   1.499   5.841  10.715 -1.3574  0.2139  0.5292
  730MOL0     H98542   1.649   5.991  10.577  0.4005 -0.5689  0.2461
  730MOL0     H98543   1.572   5.937  10.433  2.5782  1.6438  0.1218
  730MOL0     H98544   1.654   5.685  10.522  1.6132 -1.8726 -0.7252
  730MOL0     H98545   1.722   5.787  10.649 -1.8233 -2.0946 -0.4685
  730MOL0     H98546   1.887   5.722  10.477  0.8759  0.0362 -0.2065
  730MOL0     H98547   1.864   5.901  10.494 -2.0400  1.9039 -3.4670
  730MOL0     H98548   1.741   5.822  10.096 -2.4388 -1.8480  0.8245
  730MOL0     H98549   1.259   5.625  10.669  4.3271  2.2610  1.0961
  730MOL0     H98550   1.005   5.651  10.718  0.7510 -2.3083 -2.1844
  731MOL0     O98551   8.901   9.408  11.331  0.7573  0.8891 -0.3370
  731MOL0     C98552   8.797   9.448  11.371 -0.4117 -0.2712 -0.5440
  731MOL0     O98553   8.778   9.573  11.430  0.1724  0.2924 -0.0452
  731MOL0     C98554   8.885   9.651  11.475  0.3856  0.0824  0.6581
  731MOL0     C98555   9.022   9.615  11.507  1.0323 -0.2656 -0.3415
  731MOL0     C98556   9.120   9.709  11.519 -0.6502 -1.1469  0.6331
  731MOL0     C98557   9.087   9.850  11.527  0.0210  0.2183 -0.1331
  731MOL0     O98558   9.195   9.924  11.525  0.3450  0.1057 -0.1678
  731MOL0     C98559   9.178  10.061  11.480 -0.4346 -0.2082  0.4035
  731MOL0     C98560   9.151  10.068  11.321 -0.0730 -0.0704 -1.2535
  731MOL0     C98561   9.159  10.217  11.273  0.1457 -0.1129 -0.3559
  731MOL0     C98562   9.128  10.230  11.125  0.2421 -0.8576 -0.5608
  731MOL0     C98563   9.130  10.385  11.107  0.2742 -0.7067  0.6355
  731MOL0     C98564   9.065  10.424  10.979  1.6011 -0.0282  0.0535
  731MOL0     C98565   9.076  10.577  10.944  0.1838  0.3459 -0.2352
  731MOL0     C98566   9.015  10.609  10.807 -0.3912 -0.6530 -0.5673
  731MOL0     N98567   9.038  10.751  10.774 -0.4799  0.7041 -0.3074
  731MOL0     C98568   8.940  10.843  10.753 -0.1259 -0.4559 -1.5981
  731MOL0     C98569   9.001  10.959  10.711  0.2937  0.3595 -0.2478
  731MOL0     C98570   8.922  11.092  10.688  0.7441  0.4943 -0.0337
  731MOL0     C98571   8.822  11.073  10.581 -0.5368 -0.1029  0.7019
  731MOL0     C98572   8.757  11.203  10.544  1.1603 -0.5310 -0.2924
  731MOL0     C98573   8.631  11.235  10.622  0.0944  0.5394 -0.7907
  731MOL0     O98574   8.604  11.368  10.594  0.3617  0.3387 -0.3424
  731MOL0     C98575   8.505  11.441  10.669  0.1028  0.4954  0.9833
  731MOL0     C98576   8.403  11.392  10.753  0.3200  0.0952 -0.2211
  731MOL0     C98577   8.313  11.475  10.822  0.2450 -0.6941 -0.3951
  731MOL0     C98578   8.213  11.419  10.922  0.5680  0.4242  0.8623
  731MOL0     C98579   8.332  11.621  10.811  0.6900  0.9494 -0.2440
  731MOL0     C98580   8.244  11.720  10.885 -0.0026 -0.6450 -0.6349
  731MOL0     O98581   8.120  11.686  10.931  0.1640  0.3439 -0.2755
  731MOL0     C98582   8.044  11.775  10.996  0.1310 -1.2095  0.0531
  731MOL0     C98583   8.012  11.895  10.942  1.4022 -0.5024 -0.8088
  731MOL0     C98584   7.921  11.972  11.021  0.6695 -0.4308  0.0238
  731MOL0     C98585   7.854  11.925  11.135  0.6296 -0.4744  0.2738
  731MOL0     O98586   7.780  12.012  11.206 -0.3844  0.1799 -0.4740
  731MOL0     C98587   7.830  12.036  11.338 -1.0151 -0.8758  0.3945
  731MOL0     C98588   7.757  12.159  11.381 -0.5341  0.9695 -0.2975
  731MOL0     C98589   7.799  12.220  11.513 -0.4682  0.3338  0.0888
  731MOL0     C98590   7.773  12.370  11.522  0.2391 -0.5664  0.9393
  731MOL0     C98591   7.812  12.442  11.648 -0.9157  0.6746  0.1848
  731MOL0     C98592   7.778  12.596  11.635 -0.7405 -0.0602 -0.5438
  731MOL0     C98593   7.874  12.672  11.547 -0.2349  0.5275 -0.2873
  731MOL0     C98594   7.873  12.822  11.583  0.2367 -0.6229  0.4072
  731MOL0    Cl98595   7.727  12.909  11.528  0.4736  0.3489  0.1339
  731MOL0     C98596   7.889  11.799  11.178  0.6852  0.8031 -0.4480
  731MOL0     C98597   7.987  11.729  11.117 -0.9256 -0.3808 -0.1609
  731MOL0     O98598   8.286  11.837  10.892 -0.2397  0.5802  0.3798
  731MOL0     C98599   8.428  11.670  10.727 -0.2676  0.1610 -0.2636
  731MOL0     C98600   8.512  11.581  10.657  0.6583  0.5625 -0.3342
  731MOL0     N98601   9.139  10.934  10.707 -0.4676  0.6511 -0.1442
  731MOL0     N98602   9.155  10.806  10.742  0.2801 -0.2885  0.3039
  731MOL0     C98603   8.957   9.880  11.515  0.2159 -0.4407  0.2944
  731MOL0     C98604   8.851   9.785  11.484 -0.7208  0.6268  0.1879
  731MOL0     C98605   8.688   9.370  11.345 -0.8527 -0.3041 -0.7079
  731MOL0     C98606   8.708   9.244  11.284  0.5347  0.2123 -0.6775
  731MOL0     C98607   8.604   9.155  11.268  0.0130  0.6042 -0.8329
  731MOL0     C98608   8.470   9.190  11.300 -0.7326  1.1906 -0.5097
  731MOL0     O98609   8.364   9.107  11.278  0.2049  0.1900  1.3497
  731MOL0     C98610   8.381   8.996  11.192  0.2588  0.4133 -0.7807
  731MOL0     C98611   8.292   8.891  11.258  0.3457  0.0669 -0.1561
  731MOL0     C98612   8.294   8.768  11.177 -0.6947 -0.3149  0.4630
  731MOL0     C98613   8.219   8.662  11.249  0.7074 -0.2008 -0.1878
  731MOL0     C98614   8.299   8.597  11.353 -0.1339 -0.0710  0.1030
  731MOL0     C98615   8.380   8.558  11.429  0.3553 -0.0296 -0.3275
  731MOL0     C98616   8.448   9.313  11.349 -0.6820 -1.0613  0.1315
  731MOL0     C98617   8.553   9.399  11.375 -0.2576 -0.0545 -0.2503
  731MOL0     H98618   9.027   9.507  11.514 -3.0909 -0.6396 -0.7441
  731MOL0     H98619   9.221   9.668  11.518 -1.1214 -2.5893 -2.7650
  731MOL0     H98620   9.101  10.120  11.531 -1.4388 -1.1220 -0.0012
  731MOL0     H98621   9.263  10.114  11.523 -1.2360 -0.9340  3.0398
  731MOL0     H98622   9.225  10.006  11.269  0.4002  0.0483 -0.7367
  731MOL0     H98623   9.050  10.035  11.296 -0.1556  0.8239 -2.1515
  731MOL0     H98624   9.091  10.277  11.334  0.6352 -0.3203  0.4155
  731MOL0     H98625   9.256  10.257  11.303 -0.5733  1.0411  0.5101
  731MOL0     H98626   9.198  10.172  11.065  2.5304  2.1821 -1.0891
  731MOL0     H98627   9.026  10.193  11.116 -0.7201  1.6657 -0.6930
  731MOL0     H98628   9.068  10.428  11.187  1.0797  0.2627  0.7585
  731MOL0     H98629   9.233  10.419  11.100 -0.0790  0.0846 -1.3902
  731MOL0     H98630   9.115  10.364  10.901  0.8524 -1.5954  0.7390
  731MOL0     H98631   8.962  10.393  10.963  2.5066 -1.9768 -3.0288
  731MOL0     H98632   9.015  10.634  11.014  0.9405  1.1096 -0.1788
  731MOL0     H98633   9.181  10.602  10.961  0.2155 -1.4540  2.9433
  731MOL0     H98634   8.907  10.590  10.814 -0.5154  0.1420 -0.0912
  731MOL0     H98635   9.061  10.551  10.727  0.9407  1.8425 -1.7432
  731MOL0     H98636   8.833  10.830  10.767  0.5255 -2.4660  5.9418
  731MOL0     H98637   8.866  11.117  10.779  0.6532 -0.2637  0.1186
  731MOL0     H98638   8.996  11.163  10.651 -0.2037 -0.3473 -4.0325
  731MOL0     H98639   8.753  10.996  10.616 -0.9060 -0.8987 -1.6164
  731MOL0     H98640   8.865  11.039  10.486 -0.2131 -1.4163  1.3006
  731MOL0     H98641   8.725  11.200  10.440  0.0532  2.7415 -0.1752
  731MOL0     H98642   8.833  11.282  10.543 -0.0563  0.6729 -0.6459
  731MOL0     H98643   8.646  11.207  10.727  1.3259  0.4518 -0.9646
  731MOL0     H98644   8.548  11.175  10.585  1.2157  0.2083 -2.8831
  731MOL0     H98645   8.405  11.283  10.759  1.3452  0.0843 -0.6242
  731MOL0     H98646   8.117  11.426  10.871  0.6029  0.9911  0.8598
  731MOL0     H98647   8.223  11.313  10.946 -1.0080  0.8076  3.6711
  731MOL0     H98648   8.207  11.469  11.020 -1.5572 -1.5679  1.8525
  731MOL0     H98649   8.045  11.940  10.850  0.6890  1.8811  0.0298
  731MOL0     H98650   7.887  12.065  10.976  2.1419 -1.1305 -2.7719
  731MOL0     H98651   7.796  11.955  11.403 -2.3186  0.8629  1.9894
  731MOL0     H98652   7.936  12.051  11.357 -1.6656  2.3214  2.1621
  731MOL0     H98653   7.762  12.241  11.308 -2.3464  3.4636  2.1536
  731MOL0     H98654   7.654  12.124  11.371 -0.2630  0.6493 -2.7039
  731MOL0     H98655   7.902  12.200  11.543 -1.3176 -1.2685  2.2358
  731MOL0     H98656   7.735  12.175  11.590 -2.5437  1.3909 -0.9296
  731MOL0     H98657   7.827  12.414  11.438  1.4633 -3.4638  0.0572
  731MOL0     H98658   7.664  12.371  11.509  0.5347  1.9389 -3.0344
  731MOL0     H98659   7.920  12.435  11.662 -0.4340 -0.4758 -3.3357
  731MOL0     H98660   7.759  12.398  11.734  1.7176 -3.4004 -0.0437
  731MOL0     H98661   7.677  12.609  11.596  0.1172 -2.4645 -4.0185
  731MOL0     H98662   7.792  12.641  11.734  2.3054  1.5050 -1.5563
  731MOL0     H98663   7.838  12.658  11.444 -5.4663 -4.9272  1.7190
  731MOL0     H98664   7.969  12.618  11.551 -0.0090  0.9175 -0.3247
  731MOL0     H98665   7.960  12.876  11.545  0.7307 -1.0385  0.9377
  731MOL0     H98666   7.877  12.824  11.693  1.1992  4.7254  0.5561
  731MOL0     H98667   7.842  11.774  11.272 -0.1624  1.4156 -0.6902
  731MOL0     H98668   8.033  11.643  11.163 -1.0557  0.1125  0.9204
  731MOL0     H98669   8.459  11.773  10.715 -1.6117  0.5252 -0.7687
  731MOL0     H98670   8.589  11.616  10.588  1.2685 -1.0344 -0.5021
  731MOL0     H98671   8.922   9.982  11.507 -0.9940 -1.0027 -4.6769
  731MOL0     H98672   8.746   9.811  11.472 -0.2707  2.0336 -0.8839
  731MOL0     H98673   8.801   9.189  11.278 -0.2115 -0.9456 -2.8245
  731MOL0     H98674   8.635   9.054  11.246 -2.4589 -0.7350  1.2651
  731MOL0     H98675   8.348   9.025  11.092 -1.1741 -1.8163 -1.0246
  731MOL0     H98676   8.480   8.948  11.188 -0.8359 -2.1569  0.4900
  731MOL0     H98677   8.189   8.927  11.255  0.8570  1.6245 -3.4792
  731MOL0     H98678   8.320   8.874  11.362  0.1763 -2.2812 -0.4218
  731MOL0     H98679   8.399   8.739  11.165 -1.3258 -1.7712 -2.1812
  731MOL0     H98680   8.247   8.794  11.082  2.8993 -1.1118 -1.7487
  731MOL0     H98681   8.162   8.593  11.186 -2.3193  0.7002  1.3337
  731MOL0     H98682   8.142   8.717  11.304  1.0889  0.0711  0.0812
  731MOL0     H98683   8.454   8.537  11.503 -1.9891 -2.8130  1.4658
  731MOL0     H98684   8.344   9.344  11.357 -0.5035  0.0014 -1.3387
  731MOL0     H98685   8.521   9.493  11.419  0.4633  2.2681 -4.2678
  732MOL0     O98686  11.176   0.439   0.625  0.6426 -0.6117 -0.2861
  732MOL0     C98687  11.205   0.328   0.659 -0.4019  0.7159  0.0141
  732MOL0     O98688  11.262   0.229   0.578  0.2082 -0.6940  0.2376
  732MOL0     C98689  11.299   0.265   0.451 -0.5573 -0.0288 -0.5211
  732MOL0     C98690  11.219   0.219   0.351  0.0504  0.3576  0.6735
  732MOL0     C98691  11.259   0.244   0.221  0.4955  0.3988 -0.2744
  732MOL0     C98692  11.374   0.326   0.194 -0.0128 -0.1267 -0.4169
  732MOL0     O98693  11.412   0.376   0.073 -0.4172  0.4330 -0.2903
  732MOL0     C98694  11.342   0.324  -0.037  0.4203 -0.6040  0.6366
  732MOL0     C98695  11.411   0.374  -0.162  1.0587 -0.5036  0.0349
  732MOL0     C98696  11.315   0.371  -0.273  0.4157  0.0840 -0.1027
  732MOL0     C98697  11.231   0.506  -0.282  0.0659 -1.2638 -0.2237
  732MOL0     C98698  11.300   0.611  -0.371 -0.2785  0.4780  0.5468
  732MOL0     C98699  11.216   0.732  -0.407  0.1757 -0.8596  0.4950
  732MOL0     C98700  11.289   0.817  -0.516 -0.2504 -0.0695  0.2083
  732MOL0     C98701  11.186   0.862  -0.628 -0.3585 -0.1795 -0.7530
  732MOL0     N98702  11.249   0.953  -0.718 -0.2116  0.7065  0.5751
  732MOL0     C98703  11.238   0.933  -0.856 -0.5546 -0.5865  0.2488
  732MOL0     C98704  11.307   1.038  -0.904  0.1603  0.2158 -0.2036
  732MOL0     C98705  11.318   1.071  -1.056 -0.2539  0.2510  0.2559
  732MOL0     C98706  11.472   1.061  -1.105  0.6674 -0.5708 -0.2165
  732MOL0     C98707  11.541   0.929  -1.075  0.0909  0.1301 -0.1530
  732MOL0     C98708  11.690   0.923  -1.115  0.0148 -0.5067  0.1317
  732MOL0     O98709  11.787   0.851  -1.037 -0.4832  0.1198  0.2463
  732MOL0     C98710  11.814   0.721  -1.056 -0.0728 -0.2387  0.4092
  732MOL0     C98711  11.932   0.664  -1.003 -0.4680  0.1232  0.0792
  732MOL0     C98712  11.953   0.529  -0.997 -0.5395  0.1858  0.6130
  732MOL0     C98713  12.071   0.487  -0.909 -0.2140 -0.0808  0.1434
  732MOL0     C98714  11.860   0.441  -1.059 -0.2784 -0.6834 -0.0609
  732MOL0     C98715  11.857   0.292  -1.041  0.5495 -0.7228 -0.4843
  732MOL0     O98716  11.749   0.221  -1.063 -0.2736  0.2380  0.2174
  732MOL0     C98717  11.754   0.082  -1.077  0.0653 -0.4558 -0.5345
  732MOL0     C98718  11.822  -0.004  -0.982 -0.0753  0.1083  0.0243
  732MOL0     C98719  11.788  -0.139  -0.982  0.6797  0.0242  0.2958
  732MOL0     C98720  11.699  -0.196  -1.071  0.2759 -0.1379  0.9287
  732MOL0     O98721  11.672  -0.332  -1.055 -0.4333  0.5994  0.1357
  732MOL0     C98722  11.573  -0.400  -1.132  0.0409 -0.1931  0.5220
  732MOL0     C98723  11.555  -0.548  -1.093  0.6323  0.2573  1.1479
  732MOL0     C98724  11.487  -0.553  -0.952  1.0725 -0.2548  0.1971
  732MOL0     C98725  11.445  -0.688  -0.912 -0.4041  0.1062 -0.6166
  732MOL0     C98726  11.367  -0.698  -0.781  0.0500 -0.3594  0.0848
  732MOL0     C98727  11.369  -0.839  -0.730  0.5144  0.6687 -0.8933
  732MOL0     C98728  11.286  -0.849  -0.600  1.3703 -0.5102  0.1025
  732MOL0     C98729  11.256  -1.003  -0.580 -0.4951  0.0421 -0.0723
  732MOL0    Cl98730  11.116  -1.069  -0.661  0.5717  0.2730 -0.3148
  732MOL0     C98731  11.641  -0.115  -1.166 -0.3116 -1.3817 -0.4915
  732MOL0     C98732  11.666   0.018  -1.172 -0.1592 -0.1200 -0.1458
  732MOL0     O98733  11.969   0.242  -1.023  0.6430  0.0390 -0.2673
  732MOL0     C98734  11.752   0.499  -1.128 -0.2734  0.0532  0.2877
  732MOL0     C98735  11.726   0.631  -1.125 -0.0077  0.1801 -0.6902
  732MOL0     N98736  11.378   1.106  -0.803  0.9681 -0.5206 -1.2696
  732MOL0     N98737  11.337   1.056  -0.689 -0.0011  0.6426  0.9829
  732MOL0     C98738  11.453   0.358   0.302 -0.4677 -0.1128 -0.7535
  732MOL0     C98739  11.411   0.329   0.433  0.1558 -1.0514  0.0292
  732MOL0     C98740  11.192   0.299   0.802  0.4958  0.1143 -0.0218
  732MOL0     C98741  11.236   0.172   0.849 -0.4924 -0.0802  0.5423
  732MOL0     C98742  11.212   0.140   0.984  0.5551 -0.1710 -0.0657
  732MOL0     C98743  11.150   0.234   1.071  0.3009 -0.1730  0.4591
  732MOL0     O98744  11.130   0.190   1.201  0.6000  0.0722  0.2068
  732MOL0     C98745  11.023   0.258   1.279 -0.6908  0.2082 -0.1999
  732MOL0     C98746  10.956   0.165   1.380  0.8517  0.4057 -0.2605
  732MOL0     C98747  11.039   0.143   1.507 -1.0776 -0.1610 -0.0211
  732MOL0     C98748  10.973   0.036   1.605 -0.2845  0.4906  0.2684
  732MOL0     C98749  10.863   0.079   1.687  0.3335 -0.4280  0.3550
  732MOL0     C98750  10.760   0.131   1.731 -0.0995 -0.0599 -0.0553
  732MOL0     C98751  11.114   0.361   1.030 -0.0189  0.8671  0.7462
  732MOL0     C98752  11.137   0.386   0.899 -0.3312 -1.0445  1.0921
  732MOL0     H98753  11.132   0.160   0.378 -1.0826  0.7864 -1.7755
  732MOL0     H98754  11.191   0.205   0.147  0.4018  1.8178 -0.9671
  732MOL0     H98755  11.317   0.219  -0.024  2.3004 -1.0575  0.8339
  732MOL0     H98756  11.247   0.378  -0.040  2.1249  2.6510 -2.9473
  732MOL0     H98757  11.454   0.473  -0.147  0.8453 -0.6835  2.2129
  732MOL0     H98758  11.494   0.308  -0.189 -0.0673 -1.8021 -0.3605
  732MOL0     H98759  11.373   0.358  -0.364  0.4593 -2.3036  0.1983
  732MOL0     H98760  11.259   0.277  -0.265 -0.6274  0.7879  1.3420
  732MOL0     H98761  11.135   0.486  -0.332 -0.6963  1.1351  0.1659
  732MOL0     H98762  11.220   0.554  -0.184 -1.4389  1.1203 -1.4589
  732MOL0     H98763  11.388   0.648  -0.318 -2.1985  2.1733  2.7543
  732MOL0     H98764  11.339   0.560  -0.460 -0.2829 -0.0967  0.8686
  732MOL0     H98765  11.131   0.681  -0.453 -0.4706 -0.9160  1.7046
  732MOL0     H98766  11.178   0.799  -0.330  1.0512  1.8967 -1.3427
  732MOL0     H98767  11.337   0.901  -0.464  0.9135 -0.8453  0.4269
  732MOL0     H98768  11.363   0.757  -0.570 -1.5061 -1.3052 -0.2129
  732MOL0     H98769  11.103   0.925  -0.593 -1.5666 -1.1850 -1.7009
  732MOL0     H98770  11.135   0.779  -0.678 -0.8115  0.5638 -1.5705
  732MOL0     H98771  11.187   0.871  -0.929 -2.7263  3.2010 -1.7851
  732MOL0     H98772  11.246   1.006  -1.107 -2.0671  1.6786  0.8773
  732MOL0     H98773  11.279   1.173  -1.067  0.1487  0.4782  0.9060
  732MOL0     H98774  11.527   1.141  -1.054  2.1294 -0.9479 -1.1566
  732MOL0     H98775  11.469   1.076  -1.213  0.2464 -2.3630 -0.4865
  732MOL0     H98776  11.485   0.843  -1.114  0.0906  0.7577 -1.5806
  732MOL0     H98777  11.543   0.909  -0.967 -0.0395  1.2359  0.0667
  732MOL0     H98778  11.733   1.023  -1.101 -1.3835 -0.0643  1.5264
  732MOL0     H98779  11.694   0.910  -1.223  2.0592  0.6821  0.0100
  732MOL0     H98780  11.993   0.742  -0.958 -0.7883  0.4687 -0.0870
  732MOL0     H98781  12.140   0.571  -0.898  1.6122 -1.6395  1.2763
  732MOL0     H98782  12.024   0.452  -0.817 -3.1242 -2.7924 -2.1213
  732MOL0     H98783  12.132   0.406  -0.952  3.4930  2.0216  1.0263
  732MOL0     H98784  11.879   0.034  -0.897 -0.9069  1.7219 -0.0877
  732MOL0     H98785  11.811  -0.201  -0.896 -1.4099  1.4290  1.9555
  732MOL0     H98786  11.478  -0.354  -1.159  0.4476 -1.6081 -4.3391
  732MOL0     H98787  11.621  -0.411  -1.230  4.0073  0.4469  2.1731
  732MOL0     H98788  11.488  -0.592  -1.168  1.0345  1.7068 -0.1243
  732MOL0     H98789  11.655  -0.589  -1.103  1.4998  2.2909  0.9008
  732MOL0     H98790  11.400  -0.486  -0.948  0.3953 -1.1121  0.2679
  732MOL0     H98791  11.541  -0.506  -0.869  0.8062 -2.7199  1.8569
  732MOL0     H98792  11.377  -0.729  -0.987 -0.9004  0.2901 -0.2775
  732MOL0     H98793  11.533  -0.750  -0.929  0.9683  2.1674 -1.5048
  732MOL0     H98794  11.264  -0.677  -0.809  0.0740  0.8091  0.8128
  732MOL0     H98795  11.414  -0.631  -0.709 -1.7745  1.7833 -0.6268
  732MOL0     H98796  11.334  -0.919  -0.796 -0.5966  0.6251 -0.2645
  732MOL0     H98797  11.469  -0.878  -0.708  0.5602  0.6813 -1.0664
  732MOL0     H98798  11.183  -0.815  -0.616  1.0597 -2.1333 -1.7585
  732MOL0     H98799  11.340  -0.807  -0.515 -0.9834  0.7673  1.0578
  732MOL0     H98800  11.225  -1.026  -0.478 -3.4347 -0.8334 -1.0759
  732MOL0     H98801  11.341  -1.069  -0.596 -1.6507 -1.4197 -0.3978
  732MOL0     H98802  11.561  -0.144  -1.233 -1.7217  0.5495  0.2575
  732MOL0     H98803  11.631   0.082  -1.253  1.9091  3.6935  1.7228
  732MOL0     H98804  11.677   0.439  -1.179 -0.6370 -0.3567  1.2935
  732MOL0     H98805  11.638   0.663  -1.180 -0.8946 -3.7909 -1.9138
  732MOL0     H98806  11.544   0.416   0.294 -0.4161 -0.3505 -2.1994
  732MOL0     H98807  11.465   0.378   0.514  0.1231  0.0402 -0.5808
  732MOL0     H98808  11.286   0.108   0.777 -2.1207 -0.3784 -0.3836
  732MOL0     H98809  11.243   0.043   1.023  0.7309 -0.3576 -0.6607
  732MOL0     H98810  11.069   0.339   1.337  0.0229 -0.9155  0.8498
  732MOL0     H98811  10.946   0.306   1.219 -0.4717  1.9620  0.8510
  732MOL0     H98812  10.921   0.076   1.325  1.0680 -2.1069  3.2931
  732MOL0     H98813  10.863   0.214   1.410  0.3376 -0.8792  0.3109
  732MOL0     H98814  11.079   0.229   1.561  0.6108 -0.0280 -1.3983
  732MOL0     H98815  11.132   0.101   1.468 -0.1477  1.0964  0.7766
  732MOL0     H98816  11.051  -0.001   1.673 -0.7493 -3.8024 -1.2245
  732MOL0     H98817  10.939  -0.052   1.550 -1.4612  1.6675 -0.9547
  732MOL0     H98818  10.677   0.183   1.774  1.1223  0.1010  2.3029
  732MOL0     H98819  11.071   0.435   1.097 -0.1328 -0.4635  2.1840
  732MOL0     H98820  11.093   0.478   0.861  0.1770 -0.6722  1.4008
  733MOL0     O98821   3.562   6.115   4.024 -0.9412  0.3093  0.1470
  733MOL0     C98822   3.620   6.184   4.104 -0.9038  0.1739 -0.6738
  733MOL0     O98823   3.657   6.151   4.231 -0.2969 -0.7621  0.7007
  733MOL0     C98824   3.604   6.036   4.287  0.1250  0.1838 -0.0574
  733MOL0     C98825   3.558   6.044   4.421  0.5292 -0.3257 -0.2687
  733MOL0     C98826   3.503   5.931   4.490 -0.3415  0.0696  0.0907
  733MOL0     C98827   3.493   5.812   4.422  0.6705 -0.5274  0.3010
  733MOL0     O98828   3.442   5.697   4.473  0.4496 -0.1883 -0.4906
  733MOL0     C98829   3.534   5.598   4.514 -0.1192  0.3423 -0.3822
  733MOL0     C98830   3.631   5.640   4.633 -0.6059 -0.0495  0.4714
  733MOL0     C98831   3.548   5.684   4.768 -0.5837 -0.9731 -0.9188
  733MOL0     C98832   3.554   5.573   4.876 -0.3523  0.7817 -0.2086
  733MOL0     C98833   3.483   5.433   4.828  0.8224  0.0287  0.7973
  733MOL0     C98834   3.472   5.338   4.943  0.4680  0.1193  0.5606
  733MOL0     C98835   3.392   5.208   4.911  0.2214  0.2386 -0.5234
  733MOL0     C98836   3.342   5.134   5.032 -0.6164 -0.0329 -0.8144
  733MOL0     N98837   3.277   5.008   4.985  0.8339  0.6082  0.1804
  733MOL0     C98838   3.159   4.993   4.925  0.4089  0.4098  0.2832
  733MOL0     C98839   3.144   4.861   4.902 -1.0110 -0.3233  0.7856
  733MOL0     C98840   3.012   4.807   4.852  1.0653  0.0187  0.3958
  733MOL0     C98841   2.962   4.728   4.970  1.4270 -0.3708  0.8807
  733MOL0     C98842   2.854   4.619   4.938 -0.1817  0.4062  0.3652
  733MOL0     C98843   2.797   4.554   5.063  0.1673 -0.1979 -0.0144
  733MOL0     O98844   2.695   4.458   5.026 -0.2792  0.4174  0.3360
  733MOL0     C98845   2.627   4.397   5.130 -0.1058  0.7422 -0.1857
  733MOL0     C98846   2.655   4.408   5.269 -0.2333  0.5846 -0.5775
  733MOL0     C98847   2.590   4.331   5.366 -0.1517 -0.1795  0.0250
  733MOL0     C98848   2.620   4.365   5.511 -1.9104 -0.8546 -0.2957
  733MOL0     C98849   2.490   4.242   5.323  0.4365 -0.3392 -0.5176
  733MOL0     C98850   2.398   4.174   5.415  0.9249  0.3493  0.7691
  733MOL0     O98851   2.452   4.062   5.480 -0.4500 -0.3478 -0.0384
  733MOL0     C98852   2.375   3.970   5.540  0.2563 -0.5807  0.3714
  733MOL0     C98853   2.397   3.956   5.675  0.5700  0.2955  0.1836
  733MOL0     C98854   2.341   3.855   5.750  0.5996  0.3079  0.3323
  733MOL0     C98855   2.258   3.761   5.696  0.1315  0.3432  0.4568
  733MOL0     O98856   2.178   3.679   5.767  0.1573  0.3719  0.4797
  733MOL0     C98857   2.240   3.612   5.881 -0.3008  0.2229 -0.0497
  733MOL0     C98858   2.344   3.494   5.854  0.0525 -0.1361 -0.4377
  733MOL0     C98859   2.306   3.389   5.745 -0.2199 -0.0815  0.8087
  733MOL0     C98860   2.369   3.419   5.604  0.3954 -0.5184 -0.4489
  733MOL0     C98861   2.511   3.376   5.593  0.3499  0.2420  0.0594
  733MOL0     C98862   2.522   3.225   5.590 -0.1532 -0.3964  0.6173
  733MOL0     C98863   2.496   3.177   5.441 -1.0427  0.2262 -0.3047
  733MOL0     C98864   2.619   3.181   5.353  0.4151  0.1997 -0.0629
  733MOL0    Cl98865   2.609   3.065   5.230  0.4490 -0.3734 -0.4399
  733MOL0     C98866   2.232   3.770   5.560  1.2630 -0.0540 -0.1254
  733MOL0     C98867   2.286   3.874   5.477  0.8402 -0.6427 -0.6638
  733MOL0     O98868   2.276   4.211   5.432 -0.2883  0.1945 -0.4951
  733MOL0     C98869   2.460   4.233   5.181 -0.1547  0.7957 -1.2467
  733MOL0     C98870   2.533   4.305   5.092  0.2051  0.3791 -0.1238
  733MOL0     N98871   3.258   4.803   4.946 -0.2753  0.8999  0.5840
  733MOL0     N98872   3.345   4.894   4.974  0.2494  0.5067 -0.2710
  733MOL0     C98873   3.542   5.804   4.293  0.1923 -0.1083  0.0095
  733MOL0     C98874   3.599   5.912   4.229 -0.5238  0.6266  0.2008
  733MOL0     C98875   3.641   6.325   4.079  0.9824  0.2687  0.0622
  733MOL0     C98876   3.708   6.416   4.172  0.5313 -0.1550 -0.5304
  733MOL0     C98877   3.736   6.546   4.139  0.3686  0.0822  0.2942
  733MOL0     C98878   3.705   6.594   4.012  0.4380 -0.1502  0.1786
  733MOL0     O98879   3.711   6.727   3.979 -0.2350 -0.7363 -0.8831
  733MOL0     C98880   3.593   6.800   3.958 -0.4594 -0.2336 -0.7335
  733MOL0     C98881   3.452   6.751   4.010  0.3340  0.0277  0.0432
  733MOL0     C98882   3.439   6.764   4.156  0.0456 -0.1878 -0.3437
  733MOL0     C98883   3.436   6.913   4.195 -0.1019 -0.1305  0.4583
  733MOL0     C98884   3.376   6.942   4.323  0.0279  0.3042 -1.2620
  733MOL0     C98885   3.331   6.951   4.446 -0.8519  0.6197 -0.1295
  733MOL0     C98886   3.661   6.505   3.915  1.3572  0.7803 -0.3344
  733MOL0     C98887   3.623   6.371   3.948  0.7174 -0.7718 -0.9265
  733MOL0     H98888   3.564   6.147   4.456  3.5817 -0.8765  1.1299
  733MOL0     H98889   3.471   5.951   4.592 -0.8781 -2.9092  0.6007
  733MOL0     H98890   3.474   5.511   4.540 -2.3961  1.5027 -1.4583
  733MOL0     H98891   3.584   5.575   4.419 -0.5260  1.0901 -0.7807
  733MOL0     H98892   3.703   5.560   4.654  0.7698  0.1842 -2.7278
  733MOL0     H98893   3.694   5.723   4.599 -1.7979 -0.5379 -3.4773
  733MOL0     H98894   3.592   5.772   4.816 -2.5714 -0.9639  1.0365
  733MOL0     H98895   3.447   5.718   4.745 -0.1720  0.2145 -1.0481
  733MOL0     H98896   3.650   5.553   4.925 -1.4769 -4.2368  0.4216
  733MOL0     H98897   3.492   5.613   4.957 -0.5355  2.7988 -1.2759
  733MOL0     H98898   3.393   5.448   4.768  0.5900  0.6755  1.3013
  733MOL0     H98899   3.558   5.380   4.768 -0.5702 -1.1344  0.0057
  733MOL0     H98900   3.576   5.318   4.973  0.2792  1.0740  1.9212
  733MOL0     H98901   3.435   5.401   5.024 -0.5322  0.6600 -0.2931
  733MOL0     H98902   3.312   5.240   4.843 -1.9704  0.6974  2.0915
  733MOL0     H98903   3.454   5.136   4.857  1.1642 -0.6178  1.6055
  733MOL0     H98904   3.274   5.198   5.090 -0.9888 -3.4360  2.8953
  733MOL0     H98905   3.428   5.114   5.096  1.3712  1.1988 -2.9391
  733MOL0     H98906   3.090   5.076   4.912  1.0761  0.5887 -2.9243
  733MOL0     H98907   2.940   4.884   4.824  1.1817  1.1225  2.8905
  733MOL0     H98908   3.033   4.742   4.766 -0.0654 -0.2508  0.3137
  733MOL0     H98909   2.936   4.813   5.033  1.0653  0.9396 -0.9590
  733MOL0     H98910   3.036   4.669   5.025 -0.0481 -3.3667 -0.1410
  733MOL0     H98911   2.896   4.558   4.858 -1.2194  1.6804 -1.2197
  733MOL0     H98912   2.769   4.664   4.885  0.7061  0.9651 -0.6155
  733MOL0     H98913   2.766   4.620   5.145  4.3982 -1.8207  3.2584
  733MOL0     H98914   2.887   4.523   5.117 -0.2213  3.3718  3.0537
  733MOL0     H98915   2.739   4.468   5.302 -0.5915 -0.9080  3.7535
  733MOL0     H98916   2.701   4.438   5.518 -1.1526 -1.4905 -1.9213
  733MOL0     H98917   2.526   4.389   5.563 -0.7850 -0.3134  1.5905
  733MOL0     H98918   2.666   4.279   5.560 -0.4928 -0.7428 -1.3882
  733MOL0     H98919   2.455   4.032   5.727  2.2849  1.0134 -2.5970
  733MOL0     H98920   2.356   3.861   5.857 -2.1234  0.2556  0.7938
  733MOL0     H98921   2.272   3.670   5.968 -0.3360 -2.1002  1.6059
  733MOL0     H98922   2.151   3.561   5.921  0.2821 -0.5792  0.2600
  733MOL0     H98923   2.437   3.545   5.827  0.4536 -0.8642 -0.4694
  733MOL0     H98924   2.370   3.434   5.942  0.7412  2.0011  0.8876
  733MOL0     H98925   2.198   3.394   5.725  0.1551  1.9072 -1.0616
  733MOL0     H98926   2.327   3.292   5.791 -1.1511  0.4988  2.5620
  733MOL0     H98927   2.315   3.377   5.518 -1.0162  1.0909 -0.4140
  733MOL0     H98928   2.355   3.525   5.583 -0.1181  0.2783  3.2708
  733MOL0     H98929   2.565   3.397   5.687  0.1945  1.7354 -0.1636
  733MOL0     H98930   2.555   3.423   5.505 -2.0705  0.5003 -1.0711
  733MOL0     H98931   2.610   3.181   5.638  1.1686 -0.7206 -1.9082
  733MOL0     H98932   2.436   3.193   5.649 -1.2178  2.4547  0.7914
  733MOL0     H98933   2.413   3.225   5.388 -3.0803 -1.6040  1.0556
  733MOL0     H98934   2.461   3.073   5.441  0.1345 -0.2963 -3.6765
  733MOL0     H98935   2.709   3.163   5.412  0.6007 -1.7416 -0.8909
  733MOL0     H98936   2.624   3.279   5.304  1.8376  0.0732 -0.2015
  733MOL0     H98937   2.158   3.700   5.522  1.5358 -1.9403  2.5129
  733MOL0     H98938   2.250   3.882   5.375  0.8097  0.4447 -0.5791
  733MOL0     H98939   2.385   4.167   5.137 -0.5430  0.4111 -0.0735
  733MOL0     H98940   2.518   4.290   4.985 -1.8952  1.3726 -0.0156
  733MOL0     H98941   3.542   5.716   4.229 -1.1722 -0.6929  0.7435
  733MOL0     H98942   3.642   5.901   4.131 -0.7726  2.0821 -0.0967
  733MOL0     H98943   3.717   6.389   4.276 -1.0987  0.2873 -0.2435
  733MOL0     H98944   3.769   6.621   4.210  2.1241 -0.8254  0.4828
  733MOL0     H98945   3.609   6.904   3.986  2.8139 -0.9530  0.4722
  733MOL0     H98946   3.582   6.808   3.849  1.2235  0.6666 -0.8609
  733MOL0     H98947   3.447   6.642   4.001  1.4207 -0.0864  0.6650
  733MOL0     H98948   3.371   6.795   3.952  0.6868 -0.5481 -0.9196
  733MOL0     H98949   3.529   6.714   4.193 -1.9930 -2.3976  2.0143
  733MOL0     H98950   3.346   6.718   4.190 -0.2306  1.5710  1.5051
  733MOL0     H98951   3.378   6.970   4.122  0.1719 -2.1868 -1.4716
  733MOL0     H98952   3.537   6.953   4.200 -1.2899  3.2788  0.0871
  733MOL0     H98953   3.286   6.985   4.538 -4.2169  0.3063 -1.5100
  733MOL0     H98954   3.649   6.534   3.812 -0.1858 -2.3974 -1.1858
  733MOL0     H98955   3.573   6.316   3.868 -2.6743  1.1675 -0.3286
  734MOL0     O98956  10.228   1.728  11.508  0.6450 -0.6067  0.3199
  734MOL0     C98957  10.282   1.723  11.394 -0.5078  0.1346  0.1751
  734MOL0     O98958  10.225   1.675  11.278 -0.2022 -0.5026  0.6448
  734MOL0     C98959  10.086   1.670  11.274 -0.1796  0.5021 -0.2704
  734MOL0     C98960  10.012   1.593  11.365  0.5744 -0.2097  0.5188
  734MOL0     C98961   9.876   1.590  11.367 -0.9451  0.5105 -0.3964
  734MOL0     C98962   9.801   1.663  11.273 -0.5509 -0.4718 -0.7043
  734MOL0     O98963   9.662   1.671  11.285  0.4658 -0.0093  0.1542
  734MOL0     C98964   9.605   1.613  11.405 -0.1740 -0.6786  0.7457
  734MOL0     C98965   9.465   1.671  11.415  0.1803 -0.5376 -0.5999
  734MOL0     C98966   9.383   1.604  11.524 -0.4078 -0.3974 -1.2360
  734MOL0     C98967   9.247   1.648  11.516  0.1283  0.4554 -0.1899
  734MOL0     C98968   9.167   1.566  11.631  0.0113  0.1254  0.6503
  734MOL0     C98969   9.022   1.594  11.596 -0.0281  0.3545 -0.7006
  734MOL0     C98970   8.924   1.533  11.696 -0.6149  0.0833  1.3529
  734MOL0     C98971   8.876   1.634  11.807 -1.0466  0.4028  0.2183
  734MOL0     N98972   8.988   1.699  11.879 -0.2548 -0.3851  0.5490
  734MOL0     C98973   9.027   1.833  11.872  0.4066 -0.4060 -0.7297
  734MOL0     C98974   9.140   1.841  11.942  0.4151  0.9010  0.0475
  734MOL0     C98975   9.217   1.960  11.954  0.0195 -0.6933 -0.1996
  734MOL0     C98976   9.360   1.949  11.899 -0.6361 -0.0384  0.0532
  734MOL0     C98977   9.362   1.916  11.757  1.0764 -0.1126  0.8295
  734MOL0     C98978   9.505   1.908  11.702  0.3313 -0.0136 -0.1616
  734MOL0     O98979   9.527   2.043  11.662  0.3723 -0.6840  0.6201
  734MOL0     C98980   9.644   2.078  11.610 -0.5852 -0.2098 -0.9622
  734MOL0     C98981   9.759   1.995  11.601 -0.9374  0.0154  0.0751
  734MOL0     C98982   9.878   2.043  11.547 -0.9630 -0.6898 -0.0176
  734MOL0     C98983   9.995   1.937  11.533  0.9724 -0.0341  0.4628
  734MOL0     C98984   9.887   2.176  11.495  0.7459  0.3899 -0.1052
  734MOL0     C98985  10.013   2.239  11.429 -1.2035 -0.1501  0.0100
  734MOL0     O98986   9.997   2.373  11.403 -0.2756  0.7307  0.4021
  734MOL0     C98987  10.092   2.469  11.371 -0.2864  0.2050 -0.1477
  734MOL0     C98988  10.071   2.599  11.424  0.3665  0.6960  0.1589
  734MOL0     C98989  10.165   2.704  11.408  0.6362  0.1862 -0.8828
  734MOL0     C98990  10.282   2.685  11.336  0.4979  0.3875 -1.0263
  734MOL0     O98991  10.366   2.784  11.306  0.1655 -0.5802  0.1085
  734MOL0     C98992  10.317   2.926  11.310  0.2357  0.0682  0.3424
  734MOL0     C98993  10.432   3.003  11.243  0.1395  0.4784 -0.2499
  734MOL0     C98994  10.448   2.999  11.093 -0.5758  0.6883 -0.7671
  734MOL0     C98995  10.324   3.038  11.007  0.5056  1.0341  0.0801
  734MOL0     C98996  10.354   3.042  10.860  0.6695  0.5303 -0.7614
  734MOL0     C98997  10.379   3.192  10.814 -0.8639  0.1785 -1.1117
  734MOL0     C98998  10.419   3.170  10.669  0.5102  0.0849  0.8516
  734MOL0     C98999  10.426   3.286  10.566 -0.5102  0.4756 -0.4770
  734MOL0    Cl99000  10.524   3.420  10.631  0.4609  0.5032  0.7858
  734MOL0     C99001  10.312   2.556  11.296 -0.0127  0.5596  0.1899
  734MOL0     C99002  10.219   2.454  11.305 -0.3403  0.3571 -0.7789
  734MOL0     O99003  10.105   2.164  11.387  0.1137 -0.7849  0.2861
  734MOL0     C99004   9.766   2.252  11.497 -0.2385 -0.0255  1.1660
  734MOL0     C99005   9.653   2.205  11.565 -0.2886 -1.1031  0.7930
  734MOL0     N99006   9.160   1.717  12.007 -0.3945  0.1800  0.0842
  734MOL0     N99007   9.059   1.635  11.972 -1.0380 -0.2702 -0.8717
  734MOL0     C99008   9.874   1.720  11.161 -0.3188  0.0911  0.5115
  734MOL0     C99009  10.017   1.728  11.169  0.5404  0.6083  0.3603
  734MOL0     C99010  10.418   1.788  11.398  1.5548  1.7142  1.2306
  734MOL0     C99011  10.483   1.824  11.520  0.6210 -0.0828 -0.4307
  734MOL0     C99012  10.607   1.870  11.521 -0.2330 -1.3183  0.2856
  734MOL0     C99013  10.679   1.884  11.399  0.3967 -0.4724  0.9907
  734MOL0     O99014  10.815   1.936  11.384 -0.5096 -0.1574  0.4882
  734MOL0     C99015  10.903   1.959  11.491  0.5774 -0.2238  0.1930
  734MOL0     C99016  10.893   2.112  11.517  0.2592  1.0056 -0.8622
  734MOL0     C99017  10.977   2.145  11.640  0.0847  0.3237  1.0092
  734MOL0     C99018  10.948   2.291  11.678 -0.1603  0.1142 -0.3964
  734MOL0     C99019  11.007   2.306  11.807  0.8726  0.3697 -0.1271
  734MOL0     C99020  11.076   2.335  11.900 -1.2699  0.5498 -0.6680
  734MOL0     C99021  10.617   1.847  11.276  0.0215 -0.8224  0.7466
  734MOL0     C99022  10.485   1.815  11.279  0.3597 -0.7065 -0.1236
  734MOL0     H99023  10.072   1.522  11.421 -0.5891 -0.7778  1.0817
  734MOL0     H99024   9.840   1.531  11.451 -0.7809 -1.3839 -1.5917
  734MOL0     H99025   9.604   1.504  11.415 -2.9185 -0.8723 -0.5598
  734MOL0     H99026   9.664   1.652  11.488  0.8771  0.4608 -0.4854
  734MOL0     H99027   9.459   1.780  11.422 -1.7879 -0.6356 -0.3184
  734MOL0     H99028   9.409   1.644  11.325 -0.5542 -2.0022  0.2745
  734MOL0     H99029   9.390   1.496  11.509  0.3525 -0.8768  1.7768
  734MOL0     H99030   9.415   1.633  11.625 -0.6621 -2.0963 -0.6488
  734MOL0     H99031   9.250   1.755  11.536  6.4082  1.0691 -2.1476
  734MOL0     H99032   9.202   1.636  11.416  2.2671 -0.8258 -1.0642
  734MOL0     H99033   9.182   1.459  11.611  1.0485 -0.0533  2.2597
  734MOL0     H99034   9.201   1.593  11.731  1.2584  1.0613 -0.0031
  734MOL0     H99035   9.006   1.702  11.602 -0.8240  0.2003  0.2362
  734MOL0     H99036   9.001   1.554  11.497  0.4957 -3.9869  0.7530
  734MOL0     H99037   8.832   1.497  11.650 -0.8576 -1.4191  2.8962
  734MOL0     H99038   8.958   1.442  11.747 -2.3835  0.5928  3.5973
  734MOL0     H99039   8.819   1.575  11.879  0.7464 -3.3452 -1.1948
  734MOL0     H99040   8.823   1.715  11.755  1.2650  1.0353 -1.3294
  734MOL0     H99041   8.974   1.907  11.812 -0.8382 -1.1427 -0.5683
  734MOL0     H99042   9.173   2.056  11.924 -2.5541 -0.9003  2.4108
  734MOL0     H99043   9.226   1.978  12.062 -0.0005  2.1882 -0.5816
  734MOL0     H99044   9.408   1.867  11.953  2.2797  1.1080 -0.6407
  734MOL0     H99045   9.425   2.033  11.926 -1.8075  0.6236  0.9504
  734MOL0     H99046   9.298   1.984  11.701 -0.7003 -4.0813 -2.4654
  734MOL0     H99047   9.320   1.815  11.753 -2.5689  1.2286  1.4635
  734MOL0     H99048   9.502   1.847  11.611  0.3201  0.2409 -0.3324
  734MOL0     H99049   9.580   1.864  11.768 -0.6030  2.2600  2.6473
  734MOL0     H99050   9.756   1.891  11.632 -0.9494 -0.5462 -1.7121
  734MOL0     H99051   9.968   1.837  11.567 -1.3227 -0.6363 -2.7075
  734MOL0     H99052  10.020   1.917  11.428 -1.3616  0.1771 -0.1766
  734MOL0     H99053  10.084   1.974  11.586  2.2874 -1.6861 -0.5198
  734MOL0     H99054   9.974   2.609  11.472  0.0677 -2.2275  0.3914
  734MOL0     H99055  10.145   2.796  11.462 -0.9355 -2.0732  2.7573
  734MOL0     H99056  10.230   2.943  11.247 -2.0642 -2.7109  2.5168
  734MOL0     H99057  10.295   2.953  11.414  3.9975  3.2434  0.5663
  734MOL0     H99058  10.429   3.111  11.260  2.1429  0.4027  1.0041
  734MOL0     H99059  10.528   2.971  11.285  0.9551  3.0398 -0.0260
  734MOL0     H99060  10.466   2.893  11.069 -1.0888  0.6512 -1.0139
  734MOL0     H99061  10.535   3.053  11.054 -0.3830  0.5511 -0.5255
  734MOL0     H99062  10.242   2.965  11.017 -0.5003  2.3225  1.7131
  734MOL0     H99063  10.268   3.126  11.040 -0.3341  0.7008 -0.4163
  734MOL0     H99064  10.271   2.997  10.805  0.4629 -2.6812  1.8764
  734MOL0     H99065  10.439   2.974  10.848  1.0611  0.7583  0.5416
  734MOL0     H99066  10.294   3.257  10.837 -0.8442 -0.3104  0.4422
  734MOL0     H99067  10.467   3.238  10.859  0.7384 -2.3830 -1.4061
  734MOL0     H99068  10.336   3.110  10.631  1.6493  0.6543 -2.9394
  734MOL0     H99069  10.510   3.111  10.657  1.0230  0.8739  0.7674
  734MOL0     H99070  10.324   3.323  10.553 -0.6341  0.7043  0.9486
  734MOL0     H99071  10.464   3.248  10.471  0.1494 -0.5611  0.1796
  734MOL0     H99072  10.407   2.546  11.245  1.4220  1.8177  2.4430
  734MOL0     H99073  10.238   2.359  11.256  0.3449  0.7736 -1.3448
  734MOL0     H99074   9.761   2.352  11.456 -2.0858 -0.0477  1.2401
  734MOL0     H99075   9.562   2.264  11.570 -0.4054 -1.0869 -0.8729
  734MOL0     H99076   9.822   1.777  11.085 -0.3043 -0.3123  0.1992
  734MOL0     H99077  10.081   1.769  11.092  2.5072 -1.9320  0.5088
  734MOL0     H99078  10.430   1.827  11.615 -1.6482  1.8205 -1.6760
  734MOL0     H99079  10.647   1.917  11.611 -0.8802 -2.3567  1.1358
  734MOL0     H99080  10.874   1.901  11.580  1.4251 -0.1235  0.5439
  734MOL0     H99081  11.009   1.936  11.478  1.0702  0.9012  1.9723
  734MOL0     H99082  10.792   2.142  11.549  0.4662  3.2766 -2.0844
  734MOL0     H99083  10.922   2.170  11.429 -0.6701 -0.5585 -2.2538
  734MOL0     H99084  11.080   2.125  11.608  1.2735  2.4392  3.1624
  734MOL0     H99085  10.953   2.094  11.734  0.0043  3.9090  3.1470
  734MOL0     H99086  10.845   2.321  11.699 -0.3277 -0.4533 -0.3742
  734MOL0     H99087  10.984   2.363  11.604  1.5562 -0.2811  0.0123
  734MOL0     H99088  11.137   2.344  11.988  0.4977 -2.3796 -1.4735
  734MOL0     H99089  10.682   1.866  11.191 -1.1527  0.4164  0.0681
  734MOL0     H99090  10.437   1.807  11.182 -2.5760  2.7211  0.8161
  735MOL0     O99091   4.564   6.187   3.219 -0.9081  0.0180 -0.1982
  735MOL0     C99092   4.456   6.234   3.236 -0.2197  0.7317  0.2834
  735MOL0     O99093   4.334   6.155   3.248 -0.1093  0.9027 -0.1058
  735MOL0     C99094   4.320   6.017   3.251 -0.3797 -0.3092  0.3603
  735MOL0     C99095   4.413   5.916   3.201 -0.0146 -1.0545 -0.6524
  735MOL0     C99096   4.379   5.786   3.206 -0.0215  1.1473  0.4591
  735MOL0     C99097   4.259   5.734   3.258  0.1966 -0.4279  0.3547
  735MOL0     O99098   4.223   5.600   3.252  0.1689 -0.1672 -0.4411
  735MOL0     C99099   4.196   5.547   3.121  0.3627 -0.6929  0.4127
  735MOL0     C99100   4.246   5.403   3.118 -0.4938 -0.6440  0.0672
  735MOL0     C99101   4.405   5.384   3.117 -0.8652 -0.0674 -0.4293
  735MOL0     C99102   4.458   5.248   3.066 -0.5190  0.5091  0.3316
  735MOL0     C99103   4.611   5.229   3.074 -0.0068 -0.1940  0.2513
  735MOL0     C99104   4.654   5.203   3.221 -0.8011 -0.0999  0.4293
  735MOL0     C99105   4.804   5.207   3.237  0.4468 -1.3066 -0.5766
  735MOL0     C99106   4.843   5.260   3.378  0.0864  1.0693  0.4710
  735MOL0     N99107   4.993   5.262   3.394 -0.0248  0.2315  0.1352
  735MOL0     C99108   5.094   5.169   3.375  0.2814  0.5804 -0.3406
  735MOL0     C99109   5.203   5.215   3.422  0.1148 -0.8444 -0.4651
  735MOL0     C99110   5.344   5.150   3.426  0.2145  0.4114  0.2111
  735MOL0     C99111   5.451   5.234   3.493 -0.1844  0.2803 -0.9752
  735MOL0     C99112   5.584   5.154   3.517 -1.3188  1.1038  0.1897
  735MOL0     C99113   5.663   5.197   3.647  0.1291  0.3041 -0.2423
  735MOL0     O99114   5.654   5.337   3.658 -0.5047 -1.0650 -0.9493
  735MOL0     C99115   5.735   5.409   3.579 -0.7299  0.9750 -0.3259
  735MOL0     C99116   5.808   5.370   3.468 -0.0245 -1.0748 -0.0329
  735MOL0     C99117   5.888   5.457   3.396 -0.1294  0.2882  0.2109
  735MOL0     C99118   5.979   5.414   3.288 -0.9992 -0.4911  0.2708
  735MOL0     C99119   5.893   5.597   3.431  0.1067 -0.5778  0.5869
  735MOL0     C99120   5.975   5.700   3.375  0.3310  0.7526 -0.1449
  735MOL0     O99121   5.920   5.820   3.364 -0.2354 -0.0866  0.4384
  735MOL0     C99122   6.010   5.913   3.395  0.1612 -0.3916 -1.1452
  735MOL0     C99123   6.031   6.017   3.307 -0.5495 -0.1471 -0.4756
  735MOL0     C99124   6.124   6.113   3.348 -0.0240 -0.3552  0.3079
  735MOL0     C99125   6.197   6.113   3.467  0.0179  0.1874  0.2025
  735MOL0     O99126   6.274   6.221   3.495  1.0722 -0.8335 -0.8370
  735MOL0     C99127   6.378   6.199   3.594 -0.7435  0.3741  0.7997
  735MOL0     C99128   6.451   6.337   3.576 -0.4528  1.2076 -0.2156
  735MOL0     C99129   6.600   6.331   3.615 -0.6807 -0.5996 -0.0486
  735MOL0     C99130   6.669   6.466   3.572 -0.3321  0.3926 -1.1364
  735MOL0     C99131   6.820   6.479   3.590 -0.7163  0.2657  0.3352
  735MOL0     C99132   6.875   6.497   3.734 -0.0364  1.4687 -0.4946
  735MOL0     C99133   7.019   6.445   3.747  0.6175 -0.6165 -0.1700
  735MOL0     C99134   7.063   6.486   3.893  1.0526 -0.1440 -0.3148
  735MOL0    Cl99135   7.247   6.451   3.936 -0.0777  0.0008  0.0617
  735MOL0     C99136   6.167   6.015   3.563  0.7861  1.4784  0.6657
  735MOL0     C99137   6.073   5.905   3.526 -0.0363 -0.6917 -0.4277
  735MOL0     O99138   6.084   5.667   3.337 -0.1415  0.0938 -0.0268
  735MOL0     C99139   5.798   5.638   3.535  0.2194 -0.3841 -0.4317
  735MOL0     C99140   5.725   5.542   3.610  0.3041 -0.4009  0.1468
  735MOL0     N99141   5.169   5.348   3.455 -0.0830 -0.3451  0.2772
  735MOL0     N99142   5.050   5.375   3.439 -0.3202 -1.0507  0.1849
  735MOL0     C99143   4.179   5.829   3.327  0.9075 -0.8243  0.5823
  735MOL0     C99144   4.211   5.963   3.329  0.2134 -0.2507  0.8945
  735MOL0     C99145   4.437   6.389   3.251 -0.6959  0.3457 -0.4102
  735MOL0     C99146   4.307   6.438   3.255 -0.1945  0.3210  0.6510
  735MOL0     C99147   4.275   6.577   3.236 -0.0047  0.1199 -0.1138
  735MOL0     C99148   4.385   6.664   3.209 -0.0653 -0.4341  0.1437
  735MOL0     O99149   4.380   6.800   3.189  0.0997 -0.0207 -0.7768
  735MOL0     C99150   4.249   6.855   3.219  0.0705 -0.4070 -0.1259
  735MOL0     C99151   4.235   7.006   3.253 -0.5248 -0.1114 -0.2344
  735MOL0     C99152   4.100   7.046   3.307 -0.7464  0.1636 -0.5545
  735MOL0     C99153   3.986   6.994   3.235  0.2284 -0.1275 -0.0638
  735MOL0     C99154   3.878   7.087   3.278 -0.2874  0.4126  0.1540
  735MOL0     C99155   3.792   7.154   3.309  0.1953 -0.3067 -0.6720
  735MOL0     C99156   4.514   6.611   3.213  0.3672  0.0752  0.2425
  735MOL0     C99157   4.544   6.475   3.239  0.1490 -0.5681 -0.5498
  735MOL0     H99158   4.506   5.949   3.157 -0.7577  2.4661  0.0941
  735MOL0     H99159   4.451   5.714   3.169  0.6609  1.2754  1.4957
  735MOL0     H99160   4.087   5.544   3.117  0.1992  2.4972 -1.1883
  735MOL0     H99161   4.229   5.607   3.036  1.7887  1.1818  2.1983
  735MOL0     H99162   4.199   5.359   3.206  2.2850 -0.7664  1.6008
  735MOL0     H99163   4.202   5.369   3.023 -1.1411  2.3310 -0.8045
  735MOL0     H99164   4.451   5.473   3.072 -0.3453  2.0532  3.8051
  735MOL0     H99165   4.437   5.399   3.220 -3.8626 -0.4850  0.6765
  735MOL0     H99166   4.407   5.167   3.119 -3.3300  1.5362 -0.6533
  735MOL0     H99167   4.419   5.228   2.966 -0.1240 -2.4707  0.6789
  735MOL0     H99168   4.647   5.139   3.023  1.8992 -0.1671  1.4190
  735MOL0     H99169   4.662   5.317   3.035 -0.0092 -0.3801 -0.1808
  735MOL0     H99170   4.621   5.295   3.269  1.4379  0.6413  0.6454
  735MOL0     H99171   4.594   5.125   3.268  0.4994  0.8871  4.0773
  735MOL0     H99172   4.845   5.106   3.228  2.3677 -0.5528 -0.7960
  735MOL0     H99173   4.853   5.277   3.169  1.6061 -1.5715 -0.0283
  735MOL0     H99174   4.789   5.199   3.451 -1.9638  2.1122 -0.1056
  735MOL0     H99175   4.808   5.362   3.398 -1.1062  1.1839 -1.7738
  735MOL0     H99176   5.071   5.068   3.344 -0.1929 -0.5058  3.1023
  735MOL0     H99177   5.334   5.054   3.479  1.5825 -0.2597 -0.6837
  735MOL0     H99178   5.366   5.116   3.324 -1.5577 -0.5541  0.0981
  735MOL0     H99179   5.415   5.274   3.588  0.3207  3.3560 -1.9742
  735MOL0     H99180   5.469   5.318   3.426  0.0404 -0.2807 -1.6334
  735MOL0     H99181   5.647   5.167   3.429 -1.1126  0.3062  0.2142
  735MOL0     H99182   5.565   5.047   3.527 -0.1427  0.9058  0.4167
  735MOL0     H99183   5.768   5.168   3.643  0.0936  0.2626 -0.8935
  735MOL0     H99184   5.617   5.144   3.731 -0.1093  1.5105  0.4135
  735MOL0     H99185   5.821   5.266   3.440  1.4857 -0.7452 -0.6882
  735MOL0     H99186   6.072   5.396   3.342 -0.9634 -0.9603  0.0622
  735MOL0     H99187   5.936   5.327   3.237 -0.7821 -1.4115  1.6090
  735MOL0     H99188   6.013   5.486   3.213  3.4813 -2.7196 -0.1653
  735MOL0     H99189   5.963   6.028   3.223 -1.2324  0.0949  0.0937
  735MOL0     H99190   6.151   6.200   3.289  2.1721  0.1583  1.9551
  735MOL0     H99191   6.334   6.183   3.693 -1.1866 -0.7649  0.4294
  735MOL0     H99192   6.439   6.114   3.562 -2.2485  0.0523 -1.4128
  735MOL0     H99193   6.442   6.363   3.470 -3.1343 -1.2389 -0.6975
  735MOL0     H99194   6.401   6.422   3.622 -0.4607  1.4484 -0.6675
  735MOL0     H99195   6.639   6.252   3.551 -0.5072 -2.2247  1.9481
  735MOL0     H99196   6.610   6.309   3.722 -0.0825 -0.5931 -0.0971
  735MOL0     H99197   6.650   6.471   3.464 -1.4025 -1.2145 -1.0546
  735MOL0     H99198   6.610   6.543   3.622  0.3885  0.7834 -0.8815
  735MOL0     H99199   6.842   6.564   3.524  1.7063 -0.2400  0.4228
  735MOL0     H99200   6.881   6.403   3.541 -2.0521  0.2570 -1.4603
  735MOL0     H99201   6.877   6.604   3.757  0.3008  1.5653 -0.9826
  735MOL0     H99202   6.802   6.457   3.806 -0.9188 -0.8882 -2.5556
  735MOL0     H99203   7.097   6.491   3.685 -0.5172  0.3494 -0.9399
  735MOL0     H99204   7.022   6.336   3.743 -2.6589 -0.7898 -1.7566
  735MOL0     H99205   7.003   6.445   3.976 -1.3121 -0.6286 -2.1680
  735MOL0     H99206   7.043   6.593   3.896 -0.9554 -0.4983  0.8793
  735MOL0     H99207   6.208   6.021   3.663  0.4974  0.7923  0.8279
  735MOL0     H99208   6.060   5.826   3.599  4.4286  0.8058  2.4653
  735MOL0     H99209   5.771   5.741   3.557 -0.2312 -1.1026  2.9153
  735MOL0     H99210   5.671   5.576   3.698  2.2667 -1.2809  1.7586
  735MOL0     H99211   4.086   5.792   3.369 -0.2133  1.7999  0.5402
  735MOL0     H99212   4.143   6.029   3.382 -0.9832  0.3353 -1.2458
  735MOL0     H99213   4.224   6.374   3.282 -1.8368  2.2616  0.4018
  735MOL0     H99214   4.174   6.617   3.235 -0.0047  0.1160 -1.0529
  735MOL0     H99215   4.169   6.821   3.153 -1.3264  0.3080  1.1301
  735MOL0     H99216   4.216   6.813   3.315 -1.1864 -0.4212 -0.5579
  735MOL0     H99217   4.249   7.055   3.156 -1.0077 -0.3129 -0.4100
  735MOL0     H99218   4.313   7.041   3.322 -0.4776 -0.1626 -0.2623
  735MOL0     H99219   4.098   7.156   3.309  1.6969  0.2699 -0.9251
  735MOL0     H99220   4.085   7.011   3.409 -1.6686 -2.5030 -1.5201
  735MOL0     H99221   3.967   6.894   3.274 -0.4164  1.0565  2.8974
  735MOL0     H99222   4.011   7.002   3.129  1.2723  2.3997  0.3071
  735MOL0     H99223   3.718   7.211   3.362  0.1660 -0.0999 -0.9339
  735MOL0     H99224   4.597   6.679   3.198  2.0943 -2.2149 -1.3541
  735MOL0     H99225   4.648   6.452   3.220  0.1956  0.6619 -2.0850
  736MOL0     O99226  10.726   6.511   2.399  0.3305 -0.1099  0.4320
  736MOL0     C99227  10.685   6.626   2.402 -1.0621 -0.2397  0.2744
  736MOL0     O99228  10.614   6.677   2.302 -0.7208 -0.8803 -0.7916
  736MOL0     C99229  10.552   6.592   2.222 -0.7411  0.1364 -0.3141
  736MOL0     C99230  10.617   6.540   2.112  0.8948 -0.1231  0.2077
  736MOL0     C99231  10.555   6.462   2.020  0.3757 -0.5257 -0.2737
  736MOL0     C99232  10.422   6.412   2.042 -0.6539 -0.4455 -0.2223
  736MOL0     O99233  10.363   6.304   1.976  0.6786 -0.6365 -0.0430
  736MOL0     C99234  10.412   6.254   1.845  0.0903  0.3984  0.1568
  736MOL0     C99235  10.536   6.170   1.858 -0.1434  0.7957  0.4683
  736MOL0     C99236  10.513   6.034   1.908 -0.1305 -0.2853  0.0196
  736MOL0     C99237  10.475   5.935   1.795  1.5247 -0.4343 -0.1490
  736MOL0     C99238  10.480   5.795   1.846 -0.0525 -0.2996  0.7428
  736MOL0     C99239  10.503   5.688   1.737  0.4154 -0.3971 -0.3511
  736MOL0     C99240  10.570   5.562   1.797  0.1717 -0.3733 -0.1329
  736MOL0     C99241  10.465   5.462   1.848  0.0183  0.5488 -0.2642
  736MOL0     N99242  10.524   5.358   1.942 -0.7571  0.9701  0.6732
  736MOL0     C99243  10.584   5.376   2.066  0.2520 -0.2664 -0.3345
  736MOL0     C99244  10.614   5.248   2.113  0.5756 -0.3513  0.7413
  736MOL0     C99245  10.664   5.214   2.258  0.2463 -0.4877 -0.5186
  736MOL0     C99246  10.534   5.200   2.342  0.3441  1.2048  0.8337
  736MOL0     C99247  10.454   5.072   2.310 -0.4612  0.3521 -0.9591
  736MOL0     C99248  10.363   5.029   2.425  0.2963  0.1842 -0.7299
  736MOL0     O99249  10.451   4.977   2.533  0.3165 -0.9106  0.1774
  736MOL0     C99250  10.386   4.957   2.659 -1.0336 -0.0732  0.1070
  736MOL0     C99251  10.425   5.049   2.766  1.0097  0.1426 -0.4769
  736MOL0     C99252  10.358   5.063   2.886  0.2779  0.2119 -0.0604
  736MOL0     C99253  10.409   5.161   2.991 -0.4342 -0.3135 -0.4246
  736MOL0     C99254  10.257   4.964   2.907 -0.0922  0.0922  0.0186
  736MOL0     C99255  10.166   4.961   3.025 -0.2529  0.2219  0.5289
  736MOL0     O99256  10.155   5.069   3.116 -0.8446  0.7256  0.5335
  736MOL0     C99257  10.094   5.031   3.226 -0.1078  0.2729  0.0015
  736MOL0     C99258   9.961   5.081   3.237 -0.0708 -0.6338  0.0665
  736MOL0     C99259   9.883   5.069   3.359 -0.0641  0.2655  1.1212
  736MOL0     C99260   9.936   4.999   3.472 -0.1680 -0.0609  0.2212
  736MOL0     O99261   9.858   4.993   3.589  0.6768 -0.2910 -0.0276
  736MOL0     C99262   9.879   4.905   3.698  0.3201  0.4197 -0.1940
  736MOL0     C99263   9.747   4.894   3.790  0.0742 -1.5480  0.0563
  736MOL0     C99264   9.762   4.781   3.901 -0.1187  0.6478 -0.1796
  736MOL0     C99265   9.638   4.786   3.991 -0.2084  0.3603  0.2019
  736MOL0     C99266   9.645   4.704   4.119 -0.0592 -0.2202 -0.4052
  736MOL0     C99267   9.506   4.684   4.174  1.3369  0.4839  0.5409
  736MOL0     C99268   9.510   4.599   4.306  0.1905  0.4800  0.6329
  736MOL0     C99269   9.387   4.516   4.327 -0.4614  0.1370 -0.4346
  736MOL0    Cl99270   9.424   4.416   4.463  0.2624  0.2758  0.0745
  736MOL0     C99271  10.058   4.922   3.443 -0.2830  0.7153  0.6468
  736MOL0     C99272  10.136   4.953   3.329 -0.7234  0.5862 -0.1046
  736MOL0     O99273  10.127   4.849   3.050 -1.2185 -0.2779  0.2009
  736MOL0     C99274  10.218   4.881   2.799  0.3494 -0.2827 -0.6553
  736MOL0     C99275  10.286   4.868   2.672 -0.1958 -0.2834 -0.9601
  736MOL0     N99276  10.582   5.155   2.019  0.7251  0.4967  0.3565
  736MOL0     N99277  10.534   5.225   1.908  0.6250 -0.2759 -0.6661
  736MOL0     C99278  10.364   6.441   2.167 -0.1032 -0.3955  0.0957
  736MOL0     C99279  10.424   6.538   2.249  0.5677  1.2804 -0.2174
  736MOL0     C99280  10.726   6.708   2.511 -1.3721 -1.5783  0.0347
  736MOL0     C99281  10.813   6.650   2.605  0.4419 -0.1669  0.4735
  736MOL0     C99282  10.844   6.722   2.724 -0.5181 -0.0228  0.6380
  736MOL0     C99283  10.806   6.856   2.733 -0.3702  0.8285 -0.8017
  736MOL0     O99284  10.859   6.917   2.847  0.0085 -0.0623  0.4027
  736MOL0     C99285  10.862   7.061   2.862  0.6035  0.5277  0.0661
  736MOL0     C99286  10.926   7.103   2.995 -0.4530 -0.3469  0.4122
  736MOL0     C99287  10.989   7.240   2.983 -1.2916 -0.4640  0.0645
  736MOL0     C99288  11.022   7.307   3.123 -0.3022 -0.0936 -0.2048
  736MOL0     C99289  11.071   7.445   3.122  0.0463  0.7988 -0.6741
  736MOL0     C99290  11.116   7.557   3.114  0.5749  0.3357 -0.4206
  736MOL0     C99291  10.730   6.916   2.626  0.3359  0.3953 -0.1778
  736MOL0     C99292  10.687   6.842   2.522  0.4101  0.3409  1.0678
  736MOL0     H99293  10.719   6.573   2.099  0.5683  1.6989  1.7999
  736MOL0     H99294  10.622   6.429   1.941  0.4938  0.0041 -0.3977
  736MOL0     H99295  10.330   6.197   1.801 -0.9508  0.2339  2.1689
  736MOL0     H99296  10.445   6.336   1.780 -0.7062 -0.5727 -1.5347
  736MOL0     H99297  10.589   6.171   1.762  1.1363  1.3298  1.1427
  736MOL0     H99298  10.604   6.229   1.920 -0.9218  4.5400 -1.9114
  736MOL0     H99299  10.604   5.997   1.955 -0.2560 -1.6284 -0.7173
  736MOL0     H99300  10.446   6.038   1.995  1.1240 -5.6026  1.6000
  736MOL0     H99301  10.371   5.952   1.768  0.0859 -0.0941  4.6280
  736MOL0     H99302  10.551   5.953   1.718  1.5348  2.9439  0.4915
  736MOL0     H99303  10.562   5.790   1.918 -0.3294  3.0462  1.4660
  736MOL0     H99304  10.387   5.770   1.898  0.3446  0.1461  1.6954
  736MOL0     H99305  10.410   5.650   1.694  0.7999 -0.4561 -1.1359
  736MOL0     H99306  10.568   5.722   1.656  1.0839  3.7595  1.6677
  736MOL0     H99307  10.628   5.500   1.729 -0.1225 -0.4676 -0.3016
  736MOL0     H99308  10.628   5.600   1.881 -2.6099  2.2452  0.8045
  736MOL0     H99309  10.422   5.418   1.758 -0.3507 -0.9144  0.5818
  736MOL0     H99310  10.379   5.503   1.902  1.2625  2.2339  0.5237
  736MOL0     H99311  10.594   5.478   2.103 -0.5472 -0.3934  0.2547
  736MOL0     H99312  10.713   5.116   2.252  1.7783  0.2558 -0.6949
  736MOL0     H99313  10.736   5.287   2.295 -2.5533  1.8354  0.6538
  736MOL0     H99314  10.469   5.280   2.307  0.1060  0.1491 -1.2906
  736MOL0     H99315  10.547   5.218   2.449  0.3902  4.9613  0.3088
  736MOL0     H99316  10.520   4.987   2.293 -2.8925 -2.8047  3.4450
  736MOL0     H99317  10.387   5.095   2.226  0.7189  2.6084 -1.3541
  736MOL0     H99318  10.290   4.953   2.395  2.7269 -2.1625 -1.1587
  736MOL0     H99319  10.309   5.118   2.458  3.5040  2.0074  0.0990
  736MOL0     H99320  10.501   5.124   2.746  2.4946 -1.3597 -0.6218
  736MOL0     H99321  10.516   5.186   2.988 -0.8895  1.7751 -0.9859
  736MOL0     H99322  10.354   5.255   2.976  0.7534 -0.1049 -5.1745
  736MOL0     H99323  10.389   5.132   3.094 -1.8173  2.8721  0.3184
  736MOL0     H99324   9.920   5.139   3.154  0.2280 -0.3277  0.1320
  736MOL0     H99325   9.790   5.123   3.342  1.3471  1.9720 -2.1358
  736MOL0     H99326   9.906   4.806   3.660 -0.4712  0.0954  0.0606
  736MOL0     H99327   9.970   4.942   3.745  3.5164 -3.1964 -2.8884
  736MOL0     H99328   9.715   4.992   3.827  0.8687 -2.4336  3.3825
  736MOL0     H99329   9.669   4.852   3.725  0.0135  0.2342 -1.0800
  736MOL0     H99330   9.843   4.797   3.974  1.3560 -1.4769 -1.2316
  736MOL0     H99331   9.797   4.691   3.849  0.3624  0.7100  0.0284
  736MOL0     H99332   9.624   4.892   4.017  0.9228  0.4140  0.6109
  736MOL0     H99333   9.550   4.764   3.929  0.1899  0.0471 -0.2569
  736MOL0     H99334   9.689   4.760   4.202 -2.0835 -0.8409  1.1464
  736MOL0     H99335   9.706   4.617   4.094 -0.1869 -0.8410  1.3283
  736MOL0     H99336   9.461   4.781   4.196 -0.6375 -0.8565  2.9558
  736MOL0     H99337   9.443   4.638   4.097 -0.7802  2.7751  0.7837
  736MOL0     H99338   9.518   4.679   4.380  5.2861  0.3796  0.5412
  736MOL0     H99339   9.591   4.527   4.319  0.1712  0.5993  1.4607
  736MOL0     H99340   9.362   4.457   4.238  2.1006  0.0530 -1.1703
  736MOL0     H99341   9.301   4.577   4.356  0.3668  0.1603  2.2477
  736MOL0     H99342  10.096   4.855   3.520 -3.4412 -1.6181  0.3874
  736MOL0     H99343  10.238   4.915   3.328 -0.8204  0.3393 -0.6026
  736MOL0     H99344  10.143   4.805   2.820  1.8358 -1.3755  1.0619
  736MOL0     H99345  10.260   4.787   2.604  0.2662 -1.7047  0.4980
  736MOL0     H99346  10.274   6.385   2.190  0.4635 -2.5976 -2.5259
  736MOL0     H99347  10.372   6.576   2.336 -1.4514  1.5792 -1.4874
  736MOL0     H99348  10.851   6.548   2.607  0.7910 -0.0728  3.5851
  736MOL0     H99349  10.897   6.674   2.806 -0.2775  0.2659  0.6524
  736MOL0     H99350  10.897   7.107   2.770  1.2622 -0.1210 -0.0186
  736MOL0     H99351  10.759   7.096   2.871  0.0095 -1.5551  3.0227
  736MOL0     H99352  11.000   7.033   3.034 -0.4292  0.3453  1.6618
  736MOL0     H99353  10.850   7.111   3.073 -2.9060 -0.2707 -1.8274
  736MOL0     H99354  10.925   7.307   2.925 -0.8244 -1.6021 -1.8281
  736MOL0     H99355  11.083   7.222   2.930 -0.5355  1.8494  0.4770
  736MOL0     H99356  11.096   7.242   3.172 -1.9859  0.0271  2.7088
  736MOL0     H99357  10.941   7.304   3.196 -1.3462 -0.0713 -1.3409
  736MOL0     H99358  11.166   7.651   3.106 -0.5303  0.8004 -2.6753
  736MOL0     H99359  10.707   7.020   2.650  1.0923  0.1703  1.6589
  736MOL0     H99360  10.624   6.888   2.446  1.0032  1.8702  1.4485
  737MOL0     O99361   1.910   9.410   7.376 -0.9507  0.6061 -0.9721
  737MOL0     C99362   1.837   9.438   7.467  0.2890 -0.3003 -0.2540
  737MOL0     O99363   1.701   9.458   7.456 -0.6188  0.2253 -0.4203
  737MOL0     C99364   1.640   9.400   7.352  0.3216  0.1183  0.2289
  737MOL0     C99365   1.571   9.467   7.253  0.7931 -1.0616 -0.0495
  737MOL0     C99366   1.498   9.387   7.169  0.3772  0.0773 -0.2444
  737MOL0     C99367   1.487   9.253   7.175 -0.4200 -0.4565 -0.4165
  737MOL0     O99368   1.409   9.195   7.083  0.6229 -0.3904 -0.9718
  737MOL0     C99369   1.291   9.126   7.132 -0.6538  0.4178 -0.8489
  737MOL0     C99370   1.183   9.165   7.032  0.5526 -1.2757 -0.4456
  737MOL0     C99371   1.056   9.093   7.069  0.5343 -0.2394  0.8527
  737MOL0     C99372   1.004   9.024   6.946  0.7363  0.9372  0.6583
  737MOL0     C99373   0.867   8.963   6.978  0.8504 -0.6628 -0.5141
  737MOL0     C99374   0.794   8.887   6.859 -0.2967 -0.5687  0.6249
  737MOL0     C99375   0.676   8.810   6.915  0.1818  0.1748  0.2232
  737MOL0     C99376   0.621   8.722   6.806  0.0501 -0.3604  0.4503
  737MOL0     N99377   0.609   8.784   6.670 -0.3725  0.7021  0.3370
  737MOL0     C99378   0.536   8.896   6.633  0.9186 -0.5544 -0.1161
  737MOL0     C99379   0.533   8.892   6.487 -0.4922  0.1845 -1.4058
  737MOL0     C99380   0.466   8.994   6.400 -0.5100 -0.6802  0.9617
  737MOL0     C99381   0.326   9.035   6.445 -0.6843 -0.1255 -0.1556
  737MOL0     C99382   0.264   9.142   6.347  0.0680  0.8573  0.0274
  737MOL0     C99383   0.251   9.106   6.194  0.5026 -0.4087 -0.0878
  737MOL0     O99384   0.356   9.172   6.123 -0.2318 -0.3736  0.7333
  737MOL0     C99385   0.343   9.146   5.993 -0.9345 -1.0354  0.7409
  737MOL0     C99386   0.236   9.082   5.917  0.0469  0.1834 -0.1874
  737MOL0     C99387   0.219   9.079   5.774 -0.3049 -0.1596 -0.5366
  737MOL0     C99388   0.084   9.054   5.723  0.3846 -0.3146 -0.2821
  737MOL0     C99389   0.327   9.123   5.701  0.3332  0.1578  0.3943
  737MOL0     C99390   0.340   9.128   5.559  0.4630 -0.0093  0.7017
  737MOL0     O99391   0.226   9.105   5.495  0.3829 -0.0925  0.9395
  737MOL0     C99392   0.238   9.092   5.361  0.5188 -0.4023  0.3863
  737MOL0     C99393   0.201   8.979   5.305  0.4796 -0.6130  0.3116
  737MOL0     C99394   0.193   8.970   5.167  0.3174  0.2561  0.1705
  737MOL0     C99395   0.214   9.073   5.072  0.7191  0.1346 -1.5108
  737MOL0     O99396   0.189   9.080   4.940 -0.2271 -0.5971 -0.0174
  737MOL0     C99397   0.087   8.995   4.882 -0.0002 -0.5997 -0.3790
  737MOL0     C99398  -0.051   9.037   4.917 -0.2588 -0.4059 -0.0492
  737MOL0     C99399  -0.158   8.968   4.834 -0.3649  0.7670 -0.8000
  737MOL0     C99400  -0.295   9.042   4.850 -0.0022  0.2397  0.4399
  737MOL0     C99401  -0.398   9.008   4.740 -0.0206  0.1366 -1.0923
  737MOL0     C99402  -0.538   9.040   4.806  0.1970  0.5926  0.1502
  737MOL0     C99403  -0.634   9.037   4.691 -0.4662  0.0254 -0.1624
  737MOL0     C99404  -0.640   9.173   4.620  0.8777 -1.9169 -0.6757
  737MOL0    Cl99405  -0.535   9.203   4.487  0.2184  0.1893  0.5266
  737MOL0     C99406   0.250   9.189   5.140  0.1882 -0.2405  0.4643
  737MOL0     C99407   0.273   9.197   5.279 -0.2190  1.0325  0.1448
  737MOL0     O99408   0.444   9.153   5.509 -0.9328 -0.4443 -0.2891
  737MOL0     C99409   0.436   9.175   5.775 -0.0516 -0.4348  0.1437
  737MOL0     C99410   0.443   9.200   5.912  0.2573 -1.0394 -0.7136
  737MOL0     N99411   0.613   8.788   6.455  0.0503  0.5611  1.0969
  737MOL0     N99412   0.648   8.718   6.561 -0.3525 -0.1931  1.4503
  737MOL0     C99413   1.561   9.182   7.269 -0.4727 -0.0353 -1.2891
  737MOL0     C99414   1.629   9.261   7.359  1.0940  0.8257  0.0728
  737MOL0     C99415   1.909   9.471   7.594  0.0277 -0.5519  0.5905
  737MOL0     C99416   1.853   9.533   7.710  0.2111 -0.2948 -0.6164
  737MOL0     C99417   1.934   9.557   7.826 -0.2389 -0.3600 -1.1511
  737MOL0     C99418   2.066   9.519   7.836 -0.7006 -1.1553 -0.0393
  737MOL0     O99419   2.127   9.565   7.950  0.9603  0.1892 -0.4748
  737MOL0     C99420   2.249   9.505   7.993 -0.4527 -0.5736 -0.4091
  737MOL0     C99421   2.204   9.380   8.080  0.4621  0.7352 -0.1271
  737MOL0     C99422   2.331   9.334   8.160 -0.1148  0.4745 -0.1397
  737MOL0     C99423   2.326   9.185   8.177 -1.1029 -1.1086 -0.0319
  737MOL0     C99424   2.226   9.141   8.273  0.1112 -1.0713 -0.1883
  737MOL0     C99425   2.135   9.098   8.338 -0.9620  0.8563 -0.7292
  737MOL0     C99426   2.124   9.461   7.727 -0.0589  0.0299  0.0921
  737MOL0     C99427   2.052   9.440   7.600 -0.1060 -0.4932  0.6831
  737MOL0     H99428   1.566   9.576   7.246  3.0230 -0.9196  0.0549
  737MOL0     H99429   1.438   9.446   7.100  0.0358 -0.2814 -0.2602
  737MOL0     H99430   1.309   9.018   7.140  1.5774  0.8477  1.2784
  737MOL0     H99431   1.264   9.145   7.236 -0.1523 -2.1325 -0.1694
  737MOL0     H99432   1.162   9.273   7.032  1.2637 -1.0851  1.9156
  737MOL0     H99433   1.210   9.138   6.930  1.1988 -1.1429 -0.3093
  737MOL0     H99434   1.069   9.019   7.149  2.3294 -0.2578  0.5736
  737MOL0     H99435   0.980   9.163   7.104  2.1634  1.4169  1.2247
  737MOL0     H99436   0.990   9.096   6.864 -1.8070  1.7989  1.7280
  737MOL0     H99437   1.068   8.952   6.893 -0.0747  2.2577 -2.3760
  737MOL0     H99438   0.876   8.892   7.061 -0.3888 -0.7449 -0.4300
  737MOL0     H99439   0.807   9.050   7.006  2.7044  1.1299 -1.8383
  737MOL0     H99440   0.763   8.970   6.796  1.9325 -0.3266 -0.2277
  737MOL0     H99441   0.868   8.822   6.811 -0.7402  0.0025 -0.8704
  737MOL0     H99442   0.720   8.746   6.992 -3.2586 -2.8130 -0.0424
  737MOL0     H99443   0.604   8.882   6.954  1.6058  1.1873  1.0576
  737MOL0     H99444   0.530   8.674   6.843  2.2431 -2.9720  2.9573
  737MOL0     H99445   0.686   8.634   6.805  1.7870  0.7879  2.5263
  737MOL0     H99446   0.498   8.960   6.713  1.8379  0.2539 -0.3095
  737MOL0     H99447   0.519   9.087   6.421 -2.3808 -0.0565  3.3214
  737MOL0     H99448   0.474   8.967   6.294  0.5244  1.0617  0.5608
  737MOL0     H99449   0.314   9.082   6.543 -0.7555 -2.1749  0.8788
  737MOL0     H99450   0.264   8.945   6.454 -0.1562 -0.4984 -0.1899
  737MOL0     H99451   0.321   9.234   6.358  2.5857 -0.5517 -0.4219
  737MOL0     H99452   0.164   9.154   6.389 -0.3606 -0.4360 -0.5618
  737MOL0     H99453   0.155   9.146   6.159 -0.0671  0.1954  2.0092
  737MOL0     H99454   0.268   8.999   6.180 -0.5886 -0.5971 -0.0838
  737MOL0     H99455   0.155   9.043   5.977 -0.9077  2.2688 -0.0453
  737MOL0     H99456   0.085   8.966   5.658  1.8054  0.5742 -1.4940
  737MOL0     H99457   0.021   9.033   5.811 -1.7604  0.5026 -1.5476
  737MOL0     H99458   0.043   9.138   5.667 -0.8918 -0.5558  0.2368
  737MOL0     H99459   0.165   8.898   5.369 -3.5548 -0.5393 -1.5561
  737MOL0     H99460   0.168   8.871   5.129  0.1618 -0.4891  2.0771
  737MOL0     H99461   0.105   8.982   4.775  1.2611 -2.7538  0.0229
  737MOL0     H99462   0.110   8.895   4.920  2.7934  0.6241  1.5184
  737MOL0     H99463  -0.076   9.020   5.022  1.5217  1.9807  0.8528
  737MOL0     H99464  -0.059   9.146   4.917 -2.9148 -0.5293 -0.4114
  737MOL0     H99465  -0.174   8.867   4.874  0.9942  0.2269 -1.5500
  737MOL0     H99466  -0.138   8.974   4.727 -1.2692  2.3257 -0.9147
  737MOL0     H99467  -0.336   9.018   4.948  2.1381 -0.8516  1.1326
  737MOL0     H99468  -0.284   9.150   4.835 -2.6243  0.2977 -1.9838
  737MOL0     H99469  -0.394   8.901   4.718  3.5670 -0.0131 -0.4239
  737MOL0     H99470  -0.362   9.061   4.652 -0.6806  2.9948  0.2246
  737MOL0     H99471  -0.574   8.961   4.872  1.5538 -1.3209 -1.2793
  737MOL0     H99472  -0.535   9.140   4.850 -0.3284  0.7275 -0.1146
  737MOL0     H99473  -0.730   8.994   4.721  1.6037 -4.2363  1.2299
  737MOL0     H99474  -0.596   8.960   4.623 -0.8070  0.2318 -0.5894
  737MOL0     H99475  -0.612   9.249   4.693  3.0662 -4.4859  1.3827
  737MOL0     H99476  -0.738   9.199   4.580  2.3615  0.7943 -2.8927
  737MOL0     H99477   0.259   9.280   5.083  0.9940  0.5323  1.7738
  737MOL0     H99478   0.296   9.296   5.318  1.7236  0.9240 -0.6293
  737MOL0     H99479   0.524   9.214   5.725 -0.2484 -0.7551 -0.4611
  737MOL0     H99480   0.537   9.243   5.946  0.7570 -3.4183  1.2577
  737MOL0     H99481   1.560   9.074   7.280 -1.6596  0.1116  0.5287
  737MOL0     H99482   1.667   9.211   7.448 -1.0288 -1.0033  0.0463
  737MOL0     H99483   1.750   9.568   7.712 -0.0067 -0.9421 -0.2648
  737MOL0     H99484   1.897   9.600   7.918  2.1025  0.8036 -0.6850
  737MOL0     H99485   2.328   9.475   7.923  2.1024  1.4756  1.4130
  737MOL0     H99486   2.296   9.578   8.059 -3.4065  2.9090 -1.8155
  737MOL0     H99487   2.158   9.300   8.021 -2.9402  2.6120 -0.2763
  737MOL0     H99488   2.132   9.408   8.158 -0.6495 -0.4137 -0.7073
  737MOL0     H99489   2.334   9.386   8.256  1.3772  0.6218 -0.2340
  737MOL0     H99490   2.428   9.353   8.113 -0.3040 -3.1862 -2.4289
  737MOL0     H99491   2.420   9.159   8.226 -2.5466 -2.8616  1.9769
  737MOL0     H99492   2.328   9.133   8.081 -0.5969  0.6560 -1.0401
  737MOL0     H99493   2.052   9.067   8.397  0.4480 -0.6412  0.5686
  737MOL0     H99494   2.231   9.475   7.722 -0.2133  1.7263  0.8596
  737MOL0     H99495   2.107   9.395   7.518  1.9510  1.2504  1.0173
  738MOL0     O99496   4.165   6.088   7.293 -0.7667 -0.4768 -0.8672
  738MOL0     C99497   4.190   5.996   7.219  0.5421 -0.4954  0.3923
  738MOL0     O99498   4.290   5.993   7.122  0.3032 -0.0593  0.2878
  738MOL0     C99499   4.345   6.102   7.060 -0.2854  0.7488 -0.0385
  738MOL0     C99500   4.294   6.238   7.069  0.0941 -0.1990 -0.6337
  738MOL0     C99501   4.351   6.338   6.988 -0.4130  0.2413 -0.1315
  738MOL0     C99502   4.452   6.313   6.900  0.6706  0.2602  0.3160
  738MOL0     O99503   4.502   6.407   6.821 -0.4561 -0.7141 -1.3613
  738MOL0     C99504   4.432   6.442   6.702  0.2805 -0.5818 -0.4753
  738MOL0     C99505   4.534   6.473   6.593  0.0859  0.1085 -1.2517
  738MOL0     C99506   4.468   6.475   6.451 -0.0483  1.1271 -0.3323
  738MOL0     C99507   4.374   6.597   6.431  0.8739  0.8212 -0.7597
  738MOL0     C99508   4.349   6.605   6.284  0.3919  0.3784  0.1406
  738MOL0     C99509   4.268   6.718   6.253  0.9810 -0.2345 -0.3402
  738MOL0     C99510   4.240   6.729   6.100 -0.3596  0.8921 -0.3820
  738MOL0     C99511   4.136   6.622   6.062 -0.9242 -0.5306 -0.3011
  738MOL0     N99512   4.057   6.633   5.940  0.2943 -0.3692 -0.0762
  738MOL0     C99513   4.094   6.603   5.810  0.1565 -0.2067 -0.2509
  738MOL0     C99514   3.981   6.614   5.743  0.2433  0.6663 -0.8326
  738MOL0     C99515   3.991   6.627   5.587 -0.1730  0.7501  0.0936
  738MOL0     C99516   3.853   6.619   5.516  0.6357  0.0352 -0.1725
  738MOL0     C99517   3.850   6.556   5.372 -0.6598 -0.1274  0.1202
  738MOL0     C99518   3.713   6.517   5.321 -1.3263  0.6404 -0.1332
  738MOL0     O99519   3.700   6.549   5.185 -0.2200 -0.6145 -0.0896
  738MOL0     C99520   3.772   6.488   5.083 -0.6744  0.6059 -0.5532
  738MOL0     C99521   3.863   6.378   5.109  0.9243  0.0293 -0.3613
  738MOL0     C99522   3.940   6.321   4.997  0.7577 -0.2460  0.4767
  738MOL0     C99523   4.026   6.203   5.020 -1.2241  0.0830  0.1572
  738MOL0     C99524   3.920   6.373   4.865 -0.6355 -0.4008  0.6528
  738MOL0     C99525   3.982   6.332   4.737 -0.4515 -0.6149 -0.4313
  738MOL0     O99526   3.904   6.339   4.628 -0.8641  0.0960 -0.4274
  738MOL0     C99527   3.944   6.291   4.509 -0.8899  0.0791  0.3237
  738MOL0     C99528   3.960   6.379   4.405  0.3038  0.1249 -0.5110
  738MOL0     C99529   4.002   6.329   4.277 -0.2542 -0.7049 -0.1516
  738MOL0     C99530   4.046   6.197   4.263 -0.0506 -0.9946  0.0998
  738MOL0     O99531   4.105   6.149   4.151 -1.1002 -0.4067 -0.3768
  738MOL0     C99532   4.013   6.106   4.045 -0.3273  0.2538  1.0534
  738MOL0     C99533   3.990   6.221   3.938 -0.6475  0.0324  0.4322
  738MOL0     C99534   4.101   6.250   3.842 -0.5209  0.0379  0.6193
  738MOL0     C99535   4.131   6.398   3.802  0.9232  1.1463  1.3499
  738MOL0     C99536   4.175   6.473   3.923  0.4369  0.4879  0.2328
  738MOL0     C99537   4.215   6.621   3.898  0.8612  1.1744  0.9261
  738MOL0     C99538   4.302   6.672   4.014 -0.1576 -0.4444  0.7802
  738MOL0     C99539   4.226   6.649   4.149  0.6662 -0.0742 -0.2521
  738MOL0    Cl99540   4.069   6.730   4.148 -0.1064 -0.0912 -0.7873
  738MOL0     C99541   4.023   6.109   4.373 -0.7059  0.3271  0.4286
  738MOL0     C99542   3.984   6.154   4.494 -0.2299  0.7217 -0.3638
  738MOL0     O99543   4.101   6.300   4.732  0.5972  0.2799  0.6341
  738MOL0     C99544   3.828   6.468   4.856  0.0091 -0.6349 -0.7134
  738MOL0     C99545   3.748   6.520   4.956  0.9324  0.4450 -0.1368
  738MOL0     N99546   3.874   6.647   5.822  0.1300  0.2995 -0.6026
  738MOL0     N99547   3.926   6.674   5.937  0.2766  0.3910 -0.0986
  738MOL0     C99548   4.513   6.186   6.896  0.6204  0.9124 -0.8748
  738MOL0     C99549   4.451   6.075   6.972  0.3350  0.0193 -0.1315
  738MOL0     C99550   4.115   5.868   7.225 -0.5724 -0.6026 -0.3433
  738MOL0     C99551   4.068   5.828   7.352  0.4793  0.2298 -0.0854
  738MOL0     C99552   4.038   5.695   7.371  0.3906  0.4953  0.0943
  738MOL0     C99553   4.051   5.600   7.268  0.8683 -0.2397 -0.2369
  738MOL0     O99554   4.026   5.466   7.293 -0.0361 -0.0180 -0.0288
  738MOL0     C99555   4.004   5.374   7.190 -0.2008 -0.9200  0.0817
  738MOL0     C99556   3.944   5.241   7.250 -0.5193  0.4853  0.6660
  738MOL0     C99557   4.030   5.162   7.352  0.5968 -0.1817  1.4895
  738MOL0     C99558   3.962   5.043   7.401 -0.1642 -0.3329 -0.9575
  738MOL0     C99559   3.942   4.924   7.316  0.4475 -0.9926 -0.3786
  738MOL0     C99560   3.922   4.829   7.243  0.9312  0.0494 -0.6097
  738MOL0     C99561   4.087   5.640   7.135 -1.2864 -0.9080 -1.3012
  738MOL0     C99562   4.118   5.775   7.114 -0.3412 -0.2218  0.2431
  738MOL0     H99563   4.227   6.276   7.145 -1.4152 -1.5234 -1.2546
  738MOL0     H99564   4.317   6.440   7.003 -1.2202 -0.3476  2.4300
  738MOL0     H99565   4.378   6.353   6.667  0.5045 -1.6331  1.6972
  738MOL0     H99566   4.364   6.528   6.706 -0.2750 -1.0613  0.8147
  738MOL0     H99567   4.586   6.567   6.614  2.5812 -1.7408  1.5415
  738MOL0     H99568   4.606   6.391   6.605 -2.4929 -2.6851 -3.2548
  738MOL0     H99569   4.550   6.473   6.380  0.7154 -0.0825  0.5394
  738MOL0     H99570   4.419   6.377   6.440  3.0065 -0.6747  0.9527
  738MOL0     H99571   4.281   6.582   6.486  1.3546 -3.2327 -0.6933
  738MOL0     H99572   4.416   6.694   6.461 -0.1331  2.2943 -3.7651
  738MOL0     H99573   4.445   6.627   6.236  0.0481  1.9492  0.1213
  738MOL0     H99574   4.309   6.512   6.242  2.4603  0.5604 -2.5145
  738MOL0     H99575   4.170   6.727   6.300  0.1522  1.5841 -2.2351
  738MOL0     H99576   4.331   6.805   6.276  0.7896 -0.5384  1.4379
  738MOL0     H99577   4.196   6.823   6.066 -0.4488  2.6152  3.9711
  738MOL0     H99578   4.329   6.692   6.049 -0.8012  0.2360 -0.7003
  738MOL0     H99579   4.072   6.594   6.147  0.8774 -1.9862  0.6495
  738MOL0     H99580   4.197   6.533   6.047  1.1547  0.7535  0.1400
  738MOL0     H99581   4.195   6.589   5.773  0.9303  2.1368  0.7528
  738MOL0     H99582   4.050   6.715   5.560 -1.2610  1.7440  0.8727
  738MOL0     H99583   4.050   6.543   5.548 -0.7860  1.0532 -1.5698
  738MOL0     H99584   3.802   6.716   5.508 -1.4097 -0.9971 -0.2799
  738MOL0     H99585   3.791   6.549   5.573  1.5310 -2.1055 -1.7018
  738MOL0     H99586   3.907   6.462   5.378 -1.7657 -0.8141  0.1290
  738MOL0     H99587   3.893   6.618   5.294 -0.9591 -0.9648 -0.7343
  738MOL0     H99588   3.637   6.573   5.377 -1.3928 -1.4041  1.9762
  738MOL0     H99589   3.698   6.411   5.339 -3.3467  0.5284 -2.0693
  738MOL0     H99590   3.868   6.333   5.208 -0.3793  1.7941  0.5500
  738MOL0     H99591   4.051   6.141   4.933 -0.5700 -3.3315  2.5401
  738MOL0     H99592   4.121   6.228   5.068 -0.6517  1.0459 -1.4381
  738MOL0     H99593   3.994   6.136   5.101 -0.2448  0.4715  0.8878
  738MOL0     H99594   3.917   6.476   4.428 -0.5307  0.1376 -2.0151
  738MOL0     H99595   4.003   6.403   4.199  0.1387  1.8748  2.1521
  738MOL0     H99596   4.057   6.017   3.999 -0.4548  0.6620  0.1008
  738MOL0     H99597   3.919   6.068   4.084  1.5231 -2.8394  2.8432
  738MOL0     H99598   3.903   6.194   3.877 -0.9314  1.3465  0.2243
  738MOL0     H99599   3.960   6.308   3.999  1.3038  0.8881  0.2343
  738MOL0     H99600   4.092   6.193   3.749 -0.1665  0.7960  0.1118
  738MOL0     H99601   4.190   6.214   3.894 -0.1651 -0.9011 -0.6101
  738MOL0     H99602   4.208   6.407   3.726  0.0726 -1.5044  0.0785
  738MOL0     H99603   4.039   6.441   3.760 -0.7110 -2.0626  1.3223
  738MOL0     H99604   4.246   6.412   3.981 -1.1160 -1.7174 -0.0527
  738MOL0     H99605   4.088   6.472   3.989  0.3060 -1.5594  0.0904
  738MOL0     H99606   4.280   6.626   3.810  0.8087 -1.4293  0.6883
  738MOL0     H99607   4.131   6.690   3.884 -0.1437 -0.2937 -0.6678
  738MOL0     H99608   4.315   6.780   4.002  0.4960 -0.5080  0.8823
  738MOL0     H99609   4.398   6.620   4.019 -0.4920 -1.0752  0.7809
  738MOL0     H99610   4.283   6.686   4.234 -0.5566  0.9760  0.1496
  738MOL0     H99611   4.220   6.544   4.178  0.2854  0.2338  0.8248
  738MOL0     H99612   4.030   6.003   4.354  0.7025  0.2600  1.1636
  738MOL0     H99613   3.981   6.090   4.582  5.1696  0.6629  0.1150
  738MOL0     H99614   3.804   6.525   4.767 -0.9648  0.0983 -0.0053
  738MOL0     H99615   3.693   6.611   4.935 -1.9907 -0.9798  0.8274
  738MOL0     H99616   4.601   6.170   6.835  2.2220 -2.7860  1.9207
  738MOL0     H99617   4.495   5.976   6.969 -0.4107 -0.3506  0.5629
  738MOL0     H99618   4.075   5.898   7.435  0.9870 -0.6740  0.6560
  738MOL0     H99619   3.995   5.660   7.465 -1.1597 -1.6843 -1.3439
  738MOL0     H99620   3.940   5.420   7.114  0.7225 -1.5161 -1.0868
  738MOL0     H99621   4.103   5.351   7.151  0.4390 -0.3955  1.3359
  738MOL0     H99622   3.939   5.171   7.167  0.4589  0.6515  0.4589
  738MOL0     H99623   3.842   5.256   7.287 -0.7316  0.8613 -0.0530
  738MOL0     H99624   4.054   5.230   7.435 -0.7512  0.3772  1.4619
  738MOL0     H99625   4.127   5.133   7.312  0.0782 -1.0380  0.8224
  738MOL0     H99626   3.876   5.067   7.465  0.9661  2.1933 -0.2654
  738MOL0     H99627   4.028   4.999   7.476 -2.3113  0.2186  1.4229
  738MOL0     H99628   3.910   4.740   7.184  2.3181  0.5145 -1.6739
  738MOL0     H99629   4.081   5.562   7.060  0.1200 -2.1122 -0.2162
  738MOL0     H99630   4.148   5.821   7.020  3.6969 -0.5254  1.1749
  739MOL0     O99631   6.300  10.321  10.775 -0.1269  0.9107  0.1297
  739MOL0     C99632   6.295  10.221  10.842 -0.6708  0.0978 -0.0922
  739MOL0     O99633   6.278  10.097  10.786 -0.4674  0.4196 -0.4891
  739MOL0     C99634   6.309  10.056  10.659  0.3211  0.5723  0.2052
  739MOL0     C99635   6.263   9.927  10.629  0.6794  0.5914 -0.0949
  739MOL0     C99636   6.298   9.865  10.512 -0.3542 -0.7086 -0.1620
  739MOL0     C99637   6.375   9.937  10.423  0.0594  1.1408 -1.0044
  739MOL0     O99638   6.402   9.873  10.310  0.0894  0.0833 -0.1205
  739MOL0     C99639   6.514   9.915  10.233  0.3654  0.6357  0.4991
  739MOL0     C99640   6.536   9.798  10.131  0.3546  0.1529  0.5125
  739MOL0     C99641   6.597   9.678  10.196  0.1544  0.0230 -0.8457
  739MOL0     C99642   6.669   9.597  10.096 -0.4746 -0.2984  0.2926
  739MOL0     C99643   6.714   9.459  10.158 -0.1813 -0.1125  0.2382
  739MOL0     C99644   6.787   9.379  10.046  0.3414 -0.4906  0.0938
  739MOL0     C99645   6.848   9.252  10.110 -0.2448 -1.1135  0.2819
  739MOL0     C99646   6.730   9.153  10.146  0.6251 -0.3902 -0.1293
  739MOL0     N99647   6.612   9.143  10.074  0.0581  0.4628 -0.0096
  739MOL0     C99648   6.601   9.070   9.961 -0.1686 -0.2694 -0.4653
  739MOL0     C99649   6.464   9.057   9.950 -0.8046 -0.1963  0.4218
  739MOL0     C99650   6.397   8.980   9.840 -0.0087  0.5774  0.0333
  739MOL0     C99651   6.357   8.846   9.886  0.6575  0.6766 -0.4000
  739MOL0     C99652   6.466   8.760   9.960 -0.4638 -0.6013  1.0978
  739MOL0     C99653   6.420   8.638  10.046  0.3504 -0.1203  0.3741
  739MOL0     O99654   6.343   8.534   9.974  0.3533  0.4660 -0.4537
  739MOL0     C99655   6.423   8.458   9.893  0.9037  0.6916 -0.4776
  739MOL0     C99656   6.560   8.441   9.900 -0.0974 -0.1712 -0.2326
  739MOL0     C99657   6.636   8.353   9.819  0.2712  0.2213 -0.1026
  739MOL0     C99658   6.796   8.346   9.843  0.3669 -0.4902  0.5605
  739MOL0     C99659   6.564   8.278   9.720  0.3531  0.2626  0.3812
  739MOL0     C99660   6.621   8.186   9.622 -0.7481  0.2787  0.3370
  739MOL0     O99661   6.727   8.109   9.654 -0.3744 -0.1807 -0.0559
  739MOL0     C99662   6.775   8.019   9.561 -0.7609  0.9732 -0.2897
  739MOL0     C99663   6.905   8.056   9.507 -0.0166  0.0904  0.4311
  739MOL0     C99664   6.957   7.969   9.409  0.9342 -1.3205 -0.1509
  739MOL0     C99665   6.879   7.861   9.360  0.7444  0.1921 -0.0211
  739MOL0     O99666   6.928   7.795   9.249 -0.6767  0.2291  0.2766
  739MOL0     C99667   6.958   7.883   9.143  0.2210  0.1820  0.9213
  739MOL0     C99668   6.941   7.807   9.005 -0.0181  0.6836  0.3125
  739MOL0     C99669   6.959   7.661   9.007  0.2056 -0.1376 -1.1749
  739MOL0     C99670   7.097   7.606   9.033  1.5184  0.0246 -0.7640
  739MOL0     C99671   7.098   7.459   9.020  0.4770  0.3000  0.2689
  739MOL0     C99672   7.224   7.389   9.075 -0.0640  0.2686  1.3688
  739MOL0     C99673   7.204   7.345   9.216  0.1405 -0.5959 -0.3705
  739MOL0     C99674   7.317   7.242   9.243  0.7340  0.3999  0.0964
  739MOL0    Cl99675   7.312   7.097   9.132  0.7857  0.2870 -0.0227
  739MOL0     C99676   6.761   7.830   9.416 -0.5587  0.3293 -0.9459
  739MOL0     C99677   6.706   7.908   9.518  0.2388  0.4166 -0.1031
  739MOL0     O99678   6.554   8.184   9.518 -0.9518  0.7069  0.2649
  739MOL0     C99679   6.421   8.296   9.717  0.5233  0.0530  0.2931
  739MOL0     C99680   6.351   8.388   9.798  0.4635 -1.5193  0.3105
  739MOL0     N99681   6.401   9.113  10.056 -0.3406 -0.1384 -0.7820
  739MOL0     N99682   6.491   9.172  10.130  0.2336  0.9987  0.7828
  739MOL0     C99683   6.423  10.060  10.452 -0.1722 -0.4631  0.7759
  739MOL0     C99684   6.392  10.125  10.574 -0.5945 -0.4685 -0.5863
  739MOL0     C99685   6.332  10.239  10.979  0.0585  0.2881  0.5709
  739MOL0     C99686   6.361  10.125  11.064  0.2779 -0.8992  0.6169
  739MOL0     C99687   6.388  10.143  11.201  0.1574 -0.1471  0.3119
  739MOL0     C99688   6.402  10.263  11.247 -0.8525  0.5100  0.7436
  739MOL0     O99689   6.439  10.290  11.376 -0.1549 -0.1171 -0.0415
  739MOL0     C99690   6.444  10.188  11.463 -0.6890  0.8181  0.9058
  739MOL0     C99691   6.461  10.246  11.600  0.4415  0.8797 -0.4266
  739MOL0     C99692   6.580  10.328  11.635 -0.4287  0.1650  0.0072
  739MOL0     C99693   6.711  10.236  11.635  0.7692  0.9536  0.6180
  739MOL0     C99694   6.820  10.301  11.707 -0.1488  0.3724 -0.0140
  739MOL0     C99695   6.914  10.365  11.757  0.7124  0.0599  0.6508
  739MOL0     C99696   6.383  10.378  11.167  0.5334  0.1300  1.0782
  739MOL0     C99697   6.340  10.368  11.034 -0.5322 -0.2591  0.5883
  739MOL0     H99698   6.203   9.877  10.705 -0.9381  2.0376 -0.3469
  739MOL0     H99699   6.269   9.764  10.485  2.0285 -1.2606 -0.8423
  739MOL0     H99700   6.489  10.006  10.178  4.0978  0.6387 -1.4700
  739MOL0     H99701   6.610   9.927  10.283  0.4647  1.3979  0.1361
  739MOL0     H99702   6.445   9.770  10.078  0.1745  1.1910  0.2662
  739MOL0     H99703   6.610   9.830  10.057 -0.6836 -3.1236 -2.1846
  739MOL0     H99704   6.665   9.691  10.281  1.8262 -1.7090 -1.8214
  739MOL0     H99705   6.518   9.615  10.237  0.1744 -0.0666 -0.9424
  739MOL0     H99706   6.601   9.581  10.012 -0.3869 -1.6763  0.4625
  739MOL0     H99707   6.761   9.644  10.059 -2.2487  0.5375 -3.5026
  739MOL0     H99708   6.783   9.486  10.239 -3.0018  1.4840  2.2990
  739MOL0     H99709   6.625   9.409  10.197  1.5403 -3.1783  0.5106
  739MOL0     H99710   6.716   9.352   9.968 -0.0479  0.7196  0.0224
  739MOL0     H99711   6.867   9.438  10.001  1.0226 -1.7454 -0.4048
  739MOL0     H99712   6.908   9.207  10.030  0.1359  1.2624 -0.8571
  739MOL0     H99713   6.916   9.268  10.194  0.5830 -0.6874 -0.4471
  739MOL0     H99714   6.692   9.174  10.246  3.0997 -0.6292  0.9379
  739MOL0     H99715   6.768   9.050  10.143 -2.1547 -1.6000  1.6683
  739MOL0     H99716   6.684   9.031   9.903  0.9305 -0.4319  1.1740
  739MOL0     H99717   6.301   9.031   9.830 -1.7935 -2.3680  1.0105
  739MOL0     H99718   6.449   8.980   9.744  0.2530 -1.7602  0.1324
  739MOL0     H99719   6.331   8.780   9.803  2.3095  0.6158 -0.9063
  739MOL0     H99720   6.273   8.866   9.952  0.7077  3.7962 -1.1338
  739MOL0     H99721   6.529   8.824  10.023  0.7612  0.4293 -1.0620
  739MOL0     H99722   6.538   8.724   9.887  2.8111  3.7589  1.7944
  739MOL0     H99723   6.346   8.672  10.118 -1.6895  0.9413 -2.0716
  739MOL0     H99724   6.498   8.597  10.110 -0.0151  0.1768  1.0115
  739MOL0     H99725   6.622   8.486   9.977 -2.5502  1.1390  1.1194
  739MOL0     H99726   6.826   8.253   9.892 -1.8685  0.5514  4.3337
  739MOL0     H99727   6.849   8.371   9.750 -0.2306  2.5729  0.9108
  739MOL0     H99728   6.830   8.422   9.914  0.4990  1.5454 -1.5633
  739MOL0     H99729   6.952   8.148   9.542  0.4704  0.2966 -0.7364
  739MOL0     H99730   7.051   7.989   9.358  0.2180  0.0838 -0.9563
  739MOL0     H99731   6.889   7.968   9.138 -0.5309 -0.4737 -0.3874
  739MOL0     H99732   7.066   7.900   9.137  0.0925  0.7480 -0.2132
  739MOL0     H99733   6.841   7.829   8.965  0.6981  1.0205 -1.4244
  739MOL0     H99734   7.015   7.845   8.933 -1.1339 -0.5190 -1.5503
  739MOL0     H99735   6.936   7.623   8.907  1.7029 -0.9269 -1.2435
  739MOL0     H99736   6.884   7.614   9.070 -0.6164 -1.8368 -3.3169
  739MOL0     H99737   7.172   7.653   8.969  0.0942 -0.7362 -3.0899
  739MOL0     H99738   7.130   7.624   9.136  0.7655  2.4209 -0.8649
  739MOL0     H99739   7.095   7.437   8.913 -1.4853 -3.6733  0.9666
  739MOL0     H99740   7.012   7.412   9.067  0.5938  0.5521  0.7457
  739MOL0     H99741   7.255   7.316   9.000 -4.4374 -1.4907  1.0150
  739MOL0     H99742   7.304   7.464   9.069  0.9266 -0.8429 -3.7680
  739MOL0     H99743   7.109   7.292   9.226 -0.1102 -0.2945 -1.0927
  739MOL0     H99744   7.206   7.436   9.276 -0.2937 -1.6864  1.3720
  739MOL0     H99745   7.307   7.203   9.344  0.1711 -2.6212 -1.0425
  739MOL0     H99746   7.409   7.300   9.231  1.5795 -0.4984  1.8964
  739MOL0     H99747   6.706   7.740   9.389 -1.0250  0.4495 -0.4039
  739MOL0     H99748   6.613   7.878   9.567 -1.2379  1.5706 -2.0410
  739MOL0     H99749   6.358   8.235   9.653  0.4511 -0.2450  0.6458
  739MOL0     H99750   6.243   8.380   9.789  0.2818 -1.0159  1.7260
  739MOL0     H99751   6.492  10.108  10.384  2.3241 -4.9846 -0.3151
  739MOL0     H99752   6.435  10.225  10.579 -2.6010  0.3908  2.1745
  739MOL0     H99753   6.350  10.027  11.020 -4.5696  0.0944 -0.9177
  739MOL0     H99754   6.410  10.047  11.246  1.2773  0.2418  0.6465
  739MOL0     H99755   6.358  10.122  11.451  0.3015 -0.1516 -1.4088
  739MOL0     H99756   6.532  10.126  11.446 -1.0080  0.4514  0.5510
  739MOL0     H99757   6.462  10.160  11.667  1.7451  1.1213 -0.1008
  739MOL0     H99758   6.371  10.304  11.624  0.1799  0.2511  0.1588
  739MOL0     H99759   6.578  10.373  11.735  1.1941 -1.5698  0.8994
  739MOL0     H99760   6.588  10.403  11.556  1.0795  1.2929  1.1823
  739MOL0     H99761   6.736  10.218  11.530 -2.7621 -0.5170 -0.1064
  739MOL0     H99762   6.680  10.135  11.665 -0.4634 -1.0832 -5.9035
  739MOL0     H99763   7.006  10.394  11.804  1.1988 -1.6199  0.8299
  739MOL0     H99764   6.395  10.477  11.212  0.4946 -0.1020  1.6145
  739MOL0     H99765   6.322  10.456  10.972 -0.4863 -1.1973 -0.8108
  740MOL0     O99766  11.109   5.672   3.788 -0.8273 -0.2534 -0.1155
  740MOL0     C99767  11.126   5.609   3.891  1.7672 -0.3629 -0.1349
  740MOL0     O99768  11.155   5.470   3.898  0.5497  0.1290 -0.4085
  740MOL0     C99769  11.175   5.392   3.788 -0.2746 -0.6865  0.4250
  740MOL0     C99770  11.188   5.437   3.657  0.6849  0.4077  0.2440
  740MOL0     C99771  11.195   5.344   3.551  1.1326  0.0967  0.0120
  740MOL0     C99772  11.209   5.208   3.578 -0.6990 -0.0356 -0.5393
  740MOL0     O99773  11.192   5.109   3.480 -0.2521 -0.1714 -0.1406
  740MOL0     C99774  11.102   5.146   3.375 -0.1159  0.2738  0.0059
  740MOL0     C99775  10.995   5.042   3.358  0.6628  0.2619 -0.6102
  740MOL0     C99776  10.912   5.056   3.235 -0.2271  0.1921 -0.6199
  740MOL0     C99777  10.833   4.926   3.203  0.0770  0.6919  0.2267
  740MOL0     C99778  10.745   4.938   3.082  0.3131 -0.9916  0.0831
  740MOL0     C99779  10.817   4.902   2.951 -0.2607 -0.0800 -0.2879
  740MOL0     C99780  10.721   4.887   2.834 -0.1949  0.4248 -0.1197
  740MOL0     C99781  10.789   4.804   2.718  0.4813 -0.0180  0.5839
  740MOL0     N99782  10.891   4.869   2.639 -0.3961 -0.0608 -0.2105
  740MOL0     C99783  10.856   4.946   2.535 -0.2614 -0.4723  0.3612
  740MOL0     C99784  10.971   4.994   2.476 -0.3163  0.1097 -0.1940
  740MOL0     C99785  10.976   5.082   2.358 -0.4099  0.0436  0.0107
  740MOL0     C99786  11.126   5.114   2.331  0.6403  0.7819  0.2094
  740MOL0     C99787  11.194   4.991   2.279  0.7883  0.5200 -0.1909
  740MOL0     C99788  11.344   5.019   2.261  1.1594  0.4299 -0.8177
  740MOL0     O99789  11.419   4.896   2.252 -1.1251 -0.5511 -0.2413
  740MOL0     C99790  11.540   4.924   2.192  0.3247  0.3393  0.3643
  740MOL0     C99791  11.546   4.955   2.048 -0.4344 -0.2799  0.8175
  740MOL0     C99792  11.673   4.959   1.991 -0.2952 -0.1371  0.2743
  740MOL0     C99793  11.685   4.996   1.843 -0.4366  0.9958  0.0804
  740MOL0     C99794  11.795   4.926   2.067 -0.0852 -0.6095 -0.0245
  740MOL0     C99795  11.920   4.910   1.994  0.8632  0.7399  0.9830
  740MOL0     O99796  11.896   4.830   1.893  0.5041  0.4402  0.2309
  740MOL0     C99797  11.988   4.813   1.792 -0.7054 -0.0835 -0.6252
  740MOL0     C99798  12.053   4.924   1.727 -0.2885  0.0514 -0.2826
  740MOL0     C99799  12.138   4.896   1.617 -0.8516  0.0999 -0.7811
  740MOL0     C99800  12.174   4.763   1.581 -0.5112  1.4202 -0.3053
  740MOL0     O99801  12.264   4.728   1.497 -0.0467 -0.5120 -0.4027
  740MOL0     C99802  12.336   4.836   1.418  0.0702  0.2234 -0.2338
  740MOL0     C99803  12.253   4.879   1.301  0.5711 -0.8260 -0.4338
  740MOL0     C99804  12.327   4.969   1.201 -0.6478  0.6589 -0.3007
  740MOL0     C99805  12.317   4.921   1.053 -0.0524  0.1831 -0.1988
  740MOL0     C99806  12.167   4.929   1.013  0.5542  0.0121 -0.0660
  740MOL0     C99807  12.140   4.883   0.873 -0.2366 -0.2067 -0.8753
  740MOL0     C99808  12.072   4.980   0.782 -0.6621 -0.0246 -0.6628
  740MOL0     C99809  12.177   5.093   0.726  0.0347 -0.6039 -0.2028
  740MOL0    Cl99810  12.309   5.010   0.648 -0.0445 -0.4547 -0.7993
  740MOL0     C99811  12.103   4.657   1.646 -0.0055 -0.3809 -0.0438
  740MOL0     C99812  12.008   4.679   1.737  0.9916  0.1563  0.5287
  740MOL0     O99813  12.031   4.935   2.038  0.4124  0.7797 -0.5418
  740MOL0     C99814  11.781   4.910   2.205  0.3260  0.1516  0.3986
  740MOL0     C99815  11.658   4.907   2.257  0.5508 -0.0017 -0.9254
  740MOL0     N99816  11.072   4.929   2.553 -0.3021 -0.4380 -0.4589
  740MOL0     N99817  11.024   4.883   2.658  0.1662 -0.0177  0.8338
  740MOL0     C99818  11.207   5.166   3.704  0.0931  0.3205 -0.7545
  740MOL0     C99819  11.189   5.250   3.811  0.1272 -0.6409 -0.4682
  740MOL0     C99820  11.081   5.682   4.018 -0.2854 -0.8204 -0.4885
  740MOL0     C99821  11.028   5.811   4.022  0.2250 -0.6519 -0.0344
  740MOL0     C99822  10.990   5.873   4.138  0.1368 -0.0860  0.0389
  740MOL0     C99823  10.996   5.807   4.260 -0.3401  0.6807 -0.8649
  740MOL0     O99824  10.960   5.859   4.381  0.6475  0.1519  0.5319
  740MOL0     C99825  10.819   5.890   4.392  0.1108 -0.3028  0.0125
  740MOL0     C99826  10.769   5.852   4.537 -0.7145  0.0773 -0.4624
  740MOL0     C99827  10.844   5.909   4.648 -0.3811 -0.2509  0.8131
  740MOL0     C99828  10.782   5.903   4.790  0.2824 -0.1471 -0.0330
  740MOL0     C99829  10.759   5.764   4.845  0.1003 -0.4481  0.0725
  740MOL0     C99830  10.738   5.653   4.893  0.2002 -0.4752  0.2303
  740MOL0     C99831  11.057   5.676   4.261  1.4115 -0.2921  0.2872
  740MOL0     C99832  11.097   5.617   4.143  0.0617 -0.3009  0.2601
  740MOL0     H99833  11.183   5.543   3.635  1.4241  0.4694  0.3472
  740MOL0     H99834  11.188   5.388   3.452  2.2003  2.1851  0.8028
  740MOL0     H99835  11.044   5.238   3.379 -0.1574  0.3384 -1.4340
  740MOL0     H99836  11.143   5.150   3.273 -1.5905 -3.9755 -0.9740
  740MOL0     H99837  11.045   4.945   3.361 -0.3146 -0.2472 -0.3576
  740MOL0     H99838  10.920   5.048   3.438  0.2265 -0.3721 -0.9612
  740MOL0     H99839  10.833   5.129   3.255 -0.7087 -0.8479  1.5148
  740MOL0     H99840  10.972   5.097   3.153 -0.4745 -0.2789 -1.0383
  740MOL0     H99841  10.901   4.842   3.186 -0.2063  0.4069  0.4862
  740MOL0     H99842  10.770   4.920   3.292  1.4312 -2.8579  1.1318
  740MOL0     H99843  10.659   4.872   3.101 -3.4220  3.2985 -0.0202
  740MOL0     H99844  10.707   5.040   3.079  1.4844 -0.5532 -0.2715
  740MOL0     H99845  10.892   4.981   2.938  1.1611 -0.8941  2.1758
  740MOL0     H99846  10.879   4.812   2.954  1.7740  1.2418 -0.7088
  740MOL0     H99847  10.639   4.818   2.856  1.3610 -3.2967 -4.4160
  740MOL0     H99848  10.678   4.982   2.801 -4.5030 -0.6551  1.7036
  740MOL0     H99849  10.709   4.778   2.648 -1.1497  1.0557  1.9466
  740MOL0     H99850  10.826   4.708   2.754  1.2772  0.1891  0.3236
  740MOL0     H99851  10.760   4.983   2.501  0.4312  0.4258 -0.7301
  740MOL0     H99852  10.922   5.048   2.270 -3.2989  2.0679  0.8618
  740MOL0     H99853  10.927   5.173   2.393 -0.6987 -0.8023  1.8945
  740MOL0     H99854  11.172   5.156   2.421 -3.6448 -0.6665  3.4045
  740MOL0     H99855  11.116   5.193   2.256 -0.1684  1.9683  1.5329
  740MOL0     H99856  11.162   4.957   2.180  0.0297 -2.2383  0.8979
  740MOL0     H99857  11.176   4.906   2.347 -4.2648  0.9892 -0.5065
  740MOL0     H99858  11.376   5.076   2.348 -0.5695  0.5368 -0.2066
  740MOL0     H99859  11.354   5.092   2.180  2.5884 -0.2798 -1.3209
  740MOL0     H99860  11.460   4.974   1.985  1.3305  0.0849 -1.6298
  740MOL0     H99861  11.605   5.061   1.806 -0.4715 -0.3684 -2.5132
  740MOL0     H99862  11.769   5.061   1.821 -1.2945  1.9273 -0.5359
  740MOL0     H99863  11.697   4.901   1.788 -0.6612  0.6127  0.6813
  740MOL0     H99864  12.015   5.025   1.738 -1.4340 -0.4465  0.7139
  740MOL0     H99865  12.186   4.985   1.580 -1.7296  0.4048 -1.2133
  740MOL0     H99866  12.372   4.920   1.477 -0.3017  0.3325 -0.1578
  740MOL0     H99867  12.430   4.798   1.377  0.3079 -1.3070  1.6008
  740MOL0     H99868  12.222   4.789   1.248  0.9264 -0.3873 -1.4097
  740MOL0     H99869  12.174   4.941   1.343 -0.1520 -0.9856 -1.5091
  740MOL0     H99870  12.433   4.974   1.228  0.3864 -1.3865 -3.4472
  740MOL0     H99871  12.288   5.071   1.195 -1.2015  0.4562 -0.1961
  740MOL0     H99872  12.360   4.994   0.984 -0.2252 -0.4626 -1.0132
  740MOL0     H99873  12.373   4.829   1.032 -0.1713  0.6516 -3.0222
  740MOL0     H99874  12.115   5.024   1.022  0.1643 -0.3390  1.7854
  740MOL0     H99875  12.107   4.872   1.085  1.7991  3.6672  4.2987
  740MOL0     H99876  12.242   4.862   0.840  0.3294  2.9620 -1.5292
  740MOL0     H99877  12.083   4.790   0.866 -3.4449  1.4459  0.9687
  740MOL0     H99878  11.978   5.025   0.815 -2.3249  0.2570 -5.0936
  740MOL0     H99879  12.042   4.923   0.693  0.5813  0.9245 -1.7281
  740MOL0     H99880  12.221   5.139   0.815 -2.3983  0.0526  0.7570
  740MOL0     H99881  12.119   5.166   0.668  0.2706  2.4880  3.0588
  740MOL0     H99882  12.138   4.557   1.621 -1.6243 -1.7656  2.6648
  740MOL0     H99883  11.950   4.603   1.787  2.5652 -2.7120 -1.6897
  740MOL0     H99884  11.873   4.891   2.258  0.1949 -2.6728 -0.2361
  740MOL0     H99885  11.653   4.894   2.365 -0.6561 -0.9599 -1.0758
  740MOL0     H99886  11.194   5.060   3.724 -1.6867  0.2499 -2.0411
  740MOL0     H99887  11.182   5.198   3.906 -0.0113  2.3109  1.2649
  740MOL0     H99888  11.024   5.869   3.930 -0.3118  0.8134  0.8803
  740MOL0     H99889  10.941   5.970   4.132 -0.6815 -0.5627 -1.5128
  740MOL0     H99890  10.805   5.998   4.377 -1.9889 -0.6587 -0.8660
  740MOL0     H99891  10.771   5.837   4.309  1.1438  1.1962 -1.6236
  740MOL0     H99892  10.777   5.744   4.554 -0.4893  0.3058  1.0529
  740MOL0     H99893  10.665   5.880   4.551 -0.2352  0.8376  2.1782
  740MOL0     H99894  10.865   6.016   4.633 -3.6534  0.8637  3.1295
  740MOL0     H99895  10.933   5.846   4.651 -0.2729 -0.2695 -1.2327
  740MOL0     H99896  10.691   5.965   4.784  0.4348  0.0808 -0.0125
  740MOL0     H99897  10.845   5.944   4.870 -0.0911  0.5826 -0.1007
  740MOL0     H99898  10.702   5.554   4.912  1.0592 -0.9917 -0.7299
  740MOL0     H99899  11.067   5.617   4.352 -3.8298 -1.3512  0.4514
  740MOL0     H99900  11.152   5.523   4.152  2.4248  0.9833  0.0915
  741MOL0     O99901   1.314   9.086   3.911 -0.2035 -0.1183  0.4369
  741MOL0     C99902   1.367   9.108   3.802 -1.0183  0.4152  0.0920
  741MOL0     O99903   1.489   9.046   3.762 -0.0964  1.0054 -0.0686
  741MOL0     C99904   1.541   8.958   3.857 -0.3981  0.1436 -0.3756
  741MOL0     C99905   1.594   9.014   3.975 -0.9687 -1.0598  0.7197
  741MOL0     C99906   1.661   8.942   4.059 -0.6151  1.0132 -0.5444
  741MOL0     C99907   1.670   8.805   4.044  0.0230 -0.5584  0.4916
  741MOL0     O99908   1.737   8.736   4.142  0.6389  0.4486  0.0113
  741MOL0     C99909   1.781   8.607   4.123 -0.8037 -0.1096  0.6351
  741MOL0     C99910   1.829   8.551   4.246 -0.1887  0.4716  0.0321
  741MOL0     C99911   1.739   8.529   4.365  0.7792  0.1361  0.7359
  741MOL0     C99912   1.589   8.521   4.338 -0.1468  0.4112  0.6636
  741MOL0     C99913   1.525   8.482   4.471 -0.8648  0.0967  0.0386
  741MOL0     C99914   1.382   8.430   4.448 -0.6002  0.1127  0.4167
  741MOL0     C99915   1.386   8.277   4.392  0.7673 -0.0605  0.1575
  741MOL0     C99916   1.245   8.219   4.341  0.6593 -0.2665 -0.8461
  741MOL0     N99917   1.184   8.291   4.222 -1.1432 -0.4602 -0.0904
  741MOL0     C99918   1.198   8.262   4.089 -0.2736 -0.4330  0.7943
  741MOL0     C99919   1.100   8.309   4.016  0.2080 -0.1320  0.2370
  741MOL0     C99920   1.064   8.297   3.869  0.3656 -0.0557  0.3047
  741MOL0     C99921   1.177   8.253   3.774 -0.4144  0.3583  0.4038
  741MOL0     C99922   1.232   8.105   3.785 -0.0368 -0.1747  0.9221
  741MOL0     C99923   1.267   8.039   3.655 -0.5479 -1.0828 -0.1874
  741MOL0     O99924   1.379   8.099   3.591 -0.8222  0.5145 -0.2317
  741MOL0     C99925   1.415   8.058   3.466  1.4350  0.0243 -0.0782
  741MOL0     C99926   1.384   7.931   3.397 -0.6883 -0.8891 -0.4219
  741MOL0     C99927   1.430   7.905   3.266 -0.1154 -0.9709  0.8266
  741MOL0     C99928   1.381   7.778   3.202  0.1950  0.1658  0.1664
  741MOL0     C99929   1.496   8.009   3.192 -1.3499  0.3847 -0.3619
  741MOL0     C99930   1.549   7.986   3.054  1.0086 -0.0814  0.1867
  741MOL0     O99931   1.666   7.916   3.037 -0.0819 -0.1313 -0.2113
  741MOL0     C99932   1.714   7.884   2.912 -0.1489 -0.9451 -0.4245
  741MOL0     C99933   1.854   7.887   2.908 -1.2212  1.9669 -0.5076
  741MOL0     C99934   1.924   7.888   2.786 -0.3127  0.3529 -0.5327
  741MOL0     C99935   1.856   7.880   2.671  0.0583  0.4616  0.3943
  741MOL0     O99936   1.927   7.876   2.555  0.3689 -0.7689 -0.5340
  741MOL0     C99937   2.065   7.875   2.548  0.6747 -0.0018 -0.6047
  741MOL0     C99938   2.140   7.745   2.553  0.0048  0.1917 -0.5770
  741MOL0     C99939   2.078   7.640   2.453  0.2219 -0.2682 -0.2104
  741MOL0     C99940   2.186   7.599   2.354 -0.1298  0.3196  0.3295
  741MOL0     C99941   2.212   7.695   2.240 -0.3456  0.1538  0.0197
  741MOL0     C99942   2.336   7.649   2.147  0.0823  0.5107  0.5822
  741MOL0     C99943   2.369   7.755   2.036  0.0934  1.0438 -0.6646
  741MOL0     C99944   2.481   7.700   1.947 -0.3203 -0.4071  0.4752
  741MOL0    Cl99945   2.432   7.554   1.858  0.3280 -0.1996 -0.0454
  741MOL0     C99946   1.718   7.883   2.667 -0.2770 -0.2926 -0.3672
  741MOL0     C99947   1.640   7.887   2.790 -0.4692  0.2456  0.6209
  741MOL0     O99948   1.492   8.060   2.970 -0.0952  0.4866 -0.1272
  741MOL0     C99949   1.516   8.125   3.257 -0.2379 -0.3683 -0.2881
  741MOL0     C99950   1.485   8.153   3.388 -0.0771 -0.5796 -0.1116
  741MOL0     N99951   1.034   8.391   4.105  0.7681  0.0857 -0.8256
  741MOL0     N99952   1.083   8.383   4.226  1.4508 -0.3541  0.1684
  741MOL0     C99953   1.623   8.747   3.926 -0.1382  0.7528 -0.3523
  741MOL0     C99954   1.570   8.831   3.828 -0.7996  0.8840 -0.5314
  741MOL0     C99955   1.291   9.148   3.691  0.8290  0.2827 -0.1782
  741MOL0     C99956   1.332   9.129   3.556  0.6872  0.1946 -0.8647
  741MOL0     C99957   1.258   9.197   3.457 -0.1471  0.1274  0.7510
  741MOL0     C99958   1.145   9.272   3.489 -0.2307 -0.4582 -0.5452
  741MOL0     O99959   1.070   9.349   3.409 -0.5621  1.1221  0.2906
  741MOL0     C99960   1.120   9.386   3.280  0.4355  0.8680 -0.3283
  741MOL0     C99961   1.057   9.521   3.245  0.4878  0.3291 -0.0156
  741MOL0     C99962   1.132   9.650   3.298 -0.3643  0.4288 -0.9613
  741MOL0     C99963   1.192   9.661   3.433  0.1714 -0.0145  0.7805
  741MOL0     C99964   1.104   9.637   3.557 -0.7535  0.7853 -0.2320
  741MOL0     C99965   1.050   9.631   3.667 -0.3226 -0.9661 -0.1085
  741MOL0     C99966   1.103   9.278   3.618  0.0127  0.7126  0.8197
  741MOL0     C99967   1.176   9.220   3.719 -0.6851 -0.4662 -0.4535
  741MOL0     H99968   1.586   9.120   3.995 -2.9812 -1.3948  2.0053
  741MOL0     H99969   1.712   8.986   4.144  0.3251 -1.6484  0.3841
  741MOL0     H99970   1.702   8.548   4.074 -1.4210  1.1656  0.0684
  741MOL0     H99971   1.863   8.618   4.053  2.0418  2.5218  4.0258
  741MOL0     H99972   1.879   8.457   4.221  2.2331  1.4515  0.9027
  741MOL0     H99973   1.916   8.610   4.278 -1.0576  2.8972 -1.7815
  741MOL0     H99974   1.772   8.432   4.403 -0.7276 -1.3349 -1.4297
  741MOL0     H99975   1.744   8.614   4.433  2.4865  0.3342  0.4022
  741MOL0     H99976   1.548   8.614   4.297 -0.6494  0.7036  1.7904
  741MOL0     H99977   1.583   8.440   4.265  2.8264 -2.1326  2.9752
  741MOL0     H99978   1.580   8.412   4.535 -1.5673  0.8308  1.5055
  741MOL0     H99979   1.522   8.576   4.527  0.4112 -0.9634  2.0163
  741MOL0     H99980   1.312   8.438   4.532  0.0648 -0.8846  1.0819
  741MOL0     H99981   1.350   8.489   4.362  1.5062  0.1985 -0.3495
  741MOL0     H99982   1.473   8.260   4.327  0.9428  2.3334 -0.3393
  741MOL0     H99983   1.408   8.217   4.481  0.0114 -1.2212 -0.4144
  741MOL0     H99984   1.173   8.226   4.423  2.2856  0.9258  0.5465
  741MOL0     H99985   1.256   8.117   4.305  2.7403 -0.4598  0.2179
  741MOL0     H99986   1.263   8.187   4.047 -4.0039 -2.0552 -2.7149
  741MOL0     H99987   0.972   8.240   3.852 -0.6681  1.6743 -0.2819
  741MOL0     H99988   1.040   8.401   3.843  1.1136 -0.8873 -4.5656
  741MOL0     H99989   1.261   8.323   3.782  0.0926 -0.3397  1.6991
  741MOL0     H99990   1.140   8.266   3.673  0.3541 -1.7045 -0.1935
  741MOL0     H99991   1.165   8.037   3.839 -0.8242 -0.3420 -0.2238
  741MOL0     H99992   1.327   8.100   3.839  0.7162 -0.9586 -0.4067
  741MOL0     H99993   1.177   8.045   3.593 -1.2816  0.2731  0.9425
  741MOL0     H99994   1.291   7.935   3.678 -0.8376 -1.2290 -0.5366
  741MOL0     H99995   1.318   7.859   3.445 -2.2928  1.7517  1.6272
  741MOL0     H99996   1.317   7.799   3.116 -2.5114 -0.2840  1.9457
  741MOL0     H99997   1.468   7.728   3.158  1.1111  0.7657  1.2285
  741MOL0     H99998   1.349   7.712   3.282  0.4593 -1.0005 -0.6676
  741MOL0     H99999   1.905   7.893   3.004 -0.2161  1.2834 -0.9783
  741MOL0     H    0   2.030   7.875   2.800 -0.1667 -0.3425 -2.1302
  741MOL0     H    1   2.099   7.910   2.450  1.1233  3.6516  0.6995
  741MOL0     H    2   2.105   7.950   2.617 -1.7090  1.4928 -0.7382
  741MOL0     H    3   2.248   7.754   2.544 -0.3299  4.3234 -2.3168
  741MOL0     H    4   2.122   7.708   2.655 -1.7435 -0.0107 -0.9173
  741MOL0     H    5   1.994   7.678   2.395  0.4245 -0.5527 -0.6915
  741MOL0     H    6   2.048   7.548   2.505  0.6054  0.6661  1.7700
  741MOL0     H    7   2.281   7.582   2.406  1.2389  1.6215 -1.6215
  741MOL0     H    8   2.163   7.508   2.297  1.3135  0.9554 -1.3290
  741MOL0     H    9   2.243   7.791   2.282 -1.0945  1.3791 -2.0838
  741MOL0     H   10   2.121   7.725   2.188  0.4918  2.4574 -0.2252
  741MOL0     H   11   2.427   7.641   2.208  0.0342 -1.7128  0.4482
  741MOL0     H   12   2.323   7.549   2.104  1.7648 -0.4304  2.1321
  741MOL0     H   13   2.383   7.851   2.086 -0.1699  0.8046 -0.1228
  741MOL0     H   14   2.276   7.769   1.980 -0.0908 -1.4163 -1.0899
  741MOL0     H   15   2.571   7.680   2.007  1.5472  1.4163 -1.5451
  741MOL0     H   16   2.517   7.780   1.881 -0.2553 -1.2930 -0.5826
  741MOL0     H   17   1.665   7.894   2.573  0.7733  1.4709 -0.7907
  741MOL0     H   18   1.532   7.899   2.794 -0.6089 -1.2710  2.7322
  741MOL0     H   19   1.569   8.198   3.197 -1.0830  0.2119 -0.3339
  741MOL0     H   20   1.499   8.249   3.436 -0.9670  0.5363 -1.9444
  741MOL0     H   21   1.636   8.642   3.903 -2.9004  0.4679 -0.9122
  741MOL0     H   22   1.550   8.789   3.730  4.4698 -2.4544 -0.5842
  741MOL0     H   23   1.412   9.063   3.525  1.0314  0.4722 -0.5736
  741MOL0     H   24   1.297   9.199   3.356 -2.8257 -0.0342 -0.3602
  741MOL0     H   25   1.226   9.408   3.296  0.0642  1.8544  0.9568
  741MOL0     H   26   1.108   9.305   3.207  0.6985  1.5699 -1.1765
  741MOL0     H   27   0.959   9.524   3.294  1.5278 -3.4382  2.6911
  741MOL0     H   28   1.036   9.534   3.138 -2.4047 -1.3997  0.2178
  741MOL0     H   29   1.057   9.730   3.289 -1.0607 -0.0554  0.2955
  741MOL0     H   30   1.210   9.670   3.225  0.5780 -1.0695 -0.4037
  741MOL0     H   31   1.225   9.765   3.444 -1.6475  0.8724 -1.3481
  741MOL0     H   32   1.288   9.610   3.437  0.1305 -0.3492 -1.2360
  741MOL0     H   33   0.998   9.636   3.760  0.1601  0.9864  0.0833
  741MOL0     H   34   1.012   9.329   3.648  0.1871  0.4011  1.9514
  741MOL0     H   35   1.139   9.231   3.821  3.3065 -1.8712  1.3488
  742MOL0     O   36   6.873   7.194   0.132  0.0406  0.3934 -0.1219
  742MOL0     C   37   6.896   7.259   0.234 -0.1946 -0.5000  0.3464
  742MOL0     O   38   6.797   7.326   0.306  0.5291  0.7715 -1.3015
  742MOL0     C   39   6.678   7.341   0.235 -0.4865 -0.0775  0.6924
  742MOL0     C   40   6.639   7.467   0.204 -0.2962 -0.5810 -0.4669
  742MOL0     C   41   6.509   7.496   0.158 -0.2507 -0.9529 -0.1065
  742MOL0     C   42   6.413   7.390   0.156 -0.2259  0.4724  0.8400
  742MOL0     O   43   6.276   7.405   0.130 -0.7896 -0.6732 -0.4888
  742MOL0     C   44   6.212   7.518   0.202 -0.1859  0.7540  0.3831
  742MOL0     C   45   6.063   7.481   0.208  0.3453 -0.0262  0.0972
  742MOL0     C   46   6.027   7.353   0.270  0.1798  1.0765 -0.6179
  742MOL0     C   47   6.041   7.354   0.425  0.0623 -0.3955  0.2789
  742MOL0     C   48   6.005   7.213   0.495 -0.2378  1.1208  0.4361
  742MOL0     C   49   5.949   7.228   0.634 -0.1385 -0.7889 -0.3618
  742MOL0     C   50   5.903   7.101   0.681 -0.2116  0.4945 -0.2600
  742MOL0     C   51   5.850   7.096   0.815  0.4284 -0.3562 -0.4611
  742MOL0     N   52   5.700   7.058   0.809 -1.3047 -0.4764  0.3499
  742MOL0     C   53   5.587   7.129   0.850 -0.0979  0.7820 -0.7760
  742MOL0     C   54   5.489   7.040   0.859  0.1071  0.0220 -0.2177
  742MOL0     C   55   5.350   7.055   0.906  0.3826  0.3643  0.3451
  742MOL0     C   56   5.241   7.108   0.818  0.5049  0.5877  0.1764
  742MOL0     C   57   5.256   7.257   0.785  0.0250 -1.3434  0.3733
  742MOL0     C   58   5.189   7.345   0.897 -0.0508 -0.1269  0.2384
  742MOL0     O   59   5.042   7.360   0.895  0.6481  0.3539  0.2703
  742MOL0     C   60   4.988   7.444   0.806 -0.7959 -0.0257  0.3417
  742MOL0     C   61   4.855   7.473   0.812  0.6050  0.8455 -0.0856
  742MOL0     C   62   4.782   7.565   0.745  0.6697 -1.0786  0.7615
  742MOL0     C   63   4.629   7.580   0.751 -0.9175 -0.5405  0.6240
  742MOL0     C   64   4.854   7.629   0.638  0.5247 -0.3256 -0.9464
  742MOL0     C   65   4.808   7.733   0.544 -1.0730  0.5152  0.1307
  742MOL0     O   66   4.741   7.834   0.593 -0.1611 -0.5592  0.3814
  742MOL0     C   67   4.681   7.919   0.508  0.1392 -0.3093 -0.1692
  742MOL0     C   68   4.753   8.018   0.451 -0.1167 -0.5712 -0.2432
  742MOL0     C   69   4.693   8.094   0.343 -0.0634 -0.7968  0.4843
  742MOL0     C   70   4.554   8.082   0.306 -1.0839 -0.0839  0.2852
  742MOL0     O   71   4.498   8.180   0.222 -0.3374  0.2854 -1.2973
  742MOL0     C   72   4.376   8.151   0.155 -0.4095 -0.4949  0.1071
  742MOL0     C   73   4.341   8.270   0.075  0.0140 -0.1321 -0.2913
  742MOL0     C   74   4.195   8.307   0.077  0.2830 -0.3199  0.0651
  742MOL0     C   75   4.163   8.388  -0.054 -0.2063  0.4923 -0.1118
  742MOL0     C   76   4.024   8.454  -0.025 -1.5169  0.2966  0.3059
  742MOL0     C   77   3.965   8.534  -0.148 -0.7310  0.8308  0.2171
  742MOL0     C   78   3.825   8.595  -0.113  0.4964  1.0624  0.0042
  742MOL0     C   79   3.764   8.667  -0.240 -0.4429 -0.7657  0.0674
  742MOL0    Cl   80   3.780   8.570  -0.388 -0.0265  0.0555 -0.5854
  742MOL0     C   81   4.489   7.971   0.366 -0.1395 -0.0761 -0.4844
  742MOL0     C   82   4.551   7.892   0.460 -0.6791  0.2786 -0.4247
  742MOL0     O   83   4.829   7.716   0.430  0.0831  0.8315 -0.4830
  742MOL0     C   84   4.992   7.608   0.626 -0.4959  0.2653 -0.9788
  742MOL0     C   85   5.059   7.521   0.715  0.5850 -1.0935 -0.6899
  742MOL0     N   86   5.543   6.916   0.812  0.3074  0.2585  0.5864
  742MOL0     N   87   5.667   6.932   0.791 -0.4633  0.1352 -0.5736
  742MOL0     C   88   6.459   7.259   0.189  0.0695 -0.7315  1.3054
  742MOL0     C   89   6.588   7.234   0.227 -0.5349  0.2179 -0.8270
  742MOL0     C   90   7.038   7.299   0.245 -0.3083 -0.4087 -0.7529
  742MOL0     C   91   7.085   7.379   0.354 -0.5682  0.0942  0.3642
  742MOL0     C   92   7.221   7.396   0.383  0.6938  1.1771 -0.3554
  742MOL0     C   93   7.322   7.343   0.301  0.2848  0.7672 -0.0338
  742MOL0     O   94   7.453   7.348   0.333 -0.5115  0.4939  1.1754
  742MOL0     C   95   7.501   7.485   0.330  0.5935 -0.5519 -0.8096
  742MOL0     C   96   7.563   7.507   0.192 -0.0856  0.3704  0.7387
  742MOL0     C   97   7.675   7.412   0.188 -0.6768  0.2358  0.2562
  742MOL0     C   98   7.772   7.452   0.081 -0.2730 -0.4983  0.1862
  742MOL0     C   99   7.715   7.458  -0.057 -0.8992 -0.4476  0.4193
  742MOL0     C  100   7.668   7.458  -0.171  0.4336  0.4583 -0.4379
  742MOL0     C  101   7.277   7.265   0.202 -0.9537  0.2752  0.1362
  742MOL0     C  102   7.145   7.251   0.163 -0.5166  0.1147  0.1515
  742MOL0     H  103   6.707   7.547   0.230 -2.0243  0.0161  2.6620
  742MOL0     H  104   6.490   7.603   0.162 -1.4592 -1.1052 -1.0303
  742MOL0     H  105   6.235   7.515   0.308 -0.9881 -0.1766  0.5499
  742MOL0     H  106   6.220   7.621   0.166 -3.8791  0.5787 -1.4983
  742MOL0     H  107   6.003   7.557   0.259 -1.5268 -1.5061  0.1879
  742MOL0     H  108   6.054   7.487   0.099 -2.4800 -0.6608  0.2323
  742MOL0     H  109   5.925   7.330   0.240  0.5276 -3.1516  0.6761
  742MOL0     H  110   6.088   7.269   0.234 -1.1072 -1.0753  1.8365
  742MOL0     H  111   6.136   7.389   0.467  0.5100 -2.7593  1.4029
  742MOL0     H  112   5.977   7.434   0.463  2.9004  0.8506  2.9327
  742MOL0     H  113   5.928   7.178   0.426  1.5775  0.4949 -1.3564
  742MOL0     H  114   6.088   7.142   0.487 -1.0284  0.0330  1.5179
  742MOL0     H  115   6.024   7.271   0.702 -1.1403  0.6697 -0.1284
  742MOL0     H  116   5.880   7.313   0.633  3.5452  2.6477  2.2781
  742MOL0     H  117   5.822   7.070   0.614 -0.4510  1.1769 -0.2961
  742MOL0     H  118   5.976   7.018   0.679 -1.0065 -0.3315  2.1574
  742MOL0     H  119   5.859   7.190   0.870 -0.2789 -1.0318  0.8488
  742MOL0     H  120   5.900   7.025   0.881 -1.1996 -1.1438 -0.0218
  742MOL0     H  121   5.590   7.233   0.881  0.6634 -0.1564  2.6937
  742MOL0     H  122   5.320   6.950   0.916 -0.4204  0.6952  1.6958
  742MOL0     H  123   5.348   7.107   1.003 -3.0863 -0.7934  1.0416
  742MOL0     H  124   5.150   7.084   0.873  0.1968  1.7704  0.2091
  742MOL0     H  125   5.256   7.059   0.721  1.2615  2.0196 -0.4611
  742MOL0     H  126   5.208   7.271   0.688  0.2298  0.2220  0.4746
  742MOL0     H  127   5.358   7.295   0.775 -0.5768  0.5890  0.9590
  742MOL0     H  128   5.234   7.444   0.900  0.6133 -0.4451  1.2916
  742MOL0     H  129   5.208   7.298   0.994 -4.8661 -0.8412  1.1112
  742MOL0     H  130   4.804   7.425   0.896  1.1108 -0.1093 -0.3122
  742MOL0     H  131   4.591   7.623   0.658 -0.3319  2.1040  1.5059
  742MOL0     H  132   4.579   7.483   0.757 -0.1365 -1.2545 -2.7640
  742MOL0     H  133   4.598   7.646   0.833  0.7940  1.4631 -0.2683
  742MOL0     H  134   4.859   8.025   0.476 -0.1095 -2.2613  0.3617
  742MOL0     H  135   4.745   8.183   0.308  2.6486 -1.6133  2.0717
  742MOL0     H  136   4.395   8.061   0.095 -3.7395 -0.7386 -0.7838
  742MOL0     H  137   4.290   8.111   0.208 -0.7131 -1.2859 -0.9398
  742MOL0     H  138   4.410   8.346   0.111 -0.9224  0.0107  1.2739
  742MOL0     H  139   4.367   8.235  -0.026  1.8804 -2.3036  0.8417
  742MOL0     H  140   4.175   8.353   0.174 -2.1771  0.0575 -0.5667
  742MOL0     H  141   4.126   8.224   0.089 -1.6114  0.9662 -1.2990
  742MOL0     H  142   4.240   8.453  -0.097  0.9743 -0.0285  1.1324
  742MOL0     H  143   4.155   8.306  -0.125  0.6546 -3.2329  3.7250
  742MOL0     H  144   4.041   8.528   0.053  2.9910  0.8554 -0.9173
  742MOL0     H  145   3.956   8.372  -0.001  0.8189 -1.1739  2.3012
  742MOL0     H  146   4.035   8.608  -0.187 -0.9211  1.7189  1.4964
  742MOL0     H  147   3.956   8.470  -0.236  3.5472  1.7531 -1.1007
  742MOL0     H  148   3.829   8.662  -0.026  2.8384  0.7145  0.2359
  742MOL0     H  149   3.750   8.521  -0.082 -2.5227  3.3168 -1.4539
  742MOL0     H  150   3.830   8.754  -0.243  0.6131 -1.4522  1.6651
  742MOL0     H  151   3.662   8.688  -0.207  0.3852 -3.1857  5.3003
  742MOL0     H  152   4.392   7.956   0.318 -0.6836  0.9494  0.2472
  742MOL0     H  153   4.496   7.811   0.506  1.5667 -0.7628  0.6066
  742MOL0     H  154   5.047   7.660   0.548 -0.5750  0.2317 -1.0573
  742MOL0     H  155   5.167   7.506   0.713  0.7045 -0.5280  0.6632
  742MOL0     H  156   6.384   7.180   0.184 -1.8889  1.0934 -2.6118
  742MOL0     H  157   6.610   7.133   0.258 -1.1521 -0.0337 -1.1810
  742MOL0     H  158   7.017   7.432   0.421  1.1709 -0.3826  2.6284
  742MOL0     H  159   7.248   7.451   0.473 -0.2299  0.5649  0.3137
  742MOL0     H  160   7.425   7.564   0.336 -0.0971 -1.3168  1.9377
  742MOL0     H  161   7.574   7.504   0.409  1.7120  3.1121 -2.5346
  742MOL0     H  162   7.612   7.603   0.175  0.5548  0.0859  0.9386
  742MOL0     H  163   7.480   7.481   0.125  0.1869 -2.4625  1.3723
  742MOL0     H  164   7.650   7.307   0.169  0.3336 -0.7325  3.6049
  742MOL0     H  165   7.736   7.408   0.279  1.1160 -1.6832 -0.9397
  742MOL0     H  166   7.852   7.381   0.102  0.5859  0.4479  0.1989
  742MOL0     H  167   7.816   7.551   0.095 -1.6567  0.0681  0.6999
  742MOL0     H  168   7.623   7.461  -0.269  0.2974  3.9937 -0.4006
  742MOL0     H  169   7.339   7.223   0.123  0.5211  0.9012  0.9188
  742MOL0     H  170   7.115   7.195   0.075 -6.0049  1.1699  1.0318
  743MOL0     O  171   5.214   8.925   2.997 -0.4225 -0.0190 -0.1943
  743MOL0     C  172   5.265   8.966   2.898  0.9259 -0.4009 -0.3563
  743MOL0     O  173   5.396   8.996   2.891 -0.0365  0.2458  0.2017
  743MOL0     C  174   5.487   8.961   2.982 -0.4753 -0.5764  0.5472
  743MOL0     C  175   5.513   8.833   3.030  1.0538 -0.5558 -0.1210
  743MOL0     C  176   5.621   8.807   3.111  0.2382  0.1093 -0.3917
  743MOL0     C  177   5.706   8.902   3.152  0.2310  0.0683  0.0082
  743MOL0     O  178   5.809   8.876   3.234 -0.1242 -0.2074  0.0889
  743MOL0     C  179   5.797   8.767   3.335 -0.9587 -0.6101  0.3065
  743MOL0     C  180   5.716   8.804   3.465 -0.7897  0.4206 -0.5597
  743MOL0     C  181   5.811   8.888   3.569  1.1850 -0.5866  0.2628
  743MOL0     C  182   5.899   8.799   3.662  0.2236  0.9723 -0.6062
  743MOL0     C  183   5.815   8.709   3.756  0.1486 -0.1329 -0.0379
  743MOL0     C  184   5.711   8.782   3.859 -0.4580  0.5228 -0.0414
  743MOL0     C  185   5.605   8.692   3.926  0.4732 -0.8587  0.2686
  743MOL0     C  186   5.518   8.602   3.831 -1.0579  0.2952  1.3799
  743MOL0     N  187   5.404   8.543   3.896 -0.6589  0.4693  0.3641
  743MOL0     C  188   5.393   8.406   3.937  0.1240 -0.6439 -0.5146
  743MOL0     C  189   5.253   8.389   3.959  0.2903  0.8268  1.0665
  743MOL0     C  190   5.190   8.267   4.007 -1.1812 -0.7586  0.9859
  743MOL0     C  191   5.232   8.246   4.146 -0.5377  0.1173  0.0337
  743MOL0     C  192   5.184   8.353   4.245 -0.6348  0.4220  0.4877
  743MOL0     C  193   5.208   8.328   4.394  0.9816  0.5053 -0.0517
  743MOL0     O  194   5.105   8.407   4.453 -0.3336  0.0077  0.5685
  743MOL0     C  195   5.099   8.393   4.592  0.0415  0.3089 -0.0342
  743MOL0     C  196   5.034   8.499   4.663 -0.0753  0.0140 -0.1043
  743MOL0     C  197   5.014   8.502   4.807  0.0759  0.1541  0.8107
  743MOL0     C  198   4.942   8.614   4.879 -0.0157 -0.2067 -0.9802
  743MOL0     C  199   5.068   8.390   4.885 -0.0258 -0.5631  0.5575
  743MOL0     C  200   5.052   8.363   5.031 -0.4837  0.3263  0.4351
  743MOL0     O  201   5.168   8.385   5.108 -0.1056 -0.3414  0.5534
  743MOL0     C  202   5.149   8.400   5.250 -0.3001  0.9023  0.5673
  743MOL0     C  203   5.093   8.516   5.313 -0.3976 -0.8882 -0.0040
  743MOL0     C  204   5.106   8.534   5.451  0.0772 -0.1255  0.6427
  743MOL0     C  205   5.144   8.432   5.527  0.5956  0.4134 -0.5446
  743MOL0     O  206   5.167   8.466   5.660  0.5270  0.2075  0.4322
  743MOL0     C  207   5.287   8.413   5.726 -0.3268  0.6328  0.4739
  743MOL0     C  208   5.313   8.471   5.875  0.1350 -0.2208  0.7915
  743MOL0     C  209   5.197   8.450   5.972 -0.8061 -0.1576 -0.0001
  743MOL0     C  210   5.238   8.496   6.115 -0.2940 -0.5781  0.3791
  743MOL0     C  211   5.282   8.640   6.138  0.3556 -0.2618 -0.4893
  743MOL0     C  212   5.419   8.674   6.201 -0.6455 -0.4891 -0.2107
  743MOL0     C  213   5.527   8.654   6.091 -0.3021 -0.9974 -0.0602
  743MOL0     C  214   5.646   8.741   6.131  0.1168  0.5105  0.0037
  743MOL0    Cl  215   5.719   8.686   6.286  0.2959  0.5867 -0.0811
  743MOL0     C  216   5.191   8.312   5.464 -0.2227  0.2108 -0.0651
  743MOL0     C  217   5.201   8.299   5.332  0.3611 -0.2208 -0.6044
  743MOL0     O  218   4.940   8.358   5.072  1.2746 -0.4420 -0.9633
  743MOL0     C  219   5.139   8.290   4.818 -0.0868 -0.3332  0.3238
  743MOL0     C  220   5.146   8.285   4.673 -0.5825  0.3628  0.0569
  743MOL0     N  221   5.198   8.510   3.923  0.0727 -0.8109  0.2006
  743MOL0     N  222   5.282   8.602   3.884 -0.1841  0.1340  0.6089
  743MOL0     C  223   5.680   9.037   3.112  0.3519  0.2282 -0.3991
  743MOL0     C  224   5.578   9.068   3.026 -0.2665 -0.0339  0.2240
  743MOL0     C  225   5.170   8.991   2.788 -0.0180  0.4119 -1.0156
  743MOL0     C  226   5.203   9.073   2.680 -1.1796 -0.7267 -0.4481
  743MOL0     C  227   5.114   9.101   2.575  0.6031  0.4070 -0.8439
  743MOL0     C  228   4.977   9.063   2.588 -0.4211 -0.2797 -0.3707
  743MOL0     O  229   4.900   9.095   2.480  0.0855  0.3755 -0.1574
  743MOL0     C  230   4.757   9.123   2.501 -0.3291  0.3019  0.7659
  743MOL0     C  231   4.699   9.166   2.375  0.0336 -0.1738 -0.1972
  743MOL0     C  232   4.542   9.137   2.372 -1.4274  0.5747  0.6543
  743MOL0     C  233   4.472   9.133   2.225 -1.2677  0.1532 -0.5282
  743MOL0     C  234   4.339   9.081   2.231 -0.0514 -0.3159 -0.1884
  743MOL0     C  235   4.233   9.021   2.229  0.3856 -0.6006  0.1597
  743MOL0     C  236   4.939   8.985   2.697 -0.9016 -0.1945  0.0153
  743MOL0     C  237   5.033   8.949   2.793 -0.2995 -0.0264  0.0867
  743MOL0     H  238   5.463   8.741   3.000  0.8514  0.3781 -2.8968
  743MOL0     H  239   5.615   8.704   3.146 -0.7632  0.7260  1.3467
  743MOL0     H  240   5.764   8.672   3.292 -2.6797  0.5515 -1.0602
  743MOL0     H  241   5.892   8.732   3.376 -1.5660 -4.4901 -1.1542
  743MOL0     H  242   5.629   8.865   3.439  0.2913  1.6026 -1.5106
  743MOL0     H  243   5.681   8.712   3.513 -0.7734  1.1885  0.9948
  743MOL0     H  244   5.869   8.960   3.510 -0.5674  1.4465  0.8724
  743MOL0     H  245   5.742   8.951   3.625  1.2817 -0.0638 -0.1948
  743MOL0     H  246   5.958   8.728   3.603 -2.8914 -3.4019  0.9450
  743MOL0     H  247   5.963   8.855   3.730 -0.1724 -1.9916  2.5174
  743MOL0     H  248   5.751   8.643   3.697 -2.3942 -1.0789  3.4491
  743MOL0     H  249   5.881   8.647   3.818 -0.4565 -0.6397  0.1158
  743MOL0     H  250   5.773   8.808   3.944  1.7996 -3.2916 -0.3159
  743MOL0     H  251   5.664   8.873   3.821  2.1562  1.9412 -0.0605
  743MOL0     H  252   5.643   8.620   3.999  0.2449  0.0132  1.2758
  743MOL0     H  253   5.542   8.753   3.991  1.0996 -1.2945  1.2984
  743MOL0     H  254   5.586   8.523   3.798  1.0822  2.8078 -0.7154
  743MOL0     H  255   5.492   8.644   3.733 -2.0462 -2.4337  0.3615
  743MOL0     H  256   5.465   8.325   3.934  0.6557 -0.1615 -1.8477
  743MOL0     H  257   5.082   8.275   3.999 -1.0919 -1.7847 -3.1413
  743MOL0     H  258   5.227   8.187   3.943 -0.2891 -1.9971  2.9339
  743MOL0     H  259   5.340   8.232   4.158 -0.5676  1.8215  4.0986
  743MOL0     H  260   5.197   8.145   4.172  2.3063 -0.8552  0.4059
  743MOL0     H  261   5.077   8.373   4.234 -0.5688  0.4538 -0.1629
  743MOL0     H  262   5.238   8.447   4.227  2.3022 -1.0193  1.1169
  743MOL0     H  263   5.307   8.364   4.422  0.2373  3.8059 -1.1427
  743MOL0     H  264   5.191   8.225   4.428  0.0928  0.7180  0.1773
  743MOL0     H  265   5.002   8.578   4.596 -0.8933 -0.5519 -0.3995
  743MOL0     H  266   4.958   8.707   4.824  0.3332 -1.3477 -2.9059
  743MOL0     H  267   4.835   8.593   4.882 -0.6215  2.4607 -1.2970
  743MOL0     H  268   4.976   8.626   4.982  3.3331  2.4879 -2.2031
  743MOL0     H  269   5.066   8.599   5.247  4.0174  2.1822  1.5674
  743MOL0     H  270   5.073   8.623   5.504 -0.8011 -1.4676  2.4387
  743MOL0     H  271   5.272   8.304   5.728  0.1590  0.4064 -2.9211
  743MOL0     H  272   5.372   8.438   5.662  0.3304  2.3132  1.9310
  743MOL0     H  273   5.400   8.430   5.928  0.5620 -1.7152 -0.9728
  743MOL0     H  274   5.317   8.578   5.855 -2.9012  0.3820  2.7589
  743MOL0     H  275   5.194   8.342   5.990 -3.1830 -0.1360  0.0573
  743MOL0     H  276   5.096   8.480   5.945 -1.7757 -3.0102  0.1088
  743MOL0     H  277   5.144   8.476   6.167  0.5323 -1.3032  1.6618
  743MOL0     H  278   5.312   8.431   6.164  0.4846 -0.6326 -0.8281
  743MOL0     H  279   5.206   8.677   6.208 -2.4552  1.9379 -4.3233
  743MOL0     H  280   5.269   8.699   6.047  0.1235 -0.0772 -0.3373
  743MOL0     H  281   5.414   8.774   6.245 -0.9854 -0.7330  0.3086
  743MOL0     H  282   5.442   8.613   6.288  0.4724  0.7486  0.3953
  743MOL0     H  283   5.499   8.686   5.991  2.2234 -0.4627 -0.6626
  743MOL0     H  284   5.554   8.549   6.078  2.4157 -0.3986  0.2738
  743MOL0     H  285   5.624   8.848   6.128 -4.3463 -0.2164 -1.7124
  743MOL0     H  286   5.716   8.737   6.048  0.4649  1.4870  0.2336
  743MOL0     H  287   5.222   8.226   5.522  1.9597  1.6259  1.0190
  743MOL0     H  288   5.248   8.215   5.281  2.3778  2.3789 -3.3909
  743MOL0     H  289   5.185   8.209   4.874  2.5598  0.6017 -0.3077
  743MOL0     H  290   5.189   8.195   4.629 -1.0078 -0.0316  0.4517
  743MOL0     H  291   5.741   9.123   3.136  0.3949 -0.1405  0.9098
  743MOL0     H  292   5.569   9.166   2.981  0.6335 -0.0771 -0.0737
  743MOL0     H  293   5.296   9.127   2.692 -1.5101 -0.5646  1.8541
  743MOL0     H  294   5.143   9.154   2.485 -1.7880 -0.5999 -2.3017
  743MOL0     H  295   4.718   9.025   2.533 -2.4337  0.3742 -1.3412
  743MOL0     H  296   4.732   9.191   2.583  0.2193  0.2759  0.9610
  743MOL0     H  297   4.745   9.101   2.300  0.0575  0.1742 -0.4871
  743MOL0     H  298   4.720   9.273   2.370 -3.8315  1.0446  3.6453
  743MOL0     H  299   4.487   9.209   2.431 -1.7756  0.4868  0.4392
  743MOL0     H  300   4.532   9.041   2.423 -1.3857  0.1764 -0.0742
  743MOL0     H  301   4.535   9.081   2.152  0.8730  0.7518  0.8346
  743MOL0     H  302   4.462   9.234   2.184 -0.5535 -0.5205 -2.4823
  743MOL0     H  303   4.152   8.952   2.220  0.8214 -1.1376  0.3166
  743MOL0     H  304   4.833   8.963   2.707 -0.7776 -2.6462 -2.6753
  743MOL0     H  305   4.992   8.901   2.882  1.8249 -1.1682  0.5098
  744MOL0     O  306   6.938   4.487   0.702 -0.8673 -0.2755 -0.6823
  744MOL0     C  307   6.834   4.442   0.670 -0.2644  0.0245 -0.0231
  744MOL0     O  308   6.799   4.432   0.537  2.1755 -0.3955 -0.6991
  744MOL0     C  309   6.873   4.494   0.438  0.1075 -0.0398  0.6198
  744MOL0     C  310   6.882   4.417   0.320  0.9987 -0.8638  0.4468
  744MOL0     C  311   6.966   4.457   0.219 -0.8458  0.6942 -0.7351
  744MOL0     C  312   7.031   4.583   0.229  0.3753  0.0968 -0.4278
  744MOL0     O  313   7.103   4.642   0.132  0.1035  0.0565  0.4991
  744MOL0     C  314   7.192   4.555   0.058 -0.3869  0.7366  0.5559
  744MOL0     C  315   7.279   4.456   0.130  0.1737 -0.1906  0.2531
  744MOL0     C  316   7.414   4.411   0.056  0.0742  0.0504 -0.4516
  744MOL0     C  317   7.463   4.291   0.137  0.5237  0.2124  0.4737
  744MOL0     C  318   7.583   4.215   0.068  1.0651  0.4321  0.3938
  744MOL0     C  319   7.569   4.065   0.069 -0.5975  0.3943 -0.8969
  744MOL0     C  320   7.713   4.000   0.050 -1.0963  0.8222  0.1291
  744MOL0     C  321   7.709   3.854   0.004  0.3584 -0.6486 -0.7862
  744MOL0     N  322   7.627   3.767   0.094 -0.5946 -0.1984  0.5157
  744MOL0     C  323   7.515   3.690   0.057 -0.3439 -0.6150 -0.1709
  744MOL0     C  324   7.468   3.633   0.177 -0.2873 -0.1738  0.8195
  744MOL0     C  325   7.347   3.536   0.180 -1.0690 -1.1260  0.7968
  744MOL0     C  326   7.372   3.393   0.220  0.4933 -0.7103 -1.0693
  744MOL0     C  327   7.445   3.386   0.359  1.2558  0.7232  0.5456
  744MOL0     C  328   7.423   3.248   0.434 -0.3456 -0.3197 -1.5439
  744MOL0     O  329   7.520   3.233   0.539  0.1902 -0.2614 -0.8101
  744MOL0     C  330   7.509   3.293   0.663 -1.2185 -0.2297 -0.0326
  744MOL0     C  331   7.595   3.245   0.769  0.2728  0.8237  0.0933
  744MOL0     C  332   7.586   3.280   0.899 -0.0024 -0.2114 -0.3550
  744MOL0     C  333   7.672   3.188   0.981 -0.2307 -0.4302 -0.3814
  744MOL0     C  334   7.528   3.400   0.940  0.2500 -0.1496  0.3542
  744MOL0     C  335   7.521   3.445   1.078  0.0666 -0.3935 -0.8183
  744MOL0     O  336   7.558   3.370   1.189 -0.5358  0.8611 -0.1662
  744MOL0     C  337   7.545   3.430   1.309 -0.0667 -0.5862  0.3384
  744MOL0     C  338   7.612   3.543   1.350  0.0391 -0.4171  0.0928
  744MOL0     C  339   7.597   3.589   1.485  0.8530 -0.4124 -0.3455
  744MOL0     C  340   7.544   3.505   1.579  0.4303 -0.5208 -0.0289
  744MOL0     O  341   7.527   3.558   1.701  0.6314  0.5961 -0.4374
  744MOL0     C  342   7.603   3.488   1.800  0.6995  0.2680 -0.5669
  744MOL0     C  343   7.560   3.501   1.951 -0.6298  0.4982  0.5049
  744MOL0     C  344   7.444   3.404   1.986 -0.4660  0.4056  0.8600
  744MOL0     C  345   7.394   3.451   2.114  0.6718 -0.4595  0.4697
  744MOL0     C  346   7.267   3.387   2.163  0.3361  0.4727 -0.1070
  744MOL0     C  347   7.148   3.412   2.066 -0.1104  0.0690  0.2544
  744MOL0     C  348   7.020   3.363   2.126  0.8758  0.4226 -0.0494
  744MOL0     C  349   6.966   3.476   2.209 -0.6657 -0.3340  0.3871
  744MOL0    Cl  350   6.866   3.440   2.348 -0.1463 -0.0582 -0.0419
  744MOL0     C  351   7.491   3.384   1.539  0.4177 -0.2826 -0.7214
  744MOL0     C  352   7.493   3.343   1.404  0.5093 -0.7537  0.2004
  744MOL0     O  353   7.502   3.564   1.081 -0.5342 -0.0291  0.2367
  744MOL0     C  354   7.450   3.459   0.833  0.3195 -0.5819  0.2404
  744MOL0     C  355   7.441   3.408   0.703 -0.1598  0.4413  1.2997
  744MOL0     N  356   7.547   3.681   0.278 -0.3125 -0.1107  0.3384
  744MOL0     N  357   7.642   3.753   0.232  0.1259  0.9106  0.1145
  744MOL0     C  358   7.011   4.667   0.339  0.5759  0.3980 -0.4320
  744MOL0     C  359   6.942   4.617   0.445 -0.1376  0.1799  0.5883
  744MOL0     C  360   6.745   4.378   0.773  0.0476 -0.7372 -0.3652
  744MOL0     C  361   6.612   4.338   0.748  0.0006  0.2269 -0.0200
  744MOL0     C  362   6.528   4.287   0.846 -0.5958  0.3080  0.6504
  744MOL0     C  363   6.572   4.281   0.978 -0.2703  0.2068  0.8539
  744MOL0     O  364   6.500   4.220   1.079 -0.1245  0.5218  0.2536
  744MOL0     C  365   6.359   4.237   1.082 -0.4466 -1.0223  0.1842
  744MOL0     C  366   6.311   4.165   1.203 -0.3519 -0.1772  0.0385
  744MOL0     C  367   6.296   4.020   1.181 -0.1959 -0.0092  0.4797
  744MOL0     C  368   6.254   3.936   1.299 -0.0955  0.2160 -0.0679
  744MOL0     C  369   6.252   3.790   1.254 -1.2226  0.2146 -1.0082
  744MOL0     C  370   6.271   3.673   1.226  1.2354  0.3021  0.5105
  744MOL0     C  371   6.700   4.320   1.000 -0.7179 -0.9179 -0.5492
  744MOL0     C  372   6.796   4.360   0.904  0.8831  0.3109  0.6299
  744MOL0     H  373   6.830   4.321   0.323  0.2879 -0.4938  0.1055
  744MOL0     H  374   6.991   4.383   0.144  0.1196 -0.4218  0.6266
  744MOL0     H  375   7.153   4.498  -0.026  2.1397 -0.8412  0.3707
  744MOL0     H  376   7.244   4.626  -0.007  1.2572 -2.4819 -1.9512
  744MOL0     H  377   7.307   4.497   0.228  1.0390  3.5096 -1.3568
  744MOL0     H  378   7.219   4.366   0.142  1.5077 -1.0398  0.8579
  744MOL0     H  379   7.386   4.381  -0.045 -0.9725 -1.3623  0.2157
  744MOL0     H  380   7.486   4.493   0.046  0.8181 -0.2434  1.8593
  744MOL0     H  381   7.496   4.317   0.238 -1.3427 -0.9450  1.4389
  744MOL0     H  382   7.384   4.217   0.154 -0.8473  0.9450 -2.0746
  744MOL0     H  383   7.587   4.240  -0.038 -0.2879 -2.5583 -0.4673
  744MOL0     H  384   7.668   4.260   0.121 -2.3850  3.7396  3.7753
  744MOL0     H  385   7.536   4.045   0.172 -1.3719  3.3859 -0.4897
  744MOL0     H  386   7.491   4.028   0.001 -3.2907  2.8667  0.5956
  744MOL0     H  387   7.764   4.064  -0.022 -0.2365 -0.0499 -0.0617
  744MOL0     H  388   7.768   4.008   0.144  0.6939  4.6918 -1.0496
  744MOL0     H  389   7.803   3.798   0.003  0.0748 -1.6146  3.7974
  744MOL0     H  390   7.657   3.860  -0.092 -1.1243  0.3784  0.0420
  744MOL0     H  391   7.468   3.673  -0.040 -3.1621 -0.6140  1.0924
  744MOL0     H  392   7.277   3.566   0.259 -2.0583 -2.1323  0.3201
  744MOL0     H  393   7.297   3.542   0.083  0.0322  2.1475  0.3092
  744MOL0     H  394   7.428   3.339   0.142  1.2494 -2.1266  0.3926
  744MOL0     H  395   7.274   3.343   0.222  0.5599 -0.8448 -1.1484
  744MOL0     H  396   7.397   3.465   0.418 -0.7108 -1.3319  1.8878
  744MOL0     H  397   7.553   3.404   0.353  1.6234 -1.4610 -0.3931
  744MOL0     H  398   7.438   3.166   0.363  1.1949 -1.4150 -0.0580
  744MOL0     H  399   7.319   3.247   0.468 -0.6362  2.2064 -2.1312
  744MOL0     H  400   7.661   3.169   0.729 -1.0505  1.0657 -2.8145
  744MOL0     H  401   7.702   3.095   0.931 -3.8740 -1.4706 -0.9279
  744MOL0     H  402   7.754   3.257   1.001  0.2937  0.7408 -5.2208
  744MOL0     H  403   7.623   3.157   1.073  1.4579  0.9380  1.0526
  744MOL0     H  404   7.668   3.609   1.284 -2.2328  0.2268 -1.2806
  744MOL0     H  405   7.631   3.686   1.519  0.4736 -1.2270  2.6144
  744MOL0     H  406   7.608   3.381   1.778  4.2082  0.7555 -3.0029
  744MOL0     H  407   7.705   3.526   1.805  1.2387 -1.0010 -1.2915
  744MOL0     H  408   7.651   3.480   2.007  0.1072 -1.8296 -1.3716
  744MOL0     H  409   7.525   3.604   1.962 -0.8613  0.3492  1.2283
  744MOL0     H  410   7.480   3.301   1.995 -2.0030 -0.3331 -0.7363
  744MOL0     H  411   7.368   3.407   1.908 -0.9673 -0.1059  1.3196
  744MOL0     H  412   7.473   3.447   2.190  2.3221 -1.3182 -1.1882
  744MOL0     H  413   7.377   3.558   2.100 -1.3989 -0.2697  3.5548
  744MOL0     H  414   7.247   3.418   2.266  0.6160 -0.2773  0.1828
  744MOL0     H  415   7.282   3.278   2.167 -1.7903  0.1753  0.9759
  744MOL0     H  416   7.130   3.517   2.044  4.7797  1.2324  0.7582
  744MOL0     H  417   7.156   3.362   1.968  0.3516  2.0337 -0.7633
  744MOL0     H  418   7.038   3.277   2.192  0.2725 -0.4826 -1.0333
  744MOL0     H  419   6.941   3.338   2.054  1.4884  0.9366 -0.9134
  744MOL0     H  420   6.922   3.545   2.136  2.3856  1.8345  0.3977
  744MOL0     H  421   7.045   3.533   2.259 -1.9573  3.4117 -1.4238
  744MOL0     H  422   7.456   3.325   1.623  1.1856  1.6893  1.0486
  744MOL0     H  423   7.452   3.248   1.372 -3.3826  0.5395  0.8020
  744MOL0     H  424   7.387   3.544   0.858  2.2818  1.1565 -0.4662
  744MOL0     H  425   7.363   3.453   0.642 -0.4159 -1.0903  0.4446
  744MOL0     H  426   7.060   4.764   0.344  1.9488 -0.2891  0.1154
  744MOL0     H  427   6.944   4.663   0.544  4.0682  3.5527 -0.7602
  744MOL0     H  428   6.566   4.366   0.653  0.0270  3.1035  0.7223
  744MOL0     H  429   6.424   4.277   0.817 -0.1001  1.1943 -1.5707
  744MOL0     H  430   6.340   4.345   1.070 -0.9612 -1.3115 -2.2194
  744MOL0     H  431   6.313   4.191   0.994 -2.8724  1.1735  0.1594
  744MOL0     H  432   6.223   4.212   1.247 -0.1981  1.2994 -1.1250
  744MOL0     H  433   6.388   4.169   1.280 -1.1678 -0.8727  0.9009
  744MOL0     H  434   6.384   3.983   1.128 -1.5034 -0.7051 -1.3166
  744MOL0     H  435   6.219   4.007   1.105 -0.3736 -1.4940  0.8710
  744MOL0     H  436   6.153   3.975   1.318 -0.9180 -1.8132  0.0090
  744MOL0     H  437   6.310   3.941   1.392  1.3489 -3.2644 -0.6003
  744MOL0     H  438   6.291   3.571   1.203  0.9593  0.6391 -1.4241
  744MOL0     H  439   6.745   4.309   1.099 -2.3093 -0.9514  0.1977
  744MOL0     H  440   6.900   4.381   0.926  1.5953  2.8036 -4.0001
  745MOL0     O  441   5.287   5.986   0.303  0.4322  0.0975  0.2458
  745MOL0     C  442   5.328   6.075   0.371 -0.5363  0.2359 -0.2936
  745MOL0     O  443   5.418   6.057   0.476  1.0353  0.4416 -0.0642
  745MOL0     C  444   5.490   5.941   0.464 -0.0326  0.5771 -0.6371
  745MOL0     C  445   5.600   5.924   0.372  0.0895 -0.9376  0.4283
  745MOL0     C  446   5.659   5.804   0.367  0.5424  0.2489  0.6091
  745MOL0     C  447   5.624   5.697   0.447  0.4964  0.1504  0.1326
  745MOL0     O  448   5.704   5.591   0.439  0.0268  0.0267  0.2547
  745MOL0     C  449   5.678   5.480   0.525  0.2280  0.2872  0.4786
  745MOL0     C  450   5.792   5.374   0.533  0.6717  0.0609 -0.3636
  745MOL0     C  451   5.760   5.253   0.623  0.9496  0.2693 -0.2510
  745MOL0     C  452   5.621   5.230   0.678  0.0389 -0.4875  0.8341
  745MOL0     C  453   5.617   5.091   0.753 -0.5705 -1.3279 -0.6954
  745MOL0     C  454   5.468   5.053   0.792  0.3262  0.0771  0.5739
  745MOL0     C  455   5.390   5.169   0.839  0.0100  0.2643  0.1955
  745MOL0     C  456   5.251   5.119   0.879  0.6558 -0.2081 -0.8203
  745MOL0     N  457   5.162   5.221   0.958  0.6560  0.3033 -0.1339
  745MOL0     C  458   5.221   5.324   1.034  0.3166 -0.2274 -0.0266
  745MOL0     C  459   5.112   5.396   1.077 -0.9030 -0.3514  0.5643
  745MOL0     C  460   5.122   5.505   1.176 -0.3290  0.2569 -0.7814
  745MOL0     C  461   5.100   5.445   1.320 -0.3772 -0.4573 -0.5071
  745MOL0     C  462   5.220   5.353   1.378 -0.6852  0.1475  0.0140
  745MOL0     C  463   5.259   5.379   1.528  0.3877 -0.4283  0.6441
  745MOL0     O  464   5.365   5.290   1.560 -0.3711  0.5629 -0.6210
  745MOL0     C  465   5.414   5.289   1.693  0.2255  0.7428 -0.0738
  745MOL0     C  466   5.529   5.205   1.712  0.0048  1.1518 -0.3432
  745MOL0     C  467   5.592   5.193   1.836 -0.5588  0.6449  0.6706
  745MOL0     C  468   5.726   5.122   1.847  0.2508  0.0225 -0.0941
  745MOL0     C  469   5.527   5.258   1.946 -0.2664  0.6564 -0.3751
  745MOL0     C  470   5.581   5.248   2.081 -0.3689  0.1377  0.1517
  745MOL0     O  471   5.707   5.294   2.109 -0.5423 -0.5491  0.0381
  745MOL0     C  472   5.756   5.307   2.240  0.0493 -0.8639  0.9103
  745MOL0     C  473   5.892   5.338   2.249  0.7222 -0.0868  0.0615
  745MOL0     C  474   5.967   5.337   2.373 -0.5678  0.4247  0.2308
  745MOL0     C  475   5.900   5.325   2.496 -0.8143 -0.3814 -0.5001
  745MOL0     O  476   5.968   5.349   2.617 -0.1982 -0.7690 -0.1224
  745MOL0     C  477   6.096   5.279   2.622 -0.0758  0.6007  0.3723
  745MOL0     C  478   6.101   5.186   2.751 -0.4734  0.0828 -0.2477
  745MOL0     C  479   6.005   5.064   2.739 -0.1966 -0.2571  0.4559
  745MOL0     C  480   5.980   5.000   2.880 -0.4613 -1.0211  0.4805
  745MOL0     C  481   5.921   4.856   2.855  0.3382 -0.3598 -0.2068
  745MOL0     C  482   5.955   4.777   2.980 -0.1815  0.1553  0.5416
  745MOL0     C  483   5.863   4.655   3.000  0.1083  0.7409  0.2356
  745MOL0     C  484   5.898   4.571   3.123 -0.9901  0.1339  0.5907
  745MOL0    Cl  485   5.796   4.435   3.147  0.9697  0.2601 -0.3460
  745MOL0     C  486   5.761   5.303   2.491 -0.2140  0.5439  0.0442
  745MOL0     C  487   5.691   5.293   2.365 -0.1561  0.1636  0.0125
  745MOL0     O  488   5.509   5.198   2.162 -0.0572 -0.3534  0.9448
  745MOL0     C  489   5.416   5.332   1.932  0.4730  0.6198 -0.0408
  745MOL0     C  490   5.367   5.364   1.805 -1.0471 -0.7511 -0.1784
  745MOL0     N  491   5.001   5.348   1.008  0.1631  0.4051  0.1422
  745MOL0     N  492   5.024   5.248   0.933 -0.1031  0.8167  0.3183
  745MOL0     C  493   5.524   5.714   0.544 -0.8019  0.1202 -0.5395
  745MOL0     C  494   5.458   5.841   0.557 -0.9280 -0.8345 -0.2039
  745MOL0     C  495   5.279   6.209   0.350 -0.3445 -0.3686 -0.3253
  745MOL0     C  496   5.306   6.315   0.440 -0.5941  0.0788  0.3555
  745MOL0     C  497   5.243   6.434   0.421 -0.5639  1.5705 -0.1072
  745MOL0     C  498   5.156   6.463   0.319  0.1468  0.5392  1.8762
  745MOL0     O  499   5.102   6.582   0.301 -0.5177  0.8513 -0.1206
  745MOL0     C  500   4.987   6.597   0.213  0.5809 -0.6413 -0.3975
  745MOL0     C  501   4.920   6.734   0.247  0.1020 -0.2377  0.4754
  745MOL0     C  502   4.816   6.772   0.146 -0.0704  0.3977 -0.7380
  745MOL0     C  503   4.774   6.920   0.146 -0.2565 -0.0585  0.1639
  745MOL0     C  504   4.666   6.945   0.057  0.3740  0.6353 -0.0653
  745MOL0     C  505   4.569   6.980  -0.003 -0.8652 -1.0843 -0.9330
  745MOL0     C  506   5.130   6.358   0.228  0.4267 -0.9476  0.4409
  745MOL0     C  507   5.183   6.229   0.242  0.3696  0.2639 -0.2078
  745MOL0     H  508   5.617   6.010   0.308 -2.7398 -0.1339  0.6244
  745MOL0     H  509   5.751   5.789   0.311  0.9838  0.4702  1.2652
  745MOL0     H  510   5.657   5.505   0.630 -0.7548 -1.6504  0.7822
  745MOL0     H  511   5.588   5.425   0.499  2.9865 -3.8208 -1.3572
  745MOL0     H  512   5.839   5.328   0.446  1.2580  0.2272 -0.1381
  745MOL0     H  513   5.875   5.423   0.583 -1.1318  0.7626  2.1860
  745MOL0     H  514   5.785   5.168   0.559 -1.6240  1.1305 -2.6053
  745MOL0     H  515   5.826   5.240   0.710 -1.1553 -0.8108  1.3088
  745MOL0     H  516   5.597   5.315   0.743 -2.3398 -1.7545  1.7186
  745MOL0     H  517   5.542   5.242   0.603 -0.7927  1.1544  1.9027
  745MOL0     H  518   5.683   5.022   0.700  0.9139  1.1925 -2.3320
  745MOL0     H  519   5.673   5.102   0.846  1.3634  0.6385 -1.9974
  745MOL0     H  520   5.430   5.013   0.697  1.4709  1.5374 -0.5680
  745MOL0     H  521   5.468   4.976   0.869 -1.4175  0.6691  1.2079
  745MOL0     H  522   5.443   5.211   0.925  1.2160 -1.6812  0.4735
  745MOL0     H  523   5.375   5.251   0.768 -3.3275  0.4048  0.8904
  745MOL0     H  524   5.253   5.030   0.942  0.0658  1.6980  2.1200
  745MOL0     H  525   5.195   5.103   0.786  0.6288 -3.3286 -0.3661
  745MOL0     H  526   5.322   5.356   1.057  0.4944 -1.0629  0.4017
  745MOL0     H  527   5.226   5.540   1.168  0.2540 -0.7610  1.4252
  745MOL0     H  528   5.049   5.580   1.145 -0.3451  2.2453  3.3756
  745MOL0     H  529   5.002   5.396   1.322 -1.0400  0.8019 -1.0696
  745MOL0     H  530   5.089   5.531   1.387 -1.1425 -2.8499  2.7122
  745MOL0     H  531   5.309   5.349   1.316 -2.6199 -2.3368 -2.8791
  745MOL0     H  532   5.179   5.252   1.372 -2.2086  0.8022 -1.8681
  745MOL0     H  533   5.174   5.396   1.595 -0.2700 -1.4146  0.0914
  745MOL0     H  534   5.309   5.476   1.532  1.9356 -1.2150  4.3470
  745MOL0     H  535   5.566   5.163   1.620 -1.3660  0.2371 -0.5065
  745MOL0     H  536   5.790   5.184   1.910 -0.8315 -0.1646  1.2382
  745MOL0     H  537   5.709   5.022   1.890 -0.0566  0.0028 -0.2616
  745MOL0     H  538   5.791   5.108   1.760 -0.8992  0.5720 -1.0673
  745MOL0     H  539   5.928   5.367   2.151 -2.9753 -1.6816 -1.9706
  745MOL0     H  540   6.071   5.367   2.370 -0.6251  0.5659 -2.0757
  745MOL0     H  541   6.120   5.221   2.532  1.3098 -0.6532  1.4943
  745MOL0     H  542   6.171   5.358   2.627 -1.3820  1.8766  0.5553
  745MOL0     H  543   6.201   5.148   2.771 -0.4699  0.3750  0.3004
  745MOL0     H  544   6.065   5.249   2.832 -0.2044  2.0965 -1.6118
  745MOL0     H  545   6.054   4.988   2.677  4.4425  2.1731  0.6687
  745MOL0     H  546   5.912   5.105   2.697  0.8465  0.2489 -1.4733
  745MOL0     H  547   6.082   5.000   2.920 -1.0317  0.2380  2.0258
  745MOL0     H  548   5.922   5.067   2.945  0.9009  1.5465 -0.7904
  745MOL0     H  549   5.964   4.805   2.769  0.5034 -2.1822  0.9020
  745MOL0     H  550   5.817   4.864   2.822  0.0974  0.8883  0.7597
  745MOL0     H  551   6.061   4.750   2.978 -0.7957 -2.8324 -3.2399
  745MOL0     H  552   5.925   4.846   3.060 -2.6947  0.6971 -0.7461
  745MOL0     H  553   5.875   4.578   2.923  2.3819 -1.0224  2.1620
  745MOL0     H  554   5.763   4.698   3.011 -1.2540 -2.0332 -0.3686
  745MOL0     H  555   5.893   4.640   3.208 -0.3441  1.0247 -0.0764
  745MOL0     H  556   6.003   4.541   3.120 -0.8300  0.7688 -1.0134
  745MOL0     H  557   5.708   5.286   2.584  1.2173  0.8623  0.9534
  745MOL0     H  558   5.584   5.278   2.379 -0.5204 -0.0514 -2.6034
  745MOL0     H  559   5.378   5.392   2.015 -4.9289  3.6135 -4.0138
  745MOL0     H  560   5.300   5.449   1.802  0.7534  1.0387  3.7260
  745MOL0     H  561   5.495   5.631   0.608 -0.1266  1.7336  1.9920
  745MOL0     H  562   5.376   5.851   0.629 -2.1415 -0.1957 -1.6258
  745MOL0     H  563   5.372   6.281   0.519 -1.0899 -1.4835  0.1459
  745MOL0     H  564   5.263   6.505   0.501  1.2666 -1.4065  2.3565
  745MOL0     H  565   5.023   6.592   0.109 -2.8618  0.8614 -1.7959
  745MOL0     H  566   4.914   6.520   0.238 -0.9331  0.9489  0.2458
  745MOL0     H  567   4.996   6.812   0.250  3.4691 -3.1475 -1.1893
  745MOL0     H  568   4.876   6.736   0.347  1.4130  2.1761  1.0641
  745MOL0     H  569   4.727   6.708   0.148  1.2072 -1.4456  1.5383
  745MOL0     H  570   4.869   6.759   0.051  0.9577 -0.4921 -0.0703
  745MOL0     H  571   4.871   6.968   0.127 -1.5091  1.8056 -2.0184
  745MOL0     H  572   4.740   6.944   0.247 -0.7864  1.0974 -0.2772
  745MOL0     H  573   4.497   7.030  -0.064  0.9935  1.6101 -1.0903
  745MOL0     H  574   5.066   6.365   0.141 -0.5599 -0.4975  1.1790
  745MOL0     H  575   5.176   6.149   0.170  2.4300  0.3857 -0.6077
  746MOL0     O  576   8.031   8.883   2.907 -0.3409 -0.1158 -0.5091
  746MOL0     C  577   8.043   8.767   2.941 -0.2584  0.0949 -0.9516
  746MOL0     O  578   7.938   8.673   2.934 -0.1335 -0.0572  0.5043
  746MOL0     C  579   7.817   8.725   2.909  0.4116  0.1718 -0.8100
  746MOL0     C  580   7.728   8.781   3.019  1.2240 -0.1557 -0.4909
  746MOL0     C  581   7.603   8.824   2.971  0.0374  0.3031  0.0912
  746MOL0     C  582   7.565   8.836   2.845  0.3974  0.3824 -0.0340
  746MOL0     O  583   7.436   8.865   2.819 -0.0710 -0.2038 -0.0932
  746MOL0     C  584   7.392   8.935   2.701 -0.1727 -0.2438  0.7504
  746MOL0     C  585   7.315   9.063   2.722 -0.6894  0.4322  0.6232
  746MOL0     C  586   7.386   9.155   2.820  0.5934  0.0760  0.4126
  746MOL0     C  587   7.311   9.288   2.830 -0.5933 -0.2761 -0.3261
  746MOL0     C  588   7.183   9.287   2.914  0.5836  0.1726  0.6316
  746MOL0     C  589   7.084   9.400   2.867 -0.3958 -0.5459  0.6579
  746MOL0     C  590   7.133   9.548   2.883  0.0789  0.6643 -0.1058
  746MOL0     C  591   7.035   9.646   2.946  0.9379  0.1735 -0.4542
  746MOL0     N  592   7.030   9.630   3.090  0.7458  0.0954 -0.2131
  746MOL0     C  593   7.125   9.675   3.179  0.1241 -0.3029  0.1594
  746MOL0     C  594   7.085   9.643   3.296 -0.8155 -0.9787 -0.3458
  746MOL0     C  595   7.136   9.686   3.425  0.0090  0.5036 -0.1322
  746MOL0     C  596   7.173   9.830   3.406 -1.1585 -0.5349 -0.0695
  746MOL0     C  597   7.206   9.891   3.549 -0.0536 -0.3826  0.2936
  746MOL0     C  598   7.285   9.800   3.633 -0.3981 -0.1904 -0.7707
  746MOL0     O  599   7.352   9.850   3.753  0.5583 -0.0588  0.2370
  746MOL0     C  600   7.462   9.928   3.732  1.0805 -0.6504  0.1785
  746MOL0     C  601   7.504  10.010   3.842  0.4777  0.5129  0.8308
  746MOL0     C  602   7.594  10.110   3.833 -0.4629 -0.1088  0.0024
  746MOL0     C  603   7.609  10.196   3.955  0.6917 -0.5780 -0.2430
  746MOL0     C  604   7.661  10.129   3.710  0.7870  0.8617 -0.7746
  746MOL0     C  605   7.754  10.239   3.684 -0.8792  0.9744  0.3260
  746MOL0     O  606   7.817  10.243   3.555 -0.0708 -0.1830 -0.6404
  746MOL0     C  607   7.934  10.316   3.539 -0.1613  0.2258 -0.1469
  746MOL0     C  608   8.026  10.328   3.631 -0.7643  0.2454 -0.8600
  746MOL0     C  609   8.145  10.400   3.618 -0.3614  0.6332  0.1954
  746MOL0     C  610   8.160  10.471   3.492  0.4220  0.5216  0.0474
  746MOL0     O  611   8.274  10.543   3.467  0.0002  0.0210 -0.7526
  746MOL0     C  612   8.250  10.677   3.492 -0.2249 -0.5676 -0.8691
  746MOL0     C  613   8.374  10.746   3.539 -0.0378  0.2617  0.1951
  746MOL0     C  614   8.466  10.778   3.419 -1.6669 -1.0857  0.5661
  746MOL0     C  615   8.603  10.825   3.466  0.5954  1.0617 -0.2763
  746MOL0     C  616   8.700  10.863   3.354  0.5204  0.1910 -0.1252
  746MOL0     C  617   8.832  10.793   3.340  0.7796  0.3760 -0.2164
  746MOL0     C  618   8.890  10.816   3.199 -0.7005 -0.4473 -1.3057
  746MOL0     C  619   9.044  10.783   3.191 -0.2764  0.2868 -0.3210
  746MOL0    Cl  620   9.092  10.633   3.269  0.3881  0.2614 -0.3712
  746MOL0     C  621   8.068  10.461   3.394  1.8137  1.0499  0.4761
  746MOL0     C  622   7.948  10.387   3.421 -0.0263  0.5699  0.3215
  746MOL0     O  623   7.774  10.316   3.774  0.3965  0.0564  0.1696
  746MOL0     C  624   7.623  10.044   3.598  1.0950  0.0444 -0.3685
  746MOL0     C  625   7.524   9.949   3.608  0.1906 -0.0523 -0.1160
  746MOL0     N  626   6.971   9.561   3.280  0.3003 -0.9429  0.2336
  746MOL0     N  627   6.939   9.551   3.159  1.1271  0.7315 -0.3838
  746MOL0     C  628   7.652   8.787   2.748 -0.7408  0.2004  0.1745
  746MOL0     C  629   7.774   8.727   2.779  0.3583  0.1586 -0.2607
  746MOL0     C  630   8.187   8.732   2.970  0.3103  0.1801 -0.1223
  746MOL0     C  631   8.230   8.603   3.003 -0.5315 -0.2721  0.7087
  746MOL0     C  632   8.367   8.574   3.037 -0.5617 -0.4525 -0.7078
  746MOL0     C  633   8.460   8.674   3.038  0.7011  0.8262 -0.1502
  746MOL0     O  634   8.587   8.651   3.077  0.1353  0.4221  0.3070
  746MOL0     C  635   8.668   8.754   3.146  0.0352 -0.2025 -0.2081
  746MOL0     C  636   8.779   8.671   3.218  0.3596  1.0324  1.1020
  746MOL0     C  637   8.874   8.749   3.290 -1.1174  0.3773  0.0920
  746MOL0     C  638   8.992   8.659   3.339 -0.4931  0.5005  0.1619
  746MOL0     C  639   9.099   8.735   3.398  0.1531  0.1683 -0.7633
  746MOL0     C  640   9.184   8.812   3.445 -0.1826 -0.0892 -0.4780
  746MOL0     C  641   8.416   8.803   3.001 -0.4999 -0.4700  0.3338
  746MOL0     C  642   8.288   8.838   2.975  0.4509  0.2132 -1.0324
  746MOL0     H  643   7.761   8.782   3.123 -0.9579 -0.9416  0.2576
  746MOL0     H  644   7.525   8.864   3.035 -1.5714  0.0493 -1.6285
  746MOL0     H  645   7.487   8.965   2.654  0.5968 -1.0293  1.7648
  746MOL0     H  646   7.339   8.873   2.628 -1.7786 -0.4338  2.0414
  746MOL0     H  647   7.317   9.115   2.626 -3.3808  0.0916  0.2980
  746MOL0     H  648   7.212   9.046   2.756 -1.0758  0.0742 -0.6783
  746MOL0     H  649   7.389   9.120   2.924  0.0773  2.0081  1.1139
  746MOL0     H  650   7.485   9.173   2.778  0.7104 -2.1645 -0.3957
  746MOL0     H  651   7.383   9.362   2.866 -0.2484  0.1617 -1.8390
  746MOL0     H  652   7.298   9.324   2.728 -2.5971 -0.9393 -0.3590
  746MOL0     H  653   7.126   9.198   2.887  1.5836 -0.0423 -0.8994
  746MOL0     H  654   7.189   9.291   3.023 -4.4182  1.3485  1.0902
  746MOL0     H  655   7.069   9.383   2.760  0.1308  0.1325  0.4750
  746MOL0     H  656   6.986   9.390   2.915 -0.0509 -2.4673  1.0786
  746MOL0     H  657   7.221   9.550   2.948 -0.5356 -0.7611  0.8058
  746MOL0     H  658   7.165   9.585   2.785  0.6505  0.4298 -0.0093
  746MOL0     H  659   6.939   9.610   2.908  1.2958  1.2728 -2.5727
  746MOL0     H  660   7.062   9.749   2.920 -0.9371  1.6137  2.8070
  746MOL0     H  661   7.214   9.731   3.153 -0.0853 -0.0144  0.0578
  746MOL0     H  662   7.057   9.680   3.501  1.5306  2.2659  1.6659
  746MOL0     H  663   7.226   9.626   3.441 -0.3095 -0.5389 -1.9195
  746MOL0     H  664   7.091   9.887   3.359 -0.4042  1.7113  1.1935
  746MOL0     H  665   7.257   9.846   3.338 -0.9975 -1.5785 -0.1278
  746MOL0     H  666   7.120   9.922   3.608  0.1727 -0.3797  0.6233
  746MOL0     H  667   7.273   9.977   3.535  1.0842 -1.2380  0.3301
  746MOL0     H  668   7.361   9.746   3.576 -1.0769  0.7318 -2.6334
  746MOL0     H  669   7.222   9.720   3.673  1.6815 -2.8031 -2.4487
  746MOL0     H  670   7.459   9.985   3.938  2.0836 -3.5062  0.7599
  746MOL0     H  671   7.708  10.209   3.999 -0.1886  0.5707  1.4896
  746MOL0     H  672   7.580  10.299   3.930  2.0662  0.3835  1.8875
  746MOL0     H  673   7.550  10.152   4.036 -2.7068  0.8171 -1.7614
  746MOL0     H  674   8.010  10.278   3.726 -0.2501 -0.8676 -1.3362
  746MOL0     H  675   8.211  10.396   3.704 -3.1955 -2.3393  2.4971
  746MOL0     H  676   8.220  10.730   3.401 -0.4004  1.3687  0.2739
  746MOL0     H  677   8.181  10.689   3.576  0.6368 -0.4882 -0.1620
  746MOL0     H  678   8.359  10.841   3.592  1.8785  1.2327 -0.8803
  746MOL0     H  679   8.430  10.678   3.604 -0.8244 -4.1354 -3.2570
  746MOL0     H  680   8.422  10.844   3.343  2.2032  1.1915  0.0245
  746MOL0     H  681   8.488  10.692   3.355 -2.8662 -0.3300 -0.9397
  746MOL0     H  682   8.575  10.898   3.543  1.4640 -1.2296  2.3878
  746MOL0     H  683   8.658  10.753   3.527 -3.3142  0.4275  2.9759
  746MOL0     H  684   8.724  10.968   3.374 -0.2240  0.5679 -1.0975
  746MOL0     H  685   8.644  10.860   3.260 -2.8805 -0.7114  1.7814
  746MOL0     H  686   8.890  10.835   3.422 -1.1552  0.0044  1.4288
  746MOL0     H  687   8.818  10.689   3.370 -0.2883  0.6071  0.1346
  746MOL0     H  688   8.877  10.922   3.177 -2.0976 -0.4131 -0.4190
  746MOL0     H  689   8.844  10.759   3.117  0.8187 -0.2892 -2.3199
  746MOL0     H  690   9.097  10.869   3.233  1.8393 -1.1603  0.1367
  746MOL0     H  691   9.077  10.767   3.088 -1.3726 -0.9718 -0.5082
  746MOL0     H  692   8.075  10.506   3.296  1.4236 -2.3426 -1.2909
  746MOL0     H  693   7.874  10.360   3.345 -0.3848 -0.0685  0.8825
  746MOL0     H  694   7.678  10.032   3.505  0.9825 -1.4910 -0.2654
  746MOL0     H  695   7.496   9.887   3.523  0.6380  0.2553 -0.4960
  746MOL0     H  696   7.621   8.777   2.644  1.9599  0.9382 -0.7644
  746MOL0     H  697   7.847   8.686   2.708  3.3887  3.2880  0.7638
  746MOL0     H  698   8.161   8.520   3.017 -1.4774 -0.0110 -1.8982
  746MOL0     H  699   8.396   8.475   3.071 -1.3884 -0.4625  0.0355
  746MOL0     H  700   8.709   8.836   3.085 -3.3009  1.4225 -0.4881
  746MOL0     H  701   8.604   8.795   3.225  1.5471  0.9162  0.5102
  746MOL0     H  702   8.830   8.616   3.138 -2.2888  1.3328 -0.9564
  746MOL0     H  703   8.724   8.588   3.263 -2.6790  0.9780 -2.2232
  746MOL0     H  704   8.837   8.808   3.374  3.6047  1.8275  1.5082
  746MOL0     H  705   8.907   8.817   3.211 -4.0606  0.1232 -1.4596
  746MOL0     H  706   9.025   8.604   3.250  1.6767  4.4662 -1.7645
  746MOL0     H  707   8.954   8.588   3.413 -0.1805 -0.8417 -0.9124
  746MOL0     H  708   9.250   8.880   3.495 -0.4738 -0.3151  0.2373
  746MOL0     H  709   8.487   8.884   2.982  1.4342 -2.2978 -0.6730
  746MOL0     H  710   8.247   8.938   2.971 -1.9879 -0.7228 -1.3091
  747MOL0     O  711  11.224   7.614  10.440  0.2601  0.2106 -0.5456
  747MOL0     C  712  11.324   7.622  10.358  0.4168  0.4945 -1.1250
  747MOL0     O  713  11.316   7.600  10.223 -0.0036 -0.0879 -0.0472
  747MOL0     C  714  11.199   7.579  10.157 -0.6788 -0.4062  0.8538
  747MOL0     C  715  11.196   7.479  10.055  0.8176 -0.2001 -0.4110
  747MOL0     C  716  11.069   7.466   9.988 -0.9835  0.3414  0.2557
  747MOL0     C  717  10.958   7.558   9.999  0.6213 -0.4009 -0.3168
  747MOL0     O  718  10.837   7.523   9.942 -0.2448 -0.6963 -0.0931
  747MOL0     C  719  10.750   7.627   9.889  0.0130 -0.6957  0.1566
  747MOL0     C  720  10.724   7.588   9.744  0.2926 -0.9388 -0.3417
  747MOL0     C  721  10.625   7.688   9.688 -0.6187  0.0297 -0.1358
  747MOL0     C  722  10.498   7.641   9.634  0.3165  0.2765  0.9205
  747MOL0     C  723  10.442   7.739   9.536  0.0526 -0.5380  0.2097
  747MOL0     C  724  10.289   7.740   9.539  0.8920  0.1220  0.4048
  747MOL0     C  725  10.245   7.842   9.442  0.1513  0.2644  0.3448
  747MOL0     C  726  10.101   7.882   9.448  0.2013  0.8219 -0.2159
  747MOL0     N  727  10.013   7.791   9.378 -0.5120 -0.1257  0.2630
  747MOL0     C  728   9.974   7.677   9.435  0.0304 -0.3659  0.2885
  747MOL0     C  729   9.909   7.608   9.335 -0.7035 -0.1468 -0.4573
  747MOL0     C  730   9.842   7.479   9.369  0.5839 -0.4392 -0.3798
  747MOL0     C  731   9.942   7.360   9.402  0.7196  0.2779  0.0918
  747MOL0     C  732   9.874   7.234   9.470 -0.2007  0.6220 -0.1262
  747MOL0     C  733   9.982   7.129   9.498 -0.1019 -0.2946 -0.0992
  747MOL0     O  734  10.049   7.155   9.621 -0.6825  0.1488 -0.1322
  747MOL0     C  735  10.151   7.065   9.659 -0.4583 -0.3031  0.2380
  747MOL0     C  736  10.208   7.081   9.780  0.5205 -0.0124 -0.7736
  747MOL0     C  737  10.285   6.982   9.841  0.7691 -0.0058 -0.4837
  747MOL0     C  738  10.331   7.014   9.980 -0.3046  0.2387  0.2229
  747MOL0     C  739  10.339   6.877   9.757 -0.0986  0.6571 -0.1937
  747MOL0     C  740  10.443   6.775   9.792  0.2453 -0.2989  0.1085
  747MOL0     O  741  10.496   6.705   9.690 -0.0437 -0.0964  0.1156
  747MOL0     C  742  10.521   6.567   9.707 -0.4097 -0.4759 -1.0692
  747MOL0     C  743  10.612   6.501   9.626  0.0371 -0.1360  0.2384
  747MOL0     C  744  10.640   6.364   9.634  0.3760 -0.2032  0.2179
  747MOL0     C  745  10.572   6.284   9.727 -0.2380  1.3730  0.8185
  747MOL0     O  746  10.592   6.149   9.751  0.1931 -0.4609 -0.2866
  747MOL0     C  747  10.716   6.093   9.716  0.0383 -0.3128 -0.6027
  747MOL0     C  748  10.764   6.000   9.830  0.1121  0.0554  1.1346
  747MOL0     C  749  10.773   6.091   9.954 -0.1970  0.5447  0.4113
  747MOL0     C  750  10.874   6.014  10.049 -0.4678 -1.0936  0.3154
  747MOL0     C  751  10.936   6.111  10.154  0.2066  0.4212  0.3404
  747MOL0     C  752  10.834   6.186  10.252 -0.0576  0.0780  0.2346
  747MOL0     C  753  10.880   6.168  10.393 -0.8159 -0.2967 -0.1166
  747MOL0     C  754  10.784   6.236  10.492 -0.4728 -1.0495  0.1503
  747MOL0    Cl  755  10.793   6.413  10.459 -0.1956 -0.0963 -0.6193
  747MOL0     C  756  10.493   6.343   9.812  0.1538 -0.4465  0.0341
  747MOL0     C  757  10.461   6.482   9.795 -0.3118 -0.0720  0.0635
  747MOL0     O  758  10.461   6.748   9.913 -0.0899 -0.1865  0.3866
  747MOL0     C  759  10.299   6.866   9.622 -0.2044 -1.3181 -0.0448
  747MOL0     C  760  10.209   6.961   9.575  0.5987  0.2569 -0.2725
  747MOL0     N  761   9.938   7.671   9.214  0.5261 -0.3362  0.1868
  747MOL0     N  762   9.978   7.785   9.244 -0.2788  0.2150  0.4506
  747MOL0     C  763  10.968   7.657  10.101 -0.8635 -0.4546 -0.4607
  747MOL0     C  764  11.082   7.658  10.177 -0.1175  0.0194  0.9478
  747MOL0     C  765  11.453   7.674  10.404 -0.5413 -0.3453 -0.3258
  747MOL0     C  766  11.488   7.666  10.541  0.2732 -0.6676 -0.1354
  747MOL0     C  767  11.604   7.716  10.600 -0.0976 -0.3476 -0.2780
  747MOL0     C  768  11.700   7.777  10.518  0.3261 -0.8491 -0.2293
  747MOL0     O  769  11.815   7.844  10.558  0.4290  0.5093  0.2920
  747MOL0     C  770  11.884   7.787  10.672  0.0257 -0.1166  0.3856
  747MOL0     C  771  11.992   7.887  10.709  0.7191  0.3911 -0.7656
  747MOL0     C  772  12.120   7.861  10.628  0.0332  0.9956  0.5870
  747MOL0     C  773  12.104   7.917  10.481  0.1793  0.4280  0.0515
  747MOL0     C  774  12.245   7.951  10.441  0.8510 -0.0896  0.5771
  747MOL0     C  775  12.355   7.989  10.409 -0.0599  0.6387  0.5409
  747MOL0     C  776  11.677   7.771  10.384 -0.0657 -0.3994  0.8828
  747MOL0     C  777  11.560   7.720  10.324  0.3999 -0.5602  0.0058
  747MOL0     H  778  11.276   7.415  10.022  0.4058 -0.2441 -1.3422
  747MOL0     H  779  11.064   7.376   9.928 -0.6492  1.0505 -0.8487
  747MOL0     H  780  10.659   7.625   9.949  0.7353  0.8561  1.3666
  747MOL0     H  781  10.804   7.722   9.897 -0.4336 -0.2881 -1.4777
  747MOL0     H  782  10.817   7.593   9.687 -0.8043 -1.6772 -2.2955
  747MOL0     H  783  10.682   7.488   9.742 -0.1844 -0.7512  0.0783
  747MOL0     H  784  10.603   7.769   9.758  1.8524  3.1819 -2.6645
  747MOL0     H  785  10.682   7.751   9.618 -0.3564  2.2787  1.9744
  747MOL0     H  786  10.513   7.541   9.591  3.1984  0.9374  0.1777
  747MOL0     H  787  10.421   7.627   9.710 -1.3373 -3.7760 -1.1540
  747MOL0     H  788  10.482   7.840   9.551  1.3339 -0.2729 -3.7317
  747MOL0     H  789  10.481   7.710   9.438 -0.3991  1.4223 -0.5999
  747MOL0     H  790  10.255   7.638   9.523 -1.1899  0.4826  2.0380
  747MOL0     H  791  10.260   7.788   9.633  1.9006  3.4286 -0.8062
  747MOL0     H  792  10.299   7.936   9.457 -0.0371  0.3939  0.2225
  747MOL0     H  793  10.262   7.796   9.345  0.7130  0.7326  0.2183
  747MOL0     H  794  10.097   7.980   9.400  3.7106 -0.4618 -3.5448
  747MOL0     H  795  10.070   7.879   9.553  2.7409 -1.0813  0.5764
  747MOL0     H  796   9.981   7.655   9.541 -2.8929  1.5307  1.0137
  747MOL0     H  797   9.790   7.488   9.465  3.1683 -0.3345  1.1336
  747MOL0     H  798   9.774   7.445   9.291 -1.1600 -1.4525  1.4931
  747MOL0     H  799  10.035   7.397   9.446  2.8961 -2.1249 -2.1212
  747MOL0     H  800   9.974   7.320   9.305 -0.4055 -0.1270 -0.1262
  747MOL0     H  801   9.803   7.192   9.397  0.3832 -4.5249  1.8575
  747MOL0     H  802   9.819   7.264   9.560 -0.3559  1.9896 -0.6480
  747MOL0     H  803  10.055   7.131   9.416  2.1915  0.1652  1.8568
  747MOL0     H  804   9.920   7.039   9.503 -3.1316  1.2825 -3.7093
  747MOL0     H  805  10.188   7.164   9.847 -2.5811  2.0099 -3.8588
  747MOL0     H  806  10.287   7.100  10.031 -1.5530 -0.5014  0.4511
  747MOL0     H  807  10.307   6.933  10.049 -0.6440  0.8368  0.8173
  747MOL0     H  808  10.440   7.018   9.971  0.0396 -5.2090 -1.8040
  747MOL0     H  809  10.658   6.558   9.546  0.4551  0.4363  0.8755
  747MOL0     H  810  10.702   6.321   9.556  0.2984 -1.4546  0.8172
  747MOL0     H  811  10.684   6.021   9.641  0.7014 -4.5144  2.7331
  747MOL0     H  812  10.802   6.159   9.703  1.0132 -1.2828  0.5379
  747MOL0     H  813  10.698   5.914   9.844  0.0802 -0.2547 -0.6558
  747MOL0     H  814  10.856   5.962   9.785 -0.1666 -0.3590  0.9097
  747MOL0     H  815  10.673   6.106   9.995 -1.5513 -1.1064 -2.0109
  747MOL0     H  816  10.812   6.192   9.938  2.3314 -0.1188  1.9207
  747MOL0     H  817  10.828   5.925  10.093  2.6502 -2.1017  1.8299
  747MOL0     H  818  10.951   5.978   9.980 -1.5190  0.6955 -1.9285
  747MOL0     H  819  10.993   6.191  10.105 -1.2652  1.5732  0.4375
  747MOL0     H  820  11.005   6.053  10.216  3.3814  2.9428 -0.5682
  747MOL0     H  821  10.840   6.294  10.232  1.3451  0.1449  0.8875
  747MOL0     H  822  10.734   6.149  10.228  0.8375  0.0763 -4.3544
  747MOL0     H  823  10.985   6.193  10.405 -0.7081 -0.8599  0.1598
  747MOL0     H  824  10.876   6.059  10.403  0.6227 -0.2547  1.1355
  747MOL0     H  825  10.813   6.229  10.597  2.0188 -1.6956 -0.5018
  747MOL0     H  826  10.679   6.205  10.492 -1.1785  1.2007  0.4545
  747MOL0     H  827  10.444   6.291   9.893 -0.4521  0.7585  0.4727
  747MOL0     H  828  10.381   6.520   9.858  0.7187  0.7051  0.9691
  747MOL0     H  829  10.324   6.781   9.559 -3.0323  0.3685 -3.8986
  747MOL0     H  830  10.190   6.962   9.468  1.8844 -1.5065 -0.5601
  747MOL0     H  831  10.886   7.725  10.125 -1.9045 -0.8692 -2.6025
  747MOL0     H  832  11.101   7.734  10.252  1.0889 -1.6221  2.4011
  747MOL0     H  833  11.421   7.626  10.617  0.5593  1.1796  1.1603
  747MOL0     H  834  11.611   7.715  10.708  1.4570  0.4026 -0.3478
  747MOL0     H  835  11.822   7.773  10.761  0.6760 -1.3645  0.6595
  747MOL0     H  836  11.926   7.694  10.634  0.8119  1.1957 -2.1583
  747MOL0     H  837  12.011   7.886  10.817  0.2418  0.3084 -0.6794
  747MOL0     H  838  11.964   7.990  10.687  3.2119  0.4908 -4.1403
  747MOL0     H  839  12.144   7.754  10.633 -0.0704  1.0173  1.9082
  747MOL0     H  840  12.200   7.916  10.677  0.4156  1.1424 -0.1780
  747MOL0     H  841  12.033   8.001  10.474 -1.0179 -0.5195  0.4523
  747MOL0     H  842  12.067   7.825  10.435  2.1151  0.1970 -1.1478
  747MOL0     H  843  12.453   8.020  10.380  1.6033 -1.3624  3.4371
  747MOL0     H  844  11.748   7.820  10.317 -2.2715  4.4880  1.6651
  747MOL0     H  845  11.550   7.716  10.216  0.5559 -1.1772  0.0100
  748MOL0     O  846   3.933   1.647   9.854 -0.3880 -0.6180  0.0857
  748MOL0     C  847   3.871   1.601   9.952 -1.2577  0.1588  0.5230
  748MOL0     O  848   3.918   1.601  10.079 -0.1552  0.3082  0.0910
  748MOL0     C  849   4.033   1.675  10.117  0.3452  0.2910 -0.3040
  748MOL0     C  850   4.026   1.813  10.121  1.0379 -0.3995 -0.2936
  748MOL0     C  851   4.132   1.894  10.170 -0.5002 -0.1528  0.2738
  748MOL0     C  852   4.250   1.839  10.213  0.3430  0.0370  0.6239
  748MOL0     O  853   4.353   1.919  10.258  1.1985  0.2185 -1.0328
  748MOL0     C  854   4.478   1.871  10.288  0.8378 -0.9711 -0.2178
  748MOL0     C  855   4.576   1.981  10.301  0.0056  0.2503  0.6300
  748MOL0     C  856   4.724   1.924  10.304  0.1888  0.4783  0.1992
  748MOL0     C  857   4.813   2.021  10.375  0.2261 -0.4622 -0.3017
  748MOL0     C  858   4.834   2.148  10.302 -0.3534  0.6270  0.6389
  748MOL0     C  859   4.950   2.124  10.206 -0.6401 -0.4788  0.0405
  748MOL0     C  860   5.006   2.251  10.129 -0.3830  0.1732  0.5629
  748MOL0     C  861   5.093   2.335  10.222 -0.4664 -1.0355 -0.3233
  748MOL0     N  862   5.134   2.464  10.153 -0.4665  0.5980  0.1811
  748MOL0     C  863   5.251   2.476  10.085  0.6136 -0.0146 -0.6649
  748MOL0     C  864   5.265   2.608  10.077 -0.0480 -0.1720 -0.5404
  748MOL0     C  865   5.397   2.680  10.053 -0.0476  0.5338 -0.1963
  748MOL0     C  866   5.377   2.810   9.972 -0.3108  0.4288 -0.5918
  748MOL0     C  867   5.503   2.898   9.979  0.1894 -0.0379  0.7128
  748MOL0     C  868   5.606   2.887   9.865  0.4523 -1.0612 -0.4008
  748MOL0     O  869   5.676   3.012   9.845  0.4899  0.2024  0.6867
  748MOL0     C  870   5.804   2.991   9.810  0.4663 -0.9435 -0.4815
  748MOL0     C  871   5.904   2.952   9.904  1.0732 -0.3217  0.5683
  748MOL0     C  872   6.033   2.928   9.857  0.1413 -0.2612 -0.1016
  748MOL0     C  873   6.134   2.903   9.967 -0.3203 -0.3968  0.1952
  748MOL0     C  874   6.070   2.925   9.719 -0.0673 -0.0855 -0.9114
  748MOL0     C  875   6.206   2.882   9.682  0.6854  0.2893 -0.2059
  748MOL0     O  876   6.268   2.769   9.729  0.1314 -0.0781  0.1269
  748MOL0     C  877   6.376   2.717   9.658  0.0269  0.2753 -0.6593
  748MOL0     C  878   6.396   2.724   9.521  0.7165 -1.0895  0.8756
  748MOL0     C  879   6.510   2.667   9.467  0.4983 -0.9416  0.0728
  748MOL0     C  880   6.609   2.603   9.543  0.7218 -0.1150  1.1868
  748MOL0     O  881   6.703   2.528   9.484  0.3694  0.0078  0.3310
  748MOL0     C  882   6.827   2.529   9.547  0.2900 -0.2445 -0.3871
  748MOL0     C  883   6.945   2.545   9.449  0.5199  0.7462 -0.3502
  748MOL0     C  884   6.964   2.691   9.396 -0.9820 -0.3984  0.6962
  748MOL0     C  885   7.107   2.721   9.339 -0.7089  0.2077 -0.3187
  748MOL0     C  886   7.138   2.872   9.317 -1.2919 -0.4357 -0.4518
  748MOL0     C  887   7.294   2.891   9.307  1.1204  0.0510  0.1674
  748MOL0     C  888   7.337   3.029   9.268  0.1005 -0.6669 -0.0327
  748MOL0     C  889   7.313   3.054   9.112  0.7240 -0.4677 -0.3477
  748MOL0    Cl  890   7.444   2.984   9.019 -0.2547  0.3027  0.2187
  748MOL0     C  891   6.586   2.592   9.683 -0.3897  1.0096 -0.4692
  748MOL0     C  892   6.470   2.659   9.736 -0.3778 -0.7031 -1.0893
  748MOL0     O  893   6.249   2.955   9.599  0.1216 -0.4995  0.7581
  748MOL0     C  894   5.973   2.959   9.626 -0.8460 -0.5865  0.4694
  748MOL0     C  895   5.840   2.986   9.673 -0.0021 -0.4487  1.4101
  748MOL0     N  896   5.137   2.659  10.119 -0.9458 -0.7424  0.4071
  748MOL0     N  897   5.060   2.574  10.153 -0.2124 -0.3675 -0.6735
  748MOL0     C  898   4.248   1.696  10.224  0.1734 -0.0413  0.1956
  748MOL0     C  899   4.144   1.621  10.175  0.1836  0.5706 -0.3982
  748MOL0     C  900   3.732   1.551   9.928 -0.3211  0.2514 -1.2897
  748MOL0     C  901   3.639   1.528  10.037  0.1377 -0.0514  0.5223
  748MOL0     C  902   3.517   1.460  10.015 -0.1880 -0.3656  0.2211
  748MOL0     C  903   3.465   1.429   9.891  1.0470  0.4931 -0.9526
  748MOL0     O  904   3.344   1.360   9.882  0.3003  0.1178 -0.3298
  748MOL0     C  905   3.353   1.218   9.911  0.1801 -0.6740  0.3854
  748MOL0     C  906   3.333   1.170  10.051 -0.4931  0.2966  0.0570
  748MOL0     C  907   3.239   1.261  10.133 -0.1914  0.7288  0.1842
  748MOL0     C  908   3.091   1.220  10.117  0.2907 -0.2885 -0.3874
  748MOL0     C  909   2.997   1.320  10.164 -0.8279 -0.2778 -0.0547
  748MOL0     C  910   2.939   1.415  10.207  0.0661  0.1507 -0.6742
  748MOL0     C  911   3.550   1.468   9.781  0.0629 -0.2414  0.6891
  748MOL0     C  912   3.683   1.519   9.797 -0.4143 -1.6972 -0.9365
  748MOL0     H  913   3.940   1.873  10.096  2.2474  2.1809  1.2765
  748MOL0     H  914   4.129   2.002  10.164  0.6929 -0.1231 -0.0930
  748MOL0     H  915   4.470   1.826  10.388  0.0677  0.8799  0.5934
  748MOL0     H  916   4.499   1.801  10.206  1.5339 -1.4546  0.3636
  748MOL0     H  917   4.570   2.042  10.211 -1.1092 -1.5277 -0.5535
  748MOL0     H  918   4.555   2.044  10.388 -2.0649 -1.8128  1.7219
  748MOL0     H  919   4.722   1.842  10.377 -0.0337  2.0816  2.0798
  748MOL0     H  920   4.767   1.886  10.211  2.9874  0.1373  1.5439
  748MOL0     H  921   4.754   2.041  10.464 -0.4332  1.5412 -1.1419
  748MOL0     H  922   4.912   1.983  10.402  0.2426 -0.6756 -0.6447
  748MOL0     H  923   4.744   2.178  10.246 -3.8496 -4.1631  2.9206
  748MOL0     H  924   4.872   2.230  10.364  3.7668  0.4605 -1.3919
  748MOL0     H  925   5.031   2.072  10.259  0.7672  0.5923 -0.9817
  748MOL0     H  926   4.922   2.055  10.126  1.2673 -0.5613 -0.6052
  748MOL0     H  927   5.075   2.222  10.050 -0.6072  0.4165  0.2751
  748MOL0     H  928   4.931   2.317  10.084 -0.5159  0.1763  0.7839
  748MOL0     H  929   5.187   2.295  10.262  1.0756  0.8073 -1.8644
  748MOL0     H  930   5.025   2.359  10.304 -2.0170 -0.2152 -1.8013
  748MOL0     H  931   5.336   2.409  10.074 -0.5205 -2.0975  2.0815
  748MOL0     H  932   5.436   2.701  10.153 -1.7736 -0.6964  0.7968
  748MOL0     H  933   5.456   2.612   9.991 -3.3067 -4.2201  1.3437
  748MOL0     H  934   5.291   2.861  10.016 -0.5919 -1.1561  0.7683
  748MOL0     H  935   5.340   2.780   9.873 -5.2866  1.5662  0.6401
  748MOL0     H  936   5.549   2.897  10.078 -1.7320  0.6827  1.6428
  748MOL0     H  937   5.466   3.000   9.967  2.6590  0.7708 -0.6523
  748MOL0     H  938   5.547   2.855   9.779  0.9835 -3.0596 -0.0807
  748MOL0     H  939   5.672   2.803   9.892 -0.5723 -2.1246 -1.0810
  748MOL0     H  940   5.879   2.965  10.008 -0.9650  2.7191 -0.1723
  748MOL0     H  941   6.176   2.802   9.966 -0.6239 -0.5259  0.4866
  748MOL0     H  942   6.221   2.967   9.953  0.6443 -1.6374  0.4102
  748MOL0     H  943   6.098   2.912  10.070  2.7533  1.6970  1.2175
  748MOL0     H  944   6.335   2.776   9.448  1.2464 -1.2313  0.3197
  748MOL0     H  945   6.528   2.662   9.360 -0.1829  1.8667 -0.2540
  748MOL0     H  946   6.835   2.609   9.622 -3.8915  0.1136 -0.0520
  748MOL0     H  947   6.841   2.432   9.594 -0.4040  0.0190  0.4023
  748MOL0     H  948   7.041   2.516   9.494  2.2697  4.2641 -1.3915
  748MOL0     H  949   6.936   2.480   9.362  1.7996  1.9427 -1.4292
  748MOL0     H  950   6.972   2.759   9.482  1.0302 -0.2621  0.4357
  748MOL0     H  951   6.886   2.724   9.327  0.2561 -0.7441 -0.9267
  748MOL0     H  952   7.188   2.693   9.407 -0.0237  1.0338 -0.7787
  748MOL0     H  953   7.134   2.670   9.247 -0.4991  0.2970 -0.3079
  748MOL0     H  954   7.101   2.933   9.400 -2.2277 -3.0118  1.1403
  748MOL0     H  955   7.082   2.900   9.228  1.1386  0.6243 -1.7426
  748MOL0     H  956   7.336   2.869   9.406  1.2307 -1.0138 -0.1001
  748MOL0     H  957   7.347   2.828   9.235  1.5255  0.6046 -0.0306
  748MOL0     H  958   7.445   3.033   9.285  0.0730  0.6627 -0.1246
  748MOL0     H  959   7.294   3.108   9.330  1.4525 -0.6310  0.8917
  748MOL0     H  960   7.325   3.162   9.104  1.4382 -0.2359  2.6886
  748MOL0     H  961   7.217   3.007   9.090  0.7777 -0.7699  0.0411
  748MOL0     H  962   6.641   2.538   9.758 -0.6225 -0.7539 -1.5148
  748MOL0     H  963   6.451   2.665   9.842  0.0972  1.1825 -1.0807
  748MOL0     H  964   5.995   2.969   9.520 -0.7227  2.0160  0.6930
  748MOL0     H  965   5.764   3.010   9.599  2.8724 -2.3520 -2.4972
  748MOL0     H  966   4.337   1.645  10.261  0.7099  1.2297  0.7299
  748MOL0     H  967   4.156   1.514  10.179 -0.8059  0.4819  0.3106
  748MOL0     H  968   3.661   1.555  10.140  2.0105  0.0407  0.1495
  748MOL0     H  969   3.447   1.456  10.099 -2.4255 -1.7231 -1.5772
  748MOL0     H  970   3.279   1.171   9.846 -1.5677  5.2292 -2.5450
  748MOL0     H  971   3.449   1.183   9.872  0.4824  0.6216 -0.0958
  748MOL0     H  972   3.428   1.167  10.104  0.7985  0.6475 -2.1193
  748MOL0     H  973   3.300   1.067  10.038 -2.1292  0.8263 -0.2421
  748MOL0     H  974   3.256   1.362  10.095  1.5115  1.6613  3.0464
  748MOL0     H  975   3.277   1.261  10.236  2.1909 -0.0946 -0.6178
  748MOL0     H  976   3.076   1.124  10.167  1.3714  1.0896  2.9110
  748MOL0     H  977   3.058   1.206  10.014 -0.1758 -0.3828 -0.2273
  748MOL0     H  978   2.881   1.500  10.235  1.3247  0.1366  2.2669
  748MOL0     H  979   3.508   1.464   9.681  1.2744  0.7388  0.1129
  748MOL0     H  980   3.750   1.556   9.721 -0.0159  1.1123  0.6323
  749MOL0     O  981   0.526   8.693   9.308 -0.1687  0.0192 -0.7159
  749MOL0     C  982   0.437   8.661   9.395  0.0739  0.3515  0.4972
  749MOL0     O  983   0.455   8.670   9.528 -0.2143 -0.0911  0.1614
  749MOL0     C  984   0.571   8.721   9.588  0.3247  0.3528 -0.4698
  749MOL0     C  985   0.656   8.832   9.548 -1.4261 -0.3718 -0.2453
  749MOL0     C  986   0.770   8.871   9.628  0.1092  0.1439 -0.5421
  749MOL0     C  987   0.807   8.783   9.732 -0.4302 -0.5990 -0.2718
  749MOL0     O  988   0.927   8.798   9.795  0.2646 -0.5608  0.2108
  749MOL0     C  989   0.910   8.776   9.940 -1.2055 -0.8345 -0.6887
  749MOL0     C  990   1.040   8.819  10.005 -0.1631  0.5377  0.5550
  749MOL0     C  991   1.017   8.828  10.157  0.4794 -0.4161  0.3314
  749MOL0     C  992   1.150   8.866  10.240 -0.0104 -0.4148 -0.3476
  749MOL0     C  993   1.200   8.730  10.275 -0.7644 -0.5073  0.6978
  749MOL0     C  994   1.316   8.749  10.377  0.8882 -0.1949  0.8934
  749MOL0     C  995   1.394   8.616  10.397  0.6357 -0.6498 -0.9129
  749MOL0     C  996   1.506   8.635  10.497  0.0610  0.2468  0.3072
  749MOL0     N  997   1.603   8.523  10.489  0.2438  0.1487 -0.0844
  749MOL0     C  998   1.738   8.519  10.512 -0.4134 -1.0249 -0.1293
  749MOL0     C  999   1.787   8.401  10.479  0.4502 -0.2737  0.0814
  749MOL0     C 1000   1.919   8.336  10.508 -0.6225 -0.1605  0.8649
  749MOL0     C 1001   1.932   8.240  10.623 -0.2304  0.8658  0.1655
  749MOL0     C 1002   1.847   8.286  10.745  0.6516 -0.5581  0.3322
  749MOL0     C 1003   1.847   8.179  10.850  0.1190 -0.1871  0.2099
  749MOL0     O 1004   1.819   8.232  10.980  0.0736 -0.5978 -0.1234
  749MOL0     C 1005   1.800   8.138  11.072 -0.7640 -0.4880  0.0949
  749MOL0     C 1006   1.856   8.173  11.189  1.1398 -1.0786 -0.1111
  749MOL0     C 1007   1.855   8.075  11.300  0.5894 -1.0775 -0.3452
  749MOL0     C 1008   1.929   8.136  11.416 -0.4120  0.3679 -0.1369
  749MOL0     C 1009   1.781   7.952  11.284 -0.4127 -0.3088 -0.2271
  749MOL0     C 1010   1.767   7.863  11.389 -0.1211 -0.6247 -0.0344
  749MOL0     O 1011   1.689   7.750  11.358  0.0463 -0.5837  0.6870
  749MOL0     C 1012   1.655   7.658  11.449 -0.3054  0.1974 -0.6001
  749MOL0     C 1013   1.520   7.649  11.464 -1.2845  0.4282 -0.1547
  749MOL0     C 1014   1.465   7.545  11.536  0.8929  0.7447 -0.0137
  749MOL0     C 1015   1.552   7.460  11.600  0.3572  0.7440 -0.3863
  749MOL0     O 1016   1.495   7.374  11.691  0.3526 -0.2455  0.1873
  749MOL0     C 1017   1.517   7.238  11.657 -0.3784 -1.1483 -0.2796
  749MOL0     C 1018   1.452   7.139  11.748 -0.7265  0.5507 -0.6400
  749MOL0     C 1019   1.502   7.158  11.895 -0.0975 -0.3673 -0.5803
  749MOL0     C 1020   1.459   7.047  11.995 -1.2045 -0.0795  0.2981
  749MOL0     C 1021   1.329   7.094  12.061  1.0150  0.5839 -0.3606
  749MOL0     C 1022   1.324   7.005  12.187  0.5025  0.4328  0.2014
  749MOL0     C 1023   1.188   7.018  12.258  0.9244  0.7483  0.3519
  749MOL0     C 1024   1.078   6.931  12.187  1.0665 -0.2581 -0.8356
  749MOL0    Cl 1025   0.920   6.983  12.264 -0.2589  0.2334  0.2130
  749MOL0     C 1026   1.693   7.475  11.592 -0.6613 -0.5082 -0.1541
  749MOL0     C 1027   1.744   7.573  11.510  0.5110  0.5972 -0.7288
  749MOL0     O 1028   1.831   7.878  11.495  0.2852 -0.1731 -0.5361
  749MOL0     C 1029   1.710   7.930  11.164 -1.2846  0.5753 -0.0920
  749MOL0     C 1030   1.723   8.023  11.059  0.7952  0.0449 -0.1786
  749MOL0     N 1031   1.686   8.335  10.416  0.4827  0.5747  0.3118
  749MOL0     N 1032   1.573   8.401  10.418  0.4463 -0.3138  0.1970
  749MOL0     C 1033   0.728   8.674   9.765  0.4405 -1.0810  0.5092
  749MOL0     C 1034   0.613   8.644   9.691  0.5085  0.1434 -0.8518
  749MOL0     C 1035   0.333   8.572   9.346  0.1327  0.1203  1.0582
  749MOL0     C 1036   0.291   8.577   9.216  0.1001  0.1131  0.1885
  749MOL0     C 1037   0.188   8.494   9.173 -0.0587  0.1050 -0.3767
  749MOL0     C 1038   0.116   8.421   9.264 -0.5916  0.3370  0.7590
  749MOL0     O 1039   0.028   8.328   9.227  0.3494 -1.6796  0.1948
  749MOL0     C 1040  -0.106   8.382   9.263 -0.4682 -1.0089  0.9838
  749MOL0     C 1041  -0.172   8.488   9.173 -0.4976  0.4403  0.0014
  749MOL0     C 1042  -0.174   8.438   9.026 -0.5985  0.1670 -0.4685
  749MOL0     C 1043  -0.212   8.561   8.940 -0.1677  0.1315  0.6775
  749MOL0     C 1044  -0.098   8.648   8.924 -0.5542 -0.1767 -0.0210
  749MOL0     C 1045  -0.008   8.727   8.923 -0.1251 -0.2124  0.0287
  749MOL0     C 1046   0.161   8.410   9.389 -0.2506 -0.1041 -0.7089
  749MOL0     C 1047   0.276   8.483   9.431 -0.5344 -0.6203 -0.3056
  749MOL0     H 1048   0.645   8.898   9.463  3.6565  2.7031  1.0342
  749MOL0     H 1049   0.838   8.954   9.611  0.5253 -0.2542 -0.8266
  749MOL0     H 1050   0.838   8.845   9.984  1.8818  3.0954 -1.1601
  749MOL0     H 1051   0.896   8.672   9.970  0.4159 -0.6332  0.9144
  749MOL0     H 1052   1.116   8.743   9.986 -0.1556  0.8306 -0.6603
  749MOL0     H 1053   1.061   8.916   9.959 -3.2408  1.5299  0.9973
  749MOL0     H 1054   0.942   8.904  10.185 -1.1514 -2.3189  1.4154
  749MOL0     H 1055   0.961   8.744  10.199  1.8942 -0.7933  1.5128
  749MOL0     H 1056   1.216   8.941  10.197 -3.3227  4.1327  1.6424
  749MOL0     H 1057   1.122   8.913  10.335  1.1586  1.0013 -0.6690
  749MOL0     H 1058   1.123   8.676  10.332 -0.5688  1.1258  2.6413
  749MOL0     H 1059   1.227   8.684  10.180 -1.2193  0.3258  0.1507
  749MOL0     H 1060   1.392   8.822  10.348 -0.4259  0.0811 -2.1844
  749MOL0     H 1061   1.271   8.778  10.473 -4.1194  0.0358 -1.2170
  749MOL0     H 1062   1.335   8.529  10.427 -0.7052  1.2521  2.4091
  749MOL0     H 1063   1.432   8.593  10.297  1.8070  3.0131 -1.4609
  749MOL0     H 1064   1.461   8.627  10.596 -1.0366 -1.3053 -0.2753
  749MOL0     H 1065   1.558   8.731  10.491 -0.3025  0.3430 -2.1457
  749MOL0     H 1066   1.801   8.587  10.568 -1.7392 -0.2508  0.4655
  749MOL0     H 1067   1.954   8.283  10.419 -0.9637  2.3716 -0.9001
  749MOL0     H 1068   1.997   8.412  10.519  3.1838 -3.3584 -1.5112
  749MOL0     H 1069   2.040   8.237  10.637  0.1053 -0.5147 -2.1440
  749MOL0     H 1070   1.902   8.140  10.591  2.3862  0.1581 -0.2993
  749MOL0     H 1071   1.745   8.304  10.710  1.5216 -0.8541 -2.7072
  749MOL0     H 1072   1.888   8.373  10.796 -1.7509  1.2624 -0.6272
  749MOL0     H 1073   1.947   8.134  10.845  0.4840  0.6019  0.3254
  749MOL0     H 1074   1.772   8.106  10.816 -1.0412  1.2411 -0.3966
  749MOL0     H 1075   1.888   8.276  11.203 -2.0903  0.0234 -0.0581
  749MOL0     H 1076   2.024   8.085  11.438 -0.0003  0.9217 -0.5855
  749MOL0     H 1077   1.963   8.239  11.401  3.0834 -0.6887 -0.3618
  749MOL0     H 1078   1.863   8.133  11.503 -2.2265 -2.3279 -1.4752
  749MOL0     H 1079   1.463   7.719  11.404  2.2399  2.6497 -1.2151
  749MOL0     H 1080   1.358   7.530  11.540  0.9122  0.4308 -0.6863
  749MOL0     H 1081   1.485   7.237  11.553 -0.9712  0.7341 -0.1370
  749MOL0     H 1082   1.625   7.220  11.646 -0.3328 -2.5404  1.7237
  749MOL0     H 1083   1.345   7.160  11.738 -0.4670  4.0406  1.8012
  749MOL0     H 1084   1.487   7.044  11.708  2.0584  1.1264  0.2084
  749MOL0     H 1085   1.473   7.261  11.920  2.6200  0.2416  0.4351
  749MOL0     H 1086   1.611   7.146  11.895  0.2436  1.6102 -4.0694
  749MOL0     H 1087   1.458   6.946  11.954  2.2285 -0.0020 -0.2495
  749MOL0     H 1088   1.535   7.046  12.073 -0.5788 -1.4674 -0.3077
  749MOL0     H 1089   1.246   7.076  11.993 -0.8132  1.0165  1.6312
  749MOL0     H 1090   1.341   7.200  12.088  0.4426  0.7943 -0.9151
  749MOL0     H 1091   1.344   6.901  12.160  1.5999  0.2110  1.7301
  749MOL0     H 1092   1.405   7.043  12.250  1.9691 -0.4340 -1.0872
  749MOL0     H 1093   1.153   7.120  12.272  0.8515  0.7962 -0.1943
  749MOL0     H 1094   1.198   6.977  12.360  2.1299 -0.7389 -0.3165
  749MOL0     H 1095   1.088   6.824  12.207  1.4601  0.4449  4.0439
  749MOL0     H 1096   1.062   6.960  12.083  0.4445  0.3341 -0.5856
  749MOL0     H 1097   1.761   7.409  11.646 -0.4144 -1.5213 -1.6288
  749MOL0     H 1098   1.848   7.579  11.480 -0.5321 -1.8262 -5.9722
  749MOL0     H 1099   1.666   7.836  11.130  1.4334 -1.5318  1.7611
  749MOL0     H 1100   1.683   8.001  10.961  0.8045 -0.7371 -0.0143
  749MOL0     H 1101   0.727   8.624   9.861  2.3349  0.4523  1.3844
  749MOL0     H 1102   0.550   8.560   9.718  0.9425 -0.1372 -0.7011
  749MOL0     H 1103   0.335   8.640   9.139  0.5182 -1.1820 -0.6760
  749MOL0     H 1104   0.158   8.489   9.069 -4.9991 -0.1704  0.7892
  749MOL0     H 1105  -0.182   8.305   9.279  0.3301 -1.5112  2.5995
  749MOL0     H 1106  -0.096   8.430   9.361 -1.4607  0.7332  0.2633
  749MOL0     H 1107  -0.123   8.586   9.173 -1.2295  0.8168  0.1490
  749MOL0     H 1108  -0.274   8.511   9.206 -0.9073  2.6614 -2.4192
  749MOL0     H 1109  -0.241   8.351   9.030  0.8902 -0.9750  1.5125
  749MOL0     H 1110  -0.073   8.405   9.002 -0.6994 -0.8966  0.4983
  749MOL0     H 1111  -0.295   8.617   8.985 -1.5987 -1.5871  0.2980
  749MOL0     H 1112  -0.247   8.523   8.844  0.5872 -2.7575  1.4494
  749MOL0     H 1113   0.065   8.805   8.921  0.2467 -0.5352  0.8544
  749MOL0     H 1114   0.117   8.334   9.453  2.2529  0.6527  2.1572
  749MOL0     H 1115   0.322   8.464   9.527 -1.5332 -5.1894 -0.5085
  750MOL0     O 1116   9.094   2.266   5.695 -0.2096 -0.0205  0.1214
  750MOL0     C 1117   9.106   2.172   5.622  0.9286  0.0624 -0.6912
  750MOL0     O 1118   9.190   2.163   5.519  0.2522 -0.0819  0.8820
  750MOL0     C 1119   9.259   2.276   5.488 -0.2219  0.5638  0.9610
  750MOL0     C 1120   9.230   2.414   5.475  0.1779 -0.3069 -0.3081
  750MOL0     C 1121   9.325   2.511   5.451 -0.0718 -0.4205 -0.6091
  750MOL0     C 1122   9.450   2.477   5.404 -0.9035 -0.8243 -0.3964
  750MOL0     O 1123   9.551   2.567   5.357  0.4113 -0.2069 -0.1284
  750MOL0     C 1124   9.539   2.700   5.412  1.2475 -0.5078 -0.4423
  750MOL0     C 1125   9.657   2.781   5.373 -1.1965 -0.5430 -0.0565
  750MOL0     C 1126   9.653   2.922   5.429 -0.4779 -0.0572 -0.7558
  750MOL0     C 1127   9.677   2.943   5.581  0.7357 -0.8697  0.1551
  750MOL0     C 1128   9.617   3.079   5.629  0.2007  0.6481 -0.5142
  750MOL0     C 1129   9.672   3.093   5.771 -0.0273 -0.4262  0.5306
  750MOL0     C 1130   9.642   3.233   5.811  0.6548 -0.3878 -0.2766
  750MOL0     C 1131   9.508   3.230   5.878  0.7362 -0.6484  0.1807
  750MOL0     N 1132   9.481   3.361   5.943  0.3372 -0.1322 -0.3578
  750MOL0     C 1133   9.521   3.489   5.912  0.0913 -0.1626 -0.3702
  750MOL0     C 1134   9.442   3.568   5.999  0.2935  0.3092  0.3974
  750MOL0     C 1135   9.479   3.715   6.000  0.2643 -0.9298 -0.0399
  750MOL0     C 1136   9.622   3.754   6.052  0.6439 -0.4098 -0.3876
  750MOL0     C 1137   9.656   3.716   6.195  0.3429 -0.6544 -0.1935
  750MOL0     C 1138   9.706   3.581   6.221 -0.3362  0.4524  0.2753
  750MOL0     O 1139   9.810   3.546   6.129  0.4287  0.2205  0.3180
  750MOL0     C 1140   9.835   3.411   6.126  0.0867  0.5923  0.0273
  750MOL0     C 1141   9.752   3.304   6.150  0.7930  0.0547  0.1920
  750MOL0     C 1142   9.780   3.173   6.130  0.1895  0.6929 -0.4501
  750MOL0     C 1143   9.663   3.073   6.136  0.0600  0.4046 -0.0337
  750MOL0     C 1144   9.912   3.139   6.087  0.6825 -0.6628  0.7491
  750MOL0     C 1145   9.956   2.999   6.038  0.4138 -0.4703  0.2013
  750MOL0     O 1146  10.048   2.995   5.941  0.2995 -0.6487  0.2920
  750MOL0     C 1147  10.081   2.894   5.852  1.0042 -0.1947  0.2118
  750MOL0     C 1148   9.987   2.813   5.794 -0.3151  0.5572  0.4091
  750MOL0     C 1149  10.026   2.722   5.699 -0.3715 -0.4733 -0.1526
  750MOL0     C 1150  10.156   2.693   5.672  0.1001 -0.1172  0.2254
  750MOL0     O 1151  10.178   2.608   5.565  0.1947  0.3015 -0.3633
  750MOL0     C 1152  10.301   2.622   5.492  0.0109  0.3943 -0.2773
  750MOL0     C 1153  10.406   2.524   5.548  0.2875 -0.3630 -0.2727
  750MOL0     C 1154  10.371   2.381   5.507  0.0420  0.2053  1.0644
  750MOL0     C 1155  10.486   2.324   5.429 -0.1049  0.5347  0.1216
  750MOL0     C 1156  10.449   2.178   5.411 -0.3241  0.1512  1.0047
  750MOL0     C 1157  10.565   2.091   5.348  0.0464  1.5138 -0.2882
  750MOL0     C 1158  10.613   2.146   5.215 -0.0589  0.3368  0.2274
  750MOL0     C 1159  10.718   2.058   5.159  0.4515 -0.2281 -1.5291
  750MOL0    Cl 1160  10.665   1.890   5.141 -0.1716 -0.1478 -0.8384
  750MOL0     C 1161  10.254   2.757   5.753 -0.3337 -0.7688  0.0697
  750MOL0     C 1162  10.214   2.870   5.833 -0.6599  0.0720  0.1543
  750MOL0     O 1163   9.910   2.905   6.098  0.4201  0.5372 -0.4782
  750MOL0     C 1164  10.004   3.247   6.075 -0.2159  0.2334 -1.0354
  750MOL0     C 1165   9.962   3.370   6.084 -0.3787 -0.4199  0.0486
  750MOL0     N 1166   9.361   3.491   6.080 -0.7778  0.7707  0.5729
  750MOL0     N 1167   9.397   3.368   6.057 -0.3583  0.2820 -0.0254
  750MOL0     C 1168   9.483   2.353   5.427  0.1780  0.2941  0.6891
  750MOL0     C 1169   9.390   2.245   5.460 -1.1231 -0.6709  0.2948
  750MOL0     C 1170   9.017   2.061   5.650  0.2454  0.5385 -0.0812
  750MOL0     C 1171   9.008   1.953   5.568 -0.2930 -0.2378  0.2587
  750MOL0     C 1172   8.934   1.842   5.595 -0.1728  0.3580 -0.8151
  750MOL0     C 1173   8.858   1.837   5.713 -0.3974  0.9941  0.0133
  750MOL0     O 1174   8.761   1.740   5.717 -0.6018  0.0810 -0.1301
  750MOL0     C 1175   8.640   1.769   5.649 -0.4241  0.2433 -0.0542
  750MOL0     C 1176   8.593   1.911   5.684 -0.1473 -0.6446 -0.7744
  750MOL0     C 1177   8.469   1.962   5.607  0.0323  1.0119  0.0419
  750MOL0     C 1178   8.357   1.967   5.707  0.7045  0.5210 -0.0443
  750MOL0     C 1179   8.326   1.841   5.782  0.5576 -0.1595  0.4914
  750MOL0     C 1180   8.301   1.752   5.862  0.0014  0.2422  0.1591
  750MOL0     C 1181   8.864   1.941   5.804  0.3941 -0.0183  0.7114
  750MOL0     C 1182   8.947   2.048   5.774 -0.5448  0.0076 -0.3196
  750MOL0     H 1183   9.130   2.452   5.497 -0.5158 -1.3743 -1.4791
  750MOL0     H 1184   9.286   2.613   5.456  1.0645  0.2863 -3.6755
  750MOL0     H 1185   9.450   2.753   5.377  0.9267 -0.4166  0.4903
  750MOL0     H 1186   9.528   2.699   5.521 -0.2841 -2.7923 -0.5405
  750MOL0     H 1187   9.748   2.733   5.411 -0.6955  0.0696 -0.4494
  750MOL0     H 1188   9.643   2.782   5.264 -1.1391  0.1999 -0.0629
  750MOL0     H 1189   9.716   2.999   5.384 -0.7875  0.2798 -0.6160
  750MOL0     H 1190   9.549   2.951   5.410 -1.0196 -2.0168 -1.0052
  750MOL0     H 1191   9.656   2.852   5.638  1.0873 -1.7459 -1.0702
  750MOL0     H 1192   9.785   2.951   5.597  0.5483 -2.3016  2.9534
  750MOL0     H 1193   9.654   3.165   5.573 -0.8109  1.8684  0.6339
  750MOL0     H 1194   9.508   3.079   5.618 -0.1779 -0.9720  2.2850
  750MOL0     H 1195   9.631   3.018   5.839  2.7376 -1.2980  1.3651
  750MOL0     H 1196   9.779   3.077   5.778  0.4202  1.8548 -0.2178
  750MOL0     H 1197   9.718   3.261   5.885  3.2919 -2.4786 -1.9899
  750MOL0     H 1198   9.651   3.310   5.733 -0.8057 -2.1357 -2.2881
  750MOL0     H 1199   9.487   3.141   5.938 -0.9042 -1.1044 -0.9888
  750MOL0     H 1200   9.439   3.215   5.794  0.1807 -4.1031  1.0846
  750MOL0     H 1201   9.614   3.524   5.867  1.6558  0.3843  3.0170
  750MOL0     H 1202   9.480   3.760   5.900  1.3227 -0.1047  0.3264
  750MOL0     H 1203   9.416   3.762   6.076  1.4850  1.2838 -0.3108
  750MOL0     H 1204   9.632   3.862   6.040 -3.8409  0.5911  2.5393
  750MOL0     H 1205   9.703   3.701   6.001  0.5818 -0.9055  0.0196
  750MOL0     H 1206   9.565   3.740   6.249 -0.2115 -1.4700 -0.7320
  750MOL0     H 1207   9.730   3.786   6.234 -0.0484  0.5448 -1.5101
  750MOL0     H 1208   9.620   3.514   6.211  1.2210 -1.4955 -0.5816
  750MOL0     H 1209   9.741   3.563   6.323 -2.5793 -3.0126  0.6086
  750MOL0     H 1210   9.648   3.318   6.179  0.9657  0.5681  0.5927
  750MOL0     H 1211   9.685   3.007   6.221  1.2647  2.1145  1.0738
  750MOL0     H 1212   9.566   3.116   6.161 -0.3877 -1.4801  1.7757
  750MOL0     H 1213   9.655   3.012   6.046 -0.9628  2.1819 -1.2048
  750MOL0     H 1214   9.886   2.842   5.821 -0.5525 -1.4652  1.9408
  750MOL0     H 1215   9.953   2.669   5.638  1.3005 -0.4337 -2.3300
  750MOL0     H 1216  10.284   2.597   5.387  1.6450 -1.9363 -0.0636
  750MOL0     H 1217  10.342   2.723   5.506  1.5798  0.4284 -3.8460
  750MOL0     H 1218  10.506   2.557   5.518 -0.2212  2.5385  0.9127
  750MOL0     H 1219  10.414   2.542   5.656 -1.6077 -0.9920  0.0173
  750MOL0     H 1220  10.279   2.369   5.450  0.8897  0.0876 -0.3176
  750MOL0     H 1221  10.363   2.321   5.599  0.0429  0.4222  1.2062
  750MOL0     H 1222  10.514   2.371   5.335  1.2873  0.6051  0.5479
  750MOL0     H 1223  10.579   2.325   5.487 -0.9958  0.4863  1.6068
  750MOL0     H 1224  10.367   2.172   5.339 -0.2121  2.1355  0.6441
  750MOL0     H 1225  10.415   2.124   5.500 -2.0674  0.7624  0.7496
  750MOL0     H 1226  10.655   2.091   5.411  0.1910 -0.5921 -0.4178
  750MOL0     H 1227  10.530   1.988   5.339 -1.2024  1.7735  1.1539
  750MOL0     H 1228  10.657   2.245   5.227 -0.1169  0.2913  0.8139
  750MOL0     H 1229  10.520   2.159   5.158 -1.6815 -1.6045  2.2532
  750MOL0     H 1230  10.806   2.075   5.222  1.3777 -1.7015 -2.3729
  750MOL0     H 1231  10.755   2.088   5.061  2.1770 -2.5372 -1.6795
  750MOL0     H 1232  10.357   2.730   5.730 -0.2414 -0.4080  0.0597
  750MOL0     H 1233  10.289   2.936   5.875  1.5975 -1.0644 -1.7947
  750MOL0     H 1234  10.106   3.221   6.046  0.2466  1.2679 -0.4115
  750MOL0     H 1235  10.042   3.443   6.069  0.5161 -0.7965  2.4670
  750MOL0     H 1236   9.587   2.325   5.414 -0.1369 -0.8085  0.3843
  750MOL0     H 1237   9.415   2.142   5.485 -4.2135 -1.8702 -1.0305
  750MOL0     H 1238   9.051   1.966   5.469  1.6094  1.2166  1.2027
  750MOL0     H 1239   8.919   1.755   5.532  0.1150  0.2743 -0.7722
  750MOL0     H 1240   8.650   1.761   5.540  1.2480 -1.3873  0.1787
  750MOL0     H 1241   8.562   1.701   5.684 -0.2429 -0.8461 -1.6709
  750MOL0     H 1242   8.674   1.972   5.645 -0.4024 -0.1741 -0.5804
  750MOL0     H 1243   8.580   1.930   5.791  0.0427 -0.8683 -0.7119
  750MOL0     H 1244   8.438   1.892   5.528  0.2593  0.9304  0.0246
  750MOL0     H 1245   8.494   2.061   5.568  1.5145  0.2721 -0.9894
  750MOL0     H 1246   8.268   2.001   5.653 -0.8989 -2.4401  0.5309
  750MOL0     H 1247   8.372   2.038   5.789  0.2640 -0.7295  1.1669
  750MOL0     H 1248   8.268   1.672   5.925  0.4292 -2.5131 -2.8436
  750MOL0     H 1249   8.798   1.925   5.889  0.8381  2.7435  1.6622
  750MOL0     H 1250   8.958   2.134   5.840  0.6921  0.9626 -1.6950
  751MOL0     O 1251   1.501   1.468  10.094  0.2314  0.3852 -0.8800
  751MOL0     C 1252   1.564   1.401  10.174  0.1339  0.3496  0.2079
  751MOL0     O 1253   1.660   1.309  10.136 -0.8038  0.1361  0.1937
  751MOL0     C 1254   1.668   1.267  10.007 -0.1677  0.8220  0.1608
  751MOL0     C 1255   1.714   1.347   9.900 -0.5957  0.2557  0.0783
  751MOL0     C 1256   1.725   1.289   9.775 -0.2227  0.4174 -0.3853
  751MOL0     C 1257   1.689   1.150   9.760 -0.0111  0.9745 -0.0596
  751MOL0     O 1258   1.686   1.088   9.633 -0.4162  0.0572 -0.5205
  751MOL0     C 1259   1.735   1.149   9.517  0.5193 -0.7865 -0.2673
  751MOL0     C 1260   1.743   1.048   9.413  1.1885 -0.1240 -0.0757
  751MOL0     C 1261   1.611   0.984   9.380  0.5121  0.2033 -0.4536
  751MOL0     C 1262   1.533   1.075   9.274 -0.1238  0.0181 -0.1517
  751MOL0     C 1263   1.569   1.060   9.128  0.5543  0.1651 -0.2170
  751MOL0     C 1264   1.492   1.152   9.039  0.0921  0.1923 -0.8650
  751MOL0     C 1265   1.560   1.294   9.023  0.2775  1.2208  0.4358
  751MOL0     C 1266   1.457   1.390   8.956 -0.4518 -0.1798  0.5503
  751MOL0     N 1267   1.521   1.529   8.957 -0.0976  0.3959  0.2020
  751MOL0     C 1268   1.627   1.559   8.877 -0.1449 -1.0930 -0.2021
  751MOL0     C 1269   1.638   1.697   8.887 -0.1756 -0.3926 -0.0320
  751MOL0     C 1270   1.730   1.786   8.805  0.2894 -0.4274  0.1525
  751MOL0     C 1271   1.872   1.799   8.859 -0.1023  1.2308 -0.2795
  751MOL0     C 1272   1.876   1.800   9.015  0.3440 -0.4218 -0.5866
  751MOL0     C 1273   1.839   1.937   9.065  0.0751  0.3243 -0.0764
  751MOL0     O 1274   1.911   1.975   9.181 -0.0556  0.2179 -0.5687
  751MOL0     C 1275   1.852   1.970   9.307  0.1993  0.5726  0.2505
  751MOL0     C 1276   1.941   2.036   9.396  0.6403  0.5007  1.0192
  751MOL0     C 1277   1.918   2.027   9.536  0.4696 -0.8406 -0.6348
  751MOL0     C 1278   2.008   2.111   9.630 -0.6385  0.5564  0.7086
  751MOL0     C 1279   1.805   1.962   9.587 -0.0509  0.2654  1.3403
  751MOL0     C 1280   1.775   1.956   9.730 -0.9430  0.3617  0.6976
  751MOL0     O 1281   1.642   1.951   9.761 -0.0613 -0.0413  0.1793
  751MOL0     C 1282   1.587   1.941   9.883 -0.0219  0.5933  0.0411
  751MOL0     C 1283   1.513   2.052   9.929 -0.1631 -0.2465  0.2407
  751MOL0     C 1284   1.473   2.060  10.060  0.2283 -0.1947  0.1393
  751MOL0     C 1285   1.475   1.942  10.150  0.6204  0.0434 -0.2373
  751MOL0     O 1286   1.425   1.912  10.268  0.5187  0.2400 -1.0083
  751MOL0     C 1287   1.383   2.013  10.354  0.0943  0.4574  0.2543
  751MOL0     C 1288   1.403   1.955  10.496 -0.1942  0.7646 -0.5420
  751MOL0     C 1289   1.555   1.942  10.521 -0.6502 -0.2044  0.4431
  751MOL0     C 1290   1.583   1.889  10.666  0.1160  0.2778  0.9041
  751MOL0     C 1291   1.736   1.848  10.687 -0.3756 -0.2758  0.1830
  751MOL0     C 1292   1.792   1.809  10.827 -0.2642  0.3478  0.4921
  751MOL0     C 1293   1.733   1.678  10.881 -0.9170  1.1642  0.4205
  751MOL0     C 1294   1.828   1.614  10.984 -0.5462 -0.1289  0.0221
  751MOL0    Cl 1295   1.790   1.441  11.016  0.0190 -0.0463 -0.1495
  751MOL0     C 1296   1.541   1.831  10.097  0.2805  0.9712 -0.6926
  751MOL0     C 1297   1.607   1.831   9.967  0.5538 -0.3678  0.0423
  751MOL0     O 1298   1.869   1.953   9.809 -0.3609  0.5799  0.2895
  751MOL0     C 1299   1.722   1.900   9.497  0.1538 -0.1119 -0.5320
  751MOL0     C 1300   1.736   1.907   9.361 -1.1774  0.4235  0.8977
  751MOL0     N 1301   1.540   1.746   8.978 -0.0836  1.4703 -0.1569
  751MOL0     N 1302   1.467   1.641   9.018  0.2391 -0.1228 -0.5230
  751MOL0     C 1303   1.647   1.067   9.867  0.7496 -0.9264  0.0225
  751MOL0     C 1304   1.634   1.136   9.991  0.1241 -0.2268  0.0679
  751MOL0     C 1305   1.523   1.406  10.317  0.3732 -0.2005  0.1884
  751MOL0     C 1306   1.573   1.305  10.400 -0.0060 -0.2822  0.2765
  751MOL0     C 1307   1.530   1.302  10.529 -0.2326  0.4440  0.5786
  751MOL0     C 1308   1.448   1.393  10.577  0.2453  0.7394 -0.0576
  751MOL0     O 1309   1.395   1.391  10.702  0.5725  0.0611 -0.4336
  751MOL0     C 1310   1.423   1.284  10.793 -0.7157 -0.5025  0.2997
  751MOL0     C 1311   1.340   1.311  10.925  0.1409 -0.1177 -0.5622
  751MOL0     C 1312   1.392   1.445  10.990  0.3083  0.5918 -0.4851
  751MOL0     C 1313   1.322   1.469  11.128  0.6044 -1.2383 -0.0094
  751MOL0     C 1314   1.188   1.533  11.132 -0.1844  0.3708 -0.3203
  751MOL0     C 1315   1.068   1.560  11.152  0.4943  0.7999 -0.1805
  751MOL0     C 1316   1.389   1.493  10.498  0.8317  0.6264  0.2487
  751MOL0     C 1317   1.430   1.492  10.362  0.2427 -0.3537  0.1690
  751MOL0     H 1318   1.712   1.454   9.916  0.9784  0.1750  0.9125
  751MOL0     H 1319   1.749   1.339   9.682 -0.7096 -1.8632 -1.8290
  751MOL0     H 1320   1.671   1.236   9.499 -0.7393 -1.2954  1.5333
  751MOL0     H 1321   1.838   1.180   9.537  0.6463 -1.0654 -0.4860
  751MOL0     H 1322   1.787   1.086   9.320  0.1215 -2.1689 -1.5047
  751MOL0     H 1323   1.819   0.974   9.438 -0.0417 -0.4186  3.2862
  751MOL0     H 1324   1.628   0.881   9.349 -1.8130 -0.7845  1.2493
  751MOL0     H 1325   1.545   0.982   9.468  1.4514  2.5150  0.3938
  751MOL0     H 1326   1.429   1.045   9.288  0.3080 -2.3177 -1.4905
  751MOL0     H 1327   1.539   1.182   9.300 -0.3886  0.1962 -0.8034
  751MOL0     H 1328   1.674   1.067   9.101  1.0210 -1.0893  1.1400
  751MOL0     H 1329   1.544   0.955   9.107  1.1339 -0.4484  1.8726
  751MOL0     H 1330   1.491   1.103   8.942  0.3034  0.2489 -0.8980
  751MOL0     H 1331   1.386   1.159   9.065  0.1206 -0.6396 -0.4822
  751MOL0     H 1332   1.586   1.330   9.123 -0.1915  1.2947  0.5316
  751MOL0     H 1333   1.647   1.282   8.958  0.6840 -0.3326  1.2263
  751MOL0     H 1334   1.365   1.389   9.015 -0.0182 -0.3797  1.2397
  751MOL0     H 1335   1.450   1.364   8.850  0.6521 -0.5166  0.5523
  751MOL0     H 1336   1.681   1.483   8.822 -0.5228 -0.9774 -0.7437
  751MOL0     H 1337   1.745   1.757   8.701  2.3377 -2.0298  0.8201
  751MOL0     H 1338   1.683   1.884   8.794  2.8643  0.9813  0.7826
  751MOL0     H 1339   1.928   1.886   8.822  2.2707 -0.3767 -0.6848
  751MOL0     H 1340   1.942   1.721   8.826  3.3951  2.7942  2.7146
  751MOL0     H 1341   1.978   1.776   9.046  1.2351 -1.8469 -4.1039
  751MOL0     H 1342   1.812   1.724   9.060 -0.4797 -0.1576 -1.3030
  751MOL0     H 1343   1.731   1.940   9.081  0.0790 -1.9643  0.8225
  751MOL0     H 1344   1.872   2.012   8.992 -0.9262  0.9818  0.1299
  751MOL0     H 1345   2.018   2.096   9.348  0.8644 -2.0190 -2.1059
  751MOL0     H 1346   1.946   2.180   9.687  1.5254  1.3945  2.1486
  751MOL0     H 1347   2.064   2.036   9.686  0.1441  1.3985  1.0826
  751MOL0     H 1348   2.090   2.165   9.581  1.0712 -3.1489 -0.9588
  751MOL0     H 1349   1.518   2.138   9.863  3.2831 -0.7281 -0.2965
  751MOL0     H 1350   1.418   2.145  10.098 -0.1067 -0.6311  0.6499
  751MOL0     H 1351   1.452   2.097  10.341  0.5975  0.0654  0.3559
  751MOL0     H 1352   1.278   2.042  10.342 -0.2441 -0.6703  0.3750
  751MOL0     H 1353   1.358   2.021  10.570 -1.3028  0.3575 -0.8348
  751MOL0     H 1354   1.370   1.852  10.513  2.5391 -0.0120  0.5207
  751MOL0     H 1355   1.608   2.032  10.487  0.1027 -2.2118 -4.5633
  751MOL0     H 1356   1.592   1.865  10.453 -1.2314  0.0482 -0.1692
  751MOL0     H 1357   1.555   1.971  10.733  0.2433  1.5065 -0.4991
  751MOL0     H 1358   1.518   1.802  10.683  0.5608  0.1802  2.2104
  751MOL0     H 1359   1.802   1.932  10.659  0.6617 -1.0524  0.2407
  751MOL0     H 1360   1.759   1.764  10.622  0.6289  0.5388 -0.5614
  751MOL0     H 1361   1.901   1.812  10.819 -0.3442  3.2464 -0.9624
  751MOL0     H 1362   1.762   1.885  10.900  0.9900  0.1733  1.2149
  751MOL0     H 1363   1.715   1.607  10.800  1.0393  0.7862  0.2714
  751MOL0     H 1364   1.631   1.691  10.918 -0.1383  2.2449  2.3199
  751MOL0     H 1365   1.815   1.673  11.075  0.7891  0.1076  0.0921
  751MOL0     H 1366   1.933   1.622  10.951 -0.3131  1.1747  1.0028
  751MOL0     H 1367   1.554   1.736  10.147  0.7146  2.1439  1.5433
  751MOL0     H 1368   1.655   1.743   9.927 -0.3614  0.2186 -2.6011
  751MOL0     H 1369   1.650   1.824   9.525  1.0814 -0.5428  0.7496
  751MOL0     H 1370   1.658   1.866   9.297 -0.0805  0.4258 -0.4933
  751MOL0     H 1371   1.600   0.970   9.860  0.3666 -0.8571  1.3805
  751MOL0     H 1372   1.603   1.074  10.075  0.2474 -2.8151 -1.7192
  751MOL0     H 1373   1.628   1.215  10.376 -1.1294 -0.4585 -1.8963
  751MOL0     H 1374   1.559   1.221  10.594  0.0634  0.1555  0.0879
  751MOL0     H 1375   1.385   1.189  10.756 -1.6177 -0.1519  0.2877
  751MOL0     H 1376   1.529   1.282  10.819 -0.4655  0.9274 -0.5131
  751MOL0     H 1377   1.362   1.226  10.990  2.0101 -0.0755 -1.0688
  751MOL0     H 1378   1.235   1.330  10.900  0.7634  0.6641 -2.8216
  751MOL0     H 1379   1.395   1.529  10.920  0.3333  0.6264 -0.4426
  751MOL0     H 1380   1.496   1.412  10.997 -0.0354 -0.5440 -0.4976
  751MOL0     H 1381   1.382   1.539  11.186 -3.5770  2.8559 -0.0141
  751MOL0     H 1382   1.309   1.378  11.187 -0.6021 -0.7919  0.4528
  751MOL0     H 1383   0.966   1.564  11.183  0.3385 -0.0150 -0.5703
  751MOL0     H 1384   1.314   1.568  10.523 -2.4179 -2.7845  1.7746
  751MOL0     H 1385   1.386   1.564  10.295 -0.8598 -2.0493 -1.0185
  752MOL0     O 1386   2.199  11.180   2.901 -0.7490 -0.0608  0.1490
  752MOL0     C 1387   2.247  11.086   2.974  0.3287 -0.1707 -0.0179
  752MOL0     O 1388   2.356  11.012   2.955  0.6731 -0.5440  0.5489
  752MOL0     C 1389   2.425  11.050   2.836  0.2067 -0.6925 -0.5292
  752MOL0     C 1390   2.548  11.110   2.852 -0.7807 -0.3455 -0.5301
  752MOL0     C 1391   2.627  11.143   2.738 -0.1444 -0.3091  0.0598
  752MOL0     C 1392   2.568  11.129   2.602 -0.9034 -0.1334 -1.1828
  752MOL0     O 1393   2.635  11.181   2.504 -0.7791  0.0637  0.7660
  752MOL0     C 1394   2.558  11.254   2.404 -0.3621 -0.0268 -0.1837
  752MOL0     C 1395   2.560  11.393   2.450  0.0305 -0.8804 -0.5539
  752MOL0     C 1396   2.698  11.464   2.431 -0.2003  0.2276  0.8991
  752MOL0     C 1397   2.688  11.589   2.519 -0.4746  0.8399 -0.1257
  752MOL0     C 1398   2.814  11.675   2.522 -1.0715  0.4688  0.2410
  752MOL0     C 1399   2.855  11.768   2.631 -0.6766  0.6090 -0.3913
  752MOL0     C 1400   2.737  11.845   2.684 -0.6932  0.4862  0.0939
  752MOL0     C 1401   2.782  11.919   2.805  0.5215  0.6435 -0.8567
  752MOL0     N 1402   2.663  11.998   2.852  0.3247 -0.0427  0.4124
  752MOL0     C 1403   2.549  11.925   2.893  0.1965 -0.1558 -0.5207
  752MOL0     C 1404   2.448  12.026   2.884 -0.1276  0.5434  0.2186
  752MOL0     C 1405   2.301  11.994   2.916 -0.4340  0.2572 -0.0943
  752MOL0     C 1406   2.261  11.979   3.060  0.6000 -0.2633 -0.5264
  752MOL0     C 1407   2.105  11.995   3.085  0.1531 -0.5121  0.2533
  752MOL0     C 1408   2.080  11.973   3.235 -0.7229 -0.2556 -0.1994
  752MOL0     O 1409   2.145  12.087   3.296 -0.6783  0.5926  0.7898
  752MOL0     C 1410   2.162  12.079   3.429 -0.5388 -0.8453 -0.9697
  752MOL0     C 1411   2.278  12.148   3.481 -0.0208 -0.2617 -0.1697
  752MOL0     C 1412   2.327  12.124   3.610  1.0682  0.5415 -0.8560
  752MOL0     C 1413   2.457  12.188   3.652 -0.4806 -0.9604  0.5267
  752MOL0     C 1414   2.262  12.030   3.696 -0.8513 -0.1819  0.2576
  752MOL0     C 1415   2.314  11.991   3.830  0.2104  1.1942  0.2846
  752MOL0     O 1416   2.286  11.859   3.866 -0.1803  0.7848  0.6551
  752MOL0     C 1417   2.294  11.850   4.001  0.6530  0.4712 -0.9478
  752MOL0     C 1418   2.419  11.808   4.050 -0.0250  0.6649  1.0155
  752MOL0     C 1419   2.443  11.795   4.184  0.5241 -0.9040  0.2429
  752MOL0     C 1420   2.344  11.832   4.275  1.1770 -0.0774 -0.6315
  752MOL0     O 1421   2.334  11.818   4.416 -0.2614 -0.4313 -0.2005
  752MOL0     C 1422   2.448  11.788   4.503 -0.6828 -0.9912 -0.1411
  752MOL0     C 1423   2.431  11.828   4.647  0.4504  0.0400 -0.3405
  752MOL0     C 1424   2.546  11.771   4.739  0.8233  0.3089 -0.3487
  752MOL0     C 1425   2.526  11.813   4.896 -0.1549  0.0804 -0.5953
  752MOL0     C 1426   2.648  11.786   4.984  0.4447  0.3764  0.5035
  752MOL0     C 1427   2.623  11.817   5.129 -0.8431  0.4561 -0.0683
  752MOL0     C 1428   2.749  11.807   5.226 -0.1343  0.3337  0.2943
  752MOL0     C 1429   2.876  11.877   5.159 -0.2604 -0.0865 -0.4169
  752MOL0    Cl 1430   2.985  11.959   5.281 -0.2554 -0.0419  0.0630
  752MOL0     C 1431   2.215  11.870   4.227 -0.5221 -0.8239 -0.5761
  752MOL0     C 1432   2.188  11.874   4.085 -0.3567 -0.2346  0.1972
  752MOL0     O 1433   2.377  12.069   3.893  0.9964 -0.9611 -0.3385
  752MOL0     C 1434   2.142  11.970   3.643  0.2213 -0.9575  0.1939
  752MOL0     C 1435   2.098  11.995   3.515 -0.5019 -0.8763 -0.1957
  752MOL0     N 1436   2.514  12.145   2.842  0.5711 -0.4791 -0.5322
  752MOL0     N 1437   2.641  12.130   2.827 -0.5705  0.3024 -0.7141
  752MOL0     C 1438   2.444  11.059   2.599  0.1460 -0.5205  0.2913
  752MOL0     C 1439   2.369  11.021   2.707  1.0218  0.2500  0.0390
  752MOL0     C 1440   2.180  11.082   3.105  0.6988 -0.1283  0.1576
  752MOL0     C 1441   2.077  11.165   3.151  0.6609 -0.3066  0.1677
  752MOL0     C 1442   2.049  11.164   3.287 -0.4736 -0.1236 -0.0703
  752MOL0     C 1443   2.100  11.078   3.375 -0.0089  0.2714 -0.3100
  752MOL0     O 1444   2.057  11.073   3.505 -0.0775  0.3152  0.8199
  752MOL0     C 1445   1.952  11.149   3.555 -0.1318  0.6482 -0.2079
  752MOL0     C 1446   1.932  11.114   3.693  0.5618  0.0475 -0.2176
  752MOL0     C 1447   2.029  11.179   3.797 -1.0622 -0.6274  0.4131
  752MOL0     C 1448   2.139  11.095   3.861 -0.2196  0.2772 -0.4805
  752MOL0     C 1449   2.180  10.977   3.780 -0.7420  0.0819  1.2748
  752MOL0     C 1450   2.192  10.884   3.699  0.0456 -0.0486  0.1645
  752MOL0     C 1451   2.190  10.989   3.325 -1.1010 -0.9136  0.0511
  752MOL0     C 1452   2.239  10.994   3.195 -0.2121 -0.6422 -0.9144
  752MOL0     H 1453   2.574  11.137   2.954  1.0169 -3.1783 -0.1325
  752MOL0     H 1454   2.726  11.183   2.759 -0.0872 -0.2530 -0.3125
  752MOL0     H 1455   2.610  11.254   2.308 -1.1105 -1.4926 -0.6266
  752MOL0     H 1456   2.455  11.216   2.400 -0.5425  0.4661 -3.6728
  752MOL0     H 1457   2.476  11.446   2.403  0.6155 -1.1403 -1.9642
  752MOL0     H 1458   2.532  11.399   2.555  1.9674 -0.8184 -0.0104
  752MOL0     H 1459   2.789  11.404   2.446 -0.1908  0.0191  0.0888
  752MOL0     H 1460   2.705  11.490   2.324 -2.7451  0.1232  0.6576
  752MOL0     H 1461   2.606  11.659   2.497 -3.0376 -2.3828 -1.8789
  752MOL0     H 1462   2.673  11.540   2.616  2.2608 -1.5059 -0.7406
  752MOL0     H 1463   2.895  11.600   2.523 -0.1047  1.4884  0.3593
  752MOL0     H 1464   2.828  11.719   2.422  0.8447  1.6710  0.9757
  752MOL0     H 1465   2.905  11.709   2.708 -1.5065 -0.8132 -0.9007
  752MOL0     H 1466   2.937  11.837   2.606 -1.2634  2.4370  2.2706
  752MOL0     H 1467   2.718  11.922   2.609 -1.0746  0.7045  0.4160
  752MOL0     H 1468   2.648  11.783   2.696 -1.8445  1.9105 -0.7495
  752MOL0     H 1469   2.874  11.979   2.800  1.1525  0.1359  2.2367
  752MOL0     H 1470   2.808  11.836   2.871  1.5410  0.8344 -1.0062
  752MOL0     H 1471   2.537  11.817   2.898  1.2644 -0.2574  0.1959
  752MOL0     H 1472   2.253  12.080   2.868 -0.0424 -1.0063 -2.9131
  752MOL0     H 1473   2.257  11.910   2.862 -1.9771  0.5630  0.6302
  752MOL0     H 1474   2.310  12.056   3.120 -0.6697 -1.9864  3.0102
  752MOL0     H 1475   2.297  11.881   3.093  2.1622 -0.2399 -1.9936
  752MOL0     H 1476   2.049  11.923   3.025 -1.1653  1.4894 -1.0821
  752MOL0     H 1477   2.077  12.090   3.039  1.0868 -0.5911 -0.5128
  752MOL0     H 1478   2.118  11.874   3.260 -1.8284 -2.0122 -4.5397
  752MOL0     H 1479   1.972  11.971   3.253 -1.1471  0.9181 -2.3291
  752MOL0     H 1480   2.328  12.206   3.404  2.2109 -0.2025  1.2478
  752MOL0     H 1481   2.529  12.108   3.672  0.5334 -0.1912  0.0399
  752MOL0     H 1482   2.500  12.257   3.579 -2.6299  1.0364  1.0183
  752MOL0     H 1483   2.440  12.258   3.734 -2.3107 -0.2525 -0.3901
  752MOL0     H 1484   2.506  11.788   3.987  0.7704 -1.3614  2.6540
  752MOL0     H 1485   2.540  11.770   4.223  2.0485  0.5938 -2.2652
  752MOL0     H 1486   2.434  11.681   4.483 -3.5764 -0.6660 -0.3264
  752MOL0     H 1487   2.542  11.833   4.470 -1.6677  1.4205  0.1469
  752MOL0     H 1488   2.413  11.934   4.663  0.2335 -0.2390  1.5228
  752MOL0     H 1489   2.335  11.782   4.672  1.2671 -2.7498 -1.8747
  752MOL0     H 1490   2.636  11.828   4.712  0.5948  1.2570  0.8116
  752MOL0     H 1491   2.561  11.664   4.723 -2.0278 -0.0144 -1.4292
  752MOL0     H 1492   2.496  11.918   4.900 -3.4325 -0.7771  0.3799
  752MOL0     H 1493   2.442  11.765   4.947  0.9051  1.1594  2.4415
  752MOL0     H 1494   2.735  11.843   4.951  1.3008 -0.9255  0.4252
  752MOL0     H 1495   2.658  11.678   4.970 -0.1479  0.1998  1.3357
  752MOL0     H 1496   2.579  11.916   5.136 -0.5431  0.9264 -3.4943
  752MOL0     H 1497   2.549  11.746   5.167 -0.3526 -0.4908 -0.8207
  752MOL0     H 1498   2.768  11.705   5.259 -3.2066 -1.0324 -1.7518
  752MOL0     H 1499   2.725  11.864   5.316 -0.6362 -0.7265  0.8368
  752MOL0     H 1500   2.850  11.955   5.087  0.3056 -0.1110 -0.6525
  752MOL0     H 1501   2.916  11.792   5.103  1.6548  1.8475 -2.1481
  752MOL0     H 1502   2.146  11.889   4.310 -0.6289 -0.6294 -0.7093
  752MOL0     H 1503   2.085  11.882   4.051 -0.3766 -0.2838  0.2474
  752MOL0     H 1504   2.093  11.904   3.713 -0.3340 -1.8038 -0.9659
  752MOL0     H 1505   2.008  11.941   3.488  1.6529 -3.8644 -2.1405
  752MOL0     H 1506   2.407  11.032   2.501  2.0616 -1.3280 -0.2377
  752MOL0     H 1507   2.273  10.972   2.699 -0.3491  2.5764  0.9817
  752MOL0     H 1508   2.021  11.227   3.082  1.4207  2.6715  2.0529
  752MOL0     H 1509   1.970  11.231   3.319  0.2152  0.6229  0.0980
  752MOL0     H 1510   1.971  11.255   3.539  0.3497  0.3083 -2.1856
  752MOL0     H 1511   1.855  11.126   3.507 -0.6680 -2.0198  1.9159
  752MOL0     H 1512   1.925  11.007   3.715 -2.0249 -0.0294 -1.1420
  752MOL0     H 1513   1.833  11.158   3.706  0.4957 -0.1970  0.1225
  752MOL0     H 1514   1.969  11.227   3.874  1.4442  2.6521  0.5469
  752MOL0     H 1515   2.083  11.259   3.744  2.3919 -2.5645  0.6894
  752MOL0     H 1516   2.111  11.051   3.957 -2.2618  0.7277 -0.8248
  752MOL0     H 1517   2.226  11.156   3.886  1.6470 -1.5191 -2.1748
  752MOL0     H 1518   2.203  10.796   3.639  2.1440  0.1311  0.1981
  752MOL0     H 1519   2.210  10.907   3.392 -2.3472 -1.6665 -0.4601
  752MOL0     H 1520   2.308  10.917   3.163  3.8219  1.9984  0.6490
  753MOL0     O 1521   9.585   8.453   5.830  0.2513  0.4594  0.0840
  753MOL0     C 1522   9.671   8.533   5.859 -0.2408 -0.0832 -0.0655
  753MOL0     O 1523   9.659   8.668   5.845  0.1563  0.1268 -0.4120
  753MOL0     C 1524   9.548   8.717   5.776  0.6437 -0.3418 -0.0739
  753MOL0     C 1525   9.448   8.797   5.849 -0.4369 -0.1892 -0.1210
  753MOL0     C 1526   9.337   8.840   5.772  0.1148 -0.1315 -0.4997
  753MOL0     C 1527   9.331   8.819   5.635  0.2493 -0.1785 -0.1687
  753MOL0     O 1528   9.239   8.882   5.552 -0.3932 -0.4748  0.2131
  753MOL0     C 1529   9.111   8.834   5.567  0.5919 -0.0733  0.2210
  753MOL0     C 1530   9.010   8.887   5.453  0.0510  0.4281  0.0367
  753MOL0     C 1531   8.957   9.032   5.470  0.7019 -0.2817  0.1344
  753MOL0     C 1532   8.805   9.040   5.452 -0.0934  0.7962 -0.1712
  753MOL0     C 1533   8.746   9.170   5.478 -0.3043 -0.4287  0.4884
  753MOL0     C 1534   8.588   9.161   5.487 -0.2797 -0.3447  0.5904
  753MOL0     C 1535   8.523   9.280   5.560  0.0680  0.9051  1.0082
  753MOL0     C 1536   8.533   9.257   5.713  0.6213 -0.0818  0.3916
  753MOL0     N 1537   8.435   9.341   5.794 -1.1817  0.0507  0.0040
  753MOL0     C 1538   8.470   9.413   5.906  0.7242  0.1945  0.6931
  753MOL0     C 1539   8.353   9.452   5.959  0.2432 -0.2666 -0.5628
  753MOL0     C 1540   8.320   9.519   6.090  0.2403  0.0938  0.1454
  753MOL0     C 1541   8.234   9.429   6.185 -0.0401  0.0905  1.0292
  753MOL0     C 1542   8.106   9.488   6.227 -0.4178 -0.6138 -0.4219
  753MOL0     C 1543   8.009   9.395   6.299  0.0382  0.2382 -0.7511
  753MOL0     O 1544   7.876   9.449   6.323  1.3216 -0.2384  1.0673
  753MOL0     C 1545   7.868   9.559   6.404 -0.4795  0.2249 -0.9418
  753MOL0     C 1546   7.858   9.687   6.348  0.2676  1.0272  0.3194
  753MOL0     C 1547   7.851   9.796   6.427  0.3833  0.2517  0.7337
  753MOL0     C 1548   7.854   9.930   6.360 -0.3601 -0.7785 -0.5865
  753MOL0     C 1549   7.839   9.778   6.562 -0.0082 -1.3618 -0.3940
  753MOL0     C 1550   7.842   9.890   6.660  1.1467  0.2099  1.0552
  753MOL0     O 1551   7.774   9.853   6.775  0.5851 -0.8028  0.4259
  753MOL0     C 1552   7.761   9.952   6.873  0.6121 -0.0408 -0.0008
  753MOL0     C 1553   7.875  10.027   6.917 -0.1253 -0.3589 -0.0846
  753MOL0     C 1554   7.858  10.134   7.008  0.3435 -0.4775 -0.4080
  753MOL0     C 1555   7.730  10.166   7.062 -0.2468 -0.0535 -0.2193
  753MOL0     O 1556   7.705  10.267   7.148 -0.1768 -0.3754  0.5550
  753MOL0     C 1557   7.592  10.268   7.230  0.2621  0.5924 -0.5924
  753MOL0     C 1558   7.600  10.383   7.337 -0.0525 -0.9911 -0.1155
  753MOL0     C 1559   7.715  10.341   7.437 -0.7151 -0.2072 -1.3228
  753MOL0     C 1560   7.715  10.426   7.567  0.1232 -0.9493  0.5647
  753MOL0     C 1561   7.671  10.573   7.550  0.9611  0.0286 -1.1664
  753MOL0     C 1562   7.688  10.647   7.678  0.0003  0.0667  0.2544
  753MOL0     C 1563   7.588  10.621   7.786 -0.0525 -0.1218 -0.2803
  753MOL0     C 1564   7.449  10.667   7.743 -0.2441 -0.1812  0.3693
  753MOL0    Cl 1565   7.448  10.833   7.671 -0.1133 -0.2647 -0.1991
  753MOL0     C 1566   7.623  10.079   7.028  0.0978  0.4811 -1.1341
  753MOL0     C 1567   7.637   9.977   6.931 -0.2392  1.0100 -0.2956
  753MOL0     O 1568   7.902   9.994   6.638 -0.7853  0.4670  0.3910
  753MOL0     C 1569   7.844   9.652   6.621  0.2356  0.0864 -0.4790
  753MOL0     C 1570   7.860   9.541   6.543  0.6285 -0.8760  0.4570
  753MOL0     N 1571   8.256   9.410   5.865 -0.2429 -0.3450  0.1951
  753MOL0     N 1572   8.308   9.340   5.760  0.0074  0.1354 -0.0948
  753MOL0     C 1573   9.433   8.751   5.565 -0.4037  1.0156  0.0933
  753MOL0     C 1574   9.535   8.686   5.634 -0.2000  0.0248 -0.2880
  753MOL0     C 1575   9.789   8.487   5.930  0.9969 -0.9835  0.4497
  753MOL0     C 1576   9.801   8.361   5.993  0.9983  0.0130 -0.2831
  753MOL0     C 1577   9.911   8.322   6.056  0.9669 -0.4625 -0.9590
  753MOL0     C 1578  10.019   8.419   6.078  0.4182  0.4546 -0.1806
  753MOL0     O 1579  10.117   8.377   6.165  0.2709 -0.1934  0.1704
  753MOL0     C 1580  10.215   8.293   6.096 -0.7738  0.2421 -0.9342
  753MOL0     C 1581  10.280   8.183   6.180 -0.6012 -0.8884  0.3526
  753MOL0     C 1582  10.183   8.073   6.217 -0.1014  0.4000  0.2061
  753MOL0     C 1583  10.097   8.100   6.331 -0.5710  0.1425  0.6592
  753MOL0     C 1584  10.007   7.987   6.342  0.5977 -0.8542  1.0858
  753MOL0     C 1585   9.928   7.901   6.380 -1.0657  0.7782 -0.1954
  753MOL0     C 1586  10.005   8.540   6.017 -0.5155 -0.0298 -0.4879
  753MOL0     C 1587   9.890   8.581   5.952 -0.8172  0.6486  0.3483
  753MOL0     H 1588   9.469   8.813   5.954  0.8223 -0.8391 -0.2655
  753MOL0     H 1589   9.249   8.892   5.810  0.6784  0.0729  0.5412
  753MOL0     H 1590   9.124   8.728   5.545  0.1189  0.1360 -1.1455
  753MOL0     H 1591   9.064   8.845   5.665  0.1020  0.8388 -0.1041
  753MOL0     H 1592   9.061   8.881   5.357 -0.9641  2.4924 -0.6731
  753MOL0     H 1593   8.933   8.810   5.439 -1.2355  1.5211  0.8797
  753MOL0     H 1594   8.983   9.069   5.569  0.1444  0.5369 -0.0172
  753MOL0     H 1595   9.008   9.101   5.403 -2.2363  1.6140 -0.3092
  753MOL0     H 1596   8.784   9.026   5.346 -2.4145  1.9473  0.0669
  753MOL0     H 1597   8.751   8.967   5.514  0.3024 -1.3638 -2.2439
  753MOL0     H 1598   8.799   9.208   5.566  1.6762  1.2617 -1.3369
  753MOL0     H 1599   8.764   9.244   5.400 -0.3707  0.1224  0.9789
  753MOL0     H 1600   8.553   9.151   5.384 -2.7874  0.3055  1.3170
  753MOL0     H 1601   8.549   9.067   5.526 -1.3073  1.3454  3.9952
  753MOL0     H 1602   8.567   9.372   5.520 -1.2749  1.3643  0.5321
  753MOL0     H 1603   8.420   9.276   5.525  0.4158 -3.0718  0.0117
  753MOL0     H 1604   8.633   9.281   5.750  0.9645 -1.0770  0.1460
  753MOL0     H 1605   8.511   9.150   5.725  2.4259 -0.4933  0.3227
  753MOL0     H 1606   8.573   9.424   5.939  0.7237 -1.0721  1.1820
  753MOL0     H 1607   8.421   9.535   6.130 -0.0504  1.4436  0.3807
  753MOL0     H 1608   8.286   9.623   6.087  0.7917  0.4240  2.6463
  753MOL0     H 1609   8.291   9.391   6.270  2.3110 -1.3179 -1.0305
  753MOL0     H 1610   8.212   9.334   6.136 -0.5995  0.8135 -0.1645
  753MOL0     H 1611   8.060   9.524   6.135 -0.1444  2.2441  0.4670
  753MOL0     H 1612   8.130   9.581   6.281 -1.5209  1.0737 -2.7030
  753MOL0     H 1613   8.054   9.366   6.394 -2.4435  2.4231  1.2175
  753MOL0     H 1614   7.982   9.305   6.243 -1.7635 -0.8941  1.7656
  753MOL0     H 1615   7.865   9.684   6.240 -0.0581  1.9897  0.2599
  753MOL0     H 1616   7.842   9.920   6.252 -2.3474  0.7221 -0.5614
  753MOL0     H 1617   7.785  10.000   6.408  0.1602 -1.7877  1.7268
  753MOL0     H 1618   7.954   9.974   6.369  0.0463 -0.9069 -3.4858
  753MOL0     H 1619   7.970  10.013   6.866  0.1280  0.9949 -0.0167
  753MOL0     H 1620   7.945  10.189   7.041 -0.0747  0.7941 -1.3609
  753MOL0     H 1621   7.502  10.284   7.170 -0.6250  1.3169  0.8937
  753MOL0     H 1622   7.579  10.174   7.284 -1.6933  0.4473 -1.2238
  753MOL0     H 1623   7.639  10.473   7.289 -0.5019 -1.0230 -0.5520
  753MOL0     H 1624   7.509  10.412   7.390  0.4340  0.6020 -0.0978
  753MOL0     H 1625   7.814  10.350   7.391  0.5423 -0.3717  1.2245
  753MOL0     H 1626   7.703  10.237   7.467 -2.5444  0.6795  1.3894
  753MOL0     H 1627   7.658  10.371   7.643 -1.1570  1.1424  1.1815
  753MOL0     H 1628   7.820  10.423   7.599 -0.2110 -1.8098  1.6239
  753MOL0     H 1629   7.566  10.583   7.523  0.5014  1.5089  0.9486
  753MOL0     H 1630   7.731  10.608   7.465  0.0409  0.4591 -1.6452
  753MOL0     H 1631   7.790  10.628   7.713 -1.0253 -2.0179  2.4326
  753MOL0     H 1632   7.694  10.754   7.656 -1.3702  0.4950  1.7391
  753MOL0     H 1633   7.617  10.669   7.879  1.9735 -1.6221 -0.0749
  753MOL0     H 1634   7.593  10.514   7.806  1.5598 -0.2642 -1.2374
  753MOL0     H 1635   7.397  10.665   7.839  1.1801  0.2483  1.1858
  753MOL0     H 1636   7.408  10.595   7.672  1.7019 -0.1497 -0.8856
  753MOL0     H 1637   7.520  10.099   7.059  1.0922  0.2473  2.9605
  753MOL0     H 1638   7.561   9.916   6.883  0.6170  1.4845 -2.3760
  753MOL0     H 1639   7.837   9.633   6.727 -0.1517 -2.1324 -0.8444
  753MOL0     H 1640   7.854   9.442   6.588 -1.6770 -1.5537 -1.1806
  753MOL0     H 1641   9.427   8.744   5.457  3.6040  0.4658 -0.2503
  753MOL0     H 1642   9.606   8.623   5.581  1.9766  1.6786  0.4956
  753MOL0     H 1643   9.731   8.278   5.984  1.0023  0.0425 -0.6057
  753MOL0     H 1644   9.904   8.229   6.112 -3.1988  1.0098  1.4407
  753MOL0     H 1645  10.175   8.246   6.006  6.0242 -4.1643 -2.3918
  753MOL0     H 1646  10.288   8.360   6.050  0.0579 -1.6384 -2.4810
  753MOL0     H 1647  10.310   8.225   6.277 -2.5826 -1.0617  1.0838
  753MOL0     H 1648  10.375   8.157   6.133  1.0419  2.3138  1.6316
  753MOL0     H 1649  10.250   7.992   6.247 -0.7683  0.3136  1.5505
  753MOL0     H 1650  10.128   8.042   6.128  1.4663 -0.7575 -0.4045
  753MOL0     H 1651  10.031   8.185   6.315 -1.9541 -1.1721 -1.1731
  753MOL0     H 1652  10.148   8.123   6.425  0.7878  2.3966 -0.5607
  753MOL0     H 1653   9.865   7.823   6.417 -2.9450  2.6615  0.7905
  753MOL0     H 1654  10.090   8.603   6.043 -0.5409 -0.5451  0.9189
  753MOL0     H 1655   9.885   8.683   5.916 -1.6472  0.8786  1.1008
  754MOL0     O 1656  11.279   5.374   7.532 -0.6609  0.2327  0.1743
  754MOL0     C 1657  11.172   5.357   7.485 -0.1706  0.1131  0.5860
  754MOL0     O 1658  11.115   5.451   7.402  0.0126 -0.1114 -0.0789
  754MOL0     C 1659  11.187   5.562   7.369  0.0098 -0.3019  0.6241
  754MOL0     C 1660  11.129   5.682   7.399 -0.0256  0.7403 -0.7977
  754MOL0     C 1661  11.188   5.795   7.360  0.0113  0.8193 -0.7186
  754MOL0     C 1662  11.311   5.792   7.282  0.5799 -1.2446 -0.6660
  754MOL0     O 1663  11.372   5.902   7.212 -0.1342 -0.4915 -0.1814
  754MOL0     C 1664  11.303   6.034   7.212  1.0029  0.8757 -0.2156
  754MOL0     C 1665  11.388   6.133   7.143  0.4061 -0.2008  0.8033
  754MOL0     C 1666  11.326   6.283   7.135 -1.2154  0.2492  0.5227
  754MOL0     C 1667  11.275   6.336   7.271 -0.5911  0.7712 -0.1314
  754MOL0     C 1668  11.398   6.341   7.373 -0.3810 -0.1570  0.1280
  754MOL0     C 1669  11.355   6.414   7.501 -0.1687 -1.0689 -0.1648
  754MOL0     C 1670  11.355   6.569   7.503  0.2004 -0.5475 -0.2064
  754MOL0     C 1671  11.483   6.651   7.476 -0.2953 -0.0522 -0.0135
  754MOL0     N 1672  11.473   6.785   7.527 -0.7838 -0.0481  0.0164
  754MOL0     C 1673  11.396   6.877   7.460 -0.2048 -0.4672 -0.1340
  754MOL0     C 1674  11.423   6.990   7.531 -0.0390 -0.5596  0.5577
  754MOL0     C 1675  11.366   7.128   7.493 -0.2537 -0.2522 -0.2126
  754MOL0     C 1676  11.356   7.153   7.340  0.4118 -0.3779  0.8819
  754MOL0     C 1677  11.267   7.272   7.315 -0.0558  0.2736  0.9317
  754MOL0     C 1678  11.273   7.297   7.159  0.4471 -0.1398 -0.1224
  754MOL0     O 1679  11.180   7.399   7.147  0.9304  1.0413 -0.2455
  754MOL0     C 1680  11.184   7.497   7.056  0.7077 -0.2533  0.0975
  754MOL0     C 1681  11.158   7.632   7.103  0.0713 -0.3229  0.6768
  754MOL0     C 1682  11.171   7.738   7.018 -0.8142  0.0758  0.8523
  754MOL0     C 1683  11.132   7.873   7.069  0.5560 -0.1524  0.4707
  754MOL0     C 1684  11.208   7.722   6.880  0.4152  0.5622 -0.2927
  754MOL0     C 1685  11.218   7.833   6.789  0.2112  0.2547 -0.1829
  754MOL0     O 1686  11.310   7.928   6.811 -0.6808  0.8345 -1.2737
  754MOL0     C 1687  11.309   8.047   6.744  0.3620  0.4970  0.6241
  754MOL0     C 1688  11.227   8.153   6.777  0.6242  0.6836 -0.0208
  754MOL0     C 1689  11.225   8.276   6.703  0.1383 -0.8665 -0.2528
  754MOL0     C 1690  11.314   8.293   6.597  0.8881 -0.0071 -0.6834
  754MOL0     O 1691  11.302   8.409   6.525  1.2587 -0.1455 -0.1335
  754MOL0     C 1692  11.275   8.398   6.377  0.1974 -0.6341  0.7133
  754MOL0     C 1693  11.180   8.518   6.340 -0.1260  0.6183  0.3028
  754MOL0     C 1694  11.226   8.594   6.213 -0.3323 -0.1187 -0.0880
  754MOL0     C 1695  11.139   8.709   6.184 -0.9990 -0.4708 -0.0927
  754MOL0     C 1696  11.011   8.656   6.111  0.9634  0.3064 -0.4629
  754MOL0     C 1697  10.930   8.767   6.044 -0.6747 -0.5834 -0.5541
  754MOL0     C 1698  10.887   8.720   5.898 -0.4169 -1.1714  0.1546
  754MOL0     C 1699  10.849   8.843   5.807 -0.1360  0.0394 -0.0559
  754MOL0    Cl 1700  10.685   8.909   5.874 -0.7657 -0.1995  0.7303
  754MOL0     C 1701  11.407   8.190   6.567 -0.3699  0.1714 -0.5025
  754MOL0     C 1702  11.400   8.066   6.634 -0.2278 -0.4150 -0.3695
  754MOL0     O 1703  11.139   7.823   6.692  0.4838 -0.0286  0.4617
  754MOL0     C 1704  11.235   7.596   6.841  0.0959 -0.2107  0.0696
  754MOL0     C 1705  11.207   7.480   6.924 -0.1812  0.2448 -0.6700
  754MOL0     N 1706  11.506   6.961   7.644  0.1645 -0.6518  0.8781
  754MOL0     N 1707  11.542   6.836   7.637  0.0295 -0.8895  0.7403
  754MOL0     C 1708  11.377   5.667   7.267 -0.2145 -0.4634  0.3960
  754MOL0     C 1709  11.306   5.550   7.303  0.9702  0.4869 -0.2913
  754MOL0     C 1710  11.096   5.240   7.531  0.9544  0.1652  0.0822
  754MOL0     C 1711  11.155   5.123   7.579  0.5986 -0.0505  0.2027
  754MOL0     C 1712  11.085   5.012   7.623  0.5432  0.1404  0.3385
  754MOL0     C 1713  10.946   5.015   7.606  0.1581 -0.6215 -0.3094
  754MOL0     O 1714  10.876   4.907   7.636 -0.5816  0.5067 -0.0309
  754MOL0     C 1715  10.796   4.848   7.536  0.4454  0.4683  0.1548
  754MOL0     C 1716  10.855   4.764   7.419 -0.4030 -0.2290 -0.0545
  754MOL0     C 1717  10.942   4.635   7.458  0.3530 -0.6355 -0.4372
  754MOL0     C 1718  11.073   4.659   7.532 -1.1562 -0.5502 -0.1286
  754MOL0     C 1719  11.165   4.541   7.515  0.3247 -1.0808  0.1808
  754MOL0     C 1720  11.248   4.456   7.495  0.6413 -0.3978 -0.4712
  754MOL0     C 1721  10.878   5.134   7.577 -0.6313  0.0278  0.3979
  754MOL0     C 1722  10.952   5.246   7.538 -0.6549 -1.6574  0.5813
  754MOL0     H 1723  11.030   5.681   7.444 -0.3641  0.0064 -1.5318
  754MOL0     H 1724  11.149   5.894   7.380  3.4561  2.2223 -0.2752
  754MOL0     H 1725  11.205   6.023   7.164  0.7290 -3.0023  0.8987
  754MOL0     H 1726  11.287   6.063   7.316  0.6219  1.8790 -0.5462
  754MOL0     H 1727  11.482   6.142   7.198  1.1588  1.3136 -0.6517
  754MOL0     H 1728  11.393   6.095   7.041 -0.6220 -0.0010  0.6733
  754MOL0     H 1729  11.401   6.355   7.101 -1.6449  0.0498 -0.9192
  754MOL0     H 1730  11.254   6.296   7.054  0.2913 -1.3368 -1.1508
  754MOL0     H 1731  11.225   6.431   7.253 -0.7543  0.5922 -0.6553
  754MOL0     H 1732  11.197   6.273   7.314  0.0413 -0.3728 -0.5951
  754MOL0     H 1733  11.421   6.238   7.402 -1.0525  0.3153  2.5532
  754MOL0     H 1734  11.479   6.390   7.316  1.3525 -2.9489  0.0138
  754MOL0     H 1735  11.258   6.372   7.530  0.2161 -2.5687 -0.9807
  754MOL0     H 1736  11.431   6.385   7.574 -0.7050  0.3483  1.0175
  754MOL0     H 1737  11.279   6.603   7.432 -0.8720 -3.2090 -0.4607
  754MOL0     H 1738  11.309   6.597   7.598 -1.1396 -1.2133 -0.6247
  754MOL0     H 1739  11.485   6.656   7.367  0.7955 -1.5202 -0.0808
  754MOL0     H 1740  11.565   6.598   7.525 -1.0537  0.1339  1.5057
  754MOL0     H 1741  11.347   6.864   7.364 -0.2623 -1.9449  0.0759
  754MOL0     H 1742  11.269   7.134   7.543  1.2719 -3.3175  3.7461
  754MOL0     H 1743  11.418   7.213   7.538 -0.7125  0.1181 -0.3837
  754MOL0     H 1744  11.322   7.065   7.284 -0.2078 -0.3857  1.2554
  754MOL0     H 1745  11.459   7.170   7.307  0.6169 -1.1315  1.1115
  754MOL0     H 1746  11.300   7.363   7.365 -1.4777  1.5590 -0.3696
  754MOL0     H 1747  11.162   7.261   7.344 -0.0617  1.3438  1.3495
  754MOL0     H 1748  11.246   7.220   7.086  3.2180 -2.0720  0.7019
  754MOL0     H 1749  11.372   7.340   7.141  0.4630 -0.0054  0.2755
  754MOL0     H 1750  11.127   7.662   7.203 -6.0010  0.4270 -1.0117
  754MOL0     H 1751  11.106   7.889   7.174 -3.6112  4.0438 -0.8360
  754MOL0     H 1752  11.221   7.933   7.047 -0.6286  0.8075 -2.0894
  754MOL0     H 1753  11.050   7.911   7.007  3.4569  0.1289 -3.6074
  754MOL0     H 1754  11.181   8.151   6.875  2.1649  2.7470  0.8128
  754MOL0     H 1755  11.170   8.363   6.738 -1.2220 -1.5171 -0.7422
  754MOL0     H 1756  11.363   8.394   6.313  0.5608 -0.1390  1.1802
  754MOL0     H 1757  11.231   8.301   6.348 -2.4776  1.7506 -4.6681
  754MOL0     H 1758  11.087   8.474   6.304  2.3589 -1.5740 -4.3108
  754MOL0     H 1759  11.166   8.588   6.423 -1.0136 -1.7433  2.2868
  754MOL0     H 1760  11.246   8.528   6.128 -0.5904 -0.8749  0.4287
  754MOL0     H 1761  11.321   8.638   6.245 -0.4813 -2.0033  3.3964
  754MOL0     H 1762  11.116   8.756   6.281 -0.2456  0.3824 -0.3197
  754MOL0     H 1763  11.189   8.788   6.128  1.3922 -2.3892 -0.8312
  754MOL0     H 1764  10.933   8.617   6.178  0.6845  3.3251  1.1386
  754MOL0     H 1765  11.032   8.577   6.039 -3.0900  0.8324 -2.5341
  754MOL0     H 1766  10.846   8.796   6.108  1.9925  1.4528  2.3884
  754MOL0     H 1767  10.984   8.861   6.025  0.0852 -1.0347 -0.6900
  754MOL0     H 1768  10.805   8.648   5.901 -1.8808  0.4074 -0.6746
  754MOL0     H 1769  10.977   8.679   5.850  0.5200  0.4616  0.4195
  754MOL0     H 1770  10.833   8.798   5.709 -2.5674 -0.5865  0.5645
  754MOL0     H 1771  10.928   8.919   5.804  0.5793 -0.7282 -1.2253
  754MOL0     H 1772  11.476   8.210   6.486  1.6872 -0.6707  0.9619
  754MOL0     H 1773  11.467   7.986   6.605  0.8289  0.7380 -1.1901
  754MOL0     H 1774  11.271   7.588   6.739 -0.3426 -0.0481 -0.1011
  754MOL0     H 1775  11.232   7.378   6.896 -3.9480 -0.7148 -1.0556
  754MOL0     H 1776  11.473   5.639   7.224 -0.9215 -5.2623  1.3956
  754MOL0     H 1777  11.347   5.451   7.285  0.0383 -0.3247  1.7300
  754MOL0     H 1778  11.263   5.109   7.578  0.5004 -1.7801 -3.8595
  754MOL0     H 1779  11.147   4.925   7.644 -0.1254 -1.2925 -2.9886
  754MOL0     H 1780  10.730   4.777   7.587  1.1432  0.4030  0.9778
  754MOL0     H 1781  10.744   4.933   7.491  0.2674  1.0762  1.4430
  754MOL0     H 1782  10.919   4.838   7.371  0.2336 -0.6300  0.1563
  754MOL0     H 1783  10.769   4.732   7.360 -1.2239  2.8833 -0.7151
  754MOL0     H 1784  10.953   4.573   7.368 -1.0219  0.1577 -1.1783
  754MOL0     H 1785  10.877   4.578   7.524  0.5050  0.0349  0.3056
  754MOL0     H 1786  11.060   4.685   7.637  3.0174  3.2625 -0.2789
  754MOL0     H 1787  11.124   4.746   7.491 -0.8142  0.7157  2.7455
  754MOL0     H 1788  11.329   4.388   7.479  0.0448 -1.4517  0.8189
  754MOL0     H 1789  10.769   5.140   7.574 -0.5694  1.4594  0.0839
  754MOL0     H 1790  10.891   5.334   7.521 -1.3846 -2.3867 -0.8384
  755MOL0     O 1791   5.366   3.757   4.378 -0.4543  0.4511 -0.3984
  755MOL0     C 1792   5.326   3.820   4.283 -0.4001 -0.2590 -0.9292
  755MOL0     O 1793   5.198   3.816   4.238  0.6430 -0.3554  1.1823
  755MOL0     C 1794   5.103   3.738   4.309  1.0910 -0.2444 -0.1106
  755MOL0     C 1795   5.118   3.625   4.394  0.4237 -0.7938 -0.3866
  755MOL0     C 1796   5.015   3.564   4.449 -0.1776 -0.1505 -0.3394
  755MOL0     C 1797   4.889   3.618   4.440  0.5112 -0.4331 -0.8039
  755MOL0     O 1798   4.777   3.564   4.498 -0.7541 -0.3731  0.2456
  755MOL0     C 1799   4.798   3.459   4.595 -0.3863  0.7663  1.1790
  755MOL0     C 1800   4.666   3.371   4.617  0.0230 -0.4102  0.7117
  755MOL0     C 1801   4.711   3.237   4.667  0.8925  0.7272  0.1966
  755MOL0     C 1802   4.581   3.173   4.719  0.1434  0.6275  0.3504
  755MOL0     C 1803   4.584   3.019   4.757  0.3527  0.2882 -0.5766
  755MOL0     C 1804   4.443   2.972   4.776  0.2214 -0.0623 -1.5180
  755MOL0     C 1805   4.432   2.830   4.831 -1.2405 -0.2442 -0.3235
  755MOL0     C 1806   4.287   2.790   4.858  0.0777  0.3912  0.0911
  755MOL0     N 1807   4.275   2.643   4.882  0.4533 -0.1426 -0.4874
  755MOL0     C 1808   4.289   2.550   4.778 -0.5274 -0.6570 -0.5043
  755MOL0     C 1809   4.277   2.428   4.843  0.3517  0.2728 -0.3284
  755MOL0     C 1810   4.273   2.298   4.761  0.3182  0.4835  0.3448
  755MOL0     C 1811   4.145   2.219   4.776 -0.7953 -0.0468  0.2261
  755MOL0     C 1812   4.141   2.090   4.694 -0.1332 -0.1975 -0.1114
  755MOL0     C 1813   4.011   2.009   4.697 -0.8649  0.5631  0.2053
  755MOL0     O 1814   3.909   2.062   4.614 -0.3915 -0.0794 -0.2730
  755MOL0     C 1815   3.781   2.040   4.646  0.1810  0.6231 -0.5123
  755MOL0     C 1816   3.699   2.146   4.695 -0.2400 -0.6661  0.2475
  755MOL0     C 1817   3.565   2.130   4.733  0.0976  0.1859  0.1567
  755MOL0     C 1818   3.500   2.254   4.764 -0.0066 -0.4036  0.8624
  755MOL0     C 1819   3.510   2.003   4.739 -0.1028 -0.6710 -0.7534
  755MOL0     C 1820   3.379   1.980   4.804 -0.3986 -0.6146 -0.1821
  755MOL0     O 1821   3.349   2.046   4.920 -0.3016  0.2772  0.1733
  755MOL0     C 1822   3.233   2.019   4.995 -0.2306 -0.5663  0.2230
  755MOL0     C 1823   3.263   2.008   5.131 -1.1048 -0.6200  0.6642
  755MOL0     C 1824   3.163   1.975   5.223  0.9457  0.4933  1.0406
  755MOL0     C 1825   3.031   1.948   5.180 -0.1644 -0.4330 -0.5922
  755MOL0     O 1826   2.937   1.898   5.270 -0.9116 -0.4536  0.7168
  755MOL0     C 1827   2.950   1.922   5.407 -0.6870 -0.2774  0.0738
  755MOL0     C 1828   3.007   1.797   5.481  0.1289 -0.6611  0.6394
  755MOL0     C 1829   3.022   1.824   5.628  0.2639  0.2110  0.8275
  755MOL0     C 1830   3.093   1.703   5.700 -0.4613  0.1314 -0.3410
  755MOL0     C 1831   3.112   1.741   5.848  0.3015 -0.6971  0.3541
  755MOL0     C 1832   3.193   1.639   5.932  0.7656 -0.1604  0.0621
  755MOL0     C 1833   3.108   1.520   5.980 -0.2329  0.0998 -0.4826
  755MOL0     C 1834   3.196   1.438   6.075 -0.0379 -0.4259 -0.6124
  755MOL0    Cl 1835   3.113   1.286   6.124  0.0535  0.1010 -0.2150
  755MOL0     C 1836   3.005   1.973   5.049 -0.1912 -0.2037 -0.1632
  755MOL0     C 1837   3.100   2.001   4.956  0.8147  0.2854  0.0656
  755MOL0     O 1838   3.318   1.887   4.768 -0.6973  0.6829 -1.1964
  755MOL0     C 1839   3.582   1.899   4.676  0.4919 -0.1261  0.7929
  755MOL0     C 1840   3.720   1.918   4.631  0.6903 -0.3919  0.1478
  755MOL0     N 1841   4.259   2.450   4.977  0.1375 -0.7673 -0.5929
  755MOL0     N 1842   4.269   2.579   4.997 -0.8562 -0.4023 -0.6814
  755MOL0     C 1843   4.862   3.728   4.362 -0.6001 -1.2920  1.1781
  755MOL0     C 1844   4.970   3.794   4.295 -0.2135  0.3375 -0.1354
  755MOL0     C 1845   5.418   3.924   4.224  0.3885  0.2108  0.1008
  755MOL0     C 1846   5.371   4.003   4.117  0.2157 -0.0707 -0.7132
  755MOL0     C 1847   5.431   4.114   4.070 -0.0367 -0.7556  0.4231
  755MOL0     C 1848   5.553   4.156   4.123 -0.5359 -1.2531  0.5154
  755MOL0     O 1849   5.595   4.276   4.073 -0.2087  0.7631  0.1282
  755MOL0     C 1850   5.717   4.337   4.131  0.3824  0.2219  0.5514
  755MOL0     C 1851   5.852   4.267   4.092 -0.4339  0.3155  0.1635
  755MOL0     C 1852   5.871   4.258   3.938  0.1520 -0.1851  0.6257
  755MOL0     C 1853   6.010   4.204   3.891 -0.6782 -0.0322 -0.5800
  755MOL0     C 1854   6.060   4.076   3.953  0.1094 -0.5448  0.5219
  755MOL0     C 1855   6.090   3.969   3.990  0.1805 -0.6140 -0.6825
  755MOL0     C 1856   5.618   4.078   4.227  0.6180 -0.1284  0.0830
  755MOL0     C 1857   5.547   3.957   4.270  0.5887  0.2422 -0.7778
  755MOL0     H 1858   5.217   3.582   4.409  0.2203 -0.8394  0.8719
  755MOL0     H 1859   5.046   3.484   4.516  2.7143  0.6349 -0.5816
  755MOL0     H 1860   4.878   3.393   4.563  0.1446  1.5063  0.9368
  755MOL0     H 1861   4.840   3.511   4.682  0.5105 -1.9832  2.5005
  755MOL0     H 1862   4.595   3.414   4.688 -1.4266 -2.9838  0.9345
  755MOL0     H 1863   4.618   3.345   4.522 -1.4641 -2.5715  1.9971
  755MOL0     H 1864   4.759   3.179   4.588 -2.2715  1.6066 -2.6013
  755MOL0     H 1865   4.777   3.244   4.753  2.7303 -1.4261 -0.9396
  755MOL0     H 1866   4.535   3.225   4.803 -0.4862  1.4334 -0.4782
  755MOL0     H 1867   4.517   3.176   4.631  0.5206  2.8785  0.1154
  755MOL0     H 1868   4.636   2.956   4.684 -1.6969 -1.0057 -0.9956
  755MOL0     H 1869   4.633   3.020   4.855 -0.0007  1.3187 -0.3928
  755MOL0     H 1870   4.402   3.038   4.852  2.1620  0.6892 -1.0674
  755MOL0     H 1871   4.382   2.980   4.686 -2.5004 -0.1017  0.2076
  755MOL0     H 1872   4.481   2.760   4.764 -3.3316 -3.9850  1.6960
  755MOL0     H 1873   4.492   2.812   4.920  1.2238 -1.3416 -2.1047
  755MOL0     H 1874   4.236   2.823   4.767  0.5814 -1.0103 -0.7333
  755MOL0     H 1875   4.234   2.840   4.940 -2.5638 -1.4198 -0.3944
  755MOL0     H 1876   4.308   2.560   4.671  0.6875  0.8717 -0.1733
  755MOL0     H 1877   4.278   2.334   4.658 -1.2131 -0.1965  0.0061
  755MOL0     H 1878   4.356   2.239   4.802 -1.2021 -2.3402 -0.3994
  755MOL0     H 1879   4.063   2.283   4.744  0.0143  0.5356 -0.7402
  755MOL0     H 1880   4.130   2.201   4.883 -1.6933 -1.5286 -0.1218
  755MOL0     H 1881   4.219   2.020   4.726  1.8553  1.3717 -1.2861
  755MOL0     H 1882   4.152   2.117   4.588 -0.8838  1.8795  0.3007
  755MOL0     H 1883   3.978   1.992   4.800 -0.0908 -2.2906  0.0604
  755MOL0     H 1884   4.031   1.912   4.650  0.7566 -0.5386  2.9436
  755MOL0     H 1885   3.748   2.242   4.685  1.3420 -1.3566  0.9240
  755MOL0     H 1886   3.472   2.261   4.870 -2.2256  2.8850  0.2348
  755MOL0     H 1887   3.555   2.340   4.724 -1.8168  0.7349  0.6988
  755MOL0     H 1888   3.404   2.251   4.711 -0.2995 -1.6405  1.4309
  755MOL0     H 1889   3.362   2.040   5.162 -1.3260 -0.9139  1.7074
  755MOL0     H 1890   3.194   1.968   5.327  2.5896 -3.3932  0.4596
  755MOL0     H 1891   3.020   2.003   5.428  0.1291 -1.6795  3.6533
  755MOL0     H 1892   2.858   1.931   5.467 -1.1298 -0.4055 -0.5727
  755MOL0     H 1893   2.943   1.711   5.459 -0.0850 -0.1846 -0.6870
  755MOL0     H 1894   3.103   1.772   5.436 -1.6530 -2.8266 -2.3552
  755MOL0     H 1895   2.931   1.843   5.686  1.6867  1.2188  2.8358
  755MOL0     H 1896   3.086   1.913   5.632  0.9752 -0.1296 -1.4965
  755MOL0     H 1897   3.025   1.617   5.700 -0.1773 -0.1013  0.8581
  755MOL0     H 1898   3.190   1.676   5.659  0.9736  3.8807  0.2427
  755MOL0     H 1899   3.015   1.759   5.896  0.3952  1.7147 -0.2372
  755MOL0     H 1900   3.166   1.836   5.855  3.4622 -2.3975  0.3262
  755MOL0     H 1901   3.285   1.616   5.877  0.0706  0.5273 -1.4564
  755MOL0     H 1902   3.214   1.685   6.028 -4.1378 -0.2225  1.4445
  755MOL0     H 1903   3.069   1.462   5.896 -2.5349 -0.5490  0.9493
  755MOL0     H 1904   3.020   1.552   6.037 -1.4300 -0.1201 -2.1301
  755MOL0     H 1905   3.218   1.491   6.168 -1.4692 -0.7683 -0.0561
  755MOL0     H 1906   3.287   1.413   6.019  0.9932 -0.9974  1.1984
  755MOL0     H 1907   2.902   1.963   5.015  0.2324 -0.2593 -1.4476
  755MOL0     H 1908   3.069   2.009   4.852  1.2355  1.1074 -0.0127
  755MOL0     H 1909   3.531   1.804   4.665 -1.3022  0.9676 -1.0883
  755MOL0     H 1910   3.774   1.843   4.575 -0.4721  0.2807 -1.9665
  755MOL0     H 1911   4.766   3.778   4.370  0.1152  0.3979 -0.1456
  755MOL0     H 1912   4.951   3.877   4.228  1.6179 -0.5875 -1.8752
  755MOL0     H 1913   5.284   3.968   4.063  1.0176 -2.1361 -0.7673
  755MOL0     H 1914   5.392   4.165   3.983  1.0229 -1.9900 -0.8395
  755MOL0     H 1915   5.716   4.442   4.101 -1.1642 -0.4066 -1.9432
  755MOL0     H 1916   5.696   4.329   4.238 -1.6961  1.3252  0.2771
  755MOL0     H 1917   5.849   4.162   4.121 -0.4145  0.0026 -0.9110
  755MOL0     H 1918   5.919   4.329   4.152 -0.0097 -2.3446  2.6224
  755MOL0     H 1919   5.851   4.356   3.894 -2.3626 -0.9611 -0.1747
  755MOL0     H 1920   5.789   4.209   3.884  0.1883  0.0458  0.3614
  755MOL0     H 1921   6.074   4.288   3.920 -1.3449  0.0385  0.7974
  755MOL0     H 1922   6.016   4.203   3.782 -2.0987 -0.7158 -0.6734
  755MOL0     H 1923   6.108   3.875   4.038 -1.5746  0.1867  1.7054
  755MOL0     H 1924   5.711   4.112   4.270  0.0905 -1.0015  2.0172
  755MOL0     H 1925   5.606   3.899   4.340 -0.3503 -0.0412 -0.2035
  756MOL0     O 1926  11.258   3.988   1.032  0.3357 -0.5335  0.1761
  756MOL0     C 1927  11.320   3.888   1.011  0.4972 -0.1663  0.1540
  756MOL0     O 1928  11.303   3.798   0.901 -0.3623 -0.9022  0.0246
  756MOL0     C 1929  11.214   3.827   0.802 -0.9741  0.3942  1.0228
  756MOL0     C 1930  11.084   3.781   0.807 -0.3198  0.7047 -0.1872
  756MOL0     C 1931  11.002   3.814   0.706 -0.0340  0.3276  0.0052
  756MOL0     C 1932  11.047   3.896   0.602 -0.2122 -0.2427  0.1567
  756MOL0     O 1933  10.973   3.898   0.482  0.9182 -0.0329 -0.5832
  756MOL0     C 1934  10.958   4.028   0.417 -0.0630  0.8373  0.6787
  756MOL0     C 1935  10.824   4.092   0.452 -0.1334 -0.5654  0.2029
  756MOL0     C 1936  10.710   4.001   0.508 -0.4328  0.8238  0.3699
  756MOL0     C 1937  10.590   4.086   0.546  0.4476  0.1310 -0.2467
  756MOL0     C 1938  10.593   4.155   0.695  0.9445  0.1192 -0.0514
  756MOL0     C 1939  10.574   4.061   0.822 -0.4158 -0.8630 -0.2006
  756MOL0     C 1940  10.527   4.149   0.933  0.3941  0.1635  0.1975
  756MOL0     C 1941  10.515   4.057   1.064 -0.2035 -0.4699  0.3497
  756MOL0     N 1942  10.443   4.121   1.172 -0.2638  0.4575 -0.6624
  756MOL0     C 1943  10.504   4.166   1.298 -0.0363 -0.2349  0.2143
  756MOL0     C 1944  10.401   4.188   1.384 -0.9455 -0.0753  1.1790
  756MOL0     C 1945  10.429   4.231   1.527  0.3452 -0.3074  0.6750
  756MOL0     C 1946  10.457   4.379   1.535 -0.1576  0.2420 -0.3414
  756MOL0     C 1947  10.578   4.434   1.461 -1.0985 -0.1420  0.2209
  756MOL0     C 1948  10.702   4.377   1.537  0.0079 -0.3444  0.8838
  756MOL0     O 1949  10.815   4.403   1.455  0.3185 -0.5405 -0.3963
  756MOL0     C 1950  10.941   4.354   1.483 -0.5277 -0.4694 -0.5314
  756MOL0     C 1951  11.038   4.376   1.396 -0.0924  1.1151  0.3895
  756MOL0     C 1952  11.170   4.329   1.412  0.4173  0.3291 -0.6640
  756MOL0     C 1953  11.268   4.365   1.307 -0.6591 -0.3712  0.7369
  756MOL0     C 1954  11.198   4.250   1.537  0.3585  0.0726  0.4581
  756MOL0     C 1955  11.334   4.197   1.569  0.6649  0.5983 -0.8526
  756MOL0     O 1956  11.355   4.154   1.695  0.6107 -0.1229  0.0039
  756MOL0     C 1957  11.468   4.087   1.732 -0.0218  0.2542  0.2842
  756MOL0     C 1958  11.546   4.142   1.839  0.3608  0.5338  0.8403
  756MOL0     C 1959  11.659   4.084   1.884 -0.2095  0.1722  0.3707
  756MOL0     C 1960  11.708   3.965   1.820 -0.5284 -0.0558 -0.1285
  756MOL0     O 1961  11.838   3.902   1.842  0.8297 -0.2792  0.0966
  756MOL0     C 1962  11.936   3.984   1.898  0.1769 -0.1306  0.9542
  756MOL0     C 1963  12.071   3.949   1.833 -0.1775  0.5713  0.4979
  756MOL0     C 1964  12.193   3.976   1.914 -0.9069  0.8715  0.0547
  756MOL0     C 1965  12.319   4.016   1.830 -0.8282  0.4896  0.1682
  756MOL0     C 1966  12.365   3.911   1.732  0.7101 -0.5596  0.2296
  756MOL0     C 1967  12.456   3.991   1.628  0.0601 -0.0407  0.5071
  756MOL0     C 1968  12.506   3.900   1.512 -0.5702 -1.2195  0.4142
  756MOL0     C 1969  12.590   3.980   1.406  0.0411 -0.1169  0.7721
  756MOL0    Cl 1970  12.758   3.995   1.478  0.3186  0.1644 -0.2530
  756MOL0     C 1971  11.628   3.910   1.714 -0.5885 -0.8662 -0.2226
  756MOL0     C 1972  11.516   3.979   1.665  0.2586  0.3886 -0.4587
  756MOL0     O 1973  11.426   4.205   1.485 -0.0955 -0.4491  0.1283
  756MOL0     C 1974  11.089   4.238   1.628 -0.2911  0.2011  0.1113
  756MOL0     C 1975  10.960   4.278   1.601 -0.4106 -0.3673 -0.6662
  756MOL0     N 1976  10.287   4.157   1.315 -0.7572 -0.2301 -0.0257
  756MOL0     N 1977  10.309   4.121   1.190  0.4100 -0.2833 -0.3522
  756MOL0     C 1978  11.177   3.947   0.602 -0.8311 -0.3404  0.2204
  756MOL0     C 1979  11.262   3.906   0.700  0.7962  0.6435  0.1447
  756MOL0     C 1980  11.418   3.853   1.111  0.0069  0.1075  0.4574
  756MOL0     C 1981  11.481   3.728   1.102  0.9262 -0.4299 -0.6792
  756MOL0     C 1982  11.566   3.689   1.200 -0.9856 -0.2236 -0.0623
  756MOL0     C 1983  11.607   3.775   1.307 -0.2105  0.4853 -0.7431
  756MOL0     O 1984  11.697   3.745   1.409 -0.7956  0.1177  1.2833
  756MOL0     C 1985  11.757   3.617   1.398 -1.4716  1.1172  0.9884
  756MOL0     C 1986  11.870   3.598   1.504 -0.5488 -0.1043  0.1093
  756MOL0     C 1987  11.981   3.703   1.501  0.5351  0.2883 -0.0125
  756MOL0     C 1988  12.085   3.690   1.392  0.4640 -0.0550 -0.0199
  756MOL0     C 1989  12.175   3.578   1.424 -0.1366 -0.0577  0.9174
  756MOL0     C 1990  12.262   3.502   1.465 -0.0232  0.5318 -0.7849
  756MOL0     C 1991  11.548   3.902   1.311 -0.7580  0.7817  0.4088
  756MOL0     C 1992  11.454   3.940   1.207 -1.3560 -0.5828  0.0391
  756MOL0     H 1993  11.060   3.728   0.898 -0.5076 -3.1163 -2.2258
  756MOL0     H 1994  10.896   3.796   0.722 -0.0096 -0.0468 -0.2233
  756MOL0     H 1995  11.043   4.094   0.436  0.6478  0.2598 -0.3947
  756MOL0     H 1996  10.963   4.003   0.310 -1.4831  4.0264 -0.2504
  756MOL0     H 1997  10.853   4.178   0.512  0.5809 -0.6686  0.0119
  756MOL0     H 1998  10.795   4.145   0.361  0.9618 -1.0837 -0.4662
  756MOL0     H 1999  10.689   3.931   0.426 -0.0208  2.9086 -1.6237
  756MOL0     H 2000  10.743   3.940   0.593 -2.6389 -2.0403 -0.6440
  756MOL0     H 2001  10.584   4.168   0.474  0.4213 -1.8357 -2.5973
  756MOL0     H 2002  10.506   4.021   0.522  1.2447 -0.8778 -0.3686
  756MOL0     H 2003  10.691   4.204   0.702  2.1641 -2.2532  0.6509
  756MOL0     H 2004  10.517   4.233   0.701  0.6997 -0.2059  1.8528
  756MOL0     H 2005  10.492   3.991   0.799 -0.3790 -0.3807 -1.9787
  756MOL0     H 2006  10.655   3.994   0.850 -2.1494 -1.9418  2.6447
  756MOL0     H 2007  10.590   4.236   0.950  1.7077 -1.0160  1.7749
  756MOL0     H 2008  10.427   4.183   0.908  1.5931  1.5197 -3.3346
  756MOL0     H 2009  10.618   4.034   1.093  0.3434 -0.8503 -1.6768
  756MOL0     H 2010  10.465   3.963   1.039  2.8783 -1.4809 -2.8719
  756MOL0     H 2011  10.606   4.185   1.332 -0.9064  2.7366  1.4485
  756MOL0     H 2012  10.342   4.209   1.589 -1.5669 -0.6936 -1.9823
  756MOL0     H 2013  10.518   4.171   1.551  2.0104  0.0153 -3.8532
  756MOL0     H 2014  10.463   4.400   1.643  0.5253 -1.0261 -0.1139
  756MOL0     H 2015  10.372   4.436   1.496  0.3331  1.1762 -0.0866
  756MOL0     H 2016  10.585   4.543   1.468  1.1665 -0.3558  2.9756
  756MOL0     H 2017  10.583   4.398   1.358 -0.1336 -1.3021  0.6392
  756MOL0     H 2018  10.696   4.269   1.551  1.9426 -0.4566  1.0656
  756MOL0     H 2019  10.700   4.432   1.632  0.2882 -1.9870  1.8764
  756MOL0     H 2020  11.007   4.440   1.314 -0.4698 -2.3323 -2.4008
  756MOL0     H 2021  11.225   4.420   1.223 -1.0365 -0.4224  0.8979
  756MOL0     H 2022  11.338   4.425   1.366 -2.2130  0.0015  2.2614
  756MOL0     H 2023  11.327   4.284   1.263  1.0030 -0.6547  3.3024
  756MOL0     H 2024  11.535   4.241   1.882  0.2019  0.6811  0.4638
  756MOL0     H 2025  11.708   4.141   1.962  0.2763  0.5212 -0.1758
  756MOL0     H 2026  11.909   4.087   1.873  0.1274 -0.3182  0.2021
  756MOL0     H 2027  11.947   3.964   2.005 -0.9885 -1.8399  0.8027
  756MOL0     H 2028  12.075   3.845   1.800 -0.6761  0.1761  1.6484
  756MOL0     H 2029  12.089   3.994   1.735  2.3031 -1.4106 -0.0505
  756MOL0     H 2030  12.220   3.890   1.975  0.3560  2.0099  1.1567
  756MOL0     H 2031  12.185   4.051   1.993  2.7231  0.5746  0.8572
  756MOL0     H 2032  12.305   4.119   1.797  1.0627 -0.0148 -2.5392
  756MOL0     H 2033  12.397   4.008   1.907  0.3563  1.4066 -0.9085
  756MOL0     H 2034  12.270   3.880   1.687  0.7802  1.3199 -1.3824
  756MOL0     H 2035  12.412   3.837   1.797 -0.5877 -0.1726  1.6449
  756MOL0     H 2036  12.401   4.077   1.589 -0.8308 -1.2886 -1.1380
  756MOL0     H 2037  12.546   4.032   1.675 -1.4538  1.7431  2.0519
  756MOL0     H 2038  12.414   3.855   1.472 -1.3532  0.0193  0.7909
  756MOL0     H 2039  12.581   3.829   1.549  2.3901  1.0527 -0.8849
  756MOL0     H 2040  12.549   4.080   1.395  0.7230  0.0439 -0.4210
  756MOL0     H 2041  12.592   3.929   1.309 -2.5929  1.3021 -0.1008
  756MOL0     H 2042  11.658   3.815   1.671 -1.9447 -2.7007  2.5986
  756MOL0     H 2043  11.466   3.927   1.583  2.0481 -1.6434 -0.3448
  756MOL0     H 2044  11.108   4.181   1.718 -3.5941  1.6519  1.9098
  756MOL0     H 2045  10.883   4.270   1.677 -1.5339  1.1139 -1.5946
  756MOL0     H 2046  11.224   4.002   0.521 -0.8230 -1.1013 -0.2940
  756MOL0     H 2047  11.365   3.938   0.689  1.3173 -1.4584 -2.2037
  756MOL0     H 2048  11.466   3.650   1.028  2.1068  0.6202 -2.0672
  756MOL0     H 2049  11.598   3.585   1.197 -0.8161 -0.1438 -2.6305
  756MOL0     H 2050  11.684   3.539   1.420  0.0860  0.3918  4.2040
  756MOL0     H 2051  11.802   3.620   1.299 -1.4278 -1.2699  0.8886
  756MOL0     H 2052  11.918   3.500   1.515  0.3845  0.4165  0.8841
  756MOL0     H 2053  11.804   3.611   1.590 -1.2921 -0.8330 -0.3396
  756MOL0     H 2054  12.008   3.709   1.607 -0.5536  2.2856  0.2068
  756MOL0     H 2055  11.936   3.799   1.473  3.0487  1.7456  0.5685
  756MOL0     H 2056  12.136   3.786   1.390 -1.4704  1.1851  2.7448
  756MOL0     H 2057  12.045   3.678   1.291 -1.4916  1.0637  0.5692
  756MOL0     H 2058  12.334   3.434   1.507 -0.0694 -1.1172 -3.2421
  756MOL0     H 2059  11.564   3.978   1.387  1.3875  1.9835 -1.1574
  756MOL0     H 2060  11.421   4.044   1.206  0.0091 -0.0975 -1.6679
  757MOL0     O 2061   7.706   6.186   7.924  0.1218  0.2876 -0.0279
  757MOL0     C 2062   7.765   6.155   8.033  0.7443 -0.0022  0.0600
  757MOL0     O 2063   7.870   6.227   8.097  0.2041 -0.5408  0.2657
  757MOL0     C 2064   7.941   6.325   8.040 -1.0056  1.6187  1.1353
  757MOL0     C 2065   8.052   6.356   8.112 -0.5007  0.3203 -0.3808
  757MOL0     C 2066   8.125   6.462   8.069  0.7384  0.4244  0.4192
  757MOL0     C 2067   8.099   6.530   7.948 -1.3647 -0.1224 -0.1922
  757MOL0     O 2068   8.192   6.618   7.885  0.2662 -0.3669  0.3968
  757MOL0     C 2069   8.317   6.647   7.952 -0.3200 -1.1849 -0.2722
  757MOL0     C 2070   8.391   6.735   7.847 -0.3389 -0.3029 -1.0741
  757MOL0     C 2071   8.529   6.795   7.886  0.0882 -0.9914 -1.1879
  757MOL0     C 2072   8.649   6.731   7.817  0.1837 -0.4450 -0.5451
  757MOL0     C 2073   8.685   6.598   7.872  0.0358  0.3934  0.5634
  757MOL0     C 2074   8.776   6.603   8.000  0.3188 -0.1167  0.4253
  757MOL0     C 2075   8.784   6.459   8.062  0.3470  0.4952 -1.1624
  757MOL0     C 2076   8.903   6.377   8.032 -0.4310  0.1561  0.3327
  757MOL0     N 2077   8.887   6.291   7.919 -0.2898 -0.1191 -0.6844
  757MOL0     C 2078   8.822   6.175   7.920 -1.0541 -0.7934 -1.0047
  757MOL0     C 2079   8.857   6.113   7.801 -0.4896  0.4699  0.3734
  757MOL0     C 2080   8.816   5.973   7.763 -0.2748  0.4099  0.3419
  757MOL0     C 2081   8.672   5.968   7.715 -1.1978 -0.7182  0.7945
  757MOL0     C 2082   8.662   6.004   7.562  0.3870 -0.1736 -0.4522
  757MOL0     C 2083   8.532   5.970   7.499 -0.1702 -1.0068  0.7028
  757MOL0     O 2084   8.502   5.837   7.469 -0.9031  0.5089  0.0073
  757MOL0     C 2085   8.570   5.759   7.376 -0.5179  0.3260 -0.4370
  757MOL0     C 2086   8.550   5.622   7.374 -0.2322 -0.3007 -0.3047
  757MOL0     C 2087   8.603   5.536   7.269  0.0255  0.2416  0.2854
  757MOL0     C 2088   8.562   5.389   7.270  0.7354 -0.2047  0.0599
  757MOL0     C 2089   8.699   5.599   7.173 -0.4050  0.6825 -0.9866
  757MOL0     C 2090   8.748   5.527   7.051  0.9078 -0.1216  0.0560
  757MOL0     O 2091   8.829   5.598   6.974 -0.2631  0.3697  0.4259
  757MOL0     C 2092   8.871   5.546   6.852 -0.8709 -0.1333 -0.3790
  757MOL0     C 2093   9.003   5.526   6.841 -0.7805 -0.1099 -0.1095
  757MOL0     C 2094   9.048   5.464   6.718  0.3696  0.5878 -0.3447
  757MOL0     C 2095   8.958   5.444   6.611  0.9861  0.4060  0.4959
  757MOL0     O 2096   9.013   5.388   6.503  0.3428  0.1565  0.4316
  757MOL0     C 2097   8.928   5.287   6.454  0.7854  0.3381 -0.1906
  757MOL0     C 2098   8.995   5.217   6.339 -0.7518 -0.1243 -0.3703
  757MOL0     C 2099   9.035   5.312   6.221 -0.6974 -0.2725 -0.1440
  757MOL0     C 2100   8.915   5.389   6.166  0.2115 -1.2534 -0.9733
  757MOL0     C 2101   8.946   5.446   6.031 -0.4727  0.1556 -0.1470
  757MOL0     C 2102   9.064   5.556   6.012 -0.0792 -0.4811  0.5503
  757MOL0     C 2103   9.210   5.503   6.011 -0.1462  0.2598  0.5875
  757MOL0     C 2104   9.307   5.612   5.993 -0.7186  0.0159 -0.0411
  757MOL0    Cl 2105   9.279   5.723   6.139  0.5354  0.7574 -0.5296
  757MOL0     C 2106   8.825   5.499   6.616 -0.0552  0.1767  0.0869
  757MOL0     C 2107   8.779   5.530   6.746  0.3045 -0.0930  0.8348
  757MOL0     O 2108   8.709   5.415   7.026  0.0675  0.0606  0.2231
  757MOL0     C 2109   8.733   5.738   7.196  0.1387  0.4540  0.2774
  757MOL0     C 2110   8.663   5.811   7.286  0.3869  0.2788 -1.1964
  757MOL0     N 2111   8.941   6.194   7.733 -0.0647 -0.6093  0.4263
  757MOL0     N 2112   8.956   6.301   7.805 -1.1756  0.0562  0.8927
  757MOL0     C 2113   7.983   6.506   7.880 -0.8005 -0.1574 -0.4487
  757MOL0     C 2114   7.906   6.397   7.926 -0.0887 -0.3007  0.3854
  757MOL0     C 2115   7.727   6.027   8.100  1.1003 -0.7148  0.4596
  757MOL0     C 2116   7.615   5.949   8.063  0.4935  0.1931  0.4135
  757MOL0     C 2117   7.587   5.818   8.115 -0.1690 -0.1939  0.4101
  757MOL0     C 2118   7.669   5.764   8.212  0.1505 -0.7704  0.2749
  757MOL0     O 2119   7.641   5.654   8.291 -0.3149 -0.1766  0.2726
  757MOL0     C 2120   7.652   5.526   8.220  0.8276  0.0880  0.1078
  757MOL0     C 2121   7.523   5.437   8.230  0.4410  0.0729  0.0015
  757MOL0     C 2122   7.535   5.291   8.165  1.2044 -0.1787 -0.6859
  757MOL0     C 2123   7.405   5.217   8.192  0.2664  0.0185  0.9843
  757MOL0     C 2124   7.395   5.087   8.122  0.0936 -0.0912 -0.1051
  757MOL0     C 2125   7.378   4.989   8.054 -0.6214  0.5245  0.2334
  757MOL0     C 2126   7.785   5.842   8.253 -0.7009  0.5099 -0.2396
  757MOL0     C 2127   7.813   5.969   8.203  0.5490  0.7170  0.4388
  757MOL0     H 2128   8.072   6.310   8.208 -1.5463  1.0431  0.2115
  757MOL0     H 2129   8.216   6.491   8.121 -0.5891  4.7007  0.7704
  757MOL0     H 2130   8.316   6.692   8.052  4.8029  2.3638 -1.4402
  757MOL0     H 2131   8.367   6.551   7.962  1.3312 -0.2207  1.6345
  757MOL0     H 2132   8.396   6.685   7.749  1.3636 -0.7489 -0.7766
  757MOL0     H 2133   8.327   6.821   7.824  0.0538 -0.3470 -2.4126
  757MOL0     H 2134   8.525   6.901   7.857  1.4271  0.2087  2.4356
  757MOL0     H 2135   8.534   6.798   7.995 -0.2985 -3.3968 -1.0516
  757MOL0     H 2136   8.627   6.719   7.711  0.2728 -1.4540 -0.4545
  757MOL0     H 2137   8.730   6.805   7.819 -2.6600  3.1111 -2.6461
  757MOL0     H 2138   8.599   6.536   7.897 -0.6128  0.1963 -1.9267
  757MOL0     H 2139   8.743   6.550   7.792  2.7050  2.7231  0.9171
  757MOL0     H 2140   8.879   6.639   7.989  0.1711  2.1434  4.5695
  757MOL0     H 2141   8.736   6.679   8.069  1.4599  0.2070  0.7493
  757MOL0     H 2142   8.768   6.462   8.170 -3.8287 -1.2853 -1.5437
  757MOL0     H 2143   8.707   6.392   8.021  0.9299 -0.0191 -1.4391
  757MOL0     H 2144   8.945   6.320   8.116 -1.3487 -0.8036  0.1723
  757MOL0     H 2145   8.976   6.455   8.010 -0.6062  0.8432  2.0707
  757MOL0     H 2146   8.763   6.130   7.999  0.9330 -0.7286  0.5903
  757MOL0     H 2147   8.883   5.934   7.686 -2.0287 -3.4258  0.5593
  757MOL0     H 2148   8.831   5.917   7.855  2.4687  0.7743  0.1899
  757MOL0     H 2149   8.607   6.038   7.767  0.4225  3.4722 -2.2175
  757MOL0     H 2150   8.630   5.869   7.734  0.4384 -0.8753  4.4159
  757MOL0     H 2151   8.742   5.957   7.504  0.2707  0.2496 -0.9709
  757MOL0     H 2152   8.681   6.111   7.553 -1.3983  0.0727 -1.9937
  757MOL0     H 2153   8.524   6.025   7.405 -1.5495 -0.1907  1.2561
  757MOL0     H 2154   8.447   6.001   7.561 -1.5525  0.2002 -1.6575
  757MOL0     H 2155   8.488   5.582   7.454 -1.2305  0.3071 -0.7670
  757MOL0     H 2156   8.654   5.330   7.259  1.9385  1.4076  1.1304
  757MOL0     H 2157   8.508   5.367   7.363  1.6497 -0.0238  0.6413
  757MOL0     H 2158   8.493   5.379   7.185  1.5240  1.0295 -0.7639
  757MOL0     H 2159   9.083   5.534   6.914  0.4154 -1.0848 -1.2549
  757MOL0     H 2160   9.150   5.427   6.712 -0.8630 -3.3726  0.2915
  757MOL0     H 2161   8.907   5.215   6.534 -0.7158  1.4933  0.5266
  757MOL0     H 2162   8.831   5.325   6.421 -2.4602 -3.9641  3.1094
  757MOL0     H 2163   9.087   5.177   6.383  0.3567  2.1325 -0.5202
  757MOL0     H 2164   8.921   5.144   6.305 -1.6674  0.8376 -0.4857
  757MOL0     H 2165   9.084   5.249   6.146  1.2097 -2.9781  3.0790
  757MOL0     H 2166   9.111   5.382   6.258  2.1363 -2.7980 -0.7341
  757MOL0     H 2167   8.828   5.323   6.154 -0.4865 -0.6010  0.2743
  757MOL0     H 2168   8.887   5.471   6.232  1.3808 -1.5699 -0.0371
  757MOL0     H 2169   8.856   5.492   5.988  0.8334 -0.1319 -3.5322
  757MOL0     H 2170   8.959   5.353   5.974 -0.1214 -1.1832  1.9955
  757MOL0     H 2171   9.048   5.601   5.914  2.9644  1.3820  0.7926
  757MOL0     H 2172   9.044   5.635   6.086  0.4469  0.6324 -0.4671
  757MOL0     H 2173   9.211   5.430   5.929 -0.7691 -0.0974  0.8873
  757MOL0     H 2174   9.242   5.442   6.097 -0.5083 -2.9157 -1.3638
  757MOL0     H 2175   9.294   5.666   5.898 -2.6973 -0.5070 -0.1052
  757MOL0     H 2176   9.412   5.587   6.009  0.8684  4.9160 -0.9135
  757MOL0     H 2177   8.750   5.504   6.537  1.2780 -1.1847 -1.3421
  757MOL0     H 2178   8.671   5.542   6.753  0.0670 -1.5521  0.1493
  757MOL0     H 2179   8.811   5.780   7.133  0.9521  0.0299  0.9826
  757MOL0     H 2180   8.662   5.920   7.288  1.0758  0.3530 -3.2072
  757MOL0     H 2181   7.976   6.565   7.789  3.0814  1.3861  0.1100
  757MOL0     H 2182   7.828   6.364   7.857  0.3254 -1.5201  0.4689
  757MOL0     H 2183   7.548   5.984   7.985  2.6462  0.6070 -1.3628
  757MOL0     H 2184   7.493   5.768   8.093  0.7182 -1.4925 -0.6053
  757MOL0     H 2185   7.700   5.529   8.122  2.1657  1.2707  0.7385
  757MOL0     H 2186   7.727   5.468   8.276  0.8216 -0.9253 -0.9136
  757MOL0     H 2187   7.439   5.482   8.176  0.3980 -1.5189 -1.3847
  757MOL0     H 2188   7.508   5.421   8.337 -1.2061  1.3066  0.0036
  757MOL0     H 2189   7.618   5.227   8.195  2.8978 -0.1206 -4.6570
  757MOL0     H 2190   7.548   5.317   8.059 -1.5877 -4.0419 -2.2372
  757MOL0     H 2191   7.315   5.274   8.167 -0.0829 -0.6221  0.7534
  757MOL0     H 2192   7.390   5.199   8.299 -0.8397 -0.4028  0.7662
  757MOL0     H 2193   7.355   4.908   7.988  1.1816 -0.1425  0.3813
  757MOL0     H 2194   7.831   5.815   8.347 -0.6745  1.8551  0.1557
  757MOL0     H 2195   7.901   6.025   8.232  1.1484  1.1855 -2.1016
  758MOL0     O 2196  10.232  10.618   4.447  0.4925 -0.9699 -0.2009
  758MOL0     C 2197  10.348  10.646   4.422 -0.1704 -0.4200  0.2890
  758MOL0     O 2198  10.433  10.728   4.495 -0.4558 -0.4817  0.4873
  758MOL0     C 2199  10.384  10.815   4.582  0.4135  0.4846 -0.1907
  758MOL0     C 2200  10.463  10.926   4.593 -0.5397  1.0944 -0.5883
  758MOL0     C 2201  10.433  11.029   4.681 -0.3567  0.2297  0.1450
  758MOL0     C 2202  10.306  11.026   4.742 -0.0038  0.0147  0.0753
  758MOL0     O 2203  10.264  11.142   4.805  0.2021  0.2420 -0.3737
  758MOL0     C 2204  10.124  11.165   4.803  0.2704  0.6835  0.4387
  758MOL0     C 2205  10.056  11.174   4.939 -0.4976  0.1574  0.4355
  758MOL0     C 2206  10.117  11.285   5.022 -0.5692  0.9243  0.2678
  758MOL0     C 2207  10.088  11.257   5.162  0.1565 -0.1500  0.2840
  758MOL0     C 2208  10.130  11.374   5.262 -0.0409 -1.0544 -0.5455
  758MOL0     C 2209  10.146  11.325   5.414 -0.7295  0.6568  0.0689
  758MOL0     C 2210  10.214  11.428   5.522  0.3035 -0.3329 -0.0876
  758MOL0     C 2211  10.344  11.503   5.478  0.0244  0.6719  0.5621
  758MOL0     N 2212  10.462  11.424   5.509 -0.7392 -0.0428 -0.0197
  758MOL0     C 2213  10.560  11.442   5.595 -0.5562 -0.7433 -0.5236
  758MOL0     C 2214  10.643  11.344   5.564  0.7266  0.5856  0.1006
  758MOL0     C 2215  10.767  11.296   5.632  0.0833 -0.7010  0.3456
  758MOL0     C 2216  10.716  11.183   5.715 -0.3354  0.8031  0.6655
  758MOL0     C 2217  10.830  11.128   5.798 -0.2567  0.4474  0.3635
  758MOL0     C 2218  10.882  11.235   5.893  0.7444  1.2150 -0.5293
  758MOL0     O 2219  10.786  11.278   5.990  0.8784 -0.4181 -0.3444
  758MOL0     C 2220  10.697  11.383   5.969  0.2029 -0.0775  0.4906
  758MOL0     C 2221  10.568  11.378   6.024  0.2599 -0.4100 -0.2608
  758MOL0     C 2222  10.472  11.489   6.017 -0.1199 -0.2715  0.3671
  758MOL0     C 2223  10.346  11.458   6.093  0.6726  0.2194  0.1360
  758MOL0     C 2224  10.498  11.597   5.927  0.3757  1.1816 -0.8492
  758MOL0     C 2225  10.405  11.704   5.891  0.2693  0.3950 -0.5909
  758MOL0     O 2226  10.297  11.736   5.973 -0.1593 -0.3919  0.1585
  758MOL0     C 2227  10.189  11.790   5.906  0.2586 -0.5541  0.4307
  758MOL0     C 2228  10.140  11.715   5.801  0.0420 -0.8813  0.3350
  758MOL0     C 2229  10.037  11.766   5.715 -0.0820  0.1402  0.3411
  758MOL0     C 2230   9.968  11.877   5.746  1.1598 -0.0150  0.0502
  758MOL0     O 2231   9.868  11.918   5.664 -0.0857 -0.2262  0.1325
  758MOL0     C 2232   9.784  12.038   5.687 -0.5165  0.2774  0.2459
  758MOL0     C 2233   9.638  11.998   5.656  0.8656  0.2380  0.0720
  758MOL0     C 2234   9.577  11.874   5.737  0.1605 -0.0872  0.0299
  758MOL0     C 2235   9.640  11.864   5.873  0.2144 -0.0954  0.5486
  758MOL0     C 2236   9.570  11.747   5.956 -0.3909 -0.1273 -0.3120
  758MOL0     C 2237   9.637  11.709   6.088  0.6223 -0.0968  0.2165
  758MOL0     C 2238   9.796  11.695   6.096  0.3145  0.2012 -0.7106
  758MOL0     C 2239   9.841  11.609   6.210 -0.1697 -0.2730  0.0111
  758MOL0    Cl 2240   9.798  11.682   6.367 -0.2042  0.3777  0.4022
  758MOL0     C 2241  10.013  11.951   5.861  0.2720  0.7849 -0.6871
  758MOL0     C 2242  10.117  11.900   5.942  0.8549 -0.6820 -0.7389
  758MOL0     O 2243  10.425  11.751   5.782 -0.6287 -0.5747 -0.5179
  758MOL0     C 2244  10.631  11.601   5.874  0.3659 -0.1116 -0.3441
  758MOL0     C 2245  10.726  11.496   5.890 -0.6092  0.2329  0.9592
  758MOL0     N 2246  10.600  11.280   5.444  0.1941 -0.0446 -0.7335
  758MOL0     N 2247  10.489  11.325   5.423  1.5472  0.7756  0.2001
  758MOL0     C 2248  10.239  10.900   4.754  0.1154  0.1159  0.1623
  758MOL0     C 2249  10.282  10.790   4.677  0.1383 -0.1789 -0.4460
  758MOL0     C 2250  10.412  10.571   4.313 -1.0708  1.0366 -0.3202
  758MOL0     C 2251  10.336  10.497   4.222 -0.1045  0.6431  0.1341
  758MOL0     C 2252  10.401  10.433   4.116 -0.3839 -0.3895  0.2027
  758MOL0     C 2253  10.542  10.447   4.100 -0.6935 -0.0034  0.1802
  758MOL0     O 2254  10.596  10.406   3.979  0.1241 -0.0998 -0.1462
  758MOL0     C 2255  10.663  10.515   3.905 -0.6418  0.0194 -0.0621
  758MOL0     C 2256  10.817  10.479   3.902  0.6032  0.0628 -1.1567
  758MOL0     C 2257  10.904  10.586   3.822  0.5209  0.5654  0.0852
  758MOL0     C 2258  11.033  10.519   3.760 -0.0794 -0.6822  0.0072
  758MOL0     C 2259  11.080  10.627   3.678  0.1023 -0.8146 -0.1466
  758MOL0     C 2260  11.123  10.724   3.625 -0.8901 -0.1859 -0.0023
  758MOL0     C 2261  10.614  10.521   4.194  0.1829  0.0152  0.7393
  758MOL0     C 2262  10.548  10.582   4.305 -0.6434  0.9142 -0.0982
  758MOL0     H 2263  10.551  10.934   4.531 -1.1878 -0.9168 -1.8649
  758MOL0     H 2264  10.484  11.124   4.694 -1.4998  0.8815  0.0111
  758MOL0     H 2265  10.107  11.258   4.748  0.7010 -0.6166 -2.0217
  758MOL0     H 2266  10.080  11.088   4.739  3.1754  1.8469 -3.3388
  758MOL0     H 2267   9.947  11.176   4.929 -0.6321 -0.7229  1.4799
  758MOL0     H 2268  10.068  11.074   4.980 -1.4807  0.0290  0.4291
  758MOL0     H 2269  10.226  11.292   5.012 -0.6955  0.9940 -1.3132
  758MOL0     H 2270  10.075  11.381   4.993  3.1120  2.3858 -0.7809
  758MOL0     H 2271   9.982  11.231   5.173 -0.0022  0.5784  0.5248
  758MOL0     H 2272  10.137  11.166   5.197 -0.5006 -0.7409 -0.2826
  758MOL0     H 2273  10.230  11.412   5.239 -0.3967  0.3718  0.1469
  758MOL0     H 2274  10.062  11.459   5.264 -0.1374 -1.1082  2.2856
  758MOL0     H 2275  10.041  11.305   5.437 -0.6705 -2.0201 -1.5978
  758MOL0     H 2276  10.185  11.224   5.424 -0.0753  0.9774  0.8906
  758MOL0     H 2277  10.136  11.498   5.550 -2.5434 -2.2721 -2.5232
  758MOL0     H 2278  10.238  11.365   5.608 -0.0603 -1.4329 -0.7773
  758MOL0     H 2279  10.356  11.602   5.523 -2.5637  2.0320 -1.4316
  758MOL0     H 2280  10.341  11.522   5.370  1.0453 -1.8231  0.0283
  758MOL0     H 2281  10.567  11.520   5.670  4.0570 -2.2421  0.9783
  758MOL0     H 2282  10.841  11.253   5.564 -0.5501 -1.3195  0.0358
  758MOL0     H 2283  10.814  11.380   5.684  1.8765 -1.1738 -0.4047
  758MOL0     H 2284  10.676  11.112   5.641  0.1810 -1.8540  2.7904
  758MOL0     H 2285  10.633  11.212   5.780  1.0626  2.4087  1.8272
  758MOL0     H 2286  10.915  11.093   5.738 -0.5660 -1.3269  0.9018
  758MOL0     H 2287  10.796  11.037   5.848  2.2490 -1.4263 -1.0782
  758MOL0     H 2288  10.922  11.318   5.834  3.2550 -1.3679 -2.7667
  758MOL0     H 2289  10.960  11.194   5.958  0.6812 -0.1257 -1.2650
  758MOL0     H 2290  10.541  11.292   6.085 -0.2867  0.3622  0.6204
  758MOL0     H 2291  10.274  11.411   6.025 -2.2616  4.7120 -0.3267
  758MOL0     H 2292  10.355  11.393   6.181  0.4462 -1.4694 -1.0292
  758MOL0     H 2293  10.302  11.553   6.124  1.2248  0.8448 -0.9588
  758MOL0     H 2294  10.188  11.623   5.771  2.7950  0.9176 -1.2272
  758MOL0     H 2295  10.012  11.713   5.624 -3.2115 -1.7721  2.1138
  758MOL0     H 2296   9.796  12.080   5.788 -0.5944  2.1915 -0.4960
  758MOL0     H 2297   9.813  12.116   5.616  0.3925 -0.3175 -0.0500
  758MOL0     H 2298   9.591  12.088   5.695  0.6954  0.3785 -0.4464
  758MOL0     H 2299   9.617  11.981   5.550 -1.0039  1.2700  0.2423
  758MOL0     H 2300   9.600  11.778   5.688 -2.1747  0.0883 -1.5493
  758MOL0     H 2301   9.469  11.882   5.729 -0.1696  0.1029  3.2757
  758MOL0     H 2302   9.748  11.855   5.857 -0.2170 -0.3609 -2.8775
  758MOL0     H 2303   9.625  11.955   5.932  0.8056 -0.6844  1.6525
  758MOL0     H 2304   9.556  11.658   5.894 -2.5841 -0.2843  0.3273
  758MOL0     H 2305   9.469  11.783   5.978 -1.0419 -1.0128 -1.7302
  758MOL0     H 2306   9.611  11.781   6.165 -0.8394  1.2565 -1.4462
  758MOL0     H 2307   9.599  11.615   6.129 -1.4188  0.4158 -0.3536
  758MOL0     H 2308   9.839  11.795   6.100 -2.2494  1.3807 -0.5209
  758MOL0     H 2309   9.822  11.632   6.011 -0.7313 -2.6805  0.9409
  758MOL0     H 2310   9.948  11.608   6.191 -0.0473 -0.2701  0.6997
  758MOL0     H 2311   9.799  11.509   6.197 -0.1328  0.0062 -3.0207
  758MOL0     H 2312   9.963  12.042   5.893  0.1454 -0.4602  3.0002
  758MOL0     H 2313  10.152  11.950   6.032  0.1723 -1.1313 -0.2213
  758MOL0     H 2314  10.653  11.684   5.807  0.7834 -2.2814 -3.1284
  758MOL0     H 2315  10.829  11.512   5.858 -0.7504  0.4225  0.5888
  758MOL0     H 2316  10.160  10.887   4.828  0.2188  1.5044  0.5453
  758MOL0     H 2317  10.236  10.692   4.680  2.4419 -1.3500 -0.6325
  758MOL0     H 2318  10.228  10.493   4.230 -0.0230 -1.1077  0.8789
  758MOL0     H 2319  10.359  10.373   4.036  0.6845 -1.0867  0.1513
  758MOL0     H 2320  10.629  10.519   3.802  0.5445  0.7063 -0.4429
  758MOL0     H 2321  10.644  10.613   3.951 -1.7325 -0.5635  0.7967
  758MOL0     H 2322  10.844  10.375   3.880  0.7091 -0.4204  1.0594
  758MOL0     H 2323  10.848  10.488   4.006 -2.3399 -3.6385  0.2818
  758MOL0     H 2324  10.928  10.665   3.894 -0.2850  1.4657 -0.6149
  758MOL0     H 2325  10.836  10.632   3.750 -3.5909 -1.7392  2.1034
  758MOL0     H 2326  11.011  10.423   3.712 -0.5443 -0.9092  0.6645
  758MOL0     H 2327  11.105  10.510   3.841  1.5999  2.3698 -0.9706
  758MOL0     H 2328  11.151  10.812   3.571 -4.8040  1.3306  0.0906
  758MOL0     H 2329  10.719  10.541   4.174 -0.1906  0.9082 -0.4608
  758MOL0     H 2330  10.607  10.651   4.365 -1.7537  0.9459  1.0105
  759MOL0     O 2331   7.119   4.809   5.565 -0.2556 -0.2429 -0.6871
  759MOL0     C 2332   7.074   4.876   5.661  0.6870  0.1470 -0.5032
  759MOL0     O 2333   7.134   4.982   5.720 -0.1745 -0.5823  0.1398
  759MOL0     C 2334   7.238   5.026   5.659  0.8927 -0.0116 -0.5517
  759MOL0     C 2335   7.357   5.028   5.727 -0.1873  0.1260 -0.8984
  759MOL0     C 2336   7.472   5.096   5.690  0.2558 -0.2694  0.5710
  759MOL0     C 2337   7.463   5.174   5.574 -0.7976  0.7364 -0.3742
  759MOL0     O 2338   7.577   5.231   5.529  0.3784 -0.4116 -0.2781
  759MOL0     C 2339   7.559   5.348   5.460 -0.3385 -0.6951  0.6644
  759MOL0     C 2340   7.684   5.425   5.439 -0.9021  0.0235 -0.5463
  759MOL0     C 2341   7.736   5.487   5.576  0.4234  0.6030 -0.4976
  759MOL0     C 2342   7.657   5.605   5.617 -0.0150 -1.0598 -0.2018
  759MOL0     C 2343   7.684   5.653   5.759 -0.0419  0.8668  0.2748
  759MOL0     C 2344   7.827   5.699   5.802  0.1645  0.5906 -0.0736
  759MOL0     C 2345   7.899   5.806   5.720  0.4316 -0.6480 -0.0805
  759MOL0     C 2346   8.043   5.792   5.759 -0.0387  0.1612 -0.1626
  759MOL0     N 2347   8.127   5.901   5.712 -0.1004  0.4766 -0.2397
  759MOL0     C 2348   8.106   6.039   5.744  0.4153  0.1248  0.9303
  759MOL0     C 2349   8.211   6.106   5.690  0.7671  0.3261 -0.8570
  759MOL0     C 2350   8.233   6.254   5.691 -0.3219  0.0305  0.2978
  759MOL0     C 2351   8.128   6.345   5.749  0.6711  1.1135  0.1175
  759MOL0     C 2352   8.126   6.490   5.697 -0.1944 -0.7007  0.1967
  759MOL0     C 2353   8.017   6.572   5.766 -0.5284  0.4900 -0.3181
  759MOL0     O 2354   8.012   6.701   5.718  0.6818 -1.2029 -0.0530
  759MOL0     C 2355   7.941   6.723   5.603  0.7592 -0.1815  0.7723
  759MOL0     C 2356   7.957   6.847   5.539 -0.0783  0.5634 -0.3367
  759MOL0     C 2357   7.922   6.883   5.419  0.2413 -0.0833 -0.3000
  759MOL0     C 2358   7.988   7.007   5.364 -0.2536 -0.3167 -0.2251
  759MOL0     C 2359   7.832   6.802   5.348 -0.1009 -0.0560  0.2326
  759MOL0     C 2360   7.777   6.830   5.206 -0.0491 -0.8383 -0.5276
  759MOL0     O 2361   7.704   6.725   5.146 -0.9714  0.4101 -0.0070
  759MOL0     C 2362   7.643   6.725   5.024 -0.4470 -0.2739 -0.4747
  759MOL0     C 2363   7.538   6.640   5.017 -0.3114  0.2676 -0.6338
  759MOL0     C 2364   7.463   6.629   4.898  0.0101  0.2087 -0.2787
  759MOL0     C 2365   7.498   6.702   4.783  0.8398 -0.4494  0.4899
  759MOL0     O 2366   7.439   6.689   4.658 -0.4906 -0.4576  0.2002
  759MOL0     C 2367   7.379   6.567   4.622  1.2684  0.5505  0.1365
  759MOL0     C 2368   7.369   6.570   4.468 -0.7011  0.3394 -0.1869
  759MOL0     C 2369   7.324   6.445   4.397 -0.4201 -0.6229 -0.3961
  759MOL0     C 2370   7.191   6.401   4.454 -0.6173 -0.1929  0.2820
  759MOL0     C 2371   7.144   6.279   4.384  0.1716  0.4632  0.1449
  759MOL0     C 2372   7.021   6.226   4.459 -0.0644  0.1289 -0.4640
  759MOL0     C 2373   6.950   6.109   4.400  0.2429 -0.1538 -0.0841
  759MOL0     C 2374   6.840   6.051   4.495 -0.2825  0.0012  0.3540
  759MOL0    Cl 2375   6.763   5.899   4.445  0.2749 -0.0737 -0.4628
  759MOL0     C 2376   7.594   6.797   4.800 -0.1154  0.1881 -0.3599
  759MOL0     C 2377   7.671   6.798   4.910 -0.6336 -0.4352 -0.8936
  759MOL0     O 2378   7.822   6.928   5.150 -0.5546 -0.0679 -0.1975
  759MOL0     C 2379   7.789   6.677   5.408 -0.5542  0.1487 -0.2237
  759MOL0     C 2380   7.837   6.645   5.537 -0.5446  0.5030  0.1126
  759MOL0     N 2381   8.293   6.013   5.633  0.0687 -0.1078  0.8927
  759MOL0     N 2382   8.250   5.891   5.653  0.5321 -0.6057 -0.2305
  759MOL0     C 2383   7.352   5.175   5.494 -0.2132  0.3200  0.5261
  759MOL0     C 2384   7.239   5.100   5.540  0.3983  0.5695 -0.1591
  759MOL0     C 2385   6.929   4.855   5.702  0.6399  0.0150  0.5025
  759MOL0     C 2386   6.840   4.776   5.626  0.3162 -0.0522  0.5600
  759MOL0     C 2387   6.706   4.760   5.660 -0.4451 -0.0455  0.4706
  759MOL0     C 2388   6.664   4.819   5.780  0.7894  0.4266  0.3426
  759MOL0     O 2389   6.523   4.821   5.825 -0.2221  1.1889 -0.7816
  759MOL0     C 2390   6.440   4.707   5.788 -0.5275  1.1517  0.1717
  759MOL0     C 2391   6.507   4.580   5.849  0.1200  0.1995 -0.0035
  759MOL0     C 2392   6.398   4.484   5.893 -0.2910  1.3461  0.1253
  759MOL0     C 2393   6.292   4.450   5.786 -0.0186 -0.7006 -0.1725
  759MOL0     C 2394   6.159   4.450   5.855 -0.2247 -0.1627 -0.1503
  759MOL0     C 2395   6.043   4.451   5.898  0.2495 -0.9647  0.6255
  759MOL0     C 2396   6.750   4.891   5.859  0.3366 -0.7800 -0.1244
  759MOL0     C 2397   6.885   4.905   5.827  0.4393  0.6173 -0.5620
  759MOL0     H 2398   7.354   4.972   5.820 -2.4477  0.3464 -0.7763
  759MOL0     H 2399   7.566   5.083   5.742  0.6753  0.8328  0.1086
  759MOL0     H 2400   7.534   5.322   5.357  1.1668  1.7088 -0.4128
  759MOL0     H 2401   7.483   5.415   5.502 -0.3451  0.0795 -0.5127
  759MOL0     H 2402   7.764   5.359   5.406 -1.6911 -0.3588 -1.7384
  759MOL0     H 2403   7.666   5.510   5.372 -2.2981  1.8020  1.8974
  759MOL0     H 2404   7.716   5.418   5.658  1.9267 -0.8602 -1.2940
  759MOL0     H 2405   7.844   5.506   5.576  0.8172 -1.2002  1.6380
  759MOL0     H 2406   7.685   5.685   5.547  0.7716 -1.3320 -0.2145
  759MOL0     H 2407   7.550   5.591   5.604 -0.2947  0.6709 -0.0839
  759MOL0     H 2408   7.616   5.737   5.779 -0.7274 -0.2610  3.0810
  759MOL0     H 2409   7.657   5.579   5.835 -2.4743 -0.6684 -1.9066
  759MOL0     H 2410   7.804   5.729   5.905 -2.2376 -2.8253  0.5437
  759MOL0     H 2411   7.885   5.606   5.810 -1.6287 -0.7371 -1.6001
  759MOL0     H 2412   7.900   5.769   5.617  0.3312  0.3565 -0.4609
  759MOL0     H 2413   7.854   5.906   5.728 -0.5325 -0.7905 -2.8240
  759MOL0     H 2414   8.092   5.701   5.726 -0.5190 -0.3727  0.5607
  759MOL0     H 2415   8.050   5.797   5.868 -4.9447 -2.3632  0.5422
  759MOL0     H 2416   8.021   6.077   5.799 -1.1670 -1.4238 -0.3252
  759MOL0     H 2417   8.320   6.275   5.753 -0.8727 -0.1112  1.1436
  759MOL0     H 2418   8.246   6.279   5.586 -0.5591 -1.1388 -0.0318
  759MOL0     H 2419   8.135   6.345   5.858 -2.4652  0.4296  0.4190
  759MOL0     H 2420   8.030   6.302   5.728  2.3909 -1.8806 -2.5897
  759MOL0     H 2421   8.104   6.495   5.590  0.8117  1.9103  0.0187
  759MOL0     H 2422   8.223   6.539   5.715 -0.8074  0.6553 -0.0509
  759MOL0     H 2423   8.031   6.573   5.874  2.8312 -2.7536 -0.5458
  759MOL0     H 2424   7.921   6.524   5.744  0.0543  0.1971 -2.5354
  759MOL0     H 2425   8.022   6.915   5.593 -1.3253  2.8568 -1.5506
  759MOL0     H 2426   8.048   7.048   5.446  1.7523 -3.5733  0.1193
  759MOL0     H 2427   8.051   6.996   5.276 -1.2264 -4.5865 -0.5964
  759MOL0     H 2428   7.914   7.085   5.341 -2.1072 -2.5415 -2.2874
  759MOL0     H 2429   7.508   6.578   5.101 -2.0161  0.8977 -0.7381
  759MOL0     H 2430   7.374   6.567   4.891  0.1238  0.1942 -1.9858
  759MOL0     H 2431   7.444   6.481   4.645  1.1724  0.1721 -0.9717
  759MOL0     H 2432   7.282   6.562   4.672  1.3976  0.5589  0.3921
  759MOL0     H 2433   7.296   6.647   4.445 -1.7635 -0.2599  1.0885
  759MOL0     H 2434   7.455   6.614   4.416 -4.0093  3.8420 -3.2369
  759MOL0     H 2435   7.398   6.366   4.417 -0.4669  0.1266  3.5074
  759MOL0     H 2436   7.310   6.483   4.295 -3.1448  1.6913  0.7318
  759MOL0     H 2437   7.203   6.369   4.558  1.6206  0.1656  0.1730
  759MOL0     H 2438   7.120   6.484   4.459 -0.2580  0.0253  3.2272
  759MOL0     H 2439   7.227   6.208   4.380 -1.5503 -1.6889  0.4971
  759MOL0     H 2440   7.116   6.302   4.281  0.4974 -2.1359 -0.6106
  759MOL0     H 2441   7.038   6.217   4.567  0.2662 -0.4405 -0.5564
  759MOL0     H 2442   6.940   6.298   4.446 -2.5093 -2.5312 -1.1402
  759MOL0     H 2443   7.027   6.045   4.356  0.0998  2.0310 -3.9291
  759MOL0     H 2444   6.889   6.150   4.319  0.1033  3.1635  1.5248
  759MOL0     H 2445   6.767   6.131   4.512 -0.7565  0.3643 -2.7515
  759MOL0     H 2446   6.877   6.032   4.596 -0.8705 -2.2313  0.2038
  759MOL0     H 2447   7.615   6.859   4.713  2.2047  0.8069  0.5564
  759MOL0     H 2448   7.763   6.856   4.901 -1.4494  1.1657  0.4864
  759MOL0     H 2449   7.723   6.600   5.368 -2.1179  0.5387  1.4795
  759MOL0     H 2450   7.804   6.557   5.589 -0.6949  0.4613 -0.0500
  759MOL0     H 2451   7.356   5.210   5.391  1.2513 -2.5419 -0.4978
  759MOL0     H 2452   7.153   5.101   5.474 -0.3986  0.2551  0.8577
  759MOL0     H 2453   6.876   4.737   5.531  1.9890  2.1366  0.2291
  759MOL0     H 2454   6.639   4.701   5.597 -1.6056 -0.3832  1.9515
  759MOL0     H 2455   6.341   4.729   5.828 -0.0469  1.9482  0.9573
  759MOL0     H 2456   6.442   4.699   5.679  2.3454 -1.8398  0.2775
  759MOL0     H 2457   6.569   4.600   5.936  0.1513 -1.3954  0.3648
  759MOL0     H 2458   6.563   4.543   5.762  0.1797 -2.2775  1.0254
  759MOL0     H 2459   6.357   4.533   5.982 -1.7668  2.7415 -1.2630
  759MOL0     H 2460   6.453   4.391   5.912  2.4621  2.4131 -1.9263
  759MOL0     H 2461   6.297   4.348   5.746 -1.9757 -0.2793 -1.7020
  759MOL0     H 2462   6.290   4.521   5.703 -1.4834  1.2617  1.4330
  759MOL0     H 2463   5.938   4.468   5.910  0.6051  3.1527 -0.4357
  759MOL0     H 2464   6.718   4.933   5.954  0.9432 -2.0627  0.6708
  759MOL0     H 2465   6.949   4.968   5.887 -0.4667 -0.1884  1.3348
  760MOL0     O 2466   4.949   2.585   0.675 -0.2045 -0.1804  0.1456
  760MOL0     C 2467   5.070   2.599   0.649 -0.3406  1.3951  0.3584
  760MOL0     O 2468   5.163   2.675   0.717  0.0551  0.6249  0.5806
  760MOL0     C 2469   5.130   2.709   0.835 -0.0555  0.2339  0.1794
  760MOL0     C 2470   5.039   2.817   0.859 -0.3468 -0.8503  0.5082
  760MOL0     C 2471   5.019   2.860   0.992 -0.0599  0.8435 -0.2528
  760MOL0     C 2472   5.068   2.776   1.095 -0.1711 -0.1240  0.0504
  760MOL0     O 2473   5.031   2.776   1.231 -0.1412 -0.6837 -0.0078
  760MOL0     C 2474   4.897   2.818   1.260  0.6990  0.3825 -0.0248
  760MOL0     C 2475   4.797   2.707   1.215  0.4351 -0.4279  0.0818
  760MOL0     C 2476   4.653   2.752   1.232  0.2298 -0.2147  0.2384
  760MOL0     C 2477   4.536   2.654   1.207 -0.1565 -0.1466 -0.6007
  760MOL0     C 2478   4.412   2.708   1.276 -0.2216  0.7326  0.0499
  760MOL0     C 2479   4.283   2.620   1.274  0.4308 -0.6416 -0.0905
  760MOL0     C 2480   4.228   2.598   1.131  0.2558  0.8042  0.2345
  760MOL0     C 2481   4.091   2.513   1.140  0.6061 -0.3044  0.6815
  760MOL0     N 2482   4.046   2.493   0.999  0.1498 -0.0760  1.2322
  760MOL0     C 2483   4.056   2.585   0.899 -0.1601 -0.1759  0.3103
  760MOL0     C 2484   3.982   2.527   0.795 -0.0500  0.2999  0.4284
  760MOL0     C 2485   3.947   2.578   0.660  0.1366  0.8057 -0.3405
  760MOL0     C 2486   3.796   2.601   0.642 -0.4811  0.7984  0.8132
  760MOL0     C 2487   3.758   2.729   0.580  0.6756 -0.0802 -0.6091
  760MOL0     C 2488   3.757   2.833   0.687 -0.2511 -0.5475 -0.1232
  760MOL0     O 2489   3.659   2.809   0.782 -0.2810 -0.3288  0.6882
  760MOL0     C 2490   3.535   2.870   0.761 -0.2600 -0.4175 -1.0892
  760MOL0     C 2491   3.521   2.997   0.817  0.2774  1.1828  0.1466
  760MOL0     C 2492   3.397   3.066   0.805  0.6667  0.8737  0.0862
  760MOL0     C 2493   3.383   3.199   0.869 -0.2958 -0.0873  1.0207
  760MOL0     C 2494   3.293   3.001   0.741  1.3546  0.0409 -0.3915
  760MOL0     C 2495   3.155   3.049   0.724 -0.5292  1.2002 -0.0524
  760MOL0     O 2496   3.060   2.962   0.691 -0.3469  0.5884 -0.6035
  760MOL0     C 2497   2.933   3.015   0.674  0.0945 -0.1523 -0.2860
  760MOL0     C 2498   2.875   3.122   0.744 -0.4172 -0.6095 -0.5240
  760MOL0     C 2499   2.759   3.177   0.714  0.2478 -0.8505  0.5497
  760MOL0     C 2500   2.677   3.115   0.619  0.0441  1.8438  0.8090
  760MOL0     O 2501   2.557   3.155   0.571  0.3786 -0.5789  0.1973
  760MOL0     C 2502   2.474   3.251   0.643  0.2478 -0.0644  0.2817
  760MOL0     C 2503   2.352   3.251   0.559 -0.3953  0.1547  0.1987
  760MOL0     C 2504   2.257   3.366   0.595 -1.0560 -0.5619 -0.8564
  760MOL0     C 2505   2.125   3.380   0.514  0.4015 -0.7455  0.0705
  760MOL0     C 2506   2.037   3.495   0.560  0.7389 -0.3990 -0.1265
  760MOL0     C 2507   1.895   3.472   0.503  0.2617 -0.7957  0.3855
  760MOL0     C 2508   1.806   3.600   0.514  0.0450  0.0527 -0.7503
  760MOL0     C 2509   1.670   3.589   0.434 -0.6966  0.9429 -0.1910
  760MOL0    Cl 2510   1.606   3.746   0.420  0.4757  0.3728  0.7463
  760MOL0     C 2511   2.725   3.001   0.554 -0.2679 -0.0219 -0.4004
  760MOL0     C 2512   2.853   2.956   0.580  0.3037  0.2609  0.0101
  760MOL0     O 2513   3.146   3.171   0.707 -0.1157  0.1385 -0.4202
  760MOL0     C 2514   3.316   2.880   0.692 -0.3074  0.3143  0.0009
  760MOL0     C 2515   3.429   2.806   0.696  0.8859  0.2191  0.0575
  760MOL0     N 2516   3.947   2.398   0.831  0.5429  0.3692  0.4712
  760MOL0     N 2517   3.982   2.378   0.959  0.1701 -0.7351 -0.6002
  760MOL0     C 2518   5.147   2.670   1.067  0.1438  0.1827  0.9787
  760MOL0     C 2519   5.187   2.640   0.936 -0.1722  0.2654  0.8551
  760MOL0     C 2520   5.127   2.530   0.538 -0.2973  0.1644  0.1186
  760MOL0     C 2521   5.051   2.434   0.463 -0.1056 -0.0693 -0.4010
  760MOL0     C 2522   5.097   2.383   0.347  0.2080 -0.2885  0.8922
  760MOL0     C 2523   5.226   2.423   0.292  1.1184  0.4442 -0.2301
  760MOL0     O 2524   5.280   2.382   0.178 -0.3611 -0.1590  0.4299
  760MOL0     C 2525   5.193   2.303   0.098 -0.4514  0.5257  0.1056
  760MOL0     C 2526   5.264   2.270  -0.038  0.4015 -0.2973 -1.8370
  760MOL0     C 2527   5.262   2.403  -0.117 -0.2135  1.0520  0.3367
  760MOL0     C 2528   5.122   2.445  -0.170 -0.8323  0.5048 -0.5748
  760MOL0     C 2529   5.037   2.341  -0.225 -0.5454  0.5293 -0.9039
  760MOL0     C 2530   4.964   2.260  -0.283  0.1865 -0.8679 -1.0596
  760MOL0     C 2531   5.302   2.515   0.363 -0.1431  0.6646  0.3896
  760MOL0     C 2532   5.246   2.571   0.482 -0.0709 -0.2195  0.4518
  760MOL0     H 2533   4.992   2.872   0.778 -0.4823 -0.1197  1.0667
  760MOL0     H 2534   4.953   2.943   1.018 -1.4293 -0.1773 -0.3920
  760MOL0     H 2535   4.887   2.842   1.367 -1.5150 -0.8806  0.1139
  760MOL0     H 2536   4.870   2.909   1.206 -1.8155 -1.6067 -2.3412
  760MOL0     H 2537   4.803   2.683   1.108 -0.0415 -1.2658  0.2317
  760MOL0     H 2538   4.802   2.617   1.277 -1.3284 -0.5424  0.1177
  760MOL0     H 2539   4.655   2.785   1.336 -3.1273 -1.2656  0.7520
  760MOL0     H 2540   4.640   2.841   1.169  2.0794 -1.8480 -2.7029
  760MOL0     H 2541   4.523   2.637   1.100  2.2477  1.7915 -1.3263
  760MOL0     H 2542   4.562   2.562   1.261 -0.1666  3.4286  6.7581
  760MOL0     H 2543   4.437   2.733   1.379 -1.5796  0.1526  0.5490
  760MOL0     H 2544   4.387   2.803   1.227  0.4649  1.6488  1.4122
  760MOL0     H 2545   4.304   2.518   1.309 -4.1761 -1.2727  1.5615
  760MOL0     H 2546   4.210   2.669   1.340  0.2355 -1.3670  0.2526
  760MOL0     H 2547   4.197   2.696   1.093 -0.3464 -0.4626 -2.7965
  760MOL0     H 2548   4.307   2.555   1.069  0.7318  1.3766  0.4362
  760MOL0     H 2549   4.013   2.557   1.203  1.8610  1.7954  0.8670
  760MOL0     H 2550   4.102   2.413   1.181 -1.7505 -1.1773 -0.5799
  760MOL0     H 2551   4.107   2.680   0.890  2.4836 -1.5525 -0.1489
  760MOL0     H 2552   3.990   2.678   0.648 -0.3274  1.2079  1.1030
  760MOL0     H 2553   3.978   2.515   0.576 -2.2748 -0.2386 -0.5228
  760MOL0     H 2554   3.753   2.591   0.742 -2.1791  1.6450  0.1974
  760MOL0     H 2555   3.750   2.527   0.576 -0.9349  4.2898 -3.2063
  760MOL0     H 2556   3.655   2.708   0.551  1.4902 -1.9747 -2.4488
  760MOL0     H 2557   3.812   2.764   0.491 -1.7383 -1.6049 -2.8105
  760MOL0     H 2558   3.752   2.928   0.632  2.4475 -1.4756 -2.1866
  760MOL0     H 2559   3.850   2.839   0.745 -1.4899 -1.9788  2.1413
  760MOL0     H 2560   3.606   3.049   0.860  0.9347  0.0378  0.2557
  760MOL0     H 2561   3.306   3.190   0.946  0.2806  0.4261  1.6796
  760MOL0     H 2562   3.466   3.247   0.923  1.1749 -1.8195  0.4056
  760MOL0     H 2563   3.352   3.274   0.795 -3.3213 -2.5106 -0.3608
  760MOL0     H 2564   2.947   3.156   0.818  1.4981 -2.2794 -1.5132
  760MOL0     H 2565   2.723   3.268   0.761  1.6326  1.6736 -2.8163
  760MOL0     H 2566   2.447   3.214   0.742 -1.8347  1.5077  0.3664
  760MOL0     H 2567   2.525   3.348   0.650 -2.5248  1.4534  0.9245
  760MOL0     H 2568   2.382   3.259   0.454  2.0720 -0.3487  0.8043
  760MOL0     H 2569   2.305   3.153   0.567  0.2894 -0.4232 -2.0496
  760MOL0     H 2570   2.314   3.458   0.578  0.0362 -1.1086 -0.2550
  760MOL0     H 2571   2.225   3.369   0.699 -3.2217  2.6578 -1.4677
  760MOL0     H 2572   2.152   3.392   0.408 -1.1162  0.3151 -0.2312
  760MOL0     H 2573   2.063   3.291   0.523  1.4330 -1.7708 -2.1622
  760MOL0     H 2574   2.083   3.593   0.547  1.2537 -0.3880  1.4766
  760MOL0     H 2575   2.020   3.475   0.667 -0.6574  0.8270 -0.0974
  760MOL0     H 2576   1.910   3.470   0.395  1.1626  2.4911  0.3445
  760MOL0     H 2577   1.864   3.382   0.558  2.4830 -1.4969  0.5794
  760MOL0     H 2578   1.856   3.688   0.474  3.2792 -0.5996  1.4805
  760MOL0     H 2579   1.787   3.616   0.620 -2.2871  0.1546 -1.1234
  760MOL0     H 2580   1.582   3.541   0.479  1.0355 -1.2774  1.0399
  760MOL0     H 2581   1.692   3.541   0.339 -2.5107 -1.8472  0.7008
  760MOL0     H 2582   2.671   2.942   0.481  0.0579 -0.5610 -0.2151
  760MOL0     H 2583   2.897   2.879   0.518 -0.8523 -0.2668 -0.1719
  760MOL0     H 2584   3.234   2.828   0.643 -0.0131  0.4930 -0.6991
  760MOL0     H 2585   3.461   2.713   0.650  3.1701  1.2205 -0.5309
  760MOL0     H 2586   5.196   2.622   1.151  1.0066  3.4096  2.4696
  760MOL0     H 2587   5.262   2.573   0.895  1.6660  3.8821 -2.3639
  760MOL0     H 2588   4.957   2.397   0.502  0.8564 -3.5198 -1.0182
  760MOL0     H 2589   5.039   2.295   0.321 -1.2571  0.3862  1.7537
  760MOL0     H 2590   5.160   2.206   0.135  0.1620 -0.1880 -1.1571
  760MOL0     H 2591   5.105   2.367   0.084  0.7371  1.6914 -2.9507
  760MOL0     H 2592   5.208   2.189  -0.087  0.8797 -2.3965  0.8365
  760MOL0     H 2593   5.366   2.239  -0.015  0.1494  0.8928  1.4325
  760MOL0     H 2594   5.336   2.392  -0.197  0.6078  1.5395  1.0033
  760MOL0     H 2595   5.304   2.485  -0.058  1.0684  1.1930 -0.7095
  760MOL0     H 2596   5.147   2.522  -0.245 -0.8708 -1.7338 -3.0211
  760MOL0     H 2597   5.069   2.488  -0.084  1.4900  1.2252  0.5687
  760MOL0     H 2598   4.908   2.176  -0.318  0.7004 -1.8226  0.3084
  760MOL0     H 2599   5.397   2.545   0.320  0.9420  1.0959  2.9079
  760MOL0     H 2600   5.312   2.648   0.519  0.3326  1.2435 -2.9252
  761MOL0     O 2601   3.173   9.108   1.391 -0.2143  0.0230  0.0731
  761MOL0     C 2602   3.264   9.179   1.341 -1.2402  0.7650 -0.3805
  761MOL0     O 2603   3.311   9.298   1.389 -0.1235  0.6461 -0.2313
  761MOL0     C 2604   3.245   9.345   1.496  0.6063 -0.4942 -0.1774
  761MOL0     C 2605   3.308   9.353   1.621  0.3249  0.7967  0.3539
  761MOL0     C 2606   3.246   9.416   1.728  0.1383  0.4293  0.0024
  761MOL0     C 2607   3.112   9.467   1.713 -0.6093 -1.0518 -0.1064
  761MOL0     O 2608   3.058   9.521   1.823  0.5314  0.3477 -0.5563
  761MOL0     C 2609   2.994   9.425   1.907  0.0400  0.1611 -0.5244
  761MOL0     C 2610   2.869   9.488   1.956  0.1097 -0.3824  0.1095
  761MOL0     C 2611   2.792   9.414   2.064 -0.0495 -0.1882 -0.0213
  761MOL0     C 2612   2.783   9.263   2.056 -0.6650 -0.4191  0.4583
  761MOL0     C 2613   2.706   9.211   1.938  0.1007  0.4705 -0.0709
  761MOL0     C 2614   2.565   9.251   1.960  0.2291 -0.3986 -0.0051
  761MOL0     C 2615   2.475   9.171   1.867 -0.2081  0.1202  0.0905
  761MOL0     C 2616   2.407   9.044   1.925 -0.1343 -0.3050  1.1290
  761MOL0     N 2617   2.298   9.006   1.833  1.4878 -0.0304  0.2400
  761MOL0     C 2618   2.309   8.947   1.709  0.2336 -0.2370  0.9865
  761MOL0     C 2619   2.177   8.949   1.661  0.2210  0.1867  0.4220
  761MOL0     C 2620   2.155   8.933   1.513  0.1497 -0.1276 -0.7432
  761MOL0     C 2621   2.065   9.041   1.452  1.1487 -0.4326 -0.0953
  761MOL0     C 2622   2.127   9.182   1.446  0.0202 -0.2541 -0.4795
  761MOL0     C 2623   2.031   9.297   1.399 -0.4725  0.5843 -0.4201
  761MOL0     O 2624   2.068   9.422   1.450  0.0430  0.3515  1.3482
  761MOL0     C 2625   2.175   9.473   1.381  0.6952 -0.6789 -0.8059
  761MOL0     C 2626   2.205   9.458   1.248  0.2554  0.4100 -2.0821
  761MOL0     C 2627   2.311   9.527   1.186 -0.3965 -0.1170  0.8364
  761MOL0     C 2628   2.338   9.494   1.041 -0.1139  0.2737  0.7224
  761MOL0     C 2629   2.393   9.615   1.265 -0.3874 -0.9273  0.1559
  761MOL0     C 2630   2.493   9.700   1.207  0.1479  0.1533  1.1874
  761MOL0     O 2631   2.491   9.836   1.248  0.1047 -0.7576  0.4186
  761MOL0     C 2632   2.559   9.934   1.182 -0.6134  0.0389  0.2257
  761MOL0     C 2633   2.622  10.039   1.254  0.7154 -0.2084  0.0100
  761MOL0     C 2634   2.705  10.140   1.195  0.1278  0.7367 -0.4474
  761MOL0     C 2635   2.730  10.128   1.052 -0.2755  0.2936  0.3380
  761MOL0     O 2636   2.825  10.209   0.987 -0.4293  0.2532  0.0577
  761MOL0     C 2637   2.844  10.346   1.032  0.5693  0.3837 -0.5576
  761MOL0     C 2638   2.920  10.432   0.928 -0.0245  0.3665  0.5902
  761MOL0     C 2639   3.070  10.421   0.965  0.3751  0.5722 -0.0490
  761MOL0     C 2640   3.144  10.523   0.879  0.2222 -0.2795  0.4808
  761MOL0     C 2641   3.302  10.527   0.915  1.1013 -0.4588 -0.1940
  761MOL0     C 2642   3.371  10.639   0.830 -0.2871  1.3884 -0.4643
  761MOL0     C 2643   3.527  10.640   0.853  0.3043  0.6602  0.2337
  761MOL0     C 2644   3.589  10.729   0.743  0.1783  0.8566  0.4113
  761MOL0    Cl 2645   3.766  10.716   0.779  0.6113 -0.4012 -0.5657
  761MOL0     C 2646   2.672  10.030   0.973  0.3004  0.1301 -0.7761
  761MOL0     C 2647   2.578   9.941   1.037 -0.2058  0.0873 -0.4589
  761MOL0     O 2648   2.577   9.658   1.122 -0.1361 -0.0205  0.3136
  761MOL0     C 2649   2.361   9.632   1.398  0.6292  0.0607 -0.4290
  761MOL0     C 2650   2.261   9.560   1.455 -0.0510 -0.6193  0.0440
  761MOL0     N 2651   2.090   8.998   1.750  0.1750 -0.1653 -0.1582
  761MOL0     N 2652   2.165   9.039   1.851 -0.1050  0.4608 -0.1338
  761MOL0     C 2653   3.039   9.447   1.593  0.3619  0.2194  0.0531
  761MOL0     C 2654   3.112   9.395   1.485  0.1093 -0.0523  0.0653
  761MOL0     C 2655   3.333   9.121   1.225 -0.2051 -0.4308 -1.4416
  761MOL0     C 2656   3.366   9.206   1.116  0.4883 -0.7875  0.0223
  761MOL0     C 2657   3.441   9.151   1.011 -0.4175  0.5585  0.1147
  761MOL0     C 2658   3.492   9.019   1.016  0.5403  0.5196 -0.2242
  761MOL0     O 2659   3.555   8.969   0.908 -0.3661  0.6296  0.3726
  761MOL0     C 2660   3.613   9.050   0.810 -1.1016 -0.6101  0.4533
  761MOL0     C 2661   3.740   9.121   0.862  0.9793  0.6796  0.1249
  761MOL0     C 2662   3.849   9.029   0.924 -0.1149  0.0599  0.1126
  761MOL0     C 2663   3.987   9.107   0.946  0.0031  0.1056 -0.9511
  761MOL0     C 2664   3.971   9.198   1.060  0.5817  0.5838 -0.4718
  761MOL0     C 2665   3.971   9.278   1.157 -0.3993  0.9292 -0.6308
  761MOL0     C 2666   3.457   8.940   1.124  1.2917  0.8191  0.0644
  761MOL0     C 2667   3.381   8.993   1.234  0.1330 -0.1404  0.2713
  761MOL0     H 2668   3.407   9.313   1.634 -0.3545 -1.1048 -0.0019
  761MOL0     H 2669   3.295   9.435   1.823 -0.3283  3.2604 -0.2452
  761MOL0     H 2670   2.984   9.330   1.853 -2.6319  0.5649 -0.8711
  761MOL0     H 2671   3.061   9.410   1.993 -2.4856 -2.0315  1.2182
  761MOL0     H 2672   2.891   9.588   1.996  0.2923  0.3315 -1.6894
  761MOL0     H 2673   2.809   9.503   1.866 -0.4584  0.5357  0.6229
  761MOL0     H 2674   2.828   9.457   2.157 -4.3661  2.1080  0.8731
  761MOL0     H 2675   2.691   9.453   2.046  0.2790  1.0316  0.6940
  761MOL0     H 2676   2.888   9.230   2.060  0.1549  1.4664 -2.2650
  761MOL0     H 2677   2.731   9.225   2.144 -0.9112 -3.4692 -0.8855
  761MOL0     H 2678   2.751   9.261   1.852 -0.3162  0.5612 -0.2382
  761MOL0     H 2679   2.726   9.103   1.935  1.1025  0.4322  3.3080
  761MOL0     H 2680   2.523   9.235   2.059  0.5172 -0.1134  0.1668
  761MOL0     H 2681   2.562   9.357   1.933 -0.0537 -0.5546 -0.6124
  761MOL0     H 2682   2.387   9.233   1.848 -0.1756  0.1740  0.1146
  761MOL0     H 2683   2.523   9.145   1.772  5.6746  0.5744  2.4785
  761MOL0     H 2684   2.377   9.055   2.029 -0.5582  2.6618  0.7652
  761MOL0     H 2685   2.485   8.967   1.921 -0.6677 -0.8381 -1.9552
  761MOL0     H 2686   2.396   8.894   1.671 -1.6594 -3.2585  0.4932
  761MOL0     H 2687   2.250   8.921   1.460 -1.1383 -1.4378 -2.8727
  761MOL0     H 2688   2.112   8.833   1.502  1.8497 -0.7786 -1.8229
  761MOL0     H 2689   1.971   9.054   1.507 -0.3288  6.5348 -3.1160
  761MOL0     H 2690   2.043   8.998   1.353  0.9534  0.0906 -0.2843
  761MOL0     H 2691   2.205   9.172   1.369 -1.2279 -3.1311 -1.5171
  761MOL0     H 2692   2.172   9.216   1.539 -1.0841  0.8182 -0.3066
  761MOL0     H 2693   1.930   9.271   1.433 -1.7597 -1.3587 -4.9100
  761MOL0     H 2694   2.028   9.285   1.290  0.9749  0.6294 -0.4830
  761MOL0     H 2695   2.145   9.403   1.176  1.1962 -0.6217 -2.1105
  761MOL0     H 2696   2.436   9.447   1.039 -1.1290 -1.9690 -0.0616
  761MOL0     H 2697   2.254   9.440   0.995 -0.0902  1.7058 -1.1380
  761MOL0     H 2698   2.339   9.586   0.982  1.3881  0.3262  0.7957
  761MOL0     H 2699   2.596  10.056   1.358 -0.2644  2.5098 -0.5919
  761MOL0     H 2700   2.772  10.208   1.246  1.0986  1.5116 -2.6193
  761MOL0     H 2701   2.752  10.391   1.069  2.0543 -0.4593  4.9705
  761MOL0     H 2702   2.902  10.333   1.124 -0.8236 -2.9990 -0.0065
  761MOL0     H 2703   2.894  10.397   0.828 -0.6752 -1.9225  1.4808
  761MOL0     H 2704   2.881  10.534   0.935  1.5516  1.1124 -0.7773
  761MOL0     H 2705   3.095  10.318   0.940 -0.5409  0.0667  1.0279
  761MOL0     H 2706   3.080  10.443   1.072 -0.9853 -0.6825  0.3712
  761MOL0     H 2707   3.130  10.490   0.776  4.0666 -0.3414 -0.1572
  761MOL0     H 2708   3.100  10.623   0.890 -0.1101 -0.2828 -0.6849
  761MOL0     H 2709   3.359  10.434   0.901  0.7817 -1.0915  2.2551
  761MOL0     H 2710   3.316  10.543   1.023  2.6378 -3.2963  0.1391
  761MOL0     H 2711   3.339  10.608   0.731 -1.4596  0.2745  0.2309
  761MOL0     H 2712   3.327  10.736   0.856  0.9642  1.5798  1.0690
  761MOL0     H 2713   3.570  10.542   0.830 -0.0429  0.6150 -0.2384
  761MOL0     H 2714   3.559  10.660   0.955  1.2320 -3.6712  0.9900
  761MOL0     H 2715   3.554  10.833   0.745  1.4903  1.4370 -2.7158
  761MOL0     H 2716   3.558  10.687   0.648  1.7719 -2.4132  1.2149
  761MOL0     H 2717   2.684  10.005   0.868 -0.9793 -1.1448 -0.6534
  761MOL0     H 2718   2.548   9.854   0.981  0.2326 -0.8942  0.7769
  761MOL0     H 2719   2.414   9.706   1.458  2.0052 -1.1742 -0.0781
  761MOL0     H 2720   2.239   9.570   1.561 -3.4033  2.4661 -0.7537
  761MOL0     H 2721   2.934   9.468   1.580  0.2669 -1.1856 -1.6751
  761MOL0     H 2722   3.054   9.387   1.394  3.1047  1.1878 -2.1208
  761MOL0     H 2723   3.333   9.308   1.102  1.2575 -0.5685 -0.2196
  761MOL0     H 2724   3.462   9.208   0.921 -3.0130  0.0676 -0.8900
  761MOL0     H 2725   3.653   8.983   0.734  1.0018  1.2056 -0.1634
  761MOL0     H 2726   3.547   9.121   0.759 -0.5891 -0.3179  0.1832
  761MOL0     H 2727   3.705   9.199   0.929 -0.2233  1.1066 -0.9628
  761MOL0     H 2728   3.787   9.168   0.775  3.3242 -3.3158 -1.0508
  761MOL0     H 2729   3.870   8.941   0.862 -2.1599  0.0079 -0.5785
  761MOL0     H 2730   3.816   8.997   1.023 -1.7391  1.9137  0.2247
  761MOL0     H 2731   4.020   9.156   0.854 -1.0734  3.4412  0.2880
  761MOL0     H 2732   4.074   9.045   0.969  1.2998  0.3246 -4.6181
  761MOL0     H 2733   3.974   9.335   1.248 -2.3735 -0.7817  0.6198
  761MOL0     H 2734   3.485   8.836   1.132 -1.6118 -0.0386  0.0301
  761MOL0     H 2735   3.355   8.941   1.325 -5.4282  2.0027  0.2530
  762MOL0     O 2736   8.480   1.243   7.543  0.4232 -0.2622  0.1167
  762MOL0     C 2737   8.506   1.233   7.660  0.1243  0.4638 -0.1297
  762MOL0     O 2738   8.624   1.249   7.721  0.7116  0.0213  0.1275
  762MOL0     C 2739   8.733   1.278   7.640 -0.2124 -0.4050  1.0670
  762MOL0     C 2740   8.777   1.182   7.550  0.3886 -0.4561  0.2546
  762MOL0     C 2741   8.881   1.217   7.458  0.1333 -0.5211 -0.1651
  762MOL0     C 2742   8.938   1.352   7.458 -0.7967  0.8754 -0.8062
  762MOL0     O 2743   9.034   1.396   7.382  0.1789  0.5918  0.5658
  762MOL0     C 2744   9.138   1.305   7.332  1.2941  0.4623  0.9175
  762MOL0     C 2745   9.243   1.361   7.240  0.2438 -0.4132 -0.1726
  762MOL0     C 2746   9.367   1.266   7.226  0.0579 -0.4497 -1.1948
  762MOL0     C 2747   9.431   1.268   7.079  0.2201 -0.0568  0.2077
  762MOL0     C 2748   9.457   1.412   7.037  0.4392  0.4372  1.1324
  762MOL0     C 2749   9.560   1.418   6.919 -0.2641 -0.6767 -0.4788
  762MOL0     C 2750   9.512   1.372   6.786 -0.0455 -0.2889  1.1211
  762MOL0     C 2751   9.466   1.489   6.698  1.1899 -0.0482 -0.0427
  762MOL0     N 2752   9.378   1.448   6.584 -0.5018 -0.2024  0.6620
  762MOL0     C 2753   9.440   1.394   6.471 -0.5614 -0.6418 -0.0445
  762MOL0     C 2754   9.342   1.385   6.382 -0.6376 -0.1360  0.5383
  762MOL0     C 2755   9.352   1.335   6.237 -0.2104  0.6675  0.1344
  762MOL0     C 2756   9.487   1.389   6.180  0.2055 -0.0220 -0.1648
  762MOL0     C 2757   9.494   1.384   6.026  0.2237  0.4235 -0.6544
  762MOL0     C 2758   9.615   1.439   5.959  0.0557 -0.2258  0.6509
  762MOL0     O 2759   9.595   1.410   5.822 -0.2871 -1.2999 -0.4708
  762MOL0     C 2760   9.672   1.483   5.732  1.3772 -0.4852  0.3968
  762MOL0     C 2761   9.767   1.583   5.765  0.1122 -0.4549  0.2561
  762MOL0     C 2762   9.813   1.669   5.658  0.1655  1.0322 -0.7540
  762MOL0     C 2763   9.899   1.786   5.709 -0.4715  0.3970  0.3432
  762MOL0     C 2764   9.788   1.637   5.525 -0.1831 -0.2375 -0.8597
  762MOL0     C 2765   9.863   1.697   5.416 -0.2212 -0.1236  0.9371
  762MOL0     O 2766   9.935   1.816   5.436 -0.1450 -0.5840 -0.1163
  762MOL0     C 2767  10.016   1.844   5.330 -0.4828 -0.2527  0.6576
  762MOL0     C 2768   9.978   1.896   5.202  0.1232  0.3817 -0.9356
  762MOL0     C 2769  10.077   1.914   5.094 -0.4563 -0.5198  0.5877
  762MOL0     C 2770  10.220   1.894   5.126 -0.3604  0.5828  0.5926
  762MOL0     O 2771  10.321   1.915   5.032 -0.4458 -0.3778  0.0503
  762MOL0     C 2772  10.303   2.027   4.952 -0.2192  0.5325  0.1785
  762MOL0     C 2773  10.426   2.047   4.870 -0.4666 -0.8104 -0.3023
  762MOL0     C 2774  10.430   2.181   4.792  0.5382 -0.0898  0.2992
  762MOL0     C 2775  10.429   2.292   4.895  0.2994  0.1558 -0.4682
  762MOL0     C 2776  10.474   2.426   4.850 -0.2525  0.2533  0.2981
  762MOL0     C 2777  10.618   2.447   4.794  0.6996 -0.0406  0.1086
  762MOL0     C 2778  10.650   2.595   4.769  0.5415  0.3854 -0.3018
  762MOL0     C 2779  10.801   2.628   4.749  0.5248  0.5840  0.1320
  762MOL0    Cl 2780  10.889   2.508   4.638 -0.1228 -0.1608  0.2253
  762MOL0     C 2781  10.251   1.845   5.257 -0.1133  0.3635  0.2960
  762MOL0     C 2782  10.155   1.824   5.355 -0.1657  0.4329  0.6790
  762MOL0     O 2783   9.867   1.628   5.316  0.5671  0.2946  0.3418
  762MOL0     C 2784   9.690   1.540   5.496  1.0016 -0.3853 -0.4774
  762MOL0     C 2785   9.633   1.464   5.600  0.5186 -0.1356 -0.1067
  762MOL0     N 2786   9.220   1.429   6.437 -0.3005  1.0756  0.5719
  762MOL0     N 2787   9.247   1.467   6.560 -0.3268 -0.4303  0.0008
  762MOL0     C 2788   8.908   1.440   7.559 -0.9817 -0.2892 -0.2287
  762MOL0     C 2789   8.800   1.404   7.644 -0.1764 -0.2859 -0.7891
  762MOL0     C 2790   8.385   1.181   7.736  0.0663  0.8187 -0.0508
  762MOL0     C 2791   8.253   1.191   7.699  0.2618 -0.1447 -0.1662
  762MOL0     C 2792   8.146   1.140   7.777  0.4458  0.8404 -0.4945
  762MOL0     C 2793   8.167   1.079   7.900  0.4954  0.1206 -0.5352
  762MOL0     O 2794   8.073   1.014   7.977 -0.1228 -0.2631 -0.2642
  762MOL0     C 2795   8.056   0.879   7.945 -0.4446  0.2611 -0.9460
  762MOL0     C 2796   7.908   0.841   7.940  0.1896  0.4238 -0.3182
  762MOL0     C 2797   7.881   0.687   7.920 -0.2608  0.2084  0.3484
  762MOL0     C 2798   7.739   0.636   7.935 -0.1495  0.6949  0.3598
  762MOL0     C 2799   7.678   0.652   7.809  0.2691  0.1022  0.4531
  762MOL0     C 2800   7.617   0.675   7.705  0.2429  0.0868 -0.3088
  762MOL0     C 2801   8.302   1.073   7.944  0.8272 -0.4835  0.1258
  762MOL0     C 2802   8.406   1.111   7.855  0.3379 -0.4456 -0.5729
  762MOL0     H 2803   8.733   1.083   7.544  2.7931 -1.6534  1.1558
  762MOL0     H 2804   8.906   1.150   7.376 -1.6124  0.7417 -1.8276
  762MOL0     H 2805   9.188   1.256   7.416  3.4983 -1.4046 -1.3200
  762MOL0     H 2806   9.095   1.215   7.287 -0.9514  2.2265 -0.6991
  762MOL0     H 2807   9.195   1.379   7.143  3.4550  0.5669 -1.7256
  762MOL0     H 2808   9.271   1.455   7.287 -0.7455  0.5884 -1.5126
  762MOL0     H 2809   9.431   1.309   7.304 -4.3896 -0.2255  2.8082
  762MOL0     H 2810   9.335   1.164   7.245  0.0437 -0.2501 -0.0429
  762MOL0     H 2811   9.527   1.217   7.089  0.7444  0.9855  0.7437
  762MOL0     H 2812   9.365   1.218   7.008  1.0112 -0.2692 -0.3785
  762MOL0     H 2813   9.367   1.469   7.009  0.3684  1.2819  2.9253
  762MOL0     H 2814   9.492   1.466   7.126 -4.6320  0.6327  3.4073
  762MOL0     H 2815   9.596   1.520   6.907  1.0735 -0.6259  2.7391
  762MOL0     H 2816   9.654   1.371   6.951  1.0076  0.9004 -1.7595
  762MOL0     H 2817   9.603   1.330   6.742  0.3058  0.0446  1.5055
  762MOL0     H 2818   9.443   1.288   6.790 -0.3530 -0.1250 -0.3352
  762MOL0     H 2819   9.557   1.541   6.667  2.9011 -3.6211 -1.5980
  762MOL0     H 2820   9.415   1.570   6.750  1.2273  1.8802 -2.8061
  762MOL0     H 2821   9.546   1.373   6.459 -0.4101 -0.4089  0.8253
  762MOL0     H 2822   9.348   1.226   6.242 -0.7459  0.5943 -1.5948
  762MOL0     H 2823   9.264   1.370   6.183 -1.3653 -0.2411  1.3455
  762MOL0     H 2824   9.569   1.331   6.222  0.5387  1.7855  1.8680
  762MOL0     H 2825   9.497   1.492   6.215 -4.3568  1.3261 -2.0124
  762MOL0     H 2826   9.421   1.454   5.985 -1.9754 -0.8436  0.8623
  762MOL0     H 2827   9.481   1.279   5.997  0.7701 -1.0687  3.6592
  762MOL0     H 2828   9.702   1.381   5.993 -0.2486 -0.9713  0.1768
  762MOL0     H 2829   9.621   1.546   5.983 -2.4337 -0.1994  1.4590
  762MOL0     H 2830   9.799   1.604   5.867 -1.3987  0.1822  0.6319
  762MOL0     H 2831   9.848   1.881   5.693 -1.8191 -0.6595 -2.2948
  762MOL0     H 2832   9.920   1.772   5.815 -0.4792  0.9940  0.4273
  762MOL0     H 2833   9.999   1.789   5.664 -0.7363  0.2764 -0.2668
  762MOL0     H 2834   9.875   1.929   5.207  0.5210  1.5390 -0.0658
  762MOL0     H 2835  10.037   1.949   5.000  1.0904  2.0454  0.7936
  762MOL0     H 2836  10.215   2.024   4.887  1.0552 -3.4355 -1.6723
  762MOL0     H 2837  10.290   2.114   5.017  0.7011  0.6171  0.2567
  762MOL0     H 2838  10.511   2.042   4.939  0.2607 -0.1745 -1.1269
  762MOL0     H 2839  10.440   1.965   4.799  2.5608  1.0616 -2.1050
  762MOL0     H 2840  10.344   2.194   4.725  1.7137 -1.1294 -1.4920
  762MOL0     H 2841  10.511   2.193   4.721 -0.8802  0.1534 -1.3376
  762MOL0     H 2842  10.327   2.301   4.933  1.1392 -2.5105  2.9646
  762MOL0     H 2843  10.494   2.258   4.976  1.0888 -0.0067 -1.1513
  762MOL0     H 2844  10.471   2.488   4.940 -2.6464  0.2706  0.2691
  762MOL0     H 2845  10.415   2.467   4.768 -2.1532 -0.8941  1.0106
  762MOL0     H 2846  10.684   2.403   4.869  1.2651 -2.7442 -1.8158
  762MOL0     H 2847  10.620   2.392   4.700 -0.0814 -0.3005  0.2344
  762MOL0     H 2848  10.620   2.654   4.856 -2.0392 -0.9533 -0.1515
  762MOL0     H 2849  10.598   2.640   4.684  1.0733  2.1432  0.2597
  762MOL0     H 2850  10.858   2.634   4.842  1.1979  0.0182 -0.2427
  762MOL0     H 2851  10.794   2.725   4.698 -3.3509  1.3268  1.6514
  762MOL0     H 2852  10.352   1.818   5.284 -0.3724 -1.4323 -0.3313
  762MOL0     H 2853  10.195   1.777   5.444  3.7894  0.1007 -1.0676
  762MOL0     H 2854   9.657   1.510   5.397 -0.2469 -1.5121  0.2345
  762MOL0     H 2855   9.550   1.396   5.585 -2.4862  3.6880 -2.7260
  762MOL0     H 2856   8.950   1.540   7.553  0.5666 -0.9200 -0.4730
  762MOL0     H 2857   8.764   1.475   7.718 -0.5394 -0.9547 -0.3153
  762MOL0     H 2858   8.230   1.239   7.604  0.5429  0.6164  0.1444
  762MOL0     H 2859   8.048   1.155   7.733 -0.1476 -0.8298  0.1717
  762MOL0     H 2860   8.105   0.857   7.849  2.1060 -4.1077  1.0412
  762MOL0     H 2861   8.109   0.822   8.022 -0.2201  0.6050 -0.8456
  762MOL0     H 2862   7.867   0.883   7.848 -1.0414 -1.4104 -0.6638
  762MOL0     H 2863   7.853   0.878   8.028  2.9405 -2.5985  2.9837
  762MOL0     H 2864   7.940   0.632   7.994 -1.2066 -1.5571 -0.1355
  762MOL0     H 2865   7.929   0.666   7.824 -1.5438 -3.0807  0.2851
  762MOL0     H 2866   7.687   0.678   8.022 -1.4994 -2.2352  1.0913
  762MOL0     H 2867   7.754   0.530   7.955 -0.3337  0.9401  1.9431
  762MOL0     H 2868   7.570   0.706   7.614  0.0836 -3.3837 -1.5437
  762MOL0     H 2869   8.313   1.021   8.039 -1.3098  1.4780  1.5488
  762MOL0     H 2870   8.505   1.088   7.891  0.4337  2.1146  1.0361
  763MOL0     O 2871   5.854   8.502   6.772  0.6863  0.2685  0.4116
  763MOL0     C 2872   5.890   8.598   6.698 -0.2954  0.7594  0.3650
  763MOL0     O 2873   5.967   8.583   6.593  0.4413 -0.5154  0.3295
  763MOL0     C 2874   6.041   8.470   6.579 -0.0981  0.3008  0.2393
  763MOL0     C 2875   6.057   8.440   6.449 -0.9179  0.7944  0.5883
  763MOL0     C 2876   6.135   8.334   6.411  0.2498  0.5632 -0.6831
  763MOL0     C 2877   6.198   8.244   6.504 -0.0520  0.0223 -0.5192
  763MOL0     O 2878   6.291   8.146   6.484 -0.5032  0.4145  0.0160
  763MOL0     C 2879   6.315   8.114   6.349  0.6549 -0.6809  0.2485
  763MOL0     C 2880   6.388   7.975   6.320  0.0921 -0.5910 -0.5510
  763MOL0     C 2881   6.303   7.851   6.372  0.2178 -0.0011  0.1598
  763MOL0     C 2882   6.144   7.875   6.360  0.8611  0.4196 -0.3232
  763MOL0     C 2883   6.058   7.757   6.386 -0.4559  0.1914  0.2982
  763MOL0     C 2884   6.052   7.645   6.276 -0.7309  0.2352  0.3876
  763MOL0     C 2885   5.940   7.547   6.289 -0.3694  0.0962 -0.1941
  763MOL0     C 2886   5.989   7.437   6.380  0.8838  0.2313  0.7129
  763MOL0     N 2887   5.880   7.343   6.430  0.1836 -0.3926  0.4353
  763MOL0     C 2888   5.765   7.378   6.493  0.3174  0.0193  0.2432
  763MOL0     C 2889   5.705   7.260   6.527  1.2367  0.3012  0.4898
  763MOL0     C 2890   5.579   7.236   6.603  0.0228  0.0715  0.9177
  763MOL0     C 2891   5.525   7.359   6.691  0.2679  0.8366 -0.5411
  763MOL0     C 2892   5.374   7.351   6.717  0.1062  0.5309  0.3049
  763MOL0     C 2893   5.316   7.468   6.801 -0.1865  0.2671  1.0847
  763MOL0     O 2894   5.364   7.591   6.743 -0.4346  1.0883 -0.0595
  763MOL0     C 2895   5.338   7.708   6.815 -0.5111  0.3541  0.0900
  763MOL0     C 2896   5.279   7.721   6.939 -0.0169 -0.6956 -0.7335
  763MOL0     C 2897   5.265   7.840   7.003 -0.5450 -0.0856 -0.4354
  763MOL0     C 2898   5.219   7.841   7.150  0.8723  0.5414  0.4999
  763MOL0     C 2899   5.298   7.955   6.935 -0.3299 -0.3516 -0.1417
  763MOL0     C 2900   5.275   8.090   6.993 -0.5202  0.6698  0.7642
  763MOL0     O 2901   5.347   8.192   6.935 -0.3753 -0.2106  0.1622
  763MOL0     C 2902   5.343   8.326   6.974 -0.5618 -0.2548  0.8119
  763MOL0     C 2903   5.223   8.390   7.006 -0.3788  0.0728  0.1144
  763MOL0     C 2904   5.216   8.525   7.044 -0.4650  0.0147 -0.7469
  763MOL0     C 2905   5.333   8.606   7.034  0.4185  0.2620  0.2537
  763MOL0     O 2906   5.334   8.744   7.037  0.3490  0.1367 -0.0231
  763MOL0     C 2907   5.291   8.799   7.165 -0.3143  1.6945 -0.5668
  763MOL0     C 2908   5.274   8.945   7.160  0.2876  0.1922  0.3109
  763MOL0     C 2909   5.412   9.011   7.159  0.2607  0.4300  0.3002
  763MOL0     C 2910   5.407   9.166   7.173 -0.5114  1.0366  0.6750
  763MOL0     C 2911   5.529   9.239   7.119 -0.1659 -0.0529  0.4220
  763MOL0     C 2912   5.660   9.204   7.200  0.5278 -0.4449  0.2752
  763MOL0     C 2913   5.772   9.310   7.162  0.0147 -0.7136  0.4741
  763MOL0     C 2914   5.773   9.425   7.261 -0.0591  0.5769 -0.3427
  763MOL0    Cl 2915   5.921   9.534   7.231  0.2625 -0.4852  0.1878
  763MOL0     C 2916   5.448   8.546   6.997 -0.5959 -0.6921  0.8328
  763MOL0     C 2917   5.457   8.407   6.972  0.2670  0.2561 -0.4152
  763MOL0     O 2918   5.202   8.098   7.092  0.3537 -0.7335 -0.2964
  763MOL0     C 2919   5.352   7.949   6.810 -0.1843  0.1189 -0.5546
  763MOL0     C 2920   5.375   7.827   6.746  0.5007  0.2301 -0.1268
  763MOL0     N 2921   5.784   7.162   6.480 -0.0700  0.5142 -0.7586
  763MOL0     N 2922   5.879   7.207   6.416 -0.2349  0.6126  0.0419
  763MOL0     C 2923   6.173   8.278   6.642  0.0072  0.3763  0.3789
  763MOL0     C 2924   6.099   8.382   6.679  0.7697 -1.9858  0.4140
  763MOL0     C 2925   5.834   8.735   6.719 -0.0444 -0.1035 -0.0516
  763MOL0     C 2926   5.863   8.834   6.630  0.7253  0.1433  0.6203
  763MOL0     C 2927   5.807   8.967   6.631  0.0416  0.3085  0.3666
  763MOL0     C 2928   5.730   8.991   6.743 -0.4424 -0.4744 -0.8487
  763MOL0     O 2929   5.669   9.116   6.767 -0.6365 -0.6901  0.9370
  763MOL0     C 2930   5.595   9.166   6.656 -0.1388  0.5667 -0.1275
  763MOL0     C 2931   5.576   9.312   6.659 -0.5693 -0.0443 -0.0685
  763MOL0     C 2932   5.591   9.388   6.793 -0.4190  0.2243 -0.1303
  763MOL0     C 2933   5.590   9.535   6.770  0.2653  0.1218  0.8542
  763MOL0     C 2934   5.669   9.609   6.869  0.7759 -0.9603  0.3327
  763MOL0     C 2935   5.736   9.659   6.967  0.3868 -0.0567  0.2632
  763MOL0     C 2936   5.720   8.895   6.847 -0.1816  0.8912  0.2140
  763MOL0     C 2937   5.752   8.763   6.830 -0.1400 -0.2402 -0.5141
  763MOL0     H 2938   6.012   8.512   6.381 -2.8500  1.4712  2.4623
  763MOL0     H 2939   6.156   8.317   6.305  2.2725 -0.6025 -0.1410
  763MOL0     H 2940   6.226   8.109   6.287  0.0118  0.7427  1.0247
  763MOL0     H 2941   6.379   8.197   6.318 -0.3551 -0.2389 -0.6887
  763MOL0     H 2942   6.385   7.966   6.211 -1.8406 -2.7239 -0.4006
  763MOL0     H 2943   6.489   7.969   6.361 -0.3518 -0.3830  0.6318
  763MOL0     H 2944   6.328   7.764   6.310 -2.4703 -1.6526  1.1883
  763MOL0     H 2945   6.337   7.833   6.475 -0.8277  2.7220  1.0889
  763MOL0     H 2946   6.115   7.945   6.438 -1.6339 -3.1894  2.2885
  763MOL0     H 2947   6.112   7.916   6.263 -1.1787  1.9807  0.9232
  763MOL0     H 2948   6.096   7.718   6.482  0.6175 -0.4640 -0.3705
  763MOL0     H 2949   5.956   7.795   6.396 -0.9110  0.5165 -3.9777
  763MOL0     H 2950   6.027   7.693   6.181  0.6943  1.3033  0.5212
  763MOL0     H 2951   6.144   7.589   6.256 -0.4157  0.9442 -0.1933
  763MOL0     H 2952   5.853   7.606   6.319 -0.1979 -0.5152  1.5916
  763MOL0     H 2953   5.927   7.492   6.195  0.4555 -2.9555  1.3852
  763MOL0     H 2954   6.032   7.484   6.469 -1.1930 -0.2447  2.0332
  763MOL0     H 2955   6.069   7.373   6.342 -0.0708 -0.5036 -0.1179
  763MOL0     H 2956   5.736   7.480   6.518  1.3204 -0.1759  2.4974
  763MOL0     H 2957   5.507   7.203   6.527 -0.6226 -0.3059  1.6679
  763MOL0     H 2958   5.596   7.153   6.673  0.7825 -1.6236 -1.1752
  763MOL0     H 2959   5.552   7.452   6.639  3.0485  0.9600  0.9281
  763MOL0     H 2960   5.583   7.365   6.784  0.0836 -0.1267 -0.3619
  763MOL0     H 2961   5.357   7.250   6.756 -0.0090 -0.1648 -1.4604
  763MOL0     H 2962   5.326   7.356   6.619  0.3538  0.0151  0.1482
  763MOL0     H 2963   5.351   7.462   6.904 -1.7239 -0.2939  1.6104
  763MOL0     H 2964   5.206   7.467   6.796 -0.3148  0.3476  3.0944
  763MOL0     H 2965   5.239   7.642   7.002  3.8204 -0.8666  1.7838
  763MOL0     H 2966   5.276   7.914   7.208  0.0838  3.3375 -1.9573
  763MOL0     H 2967   5.116   7.877   7.135  1.1732  0.8961 -0.8231
  763MOL0     H 2968   5.213   7.739   7.188  1.1196  1.1087  2.1139
  763MOL0     H 2969   5.140   8.320   7.008 -2.1275  1.8267 -3.0541
  763MOL0     H 2970   5.132   8.574   7.093 -0.9897 -3.1111  1.8724
  763MOL0     H 2971   5.188   8.766   7.184 -0.6647  2.4944 -1.0274
  763MOL0     H 2972   5.370   8.776   7.238  4.2895  5.1247 -3.9018
  763MOL0     H 2973   5.216   8.977   7.073  2.6485 -0.5831 -1.6356
  763MOL0     H 2974   5.229   8.987   7.251  3.1825  0.8330  1.5685
  763MOL0     H 2975   5.470   8.980   7.072 -2.7325  0.1792 -1.7486
  763MOL0     H 2976   5.480   8.963   7.230  1.7338  0.7028 -0.8699
  763MOL0     H 2977   5.317   9.198   7.120 -0.1352  2.3864  0.8149
  763MOL0     H 2978   5.382   9.181   7.278 -0.4549 -1.3651  1.0786
  763MOL0     H 2979   5.504   9.344   7.135 -0.6794 -0.1629  0.3721
  763MOL0     H 2980   5.548   9.212   7.014  2.0735 -0.7537  0.9623
  763MOL0     H 2981   5.641   9.202   7.308 -0.0304  0.3895  0.1985
  763MOL0     H 2982   5.684   9.100   7.175  0.4583 -0.6560  1.0587
  763MOL0     H 2983   5.753   9.338   7.058  0.1315  0.9687  0.8800
  763MOL0     H 2984   5.868   9.261   7.183 -0.3719 -0.8119  2.1256
  763MOL0     H 2985   5.788   9.385   7.361 -0.9451 -0.9960 -0.7922
  763MOL0     H 2986   5.677   9.478   7.263  0.3946  1.4443 -0.8390
  763MOL0     H 2987   5.536   8.603   6.971  0.7709 -4.4171 -4.4459
  763MOL0     H 2988   5.557   8.368   6.952  0.3421  0.9620 -1.4574
  763MOL0     H 2989   5.388   8.036   6.755  2.4978 -0.3086  0.3815
  763MOL0     H 2990   5.407   7.822   6.642  0.0138 -0.8655 -0.2299
  763MOL0     H 2991   6.232   8.226   6.717 -0.6576  1.4017  1.6664
  763MOL0     H 2992   6.094   8.406   6.785 -0.7496 -3.3097  0.6857
  763MOL0     H 2993   5.934   8.807   6.552 -2.7949 -1.5152 -2.3127
  763MOL0     H 2994   5.838   9.035   6.553 -2.4938 -0.7193 -1.6963
  763MOL0     H 2995   5.650   9.138   6.566  3.0899  1.7550  1.3166
  763MOL0     H 2996   5.492   9.129   6.654  0.1954 -0.4503  0.6894
  763MOL0     H 2997   5.479   9.337   6.614 -0.4039 -1.1957 -1.1052
  763MOL0     H 2998   5.658   9.342   6.593 -0.7386 -1.9520 -1.2166
  763MOL0     H 2999   5.673   9.359   6.860 -1.7978  2.1199  2.5916
  763MOL0     H 3000   5.507   9.360   6.857  1.4714 -1.4432  1.7908
  763MOL0     H 3001   5.486   9.570   6.771 -1.1342 -3.4935 -0.8649
  763MOL0     H 3002   5.628   9.544   6.668  0.8520 -0.0827  1.0504
  763MOL0     H 3003   5.791   9.698   7.051  2.0343  6.7178 -3.2375
  763MOL0     H 3004   5.676   8.918   6.943  0.1497  0.3871  0.4886
  763MOL0     H 3005   5.723   8.693   6.908 -1.3462  0.1911 -0.5613
  764MOL0     O 3006   4.718   6.001  11.199 -0.3247  0.9104  0.0826
  764MOL0     C 3007   4.686   6.031  11.088  0.5420 -0.1496  0.1210
  764MOL0     O 3008   4.640   6.153  11.051  0.0217 -0.4240 -0.1343
  764MOL0     C 3009   4.614   6.263  11.129 -0.2370  0.4068  1.0151
  764MOL0     C 3010   4.703   6.300  11.236  0.1898  0.0797 -0.2937
  764MOL0     C 3011   4.664   6.401  11.324 -0.2504  0.6672  0.3654
  764MOL0     C 3012   4.538   6.460  11.303  0.5013 -0.5077 -0.3806
  764MOL0     O 3013   4.477   6.552  11.387 -0.9612  0.2084 -0.1740
  764MOL0     C 3014   4.499   6.522  11.527  0.2918  0.3583 -0.1739
  764MOL0     C 3015   4.412   6.615  11.610  0.6845 -0.0728  0.3718
  764MOL0     C 3016   4.434   6.561  11.760 -0.5995  0.0620 -0.1703
  764MOL0     C 3017   4.365   6.659  11.856  0.7505  0.1584  0.0905
  764MOL0     C 3018   4.410   6.635  11.994  0.5458 -0.5113 -0.4182
  764MOL0     C 3019   4.329   6.709  12.108 -0.7546  0.0557  0.3396
  764MOL0     C 3020   4.320   6.865  12.084 -0.4122 -0.3424 -1.3075
  764MOL0     C 3021   4.456   6.937  12.109  0.8655  0.4623  0.3937
  764MOL0     N 3022   4.447   7.072  12.059 -0.4109  0.4703  0.0553
  764MOL0     C 3023   4.452   7.120  11.929 -0.0450 -0.0687  0.0653
  764MOL0     C 3024   4.445   7.254  11.931 -0.2177 -0.6009 -0.2309
  764MOL0     C 3025   4.427   7.346  11.813  0.4499 -0.7106 -0.7209
  764MOL0     C 3026   4.495   7.290  11.692  0.9420 -0.2175  0.7528
  764MOL0     C 3027   4.649   7.276  11.692 -0.7839 -0.2805 -0.1774
  764MOL0     C 3028   4.745   7.375  11.755  0.7843 -0.2491 -0.3375
  764MOL0     O 3029   4.876   7.325  11.766  0.2733  0.1744 -0.0047
  764MOL0     C 3030   4.896   7.245  11.871  0.2487  0.0160 -0.5834
  764MOL0     C 3031   4.809   7.224  11.984 -0.5433 -0.5437 -0.9964
  764MOL0     C 3032   4.842   7.144  12.090  0.0388  0.2181  0.8504
  764MOL0     C 3033   4.758   7.152  12.218 -0.9900  0.1428 -0.1534
  764MOL0     C 3034   4.946   7.045  12.064  0.6510  0.0196  0.1938
  764MOL0     C 3035   4.978   6.937  12.157  0.4629 -0.0632 -0.2446
  764MOL0     O 3036   5.083   6.862  12.126 -0.4290  0.5920  0.5806
  764MOL0     C 3037   5.111   6.738  12.182 -1.3945 -0.0676 -0.4142
  764MOL0     C 3038   5.237   6.716  12.248  0.5767  0.3846  0.6491
  764MOL0     C 3039   5.273   6.591  12.299 -0.8573  0.3190  0.1874
  764MOL0     C 3040   5.190   6.485  12.305  0.7136  0.0733  0.5836
  764MOL0     O 3041   5.244   6.374  12.360 -0.6348 -0.4535  0.3713
  764MOL0     C 3042   5.177   6.249  12.347 -0.8507 -0.4240  1.2845
  764MOL0     C 3043   5.063   6.230  12.453 -0.0565  0.1218  0.4012
  764MOL0     C 3044   5.102   6.240  12.595 -0.5645 -0.3666  0.3260
  764MOL0     C 3045   4.985   6.223  12.683 -0.1295  0.6392  0.2755
  764MOL0     C 3046   5.017   6.217  12.839 -0.1431  0.4033  0.8729
  764MOL0     C 3047   5.106   6.331  12.899  0.4573  0.4119 -0.0238
  764MOL0     C 3048   5.014   6.447  12.935 -0.1301  0.3131 -0.1523
  764MOL0     C 3049   5.080   6.565  13.021 -0.1030  0.2972  0.2828
  764MOL0    Cl 3050   5.170   6.505  13.166  0.0009  0.1596  0.1396
  764MOL0     C 3051   5.061   6.508  12.254 -0.3144 -0.3276 -0.1086
  764MOL0     C 3052   5.023   6.635  12.188 -0.4363  0.6159  0.7635
  764MOL0     O 3053   4.916   6.916  12.259 -0.3094 -0.2373 -0.1556
  764MOL0     C 3054   5.011   7.052  11.936  0.0671  0.6476 -0.2874
  764MOL0     C 3055   5.003   7.159  11.860 -0.5237  0.1313  0.7783
  764MOL0     N 3056   4.433   7.287  12.065 -0.3303 -0.0540  0.2812
  764MOL0     N 3057   4.437   7.185  12.141 -0.0988  0.6658 -0.8825
  764MOL0     C 3058   4.462   6.439  11.188 -0.2567  0.8631  0.7198
  764MOL0     C 3059   4.506   6.336  11.102  1.0933 -0.5132  0.5006
  764MOL0     C 3060   4.663   5.921  10.997 -0.5132 -0.5029 -0.6013
  764MOL0     C 3061   4.624   5.938  10.869 -0.9359 -0.4855  0.1734
  764MOL0     C 3062   4.587   5.830  10.784 -0.0526 -0.2099  0.0247
  764MOL0     C 3063   4.609   5.700  10.831  0.4539  0.6707 -0.3164
  764MOL0     O 3064   4.565   5.590  10.763  0.3337 -0.2262  0.4658
  764MOL0     C 3065   4.529   5.610  10.619 -0.9807  0.7690 -0.3795
  764MOL0     C 3066   4.657   5.628  10.532 -0.1793 -0.4402 -0.2782
  764MOL0     C 3067   4.681   5.503  10.452  1.2337  0.9563 -0.7274
  764MOL0     C 3068   4.611   5.506  10.319 -0.7986 -0.2489  0.1118
  764MOL0     C 3069   4.502   5.410  10.323  0.3190 -0.1865  0.0920
  764MOL0     C 3070   4.398   5.352  10.325  0.5213  0.2512  0.7181
  764MOL0     C 3071   4.659   5.679  10.957 -0.0814  0.7413 -0.8034
  764MOL0     C 3072   4.691   5.785  11.044  0.4034  0.6612  0.3173
  764MOL0     H 3073   4.794   6.242  11.250  1.4509  1.6297 -1.5567
  764MOL0     H 3074   4.733   6.430  11.402 -0.4322  3.2129 -0.3376
  764MOL0     H 3075   4.473   6.417  11.547  0.9181 -0.2704 -2.3526
  764MOL0     H 3076   4.607   6.531  11.541  0.8102 -2.6738 -1.3598
  764MOL0     H 3077   4.441   6.718  11.587 -0.2364  0.3404  1.0133
  764MOL0     H 3078   4.307   6.605  11.580  0.4502  0.8616  0.8506
  764MOL0     H 3079   4.398   6.459  11.777  0.4146 -0.5857 -1.6630
  764MOL0     H 3080   4.542   6.562  11.774 -0.5392 -0.5506 -0.5180
  764MOL0     H 3081   4.370   6.764  11.824 -0.2467  0.0598 -0.4354
  764MOL0     H 3082   4.259   6.632  11.857  0.3064  1.4608  3.9589
  764MOL0     H 3083   4.403   6.526  12.004 -1.7739 -0.4339 -0.7543
  764MOL0     H 3084   4.511   6.672  12.011  0.4014  0.3611 -1.4079
  764MOL0     H 3085   4.229   6.666  12.119 -0.7475 -0.4398 -1.3069
  764MOL0     H 3086   4.388   6.696  12.200  2.3964  1.8556 -1.2542
  764MOL0     H 3087   4.283   6.878  11.982  0.7936  2.5601 -1.4697
  764MOL0     H 3088   4.245   6.913  12.149 -0.1664 -0.0783 -1.2187
  764MOL0     H 3089   4.540   6.883  12.064  0.4259  1.6125 -1.9441
  764MOL0     H 3090   4.478   6.954  12.215  0.3978  0.6552  0.4599
  764MOL0     H 3091   4.437   7.064  11.837 -1.0420 -1.4540  1.0155
  764MOL0     H 3092   4.319   7.358  11.801  0.5790 -0.9765 -2.3714
  764MOL0     H 3093   4.470   7.444  11.835  3.1318 -1.5658 -1.7081
  764MOL0     H 3094   4.458   7.368  11.624  0.0823 -1.2797 -0.0166
  764MOL0     H 3095   4.444   7.198  11.665 -2.5930  0.9395  2.8194
  764MOL0     H 3096   4.699   7.246  11.599  0.1355  0.1532  0.1556
  764MOL0     H 3097   4.659   7.186  11.752  1.4466 -1.8099 -2.6164
  764MOL0     H 3098   4.716   7.417  11.851  1.5609  2.5205 -1.2205
  764MOL0     H 3099   4.746   7.468  11.697  4.2714  0.1804  0.1719
  764MOL0     H 3100   4.718   7.283  11.991 -0.7217 -0.9478  0.5260
  764MOL0     H 3101   4.826   7.144  12.303  0.6564 -0.8333 -1.4741
  764MOL0     H 3102   4.712   7.250  12.219  0.0390  0.6427  1.3637
  764MOL0     H 3103   4.683   7.072  12.222 -2.2456  1.2598 -0.6751
  764MOL0     H 3104   5.319   6.788  12.253  4.1307 -3.1210 -1.3441
  764MOL0     H 3105   5.377   6.584  12.330 -1.6275 -3.0578  2.4643
  764MOL0     H 3106   5.142   6.259  12.244  4.0169  1.1552 -0.4628
  764MOL0     H 3107   5.243   6.162  12.343 -1.1803 -0.6910  1.4818
  764MOL0     H 3108   4.990   6.308  12.427  1.7720  1.9782  0.5633
  764MOL0     H 3109   5.016   6.136  12.426 -0.6439  1.2244 -2.9476
  764MOL0     H 3110   5.148   6.335  12.624 -1.2520  0.2107 -0.4260
  764MOL0     H 3111   5.184   6.169  12.604  0.3016  0.4562 -0.7908
  764MOL0     H 3112   4.911   6.300  12.662 -3.2606 -1.0944  3.6947
  764MOL0     H 3113   4.942   6.127  12.653 -3.7968  3.1963 -3.9124
  764MOL0     H 3114   5.064   6.120  12.857 -2.1962 -0.7077  0.5145
  764MOL0     H 3115   4.920   6.194  12.884  0.5256 -4.0304  0.4331
  764MOL0     H 3116   5.144   6.292  12.994  3.9698  2.0292 -0.5633
  764MOL0     H 3117   5.196   6.362  12.845  0.0341 -0.3622 -1.1956
  764MOL0     H 3118   4.932   6.413  12.998  0.6264  1.3681  1.4820
  764MOL0     H 3119   4.972   6.484  12.841  0.1234 -1.9609 -1.2369
  764MOL0     H 3120   4.999   6.631  13.054 -1.1094 -0.0921 -1.3486
  764MOL0     H 3121   5.147   6.627  12.961 -0.4908 -0.5422 -1.0484
  764MOL0     H 3122   4.988   6.430  12.231 -1.7636  0.9810 -0.1521
  764MOL0     H 3123   4.926   6.640  12.140 -0.4197 -0.4315  0.6159
  764MOL0     H 3124   5.088   6.982  11.907 -1.8534 -0.8288 -2.0900
  764MOL0     H 3125   5.064   7.155  11.769 -0.3039 -0.5700  0.9468
  764MOL0     H 3126   4.364   6.487  11.183 -0.7174  0.0225  1.4080
  764MOL0     H 3127   4.458   6.317  11.007 -1.3249 -1.1383  1.7630
  764MOL0     H 3128   4.597   6.039  10.841  2.1951  0.4026 -0.0402
  764MOL0     H 3129   4.547   5.847  10.685  2.5800 -1.5600 -1.3796
  764MOL0     H 3130   4.471   5.522  10.592  1.6333 -0.4939 -2.3896
  764MOL0     H 3131   4.464   5.696  10.603  0.7935  2.2446 -0.1195
  764MOL0     H 3132   4.745   5.632  10.597  1.8745  2.1928 -2.8967
  764MOL0     H 3133   4.641   5.718  10.472 -1.9902 -1.1633 -0.9454
  764MOL0     H 3134   4.655   5.414  10.510 -2.3683  0.6083 -2.6096
  764MOL0     H 3135   4.789   5.500  10.434  1.1964 -1.2121 -0.8209
  764MOL0     H 3136   4.676   5.466  10.240  0.0313 -1.8133  1.5284
  764MOL0     H 3137   4.590   5.608  10.286  0.6175 -0.3134 -1.0727
  764MOL0     H 3138   4.309   5.295  10.341  0.6754 -0.1875  0.0680
  764MOL0     H 3139   4.673   5.572  10.975 -2.3643 -0.0091 -2.9367
  764MOL0     H 3140   4.744   5.768  11.138  1.1927  0.2257 -0.1944
  765MOL0     O 3141  10.122   4.111   1.913 -0.6314  0.0898 -1.0316
  765MOL0     C 3142  10.123   4.225   1.871 -0.2135  0.3479  0.1753
  765MOL0     O 3143  10.229   4.304   1.866 -0.4567 -0.2379 -0.7853
  765MOL0     C 3144  10.356   4.273   1.894  0.2518 -0.8374 -0.1514
  765MOL0     C 3145  10.435   4.376   1.936  0.0980 -0.0928  0.7498
  765MOL0     C 3146  10.568   4.357   1.964 -0.4910 -0.7840  0.4329
  765MOL0     C 3147  10.629   4.239   1.932  0.0973  0.3392  0.6311
  765MOL0     O 3148  10.762   4.202   1.961 -0.0201  0.3131  0.3546
  765MOL0     C 3149  10.814   4.273   2.075 -0.2007 -0.0656 -0.5669
  765MOL0     C 3150  10.965   4.251   2.087  1.0576 -0.7367  0.4470
  765MOL0     C 3151  11.043   4.354   2.017 -0.0982 -0.1187 -0.6658
  765MOL0     C 3152  11.195   4.324   2.034 -0.4550 -1.1540 -0.3286
  765MOL0     C 3153  11.268   4.440   2.108 -0.7374  0.3223  1.0970
  765MOL0     C 3154  11.412   4.399   2.139  0.4372  0.3461  0.2692
  765MOL0     C 3155  11.482   4.503   2.232 -0.1087  0.8260  0.0595
  765MOL0     C 3156  11.603   4.461   2.302 -0.0491  1.0526 -0.3887
  765MOL0     N 3157  11.701   4.403   2.211  0.1265  0.2450  0.5284
  765MOL0     C 3158  11.780   4.481   2.125  0.4412 -0.2037 -0.3687
  765MOL0     C 3159  11.878   4.400   2.083 -0.0181  0.4762  0.8587
  765MOL0     C 3160  11.995   4.441   2.000 -0.0975 -0.5103 -0.5493
  765MOL0     C 3161  12.122   4.383   2.061 -0.3846  0.4134  0.3849
  765MOL0     C 3162  12.228   4.400   1.951  0.2333 -0.3936  0.1488
  765MOL0     C 3163  12.349   4.330   1.997 -0.1526  0.1123  0.3578
  765MOL0     O 3164  12.445   4.328   1.886 -0.0639 -1.2660  0.1875
  765MOL0     C 3165  12.495   4.447   1.842 -0.4343  0.4197 -0.0514
  765MOL0     C 3166  12.615   4.497   1.908  0.9486  0.0642 -0.7468
  765MOL0     C 3167  12.661   4.620   1.903  1.1132  0.9118 -0.7311
  765MOL0     C 3168  12.775   4.655   1.994 -0.4348  0.5849  0.3657
  765MOL0     C 3169  12.600   4.714   1.820 -0.6592 -0.1662  0.1103
  765MOL0     C 3170  12.657   4.848   1.805 -0.6100  0.2078  0.1967
  765MOL0     O 3171  12.620   4.914   1.696 -0.1869  0.0690 -0.0616
  765MOL0     C 3172  12.693   5.030   1.662 -0.4989  0.3827 -0.4010
  765MOL0     C 3173  12.625   5.140   1.610  0.0716  0.0558 -0.5809
  765MOL0     C 3174  12.699   5.248   1.568  0.1287 -0.9320 -0.5555
  765MOL0     C 3175  12.842   5.248   1.578  0.7891  0.3603  0.1808
  765MOL0     O 3176  12.935   5.350   1.541  1.1212  0.4343 -0.1573
  765MOL0     C 3177  12.880   5.480   1.501  1.0082 -0.4304  0.8681
  765MOL0     C 3178  12.881   5.489   1.342 -0.6006 -0.0267 -1.2617
  765MOL0     C 3179  13.025   5.491   1.287  0.7367 -0.5639  0.1770
  765MOL0     C 3180  13.028   5.527   1.135  0.2964  0.3372 -0.3971
  765MOL0     C 3181  13.171   5.556   1.093  0.7738 -0.5562  0.0264
  765MOL0     C 3182  13.188   5.578   0.940 -0.5141 -0.4408 -0.3231
  765MOL0     C 3183  13.336   5.611   0.903  0.1850  0.5943  1.0725
  765MOL0     C 3184  13.362   5.578   0.754  0.0501  0.6486 -1.4293
  765MOL0    Cl 3185  13.536   5.550   0.738  0.3519  0.4748 -0.2405
  765MOL0     C 3186  12.915   5.131   1.620 -0.0584 -0.7270  0.5508
  765MOL0     C 3187  12.835   5.029   1.664 -0.4397  0.8219  1.2852
  765MOL0     O 3188  12.723   4.901   1.890 -0.3712  0.1627 -0.0734
  765MOL0     C 3189  12.486   4.672   1.747 -0.8025 -0.5381 -0.8889
  765MOL0     C 3190  12.434   4.541   1.761 -0.0074 -0.1553  0.5748
  765MOL0     N 3191  11.842   4.275   2.132  1.0071  0.3550 -0.5392
  765MOL0     N 3192  11.742   4.273   2.210  1.2424  0.8045  0.5499
  765MOL0     C 3193  10.550   4.135   1.884  0.7936 -0.5806  0.5791
  765MOL0     C 3194  10.411   4.147   1.864 -0.0825  1.0418  0.2461
  765MOL0     C 3195   9.991   4.267   1.827  0.6496 -0.0927 -0.0714
  765MOL0     C 3196   9.975   4.331   1.706 -0.0113  0.4009  0.5559
  765MOL0     C 3197   9.850   4.362   1.657  0.1809  0.8792 -0.8342
  765MOL0     C 3198   9.734   4.318   1.730 -0.2497 -0.9757 -0.2101
  765MOL0     O 3199   9.605   4.348   1.699 -0.0148  1.1194 -0.1423
  765MOL0     C 3200   9.570   4.412   1.568 -0.1199  0.3472  0.4850
  765MOL0     C 3201   9.418   4.434   1.582  0.4467  0.3368 -0.0977
  765MOL0     C 3202   9.337   4.304   1.632 -0.2792  0.1335  1.0238
  765MOL0     C 3203   9.192   4.344   1.611 -0.8883 -0.0682  0.1457
  765MOL0     C 3204   9.099   4.244   1.670  0.6357 -0.5732  0.0601
  765MOL0     C 3205   9.031   4.152   1.690  0.1619  0.9180 -0.1796
  765MOL0     C 3206   9.748   4.257   1.847 -0.4345  0.4737 -1.2571
  765MOL0     C 3207   9.878   4.238   1.905 -0.4174 -0.1232 -0.4489
  765MOL0     H 3208  10.373   4.461   1.962 -0.6007 -0.1329 -0.6877
  765MOL0     H 3209  10.614   4.432   2.027 -1.3961 -1.5836  2.1257
  765MOL0     H 3210  10.805   4.381   2.061  1.3962  0.0551 -0.8584
  765MOL0     H 3211  10.766   4.245   2.169  1.3566  0.9809  0.5865
  765MOL0     H 3212  10.989   4.265   2.193  0.0354  0.2678  0.5624
  765MOL0     H 3213  10.991   4.152   2.047  2.4256 -0.1883 -0.0753
  765MOL0     H 3214  11.017   4.348   1.911 -3.2500  0.9302 -0.0519
  765MOL0     H 3215  11.032   4.454   2.061 -1.1245 -0.4080 -0.2348
  765MOL0     H 3216  11.206   4.234   2.095 -0.1707  1.1905  3.4185
  765MOL0     H 3217  11.232   4.315   1.932 -0.8808  0.1785 -0.6206
  765MOL0     H 3218  11.257   4.532   2.048 -0.5388 -0.1636  0.2951
  765MOL0     H 3219  11.218   4.452   2.204 -0.3230 -1.7048  1.6072
  765MOL0     H 3220  11.399   4.302   2.190  0.0505 -1.0227 -2.2807
  765MOL0     H 3221  11.463   4.379   2.045 -0.1034  0.5734 -0.0756
  765MOL0     H 3222  11.503   4.595   2.176  0.4690  0.2659 -0.6620
  765MOL0     H 3223  11.411   4.541   2.306 -1.3052 -2.0669  0.5122
  765MOL0     H 3224  11.584   4.389   2.383  2.7979  0.7327  0.1084
  765MOL0     H 3225  11.638   4.547   2.360 -2.6088  0.0022  3.0539
  765MOL0     H 3226  11.768   4.587   2.103 -1.4428 -0.4579 -0.7295
  765MOL0     H 3227  11.980   4.396   1.902  3.0436 -0.4687 -1.1511
  765MOL0     H 3228  11.992   4.550   1.996 -1.2715 -0.5167 -0.1514
  765MOL0     H 3229  12.116   4.275   2.080 -2.7704  0.5258  0.6074
  765MOL0     H 3230  12.154   4.449   2.142  3.4929  1.5597 -1.8124
  765MOL0     H 3231  12.242   4.505   1.923  3.1151 -0.2989  1.6130
  765MOL0     H 3232  12.195   4.347   1.862  3.0636 -0.9751 -0.6525
  765MOL0     H 3233  12.322   4.231   2.036 -1.1258  0.5811  0.9072
  765MOL0     H 3234  12.397   4.384   2.079 -2.6849  1.5371  0.9869
  765MOL0     H 3235  12.655   4.417   1.971 -2.2412  0.7546  2.4822
  765MOL0     H 3236  12.823   4.572   2.046  3.6833  0.4091 -3.1633
  765MOL0     H 3237  12.851   4.694   1.926  0.9685  4.8213  3.8682
  765MOL0     H 3238  12.756   4.736   2.065  1.6546  0.3441  1.2935
  765MOL0     H 3239  12.520   5.130   1.582 -0.4775  0.9062  1.0313
  765MOL0     H 3240  12.640   5.318   1.510  0.2895  0.3169  0.7112
  765MOL0     H 3241  12.787   5.508   1.549 -1.6078 -1.8933 -2.8619
  765MOL0     H 3242  12.956   5.545   1.544  1.0940 -1.4275  2.3133
  765MOL0     H 3243  12.820   5.406   1.304  0.0520  0.3464 -3.2653
  765MOL0     H 3244  12.836   5.585   1.318  0.7330  0.9934  0.1225
  765MOL0     H 3245  13.076   5.397   1.308 -1.7740 -2.3238 -1.1588
  765MOL0     H 3246  13.070   5.580   1.333  2.3285 -1.8876  1.2687
  765MOL0     H 3247  12.992   5.431   1.095  1.4469  0.2435 -1.2409
  765MOL0     H 3248  12.964   5.609   1.100 -0.5635 -1.0575 -2.2441
  765MOL0     H 3249  13.231   5.472   1.128 -3.6537 -3.9220  0.5206
  765MOL0     H 3250  13.206   5.653   1.130 -0.6400  0.0536 -0.1505
  765MOL0     H 3251  13.163   5.480   0.898  2.9388 -1.7877  0.3708
  765MOL0     H 3252  13.126   5.661   0.906 -0.5879 -0.2453  0.2729
  765MOL0     H 3253  13.387   5.538   0.965 -0.1416  0.9126  1.7303
  765MOL0     H 3254  13.379   5.711   0.916  1.0664  0.1866  1.3457
  765MOL0     H 3255  13.322   5.656   0.688 -0.8295  2.5933  1.1772
  765MOL0     H 3256  13.307   5.486   0.732  0.3381 -0.2610  1.2137
  765MOL0     H 3257  13.021   5.111   1.605 -0.4306 -1.0130 -2.4079
  765MOL0     H 3258  12.880   4.939   1.704 -0.7698  1.2770  2.7746
  765MOL0     H 3259  12.443   4.736   1.671 -0.5114 -0.9603 -1.4180
  765MOL0     H 3260  12.349   4.526   1.695  0.4213  4.1462 -1.3148
  765MOL0     H 3261  10.597   4.039   1.865  1.7035 -0.1729  0.7155
  765MOL0     H 3262  10.360   4.072   1.804  1.5684 -0.2497  0.3626
  765MOL0     H 3263  10.053   4.360   1.637 -0.6057  0.1226 -0.2479
  765MOL0     H 3264   9.841   4.423   1.568 -1.4250  0.1195 -1.2244
  765MOL0     H 3265   9.630   4.503   1.555  0.2549  0.5037  2.8616
  765MOL0     H 3266   9.590   4.348   1.482 -0.5852  1.9798 -0.9034
  765MOL0     H 3267   9.373   4.459   1.485  2.6872  0.7255 -1.1050
  765MOL0     H 3268   9.395   4.515   1.652 -1.8601  1.3438 -1.8696
  765MOL0     H 3269   9.352   4.287   1.739 -1.9770  1.0377  1.4334
  765MOL0     H 3270   9.369   4.218   1.573  1.6131 -0.4423  2.7540
  765MOL0     H 3271   9.164   4.356   1.506 -2.2603 -2.6948  0.1379
  765MOL0     H 3272   9.176   4.431   1.676  0.2600 -1.1991  2.0220
  765MOL0     H 3273   8.969   4.068   1.716 -0.4712  1.0242 -1.2748
  765MOL0     H 3274   9.658   4.229   1.901 -0.0221  1.0504 -0.2359
  765MOL0     H 3275   9.885   4.172   1.991 -0.5239 -0.4924 -0.7176
  766MOL0     O 3276   2.282   6.129   7.658  0.4814 -0.1188 -0.0551
  766MOL0     C 3277   2.251   6.129   7.779  0.5945  0.4053  0.5174
  766MOL0     O 3278   2.310   6.218   7.873  0.0215  0.1808 -0.0446
  766MOL0     C 3279   2.401   6.309   7.839 -0.7522  0.4271 -0.3194
  766MOL0     C 3280   2.378   6.423   7.762  0.2442  0.5664 -0.8132
  766MOL0     C 3281   2.474   6.525   7.763 -0.5608  0.6621 -0.2447
  766MOL0     C 3282   2.602   6.514   7.826  0.3955  0.0425 -0.3238
  766MOL0     O 3283   2.697   6.612   7.803  0.0522  0.3811 -0.5888
  766MOL0     C 3284   2.669   6.742   7.752  0.0779 -0.1574  0.2725
  766MOL0     C 3285   2.801   6.832   7.790 -0.1063 -0.4326 -0.2901
  766MOL0     C 3286   2.812   6.855   7.941  0.4778 -1.2485  0.2983
  766MOL0     C 3287   2.727   6.987   7.974 -0.3402 -0.3703  0.3792
  766MOL0     C 3288   2.786   7.046   8.104  0.2621 -0.6694 -0.3668
  766MOL0     C 3289   2.729   6.986   8.233  0.6117 -0.3446  0.4516
  766MOL0     C 3290   2.754   7.054   8.368 -1.1386 -0.1548 -0.3300
  766MOL0     C 3291   2.683   6.999   8.488 -0.4974 -0.4256 -0.3541
  766MOL0     N 3292   2.735   6.871   8.539  0.8840  0.4681  0.0051
  766MOL0     C 3293   2.684   6.751   8.496  0.6397 -0.8731 -0.5120
  766MOL0     C 3294   2.748   6.665   8.572 -0.0271  0.3532  0.1678
  766MOL0     C 3295   2.736   6.520   8.555 -0.6868 -0.3739  0.1821
  766MOL0     C 3296   2.611   6.473   8.636  0.1966  0.1648 -0.0425
  766MOL0     C 3297   2.646   6.393   8.769 -0.4999  0.2614  1.3464
  766MOL0     C 3298   2.696   6.490   8.880  0.7684 -0.2658  0.5427
  766MOL0     O 3299   2.740   6.403   8.987  0.3819  0.7944  0.0276
  766MOL0     C 3300   2.792   6.458   9.096 -0.1903  1.1094  0.5352
  766MOL0     C 3301   2.858   6.375   9.188  0.0512 -0.1712 -1.0702
  766MOL0     C 3302   2.930   6.426   9.303 -0.4311 -1.0376 -0.3021
  766MOL0     C 3303   2.984   6.346   9.415 -0.0229  1.0922  0.2416
  766MOL0     C 3304   2.931   6.561   9.327  0.3096  0.0579 -0.2694
  766MOL0     C 3305   3.009   6.624   9.440 -0.2653  0.2348 -0.5266
  766MOL0     O 3306   3.074   6.728   9.386 -0.9065  0.3928 -0.7888
  766MOL0     C 3307   3.193   6.787   9.444  0.4295  0.5968 -0.7104
  766MOL0     C 3308   3.236   6.752   9.574 -0.3655  0.2145  0.5177
  766MOL0     C 3309   3.354   6.816   9.622 -0.0776 -0.2375  0.4401
  766MOL0     C 3310   3.425   6.900   9.541 -0.2234 -0.5515 -1.1649
  766MOL0     O 3311   3.540   6.975   9.567  0.5576  0.0389  0.2460
  766MOL0     C 3312   3.626   6.927   9.667  0.4020  0.3300  0.4886
  766MOL0     C 3313   3.771   6.954   9.631 -0.3586 -0.2221 -0.5228
  766MOL0     C 3314   3.864   6.913   9.748  0.4535 -0.4641 -0.0536
  766MOL0     C 3315   3.880   6.765   9.751 -0.3311  0.8227 -0.8993
  766MOL0     C 3316   4.009   6.733   9.825 -0.4995 -0.0565  0.1436
  766MOL0     C 3317   4.073   6.599   9.779 -0.2054 -0.4637  0.2938
  766MOL0     C 3318   4.184   6.552   9.890  0.2654 -0.7408  0.2852
  766MOL0     C 3319   4.121   6.481  10.012  0.3765 -0.1972  0.1158
  766MOL0    Cl 3320   4.085   6.307   9.965  0.7498 -0.2064 -0.3644
  766MOL0     C 3321   3.385   6.929   9.414  0.0981  1.0924 -0.4400
  766MOL0     C 3322   3.267   6.875   9.369  0.7994 -0.0500 -0.5137
  766MOL0     O 3323   2.973   6.613   9.561  0.1092 -0.2394  0.2795
  766MOL0     C 3324   2.868   6.643   9.231  0.3220  0.2126 -0.8443
  766MOL0     C 3325   2.802   6.596   9.123  0.0202 -1.0683 -0.0150
  766MOL0     N 3326   2.835   6.729   8.656 -0.6055  0.7192 -0.0951
  766MOL0     N 3327   2.831   6.853   8.629 -0.8663  0.6278 -0.3796
  766MOL0     C 3328   2.629   6.395   7.894  0.5621  1.4047 -0.3679
  766MOL0     C 3329   2.524   6.301   7.912  0.5947 -0.8475 -0.3117
  766MOL0     C 3330   2.158   6.020   7.832 -0.4832  0.2439  0.3508
  766MOL0     C 3331   2.106   6.029   7.964 -0.0119 -0.6742  0.8846
  766MOL0     C 3332   2.047   5.910   8.003  0.4963 -1.0351  0.5215
  766MOL0     C 3333   2.018   5.809   7.922 -0.0400 -0.3590  0.3325
  766MOL0     O 3334   1.945   5.711   7.991  0.2704  0.3293  0.5016
  766MOL0     C 3335   1.937   5.583   7.934 -1.1451 -0.5440 -0.4875
  766MOL0     C 3336   1.829   5.566   7.837  0.5586  0.3833 -0.4539
  766MOL0     C 3337   1.744   5.455   7.888  1.4903  0.6058 -0.5494
  766MOL0     C 3338   1.699   5.449   8.043  0.1158 -0.8586  0.0206
  766MOL0     C 3339   1.583   5.359   8.061 -0.1219  0.2012  0.1682
  766MOL0     C 3340   1.498   5.273   8.092  0.5915 -0.1872  0.3255
  766MOL0     C 3341   2.032   5.820   7.787  0.2302 -0.6307  0.6129
  766MOL0     C 3342   2.115   5.925   7.744 -0.4648  0.6812  0.9120
  766MOL0     H 3343   2.275   6.435   7.729 -1.3389 -0.6698  2.9771
  766MOL0     H 3344   2.444   6.624   7.730  0.9686  1.5358  0.8902
  766MOL0     H 3345   2.653   6.730   7.644  0.0087 -0.2205  0.2896
  766MOL0     H 3346   2.573   6.777   7.791 -0.8395  0.0832 -2.0367
  766MOL0     H 3347   2.893   6.782   7.760 -0.9392 -2.5639  0.5248
  766MOL0     H 3348   2.799   6.927   7.735  3.0598 -1.0803 -1.7361
  766MOL0     H 3349   2.775   6.766   7.993 -0.7143 -1.8119 -1.4261
  766MOL0     H 3350   2.915   6.882   7.968  1.1373 -2.5824 -0.6885
  766MOL0     H 3351   2.720   7.057   7.890  4.0505 -1.7994 -1.4551
  766MOL0     H 3352   2.628   6.953   8.008 -1.3433  0.5420 -1.5003
  766MOL0     H 3353   2.896   7.044   8.108  0.5981  4.5420  2.4527
  766MOL0     H 3354   2.766   7.154   8.102  0.3231 -0.6716 -1.7265
  766MOL0     H 3355   2.623   6.961   8.225  0.9076 -1.4562 -0.2017
  766MOL0     H 3356   2.779   6.889   8.244  1.1402 -0.3296 -1.4621
  766MOL0     H 3357   2.862   7.060   8.387 -1.2582  1.8517 -0.0286
  766MOL0     H 3358   2.732   7.160   8.352 -2.9801 -0.4510  0.0709
  766MOL0     H 3359   2.576   6.986   8.465 -0.5577  1.0960 -1.1104
  766MOL0     H 3360   2.716   7.070   8.564 -0.1117  0.3381 -1.2212
  766MOL0     H 3361   2.612   6.741   8.416  1.0389 -2.4284 -0.7242
  766MOL0     H 3362   2.740   6.503   8.447 -0.2206  5.0065 -0.9424
  766MOL0     H 3363   2.832   6.485   8.594 -0.6989  1.1278  1.6798
  766MOL0     H 3364   2.557   6.413   8.563 -1.0490  0.6076  0.4842
  766MOL0     H 3365   2.546   6.558   8.661  0.9070  1.6931 -3.0201
  766MOL0     H 3366   2.725   6.319   8.749 -0.3442  1.3943 -3.6440
  766MOL0     H 3367   2.556   6.339   8.799 -1.5191 -1.4625 -3.7036
  766MOL0     H 3368   2.608   6.547   8.909 -0.1795 -2.3670  2.0200
  766MOL0     H 3369   2.777   6.558   8.852  0.5545  0.4349  1.5543
  766MOL0     H 3370   2.852   6.271   9.160  2.1619 -0.2517 -1.3854
  766MOL0     H 3371   2.930   6.360   9.509 -0.4315 -3.2667  0.8493
  766MOL0     H 3372   2.962   6.241   9.395  0.5037  1.0102  0.0745
  766MOL0     H 3373   3.089   6.364   9.439 -0.1890 -0.2320  2.1632
  766MOL0     H 3374   3.185   6.689   9.646  2.4092 -1.5179  1.1389
  766MOL0     H 3375   3.402   6.799   9.718  0.9985  0.0072 -0.0361
  766MOL0     H 3376   3.598   6.977   9.760 -2.9449  3.6044 -1.9612
  766MOL0     H 3377   3.621   6.818   9.674  0.7262  0.3662  1.4042
  766MOL0     H 3378   3.799   6.893   9.545  1.3369 -2.2430  1.3335
  766MOL0     H 3379   3.784   7.059   9.603  2.3689 -0.5008 -0.5919
  766MOL0     H 3380   3.818   6.941   9.844  2.3568  0.0680  0.7432
  766MOL0     H 3381   3.959   6.964   9.731 -0.2522  0.5172 -1.1476
  766MOL0     H 3382   3.794   6.708   9.788  1.3059  0.8431  3.5387
  766MOL0     H 3383   3.888   6.733   9.647  0.4232  1.4328 -1.0353
  766MOL0     H 3384   3.999   6.737   9.933 -2.1084 -2.6799  0.1932
  766MOL0     H 3385   4.082   6.806   9.791 -3.6951  2.2664 -2.4186
  766MOL0     H 3386   3.994   6.525   9.775 -0.0359 -0.5981 -0.9043
  766MOL0     H 3387   4.119   6.602   9.680  2.2846  1.6355  1.3745
  766MOL0     H 3388   4.232   6.645   9.922  1.7176 -1.3061 -0.1837
  766MOL0     H 3389   4.262   6.487   9.849  1.3570 -0.4853  1.8733
  766MOL0     H 3390   4.033   6.537  10.045  2.3374  3.5983 -0.5752
  766MOL0     H 3391   4.199   6.484  10.088  3.8828  0.0516 -3.1848
  766MOL0     H 3392   3.447   6.989   9.349  2.7790 -1.8331 -0.8522
  766MOL0     H 3393   3.229   6.899   9.271  0.3017  0.1165 -0.2840
  766MOL0     H 3394   2.859   6.749   9.254  0.5391 -0.2600  1.7960
  766MOL0     H 3395   2.750   6.670   9.062  2.0254  0.0537 -0.4270
  766MOL0     H 3396   2.729   6.363   7.921 -1.1135 -3.5412  1.0369
  766MOL0     H 3397   2.527   6.220   7.985 -0.8564 -3.0613 -2.5210
  766MOL0     H 3398   2.125   6.112   8.031  0.2492 -1.0589  1.2973
  766MOL0     H 3399   2.026   5.902   8.109  3.7777 -3.6341  1.1195
  766MOL0     H 3400   2.031   5.550   7.888  1.1603  2.4021  1.6752
  766MOL0     H 3401   1.935   5.513   8.018  3.3533  0.4024  0.6775
  766MOL0     H 3402   1.874   5.538   7.741  1.8529  1.4954 -0.2119
  766MOL0     H 3403   1.785   5.665   7.826 -0.6062  0.3310  2.8519
  766MOL0     H 3404   1.792   5.362   7.856  2.2168  1.4964 -2.1416
  766MOL0     H 3405   1.649   5.469   7.836  0.4762 -3.2955 -0.0626
  766MOL0     H 3406   1.678   5.552   8.073  1.7307 -0.1328 -1.1561
  766MOL0     H 3407   1.776   5.394   8.098  0.6298 -4.2613 -3.6106
  766MOL0     H 3408   1.417   5.205   8.110  0.0990  0.5644  1.0114
  766MOL0     H 3409   1.994   5.742   7.722  0.8557 -0.8035  0.4466
  766MOL0     H 3410   2.143   5.927   7.639 -0.3329 -3.2469  0.7245
  767MOL0     O 3411   7.700  11.085   1.977 -0.0507 -0.1632  0.1419
  767MOL0     C 3412   7.785  11.162   2.013  0.9124 -0.2480 -1.0959
  767MOL0     O 3413   7.905  11.126   2.066  0.0522 -0.3169 -0.0799
  767MOL0     C 3414   7.964  11.015   2.007  0.0668 -0.4623  0.4757
  767MOL0     C 3415   7.957  10.988   1.874 -0.2424 -0.6708  0.6029
  767MOL0     C 3416   8.022  10.878   1.818 -0.0015 -0.9720 -0.6752
  767MOL0     C 3417   8.081  10.785   1.898 -0.3385  0.1124  0.0583
  767MOL0     O 3418   8.143  10.666   1.859 -0.2551  0.7003 -0.4858
  767MOL0     C 3419   8.088  10.604   1.739  0.3273 -0.6718 -1.0006
  767MOL0     C 3420   8.110  10.457   1.737  0.0770  0.1424 -1.0322
  767MOL0     C 3421   8.036  10.392   1.613  0.2716 -0.6873  0.9924
  767MOL0     C 3422   8.092  10.258   1.568 -1.6458 -0.0808 -0.5291
  767MOL0     C 3423   8.008  10.186   1.465 -0.3720 -0.5212  0.7797
  767MOL0     C 3424   8.090  10.065   1.405  0.5113 -0.0161  0.1878
  767MOL0     C 3425   8.005   9.998   1.297 -0.1276 -0.0380  0.0749
  767MOL0     C 3426   8.077   9.868   1.265 -0.8210  0.3840 -1.1277
  767MOL0     N 3427   8.035   9.798   1.144 -0.3418 -1.5185  0.1541
  767MOL0     C 3428   7.948   9.695   1.137 -0.1189  0.3164  0.0734
  767MOL0     C 3429   7.901   9.688   1.008 -0.7203 -0.5884 -0.3385
  767MOL0     C 3430   7.807   9.587   0.943  0.1436 -0.2530  0.5446
  767MOL0     C 3431   7.881   9.464   0.907  1.0820 -0.9719  0.0569
  767MOL0     C 3432   7.980   9.500   0.785  0.3638  0.1649  0.0437
  767MOL0     C 3433   8.055   9.377   0.745  0.0278  0.0688  0.1246
  767MOL0     O 3434   8.144   9.401   0.634  0.6823 -0.2261 -0.0795
  767MOL0     C 3435   8.098   9.440   0.511  0.7618  0.3240  0.6120
  767MOL0     C 3436   8.207   9.482   0.435  0.0239 -0.3526  0.1481
  767MOL0     C 3437   8.197   9.537   0.304  0.3684  0.8908 -0.6249
  767MOL0     C 3438   8.330   9.559   0.235 -0.7261  0.2044  0.2719
  767MOL0     C 3439   8.062   9.547   0.246  0.0972  0.3403  0.1517
  767MOL0     C 3440   8.026   9.603   0.113 -0.6879 -0.5670 -0.6082
  767MOL0     O 3441   8.122   9.663   0.044  0.4057 -0.1104 -0.0011
  767MOL0     C 3442   8.099   9.713  -0.080  0.4489 -0.7325 -0.1096
  767MOL0     C 3443   8.162   9.648  -0.187 -1.0437  0.2395 -0.3056
  767MOL0     C 3444   8.140   9.697  -0.314 -0.4278 -0.0651  0.4418
  767MOL0     C 3445   8.075   9.819  -0.330  0.0076 -0.3085 -0.2587
  767MOL0     O 3446   8.069   9.894  -0.443  0.2355  0.8659  0.3863
  767MOL0     C 3447   8.136   9.841  -0.567  0.1601 -0.4004  0.0409
  767MOL0     C 3448   8.131   9.927  -0.694 -0.1326 -0.0761  0.9825
  767MOL0     C 3449   7.993   9.931  -0.759  0.4993 -0.1670  0.2601
  767MOL0     C 3450   8.012   9.917  -0.912 -0.5025  0.7539 -0.5956
  767MOL0     C 3451   7.894   9.975  -0.993  0.7261 -0.5231  0.2686
  767MOL0     C 3452   7.797   9.866  -1.039  0.0563 -0.0724  0.2463
  767MOL0     C 3453   7.675   9.938  -1.102  0.2945 -0.4355 -0.3553
  767MOL0     C 3454   7.651   9.898  -1.252 -0.4927 -0.3714 -1.1126
  767MOL0    Cl 3455   7.519  10.000  -1.322 -0.2358  0.0561  0.8271
  767MOL0     C 3456   8.031   9.890  -0.220  0.2853  0.2784  0.2757
  767MOL0     C 3457   8.037   9.833  -0.095  1.5024  0.2222 -0.0192
  767MOL0     O 3458   7.917   9.586   0.076 -0.1390 -0.3283  0.4070
  767MOL0     C 3459   7.957   9.487   0.324 -0.1728 -0.8818  0.4215
  767MOL0     C 3460   7.967   9.433   0.453 -0.6870  0.1393  0.5609
  767MOL0     N 3461   7.956   9.793   0.938 -0.0337  0.3636 -0.4501
  767MOL0     N 3462   8.030   9.858   1.018 -0.0068  0.1931 -0.9783
  767MOL0     C 3463   8.081  10.806   2.037  1.4180  0.2295 -0.0165
  767MOL0     C 3464   8.026  10.925   2.095  0.0484  0.7355  0.7698
  767MOL0     C 3465   7.744  11.296   2.036 -0.1341 -0.5325  0.9504
  767MOL0     C 3466   7.852  11.394   2.040  0.6916 -0.3933 -0.5341
  767MOL0     C 3467   7.833  11.526   2.060 -0.6029  0.3675 -0.3170
  767MOL0     C 3468   7.717  11.577   2.097  0.4507  0.1924  0.4652
  767MOL0     O 3469   7.688  11.704   2.118  0.8113 -0.7656 -0.2521
  767MOL0     C 3470   7.767  11.769   2.223  0.7240  0.1093  0.0087
  767MOL0     C 3471   7.773  11.912   2.204  0.0449 -0.8204  0.3034
  767MOL0     C 3472   7.824  11.954   2.064 -1.4417 -1.2396  0.6166
  767MOL0     C 3473   7.918  12.069   2.065  0.1865  0.3926  1.1940
  767MOL0     C 3474   7.975  12.097   1.929 -0.0848 -0.3602  0.1749
  767MOL0     C 3475   8.026  12.132   1.822  1.1488  0.2757 -0.4957
  767MOL0     C 3476   7.608  11.486   2.077 -0.1447 -0.2519 -0.2730
  767MOL0     C 3477   7.616  11.350   2.034 -0.0283 -0.2254 -1.2270
  767MOL0     H 3478   7.916  11.062   1.807 -0.1715 -3.1204 -2.3832
  767MOL0     H 3479   8.008  10.858   1.713 -1.2386  3.4388 -1.5842
  767MOL0     H 3480   7.981  10.628   1.735  0.7185  1.8900  1.0017
  767MOL0     H 3481   8.136  10.652   1.653  0.1748  0.2947 -0.5658
  767MOL0     H 3482   8.218  10.439   1.736 -0.0515 -1.5120  1.9564
  767MOL0     H 3483   8.072  10.416   1.831  1.5100 -0.0123 -0.4879
  767MOL0     H 3484   7.930  10.385   1.639 -1.3700 -0.0603 -4.2927
  767MOL0     H 3485   8.045  10.453   1.522  2.5525  0.4913  1.9213
  767MOL0     H 3486   8.194  10.281   1.534 -1.1512 -2.2177 -0.5847
  767MOL0     H 3487   8.106  10.187   1.650 -0.4508 -0.6667 -1.2096
  767MOL0     H 3488   7.908  10.148   1.489 -0.0399 -1.8769  0.1491
  767MOL0     H 3489   7.990  10.256   1.384  0.4639 -1.6588 -0.4313
  767MOL0     H 3490   8.187  10.088   1.360  1.5650 -3.4380  0.3625
  767MOL0     H 3491   8.096   9.990   1.486  1.0631  0.5434  0.6726
  767MOL0     H 3492   7.899  10.008   1.321 -0.2288  2.9093 -1.2255
  767MOL0     H 3493   8.003  10.062   1.208 -1.7482  0.7413  0.6299
  767MOL0     H 3494   8.077   9.798   1.349  2.3217  0.6491 -0.7823
  767MOL0     H 3495   8.175   9.911   1.243 -1.1478  0.8755 -1.6346
  767MOL0     H 3496   7.917   9.627   1.216  0.3569  3.7713  3.5275
  767MOL0     H 3497   7.729   9.552   1.011 -2.6887  0.3482 -2.2192
  767MOL0     H 3498   7.770   9.632   0.851 -4.4287 -0.8113  1.8934
  767MOL0     H 3499   7.799   9.396   0.882  0.3761 -0.2289  0.3060
  767MOL0     H 3500   7.928   9.437   1.002 -0.8636  0.9187  1.6516
  767MOL0     H 3501   8.047   9.578   0.823  0.9786 -0.5890  0.5272
  767MOL0     H 3502   7.928   9.546   0.701 -1.2659 -3.2554 -0.9942
  767MOL0     H 3503   7.987   9.294   0.721 -1.3886  1.1058  0.4179
  767MOL0     H 3504   8.132   9.343   0.815  2.1658 -0.1923 -2.2134
  767MOL0     H 3505   8.304   9.473   0.484  0.7182 -2.5660 -1.4699
  767MOL0     H 3506   8.351   9.666   0.245  4.5291 -0.4994 -0.2400
  767MOL0     H 3507   8.414   9.511   0.287 -0.6594 -0.1319 -0.1400
  767MOL0     H 3508   8.329   9.532   0.129 -2.9252 -0.7109  0.4858
  767MOL0     H 3509   8.224   9.563  -0.159 -0.3529 -0.0732 -2.5603
  767MOL0     H 3510   8.191   9.649  -0.397 -0.1599  1.4872 -0.3358
  767MOL0     H 3511   8.242   9.832  -0.538  0.5592  0.1629 -1.1847
  767MOL0     H 3512   8.092   9.742  -0.582 -2.4190  0.5273  0.9482
  767MOL0     H 3513   8.164  10.026  -0.664  1.0161 -0.2639  0.3917
  767MOL0     H 3514   8.201   9.881  -0.765 -0.8048  2.4813 -1.5196
  767MOL0     H 3515   7.927  10.012  -0.727 -1.1956 -1.9453  1.4758
  767MOL0     H 3516   7.927   9.848  -0.732 -0.0643  0.5575  1.1524
  767MOL0     H 3517   8.098   9.984  -0.923 -0.1313  1.1739  3.4279
  767MOL0     H 3518   8.036   9.816  -0.946  0.3427 -0.0927  2.2718
  767MOL0     H 3519   7.937  10.025  -1.080 -3.2089  2.5920 -0.1614
  767MOL0     H 3520   7.854  10.058  -0.935 -0.1860  1.9809 -3.6095
  767MOL0     H 3521   7.855   9.804  -1.107  1.9525 -2.1486  3.5066
  767MOL0     H 3522   7.758   9.809  -0.955 -3.0917 -2.3574 -2.5087
  767MOL0     H 3523   7.678  10.047  -1.097 -0.3872 -0.4451  2.2499
  767MOL0     H 3524   7.580   9.907  -1.055 -0.4108 -2.6433 -2.9929
  767MOL0     H 3525   7.618   9.793  -1.251  1.0510 -0.8881  0.1469
  767MOL0     H 3526   7.746   9.908  -1.305  0.3556 -0.3953  0.3302
  767MOL0     H 3527   7.981   9.984  -0.240 -2.8404 -1.3855 -0.2709
  767MOL0     H 3528   7.996   9.874  -0.003 -2.2699 -4.3765  0.7080
  767MOL0     H 3529   7.860   9.498   0.276  1.5020 -0.4679 -3.2354
  767MOL0     H 3530   7.886   9.387   0.508 -2.0159  0.0045 -1.4299
  767MOL0     H 3531   8.111  10.713   2.083 -1.1238 -1.4876 -1.5801
  767MOL0     H 3532   8.031  10.945   2.202 -0.8485 -2.1726  1.4455
  767MOL0     H 3533   7.949  11.357   2.006  1.5604  1.5651 -0.3202
  767MOL0     H 3534   7.922  11.583   2.037  0.2707 -0.0726  1.6868
  767MOL0     H 3535   7.725  11.752   2.322 -1.4954  1.6504 -0.5756
  767MOL0     H 3536   7.868  11.728   2.221  1.2175  1.2402  0.5229
  767MOL0     H 3537   7.828  11.973   2.277 -0.2754  0.5382 -0.5650
  767MOL0     H 3538   7.669  11.944   2.214 -0.2282 -0.4562 -2.8788
  767MOL0     H 3539   7.738  11.972   2.000 -0.0495 -1.4229 -1.3934
  767MOL0     H 3540   7.874  11.862   2.032  0.3134  0.2161 -1.1009
  767MOL0     H 3541   7.998  12.060   2.140  0.8559 -3.0260  0.2253
  767MOL0     H 3542   7.870  12.167   2.076  1.5171  1.5172 -1.9212
  767MOL0     H 3543   8.058  12.175   1.729 -0.9905  2.3648 -0.3631
  767MOL0     H 3544   7.505  11.522   2.076  0.3937  1.4127 -1.9224
  767MOL0     H 3545   7.527  11.290   2.025 -1.2307  1.6514 -2.6251
  768MOL0     O 3546   8.376   7.594   6.382 -0.5498 -0.5325 -0.6172
  768MOL0     C 3547   8.432   7.576   6.492 -0.1294 -0.0040  0.7634
  768MOL0     O 3548   8.475   7.672   6.582 -0.1045 -0.0956 -0.2750
  768MOL0     C 3549   8.461   7.800   6.542 -0.6607 -0.3596 -0.0031
  768MOL0     C 3550   8.533   7.857   6.429  0.2091 -0.0904 -0.1596
  768MOL0     C 3551   8.527   7.990   6.397 -0.0768  0.1158 -1.1965
  768MOL0     C 3552   8.436   8.071   6.464  0.8302  0.3706 -0.9435
  768MOL0     O 3553   8.405   8.204   6.443 -0.0952 -0.0461 -0.5616
  768MOL0     C 3554   8.503   8.268   6.363 -0.6482  0.1120  1.1170
  768MOL0     C 3555   8.463   8.412   6.336 -0.2081  0.4537  1.0922
  768MOL0     C 3556   8.368   8.439   6.209  0.0157 -0.2715  0.5718
  768MOL0     C 3557   8.236   8.378   6.239 -0.5958 -0.0736 -0.2972
  768MOL0     C 3558   8.142   8.391   6.131 -0.3568  0.6173  0.8805
  768MOL0     C 3559   7.997   8.368   6.175  0.9518 -0.6034 -1.4309
  768MOL0     C 3560   7.890   8.385   6.051 -0.0049  0.3273 -1.0642
  768MOL0     C 3561   7.862   8.531   6.006  0.1098  0.0446 -0.4752
  768MOL0     N 3562   7.795   8.614   6.107  0.2754  0.3457 -0.5345
  768MOL0     C 3563   7.834   8.705   6.200  0.4016  0.0720  0.1926
  768MOL0     C 3564   7.721   8.771   6.239 -0.0790 -1.1340 -0.2604
  768MOL0     C 3565   7.714   8.891   6.333  0.2980 -0.6641  0.1499
  768MOL0     C 3566   7.727   8.829   6.475 -0.5691  1.1372 -0.7012
  768MOL0     C 3567   7.856   8.841   6.548 -0.4548 -1.2055  0.3054
  768MOL0     C 3568   7.909   8.978   6.587 -0.0217  0.4399  0.6396
  768MOL0     O 3569   7.803   9.029   6.675  0.4263  0.4438 -0.6830
  768MOL0     C 3570   7.837   9.144   6.743  0.4114  0.0579  0.2379
  768MOL0     C 3571   7.735   9.221   6.787  0.5405 -0.6258 -0.0596
  768MOL0     C 3572   7.761   9.343   6.857  0.1818  0.1198 -0.0850
  768MOL0     C 3573   7.640   9.429   6.907 -0.5513  0.0936  0.1377
  768MOL0     C 3574   7.899   9.373   6.895  1.0723 -0.9853  0.4571
  768MOL0     C 3575   7.931   9.483   6.973  1.1846 -0.0570  0.2082
  768MOL0     O 3576   7.835   9.509   7.073 -0.0197  0.7645  0.3346
  768MOL0     C 3577   7.880   9.597   7.170  1.2477  0.3356  0.3903
  768MOL0     C 3578   7.832   9.722   7.170 -0.2241  0.0674 -0.5141
  768MOL0     C 3579   7.865   9.804   7.275 -0.7662 -0.6443  0.6963
  768MOL0     C 3580   7.948   9.749   7.379  0.5534 -1.1686 -0.1780
  768MOL0     O 3581   7.985   9.827   7.485 -0.8122 -0.2564 -0.3384
  768MOL0     C 3582   7.952   9.960   7.490 -0.0637  0.2256 -0.5186
  768MOL0     C 3583   8.024  10.026   7.608  0.2771 -0.5750 -0.8587
  768MOL0     C 3584   7.947  10.151   7.660  0.0436 -0.8160  0.0315
  768MOL0     C 3585   8.020  10.213   7.776  0.4896 -0.3405 -0.2239
  768MOL0     C 3586   7.910  10.284   7.869 -0.4597 -0.3840  0.1717
  768MOL0     C 3587   7.981  10.400   7.947  0.0425  0.4249 -0.2179
  768MOL0     C 3588   7.891  10.485   8.024 -0.7914  0.8379 -0.5260
  768MOL0     C 3589   7.968  10.575   8.124 -1.4018  0.2291 -0.1690
  768MOL0    Cl 3590   8.018  10.482   8.276  0.2993  0.1755  0.2220
  768MOL0     C 3591   8.007   9.631   7.368  0.2873  0.5657  0.1153
  768MOL0     C 3592   7.974   9.551   7.262  0.6685 -0.6559  0.6223
  768MOL0     O 3593   8.025   9.553   6.943 -0.3006  0.2817 -0.2915
  768MOL0     C 3594   7.996   9.289   6.833  0.2247  0.0237 -0.5264
  768MOL0     C 3595   7.962   9.184   6.760 -0.1155  0.2746  0.7153
  768MOL0     N 3596   7.612   8.725   6.169 -1.2892  0.1449 -0.1130
  768MOL0     N 3597   7.659   8.632   6.091  0.3509  0.4419  0.2731
  768MOL0     C 3598   8.352   8.026   6.570 -1.1098 -0.0252 -0.4605
  768MOL0     C 3599   8.384   7.889   6.622  0.4675  0.0475  0.7572
  768MOL0     C 3600   8.446   7.437   6.536  0.1840  0.7252  0.0380
  768MOL0     C 3601   8.449   7.328   6.438 -0.3489  0.7408 -0.1068
  768MOL0     C 3602   8.468   7.197   6.483  0.3970 -0.0911  0.0342
  768MOL0     C 3603   8.503   7.169   6.620  0.2158  0.3284 -0.3722
  768MOL0     O 3604   8.543   7.060   6.679 -0.4545 -0.1451  0.0926
  768MOL0     C 3605   8.552   6.939   6.603  0.9588 -0.4514 -0.2784
  768MOL0     C 3606   8.664   6.920   6.494  0.0121  0.8227  0.4987
  768MOL0     C 3607   8.807   6.961   6.553  1.6438 -0.5777 -0.0389
  768MOL0     C 3608   8.909   6.846   6.558  0.9906 -0.4711 -0.1808
  768MOL0     C 3609   8.938   6.790   6.424 -0.4699 -0.4182 -0.4907
  768MOL0     C 3610   8.970   6.742   6.318  0.7950 -1.2852 -0.0664
  768MOL0     C 3611   8.493   7.277   6.711 -0.0497  0.4516  0.3466
  768MOL0     C 3612   8.465   7.409   6.673 -0.1802 -0.4793 -0.2325
  768MOL0     H 3613   8.592   7.787   6.370 -2.2161 -2.6976  0.2707
  768MOL0     H 3614   8.583   8.024   6.310 -1.1599  0.8792 -1.6207
  768MOL0     H 3615   8.597   8.276   6.418 -0.9971 -0.0426  1.7456
  768MOL0     H 3616   8.503   8.222   6.264 -0.1681  1.4500  0.4765
  768MOL0     H 3617   8.417   8.457   6.424 -0.8006  0.7563  0.6308
  768MOL0     H 3618   8.554   8.470   6.318 -1.6814  2.0335 -1.8959
  768MOL0     H 3619   8.354   8.546   6.195 -0.4445 -0.4642 -0.5197
  768MOL0     H 3620   8.417   8.402   6.119  0.1143  0.3633  0.3613
  768MOL0     H 3621   8.249   8.271   6.261 -0.4108  0.0584  0.2462
  768MOL0     H 3622   8.199   8.430   6.328  0.2555 -0.8087  0.5204
  768MOL0     H 3623   8.143   8.490   6.086 -2.9888  0.7980  1.0314
  768MOL0     H 3624   8.164   8.311   6.059 -1.8350  2.1119 -1.3575
  768MOL0     H 3625   7.993   8.269   6.220 -0.2968 -0.0763 -0.3038
  768MOL0     H 3626   7.967   8.437   6.255  0.4876 -1.2616 -1.0323
  768MOL0     H 3627   7.924   8.326   5.965 -0.8340 -3.8604  1.2148
  768MOL0     H 3628   7.794   8.338   6.075 -0.4373  2.4766  2.0893
  768MOL0     H 3629   7.800   8.527   5.916 -2.0148 -2.6039  0.9489
  768MOL0     H 3630   7.959   8.577   5.982  0.1507  0.0987 -0.2063
  768MOL0     H 3631   7.933   8.715   6.242  0.7925  3.1458 -1.2446
  768MOL0     H 3632   7.801   8.957   6.320  0.0820 -0.5796 -0.9955
  768MOL0     H 3633   7.613   8.932   6.324 -0.5454 -2.6202  0.1478
  768MOL0     H 3634   7.708   8.721   6.479  2.1919  0.6183  2.0585
  768MOL0     H 3635   7.647   8.874   6.535 -0.0748  0.2912  0.6578
  768MOL0     H 3636   7.937   8.798   6.489 -0.5912  0.3583 -1.1029
  768MOL0     H 3637   7.859   8.780   6.639 -0.0474  0.5894  1.5670
  768MOL0     H 3638   7.932   9.055   6.513 -2.3554  0.3491 -0.2621
  768MOL0     H 3639   7.994   8.954   6.653  0.8153  0.2763 -0.4681
  768MOL0     H 3640   7.640   9.195   6.741  0.6043 -1.5093  0.2772
  768MOL0     H 3641   7.607   9.420   7.011 -5.3192  0.4371 -1.1369
  768MOL0     H 3642   7.655   9.534   6.880 -1.2454 -0.5783 -3.2765
  768MOL0     H 3643   7.556   9.407   6.842  0.5591  0.5195 -1.4883
  768MOL0     H 3644   7.755   9.756   7.101  1.3529  2.3078 -1.2993
  768MOL0     H 3645   7.835   9.908   7.269  3.5944  1.1081  3.9293
  768MOL0     H 3646   7.983  10.005   7.395 -0.5543 -1.8697 -1.7487
  768MOL0     H 3647   7.844   9.978   7.503  0.2379  1.6325  0.2548
  768MOL0     H 3648   8.026   9.959   7.695 -0.4136 -1.4072 -1.4642
  768MOL0     H 3649   8.124  10.057   7.577  1.0062 -0.9731  0.9679
  768MOL0     H 3650   7.848  10.119   7.696  0.6235 -0.9597  1.5479
  768MOL0     H 3651   7.935  10.233   7.589 -0.6380 -1.9367 -1.2199
  768MOL0     H 3652   8.078  10.139   7.833 -1.7533 -0.6550  1.7872
  768MOL0     H 3653   8.087  10.289   7.734 -0.2651  2.4213  3.0388
  768MOL0     H 3654   7.846  10.225   7.935 -3.2664 -1.7828 -3.4366
  768MOL0     H 3655   7.840  10.332   7.800  1.9736  2.0850 -0.7812
  768MOL0     H 3656   8.055  10.368   8.021  0.1266  0.3543 -0.3322
  768MOL0     H 3657   8.037  10.469   7.883  1.7505  1.0156  1.8072
  768MOL0     H 3658   7.813  10.426   8.074  0.1520 -0.0282 -0.0233
  768MOL0     H 3659   7.849  10.555   7.951  0.4893  0.6087 -1.5128
  768MOL0     H 3660   7.907  10.664   8.143 -1.4314  0.6820 -2.1856
  768MOL0     H 3661   8.061  10.616   8.083 -0.7188 -1.1892 -0.1106
  768MOL0     H 3662   8.062   9.606   7.457 -0.1843  3.0319  1.1875
  768MOL0     H 3663   8.013   9.450   7.254  2.0948  0.0125 -1.7233
  768MOL0     H 3664   8.104   9.287   6.841  0.1616  1.3846  1.3560
  768MOL0     H 3665   8.048   9.144   6.708 -0.2587  3.8279 -2.6644
  768MOL0     H 3666   8.301   8.103   6.627  1.3056  2.0398 -0.8865
  768MOL0     H 3667   8.349   7.860   6.720  1.4055  0.2497  1.1666
  768MOL0     H 3668   8.426   7.361   6.337 -1.3841 -2.3010 -0.9668
  768MOL0     H 3669   8.464   7.118   6.408 -1.8419  0.1597 -0.1891
  768MOL0     H 3670   8.556   6.854   6.671  0.6741 -1.4368 -1.4577
  768MOL0     H 3671   8.449   6.941   6.564 -0.7529  4.0235  3.4656
  768MOL0     H 3672   8.645   6.969   6.398  1.9705 -2.1745 -1.5972
  768MOL0     H 3673   8.675   6.816   6.462 -1.2537  1.1721 -1.1876
  768MOL0     H 3674   8.799   6.993   6.657  0.6664 -2.2050  0.4230
  768MOL0     H 3675   8.862   7.038   6.499  0.6984 -0.0342 -0.2477
  768MOL0     H 3676   8.861   6.764   6.612 -1.7082 -0.0090 -1.7090
  768MOL0     H 3677   8.999   6.885   6.606  0.0551  1.2813  0.2320
  768MOL0     H 3678   8.972   6.703   6.218 -0.2002  1.6309 -1.3393
  768MOL0     H 3679   8.542   7.268   6.807  0.2248  1.5766  0.3232
  768MOL0     H 3680   8.468   7.485   6.750 -2.7768  0.5666 -1.0336
  769MOL0     O 3681   7.841   9.282   5.208 -0.5055  0.2456  0.0808
  769MOL0     C 3682   7.746   9.352   5.186  0.3922 -0.1076  1.3672
  769MOL0     O 3683   7.629   9.302   5.127 -0.4738  0.0670 -0.8411
  769MOL0     C 3684   7.599   9.171   5.133 -0.1264  0.5174  0.2899
  769MOL0     C 3685   7.573   9.118   5.257  0.5700  0.6180  0.3688
  769MOL0     C 3686   7.562   8.983   5.278 -0.2453  1.8165 -1.1397
  769MOL0     C 3687   7.559   8.891   5.176 -0.5924 -0.1878  0.0340
  769MOL0     O 3688   7.548   8.752   5.192 -0.2489  0.2275 -0.1829
  769MOL0     C 3689   7.496   8.710   5.321  0.2133  0.2842  0.1962
  769MOL0     C 3690   7.451   8.565   5.296  0.1387  1.3447  0.1351
  769MOL0     C 3691   7.569   8.473   5.314  0.0926  0.1533 -1.1354
  769MOL0     C 3692   7.589   8.373   5.195  0.3251  0.8933 -0.1820
  769MOL0     C 3693   7.736   8.338   5.169 -0.0006  0.5740 -0.0688
  769MOL0     C 3694   7.744   8.259   5.041  0.5575 -0.4922 -0.3291
  769MOL0     C 3695   7.890   8.236   4.998  0.6148  0.2781  0.1926
  769MOL0     C 3696   7.899   8.163   4.862 -0.3287 -0.6326 -0.4329
  769MOL0     N 3697   8.021   8.093   4.841 -0.6283  0.2995  0.0094
  769MOL0     C 3698   8.031   8.004   4.728  0.1152 -0.0751  0.3821
  769MOL0     C 3699   8.146   7.947   4.744 -0.1709  0.2662  0.5265
  769MOL0     C 3700   8.213   7.856   4.638  0.2284  0.9064  0.1062
  769MOL0     C 3701   8.269   7.728   4.694  0.4114 -1.0276  0.6256
  769MOL0     C 3702   8.407   7.724   4.767 -0.0694  0.4879  1.0217
  769MOL0     C 3703   8.419   7.606   4.868  0.5778 -0.2755 -0.4971
  769MOL0     O 3704   8.391   7.478   4.821 -0.2653 -0.1596 -0.5464
  769MOL0     C 3705   8.479   7.419   4.733 -1.4271  0.2633  0.1267
  769MOL0     C 3706   8.617   7.436   4.757  0.6074  0.3995  0.4209
  769MOL0     C 3707   8.718   7.396   4.670  0.0790  0.3749  0.0173
  769MOL0     C 3708   8.860   7.432   4.715 -0.7640  0.0195  0.5336
  769MOL0     C 3709   8.681   7.333   4.550  0.0978  0.5466 -0.3127
  769MOL0     C 3710   8.789   7.294   4.452  0.0806  0.1870 -0.0072
  769MOL0     O 3711   8.918   7.275   4.492  0.6124 -0.1574 -0.7802
  769MOL0     C 3712   9.026   7.309   4.425 -0.8744  0.3089  0.5306
  769MOL0     C 3713   9.145   7.317   4.495 -1.1530  0.0181  0.2077
  769MOL0     C 3714   9.272   7.357   4.434 -0.9344 -0.2849 -1.2706
  769MOL0     C 3715   9.273   7.386   4.295  0.2876  0.2015 -0.5259
  769MOL0     O 3716   9.396   7.418   4.246  1.1295  0.1074 -0.3524
  769MOL0     C 3717   9.492   7.312   4.227  0.5790 -0.1576 -0.7145
  769MOL0     C 3718   9.625   7.339   4.155 -0.9666  0.2867 -0.6779
  769MOL0     C 3719   9.618   7.466   4.052  0.0381  0.4195  0.0040
  769MOL0     C 3720   9.679   7.595   4.116 -0.5143  0.2769  0.0991
  769MOL0     C 3721   9.647   7.735   4.066  0.0112  0.4508 -0.3700
  769MOL0     C 3722   9.696   7.776   3.929  0.6933  0.0367  0.2315
  769MOL0     C 3723   9.823   7.850   3.914 -0.8584 -0.2290 -0.4319
  769MOL0     C 3724   9.956   7.798   3.977 -0.1920 -0.4493 -0.9802
  769MOL0    Cl 3725  10.048   7.716   3.848  0.0555 -0.1501 -0.6046
  769MOL0     C 3726   9.153   7.371   4.222 -0.9016  0.1306 -0.1773
  769MOL0     C 3727   9.040   7.331   4.290 -0.0809 -1.2449  0.0435
  769MOL0     O 3728   8.750   7.313   4.331 -0.0194  0.5331  0.8066
  769MOL0     C 3729   8.545   7.315   4.520 -0.7416  0.1002  0.5943
  769MOL0     C 3730   8.444   7.356   4.610 -0.4644 -0.2903 -1.2680
  769MOL0     N 3731   8.201   7.989   4.860  0.1711 -0.1357  0.7161
  769MOL0     N 3732   8.131   8.079   4.918  0.5172 -0.5853 -0.3996
  769MOL0     C 3733   7.565   8.946   5.040 -0.1191 -0.0537  0.9060
  769MOL0     C 3734   7.583   9.088   5.016  0.8376  0.1850  0.1753
  769MOL0     C 3735   7.728   9.491   5.230 -1.3203 -0.0691  0.8169
  769MOL0     C 3736   7.608   9.565   5.199  0.3149  0.1429  0.0214
  769MOL0     C 3737   7.589   9.688   5.262 -0.5531 -0.5133  0.2297
  769MOL0     C 3738   7.686   9.750   5.336  0.5359 -0.4203 -0.7793
  769MOL0     O 3739   7.694   9.872   5.399  0.6919  0.3621  0.7528
  769MOL0     C 3740   7.578   9.947   5.395 -0.1916 -0.3650  0.1164
  769MOL0     C 3741   7.557  10.025   5.269  0.3452  0.8716 -0.3584
  769MOL0     C 3742   7.682  10.092   5.215 -0.2295 -0.8818  0.0368
  769MOL0     C 3743   7.681  10.163   5.082  0.1796 -0.4024  0.1261
  769MOL0     C 3744   7.817  10.178   5.029  0.0515 -0.2779 -0.5791
  769MOL0     C 3745   7.934  10.200   4.987  0.1312 -0.1940 -0.3006
  769MOL0     C 3746   7.807   9.687   5.349  0.3994 -0.0397 -0.3693
  769MOL0     C 3747   7.824   9.556   5.306  0.1357  0.3575  0.3896
  769MOL0     H 3748   7.571   9.176   5.349  0.0616 -2.5861  2.5303
  769MOL0     H 3749   7.564   8.974   5.387  2.8507 -0.8025 -1.2620
  769MOL0     H 3750   7.575   8.714   5.397  1.3586 -1.4098 -0.8426
  769MOL0     H 3751   7.405   8.756   5.362 -0.3160 -0.7149  0.1518
  769MOL0     H 3752   7.384   8.539   5.379  0.8139 -3.7779 -0.6237
  769MOL0     H 3753   7.401   8.541   5.201  0.3090 -2.6574  0.8901
  769MOL0     H 3754   7.656   8.538   5.300  0.4540 -0.3487 -1.2424
  769MOL0     H 3755   7.594   8.425   5.408  3.6595 -0.6769 -2.3532
  769MOL0     H 3756   7.537   8.279   5.214 -0.0855  1.2761  0.6139
  769MOL0     H 3757   7.554   8.403   5.095 -1.1947 -0.4102 -0.0832
  769MOL0     H 3758   7.794   8.426   5.141  1.4720 -0.4848 -0.4844
  769MOL0     H 3759   7.786   8.293   5.255 -0.5168  1.8499  0.9419
  769MOL0     H 3760   7.686   8.168   5.057  2.2213 -1.4615  0.3940
  769MOL0     H 3761   7.705   8.305   4.950  0.3129  1.0729  0.5231
  769MOL0     H 3762   7.932   8.337   4.991  0.8692  0.2524  1.2336
  769MOL0     H 3763   7.954   8.193   5.076  1.6353  1.4443  0.0274
  769MOL0     H 3764   7.875   8.234   4.782 -2.0288  0.0092  0.5795
  769MOL0     H 3765   7.826   8.082   4.861  0.6290 -1.5085 -1.0567
  769MOL0     H 3766   7.973   7.981   4.639 -1.2884 -0.4316  1.3595
  769MOL0     H 3767   8.146   7.821   4.558  2.3647  0.3400 -1.5431
  769MOL0     H 3768   8.290   7.919   4.592  0.9204 -0.5082 -0.7400
  769MOL0     H 3769   8.277   7.660   4.608  0.0029  1.1745 -1.2380
  769MOL0     H 3770   8.186   7.687   4.754 -3.4776  1.0643 -2.7914
  769MOL0     H 3771   8.427   7.819   4.817  2.0389  0.8951 -0.4587
  769MOL0     H 3772   8.485   7.711   4.691  0.4915 -0.5942  1.7362
  769MOL0     H 3773   8.338   7.622   4.941  0.2793  3.5988 -1.4251
  769MOL0     H 3774   8.517   7.611   4.916  0.4314  1.8301 -0.3252
  769MOL0     H 3775   8.651   7.508   4.831 -0.2203  3.2567 -1.8057
  769MOL0     H 3776   8.923   7.345   4.737 -0.0269  0.5409  0.5185
  769MOL0     H 3777   8.895   7.505   4.642 -2.4878  1.0737  0.7313
  769MOL0     H 3778   8.855   7.482   4.813  0.3231  1.9438 -0.3347
  769MOL0     H 3779   9.150   7.295   4.601  2.0753 -1.4887 -0.1219
  769MOL0     H 3780   9.365   7.362   4.489  0.1216 -2.2780 -2.7553
  769MOL0     H 3781   9.518   7.276   4.326 -0.6218 -0.0631 -0.3568
  769MOL0     H 3782   9.448   7.229   4.171 -0.0911  1.6503 -3.0686
  769MOL0     H 3783   9.711   7.346   4.222  1.9532 -2.5368 -3.7457
  769MOL0     H 3784   9.646   7.248   4.098 -0.1332  1.9659 -3.2344
  769MOL0     H 3785   9.511   7.473   4.027  0.0151  0.7796  0.1946
  769MOL0     H 3786   9.674   7.441   3.962 -2.4661  0.9632 -1.8058
  769MOL0     H 3787   9.632   7.605   4.214 -0.4247  2.3206 -0.0323
  769MOL0     H 3788   9.784   7.573   4.139 -0.7458  0.6423  1.6162
  769MOL0     H 3789   9.689   7.804   4.140  2.6117  0.5137 -1.8086
  769MOL0     H 3790   9.538   7.742   4.067  0.0011  1.1224  2.1471
  769MOL0     H 3791   9.702   7.683   3.872  3.8742  0.4218 -0.2669
  769MOL0     H 3792   9.618   7.844   3.893  0.8430 -0.7670 -1.7130
  769MOL0     H 3793   9.795   7.939   3.971 -2.7800 -3.1638  3.7814
  769MOL0     H 3794   9.839   7.874   3.809 -2.4963  1.1441 -0.4083
  769MOL0     H 3795   9.935   7.734   4.063 -0.0699  0.0228 -0.5901
  769MOL0     H 3796  10.022   7.880   4.006  1.2672  0.1872 -5.3621
  769MOL0     H 3797   9.146   7.370   4.113  1.9646 -0.0859 -0.4468
  769MOL0     H 3798   8.948   7.333   4.232 -0.3304  0.6696  0.4567
  769MOL0     H 3799   8.506   7.268   4.430  1.0713 -0.2292 -0.0668
  769MOL0     H 3800   8.340   7.357   4.576 -1.2431 -0.0166  0.9659
  769MOL0     H 3801   7.568   8.873   4.959 -0.8629  2.7513 -1.8447
  769MOL0     H 3802   7.592   9.143   4.923  2.5076  1.4909  1.0649
  769MOL0     H 3803   7.530   9.527   5.133  0.4134 -3.2460  1.6447
  769MOL0     H 3804   7.497   9.743   5.247  2.1432  4.1777 -0.8402
  769MOL0     H 3805   7.486   9.889   5.412 -0.6264 -0.7046 -2.8316
  769MOL0     H 3806   7.588  10.009   5.485  1.5804 -0.2450 -0.1421
  769MOL0     H 3807   7.477  10.097   5.284  1.4279  2.1352 -0.4477
  769MOL0     H 3808   7.517   9.958   5.192 -1.1064 -0.5719  1.5411
  769MOL0     H 3809   7.769  10.026   5.213  0.9256  0.4841 -4.1132
  769MOL0     H 3810   7.711  10.165   5.292 -3.8862  0.2099  0.5794
  769MOL0     H 3811   7.642  10.263   5.104  2.6240  1.5683 -3.4686
  769MOL0     H 3812   7.614  10.115   5.010 -1.7632  0.5038  1.2326
  769MOL0     H 3813   8.035  10.218   4.956  0.5388  2.0388  1.9870
  769MOL0     H 3814   7.887   9.738   5.403 -0.6562  1.0062  0.2355
  769MOL0     H 3815   7.921   9.513   5.326  0.0111 -0.2238 -0.2162
  770MOL0     O 3816   9.845   3.928   7.696 -0.0670  0.1466  0.3374
  770MOL0     C 3817   9.857   3.886   7.580  1.1974  0.7697 -0.8617
  770MOL0     O 3818   9.755   3.867   7.490 -0.3184  1.2175  0.1561
  770MOL0     C 3819   9.622   3.877   7.527 -0.3127 -0.0441 -0.0205
  770MOL0     C 3820   9.529   3.798   7.463 -0.3533 -0.4890  0.4863
  770MOL0     C 3821   9.392   3.803   7.489  0.2008  0.1250 -0.8346
  770MOL0     C 3822   9.340   3.878   7.596 -0.2769  0.2525 -0.2762
  770MOL0     O 3823   9.214   3.881   7.648 -0.0301 -0.3655 -0.6549
  770MOL0     C 3824   9.113   3.791   7.597  0.9117  0.4681  0.1002
  770MOL0     C 3825   8.983   3.778   7.678  0.2717 -0.3521  0.8776
  770MOL0     C 3826   9.011   3.771   7.830  0.2626 -0.9973 -0.3991
  770MOL0     C 3827   9.084   3.650   7.886  0.1798 -0.3675  1.0835
  770MOL0     C 3828   9.023   3.512   7.860  0.3708  0.1638 -0.1402
  770MOL0     C 3829   8.872   3.510   7.885  1.4498  0.3010 -0.4575
  770MOL0     C 3830   8.823   3.537   8.038 -0.1031 -0.4851 -0.0170
  770MOL0     C 3831   8.670   3.514   8.045  0.0811  0.6144 -0.0820
  770MOL0     N 3832   8.631   3.370   8.055  0.3872  0.4879 -0.4001
  770MOL0     C 3833   8.628   3.293   8.173 -0.1954  0.1878 -0.0778
  770MOL0     C 3834   8.562   3.175   8.152 -1.1350  0.2062 -0.0688
  770MOL0     C 3835   8.521   3.076   8.255 -0.6642  0.5657  0.9105
  770MOL0     C 3836   8.566   2.938   8.206 -0.2309  0.3085 -0.1207
  770MOL0     C 3837   8.606   2.824   8.313 -0.3840  0.4671  0.4336
  770MOL0     C 3838   8.478   2.753   8.357 -0.1365  0.7789 -0.6003
  770MOL0     O 3839   8.369   2.837   8.398 -0.2394  0.1260 -0.0780
  770MOL0     C 3840   8.367   2.875   8.526 -0.1298 -0.6965 -0.5887
  770MOL0     C 3841   8.266   2.969   8.559 -0.3809 -0.3746  0.1334
  770MOL0     C 3842   8.243   3.024   8.685 -0.4275 -1.0169 -0.1375
  770MOL0     C 3843   8.127   3.118   8.699 -0.3424 -0.1477 -0.3116
  770MOL0     C 3844   8.337   2.993   8.788 -0.2720 -0.2441 -0.2869
  770MOL0     C 3845   8.345   3.054   8.914 -0.1135  0.5715 -0.0187
  770MOL0     O 3846   8.234   3.104   8.960  0.3770  0.1318  0.1702
  770MOL0     C 3847   8.205   3.128   9.093 -0.6718 -0.3093  0.1018
  770MOL0     C 3848   8.283   3.227   9.165 -0.0591 -0.3027  0.2180
  770MOL0     C 3849   8.260   3.241   9.297  0.7038 -0.0320 -0.7251
  770MOL0     C 3850   8.157   3.168   9.361 -0.0817 -0.7065 -0.3280
  770MOL0     O 3851   8.141   3.186   9.498  0.7112 -0.2020  0.1974
  770MOL0     C 3852   8.021   3.272   9.511 -0.4524 -0.0968  0.4611
  770MOL0     C 3853   7.984   3.270   9.664  0.3905  0.0098 -0.4741
  770MOL0     C 3854   8.104   3.300   9.754  0.7881  0.5596  0.5149
  770MOL0     C 3855   8.116   3.439   9.816  0.3376 -0.4610 -0.2698
  770MOL0     C 3856   8.026   3.463   9.933 -0.3936  0.0511 -0.1584
  770MOL0     C 3857   8.052   3.599   9.994 -0.0867  0.4373  0.4370
  770MOL0     C 3858   7.984   3.604  10.127  0.1345  0.5801  0.6556
  770MOL0     C 3859   7.997   3.746  10.189 -1.1470 -0.0940 -0.7909
  770MOL0    Cl 3860   7.896   3.876  10.114 -0.3527  0.2722  0.0913
  770MOL0     C 3861   8.085   3.077   9.296 -0.7207  0.1437  0.0261
  770MOL0     C 3862   8.110   3.048   9.160 -0.5762 -0.0401  0.0697
  770MOL0     O 3863   8.440   3.023   8.989  0.3498  0.3978  0.0268
  770MOL0     C 3864   8.446   2.903   8.758  0.0157  0.3768  0.2142
  770MOL0     C 3865   8.459   2.848   8.629  0.0240 -0.3115 -0.6423
  770MOL0     N 3866   8.528   3.180   8.019 -0.0711 -0.3976 -0.2321
  770MOL0     N 3867   8.559   3.301   7.969 -0.0656 -0.0669 -0.7245
  770MOL0     C 3868   9.432   3.946   7.670 -0.0761  0.1371 -0.3095
  770MOL0     C 3869   9.566   3.954   7.635  0.5875  0.5418 -0.1513
  770MOL0     C 3870   9.986   3.843   7.538 -0.7624 -0.3679  0.7890
  770MOL0     C 3871  10.007   3.776   7.415 -0.4736 -0.1012 -0.6974
  770MOL0     C 3872  10.133   3.739   7.376 -1.2066  0.6307  0.0843
  770MOL0     C 3873  10.245   3.788   7.445  0.1972 -0.0431 -0.7388
  770MOL0     O 3874  10.371   3.751   7.406  0.5607  0.2473 -0.0407
  770MOL0     C 3875  10.450   3.661   7.477  0.6984  0.8455  0.1490
  770MOL0     C 3876  10.591   3.659   7.422  0.6239  0.5764  0.1461
  770MOL0     C 3877  10.656   3.784   7.472  0.3891 -0.7549  1.0088
  770MOL0     C 3878  10.786   3.825   7.407  0.1190  0.0882 -0.2139
  770MOL0     C 3879  10.898   3.759   7.466  0.1752 -0.4242  0.7259
  770MOL0     C 3880  11.000   3.709   7.504  0.0196 -0.2336 -0.2097
  770MOL0     C 3881  10.231   3.847   7.569  1.0885 -0.3346 -0.6192
  770MOL0     C 3882  10.098   3.869   7.623  0.2207 -0.2298  0.3925
  770MOL0     H 3883   9.566   3.745   7.376 -0.1833 -0.1033  0.3240
  770MOL0     H 3884   9.329   3.740   7.426 -2.8557  1.5836  0.5158
  770MOL0     H 3885   9.072   3.806   7.496 -4.1738 -0.5556  1.7145
  770MOL0     H 3886   9.137   3.685   7.588 -1.4652 -0.0317 -1.3397
  770MOL0     H 3887   8.934   3.874   7.657 -0.3470 -0.6515  0.9502
  770MOL0     H 3888   8.932   3.692   7.635  2.8208 -1.4996 -0.0639
  770MOL0     H 3889   9.059   3.858   7.876 -1.7672  0.1321 -0.2712
  770MOL0     H 3890   8.907   3.775   7.866 -0.0199 -2.6338 -0.9593
  770MOL0     H 3891   9.189   3.658   7.856  0.1929 -0.4352  1.1108
  770MOL0     H 3892   9.085   3.666   7.994  0.5350 -0.6523  1.1259
  770MOL0     H 3893   9.034   3.502   7.752 -1.5487  3.0532 -0.7361
  770MOL0     H 3894   9.077   3.429   7.905  3.2442  1.1885 -1.5053
  770MOL0     H 3895   8.816   3.584   7.828  0.7255  0.3620  0.3200
  770MOL0     H 3896   8.837   3.414   7.846  0.9907  1.6274 -3.5429
  770MOL0     H 3897   8.869   3.473   8.114 -1.7786 -1.2329  0.4284
  770MOL0     H 3898   8.837   3.641   8.069 -0.0851 -0.6516  0.5443
  770MOL0     H 3899   8.626   3.556   7.954 -0.9366  0.9649  0.5454
  770MOL0     H 3900   8.641   3.579   8.128  3.8677 -0.8476  2.6829
  770MOL0     H 3901   8.670   3.326   8.268 -1.6248  0.2087  0.5722
  770MOL0     H 3902   8.565   3.100   8.352  1.4729 -1.0237  0.4047
  770MOL0     H 3903   8.411   3.075   8.259 -0.6943  1.3351  0.5359
  770MOL0     H 3904   8.660   2.941   8.148 -0.1871  1.5069 -0.0091
  770MOL0     H 3905   8.495   2.898   8.133  0.1116  1.4576 -1.1267
  770MOL0     H 3906   8.671   2.856   8.395  1.8103  0.8533 -1.3425
  770MOL0     H 3907   8.665   2.750   8.258 -3.4246 -0.8257 -1.3667
  770MOL0     H 3908   8.506   2.680   8.434 -1.4884  0.2822 -0.5456
  770MOL0     H 3909   8.432   2.695   8.276 -1.2649 -1.0393  1.2405
  770MOL0     H 3910   8.207   3.000   8.474  0.8100  1.1147 -0.2035
  770MOL0     H 3911   8.064   3.098   8.612  0.2857 -0.7432 -0.6439
  770MOL0     H 3912   8.079   3.088   8.792  1.0449 -1.7814 -0.0692
  770MOL0     H 3913   8.149   3.225   8.713  0.7306 -0.4915  0.8262
  770MOL0     H 3914   8.363   3.283   9.119 -0.2015 -1.5358 -1.6702
  770MOL0     H 3915   8.308   3.309   9.365  1.6751 -2.2146  0.8829
  770MOL0     H 3916   8.050   3.376   9.489 -0.2083 -0.4605 -1.0663
  770MOL0     H 3917   7.934   3.248   9.449 -0.3270  0.4947  0.0426
  770MOL0     H 3918   7.912   3.346   9.696  2.1883  0.8843  1.7850
  770MOL0     H 3919   7.934   3.176   9.687  2.3019 -1.1912 -1.0095
  770MOL0     H 3920   8.199   3.282   9.704  0.9050  3.7775 -0.6347
  770MOL0     H 3921   8.102   3.222   9.831  0.3304 -1.2487 -1.2417
  770MOL0     H 3922   8.221   3.458   9.842  0.2808 -1.2940  0.5985
  770MOL0     H 3923   8.097   3.515   9.740  0.2980  0.1799  0.3739
  770MOL0     H 3924   8.029   3.379  10.004 -0.3487  2.2035  2.5278
  770MOL0     H 3925   7.921   3.468   9.903 -0.4649 -0.3115  0.0124
  770MOL0     H 3926   8.161   3.609  10.002  0.1013 -1.5353  0.7553
  770MOL0     H 3927   8.017   3.683   9.934  0.4208  0.0096 -0.4843
  770MOL0     H 3928   8.031   3.537  10.200  0.3674 -1.3429 -1.1564
  770MOL0     H 3929   7.880   3.574  10.114 -0.1969  1.9461 -0.0321
  770MOL0     H 3930   8.104   3.769  10.199 -0.7340 -2.0037 -0.3964
  770MOL0     H 3931   7.961   3.732  10.291  0.9206 -2.5278 -0.2955
  770MOL0     H 3932   8.022   3.019   9.363  0.0924 -0.6047  0.1556
  770MOL0     H 3933   8.051   2.977   9.104  1.4931  0.7404 -3.4278
  770MOL0     H 3934   8.509   2.861   8.835 -1.1886 -2.1375 -0.0827
  770MOL0     H 3935   8.544   2.780   8.622  2.4434  2.5680 -1.3733
  770MOL0     H 3936   9.406   3.989   7.766  3.4456  0.9823  0.4061
  770MOL0     H 3937   9.619   4.016   7.707  2.1368  0.4119 -1.1309
  770MOL0     H 3938   9.924   3.753   7.349  0.3705 -2.7423 -0.9666
  770MOL0     H 3939  10.149   3.689   7.281 -1.7466 -0.2825  0.4620
  770MOL0     H 3940  10.444   3.696   7.580 -1.4362  1.0403  0.0012
  770MOL0     H 3941  10.390   3.570   7.468 -0.5960  1.4059  2.2912
  770MOL0     H 3942  10.603   3.650   7.314 -0.0960  0.7406  0.0467
  770MOL0     H 3943  10.640   3.573   7.469 -1.9540  0.4039  2.8589
  770MOL0     H 3944  10.667   3.795   7.580  1.4996  1.5254  0.7181
  770MOL0     H 3945  10.588   3.867   7.454  3.0131  1.4309  0.5626
  770MOL0     H 3946  10.808   3.928   7.433 -0.3353  0.3427 -0.8144
  770MOL0     H 3947  10.792   3.803   7.300  0.2025 -0.1365 -0.1639
  770MOL0     H 3948  11.085   3.672   7.558  0.5935  1.8421  0.4134
  770MOL0     H 3949  10.319   3.860   7.631  1.4820 -2.2352 -0.7254
  770MOL0     H 3950  10.087   3.914   7.721  5.3930 -1.6220  1.9391
  771MOL0     O 3951   6.596   7.870  10.367 -0.7748 -0.1434 -1.4889
  771MOL0     C 3952   6.698   7.867  10.450  0.5122  0.1998  0.4998
  771MOL0     O 3953   6.799   7.779  10.461  0.2841  0.5361  1.0977
  771MOL0     C 3954   6.778   7.654  10.401  0.4548 -0.1394  0.4178
  771MOL0     C 3955   6.826   7.628  10.272  0.3555  0.9754  0.9009
  771MOL0     C 3956   6.799   7.505  10.202 -1.1686 -0.4794 -1.5470
  771MOL0     C 3957   6.722   7.404  10.273  0.0001 -0.8323 -0.2694
  771MOL0     O 3958   6.674   7.292  10.222 -0.5970  0.0984  0.2102
  771MOL0     C 3959   6.728   7.235  10.097  0.1019 -0.8533  0.8400
  771MOL0     C 3960   6.678   7.094  10.077  0.5385 -0.3201 -0.3565
  771MOL0     C 3961   6.687   7.068   9.927  0.1971  0.6906  0.1844
  771MOL0     C 3962   6.644   6.924   9.878 -0.5969 -0.1632 -0.8622
  771MOL0     C 3963   6.641   6.916   9.722 -0.7706  0.1260  0.6316
  771MOL0     C 3964   6.646   6.764   9.682 -0.8334 -0.6633 -0.4164
  771MOL0     C 3965   6.634   6.757   9.533  0.8356  0.2808  0.5660
  771MOL0     C 3966   6.676   6.618   9.480 -0.5526 -0.6332  0.0620
  771MOL0     N 3967   6.610   6.510   9.535 -0.0130 -0.1309  0.0487
  771MOL0     C 3968   6.666   6.407   9.610  0.1125  0.2021 -0.5751
  771MOL0     C 3969   6.565   6.320   9.632  0.3495 -0.5761  0.3961
  771MOL0     C 3970   6.570   6.194   9.709  0.0631 -0.0559 -0.6829
  771MOL0     C 3971   6.618   6.074   9.629 -1.0436  0.8999  0.0029
  771MOL0     C 3972   6.624   5.946   9.707 -0.7049 -0.5735  0.2206
  771MOL0     C 3973   6.501   5.919   9.803  0.0938 -0.0332 -0.3566
  771MOL0     O 3974   6.523   6.000   9.920  0.2953 -0.3206  0.8725
  771MOL0     C 3975   6.431   6.004  10.026  0.2379  0.1662  0.8166
  771MOL0     C 3976   6.455   6.074  10.147 -0.4398 -1.2391  0.6414
  771MOL0     C 3977   6.364   6.061  10.257 -0.7050 -0.9112 -0.8682
  771MOL0     C 3978   6.398   6.154  10.372  0.5279  0.1928 -0.3156
  771MOL0     C 3979   6.249   5.982  10.249 -0.1127 -0.1096 -0.1508
  771MOL0     C 3980   6.148   5.951  10.355 -0.0019  0.8149  0.7816
  771MOL0     O 3981   6.040   5.878  10.311  0.1194  0.1356  0.0959
  771MOL0     C 3982   5.972   5.806  10.406 -0.1564 -0.3640  0.7953
  771MOL0     C 3983   6.034   5.712  10.489  0.1437 -0.4603  0.1513
  771MOL0     C 3984   5.967   5.647  10.589  0.6649  0.6286 -0.3203
  771MOL0     C 3985   5.831   5.660  10.603 -0.0822  0.7842 -0.3876
  771MOL0     O 3986   5.761   5.604  10.704 -0.3575 -0.9168 -0.2442
  771MOL0     C 3987   5.624   5.599  10.718  0.1978 -1.0063 -0.2914
  771MOL0     C 3988   5.581   5.529  10.844  0.3192 -0.4519  0.4782
  771MOL0     C 3989   5.656   5.598  10.959 -1.3319  0.1931  0.0466
  771MOL0     C 3990   5.613   5.533  11.094 -0.1670  0.4851 -0.0223
  771MOL0     C 3991   5.578   5.633  11.203  0.4807 -0.0704  0.5690
  771MOL0     C 3992   5.587   5.577  11.349  0.1919 -0.3640 -1.1069
  771MOL0     C 3993   5.571   5.695  11.437  0.3849  0.0694 -0.1981
  771MOL0     C 3994   5.574   5.650  11.580  0.0620  0.6779 -0.3994
  771MOL0    Cl 3995   5.716   5.539  11.617  0.3564 -0.0641 -0.1908
  771MOL0     C 3996   5.768   5.743  10.510 -0.4200 -0.3031 -0.1449
  771MOL0     C 3997   5.835   5.814  10.410  0.5974  0.5437 -0.1195
  771MOL0     O 3998   6.154   6.006  10.460 -0.1013 -0.3959  0.2944
  771MOL0     C 3999   6.230   5.923  10.124  0.3718  0.1369  0.3586
  771MOL0     C 4000   6.310   5.935  10.024  0.6482  0.4006  0.0129
  771MOL0     N 4001   6.448   6.368   9.574  0.0504 -0.4326 -1.1633
  771MOL0     N 4002   6.479   6.483   9.517 -1.1336  0.4177 -1.2755
  771MOL0     C 4003   6.683   7.435  10.404  0.4754  0.7679  0.0137
  771MOL0     C 4004   6.723   7.553  10.473  0.1398 -0.2049  0.1871
  771MOL0     C 4005   6.726   7.978  10.536 -0.3232 -0.4615 -0.1293
  771MOL0     C 4006   6.853   8.006  10.591 -0.3532 -1.4777  0.3870
  771MOL0     C 4007   6.873   8.118  10.687 -0.8098  0.9524  0.0372
  771MOL0     C 4008   6.768   8.202  10.730  0.3228  0.1235 -0.4830
  771MOL0     O 4009   6.797   8.304  10.817 -0.2033  0.0703 -0.3379
  771MOL0     C 4010   6.694   8.398  10.856  0.5583  0.1790 -0.6540
  771MOL0     C 4011   6.633   8.357  10.989 -0.0663 -0.1375  0.2371
  771MOL0     C 4012   6.726   8.360  11.111  0.2527 -0.2563 -0.4555
  771MOL0     C 4013   6.657   8.328  11.237  0.4914 -0.4430 -0.3115
  771MOL0     C 4014   6.569   8.428  11.299  0.6175 -0.8164 -0.3263
  771MOL0     C 4015   6.500   8.507  11.359  0.6270 -0.6614  0.3102
  771MOL0     C 4016   6.641   8.177  10.680  0.9336 -0.4796  0.1744
  771MOL0     C 4017   6.629   8.065  10.587  0.6182 -0.4018 -1.0386
  771MOL0     H 4018   6.868   7.715  10.223 -0.8140  0.5320 -0.9914
  771MOL0     H 4019   6.817   7.496  10.096  1.3721  1.8614 -1.4100
  771MOL0     H 4020   6.688   7.309  10.027 -0.2391  1.8041  3.6500
  771MOL0     H 4021   6.837   7.239  10.101  0.1016  0.1811  0.3450
  771MOL0     H 4022   6.734   7.023  10.137  1.0629  1.5858  1.5182
  771MOL0     H 4023   6.569   7.101  10.091  0.3805 -2.6570  0.0784
  771MOL0     H 4024   6.617   7.133   9.875 -0.4574  1.2210  1.6582
  771MOL0     H 4025   6.790   7.082   9.893  0.2098 -1.1088 -0.6325
  771MOL0     H 4026   6.702   6.839   9.914  0.3022 -0.7516 -3.4398
  771MOL0     H 4027   6.547   6.898   9.921 -0.6935  1.7547  0.2017
  771MOL0     H 4028   6.552   6.965   9.680  0.4359  2.1491  0.2806
  771MOL0     H 4029   6.727   6.967   9.679 -0.9156 -1.1531 -1.3160
  771MOL0     H 4030   6.739   6.716   9.713 -0.6320 -1.6699 -2.4692
  771MOL0     H 4031   6.561   6.718   9.734 -1.1411  1.5721  1.2573
  771MOL0     H 4032   6.534   6.775   9.492  1.0926 -2.0293 -1.3726
  771MOL0     H 4033   6.701   6.826   9.481 -0.2928 -1.1019 -3.1086
  771MOL0     H 4034   6.784   6.616   9.499 -0.1461  0.4683 -1.8060
  771MOL0     H 4035   6.669   6.627   9.371 -1.1929 -1.8249 -0.0073
  771MOL0     H 4036   6.773   6.390   9.623 -0.1824 -0.6365  0.9750
  771MOL0     H 4037   6.632   6.211   9.797 -0.5035 -1.2100 -0.0350
  771MOL0     H 4038   6.464   6.194   9.738 -0.5500  0.0644 -2.7512
  771MOL0     H 4039   6.711   6.099   9.577 -1.0240  0.1533 -0.3404
  771MOL0     H 4040   6.568   6.055   9.533  0.0360 -3.3330  0.0598
  771MOL0     H 4041   6.713   5.942   9.771  1.2537 -0.4235 -2.3054
  771MOL0     H 4042   6.623   5.863   9.634  0.3213  3.5834 -5.2045
  771MOL0     H 4043   6.512   5.811   9.818  1.2659  0.1008 -0.1021
  771MOL0     H 4044   6.404   5.944   9.760 -0.8743  0.8513  2.1348
  771MOL0     H 4045   6.549   6.126  10.161 -0.9586 -0.5613  1.6744
  771MOL0     H 4046   6.342   6.248  10.372  2.4696  1.4460  1.6993
  771MOL0     H 4047   6.374   6.102  10.465 -3.8390 -0.5357 -1.6053
  771MOL0     H 4048   6.503   6.184  10.374  0.4214  0.5375  0.3853
  771MOL0     H 4049   6.138   5.678  10.490  0.2858 -0.0761  1.5572
  771MOL0     H 4050   6.015   5.586  10.664 -4.7131 -0.7953  2.5007
  771MOL0     H 4051   5.585   5.701  10.722  2.1438  0.0014 -3.5291
  771MOL0     H 4052   5.581   5.540  10.637 -1.4902 -0.1810 -0.0443
  771MOL0     H 4053   5.472   5.519  10.847  0.3858 -1.0113  3.0366
  771MOL0     H 4054   5.612   5.424  10.837 -0.4171 -0.5883 -2.1394
  771MOL0     H 4055   5.634   5.705  10.958 -0.0064  0.4785 -0.9481
  771MOL0     H 4056   5.763   5.578  10.956 -1.5357 -0.9954 -0.2926
  771MOL0     H 4057   5.528   5.464  11.087 -1.4091  1.6463  2.4555
  771MOL0     H 4058   5.699   5.470  11.119 -0.2446  0.2916 -0.2398
  771MOL0     H 4059   5.482   5.683  11.185 -0.3607 -1.4188  1.1490
  771MOL0     H 4060   5.656   5.707  11.184 -0.3085  0.5890 -0.1903
  771MOL0     H 4061   5.503   5.509  11.368 -0.5835  0.6389 -0.8579
  771MOL0     H 4062   5.691   5.549  11.370 -0.2858 -1.2527  0.2104
  771MOL0     H 4063   5.472   5.738  11.424  0.5311  0.0075 -1.6661
  771MOL0     H 4064   5.644   5.775  11.425  0.8339 -0.3218 -0.1092
  771MOL0     H 4065   5.478   5.602  11.597 -2.4752  4.3400 -2.8146
  771MOL0     H 4066   5.574   5.734  11.650  2.7189 -0.4375  1.1081
  771MOL0     H 4067   5.661   5.763  10.507 -0.1641  1.2101 -0.1876
  771MOL0     H 4068   5.791   5.888  10.343  3.4850  2.8126  0.2532
  771MOL0     H 4069   6.143   5.861  10.107  0.3027  0.7082 -1.7168
  771MOL0     H 4070   6.283   5.876   9.937  0.1426  1.0884 -0.2986
  771MOL0     H 4071   6.617   7.363  10.450 -0.4398 -2.5253 -5.4859
  771MOL0     H 4072   6.692   7.569  10.576  1.5047  2.5117  0.2710
  771MOL0     H 4073   6.934   7.949  10.546 -1.4794 -0.1630 -3.7854
  771MOL0     H 4074   6.974   8.138  10.721 -1.0539  0.1527  1.3397
  771MOL0     H 4075   6.742   8.496  10.856  0.5248  0.2083  0.6003
  771MOL0     H 4076   6.610   8.395  10.785  0.4384  2.1489 -0.6401
  771MOL0     H 4077   6.604   8.254  10.966  0.9151 -0.4822  0.5036
  771MOL0     H 4078   6.543   8.413  11.016  1.3411  2.2413  0.2919
  771MOL0     H 4079   6.788   8.451  11.111 -1.6967  1.3102 -4.2561
  771MOL0     H 4080   6.793   8.277  11.087  0.8295 -0.2658  1.0611
  771MOL0     H 4081   6.734   8.300  11.310 -0.5762 -1.5775  0.4164
  771MOL0     H 4082   6.594   8.240  11.220 -3.9764  1.6468  3.3437
  771MOL0     H 4083   6.446   8.566  11.431 -0.4464  1.2526 -1.9243
  771MOL0     H 4084   6.549   8.229  10.706  0.7662 -1.2066  1.1008
  771MOL0     H 4085   6.525   8.042  10.564  1.1424 -1.5812 -2.3861
  772MOL0     O 4086   9.663   0.723   1.625  0.1710  0.4141 -0.1277
  772MOL0     C 4087   9.700   0.820   1.558 -0.5554 -0.2920  0.3387
  772MOL0     O 4088   9.628   0.929   1.512 -0.3876 -0.1326  0.1712
  772MOL0     C 4089   9.510   0.960   1.579  0.1627 -0.3780 -0.4271
  772MOL0     C 4090   9.412   1.025   1.501  0.1665 -0.1926 -0.5038
  772MOL0     C 4091   9.295   1.072   1.560  0.3191 -0.2176 -1.3329
  772MOL0     C 4092   9.264   1.039   1.691  0.1859  0.5663  0.3659
  772MOL0     O 4093   9.134   1.068   1.730 -0.0171  0.1646 -0.7229
  772MOL0     C 4094   9.131   1.081   1.872  0.1993 -0.8012 -0.2560
  772MOL0     C 4095   8.992   1.120   1.914  0.0279 -0.3181 -0.8112
  772MOL0     C 4096   8.960   1.137   2.069 -0.0763  0.3110 -0.3796
  772MOL0     C 4097   9.063   1.224   2.136 -0.7195  0.1503 -0.2380
  772MOL0     C 4098   9.023   1.243   2.288 -0.4897 -0.8628 -0.2316
  772MOL0     C 4099   9.118   1.350   2.355 -1.0574 -1.0731  0.3357
  772MOL0     C 4100   9.086   1.357   2.512 -0.8902 -0.7380  0.0910
  772MOL0     C 4101   9.190   1.449   2.575 -0.4392 -0.5763  0.6234
  772MOL0     N 4102   9.161   1.595   2.572  0.5390  0.7233  0.1349
  772MOL0     C 4103   9.176   1.679   2.460 -0.0487 -0.3101 -0.1024
  772MOL0     C 4104   9.139   1.806   2.499 -0.2177 -0.0212  0.1810
  772MOL0     C 4105   9.157   1.929   2.413  0.2822  1.0046 -0.1755
  772MOL0     C 4106   9.056   1.931   2.287 -0.0875 -0.4418  0.0406
  772MOL0     C 4107   9.071   2.030   2.177 -0.0361 -1.1939  0.2237
  772MOL0     C 4108   9.022   2.175   2.209 -0.4877  0.0634  0.6512
  772MOL0     O 4109   9.064   2.220   2.338 -1.0882 -0.8981  0.8318
  772MOL0     C 4110   9.192   2.261   2.362  0.4429 -0.4309  1.8655
  772MOL0     C 4111   9.219   2.296   2.492  0.6776  0.2362 -0.2800
  772MOL0     C 4112   9.343   2.330   2.541 -0.0107  0.9045  0.0134
  772MOL0     C 4113   9.354   2.351   2.692  0.5150 -0.4000 -1.1977
  772MOL0     C 4114   9.445   2.337   2.452 -0.3125 -0.7194 -0.0140
  772MOL0     C 4115   9.581   2.389   2.488  0.7891 -0.6013  0.0791
  772MOL0     O 4116   9.641   2.483   2.406 -0.0639  0.5550 -0.1180
  772MOL0     C 4117   9.753   2.559   2.439  0.5787  0.7142 -0.0867
  772MOL0     C 4118   9.848   2.591   2.343 -1.0039  1.1451  0.7153
  772MOL0     C 4119   9.958   2.662   2.376  0.5206  0.0262  0.7353
  772MOL0     C 4120   9.978   2.710   2.507 -0.4406  0.1515  0.4234
  772MOL0     O 4121  10.094   2.777   2.539 -0.7246 -0.6411  0.0222
  772MOL0     C 4122  10.134   2.760   2.674 -1.4145  0.4491 -0.9067
  772MOL0     C 4123  10.264   2.819   2.697 -0.1117  0.5558  0.3028
  772MOL0     C 4124  10.383   2.734   2.635  0.6401 -0.8726 -0.5648
  772MOL0     C 4125  10.413   2.756   2.484 -0.9565 -1.0273  0.0124
  772MOL0     C 4126  10.552   2.696   2.455  0.6748  0.2374  0.8581
  772MOL0     C 4127  10.607   2.723   2.309 -0.2419  0.3338  0.0348
  772MOL0     C 4128  10.755   2.677   2.294 -0.2443  0.4602  0.2906
  772MOL0     C 4129  10.856   2.773   2.355  0.4761 -0.5231 -0.8376
  772MOL0    Cl 4130  11.014   2.735   2.284 -0.1104 -0.2597  0.2017
  772MOL0     C 4131   9.879   2.680   2.597  0.6116  0.4502 -0.6805
  772MOL0     C 4132   9.769   2.607   2.562  0.4233  0.5121  0.1437
  772MOL0     O 4133   9.647   2.325   2.570 -0.1757  0.6829  0.5279
  772MOL0     C 4134   9.422   2.308   2.321 -0.9731  0.7738 -0.2893
  772MOL0     C 4135   9.301   2.267   2.277  0.4809  0.9422 -0.3971
  772MOL0     N 4136   9.096   1.800   2.631  0.7912 -0.3953  0.6067
  772MOL0     N 4137   9.102   1.676   2.676 -0.0856 -1.1873 -0.1735
  772MOL0     C 4138   9.363   0.975   1.767  0.9039  0.4559 -0.5635
  772MOL0     C 4139   9.490   0.941   1.713  0.5979 -0.1176 -0.0271
  772MOL0     C 4140   9.847   0.826   1.530 -0.2011 -0.5479  0.3968
  772MOL0     C 4141   9.904   0.934   1.463 -0.0729 -0.4578 -0.1659
  772MOL0     C 4142  10.031   0.939   1.424 -0.7009 -0.1754 -0.8604
  772MOL0     C 4143  10.117   0.834   1.450 -0.0257  0.9302  0.0974
  772MOL0     O 4144  10.249   0.824   1.405 -0.4059 -0.2157 -0.2964
  772MOL0     C 4145  10.309   0.943   1.353 -0.7226  0.9061 -0.3577
  772MOL0     C 4146  10.454   0.917   1.322 -0.2529 -0.4269  0.3380
  772MOL0     C 4147  10.545   0.907   1.441  0.2940 -0.2119 -0.2413
  772MOL0     C 4148  10.571   1.033   1.526 -0.3107  0.3272  0.4232
  772MOL0     C 4149  10.627   0.987   1.660  0.5794 -0.4829  0.4901
  772MOL0     C 4150  10.672   0.960   1.769 -0.0896 -0.4928  0.1957
  772MOL0     C 4151  10.071   0.736   1.539  0.3598  0.6543  0.4102
  772MOL0     C 4152   9.940   0.725   1.574  0.0290  0.6213 -0.0169
  772MOL0     H 4153   9.438   1.031   1.396 -0.5742  1.5789 -0.6240
  772MOL0     H 4154   9.213   1.072   1.489 -2.0924 -3.7057  1.1077
  772MOL0     H 4155   9.149   0.984   1.919 -0.1041 -1.0776 -0.7018
  772MOL0     H 4156   9.213   1.150   1.893  0.1914 -0.7725 -0.3233
  772MOL0     H 4157   8.975   1.220   1.872 -1.5246 -0.0375  0.3691
  772MOL0     H 4158   8.924   1.053   1.862 -2.1962  0.3922  1.0412
  772MOL0     H 4159   8.863   1.184   2.083  0.4551  1.0258  1.1721
  772MOL0     H 4160   8.934   1.045   2.122  2.9123  0.1738  1.0605
  772MOL0     H 4161   9.160   1.175   2.135  0.0901  1.3874  3.1223
  772MOL0     H 4162   9.092   1.315   2.084  1.9161 -1.3345 -1.5713
  772MOL0     H 4163   8.921   1.284   2.294 -0.3083 -0.1691 -1.3743
  772MOL0     H 4164   9.020   1.155   2.353 -2.0563  1.9206  3.8645
  772MOL0     H 4165   9.224   1.331   2.340 -0.5106  2.4099 -1.3439
  772MOL0     H 4166   9.102   1.448   2.310  2.0886 -1.1342 -1.1260
  772MOL0     H 4167   8.989   1.406   2.526 -0.1471  0.8435 -0.0996
  772MOL0     H 4168   9.092   1.264   2.568 -4.2190 -1.3655 -0.3381
  772MOL0     H 4169   9.293   1.424   2.548 -0.1728  0.1772  0.8813
  772MOL0     H 4170   9.198   1.412   2.678  3.9356 -2.3591 -0.1279
  772MOL0     H 4171   9.209   1.650   2.361 -0.5279 -3.1431  0.4694
  772MOL0     H 4172   9.147   2.019   2.474  1.3619  1.0525 -0.0650
  772MOL0     H 4173   9.262   1.940   2.387 -0.0139  3.1761 -0.6498
  772MOL0     H 4174   8.952   1.939   2.319 -0.2664 -0.6661 -0.4728
  772MOL0     H 4175   9.067   1.830   2.245  0.8805 -2.0463  3.7120
  772MOL0     H 4176   9.020   2.005   2.084 -2.6549 -0.2379  1.3064
  772MOL0     H 4177   9.179   2.038   2.161 -0.2443  2.0206 -0.3437
  772MOL0     H 4178   8.914   2.174   2.221 -1.1218 -1.5461 -3.2977
  772MOL0     H 4179   9.043   2.240   2.123 -0.3545 -2.4355 -1.3412
  772MOL0     H 4180   9.142   2.294   2.569  3.3018  2.6396  2.7437
  772MOL0     H 4181   9.428   2.429   2.714 -2.0969  1.4925  1.7838
  772MOL0     H 4182   9.261   2.389   2.735  1.7813  0.8690  0.5755
  772MOL0     H 4183   9.371   2.252   2.737  1.1505  0.3041  0.1496
  772MOL0     H 4184   9.846   2.542   2.246 -0.8669  0.3631  1.1021
  772MOL0     H 4185  10.039   2.678   2.305 -1.5999  0.3382 -1.7673
  772MOL0     H 4186  10.065   2.813   2.741  0.3254 -3.7956  5.0756
  772MOL0     H 4187  10.129   2.656   2.706  1.9053  0.6024  0.4946
  772MOL0     H 4188  10.264   2.921   2.658 -0.9531  0.5357  0.2490
  772MOL0     H 4189  10.281   2.831   2.804 -0.2223  3.9668  0.0214
  772MOL0     H 4190  10.376   2.627   2.658 -0.8785 -1.8373 -4.7009
  772MOL0     H 4191  10.462   2.777   2.697 -1.6358  1.7667  0.7227
  772MOL0     H 4192  10.326   2.716   2.432 -1.2246 -1.7093  0.9746
  772MOL0     H 4193  10.403   2.864   2.466 -1.7739 -1.0188  0.5105
  772MOL0     H 4194  10.542   2.588   2.466 -0.7559  0.2495 -0.0052
  772MOL0     H 4195  10.626   2.738   2.524  1.5929 -0.8415  0.5389
  772MOL0     H 4196  10.546   2.656   2.247 -0.8975  2.1752 -1.4180
  772MOL0     H 4197  10.595   2.828   2.279  1.2659  0.0245 -1.7960
  772MOL0     H 4198  10.780   2.684   2.187  0.8253 -4.5096  0.0030
  772MOL0     H 4199  10.767   2.569   2.307 -0.3956  0.6025  1.7492
  772MOL0     H 4200  10.876   2.750   2.460  1.0225 -2.9874 -1.4180
  772MOL0     H 4201  10.832   2.879   2.345  2.0269  0.1739  1.7846
  772MOL0     H 4202   9.877   2.704   2.703 -0.8447 -0.4570 -0.4567
  772MOL0     H 4203   9.699   2.575   2.638 -0.8227  0.2934 -1.0431
  772MOL0     H 4204   9.508   2.313   2.254  0.5916  0.5830  1.6190
  772MOL0     H 4205   9.292   2.229   2.175  1.3489 -0.0066 -0.1365
  772MOL0     H 4206   9.351   0.944   1.870 -1.5031 -3.9994 -1.9377
  772MOL0     H 4207   9.564   0.895   1.779  0.0476  0.1206  0.7745
  772MOL0     H 4208   9.845   1.016   1.423  1.9477 -0.9579 -4.7150
  772MOL0     H 4209  10.068   1.020   1.362 -0.1302  1.2198  1.1956
  772MOL0     H 4210  10.253   0.968   1.263 -2.4383 -0.0303  0.3982
  772MOL0     H 4211  10.304   1.029   1.421  2.1535 -0.2681  1.5433
  772MOL0     H 4212  10.489   1.002   1.263 -0.8925  0.1429  0.7691
  772MOL0     H 4213  10.467   0.825   1.264 -1.0577 -0.8736  0.8516
  772MOL0     H 4214  10.645   0.878   1.408 -0.0503  0.6813 -2.2730
  772MOL0     H 4215  10.499   0.841   1.515 -1.9395  1.2134 -0.2523
  772MOL0     H 4216  10.476   1.087   1.539 -0.3227  0.2797  0.5356
  772MOL0     H 4217  10.643   1.107   1.490  1.9480 -0.9970  2.0196
  772MOL0     H 4218  10.735   0.943   1.853 -0.3577 -0.2443  0.4478
  772MOL0     H 4219  10.145   0.670   1.583 -2.3851 -0.5793  3.6048
  772MOL0     H 4220   9.910   0.643   1.640  1.8355  0.4076  0.6048
  773MOL0     O 4221   9.947   0.973   9.966 -0.3160  0.9454  0.1017
  773MOL0     C 4222   9.885   1.072   9.931 -1.5199 -0.6519  0.0905
  773MOL0     O 4223   9.763   1.112   9.969  0.6365 -0.2103 -0.4929
  773MOL0     C 4224   9.677   1.029  10.038 -0.6740  0.6214 -0.0451
  773MOL0     C 4225   9.646   1.056  10.167  0.8446  0.0757 -0.1342
  773MOL0     C 4226   9.564   0.971  10.245 -0.2674  0.0714 -0.0152
  773MOL0     C 4227   9.511   0.854  10.193  0.3611 -0.5805 -0.1496
  773MOL0     O 4228   9.433   0.782  10.279  0.5755 -0.7082  0.2658
  773MOL0     C 4229   9.385   0.655  10.246 -1.5603  0.1952  0.6570
  773MOL0     C 4230   9.292   0.613  10.351  0.2173 -0.1698 -0.4339
  773MOL0     C 4231   9.370   0.583  10.481  0.1317 -1.2445 -0.4727
  773MOL0     C 4232   9.328   0.451  10.540 -0.0946  0.1698 -1.0530
  773MOL0     C 4233   9.351   0.430  10.692 -0.2181 -0.6244  0.2158
  773MOL0     C 4234   9.498   0.453  10.744  0.1490  0.2235 -0.3890
  773MOL0     C 4235   9.577   0.321  10.731 -0.1267 -0.3032  1.1454
  773MOL0     C 4236   9.715   0.360  10.775 -0.3186  0.0627 -0.9951
  773MOL0     N 4237   9.804   0.247  10.767  0.1736  0.3508  0.5882
  773MOL0     C 4238   9.858   0.216  10.643 -0.8317  0.3391  0.4387
  773MOL0     C 4239   9.907   0.086  10.661  0.5238 -0.1740 -0.6616
  773MOL0     C 4240   9.978   0.011  10.552  0.1845 -0.2083 -0.8925
  773MOL0     C 4241  10.105   0.086  10.499 -0.1433 -0.0301 -0.6874
  773MOL0     C 4242  10.221  -0.018  10.494  0.3244 -0.4169  0.4084
  773MOL0     C 4243  10.346   0.035  10.424  0.2146  0.7689 -0.8334
  773MOL0     O 4244  10.326   0.067  10.282 -0.4630  1.4053 -0.0693
  773MOL0     C 4245  10.352  -0.028  10.187  0.7325  1.3449  0.6341
  773MOL0     C 4246  10.380  -0.164  10.212  0.0150 -0.0951  0.6398
  773MOL0     C 4247  10.402  -0.251  10.108 -0.4373  0.2189  0.0075
  773MOL0     C 4248  10.399  -0.391  10.142 -1.0093 -0.1239  0.2463
  773MOL0     C 4249  10.410  -0.204   9.974 -0.6631 -0.4035 -0.0285
  773MOL0     C 4250  10.432  -0.292   9.844  0.3271  0.6667  1.0108
  773MOL0     O 4251  10.443  -0.222   9.724  0.0434  0.1547 -0.9865
  773MOL0     C 4252  10.479  -0.287   9.609  0.4911  0.2880  0.1375
  773MOL0     C 4253  10.412  -0.406   9.570  0.4917 -0.6957  0.9645
  773MOL0     C 4254  10.453  -0.476   9.458  0.0346 -0.0871  0.2000
  773MOL0     C 4255  10.565  -0.441   9.386  0.2802  0.2468  0.9861
  773MOL0     O 4256  10.619  -0.516   9.282  0.3251 -0.3379 -0.0973
  773MOL0     C 4257  10.518  -0.589   9.204 -0.6385  0.1454 -0.6491
  773MOL0     C 4258  10.579  -0.650   9.079  0.1203 -0.2521 -1.2039
  773MOL0     C 4259  10.688  -0.562   9.006  0.7414 -0.1617  0.0221
  773MOL0     C 4260  10.605  -0.454   8.920  0.6217  0.0605 -0.5889
  773MOL0     C 4261  10.681  -0.317   8.913 -0.0895  0.3518  0.2013
  773MOL0     C 4262  10.625  -0.227   8.793  0.9575 -0.9684 -0.6752
  773MOL0     C 4263  10.684  -0.080   8.818  0.0321 -0.2008 -0.0740
  773MOL0     C 4264  10.837  -0.062   8.788  0.4700 -1.2215 -0.3273
  773MOL0    Cl 4265  10.855  -0.088   8.612 -0.0356  0.0898  0.4641
  773MOL0     C 4266  10.633  -0.326   9.417 -0.4379  0.3737 -0.3525
  773MOL0     C 4267  10.592  -0.249   9.526  0.4866 -0.3877 -0.6607
  773MOL0     O 4268  10.457  -0.410   9.858 -0.4134  0.0543  1.4422
  773MOL0     C 4269  10.380  -0.068   9.947 -0.3827  0.3261 -0.1512
  773MOL0     C 4270  10.350   0.020  10.052 -0.2007  0.4858 -0.4259
  773MOL0     N 4271   9.896   0.049  10.789 -0.3875  0.3761  0.0484
  773MOL0     N 4272   9.834   0.139  10.850 -1.1678 -0.7475 -1.1861
  773MOL0     C 4273   9.552   0.815  10.067 -0.5194 -0.1787  0.0840
  773MOL0     C 4274   9.641   0.900   9.995  0.2485 -0.2163 -0.1063
  773MOL0     C 4275   9.968   1.154   9.840  0.3652 -0.4884 -0.6839
  773MOL0     C 4276  10.100   1.129   9.816  0.2354  1.2772 -0.3695
  773MOL0     C 4277  10.175   1.210   9.731 -0.0317 -0.0391  0.8334
  773MOL0     C 4278  10.119   1.326   9.675  0.3434  0.2276 -1.3730
  773MOL0     O 4279  10.194   1.418   9.600 -1.3887  0.2751 -0.7946
  773MOL0     C 4280  10.129   1.539   9.561 -0.9133 -0.4302  0.3046
  773MOL0     C 4281  10.202   1.607   9.447 -0.4122  0.6409  0.1022
  773MOL0     C 4282  10.354   1.625   9.476  0.1201  0.5710  0.7484
  773MOL0     C 4283  10.428   1.625   9.335 -0.7615  0.1969 -0.6672
  773MOL0     C 4284  10.562   1.685   9.361 -0.9834  0.6116  0.8808
  773MOL0     C 4285  10.677   1.721   9.384  0.7383 -0.0082 -0.2406
  773MOL0     C 4286   9.984   1.348   9.711  0.2223  0.2147 -0.2445
  773MOL0     C 4287   9.910   1.274   9.805 -0.7400  0.0766  0.4503
  773MOL0     H 4288   9.675   1.147  10.219 -1.1158  0.6064  0.1286
  773MOL0     H 4289   9.546   0.990  10.350  1.4166 -1.6072  0.6422
  773MOL0     H 4290   9.328   0.671  10.154  0.3163  0.6738 -0.4862
  773MOL0     H 4291   9.459   0.578  10.222 -2.9707 -0.6993 -1.0762
  773MOL0     H 4292   9.218   0.691  10.371  1.3867  0.7192  0.5856
  773MOL0     H 4293   9.247   0.520  10.313 -0.1029  0.2571 -1.1302
  773MOL0     H 4294   9.477   0.586  10.458  0.1353 -0.2309 -0.3612
  773MOL0     H 4295   9.359   0.667  10.550 -0.3948 -1.3051 -0.4733
  773MOL0     H 4296   9.223   0.429  10.520  0.1916  0.5725 -3.2004
  773MOL0     H 4297   9.387   0.376  10.487  2.9465  1.9500 -0.4698
  773MOL0     H 4298   9.293   0.505  10.747  3.7101  1.6799  1.5674
  773MOL0     H 4299   9.326   0.326  10.714  2.0044 -1.0885  0.7132
  773MOL0     H 4300   9.541   0.543  10.699 -2.4579  1.1174 -1.3055
  773MOL0     H 4301   9.488   0.474  10.851 -3.3095  1.2825 -0.8070
  773MOL0     H 4302   9.556   0.233  10.792  1.8227  0.9159  3.7651
  773MOL0     H 4303   9.580   0.300  10.623  3.2867 -1.7877  1.4213
  773MOL0     H 4304   9.711   0.391  10.880  0.8661 -0.3838 -0.8137
  773MOL0     H 4305   9.761   0.447  10.728 -0.5576  1.1503  0.6887
  773MOL0     H 4306   9.858   0.269  10.548 -0.3170  1.6156  1.1175
  773MOL0     H 4307  10.011  -0.085  10.593  0.1018  0.0542 -0.2077
  773MOL0     H 4308   9.913  -0.002  10.464 -1.5105  3.7520 -0.4407
  773MOL0     H 4309  10.136   0.172  10.558 -0.4830  0.3282 -1.0192
  773MOL0     H 4310  10.075   0.125  10.401  2.0724  3.4385 -0.1391
  773MOL0     H 4311  10.182  -0.103  10.439 -3.7706  1.7208 -0.3427
  773MOL0     H 4312  10.248  -0.046  10.597 -1.2466  0.4110  1.0796
  773MOL0     H 4313  10.418  -0.047  10.432 -2.0438 -1.0911  2.9939
  773MOL0     H 4314  10.382   0.127  10.471 -2.0710  1.1638  0.2975
  773MOL0     H 4315  10.356  -0.195  10.313 -0.6477  2.6580  1.4119
  773MOL0     H 4316  10.334  -0.446  10.074 -2.4172 -0.2927  1.6529
  773MOL0     H 4317  10.495  -0.441  10.127 -0.3290  1.6374 -1.8197
  773MOL0     H 4318  10.361  -0.405  10.244  2.4353  0.8661  1.7964
  773MOL0     H 4319  10.327  -0.447   9.623  0.5267  0.7334  2.2102
  773MOL0     H 4320  10.409  -0.574   9.438  0.4668 -0.9292  3.0172
  773MOL0     H 4321  10.482  -0.677   9.257 -3.3143  1.7346  0.3733
  773MOL0     H 4322  10.445  -0.517   9.165 -1.1030  0.4024  0.6660
  773MOL0     H 4323  10.626  -0.744   9.110  0.6439 -0.0075 -1.2367
  773MOL0     H 4324  10.494  -0.667   9.012 -1.2241  1.1024  0.0777
  773MOL0     H 4325  10.754  -0.625   8.946  1.6295  0.8258 -0.0606
  773MOL0     H 4326  10.747  -0.511   9.081 -0.4370 -0.0977  0.9417
  773MOL0     H 4327  10.584  -0.499   8.823 -2.3487 -1.4410  0.6223
  773MOL0     H 4328  10.507  -0.438   8.966  0.4143  1.0194 -1.3444
  773MOL0     H 4329  10.783  -0.344   8.886  1.9612  4.0900  3.2442
  773MOL0     H 4330  10.676  -0.254   9.002  0.6319  3.4061 -1.7557
  773MOL0     H 4331  10.643  -0.271   8.695 -1.7014 -1.6342 -0.9345
  773MOL0     H 4332  10.516  -0.231   8.797  0.9517 -5.0326 -1.2916
  773MOL0     H 4333  10.659  -0.049   8.920 -0.3155 -1.4059  0.2156
  773MOL0     H 4334  10.631   0.002   8.768  1.9206  2.1063  1.4737
  773MOL0     H 4335  10.900  -0.128   8.848  1.7194  0.4707  0.2927
  773MOL0     H 4336  10.867   0.043   8.798  0.5676 -1.2902  0.0741
  773MOL0     H 4337  10.719  -0.289   9.362 -0.5873  0.1039 -0.7717
  773MOL0     H 4338  10.629  -0.149   9.548 -1.8397  1.2751 -3.5657
  773MOL0     H 4339  10.397  -0.023   9.850  0.9296  1.3950  0.5350
  773MOL0     H 4340  10.321   0.124  10.036 -1.6902 -0.0782 -1.6642
  773MOL0     H 4341   9.511   0.719  10.038 -3.5257  0.5959  1.4562
  773MOL0     H 4342   9.677   0.868   9.897  2.4214  2.3238 -0.2466
  773MOL0     H 4343  10.140   1.043   9.869  3.3888  3.0125  0.2935
  773MOL0     H 4344  10.275   1.174   9.707  0.4972  0.0238  2.7143
  773MOL0     H 4345  10.031   1.521   9.517 -0.1362  1.1694 -2.3174
  773MOL0     H 4346  10.121   1.614   9.641  2.5451  2.3289 -1.6188
  773MOL0     H 4347  10.162   1.707   9.431  1.8748  1.3625 -1.6350
  773MOL0     H 4348  10.186   1.552   9.354 -0.0262 -0.8637  0.8831
  773MOL0     H 4349  10.384   1.537   9.534  0.4697 -0.8409 -1.4440
  773MOL0     H 4350  10.377   1.716   9.533  0.1578  2.4772 -2.0772
  773MOL0     H 4351  10.387   1.692   9.257  0.1949  2.0467  0.3472
  773MOL0     H 4352  10.450   1.528   9.291 -0.3445  0.1433 -0.3379
  773MOL0     H 4353  10.778   1.746   9.406  0.6163  0.9965 -0.7823
  773MOL0     H 4354   9.922   1.424   9.663  0.6005 -1.6342 -4.0259
  773MOL0     H 4355   9.808   1.302   9.831 -1.0636 -1.6398  1.1813
  774MOL0     O 4356  10.015   6.478   7.600 -0.5140 -0.4229 -0.5635
  774MOL0     C 4357  10.071   6.491   7.707  0.7913  0.4095  0.6849
  774MOL0     O 4358  10.024   6.443   7.831 -0.9573  0.4906  0.5847
  774MOL0     C 4359   9.932   6.342   7.851 -0.1253  0.7608  1.5742
  774MOL0     C 4360   9.847   6.297   7.751  0.3333  0.2870  1.1168
  774MOL0     C 4361   9.751   6.198   7.791  0.0558 -0.6693 -0.2217
  774MOL0     C 4362   9.763   6.130   7.915 -0.5276 -0.0516  0.2890
  774MOL0     O 4363   9.681   6.028   7.957 -0.0142  0.2320  0.4108
  774MOL0     C 4364   9.547   6.080   7.992  0.1152 -0.0858  0.3041
  774MOL0     C 4365   9.477   5.959   8.069  0.1381 -0.0454 -0.1512
  774MOL0     C 4366   9.578   5.865   8.143 -0.5917  0.1316  0.2220
  774MOL0     C 4367   9.620   5.921   8.280  0.7432 -0.9026  0.0366
  774MOL0     C 4368   9.734   5.845   8.350  0.5579 -0.0095 -0.0729
  774MOL0     C 4369   9.724   5.689   8.366  0.8046 -0.1411 -0.0750
  774MOL0     C 4370   9.611   5.629   8.466 -0.0289 -0.3932 -0.1439
  774MOL0     C 4371   9.644   5.485   8.520  0.0052 -0.3686  0.0820
  774MOL0     N 4372   9.768   5.425   8.475 -0.5105  0.1407 -0.1492
  774MOL0     C 4373   9.777   5.355   8.361 -0.8523 -0.0723  0.4247
  774MOL0     C 4374   9.907   5.309   8.358  0.7773  0.3849  0.0886
  774MOL0     C 4375   9.985   5.229   8.255  0.6958 -0.1970  0.4861
  774MOL0     C 4376   9.922   5.103   8.201 -0.0241  0.1955  0.1103
  774MOL0     C 4377  10.003   5.044   8.088 -0.6618 -0.2229 -0.5036
  774MOL0     C 4378   9.978   4.892   8.070  0.1375  0.8110  0.0490
  774MOL0     O 4379   9.838   4.859   8.056 -0.0883  0.1417  0.6205
  774MOL0     C 4380   9.793   4.729   8.071  0.2740  0.2013  0.5464
  774MOL0     C 4381   9.829   4.636   8.167 -1.2483  0.3835 -0.0624
  774MOL0     C 4382   9.772   4.503   8.164 -0.2415 -0.2053 -0.8849
  774MOL0     C 4383   9.830   4.418   8.276  0.3520 -0.9302  0.2164
  774MOL0     C 4384   9.661   4.474   8.072 -0.5994 -0.0734 -0.3178
  774MOL0     C 4385   9.592   4.341   8.071  0.1691 -0.5916  0.4085
  774MOL0     O 4386   9.672   4.234   8.099  0.1765 -0.3271  0.6087
  774MOL0     C 4387   9.609   4.112   8.084  0.3922 -1.0926 -0.5814
  774MOL0     C 4388   9.534   4.073   8.197 -0.0873  0.0539 -0.0782
  774MOL0     C 4389   9.484   3.945   8.201 -0.6700  0.1520 -0.5146
  774MOL0     C 4390   9.504   3.851   8.098 -0.7505  0.9483  1.3305
  774MOL0     O 4391   9.446   3.727   8.086  0.1464  0.6235 -0.4390
  774MOL0     C 4392   9.418   3.664   8.209 -0.8063 -0.6848  0.1718
  774MOL0     C 4393   9.358   3.526   8.179 -0.1883 -0.5147 -0.4835
  774MOL0     C 4394   9.251   3.502   8.287  0.0037  0.4549 -0.4868
  774MOL0     C 4395   9.218   3.344   8.295 -0.4956  0.3748 -0.0089
  774MOL0     C 4396   9.116   3.296   8.194 -0.5973 -0.6331 -0.3545
  774MOL0     C 4397   9.169   3.184   8.097  0.2553 -0.8068  0.2323
  774MOL0     C 4398   9.052   3.130   8.004 -1.2181  0.6688 -0.0188
  774MOL0     C 4399   9.100   3.079   7.863 -0.3313 -0.2242  0.2394
  774MOL0    Cl 4400   8.953   3.053   7.770 -0.8981  0.0901  0.2018
  774MOL0     C 4401   9.590   3.896   7.992  0.8110  0.9955 -0.3947
  774MOL0     C 4402   9.634   4.028   7.983 -0.3910 -0.3675  0.3829
  774MOL0     O 4403   9.471   4.344   8.047  0.1205 -0.2564 -0.2519
  774MOL0     C 4404   9.610   4.581   7.997  0.6627 -0.3549 -0.0619
  774MOL0     C 4405   9.678   4.698   7.999 -0.3317 -0.6392 -0.1929
  774MOL0     N 4406   9.966   5.343   8.482  0.0569 -0.3547  0.3767
  774MOL0     N 4407   9.886   5.420   8.550 -0.0303 -1.2913  0.0748
  774MOL0     C 4408   9.850   6.178   8.009 -0.7628  0.0422  1.5667
  774MOL0     C 4409   9.933   6.277   7.977 -0.0838  0.0276  0.2780
  774MOL0     C 4410  10.209   6.550   7.717 -0.2545  0.1176  0.6079
  774MOL0     C 4411  10.264   6.604   7.605 -0.7191  0.2249  0.1553
  774MOL0     C 4412  10.400   6.651   7.609 -0.0211 -0.6191  0.0748
  774MOL0     C 4413  10.474   6.661   7.725  0.0629 -0.2164 -0.0472
  774MOL0     O 4414  10.605   6.709   7.708  0.4813 -0.3914  0.0988
  774MOL0     C 4415  10.674   6.724   7.839  0.1358  0.0033  0.4937
  774MOL0     C 4416  10.632   6.852   7.904 -0.8188 -0.5050 -1.3073
  774MOL0     C 4417  10.681   6.865   8.050 -0.4493 -0.0357  0.2325
  774MOL0     C 4418  10.652   7.008   8.109 -0.1485  0.0745 -0.3388
  774MOL0     C 4419  10.746   7.110   8.055 -0.0776 -0.0835 -0.2047
  774MOL0     C 4420  10.815   7.201   8.021  0.4001  0.8561  1.3236
  774MOL0     C 4421  10.408   6.604   7.843  0.6424  0.5262 -0.5440
  774MOL0     C 4422  10.286   6.536   7.839 -0.4403 -0.5837  0.1607
  774MOL0     H 4423   9.850   6.341   7.652  0.8016  3.8712  2.5779
  774MOL0     H 4424   9.679   6.178   7.712  0.5981  3.7311 -2.1213
  774MOL0     H 4425   9.558   6.172   8.049 -0.4690  1.5142 -2.0315
  774MOL0     H 4426   9.497   6.104   7.898  0.5410 -1.9883 -0.4778
  774MOL0     H 4427   9.400   5.977   8.144 -0.7178 -2.6782 -0.2876
  774MOL0     H 4428   9.430   5.901   7.990  1.4421  0.6324 -1.4578
  774MOL0     H 4429   9.529   5.767   8.155 -0.4165  0.2674  2.5354
  774MOL0     H 4430   9.671   5.853   8.088 -0.0798  0.1803  1.0631
  774MOL0     H 4431   9.633   6.029   8.275 -0.5845 -0.7138  0.1946
  774MOL0     H 4432   9.533   5.908   8.346 -2.6558 -1.5079 -4.1269
  774MOL0     H 4433   9.826   5.863   8.294  0.6690  5.6211  1.3514
  774MOL0     H 4434   9.747   5.882   8.452  1.5746 -0.0997 -0.1629
  774MOL0     H 4435   9.717   5.639   8.269  0.2571 -2.5391  1.1280
  774MOL0     H 4436   9.816   5.650   8.411  1.9028  0.3326 -1.8449
  774MOL0     H 4437   9.582   5.690   8.552  0.6320 -1.1477  0.6324
  774MOL0     H 4438   9.527   5.627   8.396  0.4007  1.0148 -0.7380
  774MOL0     H 4439   9.566   5.410   8.507  0.1355 -0.2796 -1.4694
  774MOL0     H 4440   9.667   5.495   8.627  1.1705  0.0967 -0.1885
  774MOL0     H 4441   9.701   5.348   8.284  1.0019  0.7615 -1.6023
  774MOL0     H 4442   9.982   5.278   8.157  0.9404  1.2537  1.1772
  774MOL0     H 4443  10.090   5.217   8.286  2.4771  1.6545 -3.9283
  774MOL0     H 4444   9.820   5.120   8.166 -0.3494 -2.3342 -0.2871
  774MOL0     H 4445   9.915   5.032   8.283 -0.1379  1.0438  0.8510
  774MOL0     H 4446  10.111   5.051   8.104 -0.3792 -3.7750 -0.0195
  774MOL0     H 4447   9.982   5.109   8.003 -2.1627  1.9947  1.4561
  774MOL0     H 4448  10.019   4.851   8.163 -1.1540 -0.4207  0.1269
  774MOL0     H 4449  10.037   4.855   7.986 -1.0235  2.7172 -1.7026
  774MOL0     H 4450   9.904   4.660   8.242 -0.2367 -1.8264 -0.2856
  774MOL0     H 4451   9.925   4.461   8.310 -0.9142  1.1055  1.3803
  774MOL0     H 4452   9.765   4.427   8.363 -0.6304 -0.3311 -0.5692
  774MOL0     H 4453   9.846   4.314   8.247  1.5455 -1.3666  2.2728
  774MOL0     H 4454   9.518   4.128   8.290  1.7656 -2.9951  2.2412
  774MOL0     H 4455   9.432   3.908   8.289  0.0848 -3.0978 -1.2830
  774MOL0     H 4456   9.512   3.657   8.266 -0.0711 -1.9841 -1.1400
  774MOL0     H 4457   9.352   3.720   8.276  1.1301 -0.1306  1.7305
  774MOL0     H 4458   9.299   3.518   8.087 -0.3659  2.6290 -0.7627
  774MOL0     H 4459   9.446   3.460   8.181  1.7932  1.9482 -0.6797
  774MOL0     H 4460   9.159   3.559   8.271 -0.3422  0.1239  0.2419
  774MOL0     H 4461   9.296   3.522   8.385 -0.0202 -0.3954 -0.2960
  774MOL0     H 4462   9.310   3.286   8.288 -0.8047 -0.4745  2.2331
  774MOL0     H 4463   9.186   3.317   8.396  2.4080  2.5933  1.6759
  774MOL0     H 4464   9.087   3.381   8.133  2.3927  1.5463  1.0324
  774MOL0     H 4465   9.021   3.266   8.240 -0.8702  1.8764  0.8537
  774MOL0     H 4466   9.245   3.234   8.035 -1.7659  2.0167 -0.2065
  774MOL0     H 4467   9.217   3.099   8.145 -0.7457 -1.9838 -0.8012
  774MOL0     H 4468   8.971   3.203   7.996 -2.3046 -0.5199 -0.4604
  774MOL0     H 4469   8.999   3.055   8.064  0.0198 -0.1744  0.0500
  774MOL0     H 4470   9.157   2.987   7.879 -3.1418 -1.3257  7.0154
  774MOL0     H 4471   9.148   3.156   7.801 -0.5785  0.0634  0.4066
  774MOL0     H 4472   9.610   3.822   7.916 -0.2658 -3.0350  2.8777
  774MOL0     H 4473   9.690   4.076   7.903 -0.2612  0.5429  1.0060
  774MOL0     H 4474   9.515   4.581   7.944  0.7866  3.0055 -0.4628
  774MOL0     H 4475   9.645   4.780   7.936  0.4219  2.4806  3.1179
  774MOL0     H 4476   9.848   6.130   8.106 -1.2956  0.9482  2.0153
  774MOL0     H 4477  10.005   6.312   8.050  1.8358 -2.3324 -0.3607
  774MOL0     H 4478  10.212   6.616   7.511  0.8239  2.8025 -0.4928
  774MOL0     H 4479  10.444   6.691   7.519  1.9847 -2.5660  0.1220
  774MOL0     H 4480  10.662   6.633   7.898  2.1260 -1.3092 -0.9782
  774MOL0     H 4481  10.781   6.737   7.824 -0.0336  0.3415 -0.4933
  774MOL0     H 4482  10.524   6.860   7.916 -0.4121  0.8113  3.6116
  774MOL0     H 4483  10.671   6.936   7.845 -1.3072  0.4919 -0.2449
  774MOL0     H 4484  10.790   6.854   8.048 -0.6579 -2.9444 -1.8819
  774MOL0     H 4485  10.643   6.788   8.117 -0.1606 -0.7092 -0.3655
  774MOL0     H 4486  10.655   7.013   8.219 -1.3952  1.6026 -0.3402
  774MOL0     H 4487  10.556   7.052   8.081 -0.1355  1.7421  1.9680
  774MOL0     H 4488  10.870   7.291   8.002  2.2587 -0.5379 -0.3733
  774MOL0     H 4489  10.462   6.590   7.936  0.2594  0.4404 -0.3291
  774MOL0     H 4490  10.250   6.492   7.932 -1.3966 -0.1705  0.0023
  775MOL0     O 4491  10.337   1.209   7.441  0.7928 -0.6925 -0.3588
  775MOL0     C 4492  10.352   1.176   7.563  0.1923  0.4175  0.2526
  775MOL0     O 4493  10.461   1.164   7.635 -0.6729 -1.4714  0.5728
  775MOL0     C 4494  10.578   1.199   7.570  0.5544  0.4247 -0.7131
  775MOL0     C 4495  10.644   1.112   7.476 -0.1353  0.3487 -0.3806
  775MOL0     C 4496  10.768   1.146   7.414 -0.1852 -0.0089  0.7635
  775MOL0     C 4497  10.836   1.254   7.457 -0.4339 -0.6042 -0.1317
  775MOL0     O 4498  10.961   1.291   7.413  0.3020 -0.7327  0.2010
  775MOL0     C 4499  10.964   1.303   7.265  0.0243 -0.7368 -0.0609
  775MOL0     C 4500  11.063   1.416   7.247  0.0990  0.5042 -0.5817
  775MOL0     C 4501  11.099   1.443   7.099  0.5731 -0.5823  0.4213
  775MOL0     C 4502  11.231   1.525   7.084  0.2263 -0.8231  0.3684
  775MOL0     C 4503  11.231   1.660   7.154 -0.0316  0.1336 -0.2454
  775MOL0     C 4504  11.327   1.742   7.076 -0.3479 -0.9460 -0.7480
  775MOL0     C 4505  11.352   1.877   7.146  1.5189 -0.1620  0.7143
  775MOL0     C 4506  11.244   1.984   7.129  0.0913 -0.2022 -1.1305
  775MOL0     N 4507  11.155   2.006   7.243 -0.4439 -0.1014 -0.0611
  775MOL0     C 4508  11.178   2.086   7.355 -0.4836 -0.3396  0.2561
  775MOL0     C 4509  11.073   2.070   7.432 -0.6486  0.2707 -0.1859
  775MOL0     C 4510  11.057   2.123   7.569 -0.0311  0.3830  0.5982
  775MOL0     C 4511  10.986   2.261   7.571 -0.0228 -0.1857 -0.4063
  775MOL0     C 4512  10.996   2.339   7.705  0.0343 -0.1863 -0.9688
  775MOL0     C 4513  10.952   2.264   7.834  0.3633  0.1783 -0.5297
  775MOL0     O 4514  10.810   2.255   7.826  0.1838 -0.8070 -0.3010
  775MOL0     C 4515  10.743   2.321   7.921  0.5869  0.3087  0.4277
  775MOL0     C 4516  10.736   2.282   8.058  0.3785  0.2391  0.7471
  775MOL0     C 4517  10.658   2.355   8.149 -0.4384  0.7538 -0.7096
  775MOL0     C 4518  10.659   2.318   8.291 -0.3680  0.3203  0.1594
  775MOL0     C 4519  10.589   2.471   8.108  0.1550  0.4285  0.1945
  775MOL0     C 4520  10.512   2.563   8.195 -0.3773  0.3257 -0.4944
  775MOL0     O 4521  10.463   2.520   8.319 -0.4760  0.0950  0.5308
  775MOL0     C 4522  10.453   2.600   8.430  0.1347  0.5408  0.6618
  775MOL0     C 4523  10.460   2.539   8.555 -0.5490  0.1267 -0.8545
  775MOL0     C 4524  10.439   2.617   8.675 -0.1763  0.6687  0.3304
  775MOL0     C 4525  10.410   2.757   8.667 -0.2310 -0.0383  1.2901
  775MOL0     O 4526  10.405   2.834   8.779 -0.1051  0.3783 -0.2151
  775MOL0     C 4527  10.291   2.919   8.791  0.9125  0.1561  0.7428
  775MOL0     C 4528  10.242   2.911   8.932  0.2151 -0.7007  0.4315
  775MOL0     C 4529  10.131   3.003   8.955 -0.6978 -0.6836  0.5869
  775MOL0     C 4530  10.142   3.147   8.894  0.9999  0.2462 -0.0992
  775MOL0     C 4531  10.061   3.260   8.954 -0.3472 -0.7757  0.3297
  775MOL0     C 4532   9.909   3.251   8.954  0.3797 -0.4317  0.1716
  775MOL0     C 4533   9.846   3.186   9.077 -0.2086 -0.2451 -1.1722
  775MOL0     C 4534   9.694   3.157   9.069 -0.0008 -0.2657  1.1948
  775MOL0    Cl 4535   9.669   3.058   8.925 -0.2249 -0.2314  0.0632
  775MOL0     C 4536  10.390   2.819   8.539  0.7605  0.2262  0.8967
  775MOL0     C 4537  10.417   2.731   8.426  0.1956  0.5171 -0.4046
  775MOL0     O 4538  10.500   2.672   8.153 -0.3395  0.1040  0.1067
  775MOL0     C 4539  10.610   2.508   7.970 -0.3742 -0.4225 -0.8416
  775MOL0     C 4540  10.692   2.439   7.880  0.7862 -0.4961 -0.0803
  775MOL0     N 4541  10.989   1.977   7.375 -0.5683  0.3449  0.3958
  775MOL0     N 4542  11.030   1.958   7.259 -0.7151  0.6508  0.0639
  775MOL0     C 4543  10.763   1.347   7.536 -0.2013  0.3201  0.3801
  775MOL0     C 4544  10.638   1.320   7.590  1.8307  0.2673 -0.5200
  775MOL0     C 4545  10.225   1.154   7.634  0.8281 -0.2780  0.6173
  775MOL0     C 4546  10.105   1.103   7.567  0.7395 -0.1444  0.0269
  775MOL0     C 4547   9.998   1.067   7.647  0.1284  1.2250 -0.1243
  775MOL0     C 4548   9.990   1.080   7.777 -0.7473  1.1168 -0.1141
  775MOL0     O 4549   9.879   1.029   7.841 -0.3330 -0.1448  0.3009
  775MOL0     C 4550   9.839   1.102   7.956 -0.3398  0.0112 -0.6766
  775MOL0     C 4551   9.695   1.080   7.973  0.2333 -0.1664  0.4597
  775MOL0     C 4552   9.625   1.159   8.082  0.9449  0.4537  0.3220
  775MOL0     C 4553   9.495   1.091   8.120 -0.3016  0.8995  0.0716
  775MOL0     C 4554   9.438   1.148   8.237 -0.9718 -0.8118  0.5554
  775MOL0     C 4555   9.391   1.220   8.328 -0.7464 -0.1390 -0.0898
  775MOL0     C 4556  10.102   1.136   7.848 -0.7295  0.9005 -0.0087
  775MOL0     C 4557  10.216   1.183   7.768  0.9633 -0.1105 -0.6467
  775MOL0     H 4558  10.578   1.031   7.445 -2.0508  2.0699 -1.0687
  775MOL0     H 4559  10.813   1.084   7.337 -2.9498  0.1318 -1.0876
  775MOL0     H 4560  10.992   1.222   7.199  0.7164  0.6035 -1.4739
  775MOL0     H 4561  10.862   1.333   7.236  0.6591 -0.5590 -2.2129
  775MOL0     H 4562  11.019   1.504   7.294 -2.3809 -1.5612  1.2205
  775MOL0     H 4563  11.145   1.393   7.315  0.3159 -2.7818 -1.7915
  775MOL0     H 4564  11.095   1.353   7.037 -0.1917  0.3067 -0.8645
  775MOL0     H 4565  11.023   1.507   7.053  3.6602  3.9323  0.8626
  775MOL0     H 4566  11.323   1.472   7.110  2.0943  0.2617 -3.3423
  775MOL0     H 4567  11.234   1.543   6.976 -1.4327  1.9083  0.6703
  775MOL0     H 4568  11.132   1.705   7.157  0.4819  1.2558  1.2948
  775MOL0     H 4569  11.247   1.641   7.261  0.0594 -2.0946 -0.6001
  775MOL0     H 4570  11.425   1.695   7.081  0.5535  0.8558 -0.7691
  775MOL0     H 4571  11.296   1.765   6.973  2.4353  1.5046 -1.1578
  775MOL0     H 4572  11.365   1.868   7.254  0.5921 -0.5307  0.8009
  775MOL0     H 4573  11.442   1.923   7.104 -0.8572  2.2474 -2.2321
  775MOL0     H 4574  11.191   1.954   7.038 -2.0762 -1.5167  0.4908
  775MOL0     H 4575  11.285   2.083   7.106 -3.2050  1.0750 -2.1239
  775MOL0     H 4576  11.264   2.148   7.379 -1.0689 -0.3874  2.6783
  775MOL0     H 4577  11.013   2.049   7.637  2.3475 -0.6993  1.0863
  775MOL0     H 4578  11.161   2.134   7.602  0.2301  2.2491 -0.6914
  775MOL0     H 4579  10.886   2.233   7.538 -0.2663 -2.5385  1.9399
  775MOL0     H 4580  11.033   2.317   7.490  0.6364  0.3945  0.3651
  775MOL0     H 4581  10.929   2.426   7.701 -0.8976 -0.9286 -2.6752
  775MOL0     H 4582  11.097   2.379   7.718  0.4875 -2.1417  3.4396
  775MOL0     H 4583  10.981   2.322   7.922 -0.5667  3.6438 -2.3333
  775MOL0     H 4584  11.014   2.175   7.842 -3.1627 -2.4072  0.1988
  775MOL0     H 4585  10.786   2.194   8.097  1.3302  0.0739 -0.7644
  775MOL0     H 4586  10.720   2.228   8.303 -1.0879 -0.2824 -0.5771
  775MOL0     H 4587  10.703   2.405   8.341  1.6500  0.8446 -2.3042
  775MOL0     H 4588  10.554   2.301   8.316 -0.8245  3.0717  0.4347
  775MOL0     H 4589  10.487   2.434   8.562  1.0215  0.4800 -1.2195
  775MOL0     H 4590  10.455   2.577   8.775  0.6844 -0.7963 -0.3598
  775MOL0     H 4591  10.309   3.021   8.755  0.6242 -0.2479 -0.6116
  775MOL0     H 4592  10.203   2.890   8.732  1.0268  0.9066  0.1838
  775MOL0     H 4593  10.206   2.810   8.955 -0.1852 -0.8981 -0.9683
  775MOL0     H 4594  10.330   2.920   8.996  0.9617 -0.7661 -0.5626
  775MOL0     H 4595  10.129   3.012   9.064  0.9583  2.5947  0.4653
  775MOL0     H 4596  10.042   2.954   8.914 -2.7075  2.6718  0.5359
  775MOL0     H 4597  10.249   3.169   8.897  1.1163 -0.2390 -0.4307
  775MOL0     H 4598  10.117   3.148   8.787  0.4665 -0.0977  0.0183
  775MOL0     H 4599  10.108   3.351   8.917  0.5933 -0.9631  1.0384
  775MOL0     H 4600  10.096   3.273   9.057 -1.1955 -1.3706  0.7098
  775MOL0     H 4601   9.867   3.349   8.933  2.3852  0.5536  0.5422
  775MOL0     H 4602   9.891   3.188   8.866 -2.1303  0.2653  0.1239
  775MOL0     H 4603   9.863   3.262   9.154  2.9737  0.3417 -2.3136
  775MOL0     H 4604   9.894   3.092   9.104 -0.3864 -0.4053 -1.4076
  775MOL0     H 4605   9.638   3.250   9.053  1.4725  0.8776  2.4103
  775MOL0     H 4606   9.678   3.107   9.166  1.0793  1.5563  2.3792
  775MOL0     H 4607  10.371   2.923   8.516  4.2018  0.6863 -0.4569
  775MOL0     H 4608  10.409   2.784   8.331 -0.9327  2.7444  0.8734
  775MOL0     H 4609  10.560   2.595   7.928  1.5878  0.9018 -0.6067
  775MOL0     H 4610  10.700   2.474   7.778  3.9586 -0.3872  0.1144
  775MOL0     H 4611  10.796   1.449   7.556  0.1300  0.7132 -1.8735
  775MOL0     H 4612  10.594   1.391   7.659 -0.3615 -1.6368  0.1399
  775MOL0     H 4613  10.089   1.088   7.461 -2.4892  2.9331 -0.1095
  775MOL0     H 4614   9.918   1.024   7.588  2.9310 -3.4220 -1.0668
  775MOL0     H 4615   9.894   1.083   8.048 -2.3417  1.4047  0.8889
  775MOL0     H 4616   9.853   1.207   7.928  2.0449 -0.3884 -1.2200
  775MOL0     H 4617   9.687   0.974   7.999 -3.0725 -0.2111 -0.3530
  775MOL0     H 4618   9.651   1.109   7.877  0.1405 -0.4014  0.4316
  775MOL0     H 4619   9.592   1.259   8.051  1.4096 -0.0255 -1.9114
  775MOL0     H 4620   9.689   1.166   8.170 -1.5176  1.2174  2.1531
  775MOL0     H 4621   9.520   0.985   8.132 -1.9355  0.1142 -2.5059
  775MOL0     H 4622   9.421   1.080   8.040 -0.7627 -0.7616  0.6660
  775MOL0     H 4623   9.356   1.290   8.401 -0.2160 -0.0684  0.0973
  775MOL0     H 4624  10.087   1.164   7.952  1.6842  2.6680 -0.0300
  775MOL0     H 4625  10.298   1.234   7.817 -0.0477  0.5239  0.4417
  776MOL0     O 4626   9.809   5.624   0.761  0.2959 -0.0120  0.1771
  776MOL0     C 4627   9.826   5.502   0.737  1.0220 -0.4184  0.0979
  776MOL0     O 4628   9.739   5.405   0.770 -0.1311 -1.0898 -0.2921
  776MOL0     C 4629   9.615   5.428   0.825  0.9214  0.1178  0.6028
  776MOL0     C 4630   9.570   5.358   0.941 -0.8416 -0.3647 -0.7167
  776MOL0     C 4631   9.437   5.373   0.980  0.2930  1.2046 -0.1476
  776MOL0     C 4632   9.356   5.463   0.922  0.3382 -0.1938 -0.1160
  776MOL0     O 4633   9.227   5.470   0.952  0.4786 -0.2003  0.1306
  776MOL0     C 4634   9.154   5.360   0.894 -0.5063  0.1481  0.3247
  776MOL0     C 4635   9.021   5.406   0.833  0.9099  0.8022 -0.7685
  776MOL0     C 4636   8.947   5.283   0.769  0.0432 -0.1750  0.0107
  776MOL0     C 4637   8.846   5.319   0.651  0.0449  0.7215  0.7105
  776MOL0     C 4638   8.786   5.193   0.587 -0.4535 -0.4317 -0.7921
  776MOL0     C 4639   8.870   5.146   0.472 -0.5866 -0.1874  0.4499
  776MOL0     C 4640   8.802   5.033   0.397 -0.0475 -1.3451 -1.0797
  776MOL0     C 4641   8.758   4.911   0.478  0.1582 -0.3926 -0.4710
  776MOL0     N 4642   8.880   4.853   0.536 -0.5755 -0.5321 -0.1979
  776MOL0     C 4643   8.954   4.752   0.473 -0.3920 -1.1365 -0.2866
  776MOL0     C 4644   9.064   4.752   0.550 -0.4238  0.7096 -0.2210
  776MOL0     C 4645   9.185   4.669   0.527 -0.9272  0.1978 -0.1053
  776MOL0     C 4646   9.176   4.525   0.590  0.5941 -0.4307  0.0398
  776MOL0     C 4647   9.184   4.521   0.742 -0.3966  0.8629 -0.9150
  776MOL0     C 4648   9.164   4.385   0.795  0.3766  0.4968  0.6356
  776MOL0     O 4649   9.199   4.383   0.926  0.1656  0.6745 -1.3619
  776MOL0     C 4650   9.154   4.271   0.992 -0.9086  0.7191 -0.1646
  776MOL0     C 4651   9.165   4.135   0.944 -0.2120 -0.5519  0.4544
  776MOL0     C 4652   9.114   4.022   1.012 -0.4185 -0.1198  0.6400
  776MOL0     C 4653   9.092   3.895   0.934 -0.3062 -0.1199  0.3830
  776MOL0     C 4654   9.074   4.044   1.144  0.8954  0.6981 -0.0632
  776MOL0     C 4655   9.006   3.939   1.226  1.2193 -0.1505 -0.7445
  776MOL0     O 4656   8.929   3.974   1.331  0.0799  0.1651 -0.4027
  776MOL0     C 4657   8.857   3.875   1.406 -0.1681 -0.6237  0.2389
  776MOL0     C 4658   8.719   3.886   1.429 -0.8105 -0.4158  0.5706
  776MOL0     C 4659   8.648   3.793   1.496  0.3973 -0.7044  0.0282
  776MOL0     C 4660   8.710   3.680   1.561 -0.4202  0.1172 -0.0620
  776MOL0     O 4661   8.635   3.595   1.634  0.5180  0.5552 -1.1054
  776MOL0     C 4662   8.703   3.510   1.736 -0.7818  0.1825 -0.0528
  776MOL0     C 4663   8.758   3.384   1.659  0.7307  0.8054  0.5156
  776MOL0     C 4664   8.655   3.310   1.565 -0.2006  0.2649  0.4789
  776MOL0     C 4665   8.712   3.162   1.539 -0.5447 -0.1106 -0.8008
  776MOL0     C 4666   8.604   3.078   1.481 -0.0219  0.1429 -0.3065
  776MOL0     C 4667   8.655   2.942   1.431 -1.3257  1.1049 -0.9198
  776MOL0     C 4668   8.543   2.858   1.392  0.9120 -0.0634  1.4121
  776MOL0     C 4669   8.570   2.716   1.401 -0.4234  0.1503 -0.1708
  776MOL0    Cl 4670   8.741   2.660   1.361 -0.8455  0.8897 -0.2824
  776MOL0     C 4671   8.856   3.678   1.540 -0.4876  0.4777 -0.6598
  776MOL0     C 4672   8.927   3.774   1.470 -0.0013  0.6638  0.1269
  776MOL0     O 4673   9.025   3.822   1.195 -0.1111  0.1529 -0.8720
  776MOL0     C 4674   9.080   4.178   1.198  0.4405 -0.0314  0.0822
  776MOL0     C 4675   9.116   4.289   1.115 -0.6500  0.6358 -0.9124
  776MOL0     N 4676   9.052   4.847   0.648  0.3373 -0.2542  1.0254
  776MOL0     N 4677   8.945   4.911   0.645  0.1529  0.6335  0.8336
  776MOL0     C 4678   9.404   5.552   0.823 -0.3593  0.9970  0.1973
  776MOL0     C 4679   9.533   5.535   0.774  0.1697 -0.0858 -0.7414
  776MOL0     C 4680   9.958   5.471   0.665  0.6518 -0.3682  0.3710
  776MOL0     C 4681  10.055   5.574   0.641 -0.0817 -0.2989  0.1775
  776MOL0     C 4682  10.161   5.545   0.552 -1.2724  0.0436  0.1658
  776MOL0     C 4683  10.182   5.417   0.494 -0.6976 -0.1510 -0.4401
  776MOL0     O 4684  10.274   5.376   0.401 -0.7359  0.3025 -0.5529
  776MOL0     C 4685  10.420   5.415   0.428 -0.7954 -0.5832  1.2836
  776MOL0     C 4686  10.477   5.461   0.291  0.6765  0.2514  0.1531
  776MOL0     C 4687  10.589   5.559   0.327 -0.3023 -0.9807 -0.5083
  776MOL0     C 4688  10.710   5.489   0.396 -1.1608  0.3182  0.0908
  776MOL0     C 4689  10.798   5.595   0.454  0.2009 -0.7954  0.4277
  776MOL0     C 4690  10.867   5.682   0.499 -0.1590  0.0353  0.3796
  776MOL0     C 4691  10.089   5.322   0.527  0.0971  0.4808 -0.7988
  776MOL0     C 4692   9.978   5.343   0.610 -0.6703  0.3776  0.0477
  776MOL0     H 4693   9.631   5.283   0.989  3.2798  1.5994 -2.4510
  776MOL0     H 4694   9.388   5.311   1.055 -1.1937  0.2975 -1.7977
  776MOL0     H 4695   9.207   5.295   0.824  1.7529 -0.9298  2.8526
  776MOL0     H 4696   9.117   5.302   0.980  0.8641 -1.0424  0.1569
  776MOL0     H 4697   8.947   5.444   0.905  1.4275  0.0757  0.1694
  776MOL0     H 4698   9.049   5.489   0.768  1.3612  2.9791  2.0173
  776MOL0     H 4699   9.029   5.216   0.741  1.8909  1.8474  0.3360
  776MOL0     H 4700   8.890   5.227   0.843  1.0823  0.3596  1.2467
  776MOL0     H 4701   8.759   5.379   0.679 -0.7045  1.2374 -2.3746
  776MOL0     H 4702   8.902   5.372   0.574 -1.4241  0.0095 -0.9184
  776MOL0     H 4703   8.768   5.120   0.667 -3.8268  1.5847  0.5415
  776MOL0     H 4704   8.686   5.211   0.545 -1.3211  2.3285  2.0751
  776MOL0     H 4705   8.883   5.229   0.403 -1.5821 -0.8630 -0.5711
  776MOL0     H 4706   8.974   5.122   0.499 -0.6248 -1.9813 -0.8236
  776MOL0     H 4707   8.719   5.083   0.346 -0.5314 -0.6416  0.3219
  776MOL0     H 4708   8.875   4.992   0.326  0.4049 -2.2856 -0.1025
  776MOL0     H 4709   8.703   4.836   0.419 -1.2677  0.5073 -0.3405
  776MOL0     H 4710   8.691   4.927   0.563  1.5092 -0.6131  0.6693
  776MOL0     H 4711   8.942   4.689   0.386  2.2591 -1.6764 -0.3556
  776MOL0     H 4712   9.192   4.668   0.418  1.2464 -1.3950 -0.0166
  776MOL0     H 4713   9.267   4.729   0.567 -1.4752  2.1667 -1.7771
  776MOL0     H 4714   9.257   4.457   0.562  1.8193  1.1754 -0.4326
  776MOL0     H 4715   9.080   4.488   0.554  0.4271  1.6233 -1.8061
  776MOL0     H 4716   9.096   4.574   0.781  1.7057  1.6450  3.3156
  776MOL0     H 4717   9.278   4.562   0.778  1.3468 -3.0358 -0.6477
  776MOL0     H 4718   9.240   4.320   0.750  0.3140  2.0509 -1.9052
  776MOL0     H 4719   9.065   4.360   0.754  0.1211 -2.9472  2.9243
  776MOL0     H 4720   9.209   4.113   0.847 -1.2488  0.6836 -0.3232
  776MOL0     H 4721   8.986   3.872   0.919 -0.1049 -1.5992  1.1124
  776MOL0     H 4722   9.132   3.915   0.834 -3.2373 -0.1415 -0.8942
  776MOL0     H 4723   9.142   3.806   0.974 -0.2372  0.1154  0.8269
  776MOL0     H 4724   8.672   3.976   1.392 -1.5286 -1.3519 -0.9061
  776MOL0     H 4725   8.540   3.808   1.500  0.5893  1.6812 -1.9077
  776MOL0     H 4726   8.781   3.564   1.790 -1.9604  0.8759  0.9944
  776MOL0     H 4727   8.627   3.481   1.809  0.1079  1.2307  1.3141
  776MOL0     H 4728   8.836   3.401   1.584  1.2520 -3.1751 -0.0749
  776MOL0     H 4729   8.804   3.317   1.732 -0.7402  0.5670  1.2589
  776MOL0     H 4730   8.650   3.357   1.466  0.0931 -2.8387 -1.1415
  776MOL0     H 4731   8.563   3.306   1.624 -1.1204 -1.4770 -0.9644
  776MOL0     H 4732   8.799   3.164   1.473  1.0042  2.3582  1.0956
  776MOL0     H 4733   8.747   3.125   1.636  0.2727 -1.6117 -1.6402
  776MOL0     H 4734   8.534   3.127   1.413 -2.6733 -3.8555 -0.7792
  776MOL0     H 4735   8.535   3.057   1.563  2.5530  1.8052  2.4940
  776MOL0     H 4736   8.714   2.965   1.342  2.3917  0.4717  1.1781
  776MOL0     H 4737   8.719   2.891   1.504 -2.5876 -0.8032 -1.0840
  776MOL0     H 4738   8.521   2.877   1.286 -1.5290  1.1531  2.0624
  776MOL0     H 4739   8.449   2.884   1.442  0.3140 -0.0763  0.3436
  776MOL0     H 4740   8.504   2.662   1.331 -0.9992  0.5024  0.0961
  776MOL0     H 4741   8.548   2.677   1.501 -0.8864 -0.9953 -0.6873
  776MOL0     H 4742   8.908   3.590   1.576  0.2052  1.6347  1.3221
  776MOL0     H 4743   9.035   3.785   1.475 -0.0084  0.5989  0.4762
  776MOL0     H 4744   9.044   4.191   1.300 -1.8510 -2.9197 -0.2393
  776MOL0     H 4745   9.103   4.386   1.162 -4.1024 -0.6360  1.1100
  776MOL0     H 4746   9.327   5.610   0.774  1.2186  1.7420 -1.5164
  776MOL0     H 4747   9.571   5.603   0.699 -1.3774  0.9002 -0.6711
  776MOL0     H 4748  10.047   5.669   0.693 -1.3930  0.2040 -0.8785
  776MOL0     H 4749  10.227   5.626   0.524 -3.2648  1.4414 -0.6811
  776MOL0     H 4750  10.423   5.494   0.503 -1.2231 -0.4229  1.1318
  776MOL0     H 4751  10.477   5.330   0.468 -1.7460 -1.2692  1.2045
  776MOL0     H 4752  10.411   5.515   0.223 -0.3205 -1.0221  0.0632
  776MOL0     H 4753  10.507   5.372   0.234 -3.5970 -0.4614 -1.3139
  776MOL0     H 4754  10.538   5.616   0.405  0.6729 -4.9136  3.4454
  776MOL0     H 4755  10.621   5.619   0.242  3.6852 -2.1200 -0.0461
  776MOL0     H 4756  10.765   5.429   0.323  1.5486  0.5719  1.7589
  776MOL0     H 4757  10.680   5.420   0.474 -1.5621 -0.4242 -0.7100
  776MOL0     H 4758  10.936   5.746   0.549  1.2204 -2.2173  1.5117
  776MOL0     H 4759  10.098   5.220   0.492 -4.1707 -0.7501  1.0573
  776MOL0     H 4760   9.898   5.271   0.629  0.5289 -1.6368 -1.9888
  777MOL0     O 4761   6.060   7.126   1.098 -0.0144 -0.1529  0.0277
  777MOL0     C 4762   6.112   7.021   1.093 -1.0100  0.1839 -0.3857
  777MOL0     O 4763   6.219   6.992   1.022  0.1767 -0.1737  0.2446
  777MOL0     C 4764   6.270   7.073   0.924 -0.2631  0.1440  0.7576
  777MOL0     C 4765   6.387   7.026   0.867 -0.5573 -0.2890  0.5335
  777MOL0     C 4766   6.465   7.108   0.782  0.1132  0.4972 -0.2322
  777MOL0     C 4767   6.423   7.240   0.756  0.1216 -0.5229  0.5077
  777MOL0     O 4768   6.517   7.321   0.695  0.1776  0.1301  0.0487
  777MOL0     C 4769   6.455   7.433   0.617  0.7977 -0.8543 -0.8498
  777MOL0     C 4770   6.567   7.501   0.544  0.1283 -0.1792  0.6342
  777MOL0     C 4771   6.680   7.585   0.613  0.6231  1.2333 -0.5103
  777MOL0     C 4772   6.755   7.521   0.721 -0.2241  0.3460 -1.5969
  777MOL0     C 4773   6.801   7.629   0.817  0.5914  0.8091  0.7574
  777MOL0     C 4774   6.921   7.719   0.770  0.2601 -0.3583  1.0178
  777MOL0     C 4775   7.050   7.652   0.716 -0.1362 -0.1029 -0.7486
  777MOL0     C 4776   7.101   7.545   0.820  0.6755 -0.0393  0.6817
  777MOL0     N 4777   7.237   7.489   0.777  0.3678 -0.0130 -0.2823
  777MOL0     C 4778   7.273   7.353   0.751  0.3279  0.6251  0.0214
  777MOL0     C 4779   7.406   7.360   0.721  0.2786  0.0394 -1.1596
  777MOL0     C 4780   7.504   7.251   0.688  0.0506  0.2876 -0.0361
  777MOL0     C 4781   7.632   7.247   0.768  0.1194 -1.0154 -0.1008
  777MOL0     C 4782   7.630   7.134   0.869  0.4358  0.8005  0.2450
  777MOL0     C 4783   7.766   7.091   0.896  1.0352  0.2426  0.4590
  777MOL0     O 4784   7.806   7.000   0.784  0.7229 -0.5634 -0.1856
  777MOL0     C 4785   7.897   6.903   0.809  0.1736  0.1134 -0.1446
  777MOL0     C 4786   7.968   6.897   0.929  0.0590 -0.1875  0.0394
  777MOL0     C 4787   8.061   6.797   0.966 -0.9717  0.3129  0.8127
  777MOL0     C 4788   8.147   6.822   1.090 -0.4528 -0.5419 -0.1927
  777MOL0     C 4789   8.082   6.686   0.877  0.1610 -0.1463 -0.0512
  777MOL0     C 4790   8.172   6.571   0.898  0.0557 -0.1061 -1.8713
  777MOL0     O 4791   8.205   6.495   0.793  0.6989 -0.0314 -0.8822
  777MOL0     C 4792   8.316   6.422   0.777  0.0438  0.2279 -0.0694
  777MOL0     C 4793   8.321   6.302   0.712  0.3452 -0.4216 -0.2071
  777MOL0     C 4794   8.440   6.236   0.677 -1.0437  0.0577  0.2840
  777MOL0     C 4795   8.559   6.296   0.704  0.1218 -0.0863 -0.8156
  777MOL0     O 4796   8.665   6.233   0.654 -0.3653 -0.5593  0.0043
  777MOL0     C 4797   8.776   6.320   0.622 -0.0462 -0.0037 -0.1853
  777MOL0     C 4798   8.880   6.291   0.718 -0.8035 -0.4521  0.1901
  777MOL0     C 4799   9.022   6.309   0.673  0.4808 -0.2641 -0.5695
  777MOL0     C 4800   9.050   6.460   0.659  0.4372 -0.1054  0.8565
  777MOL0     C 4801   9.196   6.504   0.637  0.0959 -0.0001 -0.0204
  777MOL0     C 4802   9.214   6.659   0.657  0.2902 -0.2564 -0.7529
  777MOL0     C 4803   9.348   6.701   0.607  0.7207  0.5325  0.3728
  777MOL0     C 4804   9.371   6.855   0.604  0.0222 -1.2589  0.0000
  777MOL0    Cl 4805   9.272   6.954   0.489 -0.4191 -0.1982  0.0468
  777MOL0     C 4806   8.568   6.404   0.793  0.3608  0.6511 -0.8173
  777MOL0     C 4807   8.445   6.467   0.823  0.4269  0.2480  1.2863
  777MOL0     O 4808   8.215   6.548   1.009  0.1940 -0.1650  0.1627
  777MOL0     C 4809   8.004   6.686   0.766 -0.4639 -0.3332  0.7292
  777MOL0     C 4810   7.918   6.790   0.726 -0.3273 -0.0956  0.0847
  777MOL0     N 4811   7.444   7.490   0.728 -0.2291 -0.2455 -0.2288
  777MOL0     N 4812   7.346   7.559   0.778 -0.0210 -0.3859  0.6348
  777MOL0     C 4813   6.301   7.286   0.815 -0.4685 -0.1634 -0.6068
  777MOL0     C 4814   6.226   7.202   0.889 -0.6154  0.9924 -0.8094
  777MOL0     C 4815   6.054   6.910   1.173  0.5081  0.1666 -0.2807
  777MOL0     C 4816   6.082   6.777   1.143 -0.3647 -0.1654  0.7127
  777MOL0     C 4817   6.038   6.673   1.214  0.2241 -0.3319 -0.4529
  777MOL0     C 4818   5.950   6.697   1.319 -0.2608  0.1387 -0.1607
  777MOL0     O 4819   5.903   6.607   1.415  0.2563 -0.0309 -1.4162
  777MOL0     C 4820   5.921   6.465   1.412 -0.3734 -0.2536  1.1399
  777MOL0     C 4821   5.827   6.407   1.316  0.1247 -0.0992 -0.2559
  777MOL0     C 4822   5.870   6.272   1.286 -0.5061  0.2304 -0.6669
  777MOL0     C 4823   5.767   6.202   1.193 -0.2666 -0.2233 -0.8370
  777MOL0     C 4824   5.635   6.187   1.254  0.0570 -0.3642  0.1605
  777MOL0     C 4825   5.522   6.195   1.290  0.2358 -0.6914  0.0201
  777MOL0     C 4826   5.928   6.835   1.353  0.8965  0.0785  0.2648
  777MOL0     C 4827   5.978   6.941   1.278 -1.2910 -0.2667  0.2136
  777MOL0     H 4828   6.419   6.932   0.912  0.9107  1.4544  3.4290
  777MOL0     H 4829   6.558   7.070   0.740  1.7083  0.4033  3.0564
  777MOL0     H 4830   6.368   7.410   0.554 -1.6150  0.4627  1.8098
  777MOL0     H 4831   6.422   7.514   0.682 -1.5089 -0.7999 -1.9769
  777MOL0     H 4832   6.615   7.421   0.485 -0.5528 -0.5247  0.5425
  777MOL0     H 4833   6.518   7.570   0.475 -2.8640 -1.6011  1.1973
  777MOL0     H 4834   6.753   7.633   0.547  1.3249 -0.5989 -1.1665
  777MOL0     H 4835   6.609   7.662   0.643 -1.5305 -0.9715  0.4106
  777MOL0     H 4836   6.683   7.460   0.777 -0.5836  0.6221 -1.7537
  777MOL0     H 4837   6.836   7.464   0.675  0.0673  0.7901 -1.6461
  777MOL0     H 4838   6.720   7.698   0.845  0.0222 -0.2283  1.7751
  777MOL0     H 4839   6.815   7.590   0.918  0.2868 -1.4978 -0.0299
  777MOL0     H 4840   6.884   7.778   0.685 -1.8568 -0.6526  1.6679
  777MOL0     H 4841   6.953   7.787   0.850 -3.4794  1.3644  1.2567
  777MOL0     H 4842   7.054   7.613   0.614 -2.4721 -2.9136  0.0921
  777MOL0     H 4843   7.125   7.731   0.722 -0.9631  0.7191 -1.0083
  777MOL0     H 4844   7.033   7.461   0.837  1.3854 -1.1860 -1.7042
  777MOL0     H 4845   7.115   7.598   0.914 -1.2782  0.8153  0.5597
  777MOL0     H 4846   7.224   7.259   0.770 -0.3650  1.0668  0.4670
  777MOL0     H 4847   7.463   7.150   0.698  3.8914 -1.4060  0.4677
  777MOL0     H 4848   7.526   7.256   0.582  3.4376 -1.1890  0.4754
  777MOL0     H 4849   7.659   7.341   0.818 -2.0623 -0.7882  0.7532
  777MOL0     H 4850   7.706   7.238   0.689 -1.0115 -0.5357 -1.2398
  777MOL0     H 4851   7.569   7.052   0.830 -1.8916  2.4311  0.2511
  777MOL0     H 4852   7.584   7.178   0.958 -0.7139  0.1905 -0.0334
  777MOL0     H 4853   7.764   7.040   0.993  0.9929  0.0830  0.3744
  777MOL0     H 4854   7.827   7.180   0.877 -0.7290  1.0484 -1.9053
  777MOL0     H 4855   7.971   6.972   1.008  2.7847 -0.0190 -0.1465
  777MOL0     H 4856   8.248   6.850   1.060 -1.7817  3.3513 -1.7591
  777MOL0     H 4857   8.118   6.910   1.150  0.5058  0.2968 -0.9245
  777MOL0     H 4858   8.160   6.742   1.163  1.8927 -0.6751 -0.6885
  777MOL0     H 4859   8.225   6.257   0.691  0.6881 -0.4018 -2.0319
  777MOL0     H 4860   8.427   6.147   0.616 -1.5366  1.2666 -1.4510
  777MOL0     H 4861   8.814   6.299   0.521 -1.1908  1.3303 -0.9388
  777MOL0     H 4862   8.747   6.425   0.617 -1.5673 -0.3110  1.3545
  777MOL0     H 4863   8.867   6.347   0.811 -2.7653  1.7312 -1.2796
  777MOL0     H 4864   8.882   6.187   0.750  1.2259  0.5541  3.9462
  777MOL0     H 4865   9.047   6.251   0.584  1.1061 -0.6084 -0.1780
  777MOL0     H 4866   9.083   6.276   0.758 -1.0015 -1.7179 -0.0001
  777MOL0     H 4867   8.987   6.498   0.578 -0.8260  2.8583  3.0732
  777MOL0     H 4868   9.009   6.517   0.743 -3.0131 -1.1100 -0.0087
  777MOL0     H 4869   9.224   6.468   0.538  0.1860 -2.8952  0.9665
  777MOL0     H 4870   9.271   6.448   0.693 -0.9055  0.6737  2.1098
  777MOL0     H 4871   9.133   6.709   0.603 -3.7796 -2.5474  2.5349
  777MOL0     H 4872   9.218   6.688   0.762 -1.1725 -2.2092 -0.0937
  777MOL0     H 4873   9.359   6.648   0.512 -0.3639 -4.4844  2.7052
  777MOL0     H 4874   9.422   6.647   0.666 -1.5740 -3.4512 -0.0070
  777MOL0     H 4875   9.474   6.868   0.568 -0.3516 -1.3066 -1.1499
  777MOL0     H 4876   9.349   6.886   0.706  0.1347 -1.1205 -0.0174
  777MOL0     H 4877   8.660   6.454   0.821  0.1327  0.1921  0.9056
  777MOL0     H 4878   8.444   6.563   0.872  0.2738  0.3198  1.1439
  777MOL0     H 4879   8.002   6.604   0.694 -0.0821 -1.8688  2.4042
  777MOL0     H 4880   7.849   6.799   0.643 -0.4298 -1.7876 -0.0555
  777MOL0     H 4881   6.264   7.387   0.799 -0.2370  0.5869  2.9130
  777MOL0     H 4882   6.134   7.252   0.917 -0.4719  1.1772 -0.6632
  777MOL0     H 4883   6.157   6.762   1.066  1.2103  4.5760  0.9594
  777MOL0     H 4884   6.069   6.569   1.212 -0.4733 -0.5998  1.0674
  777MOL0     H 4885   6.024   6.444   1.380 -0.7297  1.3084 -1.3000
  777MOL0     H 4886   5.910   6.425   1.513  0.1124 -0.5877  1.0673
  777MOL0     H 4887   5.827   6.473   1.228 -0.3230  0.3566  0.0772
  777MOL0     H 4888   5.729   6.417   1.363 -0.7014  4.5700 -2.3737
  777MOL0     H 4889   5.886   6.214   1.378 -0.2801  0.4262 -0.5812
  777MOL0     H 4890   5.963   6.289   1.231  0.3045  3.4913  1.4707
  777MOL0     H 4891   5.801   6.104   1.160 -2.3257 -0.8992 -1.0940
  777MOL0     H 4892   5.748   6.266   1.106 -0.8288  0.1949 -0.4195
  777MOL0     H 4893   5.424   6.219   1.325 -0.4103  0.7972 -2.5724
  777MOL0     H 4894   5.862   6.848   1.439  1.8432 -0.9890  1.1878
  777MOL0     H 4895   5.951   7.045   1.290  1.7512  0.3621  3.2464
  778MOL0     O 4896   1.453   9.092   6.286 -0.3083  0.1082 -0.2865
  778MOL0     C 4897   1.420   9.128   6.175 -0.1577  0.5464  0.2437
  778MOL0     O 4898   1.403   9.035   6.076 -0.3509 -0.3631 -0.0499
  778MOL0     C 4899   1.312   9.058   5.979  0.2312 -0.3262  0.7999
  778MOL0     C 4900   1.172   9.074   6.003  0.1652  0.5578  0.1883
  778MOL0     C 4901   1.083   9.117   5.903 -0.1229 -0.5485 -0.0005
  778MOL0     C 4902   1.121   9.122   5.768  0.4816  0.3982  0.5883
  778MOL0     O 4903   1.021   9.143   5.679  0.0607 -0.7885 -0.0746
  778MOL0     C 4904   1.005   9.020   5.602 -0.1139 -0.3485  0.0168
  778MOL0     C 4905   0.878   9.003   5.526 -0.3962 -0.6748 -0.1646
  778MOL0     C 4906   0.755   8.995   5.630 -0.2152  0.1669  0.8258
  778MOL0     C 4907   0.749   8.883   5.734 -0.0194  0.6281  0.9171
  778MOL0     C 4908   0.624   8.895   5.820 -0.2846 -0.1614  0.7751
  778MOL0     C 4909   0.610   8.783   5.915  0.5014  1.1036  0.0370
  778MOL0     C 4910   0.484   8.793   6.009 -0.5344  0.0546 -0.5328
  778MOL0     C 4911   0.491   8.691   6.125 -0.5397  0.4435 -0.3737
  778MOL0     N 4912   0.513   8.550   6.078  0.4355 -1.0041 -1.1135
  778MOL0     C 4913   0.639   8.497   6.063  2.3234 -0.0119  0.4589
  778MOL0     C 4914   0.604   8.374   6.012 -0.7469 -0.0376  0.0484
  778MOL0     C 4915   0.706   8.281   5.939  0.3992 -0.0561 -0.2569
  778MOL0     C 4916   0.699   8.137   5.969  0.2296 -0.4512 -0.2213
  778MOL0     C 4917   0.628   8.082   6.088 -0.3664  0.1533 -1.0843
  778MOL0     C 4918   0.616   7.927   6.085 -1.4187  0.1360  0.1611
  778MOL0     O 4919   0.750   7.871   6.069 -0.5950  0.1011 -0.7822
  778MOL0     C 4920   0.772   7.735   6.088 -0.2061 -0.9630  1.0777
  778MOL0     C 4921   0.894   7.683   6.041  0.0908 -0.1125 -0.6386
  778MOL0     C 4922   0.922   7.543   6.060 -0.4766  0.5617  0.5628
  778MOL0     C 4923   1.061   7.521   6.023 -0.4807 -0.1643  0.1655
  778MOL0     C 4924   0.831   7.455   6.105  0.2624  0.4686  1.1240
  778MOL0     C 4925   0.853   7.305   6.119  0.2654 -0.3626 -0.9984
  778MOL0     O 4926   0.744   7.238   6.163  0.9433  0.0848  0.7889
  778MOL0     C 4927   0.755   7.108   6.216 -0.1724  0.0722  0.8563
  778MOL0     C 4928   0.747   7.086   6.354  0.7451  1.1838 -0.0381
  778MOL0     C 4929   0.756   6.951   6.407  0.3988  0.3092 -0.0432
  778MOL0     C 4930   0.784   6.847   6.321 -0.4637  1.0735  0.2754
  778MOL0     O 4931   0.782   6.717   6.360 -0.0260  0.2748 -0.4372
  778MOL0     C 4932   0.648   6.671   6.380 -0.3548  0.8420  0.4317
  778MOL0     C 4933   0.541   6.657   6.264  0.3152  0.8310  0.2956
  778MOL0     C 4934   0.608   6.563   6.163 -0.0018  0.2880  0.0620
  778MOL0     C 4935   0.498   6.486   6.075  0.3116 -0.4859 -0.3384
  778MOL0     C 4936   0.415   6.380   6.164  0.8804  0.2224 -0.3830
  778MOL0     C 4937   0.314   6.300   6.072  0.1465  0.2723 -0.3748
  778MOL0     C 4938   0.349   6.192   5.974 -0.4915 -0.3196 -0.0836
  778MOL0     C 4939   0.260   6.181   5.852 -0.0822  0.1397 -0.4628
  778MOL0    Cl 4940   0.252   6.004   5.829  0.5485 -0.2738  0.2525
  778MOL0     C 4941   0.812   6.874   6.182 -0.4688  0.1187 -0.2787
  778MOL0     C 4942   0.787   6.997   6.125  0.0689 -0.1776 -0.1725
  778MOL0     O 4943   0.971   7.260   6.114  0.1582 -0.6729  0.5756
  778MOL0     C 4944   0.712   7.515   6.150  0.0403 -0.5597 -0.4271
  778MOL0     C 4945   0.684   7.651   6.149  0.3464 -0.6894  0.3701
  778MOL0     N 4946   0.470   8.362   5.983  0.1475  0.2493  0.4226
  778MOL0     N 4947   0.416   8.462   6.037  0.5283 -0.7000  0.4523
  778MOL0     C 4948   1.262   9.113   5.743 -0.8310  0.6738 -0.4324
  778MOL0     C 4949   1.356   9.087   5.847 -0.1640 -0.8191 -0.4077
  778MOL0     C 4950   1.363   9.274   6.160 -0.6796  0.0992 -0.6330
  778MOL0     C 4951   1.394   9.355   6.053 -0.7944  0.2410  0.5020
  778MOL0     C 4952   1.358   9.488   6.055  0.4284  0.1607  0.4209
  778MOL0     C 4953   1.290   9.544   6.170  0.5192  0.2566  0.6437
  778MOL0     O 4954   1.269   9.679   6.161  0.5378  0.3139 -0.0415
  778MOL0     C 4955   1.219   9.737   6.278  0.5452  0.7795  0.2251
  778MOL0     C 4956   1.307   9.746   6.400  0.3723  0.6058 -0.9793
  778MOL0     C 4957   1.459   9.776   6.366 -0.3936  0.0337  0.6010
  778MOL0     C 4958   1.543   9.746   6.489 -0.1157 -0.3581  0.3494
  778MOL0     C 4959   1.671   9.801   6.481 -0.1531  0.2392  0.6203
  778MOL0     C 4960   1.777   9.861   6.510  0.1066 -0.2309 -0.1297
  778MOL0     C 4961   1.253   9.453   6.271  0.6603 -0.2783 -0.2835
  778MOL0     C 4962   1.297   9.321   6.274  0.2808 -0.1758 -0.4283
  778MOL0     H 4963   1.120   9.067   6.098  0.5208 -0.7657  0.3034
  778MOL0     H 4964   0.978   9.135   5.924 -0.6195 -2.3476 -0.7533
  778MOL0     H 4965   1.084   9.018   5.527 -1.4541  0.0851 -1.4491
  778MOL0     H 4966   1.020   8.932   5.666 -2.5462  0.7166  2.2509
  778MOL0     H 4967   0.868   9.080   5.449 -3.0584 -0.2716  0.4755
  778MOL0     H 4968   0.875   8.907   5.473 -1.4465  0.0359 -1.4304
  778MOL0     H 4969   0.759   9.088   5.687  2.3200  0.3048  0.5293
  778MOL0     H 4970   0.662   9.002   5.573  1.7793  0.6033 -2.6251
  778MOL0     H 4971   0.735   8.787   5.683  0.6655  2.5659 -3.2799
  778MOL0     H 4972   0.836   8.887   5.801  0.6367  1.3657  0.0303
  778MOL0     H 4973   0.632   8.986   5.879  1.9322 -1.0199  1.8871
  778MOL0     H 4974   0.537   8.907   5.754 -0.5962 -0.3258  1.1550
  778MOL0     H 4975   0.597   8.690   5.858  0.6776  1.2640 -0.2706
  778MOL0     H 4976   0.699   8.776   5.978 -0.2317 -0.1631  0.9716
  778MOL0     H 4977   0.489   8.893   6.054 -1.1874 -1.4401  3.2356
  778MOL0     H 4978   0.385   8.805   5.962 -0.3217  2.5473 -0.4925
  778MOL0     H 4979   0.402   8.694   6.188 -2.7915 -0.1943 -3.2875
  778MOL0     H 4980   0.571   8.723   6.193  1.5653 -1.9224 -1.5374
  778MOL0     H 4981   0.738   8.538   6.076  1.6647  1.6611  0.3506
  778MOL0     H 4982   0.701   8.282   5.830 -1.4913 -0.7949 -0.2085
  778MOL0     H 4983   0.803   8.323   5.968 -0.6407  0.6732  2.5228
  778MOL0     H 4984   0.805   8.110   5.960  0.3261  0.1276 -0.9333
  778MOL0     H 4985   0.646   8.089   5.886  2.3493  1.1719 -2.6766
  778MOL0     H 4986   0.530   8.127   6.109  0.8164  1.7723  1.6337
  778MOL0     H 4987   0.687   8.124   6.171  1.3499 -0.0074 -2.1741
  778MOL0     H 4988   0.541   7.891   6.015 -2.7155  3.1216 -0.1208
  778MOL0     H 4989   0.578   7.908   6.186 -3.7308  1.3672 -0.4163
  778MOL0     H 4990   0.959   7.754   5.992  2.7533 -0.2328  2.4261
  778MOL0     H 4991   1.096   7.609   5.969 -1.6828  2.8961  3.8708
  778MOL0     H 4992   1.119   7.522   6.116 -1.8561  0.6932  1.0498
  778MOL0     H 4993   1.081   7.434   5.961  0.1158 -0.2630  0.4854
  778MOL0     H 4994   0.749   7.169   6.425  1.1632  0.7585  0.4595
  778MOL0     H 4995   0.750   6.936   6.515 -0.2440 -3.4359 -0.4448
  778MOL0     H 4996   0.669   6.569   6.414 -0.4066  0.4009 -0.8234
  778MOL0     H 4997   0.607   6.720   6.469  0.2788 -0.4819  1.4893
  778MOL0     H 4998   0.458   6.605   6.314 -0.6977  2.2990  0.2064
  778MOL0     H 4999   0.520   6.754   6.218  0.6752 -0.1571 -2.1036
  778MOL0     H 5000   0.672   6.495   6.219  0.6007  2.4498  2.1482
  778MOL0     H 5001   0.681   6.613   6.098  1.1185 -2.0870 -0.6553
  778MOL0     H 5002   0.437   6.563   6.026 -0.2864 -0.4293  0.4839
  778MOL0     H 5003   0.543   6.425   5.996 -0.2010 -2.1676  0.6358
  778MOL0     H 5004   0.357   6.434   6.240  0.7680 -1.0293  0.4490
  778MOL0     H 5005   0.484   6.311   6.212 -2.5898 -3.4354 -0.1146
  778MOL0     H 5006   0.243   6.252   6.140  0.4551 -2.4225 -1.8029
  778MOL0     H 5007   0.272   6.374   6.003  2.2056  0.0152 -2.0108
  778MOL0     H 5008   0.349   6.101   6.035 -2.9454  1.0588  2.1692
  778MOL0     H 5009   0.454   6.199   5.944  0.5534 -1.5874  2.8406
  778MOL0     H 5010   0.304   6.236   5.768 -0.3450 -0.2123 -0.8340
  778MOL0     H 5011   0.166   6.219   5.891  0.9623 -0.0691  2.4971
  778MOL0     H 5012   0.823   6.791   6.112  0.8095  0.9308 -1.1011
  778MOL0     H 5013   0.782   7.020   6.019  1.2055  0.3386 -0.1297
  778MOL0     H 5014   0.646   7.453   6.210  0.3736  0.3166  0.8869
  778MOL0     H 5015   0.592   7.683   6.199  0.7032 -1.7928  1.8244
  778MOL0     H 5016   1.316   9.115   5.649  0.2497 -0.3994  0.1338
  778MOL0     H 5017   1.461   9.080   5.819 -0.3150  1.3697 -1.8281
  778MOL0     H 5018   1.454   9.329   5.966  0.5551 -0.2824  1.5513
  778MOL0     H 5019   1.387   9.566   5.986 -0.0127 -0.6645 -0.7209
  778MOL0     H 5020   1.182   9.836   6.250 -4.6499 -1.3863 -1.7504
  778MOL0     H 5021   1.125   9.686   6.302  0.9764 -0.5760 -0.8056
  778MOL0     H 5022   1.304   9.646   6.445  1.4755  0.1199 -1.9218
  778MOL0     H 5023   1.280   9.823   6.473 -0.8233 -1.5636  1.0016
  778MOL0     H 5024   1.467   9.881   6.338 -0.0729 -0.3228 -0.7189
  778MOL0     H 5025   1.489   9.713   6.281 -0.4884  0.9080 -0.0858
  778MOL0     H 5026   1.551   9.637   6.500  2.7513 -0.0235  2.9331
  778MOL0     H 5027   1.489   9.786   6.575  1.4811 -0.0280  1.2445
  778MOL0     H 5028   1.852   9.926   6.550  0.4357  0.2259 -1.4349
  778MOL0     H 5029   1.188   9.470   6.356  0.6674  1.4738 -0.5909
  778MOL0     H 5030   1.273   9.253   6.355 -0.4214  1.2104  0.5626
  779MOL0     O 5031   7.155   8.954   5.932 -0.9050 -0.5723 -0.8321
  779MOL0     C 5032   7.111   8.847   5.981  0.0477 -0.3310 -1.1491
  779MOL0     O 5033   7.080   8.734   5.899 -0.0352 -0.6770 -0.0702
  779MOL0     C 5034   7.060   8.768   5.766 -0.5924  1.2162 -0.6041
  779MOL0     C 5035   6.955   8.858   5.719  0.5026  0.1678  1.1476
  779MOL0     C 5036   6.926   8.870   5.580 -0.2177 -0.1865  0.1789
  779MOL0     C 5037   7.001   8.786   5.493  0.7233 -0.6404  0.5635
  779MOL0     O 5038   6.965   8.797   5.364  0.7139 -0.0371 -0.1985
  779MOL0     C 5039   7.055   8.743   5.270 -0.0914 -0.0806  0.7575
  779MOL0     C 5040   7.000   8.793   5.131 -0.5325 -0.2315 -0.2980
  779MOL0     C 5041   7.118   8.763   5.030  0.3177 -0.5553 -0.7095
  779MOL0     C 5042   7.134   8.620   4.997  0.0130  1.0582 -0.4636
  779MOL0     C 5043   7.250   8.593   4.900  0.0527  0.4079  0.4970
  779MOL0     C 5044   7.277   8.445   4.890 -0.6304  0.3853  0.0923
  779MOL0     C 5045   7.333   8.400   4.757 -0.6110  0.8567  0.8802
  779MOL0     C 5046   7.432   8.276   4.775  0.7808  0.0765 -0.0426
  779MOL0     N 5047   7.517   8.242   4.659  0.8636 -0.2429 -0.3779
  779MOL0     C 5048   7.600   8.335   4.603 -0.4976  0.4047 -0.1617
  779MOL0     C 5049   7.641   8.274   4.496 -0.5868  0.1487 -0.2084
  779MOL0     C 5050   7.709   8.338   4.389 -0.5907  0.1086  0.1389
  779MOL0     C 5051   7.861   8.329   4.428  0.7703  0.2871 -1.1055
  779MOL0     C 5052   7.938   8.393   4.322 -0.0009 -0.8792 -0.1220
  779MOL0     C 5053   8.087   8.410   4.351 -0.1818  0.1372 -0.1334
  779MOL0     O 5054   8.159   8.442   4.226  0.6013 -0.0004 -0.0435
  779MOL0     C 5055   8.278   8.519   4.246  1.0052 -0.0646 -0.9541
  779MOL0     C 5056   8.316   8.618   4.151 -0.6931 -0.8188  0.3236
  779MOL0     C 5057   8.425   8.696   4.171 -0.2907  0.5943  0.1859
  779MOL0     C 5058   8.468   8.772   4.040  0.0375 -0.4611  0.0340
  779MOL0     C 5059   8.492   8.687   4.296 -0.4251  0.7789  0.1141
  779MOL0     C 5060   8.591   8.780   4.341 -0.3368  0.8164 -0.3374
  779MOL0     O 5061   8.681   8.742   4.449  0.3292  0.3268  0.3123
  779MOL0     C 5062   8.786   8.822   4.495  0.1716  0.3007 -0.1851
  779MOL0     C 5063   8.914   8.772   4.508  0.5731  0.1239  0.4228
  779MOL0     C 5064   9.020   8.844   4.562  0.1616 -0.1639 -1.1683
  779MOL0     C 5065   8.996   8.982   4.603 -0.4950  0.6164 -0.6221
  779MOL0     O 5066   9.084   9.067   4.658  0.3810  0.2191 -0.5044
  779MOL0     C 5067   9.146   9.025   4.776 -1.0996 -0.1422 -0.7938
  779MOL0     C 5068   9.076   9.070   4.901  0.1851 -0.6737 -0.2353
  779MOL0     C 5069   9.155   9.059   5.036  0.9241 -1.1465  0.5966
  779MOL0     C 5070   9.214   8.920   5.062  0.7547  0.1676 -0.5426
  779MOL0     C 5071   9.326   8.902   5.170  0.1911 -0.3380 -1.1082
  779MOL0     C 5072   9.456   8.973   5.128  0.3271 -0.8653  0.4085
  779MOL0     C 5073   9.569   8.922   5.210 -0.4675  0.1878  0.2745
  779MOL0     C 5074   9.699   8.990   5.179 -0.5826  0.0235  0.2438
  779MOL0    Cl 5075   9.689   9.166   5.166  0.4248  0.5389 -0.2593
  779MOL0     C 5076   8.874   9.037   4.574 -0.1086  0.5999 -0.8434
  779MOL0     C 5077   8.774   8.957   4.510 -0.0532 -0.6224  0.3134
  779MOL0     O 5078   8.606   8.883   4.275  0.4956 -0.5962  0.0948
  779MOL0     C 5079   8.476   8.581   4.378 -0.9370  0.7136 -0.0849
  779MOL0     C 5080   8.365   8.498   4.358  1.4308  0.0184 -0.8254
  779MOL0     N 5081   7.603   8.141   4.489  1.1063  0.8062  0.7855
  779MOL0     N 5082   7.531   8.124   4.593  0.9726  0.3334  0.3695
  779MOL0     C 5083   7.103   8.706   5.542  0.0141  0.6104  0.7421
  779MOL0     C 5084   7.130   8.689   5.676  0.4694  0.3457 -0.0743
  779MOL0     C 5085   7.111   8.825   6.126  0.1612  0.7933 -0.2753
  779MOL0     C 5086   7.239   8.819   6.187  0.5260 -0.0988  0.1507
  779MOL0     C 5087   7.245   8.777   6.324 -0.6454  0.3156 -0.3053
  779MOL0     C 5088   7.126   8.755   6.393  0.0141  0.6237 -0.3125
  779MOL0     O 5089   7.117   8.719   6.525  0.2898  0.1830 -0.2324
  779MOL0     C 5090   7.211   8.614   6.558  0.4626  0.1158  0.8629
  779MOL0     C 5091   7.178   8.552   6.697 -0.4862  0.2127 -0.5310
  779MOL0     C 5092   7.033   8.496   6.692  0.3116 -0.1860 -0.0284
  779MOL0     C 5093   6.973   8.501   6.833 -0.2556 -0.2316 -0.7975
  779MOL0     C 5094   6.851   8.423   6.827  0.7992 -0.8731 -0.8774
  779MOL0     C 5095   6.748   8.352   6.839 -0.4422 -0.2504 -0.0910
  779MOL0     C 5096   7.007   8.770   6.324  0.0167 -0.0429  0.1840
  779MOL0     C 5097   6.996   8.800   6.195  0.6251  0.0530  0.2563
  779MOL0     H 5098   6.901   8.914   5.795 -1.3241  0.6880 -0.4512
  779MOL0     H 5099   6.836   8.928   5.564 -1.2258 -1.0004  2.5239
  779MOL0     H 5100   7.152   8.791   5.280  1.0833 -2.8189  4.5282
  779MOL0     H 5101   7.058   8.635   5.283  1.3185  0.1293  2.5386
  779MOL0     H 5102   6.911   8.731   5.119  0.3805 -1.5211 -0.6332
  779MOL0     H 5103   6.985   8.898   5.156 -1.9892 -1.2267  3.9308
  779MOL0     H 5104   7.081   8.809   4.937  0.2294  0.7838 -0.0433
  779MOL0     H 5105   7.212   8.816   5.051  0.8540 -1.3160 -1.1359
  779MOL0     H 5106   7.153   8.560   5.086 -0.8038 -0.1975 -1.1215
  779MOL0     H 5107   7.046   8.570   4.957  1.0880  0.8687 -2.7700
  779MOL0     H 5108   7.208   8.634   4.807 -2.5763 -1.0275  0.9549
  779MOL0     H 5109   7.335   8.654   4.933  0.2651  1.0695 -1.1490
  779MOL0     H 5110   7.338   8.409   4.973 -0.1821  2.0728  0.5366
  779MOL0     H 5111   7.183   8.392   4.906  0.5878 -1.2403  2.2065
  779MOL0     H 5112   7.258   8.382   4.679  0.1545  0.8222  0.1271
  779MOL0     H 5113   7.402   8.484   4.738  1.2882 -0.8589 -0.1914
  779MOL0     H 5114   7.365   8.190   4.787  0.8456  0.1074  0.5664
  779MOL0     H 5115   7.497   8.298   4.860 -1.2776 -1.0232  1.9187
  779MOL0     H 5116   7.616   8.440   4.625  0.3554  0.4232 -0.8120
  779MOL0     H 5117   7.701   8.285   4.294 -2.3179 -0.3984  0.5304
  779MOL0     H 5118   7.679   8.442   4.374  1.6859  0.8240  0.1694
  779MOL0     H 5119   7.898   8.228   4.447 -0.6613 -0.0660 -0.0020
  779MOL0     H 5120   7.877   8.383   4.522 -1.3657 -0.8228 -0.0272
  779MOL0     H 5121   7.912   8.500   4.324  0.3180 -0.8132  0.5617
  779MOL0     H 5122   7.920   8.341   4.228 -0.2620  0.8848 -1.1068
  779MOL0     H 5123   8.131   8.317   4.388  0.8696 -0.1696 -2.0215
  779MOL0     H 5124   8.094   8.489   4.426 -0.6065 -1.2740  1.4395
  779MOL0     H 5125   8.266   8.614   4.055  3.4899  0.6576 -2.2086
  779MOL0     H 5126   8.468   8.708   3.952  0.5580  1.0510 -1.1033
  779MOL0     H 5127   8.404   8.859   4.021  0.2458 -0.1064  0.8773
  779MOL0     H 5128   8.575   8.793   4.048  0.3419 -1.6296 -0.8680
  779MOL0     H 5129   8.936   8.670   4.478 -1.9544  0.2166 -2.2645
  779MOL0     H 5130   9.120   8.807   4.581  2.0398  5.0403  0.7028
  779MOL0     H 5131   9.167   8.918   4.772  0.9655  0.2612 -2.6036
  779MOL0     H 5132   9.242   9.076   4.791  0.4235 -3.0305 -0.1538
  779MOL0     H 5133   9.036   9.170   4.882 -0.7636 -1.5698 -3.7186
  779MOL0     H 5134   8.984   9.010   4.906  1.7970 -3.3687 -0.8758
  779MOL0     H 5135   9.102   9.093   5.126  0.3656  0.2103 -0.2104
  779MOL0     H 5136   9.227   9.140   5.023 -2.3542  1.7009 -1.5588
  779MOL0     H 5137   9.131   8.852   5.084  1.0090 -0.0208 -0.1540
  779MOL0     H 5138   9.266   8.899   4.968  1.8724  2.5092 -0.5154
  779MOL0     H 5139   9.337   8.795   5.189 -3.0629 -0.7801 -1.1158
  779MOL0     H 5140   9.296   8.934   5.271  2.8089  0.6087 -0.5542
  779MOL0     H 5141   9.478   8.949   5.023 -0.6995  1.3485 -0.3715
  779MOL0     H 5142   9.440   9.080   5.138 -1.3727 -0.6723 -2.8918
  779MOL0     H 5143   9.582   8.817   5.182 -0.5216 -0.3413  2.1061
  779MOL0     H 5144   9.544   8.925   5.317  2.4359  1.2069  1.0059
  779MOL0     H 5145   9.736   8.944   5.087  1.7801  0.9423  0.6541
  779MOL0     H 5146   9.777   8.959   5.249  1.0430  0.7961 -1.1596
  779MOL0     H 5147   8.855   9.138   4.607 -3.2575 -0.7088  2.0482
  779MOL0     H 5148   8.680   9.005   4.486  1.2850  2.5995  1.0437
  779MOL0     H 5149   8.523   8.569   4.476  0.3277  1.5811 -0.5440
  779MOL0     H 5150   8.344   8.422   4.433 -0.4137  2.3913  1.2185
  779MOL0     H 5151   7.159   8.649   5.468 -1.1005  0.5706 -0.0954
  779MOL0     H 5152   7.197   8.618   5.721 -0.7151  0.8469  2.6900
  779MOL0     H 5153   7.330   8.846   6.135  0.5737 -0.4646  0.0459
  779MOL0     H 5154   7.344   8.781   6.369 -1.1583  3.3629  0.7780
  779MOL0     H 5155   7.209   8.527   6.492 -0.2211 -1.9503  3.4494
  779MOL0     H 5156   7.314   8.650   6.551 -0.4313  2.8103  0.4318
  779MOL0     H 5157   7.186   8.619   6.783 -0.1895 -1.7166  1.0066
  779MOL0     H 5158   7.239   8.464   6.721  1.4535  1.3136 -1.2192
  779MOL0     H 5159   7.025   8.394   6.654 -3.3292  0.8814 -2.6685
  779MOL0     H 5160   6.970   8.548   6.620 -0.7361 -2.3069 -0.7383
  779MOL0     H 5161   6.967   8.603   6.871  0.3663 -0.9488  1.3718
  779MOL0     H 5162   7.037   8.438   6.895 -2.3295 -1.6239  0.0507
  779MOL0     H 5163   6.657   8.301   6.861 -1.7307  3.0962  3.5396
  779MOL0     H 5164   6.925   8.761   6.395  1.7061 -0.3558  2.1813
  779MOL0     H 5165   6.902   8.797   6.142  0.4083 -1.6117  0.6925
  780MOL0     O 5166   5.015   2.316   3.798  0.6408  0.5942 -0.5722
  780MOL0     C 5167   5.036   2.412   3.860  0.5355 -0.5626  0.8973
  780MOL0     O 5168   5.117   2.428   3.961 -0.2044  0.2456  0.3110
  780MOL0     C 5169   5.200   2.332   4.003 -0.0943 -0.5747  0.3275
  780MOL0     C 5170   5.161   2.194   4.034  0.5121 -0.0802 -0.0649
  780MOL0     C 5171   5.247   2.102   4.089 -0.6130 -0.7803  0.4507
  780MOL0     C 5172   5.373   2.145   4.123  0.1060  0.7287 -0.1534
  780MOL0     O 5173   5.465   2.066   4.191 -0.7537 -0.1346  1.1401
  780MOL0     C 5174   5.453   2.038   4.331  0.6014  1.0211 -0.4814
  780MOL0     C 5175   5.483   1.884   4.357  0.0843 -0.1880  1.0428
  780MOL0     C 5176   5.396   1.786   4.288  0.3670  0.0078  0.9615
  780MOL0     C 5177   5.273   1.761   4.372  0.3413  0.0588 -0.2360
  780MOL0     C 5178   5.179   1.683   4.295  0.4560 -0.6898  0.5164
  780MOL0     C 5179   5.054   1.657   4.365 -0.0184 -0.2140 -1.0914
  780MOL0     C 5180   4.960   1.581   4.278  0.0025  0.1140  0.3213
  780MOL0     C 5181   4.911   1.652   4.146 -1.5798 -0.4551 -0.4706
  780MOL0     N 5182   4.873   1.789   4.190 -0.5891  0.4731  0.0021
  780MOL0     C 5183   4.753   1.841   4.205 -0.9708 -0.0778 -0.0529
  780MOL0     C 5184   4.761   1.981   4.215 -0.5717 -0.6240 -0.1726
  780MOL0     C 5185   4.643   2.075   4.220 -0.5322 -0.0652  0.0343
  780MOL0     C 5186   4.559   2.066   4.091  0.1561 -0.4068 -0.4526
  780MOL0     C 5187   4.627   2.131   3.968 -0.6211  0.4024  0.5284
  780MOL0     C 5188   4.521   2.151   3.856 -0.3809 -0.6196 -0.5583
  780MOL0     O 5189   4.395   2.213   3.889 -0.9893  0.1400 -0.2697
  780MOL0     C 5190   4.400   2.348   3.890 -0.6433 -0.3897 -0.7301
  780MOL0     C 5191   4.271   2.405   3.930 -0.4020 -0.0454 -0.2058
  780MOL0     C 5192   4.261   2.543   3.943  0.7417 -0.2667 -0.3465
  780MOL0     C 5193   4.131   2.595   3.991  0.1536 -0.0596 -0.2445
  780MOL0     C 5194   4.379   2.623   3.927  0.7394 -0.9122 -0.6147
  780MOL0     C 5195   4.389   2.767   3.970 -0.5219 -0.2303 -0.3351
  780MOL0     O 5196   4.511   2.810   3.998 -0.2528  0.5402 -0.2911
  780MOL0     C 5197   4.536   2.920   4.066 -0.7504 -0.5559  0.4901
  780MOL0     C 5198   4.556   3.040   3.991  0.3910  0.4579  0.5996
  780MOL0     C 5199   4.580   3.162   4.065 -0.3643 -0.6550 -0.3257
  780MOL0     C 5200   4.584   3.152   4.206  0.4868 -0.4333 -0.1733
  780MOL0     O 5201   4.611   3.257   4.292  0.0095 -0.0010  0.4672
  780MOL0     C 5202   4.670   3.373   4.232 -0.5894 -0.2457 -0.3163
  780MOL0     C 5203   4.816   3.354   4.187 -0.2327 -0.1259  0.5151
  780MOL0     C 5204   4.873   3.468   4.108 -0.4219 -0.1776  0.2529
  780MOL0     C 5205   4.861   3.437   3.958  1.6930  0.1937  0.1817
  780MOL0     C 5206   4.904   3.557   3.866  0.4413  0.7583 -0.2652
  780MOL0     C 5207   4.889   3.692   3.935  0.2764 -0.0422  0.4461
  780MOL0     C 5208   4.898   3.809   3.832  0.8007  0.3961  0.0541
  780MOL0     C 5209   4.870   3.949   3.888 -0.1447 -0.4633  0.3601
  780MOL0    Cl 5210   5.002   4.011   3.995 -0.1821 -0.1597  0.2270
  780MOL0     C 5211   4.559   3.034   4.273 -0.4401 -0.0351 -0.9901
  780MOL0     C 5212   4.535   2.917   4.208  0.5364  0.5617  0.9021
  780MOL0     O 5213   4.289   2.842   3.974 -0.6611 -0.6808 -0.0800
  780MOL0     C 5214   4.497   2.570   3.885  0.1620  0.4197  0.6999
  780MOL0     C 5215   4.506   2.435   3.868  0.9096 -0.4485 -0.2691
  780MOL0     N 5216   4.898   2.007   4.186  0.5788 -0.2120  0.2273
  780MOL0     N 5217   4.959   1.892   4.174 -0.6411 -0.7145  0.3008
  780MOL0     C 5218   5.425   2.265   4.072  0.4689  0.7568 -0.1588
  780MOL0     C 5219   5.335   2.355   4.016 -0.2143 -0.5779 -0.7143
  780MOL0     C 5220   4.970   2.542   3.818 -0.5716  0.4761 -0.6307
  780MOL0     C 5221   5.028   2.657   3.872 -0.2166 -0.0606  0.2209
  780MOL0     C 5222   4.993   2.783   3.827 -0.4656  0.5830 -0.1414
  780MOL0     C 5223   4.891   2.793   3.726 -0.4990 -0.1489  0.6419
  780MOL0     O 5224   4.859   2.915   3.672 -0.0241  0.1033 -0.4697
  780MOL0     C 5225   4.927   3.034   3.705 -0.5271 -0.3862 -0.5728
  780MOL0     C 5226   4.877   3.139   3.615  0.9490  0.5202  0.7297
  780MOL0     C 5227   4.727   3.185   3.647 -0.3716 -0.1700  0.2513
  780MOL0     C 5228   4.653   3.262   3.534  0.3012  0.6801  0.5217
  780MOL0     C 5229   4.732   3.324   3.432 -0.1017  0.5889  0.3021
  780MOL0     C 5230   4.808   3.369   3.345  0.2337 -0.0923  0.4675
  780MOL0     C 5231   4.831   2.676   3.678  1.2737  0.0498  0.0688
  780MOL0     C 5232   4.868   2.553   3.726 -0.0404  0.1943  0.0910
  780MOL0     H 5233   5.061   2.154   4.038  1.6773 -3.1435  1.3997
  780MOL0     H 5234   5.221   2.007   4.135  0.2364 -1.3368 -0.1850
  780MOL0     H 5235   5.529   2.100   4.380  1.9125 -1.6765  1.1534
  780MOL0     H 5236   5.356   2.064   4.375 -0.2869 -0.7566 -1.2840
  780MOL0     H 5237   5.587   1.869   4.326  0.3755  1.3507  1.1908
  780MOL0     H 5238   5.496   1.862   4.464  0.7846  2.6688  1.6319
  780MOL0     H 5239   5.371   1.831   4.192  2.1332  1.9459  1.3390
  780MOL0     H 5240   5.435   1.686   4.265  0.3950  0.1199  0.5143
  780MOL0     H 5241   5.294   1.707   4.464 -0.3020  0.7053  0.3036
  780MOL0     H 5242   5.237   1.859   4.407 -3.1107 -0.7704 -1.0933
  780MOL0     H 5243   5.152   1.737   4.204  3.0094  2.8375  1.6462
  780MOL0     H 5244   5.213   1.584   4.263  0.2615 -0.7768  0.5742
  780MOL0     H 5245   5.068   1.613   4.464 -1.7094  1.2437 -0.1217
  780MOL0     H 5246   5.010   1.754   4.393  1.5377  0.1739  0.1328
  780MOL0     H 5247   5.004   1.483   4.255 -2.9433 -1.4100  0.6504
  780MOL0     H 5248   4.869   1.562   4.336 -0.7657 -0.2887 -0.9865
  780MOL0     H 5249   4.823   1.603   4.104 -1.1925  0.4533 -2.4560
  780MOL0     H 5250   4.986   1.654   4.066 -0.8203 -3.2264  0.0722
  780MOL0     H 5251   4.659   1.786   4.210 -2.3219  2.1114 -0.1486
  780MOL0     H 5252   4.593   2.054   4.315  2.0028 -1.3202  1.2123
  780MOL0     H 5253   4.686   2.173   4.241  5.1121 -1.2165 -3.8715
  780MOL0     H 5254   4.468   2.120   4.118  1.1285  1.2550 -0.3869
  780MOL0     H 5255   4.515   1.966   4.078 -3.6420  0.5907  2.7248
  780MOL0     H 5256   4.697   2.060   3.923 -1.0341 -0.5535  1.3665
  780MOL0     H 5257   4.674   2.226   3.994 -1.3483  0.3801  1.9866
  780MOL0     H 5258   4.493   2.050   3.827 -2.2988 -1.0396  2.3858
  780MOL0     H 5259   4.559   2.209   3.771 -1.1393  0.7187 -0.0211
  780MOL0     H 5260   4.195   2.328   3.937  0.8460 -1.5041 -1.7294
  780MOL0     H 5261   4.098   2.672   3.921  1.7095 -0.8045 -1.8852
  780MOL0     H 5262   4.055   2.525   4.025  2.3233 -2.2329  0.4837
  780MOL0     H 5263   4.162   2.637   4.087 -0.6750 -2.2534  1.0523
  780MOL0     H 5264   4.563   3.037   3.883  3.7084  1.6156  0.6715
  780MOL0     H 5265   4.605   3.261   4.026 -0.8287  0.6667  2.4746
  780MOL0     H 5266   4.602   3.411   4.156 -1.5187  0.5094  0.8583
  780MOL0     H 5267   4.681   3.452   4.307  1.4996 -0.6206 -0.1682
  780MOL0     H 5268   4.871   3.338   4.280  2.4180 -0.3360 -0.9966
  780MOL0     H 5269   4.824   3.261   4.130 -2.4898 -1.0058  1.5226
  780MOL0     H 5270   4.972   3.493   4.145 -0.2078  1.2364 -1.1417
  780MOL0     H 5271   4.806   3.552   4.127  2.0908  2.6638 -2.4799
  780MOL0     H 5272   4.907   3.340   3.937 -0.5312 -1.4872  2.5040
  780MOL0     H 5273   4.755   3.424   3.934  0.7579 -3.6143  4.8481
  780MOL0     H 5274   4.859   3.559   3.766 -3.5335 -3.3541  1.1047
  780MOL0     H 5275   5.012   3.551   3.847  0.5668 -0.7437  0.7864
  780MOL0     H 5276   4.786   3.702   3.969 -0.9156 -0.6197 -2.6087
  780MOL0     H 5277   4.968   3.718   4.006 -0.4332  2.2867  0.4370
  780MOL0     H 5278   4.811   3.787   3.770  1.7805 -2.5860 -0.4151
  780MOL0     H 5279   4.991   3.803   3.775  1.0877 -1.7875  0.6553
  780MOL0     H 5280   4.771   3.954   3.934 -0.5030  0.7803 -0.4785
  780MOL0     H 5281   4.864   4.007   3.795 -0.2892 -2.5430 -0.9739
  780MOL0     H 5282   4.559   3.019   4.381  0.1764 -2.4476 -1.2688
  780MOL0     H 5283   4.521   2.824   4.262  2.8929 -2.5508 -3.2369
  780MOL0     H 5284   4.590   2.624   3.872  1.1491 -0.7684  2.5439
  780MOL0     H 5285   4.607   2.399   3.854  1.0261 -0.0407 -0.5053
  780MOL0     H 5286   5.530   2.285   4.084  0.6845  1.5643 -2.7094
  780MOL0     H 5287   5.384   2.452   4.012 -1.9166  0.4243  1.0984
  780MOL0     H 5288   5.110   2.650   3.942 -2.6852 -0.2347  3.3740
  780MOL0     H 5289   5.046   2.872   3.860  0.4169 -0.3737  1.1026
  780MOL0     H 5290   4.902   3.057   3.809 -2.5932  1.0170 -1.3172
  780MOL0     H 5291   5.034   3.025   3.683 -0.8476 -0.9779 -2.0086
  780MOL0     H 5292   4.890   3.092   3.518  2.5535 -0.5476  1.4160
  780MOL0     H 5293   4.936   3.231   3.622  2.6749 -0.2096 -2.4195
  780MOL0     H 5294   4.721   3.256   3.730 -7.1396  1.8873 -1.3221
  780MOL0     H 5295   4.659   3.104   3.675 -4.9040  2.7458 -1.1440
  780MOL0     H 5296   4.578   3.338   3.555 -0.6900  0.3847 -1.6935
  780MOL0     H 5297   4.592   3.191   3.479 -0.0182 -0.9590  2.8190
  780MOL0     H 5298   4.863   3.418   3.267  2.5613  0.8371  2.5473
  780MOL0     H 5299   4.746   2.688   3.611  2.6795  1.5022 -1.5459
  780MOL0     H 5300   4.827   2.461   3.686  3.7247 -2.0491  0.9217
  781MOL0     O 5301   5.505   8.690   7.663 -0.0214 -0.5681  0.4609
  781MOL0     C 5302   5.486   8.664   7.546 -1.1367  0.6347  0.5085
  781MOL0     O 5303   5.536   8.743   7.442 -0.1484 -0.0563  0.2436
  781MOL0     C 5304   5.652   8.819   7.479  0.3560  0.5704  0.5338
  781MOL0     C 5305   5.770   8.755   7.515 -0.4436 -0.1518  0.0053
  781MOL0     C 5306   5.882   8.828   7.557 -0.4677 -0.7519  0.1182
  781MOL0     C 5307   5.878   8.964   7.560 -0.0870 -0.0299 -0.8302
  781MOL0     O 5308   5.997   9.023   7.595 -0.2746  0.9064 -0.1758
  781MOL0     C 5309   5.996   9.162   7.589 -0.4127 -0.3497 -0.0261
  781MOL0     C 5310   6.135   9.211   7.613 -0.5390  0.3979 -0.4012
  781MOL0     C 5311   6.241   9.180   7.514  0.1331 -0.4676  0.8592
  781MOL0     C 5312   6.306   9.312   7.472  0.7341  0.3724  0.6627
  781MOL0     C 5313   6.454   9.295   7.441 -0.4406 -0.1283 -0.2138
  781MOL0     C 5314   6.554   9.312   7.568 -1.6324 -0.5505  0.5202
  781MOL0     C 5315   6.700   9.323   7.511  0.0811 -0.1878 -0.8044
  781MOL0     C 5316   6.805   9.330   7.635 -0.3551 -0.2166  0.0748
  781MOL0     N 5317   6.938   9.377   7.597 -0.5617 -0.9611 -0.5014
  781MOL0     C 5318   7.038   9.289   7.543 -0.0671 -0.3100 -0.0363
  781MOL0     C 5319   7.138   9.377   7.517  0.1615  0.0154  0.4943
  781MOL0     C 5320   7.278   9.356   7.461  0.1682 -0.3158 -0.0547
  781MOL0     C 5321   7.316   9.416   7.326  0.5320  0.4222 -0.0491
  781MOL0     C 5322   7.366   9.553   7.334  0.1315 -0.2017  0.4250
  781MOL0     C 5323   7.432   9.589   7.202 -0.3627 -0.5018  0.2365
  781MOL0     O 5324   7.504   9.712   7.203 -0.6825 -0.5481 -0.3956
  781MOL0     C 5325   7.471   9.813   7.280  0.3078  0.5232 -0.2861
  781MOL0     C 5326   7.527   9.802   7.403 -0.5747  0.1341 -0.0443
  781MOL0     C 5327   7.522   9.901   7.497 -0.3384 -0.3476  0.9337
  781MOL0     C 5328   7.607   9.894   7.622 -0.2472  0.4213 -0.1117
  781MOL0     C 5329   7.434  10.002   7.471 -0.3982  0.5197  0.6029
  781MOL0     C 5330   7.407  10.111   7.563 -0.1561 -0.1386 -1.0382
  781MOL0     O 5331   7.326  10.214   7.511 -0.6063 -0.2854 -0.2672
  781MOL0     C 5332   7.254  10.306   7.586  0.3623 -0.0333  0.3104
  781MOL0     C 5333   7.169  10.389   7.509  0.5153  0.5175 -0.7562
  781MOL0     C 5334   7.103  10.501   7.569  0.4580  0.4573  0.1408
  781MOL0     C 5335   7.117  10.530   7.706 -0.9123 -0.0442  0.1064
  781MOL0     O 5336   7.063  10.634   7.775  0.1427  0.6113  0.0621
  781MOL0     C 5337   7.028  10.746   7.701  0.8644 -0.2958 -0.8785
  781MOL0     C 5338   7.021  10.867   7.787  0.5682 -0.4858 -0.9593
  781MOL0     C 5339   7.155  10.924   7.839  0.1193 -0.4112  0.7428
  781MOL0     C 5340   7.128  11.048   7.927  0.4139 -0.5120  1.5795
  781MOL0     C 5341   7.244  11.143   7.943  1.5696  0.7291  0.5864
  781MOL0     C 5342   7.278  11.211   7.813 -0.1266 -0.3719  0.0661
  781MOL0     C 5343   7.378  11.319   7.839 -0.1520 -0.7447 -0.0592
  781MOL0     C 5344   7.411  11.403   7.706 -0.8243 -0.0833 -0.8447
  781MOL0    Cl 5345   7.539  11.323   7.609  0.3335 -0.1718  0.3663
  781MOL0     C 5346   7.192  10.442   7.781 -0.3201 -0.6018 -0.6030
  781MOL0     C 5347   7.263  10.331   7.723  0.3910 -0.6589  0.3945
  781MOL0     O 5348   7.415  10.091   7.685  0.2151  0.3977 -0.4845
  781MOL0     C 5349   7.372  10.015   7.342 -0.1196 -0.1046  0.0635
  781MOL0     C 5350   7.397   9.919   7.243  0.4056  0.1539 -0.0365
  781MOL0     N 5351   7.101   9.502   7.541 -0.2450 -0.9167  1.2088
  781MOL0     N 5352   6.984   9.506   7.598 -0.1082  0.3152 -0.4346
  781MOL0     C 5353   5.756   9.034   7.533  0.5675 -0.4687  0.6429
  781MOL0     C 5354   5.650   8.963   7.487 -0.4752  0.2693  0.3055
  781MOL0     C 5355   5.410   8.538   7.514 -0.1209 -0.7064  0.2904
  781MOL0     C 5356   5.341   8.487   7.622 -0.1416 -0.7065  0.1632
  781MOL0     C 5357   5.252   8.377   7.599 -0.0271 -0.7230  0.5571
  781MOL0     C 5358   5.246   8.313   7.479  0.3436  0.2478  0.2000
  781MOL0     O 5359   5.167   8.206   7.461 -0.0896 -0.6444 -0.4066
  781MOL0     C 5360   5.024   8.247   7.449  0.4486  0.1401  0.2256
  781MOL0     C 5361   4.936   8.122   7.488  0.4737  0.0434  0.3936
  781MOL0     C 5362   4.975   8.001   7.402 -0.7323 -0.5772 -0.8847
  781MOL0     C 5363   4.876   7.888   7.426  1.0394 -0.4901  0.9107
  781MOL0     C 5364   4.914   7.776   7.339 -0.5870 -0.8301  0.8093
  781MOL0     C 5365   4.937   7.689   7.261  0.1542  0.1436 -0.2436
  781MOL0     C 5366   5.323   8.361   7.380  0.0805 -0.3363 -0.2514
  781MOL0     C 5367   5.396   8.477   7.384  0.6808 -0.7202  0.6035
  781MOL0     H 5368   5.774   8.646   7.512  0.8425 -0.1367  0.2357
  781MOL0     H 5369   5.972   8.778   7.591 -0.8535 -0.5116  1.5944
  781MOL0     H 5370   5.973   9.176   7.483  0.1370 -5.2130 -1.0157
  781MOL0     H 5371   5.921   9.193   7.663 -1.5960 -0.1448 -1.2708
  781MOL0     H 5372   6.122   9.319   7.618 -2.2934  0.2671 -1.3846
  781MOL0     H 5373   6.180   9.182   7.708 -3.0919  1.6690  1.3153
  781MOL0     H 5374   6.313   9.107   7.552  1.0419  0.1733  0.4003
  781MOL0     H 5375   6.198   9.143   7.421  0.0755  2.3427 -0.3242
  781MOL0     H 5376   6.240   9.364   7.402 -0.7770  2.3485  3.3604
  781MOL0     H 5377   6.304   9.387   7.551  0.6811  0.8764  0.1897
  781MOL0     H 5378   6.480   9.200   7.393  2.5682  0.1738  0.6036
  781MOL0     H 5379   6.482   9.369   7.366  1.1911 -2.1518 -1.7452
  781MOL0     H 5380   6.518   9.399   7.623  0.7197  1.1601 -0.4938
  781MOL0     H 5381   6.536   9.228   7.636 -5.3569 -0.6712 -0.3404
  781MOL0     H 5382   6.712   9.234   7.447 -4.8653 -4.1359  2.9449
  781MOL0     H 5383   6.700   9.417   7.456  0.5571 -0.0651 -0.5938
  781MOL0     H 5384   6.809   9.231   7.681  0.9528 -0.8978 -1.4149
  781MOL0     H 5385   6.768   9.405   7.705  1.7554  1.8544 -0.9157
  781MOL0     H 5386   7.024   9.187   7.511  1.2405 -0.6915  0.5380
  781MOL0     H 5387   7.344   9.381   7.545  0.9315 -4.2373  0.6884
  781MOL0     H 5388   7.283   9.248   7.448  1.3477 -0.5037  1.5861
  781MOL0     H 5389   7.227   9.421   7.263  1.7628  0.1215 -1.8958
  781MOL0     H 5390   7.389   9.356   7.271  3.6700  3.4289  0.4829
  781MOL0     H 5391   7.444   9.560   7.410 -0.2050  1.4190  0.6570
  781MOL0     H 5392   7.285   9.622   7.360  0.0636 -0.2652  0.3816
  781MOL0     H 5393   7.355   9.594   7.124 -3.3684  1.7077  3.0511
  781MOL0     H 5394   7.499   9.511   7.166 -1.3286 -1.1295 -0.2295
  781MOL0     H 5395   7.583   9.713   7.433 -2.6219 -2.0057 -2.1601
  781MOL0     H 5396   7.696   9.832   7.605 -0.0064  0.7509 -0.0792
  781MOL0     H 5397   7.632   9.999   7.642 -4.0134  1.3126  0.6736
  781MOL0     H 5398   7.552   9.861   7.710 -1.3711  0.5405 -0.7447
  781MOL0     H 5399   7.184  10.371   7.403  1.6577 -1.1653 -0.3431
  781MOL0     H 5400   7.072  10.576   7.497 -2.1522 -0.9874 -0.3945
  781MOL0     H 5401   7.099  10.771   7.622  1.1293  0.5728 -0.3811
  781MOL0     H 5402   6.931  10.722   7.656  0.3181  1.2358 -0.5787
  781MOL0     H 5403   6.966  10.949   7.740  0.3676 -0.1463 -0.1518
  781MOL0     H 5404   6.970  10.847   7.882 -0.8780  0.1471 -1.5834
  781MOL0     H 5405   7.208  10.956   7.749 -1.9845  1.0562 -0.0386
  781MOL0     H 5406   7.210  10.846   7.892  0.0849 -0.9322  0.0283
  781MOL0     H 5407   7.038  11.100   7.893  2.3058  1.8175 -0.2009
  781MOL0     H 5408   7.097  11.007   8.023 -1.8168 -2.2196  0.2435
  781MOL0     H 5409   7.333  11.085   7.967  1.1555  0.1875  0.8317
  781MOL0     H 5410   7.218  11.210   8.026 -3.3049 -1.8296  1.5117
  781MOL0     H 5411   7.308  11.138   7.738 -1.5468  1.3811 -2.3398
  781MOL0     H 5412   7.185  11.259   7.782 -1.9434 -0.0490  5.0280
  781MOL0     H 5413   7.476  11.280   7.870  0.2230 -0.8796 -1.3698
  781MOL0     H 5414   7.338  11.393   7.909  3.6442  1.5555 -0.0470
  781MOL0     H 5415   7.457  11.498   7.738  0.5190 -1.0675  0.2766
  781MOL0     H 5416   7.322  11.418   7.645 -0.9521 -5.3805 -2.4142
  781MOL0     H 5417   7.197  10.457   7.889 -0.4250 -1.5469 -0.4606
  781MOL0     H 5418   7.315  10.260   7.786 -0.5900 -0.6048  1.2915
  781MOL0     H 5419   7.304  10.091   7.304 -0.1287  0.3170  0.9065
  781MOL0     H 5420   7.364   9.927   7.140  4.5963  0.9032 -1.5035
  781MOL0     H 5421   5.757   9.142   7.537  5.5195 -0.0865 -2.3307
  781MOL0     H 5422   5.562   9.022   7.464  0.2299  1.4816  0.6082
  781MOL0     H 5423   5.330   8.525   7.723 -0.7851 -0.8118  0.1357
  781MOL0     H 5424   5.202   8.335   7.685 -0.3348 -0.3499  0.5652
  781MOL0     H 5425   4.999   8.332   7.513 -1.4484 -3.2122  4.4300
  781MOL0     H 5426   4.995   8.258   7.344 -0.7964 -3.0976  0.1298
  781MOL0     H 5427   4.832   8.148   7.465 -0.2289 -0.1817  2.9984
  781MOL0     H 5428   4.942   8.106   7.596  1.9790  2.0667  0.6599
  781MOL0     H 5429   5.073   7.959   7.424 -1.9223 -3.3517 -0.4095
  781MOL0     H 5430   4.979   8.030   7.296 -0.9518  1.5151 -0.3721
  781MOL0     H 5431   4.776   7.924   7.397  1.0332 -1.3622 -0.2296
  781MOL0     H 5432   4.864   7.854   7.529 -0.3365  0.5285  1.1289
  781MOL0     H 5433   4.947   7.597   7.207 -3.5013  0.5293 -1.8996
  781MOL0     H 5434   5.309   8.313   7.284  0.3471 -1.0883  0.0810
  781MOL0     H 5435   5.442   8.511   7.292 -2.6241  1.2177 -0.5229
  782MOL0     O 5436   8.511   4.784   3.934 -0.1917 -0.0558  0.0448
  782MOL0     C 5437   8.476   4.823   3.823  0.7680 -0.1753 -0.3442
  782MOL0     O 5438   8.351   4.821   3.770 -0.0509  0.9914  0.6590
  782MOL0     C 5439   8.234   4.803   3.852 -0.6333 -1.4023 -0.2541
  782MOL0     C 5440   8.113   4.764   3.788 -0.2183 -0.2916 -0.6825
  782MOL0     C 5441   7.994   4.768   3.864 -1.1555  0.8663  0.3743
  782MOL0     C 5442   7.991   4.805   4.001  0.7957  0.3210 -0.4120
  782MOL0     O 5443   7.880   4.798   4.082  0.4253 -0.4109 -0.0490
  782MOL0     C 5444   7.786   4.694   4.061  0.0330  1.0394 -0.7024
  782MOL0     C 5445   7.851   4.557   4.069 -0.8117  0.0846 -0.2536
  782MOL0     C 5446   7.886   4.513   4.219 -0.3856 -0.0834 -0.4887
  782MOL0     C 5447   7.965   4.378   4.224  0.7905  0.6427  0.5282
  782MOL0     C 5448   8.008   4.336   4.364  0.6071  0.9126 -0.7334
  782MOL0     C 5449   8.148   4.275   4.375 -0.0203  1.0244  0.7867
  782MOL0     C 5450   8.225   4.283   4.509 -0.3585  0.0183  0.7624
  782MOL0     C 5451   8.125   4.246   4.616 -0.5964  0.4714  0.0284
  782MOL0     N 5452   8.189   4.276   4.745 -0.2353 -0.2321 -1.3506
  782MOL0     C 5453   8.282   4.196   4.804 -2.1453  0.7642 -0.3357
  782MOL0     C 5454   8.302   4.240   4.934  0.5577  0.2457 -0.6502
  782MOL0     C 5455   8.402   4.190   5.033  1.0906 -0.4090  0.0502
  782MOL0     C 5456   8.480   4.303   5.095  0.5246  0.6843  0.4076
  782MOL0     C 5457   8.596   4.253   5.182  0.9644 -1.1664 -1.2014
  782MOL0     C 5458   8.682   4.368   5.238 -0.1890  0.3136 -0.0799
  782MOL0     O 5459   8.757   4.310   5.355  0.7399 -0.3113  0.7184
  782MOL0     C 5460   8.735   4.355   5.476  0.4562 -0.1213 -0.2876
  782MOL0     C 5461   8.717   4.492   5.502 -0.7860  0.2076 -0.0867
  782MOL0     C 5462   8.692   4.541   5.625  0.3692  0.0335 -0.3327
  782MOL0     C 5463   8.674   4.688   5.650 -0.4403 -0.8591 -0.2212
  782MOL0     C 5464   8.694   4.452   5.735 -0.3809 -0.0609 -0.6159
  782MOL0     C 5465   8.674   4.494   5.883 -0.4686  0.2414  0.3119
  782MOL0     O 5466   8.732   4.416   5.978 -0.1118  0.4633 -0.6357
  782MOL0     C 5467   8.757   4.461   6.108 -0.2946 -0.2248  0.6549
  782MOL0     C 5468   8.728   4.385   6.215 -0.4037 -0.5024  0.7668
  782MOL0     C 5469   8.764   4.425   6.348 -0.1493  0.3486  0.1796
  782MOL0     C 5470   8.821   4.554   6.370 -0.2255 -0.2150  0.7674
  782MOL0     O 5471   8.847   4.609   6.497  0.6619 -0.2417  0.4646
  782MOL0     C 5472   8.755   4.563   6.601 -0.9925 -0.6620 -0.2614
  782MOL0     C 5473   8.830   4.446   6.686  0.8383 -0.1582  0.7035
  782MOL0     C 5474   8.737   4.394   6.802 -0.5412  0.2374  0.5333
  782MOL0     C 5475   8.715   4.479   6.923 -0.8238  0.2805 -0.1445
  782MOL0     C 5476   8.637   4.399   7.034 -0.9119  0.6381  0.2737
  782MOL0     C 5477   8.655   4.457   7.177 -0.4705  0.1628 -0.5653
  782MOL0     C 5478   8.548   4.395   7.264  0.4145 -0.7731 -0.0054
  782MOL0     C 5479   8.583   4.404   7.412 -0.2053  1.4254 -1.0343
  782MOL0    Cl 5480   8.480   4.282   7.491  0.0404 -0.2396 -0.5814
  782MOL0     C 5481   8.856   4.628   6.260 -0.6553 -0.4496  0.0405
  782MOL0     C 5482   8.817   4.579   6.132  0.6635  0.0427  0.2647
  782MOL0     O 5483   8.608   4.595   5.900  0.6131 -0.1771  0.6671
  782MOL0     C 5484   8.715   4.322   5.711 -0.8869  0.6129 -0.4049
  782MOL0     C 5485   8.735   4.276   5.580 -0.0915  0.0631 -0.5967
  782MOL0     N 5486   8.229   4.356   4.952  0.2153  0.0604  0.3996
  782MOL0     N 5487   8.158   4.371   4.839 -0.0791  0.8541  0.1379
  782MOL0     C 5488   8.102   4.849   4.059 -0.7290 -0.6825 -0.5469
  782MOL0     C 5489   8.220   4.865   3.988  0.7594  0.6005 -0.7516
  782MOL0     C 5490   8.577   4.883   3.739 -0.2673 -1.4369  0.2112
  782MOL0     C 5491   8.530   4.965   3.629  0.7841 -0.2768  0.4845
  782MOL0     C 5492   8.626   5.024   3.555 -0.8924  0.5074  0.3852
  782MOL0     C 5493   8.765   5.021   3.576 -0.7942  0.2336  0.7006
  782MOL0     O 5494   8.843   5.082   3.481  0.1579 -0.3422 -0.1121
  782MOL0     C 5495   8.990   5.074   3.484  0.8174 -0.4979  0.8408
  782MOL0     C 5496   9.046   5.144   3.353 -0.3517 -0.1393 -0.4435
  782MOL0     C 5497   9.036   5.050   3.235  0.1477  0.3013 -0.1012
  782MOL0     C 5498   9.044   5.124   3.105 -0.2661  0.5492  0.4466
  782MOL0     C 5499   9.084   5.044   2.992 -0.5705 -0.4143  0.8695
  782MOL0     C 5500   9.119   4.966   2.903  0.1168  0.5243  0.4366
  782MOL0     C 5501   8.808   4.940   3.673 -0.0441 -1.0258 -0.2275
  782MOL0     C 5502   8.709   4.868   3.755  0.0086  0.1370 -0.4615
  782MOL0     H 5503   8.118   4.736   3.683 -2.8405 -1.3668 -0.6137
  782MOL0     H 5504   7.905   4.725   3.820  0.4354 -0.8537 -1.3797
  782MOL0     H 5505   7.700   4.690   4.128  1.4058 -1.3579  1.0999
  782MOL0     H 5506   7.753   4.709   3.958  0.0549  0.6434 -0.7697
  782MOL0     H 5507   7.784   4.476   4.037  1.6191 -4.4985  4.5552
  782MOL0     H 5508   7.939   4.553   4.005 -0.7903  1.1186 -0.2925
  782MOL0     H 5509   7.946   4.595   4.260  0.7129  0.0463 -2.2524
  782MOL0     H 5510   7.792   4.511   4.275 -0.5117  1.1150 -0.6206
  782MOL0     H 5511   7.905   4.295   4.185 -1.2432  3.2455 -2.3984
  782MOL0     H 5512   8.060   4.392   4.172  0.7471  0.7779  0.4835
  782MOL0     H 5513   8.009   4.429   4.421 -1.7521  0.7448 -0.3039
  782MOL0     H 5514   7.940   4.264   4.411  2.4271  0.9681  2.1735
  782MOL0     H 5515   8.143   4.168   4.353 -2.3092  1.0644  0.8836
  782MOL0     H 5516   8.220   4.310   4.300 -0.6858  2.8204  0.9227
  782MOL0     H 5517   8.307   4.211   4.515 -0.6241 -0.3146  0.4261
  782MOL0     H 5518   8.270   4.383   4.509 -1.7789  0.8144 -2.8554
  782MOL0     H 5519   8.102   4.139   4.614 -1.2830  0.6180 -0.0051
  782MOL0     H 5520   8.029   4.297   4.622 -0.5980  0.3189  1.8013
  782MOL0     H 5521   8.313   4.106   4.753  0.0166 -0.5882  2.9905
  782MOL0     H 5522   8.349   4.147   5.119 -2.7260  3.1300 -0.2401
  782MOL0     H 5523   8.465   4.105   5.005 -1.5663 -2.7205  0.6979
  782MOL0     H 5524   8.410   4.369   5.148 -0.0918  0.1683  0.2499
  782MOL0     H 5525   8.524   4.359   5.011 -1.0282 -0.9012 -1.5841
  782MOL0     H 5526   8.667   4.186   5.133  3.9516 -0.3443  1.5792
  782MOL0     H 5527   8.543   4.208   5.267 -1.2751 -0.6165 -2.2363
  782MOL0     H 5528   8.627   4.457   5.267 -0.8553 -0.0013 -0.3592
  782MOL0     H 5529   8.750   4.405   5.160 -2.1413  0.3282 -1.8430
  782MOL0     H 5530   8.725   4.563   5.421  1.9755  2.2347  1.7957
  782MOL0     H 5531   8.668   4.743   5.556 -2.1175  1.4336  1.1125
  782MOL0     H 5532   8.584   4.722   5.702 -0.0276 -0.6779  0.3868
  782MOL0     H 5533   8.754   4.735   5.708 -1.6585  0.0134  0.8082
  782MOL0     H 5534   8.662   4.300   6.197 -1.4839  1.1306 -4.6787
  782MOL0     H 5535   8.742   4.354   6.428 -1.0301 -1.7237 -1.7811
  782MOL0     H 5536   8.745   4.649   6.668 -2.5316  0.8655 -2.3197
  782MOL0     H 5537   8.654   4.532   6.574 -0.3324 -2.9937 -0.2445
  782MOL0     H 5538   8.864   4.371   6.614 -1.0632  0.4147 -0.8932
  782MOL0     H 5539   8.919   4.496   6.725  0.2799  2.8199 -1.4532
  782MOL0     H 5540   8.780   4.302   6.843  4.2779  2.1789  0.5613
  782MOL0     H 5541   8.638   4.379   6.759  0.3478  1.7609 -2.2345
  782MOL0     H 5542   8.812   4.508   6.965  1.0893 -2.9057 -1.9292
  782MOL0     H 5543   8.640   4.554   6.896 -0.5502  0.3255 -0.8091
  782MOL0     H 5544   8.673   4.295   7.029 -2.0250  0.3170 -2.9054
  782MOL0     H 5545   8.533   4.380   7.008 -0.9690 -1.4079  1.7061
  782MOL0     H 5546   8.752   4.428   7.218 -1.1814 -2.8758 -0.7555
  782MOL0     H 5547   8.642   4.565   7.178 -0.7019  0.2272 -2.9239
  782MOL0     H 5548   8.540   4.291   7.233  0.9867 -0.6465 -0.5852
  782MOL0     H 5549   8.454   4.448   7.244  0.9610 -0.2808 -1.3532
  782MOL0     H 5550   8.580   4.507   7.450  0.6473  0.6978  1.1860
  782MOL0     H 5551   8.685   4.366   7.425 -0.3011  0.6237 -2.4232
  782MOL0     H 5552   8.923   4.711   6.280  2.2672 -2.8900  1.0750
  782MOL0     H 5553   8.850   4.630   6.041  1.2331  2.5471  1.7678
  782MOL0     H 5554   8.712   4.258   5.798 -0.8883  0.0995 -0.7793
  782MOL0     H 5555   8.753   4.169   5.573  3.4929  0.3803  1.6145
  782MOL0     H 5556   8.110   4.885   4.161  0.6013  0.6127 -1.0686
  782MOL0     H 5557   8.312   4.909   4.025  2.6643 -0.4187 -3.8546
  782MOL0     H 5558   8.428   4.958   3.594  1.0163 -1.7213  0.0158
  782MOL0     H 5559   8.584   5.090   3.479 -1.1391  1.0718  0.9943
  782MOL0     H 5560   9.021   5.130   3.573  0.3290  1.7922 -0.3561
  782MOL0     H 5561   9.028   4.973   3.501  3.5674  0.0771 -1.2043
  782MOL0     H 5562   9.154   5.153   3.363 -0.4100  0.4904 -0.3511
  782MOL0     H 5563   8.991   5.238   3.346 -0.0288  0.1675  0.9018
  782MOL0     H 5564   8.947   4.987   3.247  0.4812 -0.0329  0.6123
  782MOL0     H 5565   9.126   4.989   3.232 -0.3027 -0.4995  1.5035
  782MOL0     H 5566   9.129   5.187   3.132 -0.2053  0.2649  0.9183
  782MOL0     H 5567   8.958   5.184   3.073  1.3329  1.1074 -3.3048
  782MOL0     H 5568   9.157   4.890   2.838 -2.7949 -0.1959 -0.5969
  782MOL0     H 5569   8.911   4.943   3.708 -0.8427  2.1241  2.3579
  782MOL0     H 5570   8.740   4.803   3.836  0.6149  2.8539  1.6450
  783MOL0     O 5571   5.395   8.078   2.432  0.9083 -0.1542  0.7832
  783MOL0     C 5572   5.324   8.002   2.365 -0.7769 -0.2161 -0.3206
  783MOL0     O 5573   5.189   8.012   2.354 -0.4108 -0.7269  0.2756
  783MOL0     C 5574   5.123   8.133   2.364 -0.2253 -0.5470  0.1207
  783MOL0     C 5575   4.986   8.122   2.389 -0.7834 -0.7219  0.5112
  783MOL0     C 5576   4.896   8.229   2.379 -0.5786  0.8244 -0.5009
  783MOL0     C 5577   4.945   8.358   2.347 -0.3126  0.2049 -0.4534
  783MOL0     O 5578   4.861   8.462   2.357 -0.4045  0.5041  0.1911
  783MOL0     C 5579   4.908   8.602   2.381  0.3491 -0.3127 -0.5930
  783MOL0     C 5580   4.781   8.694   2.374  0.0109 -0.6534  0.4534
  783MOL0     C 5581   4.683   8.668   2.252 -0.1796 -0.0407  0.1445
  783MOL0     C 5582   4.547   8.751   2.246  0.6143 -0.9261  0.6299
  783MOL0     C 5583   4.445   8.683   2.142 -0.5938 -1.3476  0.4397
  783MOL0     C 5584   4.501   8.692   1.987 -0.3911  0.5844 -0.0742
  783MOL0     C 5585   4.413   8.614   1.894  0.3141  0.3189  0.0652
  783MOL0     C 5586   4.464   8.620   1.748  1.3154  0.1196  0.5359
  783MOL0     N 5587   4.597   8.559   1.733 -0.5899  0.2162 -0.4503
  783MOL0     C 5588   4.629   8.427   1.700  0.2239  0.0280  0.2519
  783MOL0     C 5589   4.754   8.420   1.662  0.5174 -0.1289 -0.7739
  783MOL0     C 5590   4.839   8.298   1.616  0.3448  0.7700  0.1663
  783MOL0     C 5591   4.889   8.201   1.725  0.5040  0.5125 -1.3290
  783MOL0     C 5592   4.976   8.273   1.833  0.3099  0.3988 -0.3349
  783MOL0     C 5593   5.012   8.187   1.965  0.3222 -0.6391  1.1844
  783MOL0     O 5594   5.103   8.077   1.947  0.0213 -0.6195 -0.0966
  783MOL0     C 5595   5.242   8.107   1.942 -0.2693  0.1295 -0.2304
  783MOL0     C 5596   5.303   8.230   1.939  0.5746  0.2117  0.0290
  783MOL0     C 5597   5.436   8.259   1.951 -0.7757  0.9004  0.9084
  783MOL0     C 5598   5.487   8.392   1.969  0.2689  0.7909 -1.1530
  783MOL0     C 5599   5.526   8.150   1.949  0.4239  0.7587  0.7117
  783MOL0     C 5600   5.678   8.151   1.948  0.0592  0.0511 -0.7670
  783MOL0     O 5601   5.735   8.212   1.839 -0.2488  0.7662 -0.2521
  783MOL0     C 5602   5.861   8.186   1.812 -0.6001  0.1640  0.8816
  783MOL0     C 5603   5.873   8.096   1.701  0.4941  0.1902 -0.3541
  783MOL0     C 5604   6.006   8.060   1.658 -0.0015 -0.0805  0.4054
  783MOL0     C 5605   6.115   8.102   1.741 -0.2478 -1.0068 -0.5345
  783MOL0     O 5606   6.241   8.061   1.706 -0.0233 -0.3246 -0.3079
  783MOL0     C 5607   6.346   8.087   1.802  0.4693  0.1409  0.6450
  783MOL0     C 5608   6.474   8.013   1.745  0.2450  0.8733  0.6676
  783MOL0     C 5609   6.587   8.050   1.836  0.5211 -0.8014 -0.1476
  783MOL0     C 5610   6.714   8.044   1.767 -0.4817 -0.1364  0.2640
  783MOL0     C 5611   6.834   8.089   1.850 -0.5013  0.2881  0.3647
  783MOL0     C 5612   6.808   8.173   1.976  0.2839  0.1113  0.8743
  783MOL0     C 5613   6.933   8.197   2.066  0.7395  0.4341  0.5239
  783MOL0     C 5614   7.025   8.076   2.072  0.3636 -0.6385 -0.4942
  783MOL0    Cl 5615   6.935   7.927   2.141 -0.0224  0.3299 -0.4029
  783MOL0     C 5616   6.094   8.190   1.848  0.4114 -0.3380  0.3508
  783MOL0     C 5617   5.964   8.228   1.883 -0.3026  0.6685 -0.0852
  783MOL0     O 5618   5.737   8.114   2.049  0.3269  0.7681  0.3860
  783MOL0     C 5619   5.468   8.019   1.951  0.4668  0.2177  0.1459
  783MOL0     C 5620   5.327   8.002   1.949 -0.1780  0.2608  0.3986
  783MOL0     N 5621   4.798   8.554   1.659 -0.2828 -0.4692  0.5844
  783MOL0     N 5622   4.704   8.628   1.707  0.2003 -0.5393  0.4357
  783MOL0     C 5623   5.082   8.371   2.335 -0.7638 -0.1791  0.1994
  783MOL0     C 5624   5.171   8.264   2.330 -0.3396  0.5601  0.7382
  783MOL0     C 5625   5.379   7.873   2.313 -0.1097  0.8512 -0.3601
  783MOL0     C 5626   5.293   7.764   2.293 -0.3111  0.2283  0.4127
  783MOL0     C 5627   5.343   7.648   2.228  0.7944 -1.2728  1.4462
  783MOL0     C 5628   5.479   7.633   2.198 -0.4639  0.5924 -0.3127
  783MOL0     O 5629   5.521   7.517   2.149  0.1750 -0.3838  0.5725
  783MOL0     C 5630   5.659   7.499   2.109 -0.5918  0.4556 -0.2307
  783MOL0     C 5631   5.751   7.483   2.234 -0.1857 -1.3680 -0.0811
  783MOL0     C 5632   5.895   7.522   2.190  0.7297  0.2766  0.4259
  783MOL0     C 5633   5.948   7.444   2.063 -0.8430 -0.4329 -0.5702
  783MOL0     C 5634   5.938   7.303   2.078  0.1360  0.0909  0.1842
  783MOL0     C 5635   5.925   7.183   2.085 -0.2889  0.4817 -0.2930
  783MOL0     C 5636   5.564   7.747   2.221 -0.3919  0.5421 -0.2969
  783MOL0     C 5637   5.512   7.867   2.276 -0.9438 -0.8513 -1.1228
  783MOL0     H 5638   4.958   8.019   2.408  1.4255 -1.5338 -0.3698
  783MOL0     H 5639   4.794   8.202   2.401  1.1264 -4.5823  2.8533
  783MOL0     H 5640   4.950   8.612   2.481 -1.4027  2.4110 -0.0179
  783MOL0     H 5641   4.988   8.635   2.314 -0.2396  1.9507 -0.2779
  783MOL0     H 5642   4.724   8.683   2.467 -1.5640  0.4038 -0.3396
  783MOL0     H 5643   4.810   8.799   2.377  0.9716 -0.7655 -1.9732
  783MOL0     H 5644   4.735   8.691   2.158  2.4845 -0.0172  1.5609
  783MOL0     H 5645   4.660   8.561   2.256  3.1585 -1.1295 -3.4745
  783MOL0     H 5646   4.502   8.764   2.345 -1.6116 -1.6098 -0.2245
  783MOL0     H 5647   4.567   8.849   2.201  1.2525 -2.0645 -1.6802
  783MOL0     H 5648   4.445   8.581   2.181 -0.3468 -0.6980  2.2202
  783MOL0     H 5649   4.347   8.729   2.157  0.9478  2.4984 -0.1279
  783MOL0     H 5650   4.499   8.795   1.950  2.8636  1.1911  1.1206
  783MOL0     H 5651   4.604   8.656   1.997  0.6473  2.5436 -2.6540
  783MOL0     H 5652   4.408   8.511   1.930  0.3458  0.8258  1.6061
  783MOL0     H 5653   4.310   8.646   1.910 -0.2578 -2.1859  2.1164
  783MOL0     H 5654   4.461   8.724   1.717 -1.6996  0.8280  2.7166
  783MOL0     H 5655   4.393   8.559   1.690  2.7559  3.1045 -5.0944
  783MOL0     H 5656   4.569   8.336   1.706  2.3656 -1.6575 -1.9458
  783MOL0     H 5657   4.780   8.243   1.541  2.4270 -1.3851 -0.0019
  783MOL0     H 5658   4.930   8.327   1.564 -0.1919 -0.5310 -1.6340
  783MOL0     H 5659   4.941   8.119   1.675 -2.0154 -1.9126 -0.2480
  783MOL0     H 5660   4.804   8.170   1.786  0.6855  3.7510  0.8595
  783MOL0     H 5661   4.916   8.348   1.884 -1.8035 -1.5489  0.2216
  783MOL0     H 5662   5.073   8.310   1.796  2.3177 -1.9117  2.1729
  783MOL0     H 5663   4.920   8.137   1.998 -0.7797  1.2599  1.1699
  783MOL0     H 5664   5.044   8.252   2.047  2.9089 -3.1619  2.3741
  783MOL0     H 5665   5.235   8.314   1.925 -1.6531 -1.7947 -2.0379
  783MOL0     H 5666   5.587   8.403   1.925 -0.1103 -1.6278 -2.7911
  783MOL0     H 5667   5.424   8.463   1.914  0.2009 -0.5078 -2.8174
  783MOL0     H 5668   5.495   8.423   2.074 -0.6497  1.4298 -1.2642
  783MOL0     H 5669   5.784   8.054   1.656 -0.9114  0.8653  1.6858
  783MOL0     H 5670   6.025   7.985   1.582  0.3710 -1.0097  1.3827
  783MOL0     H 5671   6.368   8.194   1.805 -1.4174  0.6027 -0.6033
  783MOL0     H 5672   6.322   8.056   1.904  0.5782  3.9675  1.9781
  783MOL0     H 5673   6.463   7.904   1.751  0.1276  0.6911 -1.7756
  783MOL0     H 5674   6.484   8.048   1.642 -1.3750 -0.6012 -0.0308
  783MOL0     H 5675   6.600   7.981   1.920 -0.0595 -2.2721 -1.2218
  783MOL0     H 5676   6.575   8.154   1.868  0.8554  0.4109 -3.5213
  783MOL0     H 5677   6.731   7.945   1.726  0.9556 -1.1410  3.0113
  783MOL0     H 5678   6.698   8.107   1.679 -0.2207  0.1606  0.4228
  783MOL0     H 5679   6.907   8.139   1.785  2.0367 -3.3292  0.1325
  783MOL0     H 5680   6.879   7.992   1.870 -0.0483  0.4366  0.0936
  783MOL0     H 5681   6.759   8.270   1.961 -1.3077 -0.8226 -0.2483
  783MOL0     H 5682   6.731   8.114   2.027 -3.6516 -0.0770 -4.4660
  783MOL0     H 5683   6.907   8.226   2.168  0.0601  0.3325  0.3855
  783MOL0     H 5684   6.996   8.276   2.022  2.9687 -1.5881 -0.1595
  783MOL0     H 5685   7.106   8.106   2.138 -1.8967  1.7761  1.3972
  783MOL0     H 5686   7.057   8.055   1.969  1.1055 -0.3458 -0.3274
  783MOL0     H 5687   6.173   8.216   1.917 -0.5011  0.8954  0.9727
  783MOL0     H 5688   5.935   8.300   1.958 -1.2113  0.0267  0.2020
  783MOL0     H 5689   5.532   7.932   1.948  3.0960  2.0368 -3.6976
  783MOL0     H 5690   5.286   7.902   1.937  2.5418 -0.9343  0.2874
  783MOL0     H 5691   5.122   8.470   2.317  3.8657 -1.6066  1.2482
  783MOL0     H 5692   5.271   8.284   2.294 -1.0591 -0.3321 -1.9336
  783MOL0     H 5693   5.185   7.776   2.293 -0.8403 -2.9879 -2.6693
  783MOL0     H 5694   5.274   7.566   2.216 -1.4889  0.8126 -0.9399
  783MOL0     H 5695   5.682   7.410   2.051  1.3945  0.9295 -0.2490
  783MOL0     H 5696   5.689   7.587   2.051 -1.8453  0.9920 -0.0913
  783MOL0     H 5697   5.746   7.391   2.294  0.7524 -1.5983 -0.3337
  783MOL0     H 5698   5.706   7.552   2.307  0.0436 -2.5462  1.2335
  783MOL0     H 5699   5.972   7.494   2.262  0.8731 -2.7924 -0.7757
  783MOL0     H 5700   5.893   7.630   2.172 -3.0305  0.1763 -0.6046
  783MOL0     H 5701   6.054   7.469   2.058 -0.7529 -0.4211  1.1168
  783MOL0     H 5702   5.902   7.485   1.972  4.3330  4.1521 -1.6527
  783MOL0     H 5703   5.914   7.076   2.077  1.9645  0.1608  0.2100
  783MOL0     H 5704   5.668   7.747   2.192  0.1939 -0.0760  1.6246
  783MOL0     H 5705   5.578   7.944   2.314 -0.6639 -1.0547 -1.1911
  784MOL0     O 5706   2.827  10.144   2.028  0.0491  1.0473 -0.2057
  784MOL0     C 5707   2.752  10.049   1.995  1.2751 -0.1151 -1.5100
  784MOL0     O 5708   2.714  10.018   1.871 -0.0183 -0.1098  0.3542
  784MOL0     C 5709   2.761  10.100   1.769 -0.5495  0.1796  0.4331
  784MOL0     C 5710   2.688  10.209   1.741  0.3805 -0.1571  0.6916
  784MOL0     C 5711   2.731  10.294   1.636 -0.4260 -0.0228 -0.0623
  784MOL0     C 5712   2.844  10.266   1.568  0.1430  0.6156  0.2526
  784MOL0     O 5713   2.887  10.359   1.482 -0.3904 -0.6534 -0.0001
  784MOL0     C 5714   3.029  10.383   1.479 -0.0182  0.1707  1.5013
  784MOL0     C 5715   3.075  10.466   1.594 -0.1215  0.2676 -0.5778
  784MOL0     C 5716   3.162  10.398   1.700  0.2205  0.2199  0.8638
  784MOL0     C 5717   3.131  10.457   1.836 -0.1526 -0.9156 -0.0192
  784MOL0     C 5718   3.244  10.421   1.941  0.7936 -0.3125  0.2659
  784MOL0     C 5719   3.185  10.467   2.080  0.4492 -0.2268  0.1780
  784MOL0     C 5720   3.293  10.448   2.190  0.3237  0.7465  0.3144
  784MOL0     C 5721   3.260  10.347   2.302  0.4001  0.5555  0.3346
  784MOL0     N 5722   3.253  10.204   2.260 -0.1435  0.1326 -0.0825
  784MOL0     C 5723   3.152  10.127   2.191  0.6505 -0.3229  0.6809
  784MOL0     C 5724   3.199   9.995   2.188 -1.0090 -0.2274  0.7541
  784MOL0     C 5725   3.142   9.872   2.129  0.7116  0.1833  0.0684
  784MOL0     C 5726   3.141   9.880   1.973  0.0100  0.5625  0.5002
  784MOL0     C 5727   3.259   9.795   1.921  0.1606  0.5393  0.5184
  784MOL0     C 5728   3.281   9.828   1.771 -0.1416 -0.4690 -0.2628
  784MOL0     O 5729   3.155   9.851   1.700 -0.1880 -0.7681 -0.6075
  784MOL0     C 5730   3.124   9.793   1.581  0.0791 -0.4137 -0.1933
  784MOL0     C 5731   2.992   9.758   1.550  0.2565  0.0945  0.0936
  784MOL0     C 5732   2.950   9.708   1.420 -0.1326 -0.6855 -0.3895
  784MOL0     C 5733   2.807   9.656   1.392  0.1806 -0.8030 -0.4805
  784MOL0     C 5734   3.052   9.695   1.314 -0.3564  0.0489 -0.1093
  784MOL0     C 5735   3.050   9.618   1.193  0.1780  0.8018  0.1773
  784MOL0     O 5736   2.937   9.543   1.152 -0.0912  0.0148 -0.1125
  784MOL0     C 5737   2.964   9.451   1.054  0.3110  0.9034  0.3000
  784MOL0     C 5738   2.894   9.456   0.934  0.3110 -0.3797  0.1917
  784MOL0     C 5739   2.919   9.371   0.833  0.6811  0.7523  0.0366
  784MOL0     C 5740   3.004   9.259   0.844 -0.4854 -0.4600 -0.3551
  784MOL0     O 5741   3.033   9.180   0.735  0.1707 -0.5630 -0.5637
  784MOL0     C 5742   3.062   9.260   0.617  0.4527  0.3488  1.0762
  784MOL0     C 5743   3.121   9.167   0.508  0.0037  0.5199 -0.2769
  784MOL0     C 5744   3.140   9.263   0.384  0.0875 -0.3487  0.0281
  784MOL0     C 5745   3.171   9.202   0.247 -0.3012 -0.2267 -0.6648
  784MOL0     C 5746   3.110   9.064   0.222 -0.3854 -0.4618  0.3093
  784MOL0     C 5747   3.097   9.044   0.075 -0.0461 -0.3110  0.1731
  784MOL0     C 5748   3.011   8.927   0.037 -0.0153 -0.1929  0.1412
  784MOL0     C 5749   3.013   8.909  -0.118  0.7809 -0.2782  0.5562
  784MOL0    Cl 5750   2.928   8.762  -0.169  0.2665  0.1580  0.0090
  784MOL0     C 5751   3.052   9.236   0.970 -0.3593  0.1781  0.3196
  784MOL0     C 5752   3.041   9.337   1.069  0.0371 -0.1856 -0.4819
  784MOL0     O 5753   3.161   9.608   1.136  0.1028 -0.0701  0.5849
  784MOL0     C 5754   3.184   9.740   1.356  0.4476 -0.1267  0.1704
  784MOL0     C 5755   3.222   9.785   1.478  0.1159  0.0482  0.4421
  784MOL0     N 5756   3.330  10.002   2.233  0.4245  0.4492 -0.0558
  784MOL0     N 5757   3.360  10.121   2.276  0.0921  0.6630  0.0176
  784MOL0     C 5758   2.921  10.144   1.594 -0.7424 -0.5536  0.1893
  784MOL0     C 5759   2.879  10.055   1.694  0.5342 -0.0157  0.3681
  784MOL0     C 5760   2.702   9.964   2.103  0.0221 -0.6469 -0.0987
  784MOL0     C 5761   2.662  10.016   2.229 -0.2830 -0.3454 -0.7479
  784MOL0     C 5762   2.618   9.938   2.336  0.1823 -0.4476  0.5572
  784MOL0     C 5763   2.598   9.801   2.303 -0.3154 -0.2228  0.0614
  784MOL0     O 5764   2.574   9.708   2.405  0.3090 -0.0420  0.2329
  784MOL0     C 5765   2.530   9.565   2.396 -0.6592 -0.8155 -0.5492
  784MOL0     C 5766   2.383   9.542   2.387 -0.3284 -0.0339  0.2806
  784MOL0     C 5767   2.291   9.586   2.505 -0.3983 -0.2371  0.4300
  784MOL0     C 5768   2.352   9.551   2.644 -0.4685 -0.2932  1.1689
  784MOL0     C 5769   2.268   9.611   2.751 -0.2255  1.0973  0.0362
  784MOL0     C 5770   2.203   9.657   2.835  0.1736  0.2003 -0.3841
  784MOL0     C 5771   2.615   9.749   2.168 -0.8789  0.1977  0.5955
  784MOL0     C 5772   2.649   9.836   2.071 -0.0682  0.1624  0.4028
  784MOL0     H 5773   2.603  10.236   1.803  0.6320 -0.3770  1.1331
  784MOL0     H 5774   2.661  10.376   1.625 -1.9754 -0.8113  2.8802
  784MOL0     H 5775   3.095  10.297   1.467  0.4884  0.6273  0.9168
  784MOL0     H 5776   3.044  10.440   1.387 -3.0363 -3.5438 -1.6186
  784MOL0     H 5777   3.145  10.541   1.557 -1.2140  0.1496 -3.1021
  784MOL0     H 5778   2.990  10.524   1.631 -0.5664 -1.8264  1.9489
  784MOL0     H 5779   3.141  10.291   1.708 -1.8526  0.5606  0.4672
  784MOL0     H 5780   3.260  10.414   1.655 -0.7182  0.4106 -1.2451
  784MOL0     H 5781   3.122  10.566   1.837 -1.3544 -1.0008  1.1947
  784MOL0     H 5782   3.034  10.421   1.869 -0.2573  0.2233  0.9938
  784MOL0     H 5783   3.258  10.312   1.939  1.4715 -0.2389 -2.4140
  784MOL0     H 5784   3.335  10.475   1.913  0.3715  0.1266 -0.2618
  784MOL0     H 5785   3.148  10.570   2.086  0.9742 -0.0338  0.2077
  784MOL0     H 5786   3.100  10.404   2.106  1.4923 -1.1588  1.4950
  784MOL0     H 5787   3.377  10.398   2.142 -0.1928 -0.8703  0.9996
  784MOL0     H 5788   3.336  10.540   2.231  1.4032  1.1817 -1.6901
  784MOL0     H 5789   3.166  10.375   2.352 -0.2705  1.9723 -1.5846
  784MOL0     H 5790   3.337  10.352   2.379  0.5246  1.3374  0.1616
  784MOL0     H 5791   3.050  10.162   2.179  0.2527 -0.3588  3.3301
  784MOL0     H 5792   3.199   9.783   2.158 -0.2017 -1.1330 -1.9193
  784MOL0     H 5793   3.039   9.861   2.162  1.8196 -1.7503  3.4013
  784MOL0     H 5794   3.160   9.981   1.935 -2.3161  0.9080  0.0924
  784MOL0     H 5795   3.051   9.843   1.925  1.0641 -2.2799  0.5256
  784MOL0     H 5796   3.240   9.688   1.936 -1.2054  0.6491 -0.2309
  784MOL0     H 5797   3.350   9.819   1.976 -0.9618  3.1866  1.3474
  784MOL0     H 5798   3.345   9.750   1.727  0.6333 -0.7504  1.2935
  784MOL0     H 5799   3.332   9.924   1.767  0.1162 -0.5911  0.0288
  784MOL0     H 5800   2.921   9.776   1.630 -1.7845  0.8151 -1.7584
  784MOL0     H 5801   2.796   9.550   1.370 -0.8286 -1.1156  1.2878
  784MOL0     H 5802   2.740   9.678   1.476 -0.2200 -0.9586 -0.7557
  784MOL0     H 5803   2.755   9.701   1.307 -0.9586 -0.0727  0.5599
  784MOL0     H 5804   2.816   9.529   0.915 -1.1661 -2.2028 -1.1464
  784MOL0     H 5805   2.879   9.395   0.735  2.0611 -1.5567 -1.1797
  784MOL0     H 5806   2.973   9.311   0.582  0.0818 -1.4451 -0.8004
  784MOL0     H 5807   3.142   9.332   0.640  0.2001  0.8003  0.5484
  784MOL0     H 5808   3.217   9.126   0.543  1.4047  2.8550 -1.1595
  784MOL0     H 5809   3.058   9.078   0.504  2.6773 -1.7454  2.4044
  784MOL0     H 5810   3.223   9.328   0.413  0.2356  0.0409 -1.2162
  784MOL0     H 5811   3.054   9.329   0.369 -1.3233 -2.1798 -0.3008
  784MOL0     H 5812   3.134   9.280   0.180  0.8471  0.8006 -0.1477
  784MOL0     H 5813   3.278   9.194   0.226 -1.0378  1.1257 -7.1019
  784MOL0     H 5814   3.007   9.061   0.260 -0.0240  1.9704  1.6849
  784MOL0     H 5815   3.158   8.977   0.266 -0.2396  0.2336  1.5656
  784MOL0     H 5816   3.050   9.128   0.024  0.0248 -0.7825 -0.6890
  784MOL0     H 5817   3.194   9.026   0.028  0.1806  0.2909  0.4039
  784MOL0     H 5818   2.907   8.949   0.065  0.6976  1.3707  1.8157
  784MOL0     H 5819   3.046   8.834   0.083  2.1281  0.3151 -0.3545
  784MOL0     H 5820   3.116   8.899  -0.153  0.2093  2.5637 -2.4797
  784MOL0     H 5821   2.984   9.000  -0.170 -1.4451 -0.2595  1.7223
  784MOL0     H 5822   3.105   9.145   0.996  1.2117  1.0872  0.4366
  784MOL0     H 5823   3.080   9.321   1.169  3.6276  3.8188 -0.9148
  784MOL0     H 5824   3.271   9.735   1.291 -0.5064 -0.3790 -1.1204
  784MOL0     H 5825   3.325   9.818   1.475  0.8395 -2.0757 -0.3641
  784MOL0     H 5826   3.009  10.114   1.538  0.3640  2.4411  0.1812
  784MOL0     H 5827   2.926   9.963   1.726  1.4616  0.5998  0.8117
  784MOL0     H 5828   2.686  10.120   2.247  0.6778 -0.7580  0.5766
  784MOL0     H 5829   2.604   9.983   2.433  0.9283 -1.8850  1.3689
  784MOL0     H 5830   2.575   9.508   2.314 -0.9953  0.3094 -1.5524
  784MOL0     H 5831   2.579   9.518   2.481 -0.3988 -0.3670 -0.4457
  784MOL0     H 5832   2.363   9.436   2.368 -0.9203 -0.0634  1.0378
  784MOL0     H 5833   2.349   9.577   2.289 -0.7735 -1.9646 -0.3001
  784MOL0     H 5834   2.193   9.537   2.502 -0.1789 -0.6983 -2.3140
  784MOL0     H 5835   2.267   9.692   2.489  1.6684  0.2762  0.4821
  784MOL0     H 5836   2.448   9.604   2.643 -0.7871  0.4637 -2.1447
  784MOL0     H 5837   2.362   9.444   2.665  1.0806  0.1247  2.8182
  784MOL0     H 5838   2.153   9.694   2.923 -0.0533  1.1158 -0.8812
  784MOL0     H 5839   2.605   9.644   2.142  1.1244 -0.8193  3.4627
  784MOL0     H 5840   2.658   9.787   1.975 -0.4281 -0.6970  0.7945
  785MOL0     O 5841   4.526  10.570  11.208 -0.2299  0.3931  0.6110
  785MOL0     C 5842   4.525  10.480  11.287  0.6414 -0.2516 -0.2154
  785MOL0     O 5843   4.430  10.461  11.396  0.0415  0.4735 -0.6916
  785MOL0     C 5844   4.352  10.563  11.427 -0.9947  0.9124 -0.2072
  785MOL0     C 5845   4.243  10.587  11.349  1.4864 -0.6517  1.0225
  785MOL0     C 5846   4.160  10.690  11.373  0.1525 -0.2721 -0.9931
  785MOL0     C 5847   4.165  10.764  11.501 -0.3036 -1.0093 -0.3068
  785MOL0     O 5848   4.077  10.853  11.548 -0.0995 -0.9937  0.0297
  785MOL0     C 5849   4.006  10.941  11.461 -0.2775  0.4234  0.2003
  785MOL0     C 5850   3.970  11.074  11.531  0.1496 -0.6471  1.1052
  785MOL0     C 5851   4.102  11.148  11.574  0.4045  0.4798  0.2413
  785MOL0     C 5852   4.077  11.295  11.621 -0.7290 -0.1889 -0.6658
  785MOL0     C 5853   4.215  11.358  11.660  0.5388  0.3544  0.3105
  785MOL0     C 5854   4.225  11.508  11.654 -0.1636 -0.6685 -1.0628
  785MOL0     C 5855   4.308  11.575  11.539 -0.2013  0.3776 -0.6257
  785MOL0     C 5856   4.236  11.543  11.407  0.5009  1.0350  0.0327
  785MOL0     N 5857   4.326  11.475  11.311 -0.2887 -0.2183 -0.0808
  785MOL0     C 5858   4.423  11.526  11.241 -0.0296  0.5197  1.2787
  785MOL0     C 5859   4.443  11.446  11.138 -0.2061  1.0621 -0.4432
  785MOL0     C 5860   4.534  11.473  11.027 -0.7149  0.5330 -0.1304
  785MOL0     C 5861   4.588  11.351  10.969 -0.2004  0.9652  0.7216
  785MOL0     C 5862   4.681  11.390  10.846  0.2098 -0.5903 -0.7022
  785MOL0     C 5863   4.775  11.270  10.799 -0.5972 -0.1965  0.6277
  785MOL0     O 5864   4.814  11.299  10.659  0.1771  0.9192 -0.1114
  785MOL0     C 5865   4.916  11.381  10.620 -0.7901  1.4812  0.3529
  785MOL0     C 5866   4.992  11.453  10.705 -0.5567  0.1173  0.3261
  785MOL0     C 5867   5.106  11.525  10.658 -0.3784 -0.5055 -0.8337
  785MOL0     C 5868   5.199  11.577  10.762  0.1143 -0.7748  0.3242
  785MOL0     C 5869   5.145  11.516  10.526  1.1985  1.0265  1.0631
  785MOL0     C 5870   5.263  11.586  10.469 -0.6133 -0.9738 -0.0571
  785MOL0     O 5871   5.274  11.604  10.325 -0.4875 -0.5932 -0.2812
  785MOL0     C 5872   5.367  11.688  10.267 -0.6179  0.8241 -0.3846
  785MOL0     C 5873   5.386  11.675  10.133 -0.3767 -0.1066  0.6707
  785MOL0     C 5874   5.458  11.766  10.053  0.4706  0.3713  0.1617
  785MOL0     C 5875   5.511  11.879  10.109 -0.1501 -0.5621  0.1479
  785MOL0     O 5876   5.602  11.965  10.053 -0.1772 -1.0518  0.6379
  785MOL0     C 5877   5.576  12.106  10.024  1.6166 -0.2140 -1.1961
  785MOL0     C 5878   5.481  12.123   9.902 -0.0337 -0.0466  0.6184
  785MOL0     C 5879   5.478  12.276   9.862 -0.0657 -0.1855 -1.0462
  785MOL0     C 5880   5.411  12.294   9.732  1.5325 -0.5673  0.9235
  785MOL0     C 5881   5.392  12.451   9.703  0.5342 -0.5464  0.7669
  785MOL0     C 5882   5.343  12.467   9.562 -0.3550 -0.4597  0.3213
  785MOL0     C 5883   5.298  12.609   9.522  0.0960  0.9865 -0.1757
  785MOL0     C 5884   5.184  12.673   9.610 -0.7958 -0.1318  0.9002
  785MOL0    Cl 5885   5.151  12.816   9.508  0.0620 -0.0264  0.0814
  785MOL0     C 5886   5.499  11.891  10.245  0.3786  0.0485  0.0407
  785MOL0     C 5887   5.443  11.791  10.328 -0.2583  0.2527 -1.0013
  785MOL0     O 5888   5.351  11.619  10.546 -0.1814  0.2408  0.1631
  785MOL0     C 5889   5.069  11.444  10.434  1.5618 -0.3523 -0.1429
  785MOL0     C 5890   4.951  11.384  10.484 -1.0109  0.5637 -0.4503
  785MOL0     N 5891   4.361  11.336  11.150  0.2198  0.5147  0.2185
  785MOL0     N 5892   4.295  11.352  11.261 -0.3203  0.8851 -0.1032
  785MOL0     C 5893   4.271  10.735  11.587 -0.2820 -0.4590  0.0420
  785MOL0     C 5894   4.370  10.646  11.539 -0.3737  0.5837 -0.8549
  785MOL0     C 5895   4.632  10.375  11.261  1.5609 -0.6415  0.0207
  785MOL0     C 5896   4.760  10.399  11.222 -0.5579 -0.1171  0.8919
  785MOL0     C 5897   4.856  10.293  11.203  0.3662  0.1458  0.6295
  785MOL0     C 5898   4.815  10.163  11.232  0.5446  0.5337 -0.1013
  785MOL0     O 5899   4.892  10.047  11.236  0.1431  0.2481  0.1170
  785MOL0     C 5900   5.035  10.061  11.237 -0.3258 -0.5496 -0.7850
  785MOL0     C 5901   5.083  10.128  11.374 -0.2301 -0.6365  0.4650
  785MOL0     C 5902   5.238  10.122  11.404 -0.4821 -0.3445 -0.5893
  785MOL0     C 5903   5.305  10.262  11.381  0.4771  0.3361 -0.0240
  785MOL0     C 5904   5.451  10.257  11.407  0.0138  0.5858 -0.2701
  785MOL0     C 5905   5.566  10.243  11.427 -0.0540  1.6701  1.2858
  785MOL0     C 5906   4.694  10.146  11.290  0.4942 -0.4732 -0.4977
  785MOL0     C 5907   4.605  10.252  11.310  0.1732  0.4465  0.8226
  785MOL0     H 5908   4.222  10.522  11.264  1.2707 -2.4380  2.3902
  785MOL0     H 5909   4.087  10.734  11.305  0.1963  5.6218  2.0669
  785MOL0     H 5910   4.077  10.970  11.382 -0.0803  2.8959  1.2067
  785MOL0     H 5911   3.915  10.892  11.426 -0.5541  1.7281 -1.0172
  785MOL0     H 5912   3.898  11.131  11.471 -0.1984 -2.1376  0.0665
  785MOL0     H 5913   3.915  11.057  11.624  0.3128  1.0784  1.5489
  785MOL0     H 5914   4.154  11.085  11.648 -0.4972 -1.5869 -0.8017
  785MOL0     H 5915   4.162  11.150  11.483 -0.4455 -0.5830 -0.3619
  785MOL0     H 5916   4.039  11.353  11.537  1.4491 -1.0949 -2.3750
  785MOL0     H 5917   3.998  11.296  11.697 -1.3079  1.6855 -1.2433
  785MOL0     H 5918   4.228  11.321  11.763 -0.6743 -1.3573 -0.1125
  785MOL0     H 5919   4.287  11.318  11.588 -0.8248  0.7538 -1.3233
  785MOL0     H 5920   4.123  11.549  11.657  0.3730  0.7771 -1.8203
  785MOL0     H 5921   4.278  11.546  11.742 -1.5744  2.8603 -1.5638
  785MOL0     H 5922   4.283  11.681  11.551 -4.9154 -0.5686 -0.3895
  785MOL0     H 5923   4.413  11.543  11.543  0.2105  1.4545 -1.9978
  785MOL0     H 5924   4.196  11.630  11.354 -0.4779 -0.9775 -2.7286
  785MOL0     H 5925   4.158  11.467  11.417  2.7384 -1.8589 -2.5598
  785MOL0     H 5926   4.463  11.626  11.254  0.3214  0.2689  2.1991
  785MOL0     H 5927   4.482  11.524  10.944 -0.1202  1.2943 -0.0464
  785MOL0     H 5928   4.617  11.536  11.059  0.6513 -1.4702  0.4025
  785MOL0     H 5929   4.507  11.282  10.941  1.4031 -0.5449 -0.3647
  785MOL0     H 5930   4.653  11.294  11.036 -0.2575  1.7708  1.4748
  785MOL0     H 5931   4.740  11.476  10.881 -1.6715  0.0819  0.9981
  785MOL0     H 5932   4.620  11.420  10.761  1.2940 -0.0633 -1.3241
  785MOL0     H 5933   4.719  11.177  10.792  0.8829 -1.1650  1.0847
  785MOL0     H 5934   4.835  11.245  10.887 -1.4982 -2.4356  0.6568
  785MOL0     H 5935   4.971  11.463  10.811  1.0023 -1.1761  0.7912
  785MOL0     H 5936   5.205  11.686  10.751  1.2115 -1.0008 -1.7515
  785MOL0     H 5937   5.153  11.573  10.862 -2.2133 -1.7945 -0.7146
  785MOL0     H 5938   5.291  11.520  10.764 -0.6518 -2.0831 -0.5558
  785MOL0     H 5939   5.326  11.599  10.083 -0.9116  0.5087  0.3595
  785MOL0     H 5940   5.468  11.737   9.949  1.1384 -0.8765  0.5527
  785MOL0     H 5941   5.523  12.159  10.103  2.4671 -0.0867 -0.6960
  785MOL0     H 5942   5.672  12.155  10.001  2.4826 -1.1172  0.3087
  785MOL0     H 5943   5.529  12.059   9.827  1.2304 -0.1611  1.4845
  785MOL0     H 5944   5.376  12.098   9.919 -0.8994  3.0367  0.4911
  785MOL0     H 5945   5.575  12.327   9.854 -0.4796  1.5181  2.5488
  785MOL0     H 5946   5.421  12.325   9.942  2.4006  0.7458  0.2652
  785MOL0     H 5947   5.469  12.253   9.649  1.1438  1.3520 -0.3578
  785MOL0     H 5948   5.323  12.229   9.728  0.2100  1.2423 -1.3324
  785MOL0     H 5949   5.487  12.506   9.705 -0.5531  1.4343  3.2491
  785MOL0     H 5950   5.326  12.491   9.780  1.6331  0.0159  1.4465
  785MOL0     H 5951   5.400  12.429   9.476  2.4958 -0.5809  2.1460
  785MOL0     H 5952   5.252  12.407   9.564 -1.2869  0.9005 -0.1153
  785MOL0     H 5953   5.280  12.619   9.414 -1.1141 -0.6155 -0.1576
  785MOL0     H 5954   5.390  12.666   9.538  1.0393 -0.3548 -0.6872
  785MOL0     H 5955   5.223  12.698   9.709 -1.4789  0.6172  0.9916
  785MOL0     H 5956   5.098  12.608   9.626  0.7200 -2.3109  0.5394
  785MOL0     H 5957   5.551  11.976  10.287 -0.1332  0.1169  0.5469
  785MOL0     H 5958   5.453  11.799  10.436 -2.1379 -4.3749 -0.2424
  785MOL0     H 5959   5.088  11.453  10.328 -0.5701  2.2712 -0.4066
  785MOL0     H 5960   4.898  11.327  10.408 -2.4614  0.9306  0.2421
  785MOL0     H 5961   4.286  10.790  11.680 -2.8449  0.8798 -0.2457
  785MOL0     H 5962   4.460  10.635  11.597 -0.8084  2.7138  0.3314
  785MOL0     H 5963   4.782  10.502  11.197  1.5917 -0.3534  1.5580
  785MOL0     H 5964   4.955  10.309  11.162  1.1874 -0.3764  2.3238
  785MOL0     H 5965   5.066   9.957  11.224 -1.7038 -0.8763 -1.6704
  785MOL0     H 5966   5.077  10.110  11.149 -0.4358  0.8871 -0.0810
  785MOL0     H 5967   5.034  10.069  11.452  1.1840 -2.1873  0.2407
  785MOL0     H 5968   5.068  10.234  11.395 -0.8542 -0.2705 -1.6335
  785MOL0     H 5969   5.295  10.047  11.349 -0.7049 -0.3414 -0.8285
  785MOL0     H 5970   5.258  10.080  11.503  0.3875 -1.7310 -1.3191
  785MOL0     H 5971   5.259  10.335  11.449 -0.4587 -0.1173 -0.1513
  785MOL0     H 5972   5.293  10.305  11.281  0.2190 -0.8562 -0.5153
  785MOL0     H 5973   5.673  10.245  11.439 -0.0765  4.0116  1.5443
  785MOL0     H 5974   4.666  10.047  11.325 -3.1231 -0.0152 -1.7257
  785MOL0     H 5975   4.505  10.229  11.345 -1.4285 -0.6819 -3.6733
  786MOL0     O 5976  10.621   7.155   7.400 -0.4024 -0.4231  0.6479
  786MOL0     C 5977  10.723   7.218   7.356  0.0993  0.0708 -0.7450
  786MOL0     O 5978  10.848   7.168   7.355 -0.2182  0.4998  0.3837
  786MOL0     C 5979  10.891   7.082   7.454 -0.6575 -0.6398 -0.8176
  786MOL0     C 5980  10.971   6.974   7.416  1.0245 -0.1474  0.1142
  786MOL0     C 5981  11.029   6.890   7.516  0.3329 -0.5105 -1.0835
  786MOL0     C 5982  10.978   6.907   7.648  0.5547 -0.0365  0.4751
  786MOL0     O 5983  11.021   6.814   7.737 -0.7129  0.0485  0.0175
  786MOL0     C 5984  11.143   6.844   7.809  0.6901  1.2025 -0.0029
  786MOL0     C 5985  11.085   6.869   7.960  1.2538  0.1471  0.5578
  786MOL0     C 5986  11.185   6.858   8.075  0.4377  0.3952  0.5426
  786MOL0     C 5987  11.213   6.722   8.117 -0.7812  0.4795 -0.5267
  786MOL0     C 5988  11.296   6.726   8.254  0.6930  0.3545 -0.8631
  786MOL0     C 5989  11.302   6.599   8.340  0.8159  0.5188  0.4885
  786MOL0     C 5990  11.363   6.491   8.254  0.1559 -0.5919  0.4159
  786MOL0     C 5991  11.397   6.366   8.330  0.7601 -0.3300  1.2511
  786MOL0     N 5992  11.540   6.327   8.311 -0.6541 -0.0654  0.0282
  786MOL0     C 5993  11.645   6.373   8.398  0.2057 -0.6679  0.9301
  786MOL0     C 5994  11.753   6.306   8.359 -0.5168 -0.5222 -0.0454
  786MOL0     C 5995  11.881   6.320   8.440 -0.2717  0.3724  0.7738
  786MOL0     C 5996  11.943   6.186   8.477  0.6981  0.6136 -0.5394
  786MOL0     C 5997  11.887   6.129   8.607  0.0254 -0.3880  0.4335
  786MOL0     C 5998  11.983   6.009   8.660 -0.5859  0.1900 -0.7654
  786MOL0     O 5999  12.102   6.054   8.732  0.3215 -0.5015  0.2617
  786MOL0     C 6000  12.166   5.974   8.817  0.4192 -0.4892  0.3843
  786MOL0     C 6001  12.140   5.837   8.827  0.2517  0.7714  0.0519
  786MOL0     C 6002  12.225   5.759   8.901 -0.2434 -0.7771 -0.6446
  786MOL0     C 6003  12.210   5.606   8.885  0.1262 -0.6155 -0.1724
  786MOL0     C 6004  12.331   5.813   8.982 -0.0565  0.1087 -0.4702
  786MOL0     C 6005  12.434   5.732   9.054 -0.3199  0.4854 -1.4925
  786MOL0     O 6006  12.408   5.608   9.089 -0.1001  0.7101 -0.0283
  786MOL0     C 6007  12.511   5.526   9.120 -0.3649 -0.5935 -0.8149
  786MOL0     C 6008  12.648   5.547   9.085  0.3923 -0.1844 -0.3910
  786MOL0     C 6009  12.745   5.457   9.138 -0.3711  0.1196 -0.2015
  786MOL0     C 6010  12.716   5.333   9.217  1.5712 -0.2945  1.1691
  786MOL0     O 6011  12.816   5.263   9.266 -0.2989  0.0048  0.6349
  786MOL0     C 6012  12.773   5.123   9.288  0.6695 -0.0184 -0.6865
  786MOL0     C 6013  12.886   5.031   9.323  0.0251 -0.5297  0.3770
  786MOL0     C 6014  12.985   5.020   9.210 -0.6805  0.0167  0.1891
  786MOL0     C 6015  13.089   5.137   9.201  0.1644 -0.0133  0.2470
  786MOL0     C 6016  13.196   5.116   9.089  0.8447  0.3652  0.0977
  786MOL0     C 6017  13.318   5.033   9.121 -0.5451  0.8599 -0.5097
  786MOL0     C 6018  13.354   4.941   9.003  0.5543  0.1225 -0.4206
  786MOL0     C 6019  13.493   4.888   9.016 -0.2320 -0.1229  0.4765
  786MOL0    Cl 6020  13.539   4.822   8.859  0.1477  0.5305  0.1405
  786MOL0     C 6021  12.574   5.314   9.221 -0.1025  0.1630  0.4497
  786MOL0     C 6022  12.476   5.407   9.175 -0.7915  0.1175  0.8624
  786MOL0     O 6023  12.523   5.803   9.108 -0.3137  0.6520  0.4505
  786MOL0     C 6024  12.347   5.947   8.973  0.2034 -0.2397  0.4530
  786MOL0     C 6025  12.269   6.023   8.882 -0.0975  0.0442  0.3918
  786MOL0     N 6026  11.729   6.224   8.254  0.1802  0.8692 -0.4995
  786MOL0     N 6027  11.604   6.243   8.225  0.2991 -0.2920  0.0746
  786MOL0     C 6028  10.894   7.007   7.688  0.6513  0.2501  0.9736
  786MOL0     C 6029  10.857   7.101   7.586  0.0588  0.2360 -0.0529
  786MOL0     C 6030  10.699   7.337   7.272 -0.6125 -0.0708 -0.2318
  786MOL0     C 6031  10.586   7.418   7.278  0.7031  0.0425 -1.5628
  786MOL0     C 6032  10.576   7.532   7.199  0.5250  0.2216 -0.2881
  786MOL0     C 6033  10.677   7.577   7.118 -0.2447  0.3666  0.1750
  786MOL0     O 6034  10.662   7.707   7.067 -0.2092  0.8669 -0.2800
  786MOL0     C 6035  10.777   7.777   7.014 -1.2787 -0.4101  0.6073
  786MOL0     C 6036  10.751   7.922   6.960 -0.0853  1.1887  0.4712
  786MOL0     C 6037  10.670   7.931   6.836 -0.2637 -0.0303 -0.7134
  786MOL0     C 6038  10.746   7.907   6.707 -0.3708  0.2737  0.0477
  786MOL0     C 6039  10.659   7.864   6.607 -0.6381 -0.2561 -0.8111
  786MOL0     C 6040  10.590   7.835   6.517  0.8192 -1.0218  0.6092
  786MOL0     C 6041  10.794   7.503   7.112 -0.3239 -0.0663 -0.1941
  786MOL0     C 6042  10.803   7.381   7.183 -0.1469 -0.4381 -0.6180
  786MOL0     H 6043  10.972   6.947   7.311 -1.1194 -0.3754  0.0944
  786MOL0     H 6044  11.107   6.816   7.501  1.0688 -0.2756  1.2027
  786MOL0     H 6045  11.202   6.752   7.810 -1.4697 -0.4573  4.5127
  786MOL0     H 6046  11.194   6.932   7.770  0.5048  0.6620 -1.5395
  786MOL0     H 6047  11.047   6.972   7.966  0.7602 -0.0969  2.3396
  786MOL0     H 6048  11.002   6.802   7.985  1.0833  0.4180  0.7191
  786MOL0     H 6049  11.271   6.909   8.033  0.4772  0.5694  0.8370
  786MOL0     H 6050  11.152   6.916   8.162  3.8689 -1.6915  3.5267
  786MOL0     H 6051  11.122   6.667   8.145 -3.4065  2.9117 -3.5400
  786MOL0     H 6052  11.264   6.661   8.041 -1.6698 -2.0361  0.7646
  786MOL0     H 6053  11.402   6.748   8.239  0.6112  1.8701  0.5316
  786MOL0     H 6054  11.260   6.800   8.326 -0.8750 -1.7251  0.6194
  786MOL0     H 6055  11.372   6.615   8.423 -1.1517  0.9374  2.1528
  786MOL0     H 6056  11.200   6.562   8.358  0.5519 -0.8679 -3.0061
  786MOL0     H 6057  11.286   6.470   8.180 -1.4091  0.6765  1.6026
  786MOL0     H 6058  11.453   6.527   8.203 -1.2009  0.7780 -1.1385
  786MOL0     H 6059  11.328   6.293   8.285 -1.9417  2.9257 -0.3374
  786MOL0     H 6060  11.363   6.387   8.432  1.6511  1.6372  1.1910
  786MOL0     H 6061  11.634   6.443   8.480 -1.9358 -1.4506  1.3833
  786MOL0     H 6062  11.958   6.367   8.379 -0.9107 -2.2896 -2.3833
  786MOL0     H 6063  11.854   6.385   8.524 -1.2272 -0.4975  1.1706
  786MOL0     H 6064  12.049   6.206   8.496  1.5593 -2.5548 -1.3917
  786MOL0     H 6065  11.939   6.116   8.394 -1.9186  1.4847 -1.2676
  786MOL0     H 6066  11.782   6.097   8.603  0.6146 -2.4501  0.4812
  786MOL0     H 6067  11.888   6.207   8.684  1.0075 -1.1679  1.2301
  786MOL0     H 6068  12.016   5.937   8.585 -0.8695 -2.4695  1.4956
  786MOL0     H 6069  11.922   5.945   8.724  0.3137  0.3711  0.3218
  786MOL0     H 6070  12.069   5.779   8.769  1.4025 -0.4359 -0.1892
  786MOL0     H 6071  12.157   5.556   8.967 -0.0059  0.2937  0.3096
  786MOL0     H 6072  12.157   5.578   8.793 -0.1466  0.6568 -0.4197
  786MOL0     H 6073  12.312   5.569   8.872 -0.3880 -2.1544  0.0139
  786MOL0     H 6074  12.690   5.630   9.030 -1.1625  0.2102 -1.0181
  786MOL0     H 6075  12.852   5.473   9.129 -0.0732 -2.5158 -3.2566
  786MOL0     H 6076  12.692   5.119   9.362  0.0643 -3.2006 -1.3904
  786MOL0     H 6077  12.733   5.079   9.196  0.9230 -0.5396 -0.5496
  786MOL0     H 6078  12.937   5.064   9.414 -2.8151  1.5440  1.3870
  786MOL0     H 6079  12.846   4.931   9.339 -0.6899 -0.7768 -2.4338
  786MOL0     H 6080  12.924   5.026   9.119 -2.1425 -0.2070  1.1394
  786MOL0     H 6081  13.035   4.922   9.211 -1.2200 -0.2581  1.8935
  786MOL0     H 6082  13.046   5.234   9.173  3.0488  0.4866 -3.3156
  786MOL0     H 6083  13.144   5.147   9.295  2.5223  0.2838 -1.0869
  786MOL0     H 6084  13.227   5.217   9.059 -1.1196  0.5154 -1.7550
  786MOL0     H 6085  13.138   5.070   9.008  0.6797  1.9677 -0.7432
  786MOL0     H 6086  13.402   5.102   9.132 -0.9173  0.9533  2.6122
  786MOL0     H 6087  13.308   4.977   9.214 -0.0844 -0.6494 -1.3357
  786MOL0     H 6088  13.342   4.998   8.910  1.5951  0.0274 -0.6256
  786MOL0     H 6089  13.278   4.861   8.997  1.0249 -0.3120 -0.6948
  786MOL0     H 6090  13.491   4.814   9.097 -3.5469  1.7795  2.3235
  786MOL0     H 6091  13.566   4.963   9.048 -2.2277  2.2884 -0.3137
  786MOL0     H 6092  12.530   5.234   9.279 -1.4449  1.3779  1.1529
  786MOL0     H 6093  12.369   5.388   9.179 -1.0113  1.1585  0.3620
  786MOL0     H 6094  12.421   5.997   9.034 -1.0335 -2.2797  3.9253
  786MOL0     H 6095  12.307   6.124   8.867  0.5190 -0.0614  1.1444
  786MOL0     H 6096  10.867   7.016   7.792  1.5998 -2.7092  1.5819
  786MOL0     H 6097  10.796   7.186   7.617 -0.4414 -0.5222  1.1501
  786MOL0     H 6098  10.513   7.388   7.351 -0.7504 -1.1161 -3.3945
  786MOL0     H 6099  10.494   7.604   7.206 -0.3636 -0.7389 -0.5833
  786MOL0     H 6100  10.848   7.782   7.096  0.3382 -1.1275 -0.6758
  786MOL0     H 6101  10.826   7.714   6.939  1.2252 -0.6092  2.3028
  786MOL0     H 6102  10.851   7.966   6.955  1.2585 -1.5486  0.9111
  786MOL0     H 6103  10.698   7.982   7.034 -0.1767  1.2499  0.3556
  786MOL0     H 6104  10.620   8.028   6.827  1.3409  0.7688 -1.3605
  786MOL0     H 6105  10.578   7.871   6.836  0.3024 -1.0852 -3.6900
  786MOL0     H 6106  10.827   7.834   6.701  1.1795  1.9879 -3.7869
  786MOL0     H 6107  10.791   8.004   6.682  0.7703 -0.0902  0.6006
  786MOL0     H 6108  10.538   7.798   6.431  1.2783 -1.2029  0.4106
  786MOL0     H 6109  10.885   7.553   7.080 -0.8983  2.4513  1.7536
  786MOL0     H 6110  10.890   7.316   7.183 -0.7236 -1.2341 -1.1473
  787MOL0     O 6111  10.533   0.504  10.368 -0.3604  0.3666  0.5024
  787MOL0     C 6112  10.604   0.434  10.445 -0.3880  0.0662 -0.6644
  787MOL0     O 6113  10.585   0.410  10.576  0.2119 -0.1573  0.4814
  787MOL0     C 6114  10.462   0.432  10.639 -0.1257 -0.3737 -0.0792
  787MOL0     C 6115  10.331   0.438  10.580 -0.3761 -0.1601 -0.4272
  787MOL0     C 6116  10.223   0.446  10.671 -0.8576  0.3653 -0.3011
  787MOL0     C 6117  10.235   0.450  10.814  0.2299 -1.2754 -0.2562
  787MOL0     O 6118  10.117   0.485  10.890  0.0434 -0.4419 -0.0502
  787MOL0     C 6119  10.141   0.527  11.029  0.3671 -0.3270 -0.4323
  787MOL0     C 6120  10.007   0.547  11.103  0.3341  0.6104  0.5001
  787MOL0     C 6121  10.038   0.562  11.252 -0.5602  0.3753  1.2267
  787MOL0     C 6122  10.064   0.439  11.324  0.6054  0.2285 -0.3531
  787MOL0     C 6123  10.090   0.451  11.477  0.0551 -0.3096 -1.0710
  787MOL0     C 6124  10.140   0.324  11.545 -0.3993  0.1034  0.4864
  787MOL0     C 6125  10.033   0.217  11.555  0.1512 -0.4270  0.5597
  787MOL0     C 6126  10.070   0.087  11.621 -0.5462  0.2134  0.9035
  787MOL0     N 6127  10.096   0.090  11.771  0.8251  0.2703  0.5067
  787MOL0     C 6128  10.193   0.027  11.840 -0.0735 -0.1213 -0.8213
  787MOL0     C 6129  10.191   0.084  11.965  0.5254  0.0072 -0.8656
  787MOL0     C 6130  10.255   0.052  12.088 -0.7057  0.7450  0.5210
  787MOL0     C 6131  10.274  -0.103  12.100  0.0628  0.5162  0.0040
  787MOL0     C 6132  10.134  -0.176  12.130 -0.3095  0.2161  0.5712
  787MOL0     C 6133  10.144  -0.270  12.251  0.2989 -0.6392 -0.0415
  787MOL0     O 6134  10.224  -0.385  12.233 -0.8467  0.0145  0.2898
  787MOL0     C 6135  10.222  -0.481  12.324 -0.2315  0.3889 -0.1612
  787MOL0     C 6136  10.141  -0.479  12.432 -0.0919  0.7814  0.5773
  787MOL0     C 6137  10.148  -0.576  12.537  0.3427  0.7589 -1.6589
  787MOL0     C 6138  10.072  -0.532  12.667 -0.0313 -0.9454  0.3635
  787MOL0     C 6139  10.237  -0.691  12.519 -0.1213 -0.5169  0.5939
  787MOL0     C 6140  10.241  -0.804  12.606  0.0703 -0.2617 -0.2034
  787MOL0     O 6141  10.188  -0.782  12.734  0.3987 -0.2316  0.3688
  787MOL0     C 6142  10.231  -0.844  12.843 -0.0918  0.3988 -0.6426
  787MOL0     C 6143  10.138  -0.900  12.927 -0.1253 -0.3055 -0.2242
  787MOL0     C 6144  10.177  -0.974  13.038  0.0510 -0.3607  0.6086
  787MOL0     C 6145  10.311  -0.984  13.070  0.5851  0.3649 -0.0004
  787MOL0     O 6146  10.332  -1.051  13.179 -0.5293  0.3533  0.5066
  787MOL0     C 6147  10.443  -1.022  13.270  0.6689 -0.4054  0.0242
  787MOL0     C 6148  10.546  -1.125  13.283 -0.4141 -0.3627  0.8958
  787MOL0     C 6149  10.490  -1.253  13.367 -0.4875 -0.1400 -0.7268
  787MOL0     C 6150  10.463  -1.236  13.519  0.1854  0.6785  0.1324
  787MOL0     C 6151  10.470  -1.366  13.587  0.1376  1.7480  0.5739
  787MOL0     C 6152  10.367  -1.480  13.540 -0.3517  0.6387 -0.4388
  787MOL0     C 6153  10.359  -1.599  13.639  0.0281  0.4367  0.3530
  787MOL0     C 6154  10.470  -1.695  13.619  0.5202  0.4584 -0.7150
  787MOL0    Cl 6155  10.535  -1.789  13.752 -0.0287 -0.3693 -0.1179
  787MOL0     C 6156  10.413  -0.929  12.989  0.6126 -1.2354  0.2860
  787MOL0     C 6157  10.371  -0.858  12.873 -0.1425  0.1759 -0.4498
  787MOL0     O 6158  10.288  -0.913  12.567  0.0526  0.8299  0.6070
  787MOL0     C 6159  10.314  -0.686  12.400 -0.5624 -0.1958 -0.6853
  787MOL0     C 6160  10.312  -0.583  12.310  0.0744 -0.2088  0.4613
  787MOL0     N 6161  10.083   0.172  11.975  0.2074 -0.2272 -1.1375
  787MOL0     N 6162  10.037   0.175  11.857  1.1418 -0.9767  0.7231
  787MOL0     C 6163  10.363   0.448  10.865  0.2778  0.3638 -0.0341
  787MOL0     C 6164  10.473   0.441  10.784 -0.0205  0.1087 -1.1946
  787MOL0     C 6165  10.737   0.397  10.383  0.1372  0.2988  0.7055
  787MOL0     C 6166  10.774   0.425  10.251  0.7066  0.1709 -1.4791
  787MOL0     C 6167  10.899   0.385  10.206 -0.3477 -0.5847  0.0455
  787MOL0     C 6168  10.988   0.306  10.280  0.4269 -0.7909  1.4344
  787MOL0     O 6169  11.092   0.240  10.230  0.1670 -0.4200 -0.5910
  787MOL0     C 6170  11.136   0.262  10.094 -0.3090  0.4002  0.7553
  787MOL0     C 6171  11.267   0.200  10.033 -0.3740 -1.0022  0.8011
  787MOL0     C 6172  11.374   0.185  10.136 -1.1523 -0.9751 -0.4394
  787MOL0     C 6173  11.406   0.316  10.213 -0.1034  0.1349 -0.4200
  787MOL0     C 6174  11.498   0.392  10.135 -0.4692 -0.8079 -0.4514
  787MOL0     C 6175  11.578   0.465  10.080  1.1020 -0.0437  0.4691
  787MOL0     C 6176  10.954   0.283  10.411 -0.0532 -0.3798 -0.1502
  787MOL0     C 6177  10.829   0.329  10.464 -0.5002  0.1215 -0.7301
  787MOL0     H 6178  10.301   0.430  10.476  0.4980  1.0734 -0.8011
  787MOL0     H 6179  10.122   0.438  10.630 -0.7468 -0.0881 -0.4890
  787MOL0     H 6180  10.198   0.449  11.082 -0.4651 -0.4661  0.2780
  787MOL0     H 6181  10.201   0.617  11.043 -0.4343  0.3850 -1.4202
  787MOL0     H 6182   9.955   0.633  11.059  2.1301  0.3650 -2.4168
  787MOL0     H 6183   9.935   0.465  11.089 -1.7832  2.8068 -3.0906
  787MOL0     H 6184  10.117   0.633  11.277 -0.2224 -0.8988  4.2386
  787MOL0     H 6185   9.950   0.603  11.302 -0.4696 -0.0168  1.7179
  787MOL0     H 6186   9.974   0.378  11.318  0.8040 -0.0208 -0.9370
  787MOL0     H 6187  10.134   0.375  11.269 -0.6565  0.2113 -2.0111
  787MOL0     H 6188  10.163   0.532  11.487  0.7463 -0.9953 -0.4973
  787MOL0     H 6189   9.999   0.470  11.535  0.6815 -2.7926  0.8849
  787MOL0     H 6190  10.220   0.285  11.481  1.1313  2.3035  0.9635
  787MOL0     H 6191  10.193   0.338  11.640 -0.0302 -0.9280  0.4465
  787MOL0     H 6192   9.945   0.246  11.613  1.3060  0.1237  2.1250
  787MOL0     H 6193  10.009   0.176  11.457 -2.5995  2.3910 -0.1018
  787MOL0     H 6194  10.141   0.028  11.564 -1.4301  2.3020 -2.6426
  787MOL0     H 6195   9.978   0.029  11.606  0.0003 -0.1637 -1.3070
  787MOL0     H 6196  10.259  -0.050  11.802  1.6140  1.0832 -0.4233
  787MOL0     H 6197  10.359   0.084  12.075 -1.1963  1.1499 -4.0784
  787MOL0     H 6198  10.211   0.108  12.172  0.7659  1.7960  0.6371
  787MOL0     H 6199  10.352  -0.120  12.174  0.6225  2.0306 -0.1980
  787MOL0     H 6200  10.314  -0.146  12.008 -3.2552 -1.8500 -0.5399
  787MOL0     H 6201  10.099  -0.244  12.051  2.4490 -1.2323  0.4758
  787MOL0     H 6202  10.055  -0.104  12.152 -0.7094 -1.4533  5.6760
  787MOL0     H 6203  10.037  -0.291  12.255 -0.0008  0.8375  0.2487
  787MOL0     H 6204  10.175  -0.196  12.325 -1.2135 -1.5186  1.5512
  787MOL0     H 6205  10.058  -0.409  12.433 -0.1453  1.0347 -3.6821
  787MOL0     H 6206  10.129  -0.534  12.760  1.6370  1.4065 -0.5109
  787MOL0     H 6207  10.048  -0.427  12.652  4.3413  0.2410  0.4152
  787MOL0     H 6208   9.981  -0.592  12.679 -1.8480  1.5704  0.0002
  787MOL0     H 6209  10.039  -0.902  12.884  0.6580 -0.5458 -2.1387
  787MOL0     H 6210  10.097  -1.004  13.104 -0.4802  0.7522  0.5086
  787MOL0     H 6211  10.496  -0.934  13.233  0.8461 -2.4566 -5.5964
  787MOL0     H 6212  10.403  -1.006  13.371  2.0555 -0.6429  0.6326
  787MOL0     H 6213  10.574  -1.168  13.186 -1.2150  0.8772  0.0739
  787MOL0     H 6214  10.629  -1.072  13.330  0.4987 -0.8561 -0.1192
  787MOL0     H 6215  10.568  -1.329  13.360 -0.9320 -0.7803  0.7729
  787MOL0     H 6216  10.397  -1.302  13.335 -0.0812 -0.9140 -0.7374
  787MOL0     H 6217  10.546  -1.173  13.553  1.3344 -0.2396 -0.8738
  787MOL0     H 6218  10.365  -1.194  13.542  1.1599  2.4278  1.3739
  787MOL0     H 6219  10.465  -1.344  13.694  2.2473  2.7047  0.5342
  787MOL0     H 6220  10.563  -1.424  13.575 -2.0642 -2.0586  0.1558
  787MOL0     H 6221  10.266  -1.444  13.520 -0.1043  0.1816 -2.7776
  787MOL0     H 6222  10.405  -1.512  13.443  1.2703  3.0171 -0.6645
  787MOL0     H 6223  10.259  -1.640  13.620  0.2925 -0.6020  1.1221
  787MOL0     H 6224  10.352  -1.561  13.741 -1.9350  1.1578 -0.0022
  787MOL0     H 6225  10.558  -1.643  13.581  0.2803  1.9059  0.6486
  787MOL0     H 6226  10.437  -1.768  13.544 -0.1394  1.0056 -0.9722
  787MOL0     H 6227  10.520  -0.937  13.007  0.7979  3.0187  2.5283
  787MOL0     H 6228  10.437  -0.810  12.802 -1.8113  1.4295 -1.2100
  787MOL0     H 6229  10.380  -0.769  12.374  0.4616  0.5199 -0.4252
  787MOL0     H 6230  10.372  -0.594  12.220 -1.9711  1.5063 -1.2194
  787MOL0     H 6231  10.376   0.447  10.973 -2.9166  0.9320  0.4765
  787MOL0     H 6232  10.576   0.445  10.818 -0.8130 -2.1295  1.8567
  787MOL0     H 6233  10.724   0.494  10.185  1.5309  3.2690  0.8960
  787MOL0     H 6234  10.928   0.411  10.105 -0.3802 -0.1700  0.1409
  787MOL0     H 6235  11.054   0.236  10.027  1.0475 -1.1131 -0.4052
  787MOL0     H 6236  11.144   0.369  10.072  3.0768  0.3197  1.0156
  787MOL0     H 6237  11.291   0.275   9.956  1.1526 -0.7929  1.4538
  787MOL0     H 6238  11.242   0.120   9.963  0.9426  0.3572 -1.3581
  787MOL0     H 6239  11.464   0.150  10.084 -0.2511  1.4022 -0.5970
  787MOL0     H 6240  11.350   0.115  10.217 -0.0560  0.4716  1.2238
  787MOL0     H 6241  11.466   0.295  10.302 -2.2516  2.1548  1.6452
  787MOL0     H 6242  11.315   0.368  10.244  1.2268  1.3086  1.7424
  787MOL0     H 6243  11.649   0.523  10.025  0.0552 -0.8989 -1.9497
  787MOL0     H 6244  11.017   0.225  10.478 -0.2064 -2.1980 -1.5065
  787MOL0     H 6245  10.808   0.304  10.568 -1.9859 -1.9153 -1.4595
  788MOL0     O 6246   6.891  11.219   9.438 -0.1021  0.2272 -1.0170
  788MOL0     C 6247   6.934  11.204   9.549  0.3675 -0.2479 -0.9670
  788MOL0     O 6248   6.896  11.279   9.659  0.3834 -0.3995  0.4937
  788MOL0     C 6249   6.817  11.391   9.654 -0.1447 -0.0177  0.3654
  788MOL0     C 6250   6.870  11.515   9.689 -0.4811  0.3111 -0.5259
  788MOL0     C 6251   6.794  11.631   9.684  0.6739  0.2594 -0.0048
  788MOL0     C 6252   6.667  11.641   9.616  0.2050  0.3184 -0.0354
  788MOL0     O 6253   6.590  11.749   9.597 -0.4797 -0.0591  0.7413
  788MOL0     C 6254   6.632  11.880   9.645 -0.2734 -0.4671  0.1342
  788MOL0     C 6255   6.627  11.892   9.802  0.1746 -0.6594  0.7291
  788MOL0     C 6256   6.734  11.990   9.867  0.2207 -0.4079 -0.1988
  788MOL0     C 6257   6.759  12.125   9.794 -0.7821  0.3529  0.0983
  788MOL0     C 6258   6.643  12.223   9.820 -0.2515 -0.3245  0.7542
  788MOL0     C 6259   6.519  12.217   9.722  0.6579 -0.3848  0.4986
  788MOL0     C 6260   6.441  12.350   9.726 -0.0763  0.5858 -0.5222
  788MOL0     C 6261   6.284  12.343   9.703  0.2813 -0.1675 -0.3882
  788MOL0     N 6262   6.231  12.474   9.734 -0.0015  1.3459  0.4447
  788MOL0     C 6263   6.123  12.489   9.812 -0.5537  0.2584  0.3275
  788MOL0     C 6264   6.097  12.624   9.806  0.0179  0.1001 -0.0456
  788MOL0     C 6265   6.019  12.701   9.902  1.1992 -0.1674 -0.5361
  788MOL0     C 6266   5.871  12.662   9.893  0.1099  0.2132 -0.3562
  788MOL0     C 6267   5.795  12.753   9.990 -0.1687 -0.3767 -0.1849
  788MOL0     C 6268   5.640  12.739   9.985 -0.9914 -0.7836 -0.2288
  788MOL0     O 6269   5.603  12.609  10.042  0.4388 -0.5608  0.2828
  788MOL0     C 6270   5.480  12.588  10.096  0.1931  0.4463  0.4071
  788MOL0     C 6271   5.365  12.667  10.079  1.1107  0.3567 -0.1160
  788MOL0     C 6272   5.241  12.638  10.132 -0.8121 -0.1824 -0.5956
  788MOL0     C 6273   5.141  12.753  10.122 -0.1323 -1.0656  0.3301
  788MOL0     C 6274   5.225  12.516  10.202 -0.0959 -0.2143 -0.9860
  788MOL0     C 6275   5.111  12.487  10.285  0.6660  0.9762  0.8448
  788MOL0     O 6276   5.117  12.385  10.374 -0.0817  0.5273 -0.1300
  788MOL0     C 6277   5.015  12.380  10.464  0.5125  0.0057 -0.3445
  788MOL0     C 6278   4.897  12.304  10.444 -0.1558  0.2941 -1.1489
  788MOL0     C 6279   4.791  12.303  10.544 -0.4033  0.5468 -0.1292
  788MOL0     C 6280   4.805  12.355  10.677  0.4105  0.0533 -0.3991
  788MOL0     O 6281   4.701  12.323  10.760 -0.3880  0.8401 -0.4105
  788MOL0     C 6282   4.656  12.427  10.845 -0.2417  0.1900  0.3887
  788MOL0     C 6283   4.508  12.409  10.870  0.6406 -0.5758  0.0584
  788MOL0     C 6284   4.443  12.538  10.902  0.4730 -0.8175 -0.3402
  788MOL0     C 6285   4.400  12.594  10.771 -0.6056  0.6908  1.2457
  788MOL0     C 6286   4.313  12.708  10.798  0.0021 -0.1417  0.3365
  788MOL0     C 6287   4.288  12.776  10.666 -0.0621 -0.4238 -0.2861
  788MOL0     C 6288   4.177  12.882  10.682  0.1623  0.3680 -0.8406
  788MOL0     C 6289   4.169  12.962  10.552 -0.6785 -0.1237 -0.1375
  788MOL0    Cl 6290   4.319  13.068  10.539  0.3421 -0.5205  0.3027
  788MOL0     C 6291   4.917  12.433  10.693 -0.4507  0.3086 -0.7096
  788MOL0     C 6292   5.020  12.450  10.585  0.1183  0.2210 -0.6011
  788MOL0     O 6293   5.009  12.552  10.268 -0.4299 -0.2112  0.6090
  788MOL0     C 6294   5.337  12.433  10.210  0.5680 -0.4063  0.0028
  788MOL0     C 6295   5.462  12.464  10.157 -0.5154 -0.8755  0.0853
  788MOL0     N 6296   6.180  12.685   9.717 -1.2321 -0.0256 -0.0228
  788MOL0     N 6297   6.259  12.592   9.672 -0.0223  0.5318 -0.2708
  788MOL0     C 6298   6.613  11.515   9.582 -0.6606  0.0022 -1.1452
  788MOL0     C 6299   6.686  11.394   9.603 -0.3663 -0.2729 -0.9633
  788MOL0     C 6300   7.025  11.089   9.559 -0.4549 -0.9526 -0.7235
  788MOL0     C 6301   7.019  10.990   9.453 -0.5307 -0.1144 -0.2072
  788MOL0     C 6302   7.090  10.866   9.465  0.0075  0.8512 -0.7373
  788MOL0     C 6303   7.167  10.843   9.577  0.2845  0.7881  0.1234
  788MOL0     O 6304   7.248  10.734   9.602  0.5290 -0.7535  0.0581
  788MOL0     C 6305   7.275  10.638   9.503 -1.6223 -0.1463  0.3845
  788MOL0     C 6306   7.428  10.584   9.536  0.3093 -0.3503  0.8326
  788MOL0     C 6307   7.444  10.502   9.669  0.4799  0.3477  0.7697
  788MOL0     C 6308   7.589  10.439   9.674  1.1652  0.0865  0.2035
  788MOL0     C 6309   7.598  10.382   9.813  1.1290 -1.0868  0.7151
  788MOL0     C 6310   7.601  10.305   9.911  1.2395 -0.2173 -0.6720
  788MOL0     C 6311   7.166  10.932   9.689  0.7029  0.4111  1.3216
  788MOL0     C 6312   7.099  11.058   9.680  0.6850 -0.2057 -0.2685
  788MOL0     H 6313   6.973  11.518   9.722 -1.2279  1.0999  1.8925
  788MOL0     H 6314   6.842  11.718   9.727 -0.4027  1.7156 -1.5841
  788MOL0     H 6315   6.728  11.900   9.598 -0.5444 -2.3444 -1.3565
  788MOL0     H 6316   6.558  11.950   9.603  0.9132 -0.1083 -1.4886
  788MOL0     H 6317   6.535  11.948   9.822 -2.2972 -3.8825 -0.6104
  788MOL0     H 6318   6.621  11.794   9.851  2.8031 -0.3651  1.7677
  788MOL0     H 6319   6.694  12.011   9.966 -2.9173  0.5996 -1.5367
  788MOL0     H 6320   6.829  11.939   9.886  0.3204 -0.9000 -1.8785
  788MOL0     H 6321   6.842  12.183   9.836 -2.8300  2.6178  1.2727
  788MOL0     H 6322   6.783  12.097   9.691  2.5938 -0.8486  1.0872
  788MOL0     H 6323   6.614  12.203   9.924 -3.8931 -1.7973 -0.4104
  788MOL0     H 6324   6.681  12.326   9.817 -2.9161  0.7077 -0.4665
  788MOL0     H 6325   6.545  12.190   9.619 -2.1193  0.4658 -0.5233
  788MOL0     H 6326   6.450  12.142   9.763  0.1012 -0.6611 -0.8963
  788MOL0     H 6327   6.462  12.409   9.815  2.8932  1.4937 -1.6971
  788MOL0     H 6328   6.478  12.411   9.643  0.2639  0.0541 -0.7704
  788MOL0     H 6329   6.233  12.272   9.768  0.8024 -0.3848 -0.2106
  788MOL0     H 6330   6.258  12.326   9.598  0.0519  1.5213 -0.6418
  788MOL0     H 6331   6.060  12.427   9.876 -1.0179  2.9720  2.6765
  788MOL0     H 6332   6.037  12.688  10.010  0.2116  2.2826 -0.0120
  788MOL0     H 6333   6.039  12.806   9.879 -2.2502  0.8597  0.5159
  788MOL0     H 6334   5.862  12.553   9.902 -0.9321  0.2133 -1.2268
  788MOL0     H 6335   5.833  12.694   9.796 -1.2994 -0.1445  0.0430
  788MOL0     H 6336   5.826  12.855   9.967 -0.8675 -0.1022  0.0721
  788MOL0     H 6337   5.834  12.739  10.092 -0.8440  1.5102  0.3696
  788MOL0     H 6338   5.620  12.738   9.877 -0.5594  1.3879 -0.3821
  788MOL0     H 6339   5.587  12.821  10.035 -1.9678 -0.3071 -1.9440
  788MOL0     H 6340   5.393  12.761  10.033  0.6776  0.1841 -0.7488
  788MOL0     H 6341   5.166  12.823  10.042 -3.3714 -0.9392 -0.7367
  788MOL0     H 6342   5.044  12.714  10.087 -1.8383  2.8364  0.2126
  788MOL0     H 6343   5.125  12.812  10.213  1.2242 -1.6931  1.0087
  788MOL0     H 6344   4.878  12.253  10.350  0.9256  1.0527 -1.8068
  788MOL0     H 6345   4.708  12.238  10.521 -1.7855  2.3465 -0.4789
  788MOL0     H 6346   4.700  12.429  10.946  0.4446  6.4254  0.3515
  788MOL0     H 6347   4.674  12.524  10.797 -1.8608  0.3114 -0.0223
  788MOL0     H 6348   4.462  12.353  10.788  0.9496 -0.4214 -0.2241
  788MOL0     H 6349   4.491  12.346  10.958 -1.8276  0.5811  0.4969
  788MOL0     H 6350   4.517  12.597  10.958  0.2738  0.0447 -0.9720
  788MOL0     H 6351   4.356  12.530  10.968  0.4448  0.7242 -0.1556
  788MOL0     H 6352   4.494  12.619  10.719  1.2267 -0.8216  3.6469
  788MOL0     H 6353   4.338  12.519  10.722  1.6369 -0.2308 -0.3824
  788MOL0     H 6354   4.355  12.778  10.871 -0.0725  0.3617 -0.1033
  788MOL0     H 6355   4.220  12.676  10.845 -0.4178  0.4733 -0.0714
  788MOL0     H 6356   4.382  12.824  10.639 -1.0063  0.8981 -1.4025
  788MOL0     H 6357   4.264  12.694  10.597 -0.1297 -1.4752  0.9586
  788MOL0     H 6358   4.198  12.951  10.764  2.3407  1.1330 -1.9420
  788MOL0     H 6359   4.078  12.836  10.685 -1.0747  2.4837 -3.9036
  788MOL0     H 6360   4.077  13.020  10.559 -1.1497 -0.8225 -0.4242
  788MOL0     H 6361   4.162  12.907  10.457 -3.1656  0.8571 -0.5972
  788MOL0     H 6362   4.935  12.478  10.790 -0.8653 -0.7906 -0.1107
  788MOL0     H 6363   5.113  12.502  10.609 -0.9774  1.7598  0.5506
  788MOL0     H 6364   5.327  12.338  10.264 -3.3168  1.2564  2.7170
  788MOL0     H 6365   5.554  12.406  10.155  0.2623  0.2930  0.0858
  788MOL0     H 6366   6.513  11.517   9.539 -0.4934 -1.8334 -1.7350
  788MOL0     H 6367   6.646  11.305   9.556 -1.0771  0.6984 -2.2626
  788MOL0     H 6368   6.951  10.990   9.368 -0.4343 -0.1201 -0.2853
  788MOL0     H 6369   7.099  10.787   9.391 -0.4794  1.5033 -1.5033
  788MOL0     H 6370   7.212  10.551   9.487  1.3367 -2.6059  1.1435
  788MOL0     H 6371   7.284  10.677   9.401  0.9291 -1.0942  0.1839
  788MOL0     H 6372   7.506  10.660   9.529  0.4629 -0.3125  2.5663
  788MOL0     H 6373   7.446  10.511   9.456 -2.0792  1.4278 -1.5287
  788MOL0     H 6374   7.369  10.423   9.661 -1.7595  2.4964 -1.4150
  788MOL0     H 6375   7.412  10.571   9.748 -0.8972 -0.0040  0.5421
  788MOL0     H 6376   7.660  10.521   9.663  1.3938 -0.2408 -0.8311
  788MOL0     H 6377   7.597  10.357   9.602 -1.0154  0.0260 -0.0151
  788MOL0     H 6378   7.612  10.230   9.986 -1.5054 -1.7095 -1.6354
  788MOL0     H 6379   7.224  10.915   9.779  1.8982  2.7440  1.0477
  788MOL0     H 6380   7.108  11.140   9.750 -1.6229  1.1111 -1.4046
  789MOL0     O 6381   7.732   0.772   8.720 -0.7774 -0.9405 -0.3436
  789MOL0     C 6382   7.718   0.750   8.843 -0.8504 -0.1265  0.0322
  789MOL0     O 6383   7.729   0.844   8.945 -0.0480  0.9371  0.7691
  789MOL0     C 6384   7.722   0.979   8.918  0.3696 -0.0370 -0.4073
  789MOL0     C 6385   7.829   1.054   8.969 -0.3871 -0.0935 -0.1872
  789MOL0     C 6386   7.848   1.193   8.956  1.0849 -0.6720 -0.4563
  789MOL0     C 6387   7.750   1.263   8.884 -0.9626 -0.9175  0.3289
  789MOL0     O 6388   7.782   1.392   8.846 -0.6875  0.3981  0.2043
  789MOL0     C 6389   7.694   1.471   8.763 -0.6631  0.3718  0.3973
  789MOL0     C 6390   7.696   1.621   8.803 -1.0218 -0.4011 -0.3326
  789MOL0     C 6391   7.595   1.654   8.917 -0.3616  0.0736 -0.4299
  789MOL0     C 6392   7.631   1.804   8.958 -1.2283  0.4421  0.2954
  789MOL0     C 6393   7.552   1.855   9.076 -0.3355 -0.3501  0.7682
  789MOL0     C 6394   7.399   1.871   9.045  0.6766 -0.4271 -0.2889
  789MOL0     C 6395   7.331   1.962   9.142  0.0356 -0.1634 -0.0010
  789MOL0     C 6396   7.190   1.995   9.095 -0.4036 -0.3007 -0.2946
  789MOL0     N 6397   7.111   1.879   9.078 -0.6580  0.7247  0.3310
  789MOL0     C 6398   7.042   1.818   9.174  0.4482  0.4421  0.3574
  789MOL0     C 6399   6.981   1.709   9.115 -0.3269  0.1384 -0.6273
  789MOL0     C 6400   6.857   1.630   9.146 -0.2391 -0.2143 -0.5577
  789MOL0     C 6401   6.739   1.721   9.099  0.0874 -0.4485 -0.6129
  789MOL0     C 6402   6.615   1.637   9.084 -0.1788  0.5128 -0.3059
  789MOL0     C 6403   6.508   1.691   9.001  0.2696 -0.8928 -0.1297
  789MOL0     O 6404   6.509   1.838   8.981 -0.0672  0.1352  0.9304
  789MOL0     C 6405   6.426   1.906   9.066  0.3515 -0.7318 -0.7353
  789MOL0     C 6406   6.368   2.021   9.020  0.7746 -0.0993  0.0320
  789MOL0     C 6407   6.292   2.104   9.104 -0.0961  0.6882  0.1522
  789MOL0     C 6408   6.246   2.230   9.036  0.3800 -1.0516 -0.7851
  789MOL0     C 6409   6.268   2.066   9.240 -1.4981 -0.5390  0.5020
  789MOL0     C 6410   6.211   2.156   9.347 -1.0868  0.3232 -0.7740
  789MOL0     O 6411   6.236   2.139   9.480 -0.0563 -0.1389  0.3707
  789MOL0     C 6412   6.162   2.227   9.559 -0.0303  1.4494 -0.0406
  789MOL0     C 6413   6.072   2.185   9.652  0.1454  0.4364 -0.5930
  789MOL0     C 6414   6.001   2.276   9.733  1.0515 -0.2056  0.2527
  789MOL0     C 6415   6.025   2.411   9.719 -0.2006 -0.9146  0.0018
  789MOL0     O 6416   5.939   2.504   9.785 -0.7541  0.8293  0.0622
  789MOL0     C 6417   5.898   2.473   9.922 -0.0522  0.4175 -0.1924
  789MOL0     C 6418   5.866   2.600   9.996  0.5637  0.5207  0.2629
  789MOL0     C 6419   5.786   2.581  10.111  0.6580  0.5939  0.7463
  789MOL0     C 6420   5.765   2.703  10.196  0.3491 -0.1998 -0.0134
  789MOL0     C 6421   5.691   2.667  10.324 -0.0780  0.1101 -0.0722
  789MOL0     C 6422   5.665   2.793  10.409  0.6821  0.3374  0.1331
  789MOL0     C 6423   5.580   2.775  10.533  0.5605 -0.3929 -0.3254
  789MOL0     C 6424   5.438   2.733  10.510  0.2284  0.0723  0.1756
  789MOL0    Cl 6425   5.325   2.785  10.656  0.2425  0.4498  0.5385
  789MOL0     C 6426   6.117   2.457   9.627 -0.3360  0.5298  1.1271
  789MOL0     C 6427   6.195   2.367   9.558  0.8559 -0.0611 -0.0245
  789MOL0     O 6428   6.137   2.240   9.306  0.1684 -0.6662  0.2223
  789MOL0     C 6429   6.318   1.944   9.291  0.0762  0.3005  0.1001
  789MOL0     C 6430   6.391   1.866   9.198 -1.2863  0.0920 -0.9660
  789MOL0     N 6431   7.037   1.704   8.988 -1.3637  0.7708 -0.1367
  789MOL0     N 6432   7.116   1.799   8.963 -0.1639 -0.6257  0.0361
  789MOL0     C 6433   7.635   1.192   8.841 -1.0062  0.6276 -1.3130
  789MOL0     C 6434   7.627   1.053   8.853  1.0079 -0.2637 -0.8011
  789MOL0     C 6435   7.711   0.608   8.891 -0.0169  0.1861 -1.2279
  789MOL0     C 6436   7.693   0.506   8.806 -0.3557 -0.6500 -0.9861
  789MOL0     C 6437   7.707   0.382   8.860 -0.6755  1.2234  0.7667
  789MOL0     C 6438   7.716   0.351   8.995 -0.0236 -0.3040 -0.6937
  789MOL0     O 6439   7.722   0.226   9.040  0.0332  0.0396 -0.1672
  789MOL0     C 6440   7.705   0.204   9.185  0.4094 -0.3102 -0.2792
  789MOL0     C 6441   7.674   0.048   9.205  0.5327 -0.7142  0.6362
  789MOL0     C 6442   7.788  -0.029   9.142 -0.1531  0.6169 -0.7516
  789MOL0     C 6443   7.818  -0.163   9.219  0.3422  0.4403 -0.3023
  789MOL0     C 6444   7.757  -0.283   9.155  0.0684 -0.5734  0.3653
  789MOL0     C 6445   7.711  -0.391   9.104  0.1503  0.7553 -0.3065
  789MOL0     C 6446   7.735   0.462   9.077 -0.0714  0.2124 -0.9358
  789MOL0     C 6447   7.720   0.589   9.031  0.1718 -0.7402  0.7865
  789MOL0     H 6448   7.914   1.004   9.012 -0.3945  1.7204  2.1273
  789MOL0     H 6449   7.920   1.250   9.014 -0.7948  0.5342  0.8343
  789MOL0     H 6450   7.705   1.460   8.655 -3.5847  0.4899  0.0061
  789MOL0     H 6451   7.592   1.435   8.781 -0.6933  0.1329 -0.2372
  789MOL0     H 6452   7.796   1.642   8.843 -1.2803  0.0741  0.0829
  789MOL0     H 6453   7.682   1.691   8.720 -0.9099  1.5883  1.2503
  789MOL0     H 6454   7.489   1.654   8.890 -0.1485  1.7379 -1.4147
  789MOL0     H 6455   7.615   1.584   8.999  1.1097  1.6115  0.6046
  789MOL0     H 6456   7.735   1.818   8.987 -1.8652  0.4565  2.7286
  789MOL0     H 6457   7.603   1.864   8.870 -1.1476 -0.2050 -0.1859
  789MOL0     H 6458   7.555   1.777   9.153 -1.3236 -1.3677 -0.1941
  789MOL0     H 6459   7.595   1.949   9.112 -0.1335 -1.1361  2.7068
  789MOL0     H 6460   7.390   1.923   8.950  1.8228  0.1477 -0.1023
  789MOL0     H 6461   7.351   1.774   9.029  0.0157 -0.3029  0.8476
  789MOL0     H 6462   7.334   1.897   9.229  0.1276 -0.4140 -0.1907
  789MOL0     H 6463   7.401   2.046   9.146  0.8650 -0.8823  1.5547
  789MOL0     H 6464   7.205   2.066   9.013 -1.6504  0.2671 -0.0454
  789MOL0     H 6465   7.134   2.047   9.174 -2.5742 -3.2076  0.2404
  789MOL0     H 6466   7.023   1.873   9.266  1.3083 -0.7233  1.2530
  789MOL0     H 6467   6.874   1.537   9.092 -0.0670 -0.5139  0.0095
  789MOL0     H 6468   6.846   1.606   9.252  0.3028 -1.7441 -0.8325
  789MOL0     H 6469   6.764   1.765   9.002 -2.1555  0.2213 -0.9582
  789MOL0     H 6470   6.723   1.800   9.173  3.8601  0.6941 -0.8316
  789MOL0     H 6471   6.581   1.599   9.181  0.2149 -1.0669 -0.7504
  789MOL0     H 6472   6.639   1.539   9.042 -3.4965 -1.0254  1.0373
  789MOL0     H 6473   6.411   1.660   9.042 -0.6744  2.7243  0.7405
  789MOL0     H 6474   6.527   1.634   8.909 -2.8796 -1.4470 -0.5744
  789MOL0     H 6475   6.378   2.056   8.918 -4.4120  0.6203 -0.5128
  789MOL0     H 6476   6.293   2.305   9.100 -1.0009 -2.1992  1.6887
  789MOL0     H 6477   6.287   2.252   8.936  1.6102  2.4434  0.3462
  789MOL0     H 6478   6.138   2.242   9.037  0.6102  2.5629  1.6682
  789MOL0     H 6479   6.070   2.078   9.669 -2.3170  0.4444 -0.5532
  789MOL0     H 6480   5.927   2.239   9.803 -0.9799  3.1597  0.0940
  789MOL0     H 6481   5.806   2.412   9.925 -0.3740  0.8517  3.7410
  789MOL0     H 6482   5.977   2.425   9.980  0.8261 -1.6073 -2.8461
  789MOL0     H 6483   5.963   2.641  10.025  0.5009  0.2394  0.8968
  789MOL0     H 6484   5.816   2.676   9.936  1.6885  0.5317 -0.6821
  789MOL0     H 6485   5.838   2.503  10.167 -0.0952  1.1734  2.3065
  789MOL0     H 6486   5.688   2.542  10.083  1.3396  0.3221 -1.4270
  789MOL0     H 6487   5.858   2.758  10.216  1.4823 -0.9055 -2.8220
  789MOL0     H 6488   5.708   2.778  10.139  1.0098  1.0574  0.9182
  789MOL0     H 6489   5.746   2.589  10.379 -1.9465 -0.5227  0.9919
  789MOL0     H 6490   5.598   2.618  10.293  0.9812 -1.5119 -0.8484
  789MOL0     H 6491   5.767   2.821  10.441  0.5635  2.5853 -1.2275
  789MOL0     H 6492   5.626   2.873  10.346 -0.8528 -0.6403 -0.2063
  789MOL0     H 6493   5.567   2.874  10.577  2.8069 -0.4409  0.5783
  789MOL0     H 6494   5.634   2.716  10.608  2.5483  1.1020 -0.4864
  789MOL0     H 6495   5.434   2.625  10.490  0.0032 -0.1398  1.3085
  789MOL0     H 6496   5.393   2.796  10.433 -1.9705  1.2499  2.3181
  789MOL0     H 6497   6.128   2.561   9.597 -0.7463 -0.3966 -2.8646
  789MOL0     H 6498   6.272   2.394   9.486 -0.2654  1.3648 -0.7301
  789MOL0     H 6499   6.334   1.918   9.396  1.6478 -0.8459 -0.3757
  789MOL0     H 6500   6.427   1.772   9.240  0.7148  1.0445 -0.4264
  789MOL0     H 6501   7.545   1.233   8.794 -2.8940  0.5384  1.9558
  789MOL0     H 6502   7.538   1.011   8.808 -0.4361  0.7569  0.9812
  789MOL0     H 6503   7.685   0.512   8.698 -1.1609 -0.6557 -0.9310
  789MOL0     H 6504   7.698   0.293   8.799 -1.1803 -0.6419  3.4196
  789MOL0     H 6505   7.798   0.239   9.231 -0.2698 -1.3094  1.9826
  789MOL0     H 6506   7.621   0.263   9.223 -1.5955 -3.0973 -0.0026
  789MOL0     H 6507   7.587   0.028   9.142 -0.0638  2.4276  0.3108
  789MOL0     H 6508   7.627   0.015   9.298 -1.0450 -2.8768 -0.8082
  789MOL0     H 6509   7.877   0.028   9.168  0.7977 -0.7313 -0.9364
  789MOL0     H 6510   7.782  -0.047   9.034 -0.5447 -3.2225 -0.2287
  789MOL0     H 6511   7.775  -0.165   9.320  0.5408  1.4280 -0.1907
  789MOL0     H 6512   7.928  -0.164   9.227  0.3623  2.5062  0.2459
  789MOL0     H 6513   7.663  -0.477   9.062 -1.5833  1.1336  0.8072
  789MOL0     H 6514   7.750   0.463   9.185 -0.3526 -0.0709 -0.8947
  789MOL0     H 6515   7.730   0.677   9.093  2.5567  1.1252 -1.9925
  790MOL0     O 6516   6.669   2.938   6.428  0.0309 -0.2497 -0.5748
  790MOL0     C 6517   6.583   2.949   6.521  0.3696  0.4474  0.8589
  790MOL0     O 6518   6.534   2.843   6.591  0.2928 -0.4370 -0.1312
  790MOL0     C 6519   6.591   2.723   6.561 -0.8004  0.2932  0.3922
  790MOL0     C 6520   6.545   2.647   6.453  0.2802 -1.1840 -0.8061
  790MOL0     C 6521   6.595   2.520   6.423  0.7332 -1.3735 -0.7185
  790MOL0     C 6522   6.697   2.473   6.504 -0.2749  0.2269 -0.4121
  790MOL0     O 6523   6.722   2.330   6.493  0.2656 -0.7890 -0.4533
  790MOL0     C 6524   6.747   2.271   6.619  0.0368 -0.8778  0.1097
  790MOL0     C 6525   6.697   2.118   6.604  0.1672  0.4531  0.4318
  790MOL0     C 6526   6.549   2.102   6.589  0.2585 -0.9172 -0.0829
  790MOL0     C 6527   6.489   2.100   6.448 -0.2293  0.7856  0.2230
  790MOL0     C 6528   6.331   2.105   6.436 -0.3402  0.3399  0.0493
  790MOL0     C 6529   6.266   1.972   6.476  1.2038  0.3804  0.0864
  790MOL0     C 6530   6.122   1.948   6.435  0.0976 -0.9701 -0.7227
  790MOL0     C 6531   6.030   2.063   6.469  0.4693 -0.4453 -0.0650
  790MOL0     N 6532   5.906   2.014   6.522  0.7161  0.2044  0.9756
  790MOL0     C 6533   5.798   1.950   6.455 -0.5937  0.3654  0.9718
  790MOL0     C 6534   5.705   1.929   6.550  0.7696  0.4492 -0.1657
  790MOL0     C 6535   5.581   1.840   6.516  0.3723  1.0465  0.1538
  790MOL0     C 6536   5.461   1.858   6.608 -0.7666 -1.1543 -0.2697
  790MOL0     C 6537   5.375   1.732   6.631 -1.1364 -0.0121 -0.2315
  790MOL0     C 6538   5.305   1.745   6.776 -0.0220  0.1017  0.5465
  790MOL0     O 6539   5.190   1.829   6.746  0.8652  1.0267 -0.4958
  790MOL0     C 6540   5.101   1.847   6.853  0.1539  0.4876 -0.0345
  790MOL0     C 6541   5.116   1.804   6.985 -0.2083 -1.1359  0.2261
  790MOL0     C 6542   5.009   1.809   7.085  0.5621 -0.3911 -0.1779
  790MOL0     C 6543   5.030   1.742   7.223 -0.4455  0.6406  0.0457
  790MOL0     C 6544   4.876   1.850   7.047  0.2021 -0.3750  0.4233
  790MOL0     C 6545   4.752   1.844   7.128  0.1087 -0.2204 -0.5634
  790MOL0     O 6546   4.634   1.811   7.055 -0.2399 -0.6437 -0.2501
  790MOL0     C 6547   4.523   1.813   7.131 -0.0736  0.1361 -0.6559
  790MOL0     C 6548   4.420   1.711   7.102  0.1989 -0.1276  0.8823
  790MOL0     C 6549   4.304   1.706   7.184  0.0132  0.7123  0.6076
  790MOL0     C 6550   4.280   1.808   7.284  0.2399  1.1965  0.9433
  790MOL0     O 6551   4.149   1.807   7.337  0.5391 -0.1090  0.7946
  790MOL0     C 6552   4.107   1.893   7.440  0.5954  0.1600 -1.1356
  790MOL0     C 6553   3.959   1.898   7.456 -0.5077  0.3901  0.3053
  790MOL0     C 6554   3.897   1.757   7.490 -0.1863  0.8522  0.0230
  790MOL0     C 6555   3.771   1.765   7.569 -0.2592  0.3609  0.6537
  790MOL0     C 6556   3.690   1.646   7.593  0.7846  1.3771 -0.1859
  790MOL0     C 6557   3.578   1.691   7.686 -0.3653  0.5077  0.2497
  790MOL0     C 6558   3.455   1.602   7.713 -0.0854 -0.6785 -0.6622
  790MOL0     C 6559   3.402   1.559   7.582 -0.4229 -0.0572 -0.0083
  790MOL0    Cl 6560   3.244   1.484   7.600 -0.7104 -0.0689  0.0880
  790MOL0     C 6561   4.371   1.909   7.305  0.8008  0.0962 -0.3420
  790MOL0     C 6562   4.481   1.913   7.227  0.2110 -0.1003  0.0792
  790MOL0     O 6563   4.761   1.867   7.248 -0.3212  0.0009 -1.0436
  790MOL0     C 6564   4.868   1.909   6.914 -0.7383  0.0674 -0.0774
  790MOL0     C 6565   4.972   1.902   6.825 -1.4226 -0.1335  0.7069
  790MOL0     N 6566   5.743   1.977   6.664  0.6893  0.1954 -0.8188
  790MOL0     N 6567   5.859   2.037   6.648 -0.9213 -0.1520  0.1470
  790MOL0     C 6568   6.750   2.554   6.608  0.1572  0.6278  0.1581
  790MOL0     C 6569   6.703   2.683   6.629  0.1107 -0.1642  0.0419
  790MOL0     C 6570   6.545   3.093   6.548  1.5690 -0.8381  0.6601
  790MOL0     C 6571   6.427   3.115   6.622  0.0845 -0.7577  0.7962
  790MOL0     C 6572   6.386   3.247   6.653 -0.8879 -0.0644  0.1742
  790MOL0     C 6573   6.465   3.357   6.612 -0.3373 -0.2275  1.4512
  790MOL0     O 6574   6.434   3.491   6.628 -0.0859 -0.4258  0.2243
  790MOL0     C 6575   6.301   3.534   6.657  0.7778 -0.1806  0.1326
  790MOL0     C 6576   6.284   3.674   6.592  0.2729  0.5661  0.3614
  790MOL0     C 6577   6.380   3.783   6.634  0.1861 -0.6387  0.6334
  790MOL0     C 6578   6.394   3.900   6.542  0.1382  0.3069  0.2102
  790MOL0     C 6579   6.266   3.955   6.508  0.3750 -0.7164  0.9686
  790MOL0     C 6580   6.160   4.002   6.465 -0.3225  0.2943 -0.1284
  790MOL0     C 6581   6.568   3.332   6.521 -0.5305  0.3014 -0.1938
  790MOL0     C 6582   6.616   3.204   6.493  0.4314  0.4160  0.2185
  790MOL0     H 6583   6.468   2.702   6.401 -1.7234 -2.1015  1.0729
  790MOL0     H 6584   6.548   2.469   6.339  0.9643  2.7809 -3.7108
  790MOL0     H 6585   6.854   2.270   6.641  0.1651  3.6102  0.6330
  790MOL0     H 6586   6.686   2.315   6.700 -0.6610 -3.2095  0.9287
  790MOL0     H 6587   6.755   2.058   6.532 -0.2879 -3.4519  3.0453
  790MOL0     H 6588   6.731   2.073   6.697 -1.9286  1.3134  1.6747
  790MOL0     H 6589   6.522   2.012   6.644  4.3227 -0.9801  2.1918
  790MOL0     H 6590   6.508   2.180   6.654  1.7979 -1.7976  2.0287
  790MOL0     H 6591   6.528   2.185   6.392  3.0930  0.4137  1.7761
  790MOL0     H 6592   6.518   2.004   6.406 -1.5997 -0.3710  1.7494
  790MOL0     H 6593   6.287   2.188   6.492  2.8368  2.7801 -0.7906
  790MOL0     H 6594   6.302   2.119   6.332 -3.5915  2.3428  1.0846
  790MOL0     H 6595   6.331   1.891   6.441  3.5202  1.2760  1.9900
  790MOL0     H 6596   6.277   1.975   6.585  2.8279  3.1409 -0.0419
  790MOL0     H 6597   6.122   1.946   6.325  0.8222  4.4565 -1.1047
  790MOL0     H 6598   6.082   1.859   6.485  0.3082  0.6181  2.5286
  790MOL0     H 6599   5.994   2.110   6.377 -1.7522  0.2323  1.0806
  790MOL0     H 6600   6.071   2.129   6.546 -0.7686  0.7331 -0.3921
  790MOL0     H 6601   5.809   1.923   6.350  2.8139  0.7633  1.1282
  790MOL0     H 6602   5.547   1.866   6.415 -1.8941 -1.7751  0.0396
  790MOL0     H 6603   5.607   1.733   6.516 -3.5728 -0.1310  2.5599
  790MOL0     H 6604   5.408   1.945   6.570  0.8162  1.1204  2.3181
  790MOL0     H 6605   5.508   1.894   6.700  1.6256 -3.7688 -0.3371
  790MOL0     H 6606   5.442   1.645   6.633 -1.6785 -0.4388  1.0036
  790MOL0     H 6607   5.296   1.709   6.559 -3.5555  0.4940  2.1064
  790MOL0     H 6608   5.374   1.786   6.850 -1.4243 -0.2305  2.0869
  790MOL0     H 6609   5.284   1.640   6.799 -0.3503  0.1222  0.3495
  790MOL0     H 6610   5.200   1.739   7.006 -0.9067 -3.5979 -3.6479
  790MOL0     H 6611   4.987   1.641   7.214  3.1915 -0.9659 -1.6274
  790MOL0     H 6612   5.135   1.716   7.244  0.0729  1.6858 -1.1032
  790MOL0     H 6613   4.990   1.802   7.305  0.7231  1.5645 -0.0364
  790MOL0     H 6614   4.450   1.646   7.021  0.1779  1.2770 -0.2831
  790MOL0     H 6615   4.226   1.631   7.179 -2.4876  3.2672 -1.2458
  790MOL0     H 6616   4.148   1.851   7.532  0.3891  2.7421  0.2174
  790MOL0     H 6617   4.147   1.992   7.420  0.7716 -0.3045 -3.3148
  790MOL0     H 6618   3.935   1.962   7.541  0.1032  0.7444  0.2166
  790MOL0     H 6619   3.912   1.934   7.364  1.0385 -0.0374 -0.6951
  790MOL0     H 6620   3.971   1.703   7.550  0.7512  2.4802  0.4037
  790MOL0     H 6621   3.881   1.712   7.392  1.4469  2.4385 -1.0481
  790MOL0     H 6622   3.797   1.815   7.662  2.0129  0.9605 -0.2324
  790MOL0     H 6623   3.706   1.829   7.509 -3.1601 -1.1016  2.0062
  790MOL0     H 6624   3.746   1.566   7.642 -0.9903  0.0911 -0.1740
  790MOL0     H 6625   3.640   1.611   7.502 -0.0980 -0.5168  0.9537
  790MOL0     H 6626   3.619   1.713   7.785 -0.3300 -0.6963  0.5191
  790MOL0     H 6627   3.519   1.780   7.661 -2.3944 -0.4464  1.4065
  790MOL0     H 6628   3.383   1.672   7.756  2.7339  1.1697  1.4036
  790MOL0     H 6629   3.486   1.530   7.790  2.2665  0.3422 -0.5691
  790MOL0     H 6630   3.475   1.487   7.543  1.3544  1.3058  0.6728
  790MOL0     H 6631   3.410   1.634   7.503  2.6240  0.3555  0.5666
  790MOL0     H 6632   4.355   1.983   7.382 -1.9109  2.6095 -3.0674
  790MOL0     H 6633   4.551   1.992   7.255  3.3355 -2.3893 -0.7073
  790MOL0     H 6634   4.771   1.927   6.869 -1.8919 -0.3251  2.0712
  790MOL0     H 6635   4.951   1.935   6.724  1.3430 -0.9131 -0.2068
  790MOL0     H 6636   6.837   2.521   6.663  0.6711  2.4252  0.4924
  790MOL0     H 6637   6.739   2.745   6.711 -3.7766  0.8496  1.1857
  790MOL0     H 6638   6.367   3.030   6.656 -1.5947 -0.5315 -1.3854
  790MOL0     H 6639   6.292   3.262   6.706 -0.2969 -0.5014  1.4045
  790MOL0     H 6640   6.220   3.464   6.635  2.3629 -1.5320 -1.7795
  790MOL0     H 6641   6.284   3.548   6.764  0.7539 -3.1294  0.5949
  790MOL0     H 6642   6.179   3.702   6.603 -0.1108 -0.3221 -0.9334
  790MOL0     H 6643   6.298   3.654   6.485 -2.9759  5.0001 -1.1965
  790MOL0     H 6644   6.480   3.743   6.656  0.5955 -0.5382 -0.8774
  790MOL0     H 6645   6.338   3.813   6.730 -1.1126 -0.2517 -0.0393
  790MOL0     H 6646   6.453   3.861   6.459  0.3434  0.1477  0.4305
  790MOL0     H 6647   6.461   3.972   6.592 -1.2432  3.6398 -2.3353
  790MOL0     H 6648   6.075   4.061   6.437  1.2122  1.5584 -2.4466
  790MOL0     H 6649   6.627   3.415   6.483  1.0808  0.5130  2.4682
  790MOL0     H 6650   6.703   3.179   6.433  1.7152  0.0652  2.1447
  791MOL0     O 6651   0.242  11.368   0.537  0.1533 -1.0014 -0.2263
  791MOL0     C 6652   0.344  11.446   0.544  0.7779  0.3354  0.4874
  791MOL0     O 6653   0.358  11.556   0.465  0.0158  0.6066 -0.3735
  791MOL0     C 6654   0.280  11.575   0.354 -0.2195  0.1837  0.3681
  791MOL0     C 6655   0.142  11.560   0.347 -0.5237  0.3200  0.6075
  791MOL0     C 6656   0.069  11.580   0.228 -0.6939  0.2545 -1.0535
  791MOL0     C 6657   0.138  11.646   0.121 -0.5229  0.4655 -0.5055
  791MOL0     O 6658   0.081  11.660   0.000  0.3572  0.5491  0.4850
  791MOL0     C 6659  -0.001  11.545  -0.046  0.9198 -0.3336  0.2531
  791MOL0     C 6660   0.022  11.522  -0.195  0.5142  0.1157  0.2207
  791MOL0     C 6661  -0.097  11.449  -0.268  0.1960  0.2697 -0.2343
  791MOL0     C 6662  -0.043  11.338  -0.361 -0.1274  0.3651  0.3891
  791MOL0     C 6663  -0.148  11.279  -0.447  0.0381  0.3704 -0.3968
  791MOL0     C 6664  -0.250  11.198  -0.353 -0.4793 -0.2781 -0.5284
  791MOL0     C 6665  -0.393  11.262  -0.357  0.0259 -0.3736 -0.6511
  791MOL0     C 6666  -0.484  11.215  -0.239  0.1467  0.3917 -0.9463
  791MOL0     N 6667  -0.451  11.256  -0.102 -0.3459  0.8116 -0.2926
  791MOL0     C 6668  -0.383  11.178  -0.008  0.1420 -0.2478 -0.7679
  791MOL0     C 6669  -0.323  11.268   0.075  1.3705  0.7024  0.4197
  791MOL0     C 6670  -0.224  11.228   0.176 -0.5801  0.0485 -0.0034
  791MOL0     C 6671  -0.282  11.253   0.323 -0.5337  1.3889  0.2314
  791MOL0     C 6672  -0.249  11.390   0.365  0.1346 -0.5694 -0.1396
  791MOL0     C 6673  -0.299  11.420   0.510 -1.1239 -0.7210 -0.0962
  791MOL0     O 6674  -0.435  11.477   0.504  0.0938  0.5569 -0.3125
  791MOL0     C 6675  -0.500  11.518   0.620  0.3672 -0.5028  0.1411
  791MOL0     C 6676  -0.488  11.457   0.746  0.9509 -0.6876  0.5324
  791MOL0     C 6677  -0.563  11.488   0.862  0.2630 -0.1273  0.2230
  791MOL0     C 6678  -0.555  11.394   0.978  0.3684  0.6747 -0.2346
  791MOL0     C 6679  -0.644  11.598   0.858 -0.1224 -0.4791 -0.9541
  791MOL0     C 6680  -0.724  11.643   0.977  0.5125  0.9421 -0.2511
  791MOL0     O 6681  -0.783  11.758   0.959  0.1629 -1.0695  0.4904
  791MOL0     C 6682  -0.857  11.829   1.045 -1.0032 -0.1768 -0.5399
  791MOL0     C 6683  -0.933  11.762   1.149 -0.1906 -1.3565  0.1071
  791MOL0     C 6684  -0.970  11.840   1.256  0.8702 -0.2593  0.4955
  791MOL0     C 6685  -0.952  11.981   1.260 -0.3029  0.1366 -0.5999
  791MOL0     O 6686  -1.007  12.063   1.360  0.0317 -0.3886 -0.4188
  791MOL0     C 6687  -1.057  12.019   1.487 -0.2848  0.2684 -0.9534
  791MOL0     C 6688  -0.934  11.975   1.577 -0.3501 -1.6214  0.1317
  791MOL0     C 6689  -0.829  12.081   1.572  0.6032 -0.3314 -0.2697
  791MOL0     C 6690  -0.694  12.042   1.625  0.7103  0.2424  0.7743
  791MOL0     C 6691  -0.596  12.155   1.642  1.7414  0.6001  1.2566
  791MOL0     C 6692  -0.504  12.164   1.517 -0.1422 -0.4101 -0.2424
  791MOL0     C 6693  -0.558  12.229   1.376  0.1874  0.0112 -0.7671
  791MOL0     C 6694  -0.449  12.218   1.271 -0.0384  0.6060  0.3520
  791MOL0    Cl 6695  -0.287  12.293   1.322  0.1956  0.1963 -0.0431
  791MOL0     C 6696  -0.898  12.039   1.146 -0.0106 -0.2909  0.2635
  791MOL0     C 6697  -0.863  11.967   1.033 -1.1871  0.6410 -0.1595
  791MOL0     O 6698  -0.717  11.591   1.087  0.2258 -0.4640  0.0087
  791MOL0     C 6699  -0.659  11.669   0.738  0.0741  0.2419  0.8301
  791MOL0     C 6700  -0.594  11.627   0.614  0.5913 -0.4172 -0.2968
  791MOL0     N 6701  -0.352  11.396   0.037  0.3205 -0.9660 -0.0696
  791MOL0     N 6702  -0.432  11.387  -0.070 -0.4490  0.5039 -0.2269
  791MOL0     C 6703   0.279  11.668   0.125 -0.9558 -0.4609  0.1999
  791MOL0     C 6704   0.350  11.636   0.241 -0.4085 -0.1512  0.4457
  791MOL0     C 6705   0.452  11.412   0.643 -0.1774 -1.3045  0.5473
  791MOL0     C 6706   0.569  11.493   0.643  0.2859  0.2029  0.1866
  791MOL0     C 6707   0.667  11.472   0.739 -0.6859  0.1494  0.0552
  791MOL0     C 6708   0.662  11.364   0.830  0.6465 -0.1572  0.0141
  791MOL0     O 6709   0.760  11.326   0.923  0.2899  0.2211 -0.3431
  791MOL0     C 6710   0.888  11.301   0.864 -0.5347 -1.0111  0.3798
  791MOL0     C 6711   1.005  11.385   0.930  0.5236  0.3984  0.8728
  791MOL0     C 6712   1.146  11.333   0.910  1.3975  0.2938  1.4502
  791MOL0     C 6713   1.186  11.208   0.987  1.0068 -0.1634  0.0923
  791MOL0     C 6714   1.197  11.242   1.123 -0.9832 -0.1254 -0.1235
  791MOL0     C 6715   1.230  11.274   1.230 -0.0481 -0.4060 -0.5920
  791MOL0     C 6716   0.555  11.276   0.809  0.8314 -0.5020  0.8561
  791MOL0     C 6717   0.444  11.304   0.722 -0.4154  0.1140 -0.0088
  791MOL0     H 6718   0.093  11.523   0.437  1.0751  0.1480  1.4359
  791MOL0     H 6719  -0.032  11.541   0.224 -0.4252 -0.3574 -2.4410
  791MOL0     H 6720   0.030  11.459   0.014 -0.7757 -0.9276  0.3054
  791MOL0     H 6721  -0.107  11.566  -0.034  1.0282 -0.8842  2.6439
  791MOL0     H 6722   0.025  11.614  -0.254 -1.5776  1.7407  2.4585
  791MOL0     H 6723   0.111  11.459  -0.202 -0.3384 -0.9238 -2.1311
  791MOL0     H 6724  -0.151  11.391  -0.192  3.1125  0.0247  1.8059
  791MOL0     H 6725  -0.161  11.511  -0.332  2.6953 -0.4898 -3.7217
  791MOL0     H 6726   0.043  11.376  -0.416 -0.9447  1.5532 -0.0935
  791MOL0     H 6727   0.003  11.258  -0.302 -0.0783  0.5296  0.5779
  791MOL0     H 6728  -0.203  11.357  -0.500  0.4706  0.2884 -0.9824
  791MOL0     H 6729  -0.104  11.215  -0.525 -2.5301 -2.3502  0.2061
  791MOL0     H 6730  -0.256  11.105  -0.410  1.5542 -1.0962  0.4600
  791MOL0     H 6731  -0.217  11.181  -0.250  0.3482 -0.2419 -0.7829
  791MOL0     H 6732  -0.390  11.371  -0.353  0.6023 -0.4221  0.4378
  791MOL0     H 6733  -0.439  11.230  -0.452  1.1003 -0.7456 -1.0548
  791MOL0     H 6734  -0.502  11.107  -0.240 -3.8680  0.7518  2.4412
  791MOL0     H 6735  -0.586  11.255  -0.247 -0.9405 -2.4696 -4.1596
  791MOL0     H 6736  -0.378  11.072   0.014 -1.3739  0.0335  1.1562
  791MOL0     H 6737  -0.203  11.121   0.163 -1.5481 -0.0305 -1.0976
  791MOL0     H 6738  -0.128  11.278   0.158  0.3427 -2.4048 -2.9840
  791MOL0     H 6739  -0.228  11.189   0.394 -0.7283  2.0493  0.9951
  791MOL0     H 6740  -0.388  11.233   0.340 -0.2360 -1.7132 -0.9040
  791MOL0     H 6741  -0.303  11.463   0.303 -0.0531 -0.7750 -0.2217
  791MOL0     H 6742  -0.142  11.412   0.359  0.0700 -0.0187  0.5691
  791MOL0     H 6743  -0.224  11.491   0.545 -3.0529  1.3778  0.0428
  791MOL0     H 6744  -0.299  11.332   0.574 -1.1097 -1.0037 -0.4801
  791MOL0     H 6745  -0.424  11.372   0.767 -0.9226 -2.2811  0.0591
  791MOL0     H 6746  -0.503  11.303   0.948 -0.8315 -1.7599  4.2202
  791MOL0     H 6747  -0.495  11.442   1.056  1.1956  0.7957 -0.9307
  791MOL0     H 6748  -0.650  11.355   1.014  0.5579 -2.5540 -2.7786
  791MOL0     H 6749  -0.942  11.655   1.136  0.8570 -1.3844 -0.5073
  791MOL0     H 6750  -1.010  11.781   1.338  0.8248  0.0137  0.6700
  791MOL0     H 6751  -1.123  12.094   1.531 -0.5667 -0.5387  0.0400
  791MOL0     H 6752  -1.130  11.939   1.472  0.5012 -0.6865  0.1936
  791MOL0     H 6753  -0.958  11.975   1.684  0.1038 -1.3778  0.2365
  791MOL0     H 6754  -0.894  11.881   1.537  1.0978 -1.3501  0.8722
  791MOL0     H 6755  -0.869  12.169   1.622 -1.3804 -0.4301 -1.5459
  791MOL0     H 6756  -0.811  12.106   1.466 -0.4601 -1.5841 -0.7686
  791MOL0     H 6757  -0.690  11.986   1.719  1.5855 -0.0009  0.6032
  791MOL0     H 6758  -0.655  11.968   1.554 -1.0438  0.3847 -0.3895
  791MOL0     H 6759  -0.542  12.150   1.736  0.9293  0.9738  1.7537
  791MOL0     H 6760  -0.652  12.249   1.639  1.6394  0.5275  0.7773
  791MOL0     H 6761  -0.418  12.225   1.547  1.4664 -3.0103  0.8751
  791MOL0     H 6762  -0.466  12.066   1.485 -0.5054 -1.4895  2.4080
  791MOL0     H 6763  -0.591  12.332   1.387 -0.0517 -0.1175 -0.2688
  791MOL0     H 6764  -0.646  12.172   1.345  0.7691 -0.8529 -0.9031
  791MOL0     H 6765  -0.477  12.283   1.187  3.1412  1.1484 -0.4347
  791MOL0     H 6766  -0.449  12.116   1.231 -1.2198  0.5583  0.4262
  791MOL0     H 6767  -0.891  12.147   1.147  1.3764 -0.2251 -3.3946
  791MOL0     H 6768  -0.810  12.005   0.946  0.2125 -1.2398 -0.1957
  791MOL0     H 6769  -0.716  11.760   0.726  0.6180  0.3427 -1.5705
  791MOL0     H 6770  -0.620  11.668   0.517 -0.3360  0.0296  0.1298
  791MOL0     H 6771   0.329  11.717   0.043 -0.1606 -0.2716  0.7863
  791MOL0     H 6772   0.458  11.643   0.252 -0.1408  0.7842 -2.2273
  791MOL0     H 6773   0.567  11.583   0.582 -1.2302 -1.1845 -1.9458
  791MOL0     H 6774   0.751  11.541   0.746  0.3195 -1.1343  1.4474
  791MOL0     H 6775   0.905  11.195   0.881  1.7084 -0.8341 -0.3409
  791MOL0     H 6776   0.897  11.332   0.759  2.9924  4.9046  1.9237
  791MOL0     H 6777   1.000  11.386   1.039  1.2545  1.2605  0.9115
  791MOL0     H 6778   0.995  11.487   0.890 -1.2033  0.4204  1.3017
  791MOL0     H 6779   1.221  11.407   0.943  1.3553 -0.1594  2.6126
  791MOL0     H 6780   1.165  11.308   0.805 -1.0595  2.9566  0.2168
  791MOL0     H 6781   1.280  11.173   0.944  0.8821 -2.0790  1.2697
  791MOL0     H 6782   1.111  11.129   0.977  1.3781 -0.3255 -1.8790
  791MOL0     H 6783   1.244  11.290   1.335  0.1689  1.2008 -0.8419
  791MOL0     H 6784   0.547  11.201   0.888  0.4032  1.5156  2.8310
  791MOL0     H 6785   0.367  11.228   0.720  0.1364 -0.4453 -1.2763
  792MOL0     O 6786  11.122   6.687  11.088 -0.5222 -0.0575  0.0306
  792MOL0     C 6787  11.086   6.664  10.974  0.0911  0.2285  0.3270
  792MOL0     O 6788  11.158   6.593  10.872  0.2931  0.1101 -1.0549
  792MOL0     C 6789  11.283   6.538  10.907  1.0684  0.0394  0.3387
  792MOL0     C 6790  11.311   6.475  11.030 -0.0932  0.3384 -0.3321
  792MOL0     C 6791  11.437   6.417  11.047  0.1415  0.3200 -0.1337
  792MOL0     C 6792  11.536   6.420  10.950  0.5338 -0.1471 -0.1359
  792MOL0     O 6793  11.646   6.348  10.990 -0.6964 -0.0471 -0.2849
  792MOL0     C 6794  11.766   6.348  10.898 -0.4223  1.0452 -1.0114
  792MOL0     C 6795  11.750   6.232  10.807  0.1128  0.1834  0.2993
  792MOL0     C 6796  11.867   6.222  10.706 -0.2899 -0.1967  0.2911
  792MOL0     C 6797  11.803   6.159  10.581 -0.0477  0.6850 -0.3385
  792MOL0     C 6798  11.901   6.104  10.472 -0.8097 -0.0884  0.8478
  792MOL0     C 6799  11.976   6.215  10.397  1.1067  0.3277  0.9303
  792MOL0     C 6800  12.083   6.148  10.317 -0.8948  0.9626 -0.8962
  792MOL0     C 6801  12.034   6.088  10.179 -1.0084 -0.4042 -0.4028
  792MOL0     N 6802  12.040   6.185  10.065 -0.2324 -0.4534  0.7795
  792MOL0     C 6803  11.937   6.266  10.007  0.4807 -0.4250  0.2822
  792MOL0     C 6804  11.995   6.362   9.928  0.2305 -0.1183 -0.2356
  792MOL0     C 6805  11.939   6.483   9.857 -0.0235  0.3855  0.2655
  792MOL0     C 6806  11.980   6.469   9.712 -0.3750  0.1647  1.3907
  792MOL0     C 6807  12.063   6.590   9.666  1.1149  1.3806 -0.1711
  792MOL0     C 6808  11.986   6.725   9.661  0.1282  0.3059 -1.2887
  792MOL0     O 6809  12.088   6.818   9.628  0.0461  0.1423 -0.5222
  792MOL0     C 6810  12.068   6.950   9.635  0.2669  0.4195  0.9980
  792MOL0     C 6811  11.941   7.005   9.673  0.1491 -0.0460 -0.2257
  792MOL0     C 6812  11.926   7.143   9.688  1.0489  0.9436  1.0416
  792MOL0     C 6813  11.795   7.199   9.728 -0.1497 -0.2049  0.3918
  792MOL0     C 6814  12.026   7.224   9.636 -0.6182 -0.1353 -0.1498
  792MOL0     C 6815  12.022   7.370   9.630  0.9113 -0.3224 -1.4579
  792MOL0     O 6816  11.994   7.434   9.514 -0.4824  0.3628  0.8104
  792MOL0     C 6817  11.984   7.573   9.506  0.5939  0.6392  1.0424
  792MOL0     C 6818  11.895   7.644   9.594 -0.4568  0.4698 -0.2552
  792MOL0     C 6819  11.876   7.781   9.591 -1.0034 -0.5605 -1.1304
  792MOL0     C 6820  11.949   7.855   9.495 -0.5518 -0.8708  0.2264
  792MOL0     O 6821  11.951   7.995   9.479  0.3220  0.1006 -0.3518
  792MOL0     C 6822  11.895   8.090   9.570  0.0875  0.2211  0.1077
  792MOL0     C 6823  12.011   8.157   9.664  0.3114  0.2816  0.0463
  792MOL0     C 6824  12.105   8.238   9.582  0.3569  0.6513  0.5534
  792MOL0     C 6825  12.249   8.252   9.651  0.1562  0.1669 -0.4263
  792MOL0     C 6826  12.343   8.326   9.560  0.4791 -0.9142  0.3254
  792MOL0     C 6827  12.501   8.336   9.612  0.3230  0.3804  0.7559
  792MOL0     C 6828  12.518   8.406   9.748  0.0118  0.0969 -1.3766
  792MOL0     C 6829  12.530   8.306   9.872  0.5891  0.0615  0.4128
  792MOL0    Cl 6830  12.543   8.415  10.012  0.3872 -0.0775 -0.0667
  792MOL0     C 6831  12.036   7.788   9.409  0.9828  0.9074  0.7240
  792MOL0     C 6832  12.060   7.653   9.418 -1.1469  0.0179 -0.3023
  792MOL0     O 6833  12.036   7.429   9.742  0.5108  0.0023  1.0049
  792MOL0     C 6834  12.148   7.163   9.599  1.0535  0.3674 -0.3067
  792MOL0     C 6835  12.175   7.032   9.602 -0.3164 -0.4664 -0.5486
  792MOL0     N 6836  12.126   6.326   9.920  0.4775  0.0722 -0.3436
  792MOL0     N 6837  12.151   6.217   9.999  0.1157 -0.1551  0.4206
  792MOL0     C 6838  11.514   6.490  10.831  0.2234  0.1189 -0.5055
  792MOL0     C 6839  11.390   6.552  10.817  0.2862 -0.9569  0.1615
  792MOL0     C 6840  10.960   6.726  10.917  0.9054 -0.4880  0.2598
  792MOL0     C 6841  10.921   6.689  10.789  0.9469  0.4203 -0.2160
  792MOL0     C 6842  10.815   6.754  10.731  0.2930 -0.9868 -0.1291
  792MOL0     C 6843  10.738   6.845  10.810  0.9374  1.6219 -0.4686
  792MOL0     O 6844  10.635   6.895  10.743  0.3355 -0.1955  0.4376
  792MOL0     C 6845  10.587   7.024  10.752 -0.3406 -0.0404 -0.5944
  792MOL0     C 6846  10.688   7.135  10.726  0.5243 -0.0392 -0.5068
  792MOL0     C 6847  10.629   7.271  10.761 -0.4533 -0.2503 -0.7826
  792MOL0     C 6848  10.720   7.342  10.861 -0.5492 -0.8869  0.3501
  792MOL0     C 6849  10.850   7.387  10.801 -0.1588  0.2993  0.8827
  792MOL0     C 6850  10.951   7.422  10.737  0.0268  0.1275  0.0302
  792MOL0     C 6851  10.771   6.878  10.942 -0.6842 -0.1840  0.6545
  792MOL0     C 6852  10.882   6.815  10.998  0.2604  0.2168  1.0799
  792MOL0     H 6853  11.230   6.462  11.102  2.7237 -0.7507  2.9456
  792MOL0     H 6854  11.469   6.369  11.139  2.8247 -1.6668 -1.9486
  792MOL0     H 6855  11.776   6.438  10.836  0.0687  1.1660 -0.7641
  792MOL0     H 6856  11.849   6.348  10.969 -2.6393  0.5889  1.7873
  792MOL0     H 6857  11.722   6.145  10.867  2.9067  0.2897  1.9192
  792MOL0     H 6858  11.658   6.257  10.753  1.5388  4.4541 -0.5773
  792MOL0     H 6859  11.891   6.326  10.684 -0.9609 -0.3576 -1.2964
  792MOL0     H 6860  11.955   6.166  10.740 -0.3419 -0.4506  0.0085
  792MOL0     H 6861  11.747   6.072  10.619  2.0693 -0.7252 -0.2860
  792MOL0     H 6862  11.735   6.229  10.532  2.9642  2.6250 -2.0089
  792MOL0     H 6863  11.969   6.035  10.523  1.8347  1.7897  0.0715
  792MOL0     H 6864  11.850   6.051  10.392 -1.4332  0.9966  0.5018
  792MOL0     H 6865  11.913   6.278  10.333  1.4175 -1.4652 -1.2648
  792MOL0     H 6866  12.026   6.260  10.484  0.6352  2.2985  0.2382
  792MOL0     H 6867  12.162   6.221  10.297 -0.0945  0.4218  0.1989
  792MOL0     H 6868  12.132   6.068  10.373  1.2440  3.9253  1.8384
  792MOL0     H 6869  11.936   6.041  10.191 -2.0589  1.1222 -2.3868
  792MOL0     H 6870  12.096   6.002  10.155 -0.2344 -0.1377  0.5695
  792MOL0     H 6871  11.838   6.274  10.050  1.0953  1.8417  1.4306
  792MOL0     H 6872  11.831   6.497   9.859 -0.1285  0.1787 -1.7648
  792MOL0     H 6873  11.983   6.572   9.901 -0.5564 -0.0422  1.7110
  792MOL0     H 6874  11.899   6.443   9.642  2.2657 -2.8905 -0.8688
  792MOL0     H 6875  12.049   6.384   9.703 -1.0974 -0.3061 -0.1184
  792MOL0     H 6876  12.096   6.580   9.563  1.2130 -0.8780  0.0347
  792MOL0     H 6877  12.146   6.590   9.738  1.4768 -2.3591 -0.3939
  792MOL0     H 6878  11.925   6.743   9.750  3.1790  0.3740  0.9525
  792MOL0     H 6879  11.923   6.722   9.571  0.7415  1.8838 -1.8009
  792MOL0     H 6880  11.855   6.940   9.685 -3.2145  4.4759  3.9680
  792MOL0     H 6881  11.736   7.213   9.637 -1.6608  2.6880  1.6629
  792MOL0     H 6882  11.738   7.119   9.776 -0.6501 -2.2701 -3.2399
  792MOL0     H 6883  11.816   7.290   9.784  0.2686  2.0035 -3.0446
  792MOL0     H 6884  11.847   7.596   9.679 -0.4171 -1.1560 -1.1098
  792MOL0     H 6885  11.805   7.823   9.661 -3.0986  0.0381 -3.5079
  792MOL0     H 6886  11.854   8.171   9.509 -0.1244 -1.0726 -1.5546
  792MOL0     H 6887  11.816   8.048   9.632 -0.6709  0.7799 -0.4608
  792MOL0     H 6888  11.969   8.233   9.730  0.1876  0.7202 -0.5224
  792MOL0     H 6889  12.059   8.089   9.735  2.2515  1.3066 -0.2177
  792MOL0     H 6890  12.071   8.340   9.568  0.1584  0.4765 -0.2564
  792MOL0     H 6891  12.114   8.188   9.485  0.9100  0.6867  0.5803
  792MOL0     H 6892  12.252   8.308   9.745  0.4036 -1.7499  0.7698
  792MOL0     H 6893  12.282   8.150   9.671 -1.3379 -0.1351  0.6391
  792MOL0     H 6894  12.295   8.424   9.561 -2.9161 -2.4512  1.4863
  792MOL0     H 6895  12.342   8.285   9.458  2.9301  0.0654 -0.1601
  792MOL0     H 6896  12.545   8.237   9.621 -0.4145  0.0318  0.6221
  792MOL0     H 6897  12.561   8.396   9.543  1.4143  0.2743  1.5827
  792MOL0     H 6898  12.426   8.462   9.766 -0.5232 -1.4774  1.3221
  792MOL0     H 6899  12.607   8.469   9.746 -1.7494  2.8022 -0.4262
  792MOL0     H 6900  12.622   8.246   9.862  1.1601  1.1188 -1.0362
  792MOL0     H 6901  12.440   8.244   9.875 -1.4414  2.8211  0.0194
  792MOL0     H 6902  12.083   7.848   9.332  0.8945 -1.6803 -1.4897
  792MOL0     H 6903  12.137   7.613   9.352 -0.1181  0.5864  0.5344
  792MOL0     H 6904  12.235   7.225   9.577  0.9724  1.3335  1.8789
  792MOL0     H 6905  12.270   6.982   9.588  1.7068  2.4436  1.7337
  792MOL0     H 6906  11.587   6.483  10.751  1.0526 -1.6338  0.3336
  792MOL0     H 6907  11.366   6.603  10.725 -2.3363  0.9925  1.8025
  792MOL0     H 6908  10.972   6.610  10.735 -0.1901  0.3651 -1.2508
  792MOL0     H 6909  10.791   6.736  10.627  2.3554  1.4091 -1.1101
  792MOL0     H 6910  10.513   7.043  10.675  2.4510  0.2802 -3.4238
  792MOL0     H 6911  10.550   7.029  10.855  4.4176 -5.5614  1.9766
  792MOL0     H 6912  10.710   7.141  10.620  1.0097 -0.2470 -0.4216
  792MOL0     H 6913  10.781   7.120  10.782  2.0001  1.9624 -2.2987
  792MOL0     H 6914  10.526   7.262  10.796 -1.5456  0.4880 -3.4794
  792MOL0     H 6915  10.617   7.338  10.674  1.6783  3.3148  1.4003
  792MOL0     H 6916  10.733   7.271  10.943 -1.8151 -1.1979  0.3115
  792MOL0     H 6917  10.667   7.430  10.901  4.2487  0.6346  4.3254
  792MOL0     H 6918  11.038   7.447  10.679  0.4181  0.1970  0.6307
  792MOL0     H 6919  10.723   6.965  10.987 -1.2200  0.9488 -1.9275
  792MOL0     H 6920  10.916   6.843  11.097 -3.1384 -1.4121  2.8715
  793MOL0     O 6921   9.953   4.229   0.445  0.5590  0.0225  0.0430
  793MOL0     C 6922   9.975   4.327   0.519 -0.7316 -0.3875  0.4787
  793MOL0     O 6923  10.002   4.319   0.653  0.4078  0.3398 -0.4043
  793MOL0     C 6924  10.012   4.185   0.707  0.3223 -0.0092 -1.4464
  793MOL0     C 6925   9.913   4.090   0.703  0.3650  0.3118  0.0577
  793MOL0     C 6926   9.912   3.972   0.775  0.8938  0.7186 -0.3013
  793MOL0     C 6927  10.022   3.943   0.859 -0.4122 -0.4531 -0.3232
  793MOL0     O 6928  10.025   3.824   0.926  0.5362 -0.4515 -1.0323
  793MOL0     C 6929  10.032   3.824   1.069 -0.1698  0.0298 -0.4462
  793MOL0     C 6930  10.126   3.719   1.129 -0.3632  1.4007 -0.4456
  793MOL0     C 6931  10.271   3.767   1.130 -0.0628  0.0863  0.4131
  793MOL0     C 6932  10.351   3.690   1.227 -0.1053 -0.1038  0.2750
  793MOL0     C 6933  10.476   3.768   1.278 -0.3744 -0.9031  0.3289
  793MOL0     C 6934  10.569   3.719   1.383 -0.0538 -0.5388 -0.5690
  793MOL0     C 6935  10.499   3.696   1.524 -0.0627 -1.0616  0.1173
  793MOL0     C 6936  10.527   3.821   1.607  0.6342  0.8291 -1.5366
  793MOL0     N 6937  10.660   3.846   1.647 -0.5040 -0.2708  0.4772
  793MOL0     C 6938  10.706   3.808   1.770 -0.1355  0.7510  0.0064
  793MOL0     C 6939  10.824   3.881   1.788 -0.4840 -0.7617  0.1248
  793MOL0     C 6940  10.917   3.886   1.901 -0.2407 -1.2005 -0.9465
  793MOL0     C 6941  10.987   3.748   1.901 -0.7423 -0.3261  0.4590
  793MOL0     C 6942  11.113   3.744   1.830 -1.3252 -0.5150  0.0805
  793MOL0     C 6943  11.222   3.809   1.919 -0.5524  0.0227 -0.0144
  793MOL0     O 6944  11.283   3.701   1.998  0.2246 -0.7402  0.1475
  793MOL0     C 6945  11.399   3.729   2.061 -0.0035  1.0118 -0.4413
  793MOL0     C 6946  11.463   3.623   2.138  0.2554 -0.2748 -0.1126
  793MOL0     C 6947  11.585   3.632   2.203  0.2427  0.5993 -0.7554
  793MOL0     C 6948  11.638   3.507   2.284  0.3009  0.4588  0.7114
  793MOL0     C 6949  11.658   3.756   2.203  0.1020  0.4632  0.0981
  793MOL0     C 6950  11.797   3.781   2.260  0.4243 -0.1527 -0.9118
  793MOL0     O 6951  11.819   3.905   2.310  0.9123  0.3226 -0.7338
  793MOL0     C 6952  11.937   3.926   2.380  0.3694  0.2060 -0.1824
  793MOL0     C 6953  11.940   3.931   2.521  0.0959 -0.1359  0.0331
  793MOL0     C 6954  12.046   3.968   2.598 -0.7824  0.0866 -0.4482
  793MOL0     C 6955  12.167   4.006   2.532  0.3990  0.0531  0.0146
  793MOL0     O 6956  12.287   4.025   2.593  0.3999  0.2943  0.1649
  793MOL0     C 6957  12.282   4.141   2.677 -0.2779  0.4245  0.1102
  793MOL0     C 6958  12.429   4.172   2.726 -0.6017 -0.3957  0.2976
  793MOL0     C 6959  12.436   4.313   2.760  0.2918 -0.5284 -0.1726
  793MOL0     C 6960  12.586   4.356   2.776  0.5847  0.1874 -0.2157
  793MOL0     C 6961  12.594   4.479   2.861 -0.3396  0.1371  0.4206
  793MOL0     C 6962  12.589   4.620   2.791 -0.5940 -0.1087 -0.0940
  793MOL0     C 6963  12.634   4.739   2.889 -0.0765  0.1316 -0.2151
  793MOL0     C 6964  12.584   4.872   2.849  0.2431  0.0977  1.1777
  793MOL0    Cl 6965  12.606   4.990   2.964 -0.1885  0.4638 -0.1497
  793MOL0     C 6966  12.167   4.006   2.394 -0.3037 -1.9225  0.3269
  793MOL0     C 6967  12.053   3.974   2.321 -0.1535  0.7714 -0.5985
  793MOL0     O 6968  11.880   3.697   2.255 -0.3670 -0.0233 -0.3701
  793MOL0     C 6969  11.601   3.863   2.136  0.0929 -0.1977 -0.4395
  793MOL0     C 6970  11.475   3.846   2.060 -0.2023 -0.5764 -0.8758
  793MOL0     N 6971  10.848   3.959   1.678  0.4044 -0.0561 -0.2888
  793MOL0     N 6972  10.749   3.935   1.595  0.2687  0.8018  0.0548
  793MOL0     C 6973  10.126   4.037   0.864  0.0216  0.7990 -0.5552
  793MOL0     C 6974  10.116   4.155   0.799  0.5477 -0.5585  0.4168
  793MOL0     C 6975   9.973   4.475   0.474 -0.7351 -1.3037  1.5174
  793MOL0     C 6976   9.936   4.504   0.340  0.1030  0.2770 -0.0786
  793MOL0     C 6977   9.913   4.632   0.290 -0.1466 -0.0128 -0.2547
  793MOL0     C 6978   9.907   4.739   0.388  0.5470  0.2625 -0.7686
  793MOL0     O 6979   9.852   4.856   0.341 -0.3914  0.8374  0.1730
  793MOL0     C 6980   9.886   4.983   0.388 -0.7031 -0.8939 -0.3833
  793MOL0     C 6981   9.778   5.091   0.350  0.1188 -0.0007 -0.4262
  793MOL0     C 6982   9.837   5.174   0.238 -0.0775 -0.5721  0.3674
  793MOL0     C 6983   9.735   5.293   0.200  0.0568 -0.7666 -0.7857
  793MOL0     C 6984   9.712   5.384   0.302  0.9107 -0.4155 -0.3519
  793MOL0     C 6985   9.682   5.463   0.390  0.2309  0.7108  0.5946
  793MOL0     C 6986   9.944   4.707   0.522  0.9009 -0.3621 -0.5397
  793MOL0     C 6987   9.972   4.584   0.567  0.1287 -0.4228 -0.5573
  793MOL0     H 6988   9.822   4.112   0.648  0.7478 -1.5343 -1.4439
  793MOL0     H 6989   9.828   3.902   0.777 -0.6457  2.4617  2.4007
  793MOL0     H 6990  10.059   3.923   1.107 -2.3023  0.0647  1.2184
  793MOL0     H 6991   9.929   3.797   1.097  0.1828 -0.0635  0.8174
  793MOL0     H 6992  10.084   3.681   1.223  0.6913 -0.8886 -0.8139
  793MOL0     H 6993  10.120   3.627   1.070 -1.4777  0.8720  0.4648
  793MOL0     H 6994  10.319   3.759   1.031 -1.6919  3.9310 -0.8919
  793MOL0     H 6995  10.277   3.875   1.148 -0.1046  1.1623 -4.4383
  793MOL0     H 6996  10.296   3.659   1.317  0.2024  2.9003  1.5979
  793MOL0     H 6997  10.391   3.599   1.181  0.0951  1.7878 -3.6878
  793MOL0     H 6998  10.535   3.777   1.186  0.0417 -0.2890  0.6516
  793MOL0     H 6999  10.445   3.866   1.315  0.7427 -0.6559  0.6449
  793MOL0     H 7000  10.626   3.630   1.355  1.2331 -0.3112  1.1598
  793MOL0     H 7001  10.651   3.792   1.386 -1.2164  0.9539 -2.5540
  793MOL0     H 7002  10.394   3.668   1.515 -0.0838 -1.2395  0.8217
  793MOL0     H 7003  10.539   3.615   1.586  0.6396 -0.4430  0.4898
  793MOL0     H 7004  10.464   3.809   1.696 -0.8625  0.3071 -2.6160
  793MOL0     H 7005  10.473   3.905   1.562 -1.3793  1.1681  1.2274
  793MOL0     H 7006  10.655   3.743   1.840  3.6987 -2.1111  0.5218
  793MOL0     H 7007  10.982   3.973   1.900 -0.2071 -1.2150 -0.2313
  793MOL0     H 7008  10.860   3.886   1.994  3.0375  1.8181  1.3083
  793MOL0     H 7009  10.930   3.673   1.846 -0.9151 -0.7772  1.2489
  793MOL0     H 7010  11.001   3.719   2.005 -0.0509 -5.1013 -0.7519
  793MOL0     H 7011  11.087   3.791   1.734  1.2126 -1.2481 -1.0425
  793MOL0     H 7012  11.151   3.646   1.802  0.9213  0.2880  0.1199
  793MOL0     H 7013  11.175   3.879   1.989 -1.4797 -0.5418 -0.0582
  793MOL0     H 7014  11.295   3.860   1.856 -0.2659 -0.9966 -0.5340
  793MOL0     H 7015  11.417   3.525   2.140 -2.8464  1.0934  0.6013
  793MOL0     H 7016  11.747   3.513   2.289  0.2594  1.2941  0.7379
  793MOL0     H 7017  11.596   3.500   2.385  0.2978  1.2743  0.7686
  793MOL0     H 7018  11.597   3.422   2.229 -2.9654  2.2327  0.1498
  793MOL0     H 7019  11.845   3.907   2.569 -0.1141 -4.5771 -2.0942
  793MOL0     H 7020  12.032   3.988   2.703 -3.7670 -2.6693 -0.1743
  793MOL0     H 7021  12.246   4.220   2.611 -0.2994 -0.1590 -0.5903
  793MOL0     H 7022  12.208   4.124   2.756 -1.8665 -2.5444 -1.8160
  793MOL0     H 7023  12.448   4.119   2.820  1.0516 -0.9242 -0.2982
  793MOL0     H 7024  12.495   4.140   2.646 -1.1193 -0.8011  0.0253
  793MOL0     H 7025  12.378   4.345   2.847 -0.6486  1.4610 -1.4499
  793MOL0     H 7026  12.409   4.383   2.680  2.2234  3.1671  2.1061
  793MOL0     H 7027  12.638   4.284   2.840 -3.5466 -2.4419  0.5702
  793MOL0     H 7028  12.639   4.366   2.681 -0.8745 -0.7439 -1.1743
  793MOL0     H 7029  12.689   4.476   2.915 -0.8231  2.2139  1.4715
  793MOL0     H 7030  12.519   4.472   2.941  2.5810 -0.7208  3.3082
  793MOL0     H 7031  12.645   4.618   2.697 -0.1158 -0.6963  0.1965
  793MOL0     H 7032  12.481   4.623   2.777 -0.9835 -2.8654  1.5680
  793MOL0     H 7033  12.743   4.740   2.900 -0.1870 -3.6883  4.1950
  793MOL0     H 7034  12.600   4.722   2.992 -1.2171  4.3883  0.2968
  793MOL0     H 7035  12.475   4.867   2.840  0.1181 -1.6629  2.8785
  793MOL0     H 7036  12.632   4.892   2.753  1.1086  0.1526  1.6144
  793MOL0     H 7037  12.256   4.038   2.342  0.3732 -2.3827  1.1834
  793MOL0     H 7038  12.052   3.997   2.215 -2.1399 -1.6424 -1.1860
  793MOL0     H 7039  11.640   3.964   2.134 -1.8467  0.5822 -2.3062
  793MOL0     H 7040  11.447   3.943   2.020  0.0676 -0.1614 -0.0769
  793MOL0     H 7041  10.210   4.026   0.933 -1.9762  2.0085  2.2649
  793MOL0     H 7042  10.174   4.244   0.820 -0.3682 -0.3006  2.0724
  793MOL0     H 7043   9.931   4.418   0.274  1.2921 -0.4453  0.7282
  793MOL0     H 7044   9.875   4.653   0.191  0.0387 -0.7858 -0.4940
  793MOL0     H 7045   9.900   4.979   0.497 -0.1397  6.3276  0.2696
  793MOL0     H 7046   9.977   5.017   0.338 -0.3332 -0.7664  0.3545
  793MOL0     H 7047   9.754   5.158   0.433  0.9855  0.7014 -0.7195
  793MOL0     H 7048   9.685   5.043   0.319 -1.6241  2.1411  1.1380
  793MOL0     H 7049   9.852   5.111   0.150  2.1726  0.8055 -0.3277
  793MOL0     H 7050   9.936   5.214   0.261 -0.7922  1.4937  0.1469
  793MOL0     H 7051   9.636   5.265   0.161 -1.7451 -0.0338  2.8522
  793MOL0     H 7052   9.793   5.354   0.130  1.0585  0.5101  1.0827
  793MOL0     H 7053   9.669   5.517   0.481 -3.7772 -1.5212  1.5880
  793MOL0     H 7054   9.945   4.789   0.592 -3.6991 -0.1162 -0.4803
  793MOL0     H 7055   9.992   4.581   0.674  2.8222 -1.9118 -1.0176
  794MOL0     O 7056   0.157   6.031  10.168 -0.0175  0.5045 -0.5330
  794MOL0     C 7057   0.047   5.998  10.125 -0.1746 -1.2538  0.8777
  794MOL0     O 7058  -0.068   6.080  10.131  0.0453 -0.2962  0.7495
  794MOL0     C 7059  -0.091   6.174  10.227  0.2489  0.0231 -0.6361
  794MOL0     C 7060  -0.175   6.272  10.192 -0.2001 -0.4062  1.1430
  794MOL0     C 7061  -0.217   6.369  10.281  0.2275  0.0267  0.4484
  794MOL0     C 7062  -0.168   6.367  10.410 -0.2311  0.0209  0.5259
  794MOL0     O 7063  -0.216   6.459  10.497  0.3265 -0.9516  0.3087
  794MOL0     C 7064  -0.343   6.523  10.497 -0.2654 -0.2992  0.3016
  794MOL0     C 7065  -0.336   6.660  10.434  0.1633  0.1495 -1.0051
  794MOL0     C 7066  -0.441   6.753  10.489 -0.0966  0.0138 -0.8532
  794MOL0     C 7067  -0.442   6.894  10.433  0.4077 -0.0231  1.0564
  794MOL0     C 7068  -0.568   6.975  10.477 -1.1417  0.4863 -0.0084
  794MOL0     C 7069  -0.590   7.094  10.391  0.0718 -0.6426  0.1502
  794MOL0     C 7070  -0.476   7.191  10.399  0.0803 -0.2532  0.3107
  794MOL0     C 7071  -0.483   7.295  10.291  0.0367 -1.3650  0.0520
  794MOL0     N 7072  -0.592   7.394  10.316  0.3478  0.5653  0.0352
  794MOL0     C 7073  -0.591   7.508  10.390 -0.3885  0.2702  0.2885
  794MOL0     C 7074  -0.717   7.552  10.403  0.4866 -0.4202 -0.5342
  794MOL0     C 7075  -0.760   7.676  10.489 -0.9452  0.7401  0.4886
  794MOL0     C 7076  -0.749   7.808  10.410  0.3459  0.0836  0.3982
  794MOL0     C 7077  -0.810   7.927  10.472 -0.4691 -0.5882  0.0271
  794MOL0     C 7078  -0.785   8.060  10.392 -0.9907 -0.9875 -0.0540
  794MOL0     O 7079  -0.654   8.093  10.348 -0.5938  0.3047 -0.6504
  794MOL0     C 7080  -0.560   8.103  10.445  0.2360 -0.1263 -0.1424
  794MOL0     C 7081  -0.579   8.196  10.556 -0.7109  0.8699  0.4230
  794MOL0     C 7082  -0.479   8.214  10.653 -0.2079  0.6515 -0.9367
  794MOL0     C 7083  -0.513   8.316  10.764 -0.4658  0.8048  0.8111
  794MOL0     C 7084  -0.363   8.141  10.640  0.3312 -0.4367 -0.5442
  794MOL0     C 7085  -0.247   8.172  10.720 -0.2358  0.5931  0.5649
  794MOL0     O 7086  -0.170   8.066  10.730 -0.8776  0.2999  1.2684
  794MOL0     C 7087  -0.060   8.076  10.814  0.4541  0.0971 -0.3532
  794MOL0     C 7088  -0.078   8.122  10.942 -0.7032 -0.0589 -0.8265
  794MOL0     C 7089   0.029   8.138  11.034  0.2306  0.9057 -0.6843
  794MOL0     C 7090   0.161   8.128  10.997 -0.4049  0.2283  0.7722
  794MOL0     O 7091   0.249   8.166  11.097 -0.2662 -0.4841  0.1282
  794MOL0     C 7092   0.386   8.127  11.083 -0.6530 -0.2080  1.1473
  794MOL0     C 7093   0.472   8.173  11.203  0.6806 -0.0579 -0.3865
  794MOL0     C 7094   0.510   8.320  11.191 -0.4282  0.4171  0.8774
  794MOL0     C 7095   0.553   8.392  11.319 -0.5965 -0.1824  0.2130
  794MOL0     C 7096   0.439   8.404  11.419  0.9964 -0.0569  0.5465
  794MOL0     C 7097   0.507   8.473  11.539  0.2328 -0.8997 -0.6609
  794MOL0     C 7098   0.409   8.490  11.656  0.8491  0.5427  0.7936
  794MOL0     C 7099   0.446   8.586  11.761  0.2838  0.2869 -0.6542
  794MOL0    Cl 7100   0.554   8.496  11.882 -0.1330 -0.0337  0.4388
  794MOL0     C 7101   0.185   8.087  10.861  0.4022 -0.1508  0.4586
  794MOL0     C 7102   0.076   8.061  10.776  0.7392 -0.5111  0.6753
  794MOL0     O 7103  -0.209   8.287  10.745 -0.0588  0.9136  0.1942
  794MOL0     C 7104  -0.354   8.042  10.544  0.0765  0.0716 -0.0090
  794MOL0     C 7105  -0.452   8.022  10.448 -0.0349 -0.5394 -0.2082
  794MOL0     N 7106  -0.794   7.472  10.319 -0.1925 -0.0846  0.2301
  794MOL0     N 7107  -0.717   7.375  10.270  0.5852 -0.1051  0.1006
  794MOL0     C 7108  -0.094   6.261  10.451 -0.6414 -0.4911 -0.7879
  794MOL0     C 7109  -0.050   6.160  10.361 -0.9749 -0.4405  0.4908
  794MOL0     C 7110   0.050   5.872  10.047 -0.5897 -0.4427 -0.4240
  794MOL0     C 7111   0.134   5.767  10.090 -0.1851 -0.2687  0.1511
  794MOL0     C 7112   0.156   5.666  10.004 -0.3215  1.0582 -0.0660
  794MOL0     C 7113   0.104   5.663   9.871  0.8046 -0.4466 -1.2071
  794MOL0     O 7114   0.149   5.564   9.790  0.9668  0.3701  0.0681
  794MOL0     C 7115   0.068   5.528   9.680  0.3149 -0.2050  0.4155
  794MOL0     C 7116   0.080   5.374   9.668 -0.5163 -0.2671  0.3415
  794MOL0     C 7117  -0.046   5.320   9.599  0.1526  0.7221  0.9559
  794MOL0     C 7118  -0.037   5.307   9.442  0.4292 -0.4833 -0.6729
  794MOL0     C 7119   0.068   5.215   9.400  0.8107 -0.5810  0.1941
  794MOL0     C 7120   0.150   5.132   9.363 -0.1194 -0.3861  0.2623
  794MOL0     C 7121   0.017   5.766   9.843  0.2321 -0.4140  0.7542
  794MOL0     C 7122  -0.021   5.864   9.932 -0.3910  0.7430  0.6642
  794MOL0     H 7123  -0.216   6.273  10.092  0.8521 -1.8100  0.6746
  794MOL0     H 7124  -0.300   6.438  10.271 -1.8613 -2.3347  0.5506
  794MOL0     H 7125  -0.435   6.470  10.469 -0.9536  1.2311 -0.4342
  794MOL0     H 7126  -0.369   6.525  10.603 -2.3859 -0.8990 -0.1647
  794MOL0     H 7127  -0.238   6.700  10.460  0.6182 -0.4135 -1.8323
  794MOL0     H 7128  -0.357   6.667  10.327 -0.5690  0.5896 -0.8408
  794MOL0     H 7129  -0.539   6.715  10.457 -0.0557  0.4465 -1.5067
  794MOL0     H 7130  -0.430   6.755  10.598 -1.9673 -0.7608 -0.6051
  794MOL0     H 7131  -0.353   6.945  10.471  1.0344  2.2740 -2.9633
  794MOL0     H 7132  -0.429   6.902  10.325 -0.5359  2.0130  1.0412
  794MOL0     H 7133  -0.661   6.916  10.475 -0.6281 -0.3876  0.9848
  794MOL0     H 7134  -0.558   7.011  10.580 -0.8413 -0.9465  0.4881
  794MOL0     H 7135  -0.601   7.062  10.287  0.2575  4.7862 -1.8181
  794MOL0     H 7136  -0.687   7.140  10.412 -0.4335 -1.6983  0.2123
  794MOL0     H 7137  -0.475   7.245  10.495  1.4836  1.6382 -0.7022
  794MOL0     H 7138  -0.390   7.127  10.384 -1.1975 -2.2463  1.0903
  794MOL0     H 7139  -0.506   7.242  10.198  2.2614 -2.9675  0.3418
  794MOL0     H 7140  -0.392   7.355  10.288 -0.9322  0.2313  0.8020
  794MOL0     H 7141  -0.511   7.565  10.436  0.4020  1.1895 -2.0493
  794MOL0     H 7142  -0.865   7.667  10.520 -0.2977 -0.5420  2.5327
  794MOL0     H 7143  -0.693   7.663  10.575  0.6524 -2.5914 -1.0661
  794MOL0     H 7144  -0.798   7.788  10.315 -0.5591  1.8741  0.4378
  794MOL0     H 7145  -0.648   7.822  10.371  0.0843 -1.8395 -1.0948
  794MOL0     H 7146  -0.767   7.938  10.571 -2.2121 -0.1896  0.7800
  794MOL0     H 7147  -0.916   7.907  10.490 -0.9930 -0.1472 -2.2321
  794MOL0     H 7148  -0.817   8.135  10.465  2.0311  0.0180  0.3448
  794MOL0     H 7149  -0.862   8.064  10.313 -1.3740  2.5890  0.3333
  794MOL0     H 7150  -0.665   8.261  10.569  0.9711  2.8940  2.1139
  794MOL0     H 7151  -0.619   8.322  10.790 -0.5566  0.9994  0.4071
  794MOL0     H 7152  -0.448   8.286  10.847 -0.5997 -0.6893  0.4075
  794MOL0     H 7153  -0.481   8.414  10.728 -5.1221  2.4450  0.4638
  794MOL0     H 7154  -0.177   8.147  10.977 -1.1257 -0.1602 -1.9040
  794MOL0     H 7155   0.023   8.179  11.134 -0.7906  1.1583 -0.8409
  794MOL0     H 7156   0.410   8.021  11.070  1.3522  0.4246 -0.9345
  794MOL0     H 7157   0.431   8.170  10.993  2.2604 -1.9490  1.6421
  794MOL0     H 7158   0.400   8.179  11.285 -0.2890  1.2551 -1.3003
  794MOL0     H 7159   0.555   8.106  11.229  0.6033  0.6303  1.8765
  794MOL0     H 7160   0.427   8.365  11.137 -1.1475  0.3028  1.8584
  794MOL0     H 7161   0.597   8.333  11.125 -0.9822 -2.0387 -0.4557
  794MOL0     H 7162   0.636   8.343  11.371  0.2745  2.1181  1.1525
  794MOL0     H 7163   0.591   8.493  11.297 -1.2880  0.5452  2.1949
  794MOL0     H 7164   0.396   8.309  11.452  1.8640 -1.6471 -2.4462
  794MOL0     H 7165   0.358   8.470  11.389  2.4875  2.1829  1.1927
  794MOL0     H 7166   0.600   8.423  11.567  1.1851  1.8513  1.5288
  794MOL0     H 7167   0.535   8.576  11.515 -4.6742  0.7714 -0.4735
  794MOL0     H 7168   0.384   8.393  11.700 -1.7305  0.8582  0.1986
  794MOL0     H 7169   0.317   8.523  11.606  1.7200  1.6901 -0.1207
  794MOL0     H 7170   0.358   8.643  11.794 -0.6292 -1.4697  0.0554
  794MOL0     H 7171   0.503   8.667  11.714  3.1852 -1.7421 -0.8813
  794MOL0     H 7172   0.290   8.076  10.835  0.3478  2.0145 -0.9235
  794MOL0     H 7173   0.098   8.029  10.675 -0.5989 -2.7487  1.0393
  794MOL0     H 7174  -0.259   7.991  10.534  1.1847  2.2508 -1.4569
  794MOL0     H 7175  -0.429   7.947  10.373 -0.3391 -0.7986 -0.0487
  794MOL0     H 7176  -0.070   6.266  10.557  1.0690  0.4302 -1.1757
  794MOL0     H 7177   0.017   6.081  10.393  0.4092  0.2838 -0.5425
  794MOL0     H 7178   0.171   5.759  10.192 -1.5345  0.3887  0.7228
  794MOL0     H 7179   0.218   5.581  10.031 -2.0029 -0.9874 -2.2393
  794MOL0     H 7180  -0.036   5.550   9.705 -0.4835 -1.3683 -1.6363
  794MOL0     H 7181   0.098   5.563   9.580  1.9141  1.6606  1.4724
  794MOL0     H 7182   0.089   5.332   9.769  0.6278 -0.5300  0.1418
  794MOL0     H 7183   0.167   5.339   9.612  0.4415  1.8142  0.4166
  794MOL0     H 7184  -0.138   5.360   9.644 -1.3060 -2.2746  0.8675
  794MOL0     H 7185  -0.040   5.215   9.630  2.3718  1.4390  3.2886
  794MOL0     H 7186  -0.009   5.402   9.395  1.4270 -0.4966 -0.1224
  794MOL0     H 7187  -0.137   5.283   9.404  0.2580 -1.1908  0.2180
  794MOL0     H 7188   0.211   5.063   9.309  0.7480  0.7650 -0.2881
  794MOL0     H 7189  -0.021   5.771   9.741 -0.7660  0.3824  1.1448
  794MOL0     H 7190  -0.085   5.946   9.902 -1.3414  0.0038  0.6248
  795MOL0     O 7191  10.994   7.930   4.436  0.2432 -0.0707 -0.6521
  795MOL0     C 7192  11.054   7.892   4.531  1.0524 -0.9289 -0.9197
  795MOL0     O 7193  11.085   7.975   4.637  0.1011  0.1100 -0.2267
  795MOL0     C 7194  10.999   8.086   4.652 -0.7397 -0.3556 -0.7234
  795MOL0     C 7195  11.046   8.210   4.701  0.2212 -1.2489  0.6341
  795MOL0     C 7196  10.961   8.313   4.732 -0.7675  0.1014 -1.1317
  795MOL0     C 7197  10.831   8.301   4.721 -0.1075 -0.0616  0.8629
  795MOL0     O 7198  10.755   8.406   4.768  0.0218  0.0342  0.4588
  795MOL0     C 7199  10.613   8.393   4.757  0.5402 -0.6177  0.1480
  795MOL0     C 7200  10.543   8.511   4.831 -0.3007 -0.3576  0.7388
  795MOL0     C 7201  10.580   8.497   4.973 -0.7994  0.1102 -0.2380
  795MOL0     C 7202  10.508   8.596   5.058 -0.5961 -0.0198 -0.8233
  795MOL0     C 7203  10.519   8.571   5.210 -0.5489 -0.5090 -0.0418
  795MOL0     C 7204  10.431   8.661   5.294  0.5733 -0.5975 -0.1786
  795MOL0     C 7205  10.451   8.634   5.447  0.6537 -0.0142  0.0204
  795MOL0     C 7206  10.590   8.672   5.505 -0.1119 -0.5536  0.1286
  795MOL0     N 7207  10.708   8.593   5.454 -0.2824 -0.0793 -0.2031
  795MOL0     C 7208  10.706   8.457   5.453  0.2605 -0.7184 -0.4428
  795MOL0     C 7209  10.838   8.418   5.451  0.8649  0.7404 -0.0854
  795MOL0     C 7210  10.878   8.276   5.440 -0.1618 -0.0503 -0.1060
  795MOL0     C 7211  10.827   8.200   5.323 -0.2327  0.3258  0.2188
  795MOL0     C 7212  10.910   8.225   5.206 -0.6795  0.1264 -1.0239
  795MOL0     C 7213  10.844   8.190   5.073  0.2660 -1.1952 -0.4075
  795MOL0     O 7214  10.803   8.048   5.066 -0.5605  0.1089  0.4108
  795MOL0     C 7215  10.890   7.946   5.034 -0.0803 -0.7538  0.6559
  795MOL0     C 7216  10.846   7.817   5.041  0.6286  0.8872 -0.0896
  795MOL0     C 7217  10.933   7.712   5.024  0.5490 -0.1671  0.4367
  795MOL0     C 7218  10.869   7.576   5.046  0.3453  0.4092  0.8653
  795MOL0     C 7219  11.073   7.735   5.001  0.6927  1.0036 -0.7529
  795MOL0     C 7220  11.167   7.617   4.996  1.2496 -0.9862 -0.0442
  795MOL0     O 7221  11.125   7.501   4.944  0.2464 -0.3094 -0.2454
  795MOL0     C 7222  11.196   7.384   4.950 -0.1864 -0.6395  0.3644
  795MOL0     C 7223  11.118   7.261   4.982  0.3981  0.6442 -0.5899
  795MOL0     C 7224  11.199   7.145   4.980  0.7428  0.1579 -0.3964
  795MOL0     C 7225  11.333   7.142   4.963 -0.2534  0.3245  0.3513
  795MOL0     O 7226  11.394   7.018   4.952  0.3557  0.1853 -0.1625
  795MOL0     C 7227  11.385   6.957   5.081 -0.0384  0.2952 -0.0038
  795MOL0     C 7228  11.456   6.807   5.077  0.5802 -0.2297 -0.8134
  795MOL0     C 7229  11.596   6.795   5.010 -0.1173  0.0499 -0.4321
  795MOL0     C 7230  11.642   6.650   5.008 -0.7781 -0.0542  0.3803
  795MOL0     C 7231  11.791   6.623   4.994 -0.0878  0.0876 -0.4552
  795MOL0     C 7232  11.868   6.678   4.884 -0.5985  0.4828  0.2544
  795MOL0     C 7233  11.815   6.623   4.749  0.0007  0.0845  0.2831
  795MOL0     C 7234  11.796   6.467   4.741 -0.1397 -0.1546  0.4750
  795MOL0    Cl 7235  11.752   6.420   4.572  0.2867 -0.6071  0.3330
  795MOL0     C 7236  11.403   7.263   4.940  0.0600 -0.0398  0.0865
  795MOL0     C 7237  11.335   7.382   4.941  0.0950  1.0399 -0.4888
  795MOL0     O 7238  11.278   7.639   5.052  0.8021  0.1576 -0.0131
  795MOL0     C 7239  11.114   7.865   4.970  0.5816  0.1547 -0.1336
  795MOL0     C 7240  11.021   7.971   4.986  0.2424 -0.4643  0.5115
  795MOL0     N 7241  10.919   8.522   5.469 -1.2100 -0.1797  0.7204
  795MOL0     N 7242  10.836   8.630   5.475  0.9576  0.1711  0.4383
  795MOL0     C 7243  10.778   8.180   4.676 -1.0689 -0.6671 -1.1421
  795MOL0     C 7244  10.859   8.072   4.658 -0.0708  0.2417  0.3881
  795MOL0     C 7245  11.112   7.758   4.528  0.3081  0.6620 -0.4579
  795MOL0     C 7246  11.113   7.677   4.411 -0.6432  0.2469  0.4164
  795MOL0     C 7247  11.171   7.554   4.402 -0.8963 -0.3705 -0.8249
  795MOL0     C 7248  11.230   7.496   4.513 -0.0364  0.4381  0.4832
  795MOL0     O 7249  11.278   7.365   4.491  0.2864 -0.1425  0.4325
  795MOL0     C 7250  11.393   7.334   4.573 -0.0442  0.6649  0.5143
  795MOL0     C 7251  11.509   7.433   4.557  0.4272  0.6420 -0.3689
  795MOL0     C 7252  11.629   7.394   4.644 -0.5912  0.0653 -0.3026
  795MOL0     C 7253  11.742   7.493   4.609 -0.0354  0.0311  0.1826
  795MOL0     C 7254  11.848   7.458   4.704  0.7588 -0.2430  0.9154
  795MOL0     C 7255  11.943   7.435   4.774  0.0738  0.4952 -0.6539
  795MOL0     C 7256  11.222   7.562   4.625 -1.8702 -0.6591 -0.1271
  795MOL0     C 7257  11.167   7.698   4.644  0.0378 -0.9284  0.6687
  795MOL0     H 7258  11.151   8.231   4.714  0.2396  1.4018 -2.4339
  795MOL0     H 7259  11.005   8.401   4.778  1.1383 -2.0604  1.5514
  795MOL0     H 7260  10.580   8.384   4.653 -0.6889  2.2835  0.1963
  795MOL0     H 7261  10.571   8.301   4.800 -0.4250 -0.3345 -0.1705
  795MOL0     H 7262  10.578   8.612   4.809  0.0825 -0.3537  1.3363
  795MOL0     H 7263  10.434   8.509   4.816 -0.2008  0.6028 -0.1637
  795MOL0     H 7264  10.554   8.394   4.998  1.0352 -0.4872 -0.6325
  795MOL0     H 7265  10.685   8.520   4.991 -0.4879 -0.6410 -1.0514
  795MOL0     H 7266  10.559   8.692   5.045 -1.6773  0.9108  1.2410
  795MOL0     H 7267  10.402   8.614   5.035 -0.2856  3.6249 -0.0169
  795MOL0     H 7268  10.500   8.464   5.223 -0.9229 -0.6305 -1.4145
  795MOL0     H 7269  10.624   8.600   5.224 -1.0115  0.7202  1.0992
  795MOL0     H 7270  10.467   8.763   5.277  2.5662 -0.9159  1.7056
  795MOL0     H 7271  10.330   8.644   5.255  1.7083 -5.9227 -1.5276
  795MOL0     H 7272  10.381   8.692   5.507 -0.2549 -0.0411 -0.9729
  795MOL0     H 7273  10.418   8.530   5.458 -2.2304  0.8085  0.0081
  795MOL0     H 7274  10.594   8.671   5.614 -1.4424  2.6702  0.3186
  795MOL0     H 7275  10.588   8.778   5.479 -2.7237 -1.3870 -4.0069
  795MOL0     H 7276  10.608   8.411   5.462 -1.1613  2.0877 -0.3783
  795MOL0     H 7277  10.987   8.264   5.442  0.1185  2.1250  1.3527
  795MOL0     H 7278  10.853   8.218   5.529  1.2145 -0.5110  0.0116
  795MOL0     H 7279  10.720   8.203   5.299 -0.0804 -0.6582 -0.6481
  795MOL0     H 7280  10.847   8.095   5.344  1.4613  0.0676 -2.2793
  795MOL0     H 7281  10.997   8.158   5.213 -2.0608 -1.5305  2.5403
  795MOL0     H 7282  10.951   8.326   5.202  0.5309 -0.3600 -1.3851
  795MOL0     H 7283  10.903   8.226   4.989 -0.2363  2.3982  0.6332
  795MOL0     H 7284  10.754   8.249   5.055  2.7422  2.0814 -3.3642
  795MOL0     H 7285  10.755   7.798   5.097  0.8238 -0.4763 -0.2017
  795MOL0     H 7286  10.874   7.530   4.946 -0.2114 -1.2181  1.5481
  795MOL0     H 7287  10.922   7.514   5.118  2.5227  3.4462  2.0796
  795MOL0     H 7288  10.762   7.584   5.071 -1.2017 -3.5822 -3.1247
  795MOL0     H 7289  11.011   7.264   5.001  0.5484  2.3156  0.1712
  795MOL0     H 7290  11.130   7.061   4.976  0.4256  0.4497 -3.0058
  795MOL0     H 7291  11.452   7.010   5.150 -0.6378  2.0386 -0.6971
  795MOL0     H 7292  11.286   6.954   5.128  0.6023  1.2475  1.5055
  795MOL0     H 7293  11.471   6.782   5.182  0.4306  0.9911 -0.4923
  795MOL0     H 7294  11.396   6.732   5.024 -0.7999 -0.4580  0.9828
  795MOL0     H 7295  11.660   6.867   5.062 -0.5832  0.7123 -0.7642
  795MOL0     H 7296  11.575   6.827   4.908 -2.4063 -1.0138 -0.3770
  795MOL0     H 7297  11.608   6.613   5.105 -0.3479 -3.1969 -0.5726
  795MOL0     H 7298  11.584   6.601   4.929 -0.2679 -0.8638  0.4939
  795MOL0     H 7299  11.808   6.515   5.003 -3.4481 -0.5840 -0.9946
  795MOL0     H 7300  11.845   6.679   5.071 -1.0028  2.8208 -1.6700
  795MOL0     H 7301  11.856   6.786   4.872  1.9550  0.9760  1.3942
  795MOL0     H 7302  11.977   6.666   4.893 -0.3298  0.3630 -2.4608
  795MOL0     H 7303  11.888   6.654   4.674  0.4259  3.2574  1.8635
  795MOL0     H 7304  11.719   6.670   4.723  0.3690  0.0583 -1.1984
  795MOL0     H 7305  11.716   6.433   4.806 -0.5148 -2.9336 -1.2846
  795MOL0     H 7306  11.887   6.414   4.770 -0.1357 -1.5503 -1.8459
  795MOL0     H 7307  11.511   7.256   4.932  0.1685 -1.4603  2.0361
  795MOL0     H 7308  11.388   7.473   4.916 -0.4165  1.8678  1.3379
  795MOL0     H 7309  11.218   7.887   4.948  0.6261  0.3229  0.2249
  795MOL0     H 7310  11.038   8.076   4.966 -2.7733  0.3795  1.7714
  795MOL0     H 7311  10.670   8.173   4.680 -1.3660  2.7352 -0.4751
  795MOL0     H 7312  10.812   7.977   4.634 -1.0784  0.8601 -0.1493
  795MOL0     H 7313  11.058   7.694   4.319 -0.8087 -2.7960 -0.1402
  795MOL0     H 7314  11.174   7.508   4.304  2.2051 -2.9541  0.2713
  795MOL0     H 7315  11.374   7.336   4.680 -3.5892 -0.4951  0.0499
  795MOL0     H 7316  11.435   7.233   4.562  1.4312  1.2431  0.6510
  795MOL0     H 7317  11.478   7.531   4.594  0.1323 -0.2210  1.8719
  795MOL0     H 7318  11.525   7.424   4.450 -2.7483 -0.4755 -0.8520
  795MOL0     H 7319  11.663   7.292   4.625  2.9802  1.1481 -0.4839
  795MOL0     H 7320  11.612   7.405   4.751  1.8169 -3.9503  0.6888
  795MOL0     H 7321  11.710   7.594   4.635  0.0280  0.6411 -1.9133
  795MOL0     H 7322  11.782   7.498   4.507  0.8966 -2.3852  0.3582
  795MOL0     H 7323  12.029   7.423   4.837  0.4999 -0.6713 -1.4234
  795MOL0     H 7324  11.272   7.529   4.715  0.7856 -0.3993 -1.4200
  795MOL0     H 7325  11.170   7.742   4.743  0.1053 -2.0059  1.1629
  796MOL0     O 7326   6.542   5.124   4.855 -0.4420  0.1221 -0.1333
  796MOL0     C 7327   6.609   5.086   4.756 -0.1795 -0.6707  0.3453
  796MOL0     O 7328   6.679   4.967   4.765 -0.2212 -0.4953  0.3061
  796MOL0     C 7329   6.691   4.900   4.887  0.7887  0.6848  0.2309
  796MOL0     C 7330   6.677   4.757   4.879  0.0468 -1.3699 -0.0558
  796MOL0     C 7331   6.688   4.676   4.990 -1.0283  0.7162  0.7762
  796MOL0     C 7332   6.737   4.731   5.116  0.0081  0.2301  0.0150
  796MOL0     O 7333   6.744   4.649   5.227 -0.0240 -0.2225  0.7238
  796MOL0     C 7334   6.809   4.521   5.210 -0.4531  1.0756 -0.6128
  796MOL0     C 7335   6.881   4.481   5.338  0.0509 -0.0399 -0.8800
  796MOL0     C 7336   7.020   4.550   5.364 -0.9403  0.1350  0.3450
  796MOL0     C 7337   7.131   4.482   5.292 -0.7767 -0.8408 -0.3742
  796MOL0     C 7338   7.262   4.555   5.293 -0.7175  0.4585 -0.0875
  796MOL0     C 7339   7.328   4.554   5.435  0.4917  0.6996 -0.7171
  796MOL0     C 7340   7.465   4.616   5.431  0.4943 -0.0002  0.4768
  796MOL0     C 7341   7.495   4.697   5.556 -0.0457  0.3990 -0.1010
  796MOL0     N 7342   7.630   4.753   5.569  0.0200 -0.3443 -1.2716
  796MOL0     C 7343   7.670   4.877   5.525 -0.1280 -0.1456  0.1378
  796MOL0     C 7344   7.802   4.876   5.550  0.1262  0.0762 -0.2160
  796MOL0     C 7345   7.874   5.000   5.521  0.0641  0.6567  0.3561
  796MOL0     C 7346   7.908   5.078   5.652  0.2319  0.4625 -0.9099
  796MOL0     C 7347   8.015   4.996   5.712  0.5039 -0.3429  0.8796
  796MOL0     C 7348   8.077   5.067   5.820 -0.1338  1.1532  0.2600
  796MOL0     O 7349   8.177   4.978   5.869 -0.3446 -0.4679 -0.2779
  796MOL0     C 7350   8.260   5.020   5.976 -0.1595  0.4492  0.9579
  796MOL0     C 7351   8.354   4.920   6.027 -0.4509  0.0137  0.7727
  796MOL0     C 7352   8.446   4.953   6.130  0.2644  0.1378  0.2647
  796MOL0     C 7353   8.561   4.854   6.160 -0.3023  0.9910 -0.6263
  796MOL0     C 7354   8.434   5.079   6.188  0.0390  0.3871  0.0194
  796MOL0     C 7355   8.510   5.124   6.303 -1.0858 -0.1201  1.0394
  796MOL0     O 7356   8.491   5.038   6.407  0.6048 -0.8397  0.2498
  796MOL0     C 7357   8.568   5.063   6.515  0.0048  0.0497 -0.7779
  796MOL0     C 7358   8.554   5.152   6.623  0.3455  0.1170 -0.4309
  796MOL0     C 7359   8.635   5.142   6.733  0.5931  0.4548  0.6219
  796MOL0     C 7360   8.727   5.038   6.750  0.1080 -0.4003 -0.2072
  796MOL0     O 7361   8.790   5.020   6.876  0.8150 -1.1855  0.2397
  796MOL0     C 7362   8.810   5.139   6.968  0.4044 -0.0079 -0.5991
  796MOL0     C 7363   8.929   5.113   7.063 -0.8928 -0.5346  0.8948
  796MOL0     C 7364   8.929   5.226   7.173 -0.4970  0.5158  0.3376
  796MOL0     C 7365   9.029   5.188   7.286 -0.7330 -0.7185  0.9202
  796MOL0     C 7366   9.006   5.272   7.415  0.5285 -0.6924 -0.1486
  796MOL0     C 7367   8.957   5.414   7.395 -0.8485  0.0291  0.4479
  796MOL0     C 7368   8.950   5.485   7.531  0.5618  0.2270 -0.7974
  796MOL0     C 7369   8.827   5.570   7.528  0.3604  0.5235  0.4270
  796MOL0    Cl 7370   8.824   5.630   7.695  0.3559 -0.4810  0.1321
  796MOL0     C 7371   8.737   4.946   6.638  0.1963 -0.4987  1.1130
  796MOL0     C 7372   8.659   4.965   6.519  0.5356 -0.0978 -0.1524
  796MOL0     O 7373   8.564   5.236   6.303 -0.2760 -0.2315 -0.0297
  796MOL0     C 7374   8.350   5.171   6.138 -0.6409 -0.3560 -0.3176
  796MOL0     C 7375   8.268   5.151   6.034  0.7318  0.1275 -0.3957
  796MOL0     N 7376   7.839   4.754   5.609 -0.3915 -0.5136  0.0402
  796MOL0     N 7377   7.733   4.678   5.621 -0.3733 -0.3302  0.0706
  796MOL0     C 7378   6.753   4.869   5.133 -0.8995  0.1932 -0.3171
  796MOL0     C 7379   6.720   4.948   5.013 -0.3318  0.0471 -1.0631
  796MOL0     C 7380   6.632   5.172   4.643 -0.4015 -0.1233  0.4948
  796MOL0     C 7381   6.563   5.294   4.617  0.7895 -0.6484 -1.1467
  796MOL0     C 7382   6.580   5.374   4.497 -0.0664 -0.0506 -0.3347
  796MOL0     C 7383   6.672   5.326   4.403 -0.6059 -0.9355 -0.6885
  796MOL0     O 7384   6.708   5.403   4.296 -0.3591  0.1457  0.5749
  796MOL0     C 7385   6.789   5.521   4.329 -0.0795 -0.0519  0.1308
  796MOL0     C 7386   6.943   5.485   4.291  0.7069  0.2629  0.5269
  796MOL0     C 7387   7.030   5.606   4.273  0.5294 -0.8249  0.4371
  796MOL0     C 7388   7.166   5.575   4.213 -0.2819  0.3360  0.4485
  796MOL0     C 7389   7.261   5.497   4.302 -0.4884 -0.4357  0.7397
  796MOL0     C 7390   7.336   5.436   4.384 -0.2080 -0.0567  0.2083
  796MOL0     C 7391   6.749   5.217   4.435  0.3448 -0.4772  0.3055
  796MOL0     C 7392   6.730   5.139   4.550  0.4590  0.5323  0.5093
  796MOL0     H 7393   6.679   4.704   4.784 -0.2281 -2.7132  0.6653
  796MOL0     H 7394   6.670   4.574   4.960  0.3684  0.2537  1.4371
  796MOL0     H 7395   6.732   4.451   5.176  0.2797 -0.4061  0.6587
  796MOL0     H 7396   6.883   4.520   5.129 -0.1887  2.4317 -0.4178
  796MOL0     H 7397   6.808   4.493   5.419 -0.7329 -1.4932 -1.3274
  796MOL0     H 7398   6.898   4.372   5.341  3.9381  0.4180  1.5219
  796MOL0     H 7399   7.008   4.655   5.339 -1.3835  0.6905  2.6428
  796MOL0     H 7400   7.047   4.548   5.470 -2.8253  2.4028  0.9518
  796MOL0     H 7401   7.148   4.389   5.347  1.5167 -0.7243 -0.7599
  796MOL0     H 7402   7.103   4.462   5.188  2.4506 -0.3211 -1.4565
  796MOL0     H 7403   7.333   4.502   5.228 -0.6733  1.4434 -0.8659
  796MOL0     H 7404   7.258   4.658   5.259 -0.8129 -0.1179 -1.9163
  796MOL0     H 7405   7.269   4.615   5.505  0.8575  1.6079 -1.1805
  796MOL0     H 7406   7.326   4.453   5.477  1.5088 -0.2068 -2.7470
  796MOL0     H 7407   7.527   4.526   5.430 -2.0862 -1.8590  0.0314
  796MOL0     H 7408   7.466   4.683   5.344 -0.4893 -0.3290  0.2087
  796MOL0     H 7409   7.490   4.629   5.641 -0.2157  0.2055 -0.2672
  796MOL0     H 7410   7.420   4.777   5.552  2.0253  2.4264 -1.4053
  796MOL0     H 7411   7.608   4.951   5.475  1.8830  0.7935 -1.1066
  796MOL0     H 7412   7.961   4.962   5.467  1.8384  1.9863  2.1407
  796MOL0     H 7413   7.823   5.060   5.445 -2.6111  0.4013  1.8202
  796MOL0     H 7414   7.823   5.081   5.720 -0.1211  2.2357 -1.3808
  796MOL0     H 7415   7.942   5.178   5.625 -3.3594  2.0855  0.1057
  796MOL0     H 7416   8.086   4.962   5.636 -2.3309 -1.4000 -1.4550
  796MOL0     H 7417   7.970   4.901   5.744  3.1190 -1.8985  0.3004
  796MOL0     H 7418   8.010   5.085   5.904  0.2141 -2.4070  1.4966
  796MOL0     H 7419   8.128   5.160   5.792  1.4470 -0.2537 -1.8612
  796MOL0     H 7420   8.364   4.825   5.975 -1.7603  0.0560  0.4063
  796MOL0     H 7421   8.558   4.759   6.105  2.7833 -2.9767  4.9995
  796MOL0     H 7422   8.659   4.895   6.134 -0.6025  0.7910 -2.2159
  796MOL0     H 7423   8.554   4.837   6.267 -0.7280 -0.5367 -0.8780
  796MOL0     H 7424   8.479   5.231   6.620  1.7289  1.5725  1.1387
  796MOL0     H 7425   8.621   5.218   6.809 -0.9997  1.1632 -0.3293
  796MOL0     H 7426   8.827   5.234   6.916 -1.9742  1.0984  0.4812
  796MOL0     H 7427   8.724   5.147   7.036  2.6275  1.0153  2.2959
  796MOL0     H 7428   8.930   5.014   7.109  0.2760 -0.4521  1.0704
  796MOL0     H 7429   9.027   5.126   7.016 -0.6091 -1.5711  1.1720
  796MOL0     H 7430   8.828   5.224   7.216 -0.3752 -1.0138  0.5758
  796MOL0     H 7431   8.961   5.323   7.132  0.7617 -0.6445 -1.5754
  796MOL0     H 7432   9.021   5.079   7.289 -1.5339 -0.8734 -2.2980
  796MOL0     H 7433   9.135   5.204   7.262 -1.2500  2.1930  0.2309
  796MOL0     H 7434   9.097   5.284   7.474  0.1824  2.7654 -0.0649
  796MOL0     H 7435   8.937   5.211   7.474  0.6609 -1.8080 -1.1186
  796MOL0     H 7436   9.017   5.469   7.322 -1.4701  3.0272  2.0055
  796MOL0     H 7437   8.855   5.401   7.355 -1.0622  2.8871 -0.1383
  796MOL0     H 7438   9.046   5.537   7.538  1.0173 -0.6678 -0.1783
  796MOL0     H 7439   8.954   5.430   7.625  0.5269  2.9519  0.9010
  796MOL0     H 7440   8.740   5.504   7.519  0.5563  0.3683 -0.3122
  796MOL0     H 7441   8.825   5.642   7.446  2.6761 -1.5457 -1.6094
  796MOL0     H 7442   8.796   4.856   6.651  0.3683 -0.1893  2.6212
  796MOL0     H 7443   8.675   4.886   6.447  0.2891 -1.2063  0.9755
  796MOL0     H 7444   8.348   5.272   6.178  3.1034  1.1579 -3.4115
  796MOL0     H 7445   8.214   5.239   6.000  0.7886  0.3210  0.0175
  796MOL0     H 7446   6.783   4.926   5.220  2.5447 -1.1693 -0.4706
  796MOL0     H 7447   6.720   5.056   5.007  0.0350  0.1395  0.2291
  796MOL0     H 7448   6.494   5.319   4.697  3.1010  0.8131  0.5521
  796MOL0     H 7449   6.543   5.475   4.487  1.7298  0.7658  0.7487
  796MOL0     H 7450   6.750   5.601   4.266  0.8981 -0.8460 -1.5306
  796MOL0     H 7451   6.779   5.572   4.426 -2.2310  1.1621 -0.6589
  796MOL0     H 7452   6.944   5.427   4.198 -1.8550 -0.5765  0.9341
  796MOL0     H 7453   6.985   5.424   4.371  0.7244  0.5804  0.7584
  796MOL0     H 7454   7.032   5.664   4.365 -2.0177  1.4133 -0.7522
  796MOL0     H 7455   6.963   5.671   4.215  0.0672 -0.5220  1.2983
  796MOL0     H 7456   7.205   5.675   4.195 -1.8027  1.1621  1.5050
  796MOL0     H 7457   7.154   5.528   4.115  0.1531  1.4280 -0.1358
  796MOL0     H 7458   7.392   5.388   4.462 -0.9872 -0.5476  0.4826
  796MOL0     H 7459   6.831   5.183   4.373  1.8032 -1.5365  2.6983
  796MOL0     H 7460   6.799   5.056   4.554 -0.4624 -0.1946  2.1983
  797MOL0     O 7461   0.823  11.388   0.139 -0.0222 -0.3581 -0.1404
  797MOL0     C 7462   0.757  11.341   0.044 -0.3180  0.2784 -0.6761
  797MOL0     O 7463   0.805  11.311  -0.084  0.2818  0.2577  0.7768
  797MOL0     C 7464   0.936  11.312  -0.101 -0.6753 -0.1526  1.7334
  797MOL0     C 7465   1.024  11.211  -0.062  0.0354 -0.6418  0.2612
  797MOL0     C 7466   1.159  11.219  -0.062  0.1222 -0.3349 -0.9605
  797MOL0     C 7467   1.222  11.328  -0.117 -0.3014 -0.4969  0.1816
  797MOL0     O 7468   1.356  11.333  -0.151 -0.1303 -0.0285 -0.0444
  797MOL0     C 7469   1.424  11.205  -0.170  0.4152 -0.0243 -0.6291
  797MOL0     C 7470   1.577  11.223  -0.144 -0.5324 -0.5102  0.5876
  797MOL0     C 7471   1.638  11.327  -0.237  0.4960  0.4313 -0.3738
  797MOL0     C 7472   1.793  11.334  -0.246  0.7529  0.1813 -0.4620
  797MOL0     C 7473   1.860  11.198  -0.301  0.3269 -1.0662 -0.4159
  797MOL0     C 7474   1.995  11.223  -0.355 -0.1070  0.8326 -0.9419
  797MOL0     C 7475   2.039  11.093  -0.437 -0.0805 -0.6722  0.1704
  797MOL0     C 7476   2.140  11.138  -0.544  0.5672 -0.0525  0.0273
  797MOL0     N 7477   2.188  11.033  -0.635  0.3516  0.0743 -0.4419
  797MOL0     C 7478   2.191  10.901  -0.611 -0.5641  0.0889  0.1497
  797MOL0     C 7479   2.240  10.848  -0.727 -0.3964 -0.0623 -0.1585
  797MOL0     C 7480   2.266  10.712  -0.759 -0.5301  0.0882  0.0885
  797MOL0     C 7481   2.386  10.655  -0.692  0.0674 -0.1668  1.0145
  797MOL0     C 7482   2.403  10.686  -0.542 -0.2733 -0.9321  0.6699
  797MOL0     C 7483   2.528  10.639  -0.483 -0.2480  0.1540 -0.2270
  797MOL0     O 7484   2.514  10.495  -0.494  0.6976  0.5314  0.1990
  797MOL0     C 7485   2.601  10.405  -0.439 -0.3174  0.9860  0.8921
  797MOL0     C 7486   2.712  10.441  -0.358 -0.9898  0.0595  0.7452
  797MOL0     C 7487   2.797  10.335  -0.312 -0.8411  0.8704 -0.1428
  797MOL0     C 7488   2.932  10.376  -0.245 -0.4366  0.0296  0.1081
  797MOL0     C 7489   2.771  10.197  -0.341  0.1219  0.0673  0.5985
  797MOL0     C 7490   2.856  10.094  -0.291  0.1289  0.2632  0.5599
  797MOL0     O 7491   2.989  10.099  -0.312  0.5169  0.2785  0.2930
  797MOL0     C 7492   3.060  10.000  -0.256 -1.3165  1.4280  0.2894
  797MOL0     C 7493   3.149   9.916  -0.340  0.0375 -0.2860 -0.5232
  797MOL0     C 7494   3.230   9.817  -0.282  0.7148 -0.0757 -0.1932
  797MOL0     C 7495   3.227   9.799  -0.147  1.1455 -0.7831  0.0247
  797MOL0     O 7496   3.318   9.712  -0.101 -0.5024  0.4539  0.9344
  797MOL0     C 7497   3.387   9.744   0.020 -0.7794  0.3081 -0.4573
  797MOL0     C 7498   3.405   9.613   0.100  0.1671 -0.3235  0.2076
  797MOL0     C 7499   3.467   9.630   0.242  0.7680 -0.1632 -0.0225
  797MOL0     C 7500   3.359   9.689   0.331  0.0346 -0.1240  1.6887
  797MOL0     C 7501   3.410   9.693   0.477 -0.1209 -0.1884 -0.3625
  797MOL0     C 7502   3.318   9.632   0.580  0.2590  1.6123  0.1083
  797MOL0     C 7503   3.334   9.689   0.721 -0.6360 -0.3724  0.3445
  797MOL0     C 7504   3.256   9.615   0.825  0.6594 -0.0822 -0.7528
  797MOL0    Cl 7505   3.338   9.451   0.851  0.3203 -0.5287  0.0804
  797MOL0     C 7506   3.134   9.870  -0.065 -0.4389  1.2866  0.4180
  797MOL0     C 7507   3.061   9.975  -0.119 -0.4485 -0.7255 -0.3336
  797MOL0     O 7508   2.787  10.004  -0.238  0.1387 -0.1036 -0.1504
  797MOL0     C 7509   2.641  10.162  -0.399  0.1710  0.2722  1.0332
  797MOL0     C 7510   2.567  10.267  -0.449  0.0087 -1.2701 -0.9227
  797MOL0     N 7511   2.279  10.951  -0.815  0.5891  0.2849  0.1389
  797MOL0     N 7512   2.237  11.062  -0.762 -0.0387 -0.3353 -0.0138
  797MOL0     C 7513   1.145  11.440  -0.159 -1.0090  0.0584 -0.5184
  797MOL0     C 7514   1.008  11.426  -0.153 -0.1490 -0.8060  0.2595
  797MOL0     C 7515   0.619  11.295   0.083 -0.1557  1.0560 -0.4800
  797MOL0     C 7516   0.567  11.197   0.003 -0.3516 -0.7449 -0.1405
  797MOL0     C 7517   0.440  11.148   0.032 -0.3218  0.3853  0.4314
  797MOL0     C 7518   0.360  11.196   0.144 -0.4184 -0.1107  0.4273
  797MOL0     O 7519   0.234  11.159   0.174 -0.2696  0.4706  0.2571
  797MOL0     C 7520   0.182  11.049   0.097 -0.0423  1.4678 -0.3387
  797MOL0     C 7521   0.247  10.923   0.151  0.2508  0.2239  0.1803
  797MOL0     C 7522   0.231  10.807   0.050  0.2109 -0.2528 -0.0785
  797MOL0     C 7523   0.111  10.724   0.076 -0.3281 -0.8826 -0.0706
  797MOL0     C 7524  -0.010  10.797   0.039 -0.5451 -0.6763  0.0291
  797MOL0     C 7525  -0.121  10.849   0.010  0.7468 -0.5061  0.9449
  797MOL0     C 7526   0.424  11.296   0.225  0.0580 -0.4638 -0.3963
  797MOL0     C 7527   0.550  11.343   0.194  1.0988 -0.7154  0.2614
  797MOL0     H 7528   0.984  11.116  -0.028  0.4411 -1.3727 -1.2217
  797MOL0     H 7529   1.195  11.119  -0.041 -1.1761 -0.5607  0.4115
  797MOL0     H 7530   1.383  11.122  -0.112  0.2399  0.1829 -0.4524
  797MOL0     H 7531   1.399  11.170  -0.271  3.2440 -0.1180 -1.3770
  797MOL0     H 7532   1.592  11.260  -0.042 -1.4005 -0.9724  0.8927
  797MOL0     H 7533   1.635  11.131  -0.152  0.3252  0.0961 -0.3579
  797MOL0     H 7534   1.600  11.305  -0.337  1.8453 -1.2163 -0.5708
  797MOL0     H 7535   1.601  11.423  -0.201 -2.3303  0.3015 -2.5919
  797MOL0     H 7536   1.820  11.423  -0.303  0.1916 -0.8069 -2.3712
  797MOL0     H 7537   1.830  11.361  -0.147 -1.8431  0.9858  0.3657
  797MOL0     H 7538   1.868  11.122  -0.223  1.6951  0.1770  0.7013
  797MOL0     H 7539   1.782  11.156  -0.366 -1.4996  3.9576 -1.9837
  797MOL0     H 7540   1.992  11.307  -0.425 -2.9295  2.4342  0.8915
  797MOL0     H 7541   2.059  11.247  -0.270 -0.1551 -0.2215 -0.5935
  797MOL0     H 7542   2.089  11.022  -0.371 -1.4797 -0.3819  1.5953
  797MOL0     H 7543   1.952  11.050  -0.487  0.3799 -0.0041 -1.2616
  797MOL0     H 7544   2.235  11.167  -0.499  0.2137  2.6534 -0.7774
  797MOL0     H 7545   2.118  11.214  -0.620  2.0917  3.6216  2.9358
  797MOL0     H 7546   2.156  10.849  -0.523  1.7280 -1.9427 -0.0358
  797MOL0     H 7547   2.182  10.651  -0.724 -0.7718  1.2405  1.6197
  797MOL0     H 7548   2.258  10.686  -0.865 -2.7520 -0.1148  0.2580
  797MOL0     H 7549   2.467  10.703  -0.748  0.0187 -1.6860 -0.4525
  797MOL0     H 7550   2.370  10.547  -0.697  0.4730 -0.1702 -0.7527
  797MOL0     H 7551   2.312  10.645  -0.498  1.2760 -2.9024  2.2435
  797MOL0     H 7552   2.404  10.792  -0.516 -1.3216 -0.7385 -0.0158
  797MOL0     H 7553   2.527  10.665  -0.377 -1.2990 -2.2810  0.4284
  797MOL0     H 7554   2.615  10.676  -0.538 -0.9735 -1.8273 -2.9361
  797MOL0     H 7555   2.733  10.544  -0.332  0.7299  0.2120 -1.0324
  797MOL0     H 7556   3.018  10.356  -0.310 -0.0065  0.1502  0.6244
  797MOL0     H 7557   2.928  10.481  -0.216 -0.7052 -0.0181  0.2457
  797MOL0     H 7558   2.938  10.325  -0.148 -2.7243  2.4208  1.6367
  797MOL0     H 7559   3.140   9.903  -0.447  1.1275  1.1011 -0.8140
  797MOL0     H 7560   3.292   9.759  -0.350 -0.3356 -1.3410 -0.1036
  797MOL0     H 7561   3.483   9.788  -0.006  0.0668 -2.3655 -2.2431
  797MOL0     H 7562   3.343   9.826   0.077 -2.0186  1.6184 -3.1580
  797MOL0     H 7563   3.306   9.568   0.109  0.2548 -0.3018  1.3822
  797MOL0     H 7564   3.468   9.544   0.044  1.4969 -2.1494  3.6475
  797MOL0     H 7565   3.561   9.686   0.250  0.1611  0.6877  1.3850
  797MOL0     H 7566   3.485   9.526   0.273 -0.8406  0.1241  2.0808
  797MOL0     H 7567   3.356   9.794   0.303 -0.6400 -0.1437  1.6794
  797MOL0     H 7568   3.261   9.640   0.325 -0.6785  1.3801  0.0148
  797MOL0     H 7569   3.417   9.797   0.511 -0.2234 -0.1700 -0.3978
  797MOL0     H 7570   3.513   9.658   0.491  0.0487  0.8980  1.6089
  797MOL0     H 7571   3.213   9.631   0.549  0.5707  2.6463 -1.0631
  797MOL0     H 7572   3.348   9.527   0.583 -3.1438  0.5252 -0.1428
  797MOL0     H 7573   3.310   9.795   0.722  1.0216  0.2058 -3.6594
  797MOL0     H 7574   3.439   9.683   0.751 -0.6761  1.9205  1.1477
  797MOL0     H 7575   3.152   9.606   0.793  0.8071 -0.6130 -1.0973
  797MOL0     H 7576   3.252   9.671   0.919 -0.4964 -0.6025 -0.4738
  797MOL0     H 7577   3.133   9.833   0.037 -0.2220 -2.3313 -0.7371
  797MOL0     H 7578   2.996  10.036  -0.057  2.4056  1.6433  0.5346
  797MOL0     H 7579   2.612  10.058  -0.409  1.1200  0.0975  0.0007
  797MOL0     H 7580   2.472  10.239  -0.494 -2.7633  1.8649  2.2964
  797MOL0     H 7581   1.199  11.522  -0.204  1.0955 -1.3222 -0.6531
  797MOL0     H 7582   0.944  11.508  -0.187 -0.7119 -1.5000 -0.3903
  797MOL0     H 7583   0.623  11.164  -0.084  0.9743  2.3760 -0.5874
  797MOL0     H 7584   0.407  11.075  -0.042 -2.8104 -0.0904  1.9142
  797MOL0     H 7585   0.074  11.039   0.106  0.0625 -0.6711 -0.8299
  797MOL0     H 7586   0.207  11.059  -0.009  0.2144  0.7510 -0.3524
  797MOL0     H 7587   0.202  10.890   0.245  0.3256 -0.1584  0.0837
  797MOL0     H 7588   0.353  10.931   0.176  0.2318 -2.7122  1.6049
  797MOL0     H 7589   0.309  10.733   0.070  0.5825  0.3841  0.9282
  797MOL0     H 7590   0.237  10.842  -0.054 -2.8046  1.7920  0.3142
  797MOL0     H 7591   0.091  10.694   0.179  0.2080 -0.1203  0.2614
  797MOL0     H 7592   0.121  10.636   0.011 -0.7554 -2.9760  2.5371
  797MOL0     H 7593  -0.210  10.906  -0.011  0.7035 -0.8099  0.2999
  797MOL0     H 7594   0.356  11.354   0.286  2.4785  1.1818  0.8784
  797MOL0     H 7595   0.590  11.434   0.239 -0.7625  1.3691 -2.0079
  798MOL0     O 7596   7.837   8.012   0.189  0.3928 -0.1739 -0.2713
  798MOL0     C 7597   7.829   8.114   0.253  0.4797 -0.7967  1.0010
  798MOL0     O 7598   7.735   8.219   0.229 -0.3973 -0.4313 -0.7863
  798MOL0     C 7599   7.618   8.203   0.164  0.2630  0.8541  0.3693
  798MOL0     C 7600   7.536   8.089   0.163  0.0305  0.3876  0.2281
  798MOL0     C 7601   7.425   8.070   0.099  0.3893  0.0815 -0.2940
  798MOL0     C 7602   7.375   8.177   0.040 -0.2023  0.9807  0.7905
  798MOL0     O 7603   7.246   8.167  -0.012  0.3802 -0.0247  0.1002
  798MOL0     C 7604   7.194   8.276  -0.089 -0.0862 -0.9847  0.0550
  798MOL0     C 7605   7.049   8.267  -0.132 -0.1464 -0.2640 -0.5990
  798MOL0     C 7606   7.015   8.140  -0.198  0.1110 -0.2887 -0.1779
  798MOL0     C 7607   6.907   8.057  -0.113 -0.4520  0.3526 -0.5808
  798MOL0     C 7608   6.918   7.907  -0.125  0.7495 -1.3508  1.1003
  798MOL0     C 7609   7.045   7.843  -0.077 -1.1466 -0.6536  0.8660
  798MOL0     C 7610   7.033   7.687  -0.073  1.5416  0.4445 -0.0987
  798MOL0     C 7611   6.939   7.623   0.041 -0.3152  0.1478  0.0383
  798MOL0     N 7612   6.973   7.696   0.168 -0.9663 -0.1072 -0.6264
  798MOL0     C 7613   7.092   7.680   0.237 -0.4086 -1.0740  0.0026
  798MOL0     C 7614   7.081   7.778   0.328  0.6435 -0.1848 -0.6572
  798MOL0     C 7615   7.187   7.827   0.427 -0.9511 -0.2156 -0.5627
  798MOL0     C 7616   7.217   7.976   0.416  0.0985  0.6005  0.2463
  798MOL0     C 7617   7.302   8.034   0.535 -0.2180 -0.8800 -0.0577
  798MOL0     C 7618   7.416   7.937   0.584  0.1844 -0.0790  0.4282
  798MOL0     O 7619   7.497   7.892   0.468 -0.1711 -0.0314  1.1666
  798MOL0     C 7620   7.605   7.815   0.496 -0.1622  0.3803  0.5673
  798MOL0     C 7621   7.644   7.754   0.618 -0.1125  0.6426 -0.2090
  798MOL0     C 7622   7.768   7.674   0.617 -0.2978 -0.8001 -0.2569
  798MOL0     C 7623   7.800   7.612   0.747  0.4990 -0.6601  0.0988
  798MOL0     C 7624   7.841   7.646   0.494  0.7478  0.2430 -0.4796
  798MOL0     C 7625   7.961   7.555   0.487  0.5851  1.0275  0.3987
  798MOL0     O 7626   8.019   7.508   0.600 -0.2118  0.1509  0.3323
  798MOL0     C 7627   8.085   7.381   0.597  0.5254 -0.4263  0.5397
  798MOL0     C 7628   8.027   7.271   0.653 -0.8750 -0.0383 -0.8157
  798MOL0     C 7629   8.091   7.148   0.641  0.2682 -0.1020 -1.0529
  798MOL0     C 7630   8.228   7.142   0.601  0.2949 -0.3202  0.4293
  798MOL0     O 7631   8.312   7.036   0.608 -0.7910  0.3584  0.3940
  798MOL0     C 7632   8.292   6.936   0.713  0.0513 -0.8265 -0.4873
  798MOL0     C 7633   8.374   6.814   0.670  0.1275 -0.4782  1.0194
  798MOL0     C 7634   8.333   6.769   0.530 -0.6718  1.2819 -0.8177
  798MOL0     C 7635   8.383   6.635   0.503  0.5261 -0.9947 -0.0063
  798MOL0     C 7636   8.369   6.603   0.350 -0.8486 -0.3775 -0.2465
  798MOL0     C 7637   8.399   6.454   0.318  0.4976  0.4422  0.2695
  798MOL0     C 7638   8.544   6.405   0.325  0.6067  0.3299 -0.1295
  798MOL0     C 7639   8.650   6.508   0.284 -0.4970  0.8359 -0.6186
  798MOL0    Cl 7640   8.803   6.416   0.246 -0.5287  0.5289 -0.2487
  798MOL0     C 7641   8.285   7.263   0.556 -1.2463  0.0058  0.3550
  798MOL0     C 7642   8.214   7.378   0.539 -0.9695  1.0509  1.3026
  798MOL0     O 7643   7.992   7.512   0.372  0.3708 -0.6249  0.3424
  798MOL0     C 7644   7.796   7.702   0.373 -0.3429  1.1637 -0.1052
  798MOL0     C 7645   7.685   7.787   0.379  0.7969  0.0326  0.8014
  798MOL0     N 7646   6.952   7.835   0.325 -0.2475  0.5163 -0.6748
  798MOL0     N 7647   6.883   7.785   0.225 -0.0387 -0.3866  0.4662
  798MOL0     C 7648   7.445   8.299   0.028  0.0170  0.8580 -0.5872
  798MOL0     C 7649   7.569   8.313   0.099  0.2170 -0.6807  0.1073
  798MOL0     C 7650   7.937   8.138   0.352  0.2482  0.7755  0.3503
  798MOL0     C 7651   7.964   8.252   0.420  0.0232 -0.6463  0.4183
  798MOL0     C 7652   8.089   8.267   0.489 -0.1455 -0.8433  0.2856
  798MOL0     C 7653   8.180   8.162   0.495  0.1846 -1.1300 -0.1793
  798MOL0     O 7654   8.294   8.154   0.572 -0.2181 -0.1441  0.1898
  798MOL0     C 7655   8.315   8.232   0.689  0.1567 -0.3667  0.4241
  798MOL0     C 7656   8.257   8.181   0.822 -0.0626  0.5383 -0.0275
  798MOL0     C 7657   8.256   8.039   0.849 -1.1342  0.0560 -1.1911
  798MOL0     C 7658   8.139   7.958   0.812  0.7457  0.5447  0.0896
  798MOL0     C 7659   8.012   8.010   0.858  0.4113 -0.6292  0.9708
  798MOL0     C 7660   7.900   8.049   0.893 -0.4797  0.1250  0.2437
  798MOL0     C 7661   8.144   8.044   0.441  0.1617 -0.2043 -0.0915
  798MOL0     C 7662   8.021   8.030   0.380  0.1760  0.6351  0.0211
  798MOL0     H 7663   7.570   7.993   0.201  1.0939  0.3932 -0.6627
  798MOL0     H 7664   7.375   7.974   0.098  1.5083 -0.5938  1.7340
  798MOL0     H 7665   7.197   8.368  -0.030  0.3061 -3.6230  4.6199
  798MOL0     H 7666   7.259   8.283  -0.177 -2.2918 -0.2190 -1.6013
  798MOL0     H 7667   6.992   8.271  -0.039 -0.3257 -2.0521 -0.5945
  798MOL0     H 7668   7.009   8.349  -0.192 -1.0121  0.5709  1.0629
  798MOL0     H 7669   6.978   8.160  -0.299  0.6842 -1.7612 -0.7099
  798MOL0     H 7670   7.099   8.072  -0.213 -0.7904 -1.6776  0.7973
  798MOL0     H 7671   6.922   8.079  -0.007  1.3268  1.7538 -1.0854
  798MOL0     H 7672   6.810   8.090  -0.152 -0.4129  1.3005  0.1072
  798MOL0     H 7673   6.846   7.861  -0.056 -0.7678  1.5646  1.6378
  798MOL0     H 7674   6.904   7.884  -0.231  1.6225 -0.7928  0.8562
  798MOL0     H 7675   7.118   7.872  -0.153  0.4290  2.4930  3.3348
  798MOL0     H 7676   7.065   7.898   0.015  0.7953  5.3155 -2.5515
  798MOL0     H 7677   6.992   7.635  -0.159 -0.4593  0.9989  0.4748
  798MOL0     H 7678   7.133   7.651  -0.046  1.1828  1.3653  2.8515
  798MOL0     H 7679   6.973   7.519   0.039  2.3732  0.9486 -1.7508
  798MOL0     H 7680   6.833   7.629   0.013  0.3377 -0.1283 -2.7353
  798MOL0     H 7681   7.180   7.619   0.223  1.1313  0.8750  0.7824
  798MOL0     H 7682   7.157   7.794   0.527  1.6106 -1.4107 -0.1104
  798MOL0     H 7683   7.272   7.762   0.406 -0.6975  0.0405 -0.3369
  798MOL0     H 7684   7.123   8.031   0.419 -1.0858 -1.3592  0.5560
  798MOL0     H 7685   7.263   8.001   0.320 -1.4495 -2.3786 -1.3954
  798MOL0     H 7686   7.230   8.045   0.617 -1.0306 -1.3279 -0.6989
  798MOL0     H 7687   7.351   8.128   0.508 -0.6989  0.7927  4.1189
  798MOL0     H 7688   7.373   7.852   0.637 -0.4480  1.8290  3.1586
  798MOL0     H 7689   7.478   7.999   0.649 -1.1796  0.2386  1.4595
  798MOL0     H 7690   7.575   7.757   0.702  0.2821 -4.1689  0.5884
  798MOL0     H 7691   7.744   7.673   0.819 -1.9741 -0.1064 -2.1127
  798MOL0     H 7692   7.758   7.512   0.747 -2.5957  0.5150  1.0925
  798MOL0     H 7693   7.903   7.605   0.784 -1.1082 -2.2951  5.0397
  798MOL0     H 7694   7.930   7.294   0.696  0.2496 -1.5031  2.9829
  798MOL0     H 7695   8.059   7.061   0.698  2.0281  1.0866  1.9926
  798MOL0     H 7696   8.336   6.975   0.806 -2.6051 -1.9626  1.3950
  798MOL0     H 7697   8.189   6.899   0.722  0.3717 -1.6013  0.0964
  798MOL0     H 7698   8.472   6.860   0.659 -0.3232  0.3212  0.2192
  798MOL0     H 7699   8.381   6.731   0.741 -0.4368 -0.1657  1.4533
  798MOL0     H 7700   8.374   6.839   0.457 -1.2305  2.7996  0.2576
  798MOL0     H 7701   8.226   6.755   0.509 -0.8384 -2.6879  1.6384
  798MOL0     H 7702   8.486   6.633   0.539  0.0803  1.1947  1.5479
  798MOL0     H 7703   8.327   6.563   0.563  2.3051  1.4347  5.1498
  798MOL0     H 7704   8.432   6.673   0.294 -2.3380  2.8114  1.7575
  798MOL0     H 7705   8.266   6.621   0.318  0.0564  1.6433 -2.2676
  798MOL0     H 7706   8.324   6.393   0.369 -0.8738 -0.2514 -2.3818
  798MOL0     H 7707   8.371   6.429   0.215  0.2717  0.7032  0.2677
  798MOL0     H 7708   8.545   6.315   0.262 -0.7587 -1.4368  2.1954
  798MOL0     H 7709   8.560   6.355   0.422  0.2962 -1.1523 -0.8074
  798MOL0     H 7710   8.673   6.575   0.367 -2.2195  0.5093  0.1639
  798MOL0     H 7711   8.626   6.557   0.189  1.7920 -0.8880 -2.1933
  798MOL0     H 7712   8.387   7.257   0.521 -1.8266  0.4751 -1.5495
  798MOL0     H 7713   8.267   7.463   0.498 -0.7068  1.0687  1.6744
  798MOL0     H 7714   7.833   7.671   0.277  0.8365 -1.2054  1.0369
  798MOL0     H 7715   7.630   7.822   0.292 -2.0787 -2.6847  1.3410
  798MOL0     H 7716   7.403   8.389  -0.017 -2.8609  0.7306  1.5729
  798MOL0     H 7717   7.637   8.398   0.088 -1.0263  0.2447 -0.7503
  798MOL0     H 7718   7.901   8.341   0.415  0.3527 -0.3948  0.7160
  798MOL0     H 7719   8.121   8.364   0.523 -1.7587 -0.5290  1.0172
  798MOL0     H 7720   8.424   8.230   0.695  0.1400  0.4776  1.4378
  798MOL0     H 7721   8.274   8.331   0.667 -0.4550 -0.2149  2.0913
  798MOL0     H 7722   8.158   8.229   0.823  0.0925  0.8519  1.1448
  798MOL0     H 7723   8.314   8.232   0.900  3.0347 -2.7548  0.1002
  798MOL0     H 7724   8.270   8.034   0.958  3.1536  0.1732 -1.5582
  798MOL0     H 7725   8.347   7.990   0.811 -1.2287 -3.2313  2.1474
  798MOL0     H 7726   8.145   7.856   0.850 -1.2881  1.4028  3.0561
  798MOL0     H 7727   8.125   7.962   0.704 -1.0167  3.1730  0.3295
  798MOL0     H 7728   7.803   8.074   0.930 -0.3041  1.1523  0.0237
  798MOL0     H 7729   8.206   7.958   0.463 -0.1882 -0.9774 -1.9574
  798MOL0     H 7730   7.995   7.933   0.340  0.4262 -0.9314  3.2749
  799MOL0     O 7731   2.190   3.747   2.779  0.4828  0.6568 -0.9439
  799MOL0     C 7732   2.237   3.762   2.890 -1.9241 -0.1813  0.7014
  799MOL0     O 7733   2.170   3.815   2.995 -0.3359 -0.4906  0.3094
  799MOL0     C 7734   2.039   3.845   2.968 -0.2291  0.5679 -0.6820
  799MOL0     C 7735   2.003   3.940   2.874  0.1224 -0.7375 -0.3457
  799MOL0     C 7736   1.873   3.995   2.870 -0.0264 -0.2176 -0.0401
  799MOL0     C 7737   1.787   3.958   2.978  0.4835 -0.3913  0.3304
  799MOL0     O 7738   1.659   4.015   2.970 -0.9466  0.2885  0.7765
  799MOL0     C 7739   1.556   3.927   2.923  0.2462 -0.0638 -0.8984
  799MOL0     C 7740   1.435   4.006   2.875  0.2408 -0.8645 -0.1315
  799MOL0     C 7741   1.468   4.079   2.752 -0.1266 -0.0151 -0.2521
  799MOL0     C 7742   1.338   4.120   2.680  1.1117  0.5352  0.7059
  799MOL0     C 7743   1.360   4.153   2.530 -0.8266  0.0720 -0.3795
  799MOL0     C 7744   1.235   4.211   2.464  0.7852 -0.3620 -0.0574
  799MOL0     C 7745   1.209   4.189   2.313  0.8690  0.1202 -1.2295
  799MOL0     C 7746   1.058   4.199   2.278 -0.0585  0.6899  0.0601
  799MOL0     N 7747   0.971   4.313   2.329 -0.5348  0.9767  0.2162
  799MOL0     C 7748   1.013   4.442   2.332  1.2243  0.3450  0.1229
  799MOL0     C 7749   0.907   4.519   2.361 -0.0608  0.5566 -0.3703
  799MOL0     C 7750   0.889   4.670   2.382  0.2786  0.3495 -0.0674
  799MOL0     C 7751   0.884   4.756   2.256  0.2779 -0.3340  0.2613
  799MOL0     C 7752   0.896   4.910   2.265 -0.9562 -0.3443  0.2809
  799MOL0     C 7753   0.892   4.970   2.118 -0.2407 -0.0824 -0.3719
  799MOL0     O 7754   0.891   5.117   2.126  0.4677  0.4488  0.0838
  799MOL0     C 7755   1.009   5.197   2.140 -0.0123 -0.3303  0.4531
  799MOL0     C 7756   1.122   5.186   2.054  0.1002  0.6140 -0.3083
  799MOL0     C 7757   1.219   5.278   2.062 -0.5034 -0.2881 -0.4592
  799MOL0     C 7758   1.321   5.276   1.942 -0.5293  0.4805  0.0899
  799MOL0     C 7759   1.223   5.378   2.155 -0.0359 -0.1268  0.4849
  799MOL0     C 7760   1.332   5.473   2.162  1.4617 -0.2220 -0.3575
  799MOL0     O 7761   1.330   5.584   2.077  0.0958  0.2515  0.5083
  799MOL0     C 7762   1.444   5.659   2.063 -0.3780 -0.3227  0.2758
  799MOL0     C 7763   1.505   5.663   1.942 -0.1680 -0.8200  0.0358
  799MOL0     C 7764   1.622   5.729   1.914 -0.0908  0.7840  0.6241
  799MOL0     C 7765   1.669   5.819   2.013  0.5867 -0.1286  0.8473
  799MOL0     O 7766   1.783   5.902   1.991 -0.4764 -0.3257 -0.5815
  799MOL0     C 7767   1.894   5.844   1.918  0.0913  0.6286  0.5860
  799MOL0     C 7768   1.893   5.892   1.760 -0.1673 -0.5444 -0.2888
  799MOL0     C 7769   2.021   5.834   1.679  0.0425 -0.5990 -0.2268
  799MOL0     C 7770   1.982   5.818   1.525  0.1174  0.4927 -0.6157
  799MOL0     C 7771   2.097   5.773   1.436 -0.4082  0.3331 -0.0619
  799MOL0     C 7772   2.041   5.753   1.289 -0.1834 -0.5429 -0.2334
  799MOL0     C 7773   2.156   5.755   1.185  0.0170  0.4208  0.2522
  799MOL0     C 7774   2.109   5.780   1.035  0.3408 -0.8321  0.2379
  799MOL0    Cl 7775   1.982   5.916   1.012 -0.6560 -0.0104 -0.5525
  799MOL0     C 7776   1.616   5.831   2.144 -0.1058  0.2567  0.0826
  799MOL0     C 7777   1.492   5.751   2.168 -0.3646  0.0381 -0.1301
  799MOL0     O 7778   1.429   5.436   2.225 -0.3754  0.3580  0.4625
  799MOL0     C 7779   1.118   5.382   2.243  0.6164 -0.2804 -0.6177
  799MOL0     C 7780   1.013   5.303   2.228  0.9325  0.4919  0.5075
  799MOL0     N 7781   0.805   4.426   2.388  0.4934 -0.7155 -0.2798
  799MOL0     N 7782   0.844   4.303   2.373 -0.1103  0.3563  0.1103
  799MOL0     C 7783   1.809   3.860   3.070  0.8170  0.3813  0.0686
  799MOL0     C 7784   1.941   3.807   3.067  0.0552 -0.1523  1.2337
  799MOL0     C 7785   2.373   3.709   2.914  0.0053 -0.1882 -0.5537
  799MOL0     C 7786   2.447   3.652   2.804 -0.2147  0.5202 -0.0656
  799MOL0     C 7787   2.581   3.630   2.809 -0.2288  0.7889  0.0671
  799MOL0     C 7788   2.654   3.640   2.934  0.5854  0.1228 -0.2593
  799MOL0     O 7789   2.786   3.596   2.937  0.8977  0.0990 -0.0729
  799MOL0     C 7790   2.836   3.551   2.807  0.5852 -0.3365 -0.6294
  799MOL0     C 7791   2.987   3.500   2.805  0.7230  0.3041  0.0139
  799MOL0     C 7792   3.078   3.599   2.865  0.2441  1.1137 -0.0209
  799MOL0     C 7793   3.231   3.565   2.862  0.0968 -0.6553  0.9555
  799MOL0     C 7794   3.308   3.676   2.923  0.7177  0.1606 -0.3669
  799MOL0     C 7795   3.381   3.751   2.977  0.0576 -0.5596  0.2538
  799MOL0     C 7796   2.577   3.691   3.043 -0.3713  0.5721 -1.1857
  799MOL0     C 7797   2.443   3.731   3.034  0.2003 -0.4685  0.3215
  799MOL0     H 7798   2.087   3.972   2.813 -0.3737 -0.5856 -0.9712
  799MOL0     H 7799   1.852   4.074   2.800  1.0143  1.6506  1.6476
  799MOL0     H 7800   1.584   3.859   2.842 -0.4378 -1.7934  0.2685
  799MOL0     H 7801   1.536   3.858   3.004 -1.0945  1.0845 -0.2037
  799MOL0     H 7802   1.351   3.941   2.850 -0.1792 -1.9209  3.5294
  799MOL0     H 7803   1.403   4.082   2.947 -0.4358  2.1374 -3.2846
  799MOL0     H 7804   1.537   4.162   2.769 -0.2102  0.1269 -0.5932
  799MOL0     H 7805   1.528   4.009   2.693  0.5239  0.0620  0.3076
  799MOL0     H 7806   1.255   4.050   2.677  0.6680  1.0758  0.0426
  799MOL0     H 7807   1.306   4.211   2.733 -0.0939  2.4026 -2.8679
  799MOL0     H 7808   1.442   4.221   2.504 -0.7208  0.1165  0.0597
  799MOL0     H 7809   1.377   4.055   2.486  3.4391  0.2350  0.5206
  799MOL0     H 7810   1.144   4.177   2.515 -0.7454  2.0387 -1.0368
  799MOL0     H 7811   1.237   4.320   2.466 -2.5984 -0.1956  0.2692
  799MOL0     H 7812   1.269   4.271   2.273  3.9132 -0.8310  1.0461
  799MOL0     H 7813   1.254   4.095   2.278  3.1648  0.3255  0.9583
  799MOL0     H 7814   1.020   4.103   2.314  4.0456 -1.3456 -0.3663
  799MOL0     H 7815   1.049   4.213   2.170 -4.8655 -0.6241  0.0774
  799MOL0     H 7816   1.111   4.487   2.322  0.8515  1.8279  2.3550
  799MOL0     H 7817   0.797   4.685   2.441 -1.0723  1.0864 -2.2550
  799MOL0     H 7818   0.972   4.706   2.443  0.2957  2.6858 -1.3654
  799MOL0     H 7819   0.785   4.718   2.232  0.2538 -1.5582  2.0430
  799MOL0     H 7820   0.948   4.716   2.177 -1.9138  0.1896 -1.8822
  799MOL0     H 7821   0.995   4.924   2.310 -0.7707 -0.9915  0.0880
  799MOL0     H 7822   0.816   4.954   2.325 -1.1535 -1.3751  0.7928
  799MOL0     H 7823   0.803   4.933   2.068  0.6956 -2.8673 -0.1327
  799MOL0     H 7824   0.981   4.932   2.067  0.3052 -0.4215  0.7887
  799MOL0     H 7825   1.127   5.114   1.973 -0.2799 -0.2462  0.4189
  799MOL0     H 7826   1.415   5.283   1.997 -1.0540 -2.4414  1.5146
  799MOL0     H 7827   1.324   5.177   1.895 -0.0246  0.5693 -0.0801
  799MOL0     H 7828   1.304   5.362   1.877  2.1076  0.8394 -0.2659
  799MOL0     H 7829   1.467   5.598   1.863  1.0614 -1.0701 -0.3732
  799MOL0     H 7830   1.657   5.728   1.812 -3.9269  0.8743 -0.8522
  799MOL0     H 7831   1.987   5.861   1.972 -0.1481  1.3279  0.7843
  799MOL0     H 7832   1.882   5.737   1.897 -2.3695  1.2756 -2.0517
  799MOL0     H 7833   1.801   5.844   1.726 -0.3763 -0.5748  0.3099
  799MOL0     H 7834   1.879   6.001   1.760  1.2942 -0.3112  1.3723
  799MOL0     H 7835   2.052   5.738   1.721 -1.9677 -1.6990 -1.1077
  799MOL0     H 7836   2.105   5.902   1.696  0.1425 -0.7307 -0.1916
  799MOL0     H 7837   1.899   5.747   1.529  1.3858 -0.9839  2.9202
  799MOL0     H 7838   1.939   5.915   1.497  0.7917  0.3852 -2.1269
  799MOL0     H 7839   2.141   5.675   1.454 -0.1413 -0.7908 -5.3285
  799MOL0     H 7840   2.179   5.845   1.432 -1.1844  1.2580  0.1759
  799MOL0     H 7841   1.979   5.663   1.278 -0.4909 -0.6055  1.7296
  799MOL0     H 7842   1.990   5.849   1.279 -0.3468 -0.4090  1.6381
  799MOL0     H 7843   2.217   5.664   1.186 -0.4535  0.0952  0.7931
  799MOL0     H 7844   2.218   5.840   1.211 -1.0388  0.8580  1.4667
  799MOL0     H 7845   2.063   5.690   0.994 -2.4864  0.9991 -0.8335
  799MOL0     H 7846   2.197   5.801   0.973  2.7800 -3.5728  2.4564
  799MOL0     H 7847   1.658   5.885   2.229 -0.8050  0.1117  0.5334
  799MOL0     H 7848   1.435   5.753   2.261  0.0844 -2.8873  0.3108
  799MOL0     H 7849   1.119   5.458   2.321 -2.4377 -0.3469 -0.3833
  799MOL0     H 7850   0.927   5.311   2.293 -0.0860  1.3316 -0.8894
  799MOL0     H 7851   1.731   3.831   3.139  0.1679  0.9088 -0.4321
  799MOL0     H 7852   1.981   3.749   3.150 -0.4467  0.0975  1.6617
  799MOL0     H 7853   2.399   3.658   2.707  0.3106 -0.9048 -0.4349
  799MOL0     H 7854   2.622   3.594   2.715  4.3160  1.6801  1.4541
  799MOL0     H 7855   2.773   3.464   2.786  0.7558  0.0819 -3.2467
  799MOL0     H 7856   2.828   3.628   2.729  0.0975  0.7810  0.4805
  799MOL0     H 7857   2.999   3.474   2.699 -3.5897  1.1651 -0.9073
  799MOL0     H 7858   2.975   3.417   2.876 -1.8860  1.7656  1.4296
  799MOL0     H 7859   3.057   3.612   2.972 -2.4981  6.6214 -0.8858
  799MOL0     H 7860   3.055   3.692   2.813  1.0022  1.0419 -0.4973
  799MOL0     H 7861   3.267   3.574   2.759 -1.5382  2.8446  0.5469
  799MOL0     H 7862   3.255   3.472   2.914  0.5894 -0.0226  1.9002
  799MOL0     H 7863   3.442   3.833   3.011 -0.2225  0.5823 -1.8193
  799MOL0     H 7864   2.631   3.717   3.134 -3.4072  0.0419  0.9087
  799MOL0     H 7865   2.388   3.762   3.122 -1.0461 -1.4107 -0.0946
  800MOL0     O 7866   9.951   2.956   0.441 -0.2515  0.8436  0.2257
  800MOL0     C 7867  10.022   2.915   0.351  0.3441 -0.3034  0.0245
  800MOL0     O 7868   9.981   2.888   0.224  0.1692  0.1767 -0.1231
  800MOL0     C 7869   9.857   2.911   0.180  0.8685  0.9422 -0.6678
  800MOL0     C 7870   9.736   2.872   0.250 -0.7424 -0.6407  0.4970
  800MOL0     C 7871   9.610   2.882   0.180 -0.6866 -0.1364 -0.6230
  800MOL0     C 7872   9.620   2.941   0.048 -0.3546  0.1199  0.4702
  800MOL0     O 7873   9.505   2.964  -0.015  0.3762  1.2847  0.0169
  800MOL0     C 7874   9.469   2.866  -0.127 -0.7471 -0.5048 -0.0152
  800MOL0     C 7875   9.317   2.833  -0.127 -0.1049  0.6598  0.9420
  800MOL0     C 7876   9.316   2.725  -0.026 -0.2022 -0.1705 -0.4492
  800MOL0     C 7877   9.175   2.683   0.011  0.0742 -1.0460 -0.0106
  800MOL0     C 7878   9.164   2.577   0.123  0.6115 -0.4473 -0.4776
  800MOL0     C 7879   9.016   2.516   0.133 -0.0113  0.2856 -0.1707
  800MOL0     C 7880   8.918   2.600   0.220  0.1283 -0.3278 -1.0769
  800MOL0     C 7881   8.780   2.518   0.240 -0.1615 -0.5297  0.3106
  800MOL0     N 7882   8.787   2.400   0.323 -0.4435 -0.0591  0.0058
  800MOL0     C 7883   8.812   2.397   0.460  0.4323  0.6792 -0.2245
  800MOL0     C 7884   8.809   2.265   0.494  0.3285  0.5894 -0.3048
  800MOL0     C 7885   8.843   2.204   0.626  0.4444 -0.2597 -0.1398
  800MOL0     C 7886   8.765   2.081   0.655  0.7413 -0.5498 -0.0500
  800MOL0     C 7887   8.809   1.948   0.571 -0.1635 -0.1450 -0.0240
  800MOL0     C 7888   8.745   1.819   0.630  0.1009 -0.4595 -0.1286
  800MOL0     O 7889   8.643   1.790   0.532  0.1704  0.7711 -0.0365
  800MOL0     C 7890   8.514   1.759   0.564 -0.6334  0.2751 -0.4510
  800MOL0     C 7891   8.449   1.804   0.684  0.6905 -0.1849 -0.0689
  800MOL0     C 7892   8.312   1.776   0.703 -0.0523  0.5712 -0.6545
  800MOL0     C 7893   8.248   1.851   0.820  0.4624 -0.3396  0.0352
  800MOL0     C 7894   8.243   1.708   0.601  0.2568  0.1602  0.0307
  800MOL0     C 7895   8.095   1.692   0.605  0.5674  0.3727  0.0058
  800MOL0     O 7896   8.038   1.692   0.484  0.0630  0.7801 -0.7535
  800MOL0     C 7897   7.910   1.637   0.490  0.2464  0.7079  0.3316
  800MOL0     C 7898   7.889   1.514   0.421  0.5304 -0.1626  0.3110
  800MOL0     C 7899   7.759   1.452   0.428 -0.6097  0.1323 -0.8647
  800MOL0     C 7900   7.649   1.529   0.487 -0.8094  0.2477  0.6194
  800MOL0     O 7901   7.524   1.475   0.494 -0.9471 -0.2307  0.0225
  800MOL0     C 7902   7.490   1.416   0.609  0.1908  0.5488 -0.2246
  800MOL0     C 7903   7.360   1.350   0.594  0.2545 -0.2074 -0.4319
  800MOL0     C 7904   7.349   1.238   0.707  0.4613  0.6816  0.2519
  800MOL0     C 7905   7.221   1.164   0.712  0.0669 -0.0782  0.0668
  800MOL0     C 7906   7.223   1.049   0.817  0.4033 -0.3867 -0.1735
  800MOL0     C 7907   7.095   0.963   0.813  0.6325 -0.7989  0.1444
  800MOL0     C 7908   6.974   1.054   0.853 -0.8535  0.0633 -0.0340
  800MOL0     C 7909   6.876   0.988   0.950  0.0095  0.2176  0.2037
  800MOL0    Cl 7910   6.797   0.836   0.879 -0.2628 -0.1701 -0.4178
  800MOL0     C 7911   7.668   1.657   0.521 -0.6589 -0.6467  1.9942
  800MOL0     C 7912   7.793   1.705   0.530 -0.1373 -0.4704  0.1798
  800MOL0     O 7913   8.030   1.679   0.711 -0.0650  0.6956 -1.2703
  800MOL0     C 7914   8.309   1.665   0.491  0.7614 -0.7131 -0.0083
  800MOL0     C 7915   8.445   1.697   0.467  0.5248 -0.1614 -0.0346
  800MOL0     N 7916   8.778   2.199   0.374  0.7884 -0.0599  0.1339
  800MOL0     N 7917   8.754   2.278   0.277  0.6696 -0.0962 -0.4317
  800MOL0     C 7918   9.741   2.985  -0.007  0.4235 -0.7250 -0.2498
  800MOL0     C 7919   9.866   2.961   0.048  0.1748 -0.3167 -0.8066
  800MOL0     C 7920  10.164   2.896   0.370  0.0091  0.3760 -0.3697
  800MOL0     C 7921  10.216   2.916   0.501 -0.3020 -0.3864  0.0524
  800MOL0     C 7922  10.354   2.895   0.515 -0.4585 -0.3462  0.2218
  800MOL0     C 7923  10.437   2.848   0.418  0.5392  0.1174 -0.5088
  800MOL0     O 7924  10.569   2.828   0.448 -0.1945  0.5075  0.3764
  800MOL0     C 7925  10.668   2.766   0.351  1.5200  0.7776  0.1116
  800MOL0     C 7926  10.737   2.884   0.280 -0.0812 -0.1992  0.2753
  800MOL0     C 7927  10.819   2.831   0.154  0.3087 -0.0669 -0.5941
  800MOL0     C 7928  10.737   2.775   0.036 -0.5025 -0.1826 -1.6378
  800MOL0     C 7929  10.814   2.751  -0.090  0.6466 -0.9817 -0.1796
  800MOL0     C 7930  10.851   2.739  -0.204  0.4340 -0.3411 -0.3942
  800MOL0     C 7931  10.380   2.830   0.292 -1.1012  0.1720 -0.3223
  800MOL0     C 7932  10.246   2.844   0.274 -0.3268  0.6067  0.6688
  800MOL0     H 7933   9.743   2.847   0.356 -2.4365  1.4640  1.1815
  800MOL0     H 7934   9.521   2.840   0.226  0.9746 -0.3160  2.7930
  800MOL0     H 7935   9.499   2.925  -0.214  1.9166  2.0861  2.4210
  800MOL0     H 7936   9.538   2.784  -0.109  0.7841  1.1563  2.2046
  800MOL0     H 7937   9.256   2.923  -0.116 -0.7798  0.5369 -1.2834
  800MOL0     H 7938   9.303   2.779  -0.221  3.0460 -0.2351  0.8733
  800MOL0     H 7939   9.367   2.637  -0.067  2.5180  2.2530 -2.6206
  800MOL0     H 7940   9.374   2.755   0.062  0.3675 -1.6829 -0.2760
  800MOL0     H 7941   9.124   2.772   0.048  1.2053 -0.4636  0.1760
  800MOL0     H 7942   9.129   2.658  -0.085  0.8468  1.1178 -0.9939
  800MOL0     H 7943   9.232   2.494   0.102 -0.4391 -1.7203  0.8985
  800MOL0     H 7944   9.195   2.623   0.217  0.5577 -0.1598 -0.5994
  800MOL0     H 7945   8.965   2.514   0.037  2.1213  0.0466 -1.3723
  800MOL0     H 7946   9.038   2.420   0.180  1.0387  0.6906  0.2047
  800MOL0     H 7947   8.959   2.626   0.318 -2.4803 -1.3008  0.3777
  800MOL0     H 7948   8.891   2.691   0.166 -0.8850 -0.1177 -0.2498
  800MOL0     H 7949   8.741   2.495   0.141 -0.0702  2.0824 -0.3963
  800MOL0     H 7950   8.704   2.577   0.292 -0.2729  2.0231 -2.4919
  800MOL0     H 7951   8.840   2.480   0.524 -1.0877  0.0592  1.3265
  800MOL0     H 7952   8.950   2.186   0.635  0.8935  2.6470  1.8534
  800MOL0     H 7953   8.821   2.283   0.699  1.4454 -0.3006  0.2244
  800MOL0     H 7954   8.665   2.113   0.627  0.4101 -1.1667  0.3946
  800MOL0     H 7955   8.762   2.073   0.764 -1.6432  1.0384  0.0710
  800MOL0     H 7956   8.917   1.935   0.582 -0.5805 -1.7211  3.8374
  800MOL0     H 7957   8.781   1.967   0.467 -1.3905  0.1869  0.3603
  800MOL0     H 7958   8.708   1.824   0.733 -2.6381  3.1295 -1.0833
  800MOL0     H 7959   8.822   1.743   0.615 -0.5575 -0.6131 -3.7244
  800MOL0     H 7960   8.487   1.868   0.763  0.0005  0.6997 -0.4372
  800MOL0     H 7961   8.185   1.776   0.868  0.2937  0.9216  1.8892
  800MOL0     H 7962   8.309   1.879   0.907  0.4224  0.3199 -0.1433
  800MOL0     H 7963   8.182   1.929   0.782 -2.8798 -1.2559  3.3516
  800MOL0     H 7964   7.973   1.453   0.388  1.0422 -1.3346  3.4359
  800MOL0     H 7965   7.739   1.352   0.391  1.2013 -0.3471 -0.6036
  800MOL0     H 7966   7.566   1.338   0.618  0.7167  1.1951  1.2281
  800MOL0     H 7967   7.493   1.476   0.700 -0.8106 -2.1673  1.7345
  800MOL0     H 7968   7.275   1.417   0.611  0.2463  0.0209 -1.3276
  800MOL0     H 7969   7.346   1.301   0.497 -3.3927 -2.4805  1.0312
  800MOL0     H 7970   7.366   1.267   0.811  0.8006 -0.2612  0.4757
  800MOL0     H 7971   7.426   1.163   0.687  1.5700  1.6361  0.8049
  800MOL0     H 7972   7.136   1.226   0.740 -1.1035 -2.0667  1.1394
  800MOL0     H 7973   7.202   1.122   0.613  2.6897 -1.9629  0.2260
  800MOL0     H 7974   7.245   1.095   0.914 -4.0035 -1.2547  1.4764
  800MOL0     H 7975   7.308   0.986   0.791 -0.4677 -0.8840 -1.9554
  800MOL0     H 7976   7.069   0.927   0.713 -1.3150 -2.7114  1.2419
  800MOL0     H 7977   7.091   0.880   0.884 -1.3868 -0.7948  0.1007
  800MOL0     H 7978   6.923   1.090   0.763 -1.1995  1.8464  0.8361
  800MOL0     H 7979   7.005   1.152   0.891 -1.0115  0.7378 -1.5730
  800MOL0     H 7980   6.805   1.064   0.984 -1.4907 -1.7042  1.6247
  800MOL0     H 7981   6.913   0.958   1.048 -0.5062  0.3227  0.4360
  800MOL0     H 7982   7.588   1.721   0.555 -2.9911 -0.8175 -2.4538
  800MOL0     H 7983   7.801   1.804   0.573  1.7396  0.0777 -1.2877
  800MOL0     H 7984   8.253   1.621   0.410 -1.9750  1.9553  0.2945
  800MOL0     H 7985   8.487   1.678   0.368 -0.1407 -0.7251 -0.2212
  800MOL0     H 7986   9.739   3.031  -0.105 -0.0724  0.6801  0.3982
  800MOL0     H 7987   9.964   2.970   0.001  0.0771  1.0767 -0.7896
  800MOL0     H 7988  10.162   2.956   0.586  1.4334  1.7765  0.2189
  800MOL0     H 7989  10.396   2.906   0.614  0.1243  1.4408 -0.1769
  800MOL0     H 7990  10.734   2.715   0.421  0.2574 -1.1368 -0.0258
  800MOL0     H 7991  10.624   2.684   0.294 -0.3562  1.5535  0.3451
  800MOL0     H 7992  10.811   2.933   0.343  3.5137 -2.2544 -2.0451
  800MOL0     H 7993  10.669   2.967   0.254  0.4755 -0.1005 -0.9190
  800MOL0     H 7994  10.889   2.757   0.193 -0.0996 -0.1074  0.0880
  800MOL0     H 7995  10.863   2.924   0.118  0.3539 -0.2333 -0.9718
  800MOL0     H 7996  10.647   2.835   0.018 -3.2646 -3.7776 -1.1466
  800MOL0     H 7997  10.703   2.678   0.073  2.5967 -2.2729 -3.8637
  800MOL0     H 7998  10.876   2.709  -0.304  1.3580 -4.0424  0.7724
  800MOL0     H 7999  10.428   2.795   0.202  1.5170  1.0169  0.6455
  800MOL0     H 8000  10.205   2.802   0.183 -2.3194  4.3338 -0.3627
  801MOL0     O 8001  11.363   8.034   2.197  1.1901  0.2618 -0.0000
  801MOL0     C 8002  11.443   8.121   2.156  1.3119  0.7007 -0.5161
  801MOL0     O 8003  11.506   8.112   2.033 -0.1353  0.3386 -0.1434
  801MOL0     C 8004  11.617   8.194   1.989 -0.2948 -0.5040 -0.7529
  801MOL0     C 8005  11.608   8.322   1.929  0.1035  0.2834  0.3195
  801MOL0     C 8006  11.718   8.389   1.886 -0.6968  0.1346  0.2542
  801MOL0     C 8007  11.851   8.341   1.917  0.2697  0.3382  0.7936
  801MOL0     O 8008  11.975   8.384   1.878 -0.0046 -0.8183 -0.3187
  801MOL0     C 8009  11.971   8.473   1.762 -0.3067 -0.0155  0.5427
  801MOL0     C 8010  12.115   8.496   1.721  0.5631  1.0699 -0.0216
  801MOL0     C 8011  12.123   8.621   1.633  0.4499 -0.0289  0.2038
  801MOL0     C 8012  12.114   8.739   1.730 -0.6958 -0.2845  0.1114
  801MOL0     C 8013  12.104   8.879   1.656  0.1793 -1.3595  0.3101
  801MOL0     C 8014  11.962   8.893   1.586 -0.5759  0.3454 -0.1817
  801MOL0     C 8015  11.895   9.027   1.599  0.6918 -0.0960 -0.8824
  801MOL0     C 8016  11.828   9.049   1.744 -0.1246 -0.2003 -0.9100
  801MOL0     N 8017  11.930   9.104   1.846 -0.4243  0.2982 -0.4543
  801MOL0     C 8018  12.002   9.032   1.936  0.4245 -0.7177  0.2921
  801MOL0     C 8019  12.087   9.130   2.001  0.1396  0.3205  0.0054
  801MOL0     C 8020  12.180   9.105   2.116 -1.2599  0.1185  0.8437
  801MOL0     C 8021  12.302   9.020   2.071 -0.9172 -0.3827 -0.1694
  801MOL0     C 8022  12.393   8.976   2.192 -0.9599  1.0115  0.6325
  801MOL0     C 8023  12.445   9.096   2.282 -0.2096 -0.4512 -0.0548
  801MOL0     O 8024  12.344   9.161   2.358 -0.3504  0.3340  0.2887
  801MOL0     C 8025  12.360   9.172   2.498 -0.0650 -0.2288  1.7409
  801MOL0     C 8026  12.482   9.158   2.575 -0.3865 -0.0474 -0.5160
  801MOL0     C 8027  12.487   9.188   2.709 -0.1481 -0.1239  0.0971
  801MOL0     C 8028  12.623   9.180   2.770  0.5813  0.3668  0.6739
  801MOL0     C 8029  12.369   9.235   2.777  0.5241 -1.2413  0.5451
  801MOL0     C 8030  12.364   9.272   2.914 -0.1560 -0.0541  0.5982
  801MOL0     O 8031  12.246   9.239   2.975  0.1817 -0.2421  0.7534
  801MOL0     C 8032  12.209   9.326   3.073 -0.8224  0.3031 -0.4932
  801MOL0     C 8033  12.244   9.293   3.211  0.4124 -0.9401  0.5695
  801MOL0     C 8034  12.208   9.388   3.313 -0.1903 -0.0924 -0.0355
  801MOL0     C 8035  12.151   9.510   3.292 -0.0174 -0.6911  1.5215
  801MOL0     O 8036  12.108   9.590   3.396  0.0742 -0.3668  0.0788
  801MOL0     C 8037  12.202   9.614   3.498  0.0851 -0.4809 -0.4435
  801MOL0     C 8038  12.235   9.764   3.534 -0.1013 -0.6863 -0.2107
  801MOL0     C 8039  12.113   9.847   3.548  0.6884 -0.1839 -1.4551
  801MOL0     C 8040  12.111   9.966   3.644 -0.0461 -0.8203  0.3949
  801MOL0     C 8041  12.150  10.102   3.583 -0.2744 -0.2251  0.2055
  801MOL0     C 8042  12.305  10.121   3.547 -0.0146 -0.6858  0.0604
  801MOL0     C 8043  12.383  10.144   3.681  0.0573 -0.1287  0.7978
  801MOL0     C 8044  12.531  10.127   3.652  0.1608  0.0288  0.4843
  801MOL0    Cl 8045  12.592  10.277   3.573 -0.9102 -0.0267 -0.1132
  801MOL0     C 8046  12.126   9.542   3.154  0.3173 -0.6013 -0.0904
  801MOL0     C 8047  12.167   9.461   3.051  0.7710  0.5730  0.0834
  801MOL0     O 8048  12.456   9.331   2.963 -0.1412 -0.0243  1.0295
  801MOL0     C 8049  12.251   9.236   2.699 -0.2084 -0.6984 -0.6702
  801MOL0     C 8050  12.250   9.201   2.560  0.0357  0.3321 -0.5367
  801MOL0     N 8051  12.063   9.248   1.930 -0.3591  0.4177 -0.5546
  801MOL0     N 8052  11.984   9.227   1.835  0.5173  0.5289  0.1956
  801MOL0     C 8053  11.866   8.230   1.990  0.2822 -0.0800 -0.1468
  801MOL0     C 8054  11.751   8.155   2.016 -0.6168  0.5731  0.7046
  801MOL0     C 8055  11.474   8.231   2.255  0.8474 -0.0131 -0.1287
  801MOL0     C 8056  11.598   8.282   2.278  0.4153 -0.7937  0.2539
  801MOL0     C 8057  11.606   8.402   2.355  0.4622  0.2811 -0.1628
  801MOL0     C 8058  11.491   8.464   2.405  0.3556  0.1855  0.9944
  801MOL0     O 8059  11.482   8.571   2.490 -0.3794  0.0240 -0.5161
  801MOL0     C 8060  11.577   8.681   2.491  0.1493 -0.6816 -0.7581
  801MOL0     C 8061  11.518   8.806   2.556 -0.3894  0.9061 -0.9758
  801MOL0     C 8062  11.371   8.825   2.520 -0.2799  0.2619 -0.3641
  801MOL0     C 8063  11.338   8.971   2.581  0.9520  0.0666  0.1936
  801MOL0     C 8064  11.200   9.011   2.537 -0.9028  0.3391  0.3096
  801MOL0     C 8065  11.100   9.047   2.484  0.7446  0.4817 -0.9200
  801MOL0     C 8066  11.365   8.414   2.374 -0.1029  0.7207 -0.3915
  801MOL0     C 8067  11.361   8.292   2.308  0.4063 -0.0302  0.2858
  801MOL0     H 8068  11.510   8.363   1.906  0.1562 -0.3130 -1.0431
  801MOL0     H 8069  11.711   8.473   1.817 -0.7112 -1.7061 -2.1203
  801MOL0     H 8070  11.902   8.439   1.684  2.3716 -2.2720 -1.0457
  801MOL0     H 8071  11.922   8.570   1.772 -3.2176 -0.6946 -4.0709
  801MOL0     H 8072  12.171   8.496   1.815 -1.5608  0.2962  1.3013
  801MOL0     H 8073  12.139   8.400   1.674 -1.5057  1.3612 -1.8457
  801MOL0     H 8074  12.224   8.626   1.591  1.2143 -2.4862  1.5436
  801MOL0     H 8075  12.048   8.628   1.553  2.1050 -3.1198 -1.7850
  801MOL0     H 8076  12.033   8.729   1.802 -1.3601 -4.1146 -0.9435
  801MOL0     H 8077  12.206   8.744   1.790  0.7201  0.5232 -1.9924
  801MOL0     H 8078  12.139   8.958   1.724  2.9367 -1.6430 -0.6534
  801MOL0     H 8079  12.181   8.870   1.578  0.0006 -5.9401  0.3888
  801MOL0     H 8080  11.962   8.860   1.482 -1.8051  1.1887 -0.4673
  801MOL0     H 8081  11.898   8.815   1.628 -1.2351 -0.6429 -2.8429
  801MOL0     H 8082  11.966   9.106   1.571  1.4581 -0.7212 -0.7602
  801MOL0     H 8083  11.817   9.024   1.522  0.6473 -3.9063 -0.8489
  801MOL0     H 8084  11.778   8.961   1.786  0.2993 -0.1144 -0.2233
  801MOL0     H 8085  11.762   9.137   1.748  0.4953  0.2224  1.7266
  801MOL0     H 8086  11.978   8.929   1.962  0.3212 -0.4346  1.3659
  801MOL0     H 8087  12.204   9.204   2.156 -2.3052 -0.0888  2.0500
  801MOL0     H 8088  12.131   9.054   2.199  0.0079 -2.0144  0.3439
  801MOL0     H 8089  12.365   9.074   2.000 -3.3370  0.4200 -1.8212
  801MOL0     H 8090  12.262   8.929   2.026  0.3371 -1.3987  0.6804
  801MOL0     H 8091  12.475   8.913   2.157 -0.9902  1.1464  0.3116
  801MOL0     H 8092  12.337   8.908   2.256  0.7671 -2.7273 -1.5428
  801MOL0     H 8093  12.491   9.164   2.210  1.0746  0.9840  2.0177
  801MOL0     H 8094  12.518   9.059   2.354  0.5260 -4.0042 -2.3716
  801MOL0     H 8095  12.574   9.129   2.525 -0.9004  2.3249 -3.0973
  801MOL0     H 8096  12.653   9.283   2.792 -0.3209  2.5120 -6.0207
  801MOL0     H 8097  12.624   9.121   2.863  3.3368  1.0989  1.2114
  801MOL0     H 8098  12.700   9.128   2.713 -0.5821 -0.3989 -0.2500
  801MOL0     H 8099  12.281   9.194   3.233  1.9034 -0.5770 -0.1769
  801MOL0     H 8100  12.222   9.353   3.415  0.5310  0.4275  0.0513
  801MOL0     H 8101  12.158   9.575   3.591 -3.6881  0.0052 -1.8511
  801MOL0     H 8102  12.298   9.562   3.484 -2.0228 -4.1962 -2.9540
  801MOL0     H 8103  12.283   9.762   3.632 -2.0985 -2.7097  0.8149
  801MOL0     H 8104  12.299   9.802   3.454  0.1678 -1.4532 -0.3651
  801MOL0     H 8105  12.029   9.790   3.589 -1.8354  4.6391  0.9307
  801MOL0     H 8106  12.073   9.878   3.452 -0.2643  0.9570 -0.7162
  801MOL0     H 8107  12.009   9.973   3.683 -0.3416 -1.0791 -0.3203
  801MOL0     H 8108  12.173   9.943   3.731  1.0392  0.1863 -0.0795
  801MOL0     H 8109  12.132  10.182   3.656  1.5417  1.5195 -1.1473
  801MOL0     H 8110  12.082  10.121   3.499 -1.3981 -2.6909  0.4915
  801MOL0     H 8111  12.341  10.035   3.490 -3.6640 -0.7184 -2.5599
  801MOL0     H 8112  12.309  10.216   3.492 -0.8845 -0.8293 -0.2779
  801MOL0     H 8113  12.346  10.061   3.741 -1.7502 -1.9795 -2.5240
  801MOL0     H 8114  12.361  10.242   3.723 -0.2405  0.4042 -0.5232
  801MOL0     H 8115  12.543  10.035   3.594 -0.5493 -1.2959  2.3401
  801MOL0     H 8116  12.579  10.111   3.749  1.0459 -1.1517 -0.1076
  801MOL0     H 8117  12.092   9.643   3.132 -1.2654 -1.3670 -1.4272
  801MOL0     H 8118  12.163   9.504   2.952 -3.0246  0.8515  0.1840
  801MOL0     H 8119  12.157   9.256   2.750  0.8751  1.4469  0.6495
  801MOL0     H 8120  12.157   9.205   2.505 -0.9892 -0.5117  1.0655
  801MOL0     H 8121  11.965   8.200   2.025  0.1184 -2.6458 -1.6838
  801MOL0     H 8122  11.769   8.064   2.071 -0.6625 -0.7280 -1.3233
  801MOL0     H 8123  11.686   8.231   2.239  1.3772  0.0645  1.2383
  801MOL0     H 8124  11.696   8.449   2.393 -0.5925  3.3739 -1.1479
  801MOL0     H 8125  11.668   8.666   2.550  0.4226  0.9164 -0.7296
  801MOL0     H 8126  11.607   8.698   2.387  0.8626  2.6817 -0.0896
  801MOL0     H 8127  11.573   8.895   2.526  1.8137 -1.1856 -3.7423
  801MOL0     H 8128  11.532   8.801   2.664 -2.0837  0.5612 -0.7440
  801MOL0     H 8129  11.306   8.746   2.558  0.8608  0.4450  2.1555
  801MOL0     H 8130  11.360   8.824   2.411 -1.3116  0.8936 -0.2835
  801MOL0     H 8131  11.405   9.046   2.538 -0.6652  0.9030 -0.9828
  801MOL0     H 8132  11.347   8.963   2.690 -1.9506 -1.0820  0.4472
  801MOL0     H 8133  11.013   9.074   2.427  1.3822 -2.1676 -3.3557
  801MOL0     H 8134  11.275   8.461   2.411  0.3428 -0.2740  2.1650
  801MOL0     H 8135  11.269   8.234   2.301  0.3129 -0.6017  4.0320
  802MOL0     O 8136   2.507   0.752   2.126 -0.1005  0.2815 -0.3190
  802MOL0     C 8137   2.604   0.769   2.059 -0.6275  0.2575  1.5454
  802MOL0     O 8138   2.624   0.738   1.926  0.7867  0.5796 -0.1336
  802MOL0     C 8139   2.506   0.701   1.861 -0.8071 -0.8167 -0.4743
  802MOL0     C 8140   2.488   0.572   1.815 -0.3736  0.1325  0.7466
  802MOL0     C 8141   2.378   0.532   1.740 -0.8527 -0.4674  0.9347
  802MOL0     C 8142   2.273   0.623   1.722  0.1220 -0.6255  0.9188
  802MOL0     O 8143   2.155   0.571   1.677  0.0047 -0.0513 -0.4277
  802MOL0     C 8144   2.043   0.618   1.755  0.4834 -0.2662 -0.3829
  802MOL0     C 8145   1.957   0.489   1.747  0.3391  0.1301  0.8801
  802MOL0     C 8146   1.917   0.444   1.606  0.6870 -0.1516  0.2237
  802MOL0     C 8147   1.787   0.359   1.615 -0.7413  0.6111  0.6803
  802MOL0     C 8148   1.750   0.304   1.475  0.2239 -0.1570 -0.2693
  802MOL0     C 8149   1.662   0.418   1.411 -0.6595  0.2186  1.0413
  802MOL0     C 8150   1.630   0.391   1.265 -0.2433  0.1355 -0.6733
  802MOL0     C 8151   1.754   0.389   1.176 -0.9839  0.1519 -0.9349
  802MOL0     N 8152   1.740   0.426   1.033 -0.2773  1.1513  0.3245
  802MOL0     C 8153   1.668   0.533   0.989  0.1065  0.9673  0.0803
  802MOL0     C 8154   1.681   0.521   0.856  0.6488  0.6041  0.1494
  802MOL0     C 8155   1.642   0.641   0.768  0.6165  0.5726 -0.0424
  802MOL0     C 8156   1.504   0.621   0.715  0.3879  0.5731 -0.0599
  802MOL0     C 8157   1.395   0.567   0.814 -0.2677 -0.0278 -0.1223
  802MOL0     C 8158   1.259   0.581   0.755 -0.9582  0.6896  0.3048
  802MOL0     O 8159   1.242   0.529   0.622 -0.0171 -0.4438  0.0866
  802MOL0     C 8160   1.141   0.572   0.539 -0.5514 -0.8039 -0.1873
  802MOL0     C 8161   1.036   0.659   0.570  0.7186 -0.1133 -0.7099
  802MOL0     C 8162   0.939   0.696   0.476  0.6918  0.5002  0.2230
  802MOL0     C 8163   0.822   0.780   0.517 -0.3109 -0.8108 -0.7702
  802MOL0     C 8164   0.934   0.638   0.345 -0.2561  0.8173  0.0593
  802MOL0     C 8165   0.842   0.669   0.235 -0.6616 -0.5434  0.3801
  802MOL0     O 8166   0.879   0.643   0.113  0.2268 -0.7172 -0.0583
  802MOL0     C 8167   0.798   0.588   0.018  0.5971 -0.3760  0.6670
  802MOL0     C 8168   0.827   0.642  -0.113  0.0030 -0.2724  0.2119
  802MOL0     C 8169   0.762   0.589  -0.231 -0.3328  0.4497  0.0467
  802MOL0     C 8170   0.666   0.488  -0.214  0.0905 -0.2648 -0.7432
  802MOL0     O 8171   0.593   0.447  -0.321 -0.0220  0.3286 -0.0792
  802MOL0     C 8172   0.682   0.394  -0.427  0.7727 -0.2489 -0.1041
  802MOL0     C 8173   0.696   0.240  -0.428  0.3173 -0.4160 -0.3042
  802MOL0     C 8174   0.554   0.162  -0.430  0.4373  0.5679 -0.3362
  802MOL0     C 8175   0.557   0.032  -0.353 -0.6242  0.6723 -0.4144
  802MOL0     C 8176   0.427  -0.044  -0.365 -0.3944 -0.6178 -0.0876
  802MOL0     C 8177   0.455  -0.150  -0.464  0.7011 -0.9375 -0.2462
  802MOL0     C 8178   0.332  -0.241  -0.494 -0.6976  0.0700  0.2827
  802MOL0     C 8179   0.380  -0.355  -0.581  0.1728 -0.5192 -0.3702
  802MOL0    Cl 8180   0.237  -0.436  -0.665  0.0949 -0.5690  0.3146
  802MOL0     C 8181   0.629   0.443  -0.083 -0.5227  0.7066  0.5028
  802MOL0     C 8182   0.697   0.493   0.031  0.1362 -0.3681 -0.8447
  802MOL0     O 8183   0.732   0.710   0.265 -0.4252  0.0939 -0.4349
  802MOL0     C 8184   1.053   0.555   0.318  0.7101 -0.5721  0.7023
  802MOL0     C 8185   1.145   0.520   0.412  0.8202 -0.0036 -0.5553
  802MOL0     N 8186   1.735   0.393   0.825  0.8183  0.8039 -0.2980
  802MOL0     N 8187   1.781   0.343   0.931 -0.3491  0.2435 -0.2116
  802MOL0     C 8188   2.289   0.758   1.762  0.0777  0.9230 -1.2155
  802MOL0     C 8189   2.403   0.798   1.834 -0.8993 -0.1132 -0.4225
  802MOL0     C 8190   2.730   0.802   2.131 -0.9733  0.4451  0.7071
  802MOL0     C 8191   2.838   0.718   2.106 -0.4989  0.3399  1.1107
  802MOL0     C 8192   2.965   0.746   2.161  0.0315 -0.7907 -0.7743
  802MOL0     C 8193   2.988   0.846   2.255 -0.7253  0.3635  1.4486
  802MOL0     O 8194   3.109   0.897   2.301 -1.0308 -0.1065 -0.1647
  802MOL0     C 8195   3.221   0.823   2.257  0.4440 -0.4247 -0.9208
  802MOL0     C 8196   3.339   0.890   2.318  0.0130 -0.0056  0.4814
  802MOL0     C 8197   3.444   0.770   2.357  0.1733  0.3638  0.0210
  802MOL0     C 8198   3.547   0.824   2.455  0.7385 -0.1182 -1.1717
  802MOL0     C 8199   3.647   0.903   2.379 -0.4386 -0.4636  0.2252
  802MOL0     C 8200   3.715   0.949   2.287 -1.0021  1.1858 -0.2109
  802MOL0     C 8201   2.864   0.907   2.303 -0.1942  0.4154  0.2786
  802MOL0     C 8202   2.740   0.890   2.232 -0.1172  0.3787 -0.1086
  802MOL0     H 8203   2.563   0.500   1.846 -1.6348 -0.3595  2.8597
  802MOL0     H 8204   2.375   0.439   1.683 -4.4600  2.0669 -3.7160
  802MOL0     H 8205   2.069   0.643   1.858  1.4184 -0.1394 -0.6463
  802MOL0     H 8206   1.989   0.699   1.704 -1.9283 -2.3999 -1.4224
  802MOL0     H 8207   2.014   0.412   1.801  3.3310  2.2196  0.9653
  802MOL0     H 8208   1.873   0.533   1.801  0.3249  3.3696 -1.5538
  802MOL0     H 8209   1.897   0.528   1.539 -0.3910 -3.6049 -4.2903
  802MOL0     H 8210   2.001   0.381   1.575  0.0020  0.0209 -2.1468
  802MOL0     H 8211   1.808   0.279   1.687  1.3933  0.5519  0.0492
  802MOL0     H 8212   1.707   0.425   1.649 -2.7142 -0.5810 -1.3471
  802MOL0     H 8213   1.838   0.289   1.411  0.6085  2.0431 -0.3426
  802MOL0     H 8214   1.687   0.214   1.478 -1.2043  0.7893 -1.0672
  802MOL0     H 8215   1.569   0.429   1.468 -2.1148 -0.0994 -1.1822
  802MOL0     H 8216   1.710   0.515   1.396  0.2323 -0.6711 -3.0357
  802MOL0     H 8217   1.569   0.301   1.249 -3.4775  1.8291  1.0818
  802MOL0     H 8218   1.571   0.478   1.233  1.2494  0.8698 -1.5223
  802MOL0     H 8219   1.802   0.293   1.197 -0.1607  1.3320  4.0277
  802MOL0     H 8220   1.815   0.472   1.212 -0.5633 -1.0668  1.3671
  802MOL0     H 8221   1.612   0.613   1.037 -0.7466  0.3548  0.1404
  802MOL0     H 8222   1.643   0.731   0.831  0.2284  1.6602 -1.5336
  802MOL0     H 8223   1.711   0.653   0.685 -0.6393  3.1192 -0.8436
  802MOL0     H 8224   1.531   0.552   0.634  3.1231  1.7470 -0.2693
  802MOL0     H 8225   1.479   0.714   0.663 -0.3675 -0.8623 -2.4081
  802MOL0     H 8226   1.389   0.634   0.901 -4.3405  2.6606 -2.1799
  802MOL0     H 8227   1.416   0.464   0.845  2.4710 -0.0477 -1.7561
  802MOL0     H 8228   1.254   0.690   0.745 -1.6303  0.5352 -1.2348
  802MOL0     H 8229   1.181   0.539   0.818 -0.0360  1.2272  1.8689
  802MOL0     H 8230   1.030   0.688   0.675  2.5477 -2.7478  0.2405
  802MOL0     H 8231   0.805   0.851   0.436 -2.3432  0.2799  0.5229
  802MOL0     H 8232   0.736   0.714   0.532 -0.2553 -0.5614  0.7672
  802MOL0     H 8233   0.835   0.842   0.606 -5.6024 -0.7542  0.3142
  802MOL0     H 8234   0.896   0.724  -0.128  0.2013 -0.7146 -1.5324
  802MOL0     H 8235   0.786   0.636  -0.325 -1.5913  1.2596  0.0973
  802MOL0     H 8236   0.638   0.424  -0.523 -1.8717 -1.0780  0.7578
  802MOL0     H 8237   0.780   0.440  -0.416 -0.2352  1.9239  0.3852
  802MOL0     H 8238   0.757   0.216  -0.516  2.5251  3.3835 -0.0363
  802MOL0     H 8239   0.754   0.214  -0.339 -0.2492  0.8949  0.4743
  802MOL0     H 8240   0.526   0.137  -0.533  1.9217 -2.8227 -0.0284
  802MOL0     H 8241   0.483   0.232  -0.384  0.0500  3.2459 -4.4965
  802MOL0     H 8242   0.638  -0.032  -0.388 -1.0514  0.2582 -0.6548
  802MOL0     H 8243   0.596   0.036  -0.251  0.8802 -5.4867 -0.4044
  802MOL0     H 8244   0.350   0.020  -0.410 -0.2064 -0.0058  0.4429
  802MOL0     H 8245   0.391  -0.071  -0.266  0.2200 -1.4834 -0.0934
  802MOL0     H 8246   0.487  -0.096  -0.553 -0.6856 -1.1305 -0.8964
  802MOL0     H 8247   0.535  -0.208  -0.419 -0.0003 -2.3719 -0.7693
  802MOL0     H 8248   0.252  -0.185  -0.544  0.4801 -1.2746 -3.4847
  802MOL0     H 8249   0.299  -0.275  -0.395 -2.2893  2.2370  0.5634
  802MOL0     H 8250   0.426  -0.433  -0.520 -0.7917  0.0554  1.1437
  802MOL0     H 8251   0.457  -0.318  -0.649 -0.4266  4.8255  1.4352
  802MOL0     H 8252   0.548   0.372  -0.089 -1.8137  2.2049 -0.4483
  802MOL0     H 8253   0.663   0.453   0.126 -1.3199  2.8800  0.1328
  802MOL0     H 8254   1.070   0.516   0.218  3.5639 -2.6690  1.8734
  802MOL0     H 8255   1.224   0.451   0.387  1.2056  0.0484  0.4943
  802MOL0     H 8256   2.211   0.829   1.736 -0.5878  0.1380 -1.4270
  802MOL0     H 8257   2.418   0.889   1.890 -3.2307 -0.1446  0.3701
  802MOL0     H 8258   2.830   0.637   2.034  1.3529  0.6413  0.4919
  802MOL0     H 8259   3.044   0.689   2.113  0.6427 -1.7820  1.2765
  802MOL0     H 8260   3.215   0.725   2.304 -0.0957  0.5974  1.2441
  802MOL0     H 8261   3.230   0.813   2.148 -0.3455  0.8291 -1.1156
  802MOL0     H 8262   3.304   0.951   2.401 -1.0864  0.7297 -0.4863
  802MOL0     H 8263   3.387   0.963   2.252 -0.8466  2.5785  2.5331
  802MOL0     H 8264   3.493   0.727   2.269 -2.5936 -2.2450 -0.4195
  802MOL0     H 8265   3.387   0.698   2.417  0.1875  1.2875  1.1838
  802MOL0     H 8266   3.590   0.733   2.498  1.0492 -0.0797 -1.4034
  802MOL0     H 8267   3.509   0.877   2.543  4.2659 -0.2145  0.5790
  802MOL0     H 8268   3.791   0.991   2.225  0.8779  0.6678  1.6175
  802MOL0     H 8269   2.880   0.978   2.383  0.8776 -0.5180  0.9254
  802MOL0     H 8270   2.654   0.946   2.267  1.3859  3.2157 -0.5695
  803MOL0     O 8271   7.116   1.068   0.346 -0.6381  0.2165  0.2685
  803MOL0     C 8272   7.118   1.159   0.259 -0.0180  0.6252 -0.4972
  803MOL0     O 8273   7.196   1.156   0.143 -0.7890 -0.1181  0.6067
  803MOL0     C 8274   7.258   1.036   0.137  0.8578 -0.8924  1.1696
  803MOL0     C 8275   7.380   1.004   0.206 -0.2837  0.5237  0.5808
  803MOL0     C 8276   7.439   0.884   0.190 -0.2704  0.6876  0.0584
  803MOL0     C 8277   7.392   0.788   0.098  0.2456 -0.3496 -0.0864
  803MOL0     O 8278   7.462   0.664   0.103 -0.3015  0.2344 -0.6733
  803MOL0     C 8279   7.383   0.557   0.153  0.7126  1.3574  0.0341
  803MOL0     C 8280   7.467   0.424   0.161  0.1390 -0.2757  0.1186
  803MOL0     C 8281   7.390   0.300   0.135  0.2961 -0.5025 -0.0004
  803MOL0     C 8282   7.278   0.255   0.222 -0.6319  0.5014  0.0972
  803MOL0     C 8283   7.199   0.134   0.160  0.1135 -0.3193 -0.0268
  803MOL0     C 8284   7.101   0.091   0.273 -0.8773  0.0033 -0.1283
  803MOL0     C 8285   7.049  -0.047   0.255  0.0944  0.7614 -0.4986
  803MOL0     C 8286   6.904  -0.051   0.322  0.0489  0.8221  0.5844
  803MOL0     N 8287   6.798   0.022   0.251 -0.8676  0.4104  0.8152
  803MOL0     C 8288   6.759   0.009   0.116 -0.1238  0.6147 -0.6844
  803MOL0     C 8289   6.651   0.092   0.109  0.9490  1.6956  0.6260
  803MOL0     C 8290   6.575   0.101  -0.024  0.1355  0.6824  1.4131
  803MOL0     C 8291   6.518  -0.020  -0.089 -0.9654  0.4271 -0.1035
  803MOL0     C 8292   6.376  -0.064  -0.062 -0.0115 -0.0123  0.0053
  803MOL0     C 8293   6.360  -0.185   0.030  0.8580 -0.9287  0.1114
  803MOL0     O 8294   6.364  -0.298  -0.046  0.8231 -0.1361 -0.3862
  803MOL0     C 8295   6.461  -0.388  -0.023  1.0744  0.5732 -1.1022
  803MOL0     C 8296   6.468  -0.500  -0.097  0.3909  0.8834  0.4246
  803MOL0     C 8297   6.562  -0.608  -0.079  0.1042  0.4115  0.2096
  803MOL0     C 8298   6.561  -0.729  -0.170  0.8761  0.3008  0.2063
  803MOL0     C 8299   6.659  -0.593   0.013  0.3351 -0.1517  0.0276
  803MOL0     C 8300   6.768  -0.690   0.014 -0.4649  0.1540  0.6648
  803MOL0     O 8301   6.860  -0.688  -0.095 -0.2546  0.8803  0.8587
  803MOL0     C 8302   6.965  -0.771  -0.098  1.2646 -0.6973 -0.0448
  803MOL0     C 8303   7.084  -0.720  -0.150 -0.0326  1.2374  0.3004
  803MOL0     C 8304   7.187  -0.817  -0.161 -0.6567 -0.0781 -0.3415
  803MOL0     C 8305   7.172  -0.955  -0.142 -0.6188  0.6552 -0.2800
  803MOL0     O 8306   7.282  -1.038  -0.157 -0.0381  0.3556 -0.8114
  803MOL0     C 8307   7.283  -1.162  -0.079  0.0593 -0.4628  1.0499
  803MOL0     C 8308   7.419  -1.199  -0.025  0.6452  0.8390 -1.0730
  803MOL0     C 8309   7.399  -1.305   0.089 -1.3540 -0.8662 -0.3574
  803MOL0     C 8310   7.385  -1.242   0.235 -0.2810  0.7755  0.8481
  803MOL0     C 8311   7.321  -1.346   0.330 -0.0405  0.1661  0.1009
  803MOL0     C 8312   7.340  -1.316   0.479  0.4779 -0.0357 -0.1589
  803MOL0     C 8313   7.243  -1.413   0.549 -0.0059  0.1967  0.9107
  803MOL0     C 8314   7.227  -1.379   0.686 -0.7200 -0.3048 -0.7039
  803MOL0    Cl 8315   7.076  -1.449   0.750  0.1873  0.0927 -0.5526
  803MOL0     C 8316   7.048  -1.005  -0.115 -0.3185  0.0620 -0.8059
  803MOL0     C 8317   6.950  -0.908  -0.077 -1.0441  0.3186 -0.7340
  803MOL0     O 8318   6.775  -0.768   0.104 -0.3569  0.4487  0.0721
  803MOL0     C 8319   6.652  -0.479   0.097  0.0871  0.8757  0.2181
  803MOL0     C 8320   6.560  -0.378   0.078  0.5519 -0.0802 -1.2858
  803MOL0     N 8321   6.620   0.134   0.231 -0.7889  0.1706  0.2630
  803MOL0     N 8322   6.712   0.098   0.318 -0.4191 -0.0902  0.1227
  803MOL0     C 8323   7.267   0.818   0.036 -0.4735  1.1361 -0.0744
  803MOL0     C 8324   7.204   0.934   0.052  0.6034  0.3055 -0.7690
  803MOL0     C 8325   7.057   1.281   0.314 -0.0618 -0.5607  0.7358
  803MOL0     C 8326   7.106   1.406   0.252 -0.8444 -0.1304  0.1498
  803MOL0     C 8327   7.049   1.526   0.295  0.2858 -0.2789 -0.3288
  803MOL0     C 8328   6.983   1.529   0.420  0.4164 -0.1065 -0.7279
  803MOL0     O 8329   6.948   1.645   0.464 -0.6080  0.4790  0.6046
  803MOL0     C 8330   7.016   1.690   0.576  0.6037  0.3812  0.3110
  803MOL0     C 8331   7.102   1.815   0.557 -0.4890  0.2520  0.6680
  803MOL0     C 8332   7.244   1.775   0.493  0.0173  0.6001  0.4150
  803MOL0     C 8333   7.317   1.899   0.445 -0.9389 -0.5318 -0.5088
  803MOL0     C 8334   7.303   1.915   0.308  0.2129 -0.0578  0.2439
  803MOL0     C 8335   7.266   1.910   0.189 -0.9604  0.0277 -0.5578
  803MOL0     C 8336   6.952   1.410   0.493  0.2252  0.2462 -0.1522
  803MOL0     C 8337   6.972   1.279   0.429  0.7041 -0.7738 -0.0101
  803MOL0     H 8338   7.420   1.080   0.273 -0.7725 -0.4196  1.9928
  803MOL0     H 8339   7.519   0.866   0.261  0.0661  1.4628 -0.1076
  803MOL0     H 8340   7.352   0.581   0.255  1.6675 -3.4777  1.7400
  803MOL0     H 8341   7.296   0.538   0.089  0.2099 -0.3608  1.1457
  803MOL0     H 8342   7.525   0.430   0.069 -0.7156 -0.4191 -0.4388
  803MOL0     H 8343   7.519   0.416   0.257  2.4539 -1.8674 -1.1713
  803MOL0     H 8344   7.352   0.325   0.035  1.4874 -3.8614 -1.4412
  803MOL0     H 8345   7.467   0.223   0.136  0.5621 -0.2397  0.0905
  803MOL0     H 8346   7.336   0.228   0.311 -3.2639 -1.4466  1.3651
  803MOL0     H 8347   7.217   0.345   0.234 -2.2314 -0.4527 -0.5699
  803MOL0     H 8348   7.148   0.165   0.068 -1.1336 -0.2489  0.6740
  803MOL0     H 8349   7.271   0.060   0.123  2.2461  2.3492 -1.6768
  803MOL0     H 8350   7.144   0.106   0.372  3.0781  1.3882 -1.8615
  803MOL0     H 8351   7.018   0.161   0.258  0.7343  1.6920 -1.6826
  803MOL0     H 8352   7.029  -0.073   0.150 -3.9862  0.6538  0.1527
  803MOL0     H 8353   7.111  -0.120   0.307 -0.8926  0.1431 -0.1667
  803MOL0     H 8354   6.912  -0.020   0.426  3.0601  2.2176  0.0750
  803MOL0     H 8355   6.874  -0.154   0.304 -2.3244  1.7745 -1.4958
  803MOL0     H 8356   6.797  -0.051   0.035 -2.0294  0.3328 -1.4092
  803MOL0     H 8357   6.496   0.175  -0.008 -0.1012  0.5995  0.6873
  803MOL0     H 8358   6.643   0.149  -0.096  0.9756 -0.9342  1.0764
  803MOL0     H 8359   6.581  -0.109  -0.082  0.7880  1.1808 -3.8051
  803MOL0     H 8360   6.525   0.001  -0.196  4.8053 -2.0889 -0.5417
  803MOL0     H 8361   6.313  -0.089  -0.148  2.6661 -0.3332 -1.9877
  803MOL0     H 8362   6.324   0.026  -0.030 -1.5787 -0.9779  0.2755
  803MOL0     H 8363   6.257  -0.177   0.067  0.2860  1.6677 -1.7202
  803MOL0     H 8364   6.423  -0.183   0.119 -1.2144  0.9131  1.6747
  803MOL0     H 8365   6.386  -0.537  -0.159  1.0034  1.3905 -0.7189
  803MOL0     H 8366   6.659  -0.736  -0.219  0.9292  1.8260  0.0504
  803MOL0     H 8367   6.552  -0.828  -0.126  0.1672 -1.3910 -3.3836
  803MOL0     H 8368   6.481  -0.717  -0.244 -1.7379 -2.2867  2.3680
  803MOL0     H 8369   7.088  -0.618  -0.188 -1.8374  1.3689  0.3726
  803MOL0     H 8370   7.284  -0.790  -0.200 -0.4663 -0.7605 -0.3653
  803MOL0     H 8371   7.211  -1.169   0.003 -3.0425  0.0057 -1.4407
  803MOL0     H 8372   7.253  -1.242  -0.148  4.4431 -1.4490  0.0214
  803MOL0     H 8373   7.468  -1.251  -0.108 -1.0222  0.1890 -1.7011
  803MOL0     H 8374   7.472  -1.114   0.018  1.8962 -1.1080  1.5052
  803MOL0     H 8375   7.479  -1.380   0.087 -1.5330 -1.0963 -3.6065
  803MOL0     H 8376   7.309  -1.357   0.054 -1.3200 -0.5721 -0.8910
  803MOL0     H 8377   7.486  -1.227   0.275 -0.2575  0.8464  0.7612
  803MOL0     H 8378   7.320  -1.155   0.235 -0.8376  0.6065 -3.4225
  803MOL0     H 8379   7.365  -1.445   0.316 -3.0634 -2.1367  4.3857
  803MOL0     H 8380   7.214  -1.355   0.310  0.2616 -2.6956 -0.7486
  803MOL0     H 8381   7.445  -1.322   0.506 -0.1742  2.7481  3.7172
  803MOL0     H 8382   7.314  -1.211   0.495  0.9500 -0.1214  1.2267
  803MOL0     H 8383   7.263  -1.518   0.525 -1.6243  0.0276  0.1896
  803MOL0     H 8384   7.139  -1.399   0.518  0.0441  2.0001  1.4288
  803MOL0     H 8385   7.219  -1.271   0.702  0.7099 -0.1763 -0.7118
  803MOL0     H 8386   7.313  -1.404   0.749 -2.8003 -1.7439  1.7372
  803MOL0     H 8387   7.021  -1.110  -0.110 -0.2350  0.0942  1.5737
  803MOL0     H 8388   6.863  -0.947  -0.025 -1.8825  1.3087 -1.3392
  803MOL0     H 8389   6.725  -0.474   0.177  0.2992  1.8434 -0.0282
  803MOL0     H 8390   6.573  -0.296   0.148 -2.7875 -0.8485  0.4471
  803MOL0     H 8391   7.213   0.741  -0.019 -0.0459  1.8258 -1.5080
  803MOL0     H 8392   7.107   0.949   0.006 -0.1968  3.1829  1.5615
  803MOL0     H 8393   7.189   1.414   0.183 -0.9412 -0.2049  0.0258
  803MOL0     H 8394   7.052   1.617   0.235 -0.7048 -1.2505 -1.9333
  803MOL0     H 8395   6.940   1.716   0.650  0.1025  0.8789 -0.3613
  803MOL0     H 8396   7.075   1.603   0.606 -4.1933 -3.7700 -0.9915
  803MOL0     H 8397   7.114   1.874   0.648  1.8593 -0.0657  0.6257
  803MOL0     H 8398   7.058   1.882   0.482  2.5371  0.8461 -0.7532
  803MOL0     H 8399   7.225   1.710   0.407  0.6853  2.0560 -0.8863
  803MOL0     H 8400   7.316   1.727   0.560  1.0722 -1.0602 -1.7543
  803MOL0     H 8401   7.424   1.884   0.463 -0.1731  1.0601 -3.2063
  803MOL0     H 8402   7.288   1.988   0.500 -0.4105 -0.6956  0.0471
  803MOL0     H 8403   7.242   1.905   0.084  2.1565 -1.4447 -1.3018
  803MOL0     H 8404   6.894   1.412   0.585 -2.2078  1.1509 -1.5919
  803MOL0     H 8405   6.930   1.187   0.467 -0.1937 -1.0509 -1.6103
  804MOL0     O 8406   9.080   4.008   5.419 -0.5505 -0.0281 -0.0001
  804MOL0     C 8407   8.981   4.026   5.352  0.0638 -0.0612  0.3230
  804MOL0     O 8408   8.976   4.090   5.231  0.8699  0.0684 -0.1721
  804MOL0     C 8409   9.089   4.141   5.170 -0.2256 -0.2044 -0.1367
  804MOL0     C 8410   9.108   4.124   5.030 -0.6972  0.2470  0.1394
  804MOL0     C 8411   9.230   4.176   4.981 -0.3172  0.1082 -0.7855
  804MOL0     C 8412   9.312   4.259   5.060  0.0770  0.0805 -0.4378
  804MOL0     O 8413   9.433   4.294   5.023 -0.2300  0.2570  0.4191
  804MOL0     C 8414   9.441   4.342   4.884 -0.0813 -0.1567  0.2098
  804MOL0     C 8415   9.588   4.394   4.874 -0.4641 -0.2370 -0.3014
  804MOL0     C 8416   9.619   4.514   4.972 -0.5949  0.8406 -0.2922
  804MOL0     C 8417   9.536   4.636   4.940 -0.7741  0.0647 -0.1148
  804MOL0     C 8418   9.570   4.770   5.015 -0.2552 -0.3019  0.7294
  804MOL0     C 8419   9.465   4.875   5.003  0.1168  0.7604 -0.9871
  804MOL0     C 8420   9.334   4.854   5.077 -0.3703 -0.1921 -0.7570
  804MOL0     C 8421   9.345   4.839   5.230 -0.1377 -1.5060  0.2605
  804MOL0     N 8422   9.421   4.960   5.286  0.2069  1.0668  0.5181
  804MOL0     C 8423   9.530   4.954   5.371 -0.4811 -0.3422  0.3520
  804MOL0     C 8424   9.546   5.084   5.400 -0.9256  0.5771  0.0757
  804MOL0     C 8425   9.673   5.149   5.469  0.1193  0.5335  0.7016
  804MOL0     C 8426   9.758   5.237   5.386 -0.3719 -0.4020 -0.2260
  804MOL0     C 8427   9.762   5.184   5.236  1.0296  0.3228 -0.6411
  804MOL0     C 8428   9.860   5.256   5.152 -0.9586 -0.3531 -0.0567
  804MOL0     O 8429   9.987   5.229   5.200  0.0188 -0.1700 -0.2476
  804MOL0     C 8430  10.107   5.230   5.133  0.2309  0.2089  0.0113
  804MOL0     C 8431  10.115   5.285   5.008 -0.7722  0.6706  0.0172
  804MOL0     C 8432  10.238   5.284   4.931  1.2166  0.0855 -0.7125
  804MOL0     C 8433  10.248   5.341   4.801 -0.1412  0.6882 -0.3038
  804MOL0     C 8434  10.348   5.228   5.002  0.6331  0.0447  0.0712
  804MOL0     C 8435  10.476   5.231   4.935  0.6749  0.3775 -0.2549
  804MOL0     O 8436  10.499   5.117   4.857  0.3185 -0.7949  0.0281
  804MOL0     C 8437  10.626   5.101   4.813  0.6148 -0.1688 -0.1811
  804MOL0     C 8438  10.706   5.195   4.748  0.3498 -0.6620 -1.5190
  804MOL0     C 8439  10.840   5.157   4.701  0.6250  0.8539  0.5268
  804MOL0     C 8440  10.884   5.017   4.711  0.5725 -0.2792  0.8309
  804MOL0     O 8441  11.011   4.981   4.667  0.1596  0.1587  0.7440
  804MOL0     C 8442  11.117   5.081   4.687  0.2981 -0.0753 -0.4440
  804MOL0     C 8443  11.261   5.017   4.673  0.2786  0.0712 -0.1361
  804MOL0     C 8444  11.281   4.928   4.791  0.2876  0.5245 -0.7598
  804MOL0     C 8445  11.262   4.770   4.771 -1.0195 -0.0507  0.6912
  804MOL0     C 8446  11.277   4.681   4.888  0.1331 -0.0735 -0.7444
  804MOL0     C 8447  11.335   4.544   4.856 -0.5518 -0.0573 -0.1971
  804MOL0     C 8448  11.360   4.470   4.989 -0.0295 -0.7648 -0.3672
  804MOL0     C 8449  11.421   4.328   4.966  0.5874 -0.8559 -0.1103
  804MOL0    Cl 8450  11.461   4.264   5.129 -0.0074  0.1646  0.1913
  804MOL0     C 8451  10.794   4.928   4.764  0.0500 -0.0175 -0.1367
  804MOL0     C 8452  10.671   4.966   4.819  0.4924 -0.2096  0.5749
  804MOL0     O 8453  10.554   5.311   4.976 -1.4087 -0.0647 -0.7677
  804MOL0     C 8454  10.339   5.169   5.126 -0.4032  0.1949 -0.2948
  804MOL0     C 8455  10.214   5.166   5.190  0.3055  0.2269 -0.9788
  804MOL0     N 8456   9.444   5.164   5.352  0.2454  0.6516  0.2687
  804MOL0     N 8457   9.365   5.090   5.286 -0.2382  0.8587 -0.7401
  804MOL0     C 8458   9.275   4.290   5.188 -0.6475  0.7901  0.2564
  804MOL0     C 8459   9.167   4.227   5.240  0.0384  0.7850 -0.0199
  804MOL0     C 8460   8.865   3.949   5.399 -0.1421  0.7821 -0.4884
  804MOL0     C 8461   8.768   3.917   5.311  0.8596 -0.3947  0.6867
  804MOL0     C 8462   8.659   3.849   5.360  0.5413  0.1888 -0.1772
  804MOL0     C 8463   8.635   3.830   5.492 -0.5648 -0.9905  0.3839
  804MOL0     O 8464   8.527   3.767   5.541  0.5324 -0.6200  0.0677
  804MOL0     C 8465   8.454   3.670   5.462  0.2969 -0.1564  0.0798
  804MOL0     C 8466   8.426   3.546   5.550 -0.3231  0.0788  0.5582
  804MOL0     C 8467   8.566   3.486   5.578  0.6795  0.1571  0.6055
  804MOL0     C 8468   8.549   3.371   5.676 -0.2203  0.1181  0.0142
  804MOL0     C 8469   8.511   3.256   5.599 -0.5136 -0.0637 -0.2051
  804MOL0     C 8470   8.495   3.164   5.522 -0.3208  1.1604 -0.4226
  804MOL0     C 8471   8.735   3.865   5.577  0.6462 -0.4137  0.2224
  804MOL0     C 8472   8.852   3.939   5.538 -0.9258 -0.0083  0.2489
  804MOL0     H 8473   9.033   4.071   4.973 -0.2429 -0.2975  0.0416
  804MOL0     H 8474   9.256   4.137   4.884 -0.3262  1.5353 -1.3911
  804MOL0     H 8475   9.429   4.266   4.806  1.8225  0.9620 -1.2692
  804MOL0     H 8476   9.377   4.427   4.861  2.2454  0.6811 -4.1867
  804MOL0     H 8477   9.660   4.312   4.880  1.9610  1.8060  0.5884
  804MOL0     H 8478   9.609   4.428   4.772  3.3201 -1.7190 -0.1974
  804MOL0     H 8479   9.594   4.489   5.075  0.1715  4.3562  0.8728
  804MOL0     H 8480   9.725   4.541   4.977  0.4369 -2.9422  1.6601
  804MOL0     H 8481   9.542   4.646   4.831 -0.7367  0.9986 -0.0357
  804MOL0     H 8482   9.437   4.601   4.969  0.9666 -2.4515  3.6443
  804MOL0     H 8483   9.592   4.753   5.121 -3.6521 -1.3111  1.4170
  804MOL0     H 8484   9.659   4.819   4.977 -0.5092  0.0503  0.5819
  804MOL0     H 8485   9.511   4.961   5.052  2.6912 -0.9619 -0.1291
  804MOL0     H 8486   9.469   4.896   4.896  1.0824 -0.3761 -1.1945
  804MOL0     H 8487   9.271   4.938   5.046 -2.8111 -2.3875 -2.2109
  804MOL0     H 8488   9.295   4.765   5.026  2.3453 -0.7861 -1.9352
  804MOL0     H 8489   9.405   4.749   5.251 -0.0179 -1.5104 -0.1120
  804MOL0     H 8490   9.244   4.856   5.269  0.3577  3.0158  0.0549
  804MOL0     H 8491   9.574   4.867   5.420 -0.0997 -0.6852 -0.5919
  804MOL0     H 8492   9.649   5.199   5.563 -1.9655  2.5792 -0.8157
  804MOL0     H 8493   9.736   5.062   5.493  2.1822  1.1215 -2.0323
  804MOL0     H 8494   9.862   5.230   5.420 -0.2952  2.7706  0.4529
  804MOL0     H 8495   9.722   5.340   5.382 -2.7056 -1.1712 -0.7915
  804MOL0     H 8496   9.665   5.212   5.193  2.4829  3.2744 -2.2838
  804MOL0     H 8497   9.781   5.076   5.242  1.3916  0.4592  1.3598
  804MOL0     H 8498   9.848   5.363   5.135 -0.9279 -0.4225 -0.5274
  804MOL0     H 8499   9.853   5.225   5.048 -0.4256  0.5197 -0.3623
  804MOL0     H 8500  10.032   5.338   4.963  0.2102  0.6751 -1.8506
  804MOL0     H 8501  10.149   5.343   4.754  0.7801  1.1234 -2.3074
  804MOL0     H 8502  10.297   5.438   4.805  1.8720 -0.3018  1.1365
  804MOL0     H 8503  10.309   5.273   4.740  0.6213  0.2678  0.8953
  804MOL0     H 8504  10.656   5.290   4.733 -3.5901 -2.5992 -1.9286
  804MOL0     H 8505  10.889   5.243   4.658 -1.3783  2.3094  1.0155
  804MOL0     H 8506  11.090   5.159   4.615 -1.6665 -0.1301  0.1864
  804MOL0     H 8507  11.107   5.126   4.787 -0.6665 -0.3607 -0.4038
  804MOL0     H 8508  11.288   4.962   4.582 -2.7720  1.4100 -2.0453
  804MOL0     H 8509  11.327   5.102   4.686  1.5740 -0.8288 -0.6404
  804MOL0     H 8510  11.214   4.959   4.871  0.3441  3.3255 -1.6895
  804MOL0     H 8511  11.381   4.944   4.834  0.0136  2.3456 -0.7292
  804MOL0     H 8512  11.159   4.767   4.734 -1.1461 -0.1249  1.0405
  804MOL0     H 8513  11.322   4.741   4.685  1.3788 -1.3582  2.6846
  804MOL0     H 8514  11.181   4.659   4.935  0.5418 -0.1357  0.0887
  804MOL0     H 8515  11.345   4.731   4.957 -0.6776 -2.8637  2.3838
  804MOL0     H 8516  11.254   4.493   4.802 -3.2795 -0.7385  4.0457
  804MOL0     H 8517  11.427   4.544   4.796 -0.1744  0.9938  0.3609
  804MOL0     H 8518  11.269   4.457   5.048  1.6958 -3.5025  1.9826
  804MOL0     H 8519  11.429   4.525   5.054 -1.1444  1.4098 -0.9226
  804MOL0     H 8520  11.504   4.322   4.895  0.5889  2.5799 -0.5321
  804MOL0     H 8521  11.345   4.274   4.909  1.4108  1.4550 -3.6832
  804MOL0     H 8522  10.811   4.820   4.765  0.4581  0.0418 -0.4653
  804MOL0     H 8523  10.599   4.894   4.857  1.5027 -0.6233  1.7808
  804MOL0     H 8524  10.435   5.132   5.159 -0.4585 -1.5616 -1.9402
  804MOL0     H 8525  10.219   5.128   5.291 -2.1419 -0.1142 -0.9304
  804MOL0     H 8526   9.342   4.354   5.243  1.8079 -1.5443  0.1974
  804MOL0     H 8527   9.161   4.243   5.348 -5.5511 -3.6130  0.8735
  804MOL0     H 8528   8.772   3.955   5.210  1.5902 -1.0759  0.4502
  804MOL0     H 8529   8.580   3.819   5.292 -1.3072 -0.0803  1.9944
  804MOL0     H 8530   8.363   3.724   5.434  0.8353  0.6338 -0.1738
  804MOL0     H 8531   8.490   3.632   5.365 -0.6519  1.0867 -0.7911
  804MOL0     H 8532   8.356   3.476   5.504 -0.7059  0.4868  0.5168
  804MOL0     H 8533   8.375   3.583   5.639  0.5910  3.5803 -0.2273
  804MOL0     H 8534   8.637   3.561   5.614  3.0619 -1.2768 -0.8381
  804MOL0     H 8535   8.625   3.452   5.493 -0.0889  1.0126 -0.2944
  804MOL0     H 8536   8.484   3.403   5.758  0.9640  2.6181  0.0817
  804MOL0     H 8537   8.640   3.349   5.731 -0.4454  0.6510  0.6180
  804MOL0     H 8538   8.485   3.084   5.452 -3.5185 -1.8333  2.9912
  804MOL0     H 8539   8.715   3.852   5.683 -0.4112  3.0287  0.5750
  804MOL0     H 8540   8.927   3.982   5.603  1.3699 -1.9861 -0.9217
  805MOL0     O 8541   6.301  10.752   7.529  0.3391  0.4515 -0.4766
  805MOL0     C 8542   6.396  10.776   7.459 -0.2013 -0.1878 -0.1409
  805MOL0     O 8543   6.528  10.803   7.503  0.1293 -0.0539 -0.5809
  805MOL0     C 8544   6.550  10.800   7.629  0.3084  0.7031  0.5961
  805MOL0     C 8545   6.533  10.914   7.705  0.6451  0.2865 -0.0837
  805MOL0     C 8546   6.582  10.916   7.832  0.0848  0.5450  0.1753
  805MOL0     C 8547   6.658  10.815   7.891  0.3931  0.5317  0.3918
  805MOL0     O 8548   6.706  10.833   8.015  0.0486  0.9170  1.1346
  805MOL0     C 8549   6.677  10.728   8.109 -0.0087 -0.7212 -0.0912
  805MOL0     C 8550   6.688  10.755   8.262  0.4641  1.1497 -0.2837
  805MOL0     C 8551   6.655  10.640   8.349  0.3971 -0.4873 -0.7556
  805MOL0     C 8552   6.780  10.543   8.366 -1.0470  0.0201 -0.4187
  805MOL0     C 8553   6.737  10.430   8.463  0.4871 -0.0961  0.5677
  805MOL0     C 8554   6.859  10.339   8.480  0.2853 -0.2777  0.0282
  805MOL0     C 8555   6.844  10.262   8.606 -0.7120 -0.3897 -0.3910
  805MOL0     C 8556   6.719  10.168   8.609 -0.7701  0.5024  1.7206
  805MOL0     N 8557   6.735  10.046   8.525 -0.0225  0.3087  0.2333
  805MOL0     C 8558   6.809   9.937   8.563 -0.1230  0.3877  0.0228
  805MOL0     C 8559   6.772   9.843   8.467 -0.1657  0.0704 -0.0972
  805MOL0     C 8560   6.821   9.714   8.472 -0.2977  0.0179 -0.1577
  805MOL0     C 8561   6.970   9.702   8.427 -1.3686 -0.1772 -0.7139
  805MOL0     C 8562   7.004   9.758   8.279  0.1721  0.3114 -0.4878
  805MOL0     C 8563   7.151   9.798   8.259  1.1224 -0.0950 -0.6433
  805MOL0     O 8564   7.217   9.673   8.268  0.4271  0.6560  0.1304
  805MOL0     C 8565   7.301   9.624   8.175 -0.4208 -0.5136  1.1237
  805MOL0     C 8566   7.276   9.642   8.035 -0.1378 -0.1895  1.3210
  805MOL0     C 8567   7.374   9.589   7.945 -0.1718 -0.6792  0.4655
  805MOL0     C 8568   7.336   9.595   7.802 -0.7505  0.4667 -0.4229
  805MOL0     C 8569   7.495   9.538   7.990  0.2910  0.5402  0.2645
  805MOL0     C 8570   7.602   9.476   7.898 -0.3266  0.1314  0.8485
  805MOL0     O 8571   7.637   9.545   7.781 -0.9114  0.3905  0.2259
  805MOL0     C 8572   7.714   9.476   7.692 -0.3856 -0.7921 -0.4698
  805MOL0     C 8573   7.848   9.500   7.674  0.7307 -0.4011 -0.5974
  805MOL0     C 8574   7.929   9.421   7.600 -0.4983 -1.1696 -0.0200
  805MOL0     C 8575   7.879   9.328   7.515 -0.6437  0.2766  0.5874
  805MOL0     O 8576   7.967   9.253   7.427  0.3686  0.3421 -0.0268
  805MOL0     C 8577   7.906   9.137   7.360 -0.2915  0.3961  0.9183
  805MOL0     C 8578   7.856   9.187   7.219  0.2228  0.2323 -0.3545
  805MOL0     C 8579   7.730   9.097   7.176 -0.8514  0.1679  0.2113
  805MOL0     C 8580   7.600   9.147   7.214  1.1560  0.3934 -0.0411
  805MOL0     C 8581   7.474   9.090   7.153  0.0939  0.6474  0.0127
  805MOL0     C 8582   7.472   9.079   7.002 -0.3361 -0.2341  0.5960
  805MOL0     C 8583   7.540   8.947   6.968  0.5539  0.0710  0.3317
  805MOL0     C 8584   7.470   8.822   6.898  0.9212 -0.9400 -0.6905
  805MOL0    Cl 8585   7.593   8.708   6.856  0.5484 -0.0772 -0.0997
  805MOL0     C 8586   7.739   9.305   7.527 -0.2174  0.1709  0.6493
  805MOL0     C 8587   7.666   9.366   7.620  0.3603 -0.1702  0.4722
  805MOL0     O 8588   7.668   9.388   7.951 -0.4547 -0.6464 -0.1435
  805MOL0     C 8589   7.520   9.538   8.121  0.5424 -0.0727  0.1572
  805MOL0     C 8590   7.422   9.575   8.214 -0.1708  0.2780  1.2642
  805MOL0     N 8591   6.678   9.890   8.376  0.1065 -0.2764 -0.2415
  805MOL0     N 8592   6.647  10.017   8.417  0.1522 -0.0819 -0.1551
  805MOL0     C 8593   6.688  10.703   7.814  0.1255 -0.1772 -0.0350
  805MOL0     C 8594   6.634  10.688   7.683 -1.1242 -0.0982 -0.4036
  805MOL0     C 8595   6.371  10.774   7.308  0.1872 -0.1813  0.1753
  805MOL0     C 8596   6.244  10.790   7.249 -0.2975 -0.1869  0.0779
  805MOL0     C 8597   6.220  10.797   7.117  1.0910 -0.0273 -0.1231
  805MOL0     C 8598   6.323  10.777   7.023  0.2735 -0.3923 -0.6692
  805MOL0     O 8599   6.310  10.795   6.889 -0.4522 -0.5584 -0.7589
  805MOL0     C 8600   6.299  10.936   6.846 -0.3553  0.0147  0.5335
  805MOL0     C 8601   6.425  11.014   6.876 -0.4908  0.2347  0.2113
  805MOL0     C 8602   6.387  11.149   6.948  0.7895 -0.7419 -0.1281
  805MOL0     C 8603   6.340  11.259   6.840  0.7158 -0.6973 -1.1184
  805MOL0     C 8604   6.199  11.225   6.784 -0.5413 -1.1100 -0.7620
  805MOL0     C 8605   6.093  11.181   6.735  0.5223 -0.2091  0.0658
  805MOL0     C 8606   6.454  10.767   7.080 -0.4466  1.1369 -0.4105
  805MOL0     C 8607   6.478  10.776   7.215 -0.5789 -0.0142 -0.5517
  805MOL0     H 8608   6.459  10.987   7.673 -2.2225 -0.9994  3.0375
  805MOL0     H 8609   6.554  10.995   7.902 -4.3210 -2.5962  2.4767
  805MOL0     H 8610   6.576  10.690   8.093 -0.0437 -0.3785 -0.7166
  805MOL0     H 8611   6.748  10.648   8.088  1.5930  0.9486 -1.4562
  805MOL0     H 8612   6.786  10.800   8.283  0.5086  1.1831 -0.5566
  805MOL0     H 8613   6.618  10.838   8.274  1.2522  1.6538  0.9986
  805MOL0     H 8614   6.629  10.679   8.448 -2.2203  1.5190 -2.0957
  805MOL0     H 8615   6.570  10.592   8.300 -0.8780  0.0615  0.8010
  805MOL0     H 8616   6.806  10.498   8.269  1.5390 -0.4116  0.4069
  805MOL0     H 8617   6.874  10.586   8.403 -2.2510  0.6069  2.1596
  805MOL0     H 8618   6.711  10.481   8.556  0.5001  0.2962  0.3566
  805MOL0     H 8619   6.657  10.367   8.423 -0.2503 -0.1736  2.0989
  805MOL0     H 8620   6.870  10.274   8.392 -3.3848 -1.4847  0.2697
  805MOL0     H 8621   6.941  10.404   8.511  0.5201 -1.4909  2.1032
  805MOL0     H 8622   6.933  10.200   8.614 -0.1354  0.5616  0.9765
  805MOL0     H 8623   6.838  10.322   8.698  2.6738 -2.2272  1.2233
  805MOL0     H 8624   6.629  10.224   8.580 -0.0629  1.2208  0.8380
  805MOL0     H 8625   6.706  10.141   8.714 -2.2596 -1.7520  1.0117
  805MOL0     H 8626   6.897   9.931   8.627  1.1635  1.7481 -1.5062
  805MOL0     H 8627   6.823   9.680   8.576  0.0628  0.5172  0.0007
  805MOL0     H 8628   6.757   9.660   8.402 -1.3769  2.1898 -0.9215
  805MOL0     H 8629   7.014   9.605   8.448  2.6853  1.4545 -0.6833
  805MOL0     H 8630   7.021   9.772   8.494 -0.1389 -1.8322  0.1182
  805MOL0     H 8631   6.943   9.846   8.255  0.7669  0.8257 -0.1399
  805MOL0     H 8632   6.981   9.682   8.203  3.4525  0.3958 -1.7449
  805MOL0     H 8633   7.178   9.861   8.343  4.0656  1.9529 -2.9099
  805MOL0     H 8634   7.167   9.850   8.164 -1.2530  1.8022 -0.0997
  805MOL0     H 8635   7.196   9.698   7.988 -0.2353  0.2077  1.9540
  805MOL0     H 8636   7.392   9.656   7.731 -1.5086 -0.2661 -1.7036
  805MOL0     H 8637   7.358   9.491   7.774  2.3328  0.3569  1.9220
  805MOL0     H 8638   7.237   9.632   7.777  0.3506  1.5849 -3.5854
  805MOL0     H 8639   7.888   9.560   7.756  0.3844  0.9226 -1.3568
  805MOL0     H 8640   8.037   9.424   7.589 -0.7109 -0.6638 -2.8238
  805MOL0     H 8641   7.984   9.064   7.337 -1.1308 -0.3882  0.4741
  805MOL0     H 8642   7.830   9.079   7.414 -0.7493  0.8122  0.7240
  805MOL0     H 8643   7.820   9.290   7.222  1.8151  0.7918  0.0955
  805MOL0     H 8644   7.936   9.176   7.145 -1.9461 -0.1800 -2.7885
  805MOL0     H 8645   7.756   9.001   7.221  1.3127  1.6178  2.3527
  805MOL0     H 8646   7.739   9.090   7.068  2.6683 -0.7527  0.4537
  805MOL0     H 8647   7.595   9.138   7.322 -0.8153  0.7835 -0.0539
  805MOL0     H 8648   7.590   9.254   7.192 -0.6977 -0.3305 -3.5120
  805MOL0     H 8649   7.390   9.156   7.175 -0.1451  0.1643  0.5769
  805MOL0     H 8650   7.451   8.988   7.187 -0.1767  0.3600 -0.9922
  805MOL0     H 8651   7.369   9.072   6.967  0.0527 -2.5043 -0.2809
  805MOL0     H 8652   7.511   9.170   6.955 -0.7099 -1.3681 -2.0721
  805MOL0     H 8653   7.593   8.920   7.060  1.2128  1.1847  0.2940
  805MOL0     H 8654   7.614   8.987   6.899 -0.2878  0.9734 -0.0662
  805MOL0     H 8655   7.419   8.859   6.809 -0.3973 -0.4962  0.2287
  805MOL0     H 8656   7.397   8.785   6.970  1.7855  1.1407  1.4097
  805MOL0     H 8657   7.687   9.234   7.464 -0.1505 -3.7836  4.5733
  805MOL0     H 8658   7.563   9.331   7.626  0.7982 -1.6420 -0.2242
  805MOL0     H 8659   7.623   9.519   8.151  0.1461 -2.1793  0.3755
  805MOL0     H 8660   7.453   9.573   8.318  0.6657 -1.2418  1.0066
  805MOL0     H 8661   6.755  10.628   7.855  0.1472  0.9731  2.1335
  805MOL0     H 8662   6.670  10.599   7.632 -0.3798 -0.4972  0.8018
  805MOL0     H 8663   6.156  10.812   7.308  0.7753  3.6927  0.4925
  805MOL0     H 8664   6.121  10.818   7.078  0.8900 -1.6455 -0.6011
  805MOL0     H 8665   6.274  10.954   6.741  3.1556  2.3000 -0.0868
  805MOL0     H 8666   6.216  10.980   6.902 -2.7338 -0.7086 -2.1987
  805MOL0     H 8667   6.487  11.046   6.791  0.9032  5.1180  2.7159
  805MOL0     H 8668   6.495  10.961   6.942 -0.5065 -0.7321 -0.5274
  805MOL0     H 8669   6.472  11.198   6.995  0.2549 -0.7571  0.8847
  805MOL0     H 8670   6.327  11.135   7.038 -0.7677  1.6424 -0.6762
  805MOL0     H 8671   6.411  11.256   6.756  2.0681  2.8517 -0.2795
  805MOL0     H 8672   6.349  11.360   6.880  0.2886 -1.4787  1.0761
  805MOL0     H 8673   6.001  11.147   6.692  0.4812  2.5598 -2.3041
  805MOL0     H 8674   6.537  10.766   7.011 -1.6459  6.1342 -2.3220
  805MOL0     H 8675   6.583  10.766   7.240  0.0850  2.7921 -1.8001
  806MOL0     O 8676   1.158   6.792   5.333 -0.1718 -0.0417 -0.6382
  806MOL0     C 8677   1.267   6.737   5.333  0.1406 -1.2069 -0.2533
  806MOL0     O 8678   1.298   6.629   5.263 -0.0119  0.6644 -0.1988
  806MOL0     C 8679   1.197   6.549   5.202  0.0304 -0.6937 -0.9089
  806MOL0     C 8680   1.075   6.591   5.145 -0.5775  0.0510 -0.0639
  806MOL0     C 8681   0.988   6.494   5.092 -0.3683 -0.1222 -0.1209
  806MOL0     C 8682   1.011   6.358   5.098 -0.4652 -0.5234 -0.0709
  806MOL0     O 8683   0.919   6.260   5.076 -0.2668  0.5732 -0.6335
  806MOL0     C 8684   0.787   6.315   5.045  0.5712  1.0260 -0.1061
  806MOL0     C 8685   0.683   6.198   5.071 -0.0484  0.1982  1.3711
  806MOL0     C 8686   0.552   6.226   4.992 -1.0124  0.4165  0.9363
  806MOL0     C 8687   0.449   6.114   5.008 -0.5617  0.9919  0.8646
  806MOL0     C 8688   0.319   6.137   4.932  0.6466  0.3868 -0.7542
  806MOL0     C 8689   0.200   6.085   5.006  0.6110  0.0954 -0.8573
  806MOL0     C 8690   0.203   5.925   5.016 -0.0522 -0.6814  0.3971
  806MOL0     C 8691   0.061   5.883   5.067  0.4726 -0.0343  0.5680
  806MOL0     N 8692   0.045   5.733   5.065 -0.4422  0.5912 -0.8517
  806MOL0     C 8693  -0.026   5.658   4.983 -1.2881 -0.6330  0.1206
  806MOL0     C 8694  -0.021   5.528   5.017 -0.7401  0.5052  0.4494
  806MOL0     C 8695  -0.074   5.411   4.948 -0.8559  1.0648  0.2073
  806MOL0     C 8696   0.011   5.328   4.862 -0.1905  0.0628  0.8619
  806MOL0     C 8697   0.069   5.416   4.756 -1.2917 -0.6923  0.9063
  806MOL0     C 8698   0.146   5.334   4.657 -0.5584 -0.7450  0.4789
  806MOL0     O 8699   0.239   5.421   4.588 -0.0775 -0.3532 -0.3812
  806MOL0     C 8700   0.317   5.374   4.488 -0.7085  0.2990 -0.9566
  806MOL0     C 8701   0.400   5.465   4.421  0.1092  0.8333 -0.0301
  806MOL0     C 8702   0.472   5.420   4.304 -0.1788  0.4630  0.0928
  806MOL0     C 8703   0.561   5.516   4.241 -0.2011 -0.5112  1.1847
  806MOL0     C 8704   0.456   5.281   4.253  0.4203  0.2153  0.9154
  806MOL0     C 8705   0.528   5.222   4.133  0.7156  1.2665 -0.5621
  806MOL0     O 8706   0.481   5.098   4.095  0.5319 -0.1957  0.4759
  806MOL0     C 8707   0.514   5.023   3.988 -1.0432  0.8014  0.1449
  806MOL0     C 8708   0.590   5.059   3.870 -0.2134  0.5026 -0.4811
  806MOL0     C 8709   0.598   4.982   3.759  0.7868  1.1274 -0.4358
  806MOL0     C 8710   0.542   4.853   3.757  0.5494 -1.7458  0.2161
  806MOL0     O 8711   0.554   4.780   3.641  0.4983 -0.8846  0.1137
  806MOL0     C 8712   0.473   4.666   3.607 -0.1375 -0.2775 -0.2791
  806MOL0     C 8713   0.490   4.642   3.456  0.2939 -0.4806 -0.8048
  806MOL0     C 8714   0.399   4.527   3.411  0.8117 -0.4892 -0.4945
  806MOL0     C 8715   0.388   4.524   3.254 -0.1415 -0.5389 -0.3443
  806MOL0     C 8716   0.322   4.394   3.209  0.1554 -0.1001  0.1009
  806MOL0     C 8717   0.398   4.269   3.244  0.9013 -0.6933 -0.4204
  806MOL0     C 8718   0.324   4.137   3.201 -0.4703 -0.5866 -0.0146
  806MOL0     C 8719   0.415   4.021   3.184 -0.8630 -0.4681 -0.6387
  806MOL0    Cl 8720   0.503   4.039   3.036  0.2629  0.0031 -0.4366
  806MOL0     C 8721   0.468   4.813   3.863  0.0820  1.2314 -0.1422
  806MOL0     C 8722   0.460   4.894   3.976 -0.7891  0.4853 -0.8520
  806MOL0     O 8723   0.605   5.295   4.070 -0.4599  0.7993  0.0819
  806MOL0     C 8724   0.363   5.206   4.322 -0.3822 -0.0794 -0.0993
  806MOL0     C 8725   0.295   5.251   4.437  0.4782 -0.5254  0.0775
  806MOL0     N 8726   0.057   5.522   5.133 -0.7417 -0.4059  0.3377
  806MOL0     N 8727   0.106   5.638   5.152 -0.0882  0.3431 -0.4607
  806MOL0     C 8728   1.130   6.319   5.153  0.2684  1.2271 -0.1940
  806MOL0     C 8729   1.225   6.415   5.202  0.2510  0.2649  0.2136
  806MOL0     C 8730   1.377   6.810   5.389  0.0278  0.7308 -0.7369
  806MOL0     C 8731   1.508   6.774   5.363 -0.8576 -0.7044 -0.9017
  806MOL0     C 8732   1.624   6.845   5.413  0.3196  0.6339 -0.3062
  806MOL0     C 8733   1.603   6.955   5.489 -0.1045 -0.3513  0.1348
  806MOL0     O 8734   1.706   7.016   5.550 -0.1622  0.1237 -0.0982
  806MOL0     C 8735   1.805   7.087   5.464  0.8935  0.1145 -0.0332
  806MOL0     C 8736   1.866   7.200   5.549 -0.4484  0.2004  0.7831
  806MOL0     C 8737   1.766   7.326   5.553 -0.4487  0.1040  0.4417
  806MOL0     C 8738   1.770   7.414   5.681 -0.1381  0.2007 -0.6047
  806MOL0     C 8739   1.902   7.428   5.747 -0.8281 -0.0550 -0.0365
  806MOL0     C 8740   2.010   7.458   5.790 -0.5873  1.0940  0.2555
  806MOL0     C 8741   1.474   6.988   5.527 -0.3948  0.5249 -0.3100
  806MOL0     C 8742   1.359   6.911   5.485  0.6627 -0.2446 -0.5770
  806MOL0     H 8743   1.063   6.697   5.122  2.4273  0.4515 -0.0786
  806MOL0     H 8744   0.909   6.538   5.032 -1.4421 -1.6104  0.1478
  806MOL0     H 8745   0.752   6.399   5.106 -1.2647 -0.1676  0.5670
  806MOL0     H 8746   0.787   6.337   4.938 -2.1095  0.4640 -0.3012
  806MOL0     H 8747   0.726   6.105   5.033 -1.6243 -0.4159  0.9754
  806MOL0     H 8748   0.661   6.184   5.177  1.4251  1.2180  1.8476
  806MOL0     H 8749   0.507   6.324   5.010 -0.4012  0.9493 -0.3352
  806MOL0     H 8750   0.575   6.238   4.886  3.4040  1.8322  1.8070
  806MOL0     H 8751   0.493   6.018   4.977 -0.7511  1.1889 -0.0380
  806MOL0     H 8752   0.433   6.104   5.115  1.1360  2.2679  1.2810
  806MOL0     H 8753   0.310   6.246   4.931 -2.8479  0.2402  0.6287
  806MOL0     H 8754   0.319   6.102   4.828 -4.9765  1.4955 -1.4860
  806MOL0     H 8755   0.215   6.135   5.102  4.7067 -0.1245 -1.2246
  806MOL0     H 8756   0.111   6.130   4.961  0.8498  2.1418  0.6055
  806MOL0     H 8757   0.212   5.881   4.916  1.0366  0.3166  0.0328
  806MOL0     H 8758   0.289   5.894   5.076  1.1749  2.4511  0.4182
  806MOL0     H 8759  -0.020   5.922   5.005  0.4625  1.8942  1.7251
  806MOL0     H 8760   0.050   5.914   5.171  3.2209 -2.5170  1.7568
  806MOL0     H 8761  -0.081   5.706   4.902 -1.2579 -0.3807  0.2497
  806MOL0     H 8762  -0.135   5.353   5.018 -0.6526 -0.3217 -0.7344
  806MOL0     H 8763  -0.150   5.454   4.882 -0.1903  1.7270 -0.1332
  806MOL0     H 8764  -0.036   5.245   4.808  1.5711  0.6161 -1.7111
  806MOL0     H 8765   0.090   5.286   4.923 -0.0695 -0.7314  0.1763
  806MOL0     H 8766   0.147   5.482   4.796  0.8657 -1.8569 -1.0916
  806MOL0     H 8767  -0.004   5.478   4.702  0.4768 -1.2102 -2.3687
  806MOL0     H 8768   0.081   5.291   4.581 -2.8020  2.8672  0.0987
  806MOL0     H 8769   0.207   5.252   4.696  0.7284  0.7441  1.7588
  806MOL0     H 8770   0.421   5.565   4.459  1.0147  0.0180  1.7382
  806MOL0     H 8771   0.659   5.475   4.215  0.4657 -0.0035  2.7655
  806MOL0     H 8772   0.505   5.553   4.155 -2.8541 -1.7603  2.2791
  806MOL0     H 8773   0.587   5.598   4.308 -1.3463  1.5492 -0.7492
  806MOL0     H 8774   0.656   5.145   3.883 -0.0802  0.2838  0.3701
  806MOL0     H 8775   0.660   5.009   3.674 -1.2332  1.1302 -1.9805
  806MOL0     H 8776   0.516   4.575   3.649 -0.8794 -1.2372 -1.5257
  806MOL0     H 8777   0.369   4.670   3.640 -0.3832  0.5763 -1.0889
  806MOL0     H 8778   0.457   4.734   3.406 -1.3001 -0.7428 -0.2726
  806MOL0     H 8779   0.593   4.615   3.428  1.0651  0.6064  0.8628
  806MOL0     H 8780   0.304   4.560   3.454  1.7717 -0.2120  1.5856
  806MOL0     H 8781   0.438   4.435   3.455 -0.3048 -0.2714  1.0133
  806MOL0     H 8782   0.334   4.610   3.213  1.5884  1.1356  0.7074
  806MOL0     H 8783   0.488   4.541   3.214 -0.0917  0.3024  0.0990
  806MOL0     H 8784   0.320   4.398   3.100  1.5015 -0.7827  0.0299
  806MOL0     H 8785   0.221   4.391   3.252  0.9162 -0.1467  2.0042
  806MOL0     H 8786   0.496   4.270   3.194  1.4369 -0.8154  0.6024
  806MOL0     H 8787   0.429   4.263   3.348  0.1634 -2.4129 -0.2653
  806MOL0     H 8788   0.268   4.144   3.107  0.5833 -0.4732 -0.6455
  806MOL0     H 8789   0.254   4.114   3.282  2.3759  0.1430  2.8816
  806MOL0     H 8790   0.369   3.922   3.188 -2.0511  0.0892  0.0684
  806MOL0     H 8791   0.484   4.014   3.268 -2.0024  2.2446  0.6336
  806MOL0     H 8792   0.422   4.715   3.862  3.5296 -0.5490 -1.9002
  806MOL0     H 8793   0.387   4.857   4.048 -1.6541 -0.1180 -1.9943
  806MOL0     H 8794   0.341   5.101   4.305 -0.0349 -0.1621 -0.0392
  806MOL0     H 8795   0.223   5.180   4.476 -0.7905  0.3587 -0.5948
  806MOL0     H 8796   1.157   6.214   5.156  1.9612  1.6489  0.5828
  806MOL0     H 8797   1.318   6.375   5.241  0.0126  0.1399  0.6532
  806MOL0     H 8798   1.524   6.691   5.295  0.7489 -0.9863 -0.2247
  806MOL0     H 8799   1.723   6.809   5.387 -1.1029 -1.7128 -2.8976
  806MOL0     H 8800   1.883   7.024   5.421  1.0388 -0.2441  0.7424
  806MOL0     H 8801   1.747   7.130   5.381  1.3447 -0.6726 -0.7764
  806MOL0     H 8802   1.972   7.219   5.530 -0.5326  0.3403  0.4461
  806MOL0     H 8803   1.875   7.154   5.648 -3.9969 -0.3024  0.9808
  806MOL0     H 8804   1.663   7.292   5.540 -0.0172 -3.1291  3.7859
  806MOL0     H 8805   1.795   7.391   5.470  0.9283 -0.4239  0.4766
  806MOL0     H 8806   1.685   7.374   5.737 -0.3456 -0.7301 -1.5502
  806MOL0     H 8807   1.720   7.511   5.667 -2.3468 -0.8380 -0.3938
  806MOL0     H 8808   2.095   7.474   5.853 -0.3064  1.0681 -0.1197
  806MOL0     H 8809   1.454   7.071   5.594  3.0466  1.1596  0.0898
  806MOL0     H 8810   1.258   6.939   5.513 -0.8000 -2.8497 -2.8257
  807MOL0     O 8811   4.263   7.311   3.968 -0.5739 -0.0863  0.0294
  807MOL0     C 8812   4.193   7.211   3.951 -0.3118 -0.5598  0.5562
  807MOL0     O 8813   4.202   7.130   3.843  0.1249  0.0648 -0.0690
  807MOL0     C 8814   4.302   7.154   3.753 -0.5795  0.5580 -0.0162
  807MOL0     C 8815   4.427   7.180   3.799 -1.1117  0.1795  0.0389
  807MOL0     C 8816   4.520   7.219   3.693 -0.3543 -0.3753 -0.2485
  807MOL0     C 8817   4.488   7.243   3.562  0.1791  0.3655 -0.3468
  807MOL0     O 8818   4.578   7.256   3.456  0.4737 -0.1816  0.8521
  807MOL0     C 8819   4.713   7.228   3.471  0.6349 -0.2112 -0.8621
  807MOL0     C 8820   4.798   7.336   3.534  0.6495 -0.5578  1.0712
  807MOL0     C 8821   4.852   7.429   3.424 -0.4414 -0.0401 -0.8074
  807MOL0     C 8822   4.750   7.526   3.377  0.1005  0.3845 -0.2657
  807MOL0     C 8823   4.814   7.613   3.258 -0.5082 -0.0832 -1.1710
  807MOL0     C 8824   4.924   7.727   3.286 -0.4965 -0.9855 -0.2230
  807MOL0     C 8825   4.878   7.837   3.383 -0.2205 -0.2505 -0.7173
  807MOL0     C 8826   5.001   7.924   3.420 -0.1153  0.1028  0.7420
  807MOL0     N 8827   4.969   8.060   3.459 -0.2348 -0.1444 -0.1692
  807MOL0     C 8828   4.894   8.103   3.558  1.3276 -0.4163  0.4640
  807MOL0     C 8829   4.916   8.238   3.584  0.6405  0.2674 -1.2042
  807MOL0     C 8830   4.836   8.321   3.696 -0.0785  0.7969  0.4729
  807MOL0     C 8831   4.880   8.462   3.702 -0.3079 -0.5924  0.3727
  807MOL0     C 8832   4.788   8.559   3.783  0.5919  0.3420 -0.0856
  807MOL0     C 8833   4.839   8.707   3.791 -0.0470 -0.4925  0.2799
  807MOL0     O 8834   4.820   8.754   3.653  0.9392 -0.4467 -0.0347
  807MOL0     C 8835   4.690   8.785   3.611 -1.0957  0.8433  0.9668
  807MOL0     C 8836   4.584   8.813   3.701  0.3446 -0.4382 -0.6160
  807MOL0     C 8837   4.456   8.850   3.645 -0.1453 -0.6565  0.1236
  807MOL0     C 8838   4.347   8.866   3.747 -0.7532  0.6198  0.2206
  807MOL0     C 8839   4.439   8.858   3.505  0.6115  0.5709 -0.0678
  807MOL0     C 8840   4.310   8.891   3.448  0.1412 -1.5160  0.8163
  807MOL0     O 8841   4.294   8.878   3.318 -0.2356 -0.0437 -0.3925
  807MOL0     C 8842   4.189   8.920   3.249  0.4432 -0.7863  0.7675
  807MOL0     C 8843   4.149   8.860   3.132 -0.7233  0.2518  0.7536
  807MOL0     C 8844   4.064   8.935   3.037 -1.3053 -0.2966 -0.0258
  807MOL0     C 8845   4.012   9.059   3.069  0.0395  0.0803 -0.2915
  807MOL0     O 8846   3.921   9.130   2.994  0.4982  0.5131 -0.1557
  807MOL0     C 8847   3.903   9.097   2.853 -0.0196 -0.2141 -1.7096
  807MOL0     C 8848   3.799   9.198   2.807 -0.5402  0.5736  0.3063
  807MOL0     C 8849   3.721   9.153   2.677 -0.5508  0.6555 -0.2824
  807MOL0     C 8850   3.615   9.246   2.625  0.1599 -0.4726 -0.0848
  807MOL0     C 8851   3.482   9.200   2.686  0.2741 -0.5207  0.5305
  807MOL0     C 8852   3.353   9.283   2.671 -0.3930  0.4157 -0.0084
  807MOL0     C 8853   3.366   9.429   2.704 -0.5659 -0.5282 -0.1225
  807MOL0     C 8854   3.241   9.494   2.753  0.6236  0.3721  0.1216
  807MOL0    Cl 8855   3.169   9.405   2.899 -0.1914  0.3237  0.4607
  807MOL0     C 8856   4.043   9.112   3.187  0.2483  0.0526 -0.7784
  807MOL0     C 8857   4.139   9.050   3.269  0.1722  0.3211  1.0803
  807MOL0     O 8858   4.215   8.920   3.520 -0.9097 -0.3677 -0.2081
  807MOL0     C 8859   4.546   8.822   3.427  0.2441  0.9566 -0.2543
  807MOL0     C 8860   4.671   8.789   3.475  0.1056 -0.0202 -0.8371
  807MOL0     N 8861   5.003   8.287   3.495  0.6389  0.6797  0.7870
  807MOL0     N 8862   5.034   8.171   3.427 -0.6992 -0.7769 -0.4981
  807MOL0     C 8863   4.358   7.212   3.528  0.0360 -0.4825  0.0158
  807MOL0     C 8864   4.269   7.158   3.621  0.2929 -0.1627 -0.5264
  807MOL0     C 8865   4.103   7.163   4.061  0.1865  0.6082 -0.6910
  807MOL0     C 8866   4.006   7.056   4.037 -0.1544 -0.1638  0.0880
  807MOL0     C 8867   3.896   7.051   4.122  0.0306 -0.5504  0.5487
  807MOL0     C 8868   3.898   7.118   4.243  1.2076 -0.0897  0.3366
  807MOL0     O 8869   3.784   7.093   4.319 -0.3354  0.0350 -0.8029
  807MOL0     C 8870   3.772   7.169   4.443 -0.6256  0.8797 -0.6106
  807MOL0     C 8871   3.631   7.148   4.498  0.8787 -0.7000 -0.1172
  807MOL0     C 8872   3.599   7.202   4.643 -0.2814 -0.5517  0.6139
  807MOL0     C 8873   3.490   7.147   4.716 -0.3020  0.0555  0.3706
  807MOL0     C 8874   3.362   7.207   4.676  0.0994  1.2306 -0.4645
  807MOL0     C 8875   3.260   7.258   4.656  0.9809  1.4480 -0.3750
  807MOL0     C 8876   4.002   7.193   4.288  0.1073 -0.1628 -0.1763
  807MOL0     C 8877   4.097   7.212   4.192 -0.3205  0.2691 -0.6329
  807MOL0     H 8878   4.463   7.146   3.895  2.4942 -2.0548 -1.8784
  807MOL0     H 8879   4.626   7.214   3.717 -0.2757 -1.2918 -0.7209
  807MOL0     H 8880   4.726   7.142   3.538  6.8835  3.5603  3.9723
  807MOL0     H 8881   4.747   7.196   3.372 -0.7738 -2.6328 -0.6281
  807MOL0     H 8882   4.747   7.386   3.617 -1.2690 -0.6413  0.0052
  807MOL0     H 8883   4.885   7.283   3.574  0.7949 -1.3409 -0.2363
  807MOL0     H 8884   4.945   7.475   3.456 -0.3350 -1.1544  0.5847
  807MOL0     H 8885   4.891   7.365   3.344  1.1920 -0.4939  0.3143
  807MOL0     H 8886   4.657   7.478   3.344 -0.4236  1.0628  0.1923
  807MOL0     H 8887   4.731   7.587   3.466  0.2655 -0.7413  0.5612
  807MOL0     H 8888   4.856   7.540   3.188  1.3810 -0.5176  0.3167
  807MOL0     H 8889   4.738   7.670   3.203  1.4895 -0.2679 -4.4025
  807MOL0     H 8890   5.018   7.684   3.323  1.1868  2.4770 -0.1402
  807MOL0     H 8891   4.963   7.772   3.194  0.2164  3.2365  1.9209
  807MOL0     H 8892   4.804   7.902   3.336  0.5322  1.2553  0.1281
  807MOL0     H 8893   4.855   7.782   3.474  1.2184  0.8044  0.3317
  807MOL0     H 8894   5.064   7.925   3.330 -1.3601 -1.9777 -0.2303
  807MOL0     H 8895   5.059   7.871   3.496 -1.7877 -1.8457  0.7287
  807MOL0     H 8896   4.821   8.030   3.591  1.5691 -1.7122 -1.7585
  807MOL0     H 8897   4.736   8.316   3.651  0.6137  0.3183 -1.0719
  807MOL0     H 8898   4.843   8.278   3.796  1.8336  3.7462  1.7383
  807MOL0     H 8899   4.868   8.499   3.600 -0.0853  1.6019  1.1055
  807MOL0     H 8900   4.985   8.469   3.731  0.0076 -1.7349 -0.4216
  807MOL0     H 8901   4.782   8.513   3.882 -0.0785  0.1064 -0.2334
  807MOL0     H 8902   4.689   8.549   3.737 -0.5811 -3.9579  2.7433
  807MOL0     H 8903   4.945   8.708   3.820  0.0445  0.4570 -0.0479
  807MOL0     H 8904   4.783   8.755   3.871 -1.8138 -1.8298 -0.1105
  807MOL0     H 8905   4.607   8.810   3.807 -2.1766  2.5969  0.1779
  807MOL0     H 8906   4.270   8.791   3.727 -0.4002  0.2695  0.1656
  807MOL0     H 8907   4.384   8.856   3.849  1.6884  0.6700 -0.5960
  807MOL0     H 8908   4.301   8.966   3.748  0.1081  1.0543  2.3888
  807MOL0     H 8909   4.190   8.763   3.106 -4.6297 -2.0468  2.3516
  807MOL0     H 8910   4.035   8.879   2.949  1.7774  1.3848 -2.2937
  807MOL0     H 8911   3.992   9.113   2.791 -1.1641  4.1294 -2.5968
  807MOL0     H 8912   3.852   9.001   2.848  1.5031 -1.1659 -0.2884
  807MOL0     H 8913   3.718   9.193   2.881  0.2012  0.9466  1.1552
  807MOL0     H 8914   3.854   9.292   2.798  2.3628 -1.0132  0.3468
  807MOL0     H 8915   3.697   9.047   2.670  3.3524 -0.4092 -0.2171
  807MOL0     H 8916   3.791   9.152   2.592 -1.5580 -2.3739 -1.1767
  807MOL0     H 8917   3.635   9.344   2.668 -0.9675  0.5053 -1.6671
  807MOL0     H 8918   3.592   9.246   2.518 -4.3036 -1.1905  0.6919
  807MOL0     H 8919   3.500   9.177   2.791  0.0306  1.3224  1.0130
  807MOL0     H 8920   3.473   9.101   2.640  2.5134 -0.7706  0.5188
  807MOL0     H 8921   3.320   9.268   2.567  1.5691  3.5003 -1.2136
  807MOL0     H 8922   3.286   9.233   2.742 -0.9432  1.6267  0.3680
  807MOL0     H 8923   3.422   9.480   2.625 -1.2468  0.6212  0.1119
  807MOL0     H 8924   3.440   9.429   2.785 -0.3976  1.3277 -0.2322
  807MOL0     H 8925   3.169   9.496   2.671 -1.1975  0.7815  1.6492
  807MOL0     H 8926   3.270   9.597   2.778 -1.0424  0.5465  1.4811
  807MOL0     H 8927   3.986   9.195   3.226 -1.3371 -1.9928  1.5981
  807MOL0     H 8928   4.145   9.108   3.361 -2.1818 -0.0872  1.5649
  807MOL0     H 8929   4.531   8.827   3.320 -1.0378  0.2302 -0.1378
  807MOL0     H 8930   4.745   8.755   3.404 -0.0934  0.7010 -1.3975
  807MOL0     H 8931   4.323   7.219   3.425  2.2434 -0.5320 -0.7954
  807MOL0     H 8932   4.167   7.149   3.586 -0.5527 -2.6891  2.1465
  807MOL0     H 8933   4.006   6.989   3.952 -0.5966 -2.3883  1.7328
  807MOL0     H 8934   3.811   6.991   4.093 -0.9233  1.5116 -1.1572
  807MOL0     H 8935   3.848   7.124   4.508  0.5639  3.2092 -0.2748
  807MOL0     H 8936   3.798   7.275   4.439 -0.5351  1.0806  2.5743
  807MOL0     H 8937   3.613   7.040   4.494  2.3551 -0.9368 -1.7614
  807MOL0     H 8938   3.554   7.190   4.433 -0.7116 -1.8277  0.9574
  807MOL0     H 8939   3.588   7.311   4.639  0.5529 -0.4756 -0.0485
  807MOL0     H 8940   3.686   7.193   4.709  0.4717  1.5903 -0.0040
  807MOL0     H 8941   3.496   7.153   4.825  1.2442  0.1224  0.3066
  807MOL0     H 8942   3.489   7.040   4.690  0.9782  0.6783 -2.7130
  807MOL0     H 8943   3.160   7.295   4.645 -0.5506 -1.8389  1.0977
  807MOL0     H 8944   4.019   7.257   4.374  0.1783 -0.3062 -0.0837
  807MOL0     H 8945   4.169   7.291   4.213  1.5499 -0.8361 -2.4435
  808MOL0     O 8946   2.655   3.203  10.834  0.1154  0.3765  0.4861
  808MOL0     C 8947   2.609   3.212  10.715 -0.1011 -0.6848  0.3366
  808MOL0     O 8948   2.689   3.208  10.601  0.5673 -0.4496  0.8149
  808MOL0     C 8949   2.818   3.170  10.604 -0.0095 -0.0009  0.2230
  808MOL0     C 8950   2.899   3.116  10.708 -0.0179  0.1870  0.7777
  808MOL0     C 8951   3.028   3.082  10.693 -0.5690 -0.8960  0.8425
  808MOL0     C 8952   3.096   3.102  10.567 -0.2080 -0.3940 -0.1384
  808MOL0     O 8953   3.226   3.062  10.543  0.8022 -0.4185 -0.7718
  808MOL0     C 8954   3.298   2.969  10.617  1.5121 -0.0549 -0.1806
  808MOL0     C 8955   3.447   2.962  10.585  1.1455  0.2414  0.3197
  808MOL0     C 8956   3.476   2.944  10.440 -1.2115  0.3701  0.7189
  808MOL0     C 8957   3.619   2.882  10.437 -0.1600 -0.5608 -1.2835
  808MOL0     C 8958   3.692   2.869  10.301  0.7616  0.7836 -0.0497
  808MOL0     C 8959   3.844   2.865  10.324 -0.4001  0.6736 -0.7851
  808MOL0     C 8960   3.923   2.859  10.185 -0.0137 -0.2274  0.7098
  808MOL0     C 8961   4.047   2.776  10.170 -0.8796 -0.8755 -0.2495
  808MOL0     N 8962   4.144   2.809  10.269 -0.3388 -0.1837 -0.5361
  808MOL0     C 8963   4.235   2.910  10.255  0.8885  0.0016 -0.3303
  808MOL0     C 8964   4.328   2.897  10.349 -0.0806  0.4780  0.4923
  808MOL0     C 8965   4.458   2.963  10.350  0.7025  0.1725  0.5784
  808MOL0     C 8966   4.436   3.116  10.377  1.2709 -0.1343 -0.5897
  808MOL0     C 8967   4.560   3.183  10.399  0.6250 -0.5622  0.7758
  808MOL0     C 8968   4.651   3.180  10.266  0.3174  0.5377 -1.2078
  808MOL0     O 8969   4.753   3.279  10.248 -0.3112 -0.3622  0.2341
  808MOL0     C 8970   4.880   3.240  10.279  0.9499  0.0367 -0.0672
  808MOL0     C 8971   4.955   3.316  10.362  0.4100  0.1342 -0.1720
  808MOL0     C 8972   5.091   3.286  10.384  0.3278 -0.7559  0.0332
  808MOL0     C 8973   5.160   3.385  10.482 -0.3416 -0.5248 -0.2485
  808MOL0     C 8974   5.159   3.183  10.307  0.0852  0.0238 -0.1391
  808MOL0     C 8975   5.292   3.144  10.319  0.3910  0.4152  0.1326
  808MOL0     O 8976   5.382   3.221  10.387  0.2524 -0.1131  0.5474
  808MOL0     C 8977   5.516   3.202  10.356  0.2937 -0.5350 -0.1790
  808MOL0     C 8978   5.557   3.223  10.229 -1.7247 -0.4920 -0.1845
  808MOL0     C 8979   5.697   3.201  10.187 -0.2983  0.1375  0.4186
  808MOL0     C 8980   5.784   3.160  10.284 -0.0124  0.4665 -0.1959
  808MOL0     O 8981   5.915   3.127  10.256 -0.0252 -0.2681 -0.2953
  808MOL0     C 8982   6.018   3.164  10.348 -0.0922 -0.2660 -0.0410
  808MOL0     C 8983   6.103   3.273  10.297  0.4498 -1.1512  0.3997
  808MOL0     C 8984   6.161   3.241  10.164 -0.0727  0.0445  0.8182
  808MOL0     C 8985   6.288   3.320  10.146 -0.4712  0.0797 -0.4459
  808MOL0     C 8986   6.355   3.256  10.022 -0.1837  0.5722 -0.8522
  808MOL0     C 8987   6.289   3.297   9.889  0.1054 -0.3652  0.8663
  808MOL0     C 8988   6.380   3.278   9.767  0.3814  0.1536  0.0704
  808MOL0     C 8989   6.339   3.340   9.632  0.4752 -0.0843 -0.3016
  808MOL0    Cl 8990   6.171   3.307   9.607 -0.6895 -0.3850 -0.2560
  808MOL0     C 8991   5.739   3.124  10.413  0.0325  0.3576  0.4430
  808MOL0     C 8992   5.606   3.146  10.447 -0.7380 -0.2400  0.5874
  808MOL0     O 8993   5.314   3.028  10.273 -0.7004 -0.0492  0.4376
  808MOL0     C 8994   5.074   3.103  10.227  1.2146 -0.5315  0.1167
  808MOL0     C 8995   4.941   3.137  10.204  0.5421  0.1587  0.3520
  808MOL0     N 8996   4.292   2.791  10.426  0.2253 -0.8194  0.1442
  808MOL0     N 8997   4.181   2.745  10.378 -0.5006  0.2682 -0.2150
  808MOL0     C 8998   3.025   3.162  10.460  0.2315  0.4616 -0.7840
  808MOL0     C 8999   2.883   3.195  10.484 -0.8531  0.1347 -0.1647
  808MOL0     C 9000   2.477   3.253  10.691  0.4511 -0.2794  0.1454
  808MOL0     C 9001   2.384   3.262  10.796 -0.0635 -0.0449 -0.4122
  808MOL0     C 9002   2.247   3.280  10.769 -0.1929  0.0468  0.5959
  808MOL0     C 9003   2.205   3.288  10.639  0.2392 -1.0386 -0.3424
  808MOL0     O 9004   2.077   3.311  10.606  0.4431 -0.0133 -0.2263
  808MOL0     C 9005   1.978   3.353  10.707 -0.9204 -0.1971 -0.6820
  808MOL0     C 9006   1.868   3.438  10.646  0.5526 -1.0428 -0.3904
  808MOL0     C 9007   1.744   3.429  10.731 -0.6315 -0.1146 -0.8859
  808MOL0     C 9008   1.661   3.555  10.703 -0.0722 -0.7488 -0.2439
  808MOL0     C 9009   1.523   3.548  10.736 -0.0673 -0.8008 -0.8879
  808MOL0     C 9010   1.403   3.546  10.768  0.5657 -0.6225  0.2966
  808MOL0     C 9011   2.301   3.303  10.536  0.5564  0.7437 -0.1105
  808MOL0     C 9012   2.433   3.268  10.563  0.2989  0.2902 -0.1171
  808MOL0     H 9013   2.871   3.102  10.812  1.2053 -0.7437  1.0130
  808MOL0     H 9014   3.078   3.028  10.773 -0.0437 -0.6860  0.6650
  808MOL0     H 9015   3.289   2.976  10.726  3.9343 -1.1584  0.1682
  808MOL0     H 9016   3.262   2.872  10.582  1.7579 -0.6243  1.0919
  808MOL0     H 9017   3.499   3.053  10.616 -0.7375  1.8087 -0.8915
  808MOL0     H 9018   3.486   2.874  10.637  2.5075  0.4364 -0.3207
  808MOL0     H 9019   3.423   2.860  10.394  3.6813 -2.6070 -0.2440
  808MOL0     H 9020   3.466   3.033  10.378 -0.4870 -0.3702 -0.4962
  808MOL0     H 9021   3.676   2.944  10.507 -1.4351 -1.6019  0.7845
  808MOL0     H 9022   3.609   2.783  10.482 -0.7738  1.1206  2.7009
  808MOL0     H 9023   3.649   2.784  10.248 -1.9871  2.8536 -1.3718
  808MOL0     H 9024   3.669   2.946  10.228 -1.0568 -0.9894 -1.4442
  808MOL0     H 9025   3.874   2.956  10.377 -2.1816  0.4966  0.6496
  808MOL0     H 9026   3.880   2.778  10.380 -3.2976 -2.8899 -3.9220
  808MOL0     H 9027   3.861   2.810  10.110  1.1081 -1.6438  0.6607
  808MOL0     H 9028   3.944   2.957  10.141  0.1334 -1.2484 -1.6128
  808MOL0     H 9029   4.088   2.804  10.072 -0.6526  6.7423  1.3813
  808MOL0     H 9030   4.018   2.671  10.165 -0.0123 -1.4539  3.6977
  808MOL0     H 9031   4.239   2.982  10.174 -0.7340  4.1420  2.9196
  808MOL0     H 9032   4.530   2.915  10.416  0.4684  0.0551  0.7515
  808MOL0     H 9033   4.502   2.950  10.250  2.1885  2.1953  0.9128
  808MOL0     H 9034   4.373   3.131  10.465 -1.4165 -0.5129 -2.3185
  808MOL0     H 9035   4.382   3.153  10.289 -2.0959 -1.0962  0.9215
  808MOL0     H 9036   4.602   3.146  10.493 -1.2932 -2.4764  0.9838
  808MOL0     H 9037   4.544   3.287  10.429  1.6067  0.0445 -0.6852
  808MOL0     H 9038   4.592   3.180  10.175  0.4208  3.7727 -1.3924
  808MOL0     H 9039   4.700   3.084  10.286  0.8571  1.5031  3.1361
  808MOL0     H 9040   4.908   3.404  10.405  1.0681  1.2629 -1.6634
  808MOL0     H 9041   5.241   3.437  10.430  0.4668 -1.9643 -0.5024
  808MOL0     H 9042   5.092   3.462  10.519  1.7112  0.0716  2.5888
  808MOL0     H 9043   5.207   3.328  10.562 -0.2085  0.3332  0.2895
  808MOL0     H 9044   5.489   3.261  10.154 -1.1295  3.7845  1.1558
  808MOL0     H 9045   5.744   3.204  10.089  3.8874 -2.1301  2.0883
  808MOL0     H 9046   5.976   3.197  10.443  1.8910  2.2883  0.0865
  808MOL0     H 9047   6.078   3.073  10.354  1.9359  0.9253 -0.8190
  808MOL0     H 9048   6.041   3.363  10.293  1.2679 -0.6016 -0.1344
  808MOL0     H 9049   6.177   3.298  10.373 -1.6863  0.1512  2.1922
  808MOL0     H 9050   6.085   3.266  10.090  1.9506  1.6786 -0.8663
  808MOL0     H 9051   6.177   3.132  10.164  2.3538  0.3144  2.1556
  808MOL0     H 9052   6.256   3.422  10.125  0.3799 -0.0987 -2.9426
  808MOL0     H 9053   6.348   3.313  10.238  1.3905 -2.3718 -1.7354
  808MOL0     H 9054   6.397   3.156  10.031  0.4800  1.0248  1.5989
  808MOL0     H 9055   6.453   3.305  10.019  1.6913 -2.5182  2.5306
  808MOL0     H 9056   6.190   3.254   9.874  0.6288 -1.5861  0.8535
  808MOL0     H 9057   6.272   3.405   9.891 -4.6788 -0.8845 -0.6882
  808MOL0     H 9058   6.397   3.172   9.751  1.3370  0.5738 -2.0678
  808MOL0     H 9059   6.479   3.321   9.784  1.4912 -1.6340 -1.4937
  808MOL0     H 9060   6.417   3.310   9.561  1.5892 -1.3049  1.3575
  808MOL0     H 9061   6.350   3.448   9.650 -0.0313 -0.3650  1.9549
  808MOL0     H 9062   5.814   3.087  10.482  1.4416  0.9926 -0.6933
  808MOL0     H 9063   5.574   3.121  10.548 -1.1883 -0.9425  0.2854
  808MOL0     H 9064   5.109   3.019  10.168 -0.2993 -2.3683  1.6985
  808MOL0     H 9065   4.875   3.073  10.148 -1.7303  2.2853  0.4322
  808MOL0     H 9066   3.072   3.180  10.364  3.6549 -1.9989  0.2447
  808MOL0     H 9067   2.828   3.242  10.404  0.7388  0.5079 -1.0965
  808MOL0     H 9068   2.418   3.250  10.899  0.5050  0.7317 -0.4942
  808MOL0     H 9069   2.174   3.287  10.849  0.6124  2.8665  1.2282
  808MOL0     H 9070   1.936   3.271  10.766 -0.2673  0.7957  1.2696
  808MOL0     H 9071   2.040   3.407  10.779  0.9211  0.7347 -2.8331
  808MOL0     H 9072   1.848   3.413  10.541  0.2045  2.0971 -1.1670
  808MOL0     H 9073   1.913   3.537  10.637  1.5344 -1.6321 -2.6996
  808MOL0     H 9074   1.761   3.416  10.838  1.1995 -1.3917 -1.2947
  808MOL0     H 9075   1.690   3.342  10.693  2.1687 -1.1277 -2.9127
  808MOL0     H 9076   1.664   3.580  10.597  1.6691  1.6469  0.2649
  808MOL0     H 9077   1.710   3.635  10.760 -3.3371 -0.5531  2.6172
  808MOL0     H 9078   1.303   3.573  10.795  1.2484  0.7023  1.5907
  808MOL0     H 9079   2.263   3.308  10.434 -0.5676 -4.9052 -0.2642
  808MOL0     H 9080   2.503   3.264  10.480 -1.0458 -0.3186 -1.2602
  809MOL0     O 9081   9.572   0.686   4.846  0.3887  0.3808 -0.0775
  809MOL0     C 9082   9.526   0.796   4.821 -0.5403  0.2073 -0.0144
  809MOL0     O 9083   9.437   0.833   4.728  0.8181  0.0671 -0.6839
  809MOL0     C 9084   9.351   0.745   4.670 -0.0317 -0.2748  0.0140
  809MOL0     C 9085   9.309   0.790   4.540 -0.3550 -0.5859  0.2445
  809MOL0     C 9086   9.218   0.710   4.465 -0.1376  0.4004 -1.4440
  809MOL0     C 9087   9.163   0.591   4.508  0.2842  0.3106 -0.6394
  809MOL0     O 9088   9.090   0.522   4.417 -0.5385  1.1258 -0.2900
  809MOL0     C 9089   8.999   0.424   4.462 -0.4332  0.0428 -0.8192
  809MOL0     C 9090   8.924   0.358   4.342  0.2558 -0.0439 -0.2171
  809MOL0     C 9091   8.887   0.456   4.227 -0.2899 -0.0055  0.5069
  809MOL0     C 9092   8.850   0.398   4.091  0.9086 -0.3796  0.1790
  809MOL0     C 9093   8.825   0.500   3.982 -1.5357  0.7279  1.1596
  809MOL0     C 9094   8.967   0.537   3.915 -0.0469  0.1436 -0.5745
  809MOL0     C 9095   8.947   0.650   3.816  0.3859  0.2416 -0.1686
  809MOL0     C 9096   8.859   0.619   3.686  0.2282 -0.4324  0.3647
  809MOL0     N 9097   8.852   0.734   3.593 -0.4274  0.2751  0.3956
  809MOL0     C 9098   8.804   0.860   3.625  0.0995 -0.1638  0.8168
  809MOL0     C 9099   8.773   0.906   3.507 -0.2048 -0.5196  1.0935
  809MOL0     C 9100   8.721   1.046   3.481 -0.3376 -0.5619  0.3005
  809MOL0     C 9101   8.821   1.155   3.512  0.2448 -0.2826  0.0122
  809MOL0     C 9102   8.941   1.144   3.404  0.3938 -0.2179 -0.5692
  809MOL0     C 9103   8.901   1.174   3.267  1.3124 -0.7703 -0.2553
  809MOL0     O 9104   8.857   1.308   3.263  0.2895  0.2286 -0.2395
  809MOL0     C 9105   8.969   1.388   3.219  0.9284 -0.8058  0.2290
  809MOL0     C 9106   9.033   1.469   3.311  0.1029  0.3815 -1.6784
  809MOL0     C 9107   9.145   1.539   3.274  0.1478 -0.6650  0.2451
  809MOL0     C 9108   9.198   1.626   3.392  0.6478  0.4901 -0.0317
  809MOL0     C 9109   9.194   1.543   3.136  1.5683  0.0859 -0.5534
  809MOL0     C 9110   9.323   1.606   3.101 -0.2926 -0.1095  0.4310
  809MOL0     O 9111   9.321   1.678   2.981 -0.5141 -0.0702  0.3567
  809MOL0     C 9112   9.420   1.758   2.936  0.0072  0.2152  0.4837
  809MOL0     C 9113   9.391   1.868   2.849  0.9479  0.4368 -0.6547
  809MOL0     C 9114   9.498   1.944   2.815  0.3789 -0.4283  0.8917
  809MOL0     C 9115   9.634   1.918   2.852 -0.5198 -0.8524  0.7208
  809MOL0     O 9116   9.734   2.003   2.823  0.0634 -0.1982  0.0822
  809MOL0     C 9117   9.725   2.133   2.861 -0.8655  0.1025 -0.5068
  809MOL0     C 9118   9.864   2.191   2.882 -0.2595 -0.2429  0.5283
  809MOL0     C 9119   9.867   2.313   2.971  0.1732  0.2359  0.6535
  809MOL0     C 9120   9.809   2.440   2.898 -0.5633  0.3207 -0.3635
  809MOL0     C 9121   9.760   2.534   3.004  0.5884 -0.3988 -0.1324
  809MOL0     C 9122   9.684   2.651   2.952  0.0070  0.3858  0.2778
  809MOL0     C 9123   9.591   2.717   3.049  0.7019  1.0199  0.3696
  809MOL0     C 9124   9.582   2.864   3.014 -0.0611  0.6027 -0.7568
  809MOL0    Cl 9125   9.436   2.910   3.094 -0.3146  0.3298  0.2263
  809MOL0     C 9126   9.661   1.791   2.914 -0.1026 -0.1800 -0.1294
  809MOL0     C 9127   9.549   1.714   2.951 -0.3295  0.0573 -0.6187
  809MOL0     O 9128   9.411   1.601   3.184 -0.1771  0.2096  0.5263
  809MOL0     C 9129   9.115   1.471   3.047 -0.8915 -0.0511  0.6847
  809MOL0     C 9130   9.004   1.396   3.083 -0.1227 -0.4018 -1.4291
  809MOL0     N 9131   8.789   0.814   3.402 -0.2270 -0.3185 -0.4572
  809MOL0     N 9132   8.845   0.712   3.458  1.1900 -1.3317 -0.8743
  809MOL0     C 9133   9.201   0.544   4.638  0.2546  0.1901 -0.4167
  809MOL0     C 9134   9.294   0.623   4.709 -0.4119 -0.2484  0.2223
  809MOL0     C 9135   9.588   0.915   4.892 -0.3711 -0.2020  0.2981
  809MOL0     C 9136   9.549   1.049   4.868 -0.0176 -0.0118  0.2739
  809MOL0     C 9137   9.611   1.158   4.927 -0.5469 -0.2383  0.2290
  809MOL0     C 9138   9.713   1.146   5.026  0.0702  0.6789  0.5127
  809MOL0     O 9139   9.769   1.255   5.094  0.0771  0.0614 -0.6006
  809MOL0     C 9140   9.680   1.357   5.136 -0.1485 -1.2234  0.6375
  809MOL0     C 9141   9.708   1.486   5.051 -0.1205  0.0346  0.8200
  809MOL0     C 9142   9.865   1.502   5.039  2.0154 -0.0555 -0.5853
  809MOL0     C 9143   9.900   1.643   4.997  0.4695 -0.7799 -0.1818
  809MOL0     C 9144   9.889   1.659   4.848 -0.5060  0.4307 -0.9216
  809MOL0     C 9145   9.878   1.693   4.735  0.0779  0.0437 -0.5861
  809MOL0     C 9146   9.758   1.012   5.038 -0.1396  0.6866 -0.0668
  809MOL0     C 9147   9.689   0.901   4.983  0.7031  0.5712  0.0431
  809MOL0     H 9148   9.360   0.883   4.517  0.2886 -0.9419  0.2151
  809MOL0     H 9149   9.182   0.751   4.371 -1.5969 -0.0914 -1.1241
  809MOL0     H 9150   9.054   0.339   4.501  1.8097 -0.3721 -4.4608
  809MOL0     H 9151   8.921   0.472   4.523  1.8879 -0.9949  3.3355
  809MOL0     H 9152   8.988   0.280   4.299 -2.9556 -1.5965 -2.4943
  809MOL0     H 9153   8.828   0.310   4.364  2.0340 -3.9384 -0.0508
  809MOL0     H 9154   8.812   0.527   4.263 -1.3161 -0.7560 -0.0955
  809MOL0     H 9155   8.970   0.521   4.198 -1.7453  0.7738 -2.1746
  809MOL0     H 9156   8.926   0.327   4.060  0.8663  0.2879 -1.5648
  809MOL0     H 9157   8.762   0.337   4.110 -0.8965  2.2686  0.9358
  809MOL0     H 9158   8.762   0.458   3.904  2.0761 -1.3302 -0.9149
  809MOL0     H 9159   8.785   0.596   4.017  1.0845  1.4261  2.5632
  809MOL0     H 9160   9.029   0.582   3.994  1.2048 -0.7447 -1.0203
  809MOL0     H 9161   9.014   0.451   3.866 -0.4697 -2.0673  2.5579
  809MOL0     H 9162   8.886   0.727   3.865  0.9506  2.3810 -2.5921
  809MOL0     H 9163   9.046   0.685   3.785  0.4732 -0.7716 -1.0959
  809MOL0     H 9164   8.758   0.582   3.704  0.4480 -1.9536 -1.2030
  809MOL0     H 9165   8.914   0.538   3.636  0.6903 -2.4448  3.8124
  809MOL0     H 9166   8.787   0.916   3.716 -1.5170 -0.2519  0.6056
  809MOL0     H 9167   8.682   1.042   3.379 -2.0013  0.3151  0.8634
  809MOL0     H 9168   8.636   1.057   3.549 -1.5120  2.2088 -1.4305
  809MOL0     H 9169   8.858   1.146   3.614  1.7288  1.3074 -0.3563
  809MOL0     H 9170   8.776   1.254   3.508  2.6509  1.6362  6.7216
  809MOL0     H 9171   8.977   1.041   3.395  0.9832  0.0052 -0.8069
  809MOL0     H 9172   9.028   1.205   3.427 -0.8258  2.4153 -2.3762
  809MOL0     H 9173   8.815   1.114   3.238  2.6002 -2.4807 -0.6724
  809MOL0     H 9174   8.979   1.148   3.195  1.9022 -1.2328  0.5300
  809MOL0     H 9175   8.999   1.465   3.414 -0.2404  1.9889 -1.7101
  809MOL0     H 9176   9.256   1.714   3.364  2.3745 -0.2741  0.9976
  809MOL0     H 9177   9.112   1.649   3.455 -1.0893 -1.2800 -1.6457
  809MOL0     H 9178   9.274   1.564   3.440 -1.1805  1.3140  4.3646
  809MOL0     H 9179   9.289   1.898   2.828  1.1078  0.3714 -1.5649
  809MOL0     H 9180   9.474   2.033   2.759 -0.7605 -0.9816  0.4785
  809MOL0     H 9181   9.667   2.188   2.786 -0.4640  1.6728  0.2774
  809MOL0     H 9182   9.673   2.144   2.956  1.9924 -0.1219  1.2072
  809MOL0     H 9183   9.909   2.122   2.955  0.4510  0.6416  0.9338
  809MOL0     H 9184   9.906   2.202   2.782  2.1745 -0.9274  1.4044
  809MOL0     H 9185   9.975   2.325   2.986  0.3380 -1.7723  1.3132
  809MOL0     H 9186   9.827   2.280   3.067 -0.9601 -1.5199 -0.3828
  809MOL0     H 9187   9.892   2.494   2.850  2.2785 -3.5841 -0.4053
  809MOL0     H 9188   9.734   2.415   2.823  0.4178 -1.0434 -0.9447
  809MOL0     H 9189   9.849   2.560   3.061  0.1839  2.3474 -0.5987
  809MOL0     H 9190   9.698   2.466   3.063 -1.7499 -1.2810 -3.3097
  809MOL0     H 9191   9.757   2.727   2.922  0.2920  1.1268  2.6281
  809MOL0     H 9192   9.632   2.622   2.861  0.7276 -0.6977  0.1949
  809MOL0     H 9193   9.640   2.722   3.147  0.2370  2.8396  0.5342
  809MOL0     H 9194   9.497   2.661   3.053 -0.5480  2.9914 -0.1375
  809MOL0     H 9195   9.576   2.906   2.913  0.7992  3.8016  0.3809
  809MOL0     H 9196   9.671   2.913   3.054  1.3390 -1.5377 -1.0574
  809MOL0     H 9197   9.759   1.761   2.948  0.2136 -1.3829 -1.9416
  809MOL0     H 9198   9.570   1.618   2.995 -2.2865 -0.1683 -0.1105
  809MOL0     H 9199   9.155   1.469   2.947  2.3122  1.3583  1.8023
  809MOL0     H 9200   8.946   1.352   3.002 -0.2739  0.7827 -1.9892
  809MOL0     H 9201   9.159   0.452   4.677 -2.1512  1.4559  0.1207
  809MOL0     H 9202   9.314   0.589   4.810  0.3631 -1.9237 -0.4649
  809MOL0     H 9203   9.463   1.064   4.803  0.5152 -3.4741 -1.4583
  809MOL0     H 9204   9.572   1.258   4.911  0.3225  1.1252  5.0400
  809MOL0     H 9205   9.575   1.329   5.128  0.3937 -3.2191 -0.0426
  809MOL0     H 9206   9.707   1.370   5.241  2.5326  0.4737 -0.1471
  809MOL0     H 9207   9.671   1.577   5.100  3.3775  1.7367  0.6102
  809MOL0     H 9208   9.666   1.479   4.951  4.1277 -1.2357 -1.1108
  809MOL0     H 9209   9.904   1.434   4.964 -0.8173  0.3978 -2.6461
  809MOL0     H 9210   9.919   1.470   5.129 -0.4379 -0.1480  0.9797
  809MOL0     H 9211  10.005   1.656   5.023 -0.2247  3.1373  1.3481
  809MOL0     H 9212   9.854   1.724   5.054 -0.0354 -0.5499 -0.8961
  809MOL0     H 9213   9.854   1.715   4.633  3.0208  0.2790 -1.3140
  809MOL0     H 9214   9.843   0.983   5.099  1.3754 -0.2624 -2.4861
  809MOL0     H 9215   9.738   0.805   4.998  0.0953  0.3173  0.4171
  810MOL0     O 9216   6.990   7.473   2.845 -0.0706  0.0275 -0.7241
  810MOL0     C 9217   7.009   7.516   2.733 -0.6402  0.5304  0.4766
  810MOL0     O 9218   6.969   7.639   2.691 -0.4786  0.0172 -0.1723
  810MOL0     C 9219   6.909   7.727   2.786 -0.0721 -0.2994 -0.3160
  810MOL0     C 9220   6.982   7.787   2.894  0.0949  0.1161 -0.0390
  810MOL0     C 9221   6.914   7.882   2.980 -0.4878 -0.5260 -0.1352
  810MOL0     C 9222   6.788   7.934   2.947  0.2619  0.5458 -0.4725
  810MOL0     O 9223   6.726   8.024   3.023 -0.9128 -0.4618 -0.0676
  810MOL0     C 9224   6.799   8.139   3.072 -0.5225  0.6922 -0.0656
  810MOL0     C 9225   6.704   8.237   3.132 -0.3154  0.2109  0.5706
  810MOL0     C 9226   6.784   8.370   3.173 -0.2780  0.1975  0.2720
  810MOL0     C 9227   6.682   8.474   3.219  0.5004 -0.1063 -0.7708
  810MOL0     C 9228   6.742   8.582   3.311  0.0106  0.9807  0.4056
  810MOL0     C 9229   6.638   8.674   3.361 -0.1436  0.1247  0.9086
  810MOL0     C 9230   6.709   8.773   3.452  0.3761  0.1116  0.2751
  810MOL0     C 9231   6.602   8.879   3.491  0.0796 -0.2692  0.0225
  810MOL0     N 9232   6.532   8.851   3.611 -0.1712 -0.2196 -0.1400
  810MOL0     C 9233   6.443   8.752   3.633 -0.6319 -0.0995 -0.0762
  810MOL0     C 9234   6.459   8.728   3.763 -0.1997 -0.7428 -0.8314
  810MOL0     C 9235   6.378   8.619   3.835  0.4250 -0.3720 -0.1172
  810MOL0     C 9236   6.246   8.672   3.895 -0.7456  0.3558  0.2832
  810MOL0     C 9237   6.259   8.761   4.021  0.3780  0.2733  0.0306
  810MOL0     C 9238   6.294   8.685   4.153  0.3966 -0.7105  0.4331
  810MOL0     O 9239   6.201   8.585   4.185  0.7010  0.1995 -0.3074
  810MOL0     C 9240   6.189   8.536   4.317 -1.0588 -0.7433 -0.5612
  810MOL0     C 9241   6.281   8.560   4.418 -0.8342  0.2296 -0.2277
  810MOL0     C 9242   6.280   8.508   4.547 -0.0076  0.6209 -0.0783
  810MOL0     C 9243   6.394   8.543   4.646  0.2213  0.4412  0.1764
  810MOL0     C 9244   6.169   8.424   4.578 -0.0252 -0.3331 -0.0700
  810MOL0     C 9245   6.150   8.352   4.713  0.5797  0.7089  0.2153
  810MOL0     O 9246   6.069   8.245   4.714  0.3306 -0.1132 -0.1247
  810MOL0     C 9247   6.048   8.159   4.811  0.0873  0.1129 -1.2068
  810MOL0     C 9248   5.969   8.199   4.918  0.2453  0.6109  0.6395
  810MOL0     C 9249   5.947   8.104   5.021 -0.5826  0.4729  0.6639
  810MOL0     C 9250   6.024   7.985   5.029  0.0992  0.8157  0.2519
  810MOL0     O 9251   6.025   7.887   5.124  0.7214  0.4658 -0.0961
  810MOL0     C 9252   5.939   7.907   5.234  0.0412 -0.7946 -0.8983
  810MOL0     C 9253   5.960   7.795   5.335 -0.1930  0.1022 -0.3346
  810MOL0     C 9254   6.105   7.766   5.365 -0.5545 -0.8595 -1.2375
  810MOL0     C 9255   6.113   7.672   5.493 -0.0039  0.0160  0.0651
  810MOL0     C 9256   6.155   7.532   5.455 -0.1869  0.2960 -0.6618
  810MOL0     C 9257   6.254   7.468   5.549 -0.0898  0.8149 -0.1811
  810MOL0     C 9258   6.303   7.325   5.514  0.1252 -0.1845 -0.0257
  810MOL0     C 9259   6.416   7.315   5.413  0.0653 -0.0025 -0.0013
  810MOL0    Cl 9260   6.562   7.352   5.513  0.0625 -0.3454 -0.2605
  810MOL0     C 9261   6.103   7.946   4.919  0.0422  0.3573  1.0601
  810MOL0     C 9262   6.105   8.031   4.814  0.0175 -0.0059  0.0126
  810MOL0     O 9263   6.201   8.396   4.811 -0.2787  0.0514  0.2328
  810MOL0     C 9264   6.074   8.400   4.480 -0.1517  0.3381 -0.1448
  810MOL0     C 9265   6.077   8.463   4.353 -1.3858 -0.6145  0.1252
  810MOL0     N 9266   6.544   8.819   3.820 -0.3589  0.0064 -1.2691
  810MOL0     N 9267   6.584   8.898   3.730  0.2346 -0.2338  0.4727
  810MOL0     C 9268   6.720   7.882   2.840  0.1720 -0.7777 -0.5363
  810MOL0     C 9269   6.780   7.786   2.755  0.0166  0.1058  0.5479
  810MOL0     C 9270   7.088   7.425   2.638 -0.0546 -0.2056 -0.4058
  810MOL0     C 9271   7.117   7.477   2.505 -0.5784 -0.6409 -1.0152
  810MOL0     C 9272   7.170   7.390   2.405 -0.1934  0.2795 -0.2152
  810MOL0     C 9273   7.209   7.256   2.440  0.2255 -0.2585 -0.3891
  810MOL0     O 9274   7.274   7.176   2.347 -0.6486  0.6881 -0.5398
  810MOL0     C 9275   7.217   7.046   2.343  0.1829 -0.8292 -0.2609
  810MOL0     C 9276   7.214   6.988   2.202 -0.0165  0.6165 -0.0947
  810MOL0     C 9277   7.331   6.896   2.174 -1.2130  0.4217 -0.3845
  810MOL0     C 9278   7.295   6.785   2.070 -1.0473  0.8121  0.5645
  810MOL0     C 9279   7.196   6.689   2.124 -0.8458  0.4602 -0.9075
  810MOL0     C 9280   7.135   6.604   2.189 -0.1251 -0.0461  0.1298
  810MOL0     C 9281   7.194   7.223   2.578 -0.1771 -0.6688  0.5442
  810MOL0     C 9282   7.132   7.300   2.674  0.6491  0.1310 -1.2664
  810MOL0     H 9283   7.082   7.748   2.906  1.5963  2.5658 -3.0906
  810MOL0     H 9284   6.977   7.926   3.057  1.5257 -0.2791 -1.8507
  810MOL0     H 9285   6.868   8.094   3.145  0.5940  0.2822 -1.3286
  810MOL0     H 9286   6.864   8.185   2.997  0.5668  0.4234  0.6728
  810MOL0     H 9287   6.632   8.262   3.053  1.9412  1.7706 -1.1478
  810MOL0     H 9288   6.650   8.187   3.213 -2.1599  2.4385  0.8015
  810MOL0     H 9289   6.856   8.353   3.253  1.6384  0.7900 -1.2599
  810MOL0     H 9290   6.844   8.408   3.091 -1.0272  0.1776 -0.2996
  810MOL0     H 9291   6.634   8.510   3.127 -3.8581 -4.8542 -0.8460
  810MOL0     H 9292   6.596   8.429   3.270 -0.7246  0.3586 -2.3153
  810MOL0     H 9293   6.788   8.531   3.396  1.4818  0.7521 -0.4889
  810MOL0     H 9294   6.817   8.633   3.250  2.3871 -1.2013  1.2955
  810MOL0     H 9295   6.584   8.727   3.282 -0.5757 -1.5032  0.0799
  810MOL0     H 9296   6.568   8.615   3.421 -2.0407 -1.2035 -2.3957
  810MOL0     H 9297   6.753   8.736   3.545 -3.9761  0.4742  2.7285
  810MOL0     H 9298   6.789   8.816   3.390  1.2491 -2.5282 -0.5760
  810MOL0     H 9299   6.528   8.902   3.414 -0.3693  0.2351  0.5936
  810MOL0     H 9300   6.649   8.975   3.518  0.1418 -1.0941  3.3687
  810MOL0     H 9301   6.385   8.695   3.560  0.1812 -0.2715 -0.6004
  810MOL0     H 9302   6.366   8.537   3.764 -2.6486  0.2659 -0.4438
  810MOL0     H 9303   6.428   8.573   3.921 -0.7937  0.1728  0.9102
  810MOL0     H 9304   6.178   8.591   3.923  1.1346 -0.6026  2.4136
  810MOL0     H 9305   6.193   8.726   3.817  1.3140 -0.6804 -1.9769
  810MOL0     H 9306   6.161   8.810   4.017 -3.6259 -6.3617 -5.9524
  810MOL0     H 9307   6.319   8.850   3.999 -4.1039  3.6801 -0.0198
  810MOL0     H 9308   6.294   8.761   4.232  2.9839  0.8624 -0.9608
  810MOL0     H 9309   6.394   8.641   4.147  0.5184 -1.1091  3.6734
  810MOL0     H 9310   6.356   8.635   4.396  0.6030 -1.1313 -0.1839
  810MOL0     H 9311   6.441   8.449   4.673  0.6545 -0.1126 -2.3070
  810MOL0     H 9312   6.467   8.610   4.600  1.6190 -1.9291 -1.2029
  810MOL0     H 9313   6.349   8.592   4.733  1.2264 -0.1679  1.0564
  810MOL0     H 9314   5.928   8.299   4.916  2.7010  1.7216 -2.7177
  810MOL0     H 9315   5.863   8.118   5.088  0.6212  1.5380  2.0191
  810MOL0     H 9316   5.962   8.002   5.282 -2.7624 -0.1455 -0.6772
  810MOL0     H 9317   5.832   7.911   5.211 -0.9671 -1.5345  3.0044
  810MOL0     H 9318   5.908   7.837   5.422  1.9401 -0.1686  1.1711
  810MOL0     H 9319   5.911   7.706   5.294 -2.8571  1.7134 -0.8934
  810MOL0     H 9320   6.162   7.859   5.373 -1.2674 -0.0277 -4.5220
  810MOL0     H 9321   6.163   7.734   5.279 -1.2308 -1.0842 -1.6192
  810MOL0     H 9322   6.189   7.706   5.564  1.4182  1.0106 -1.8578
  810MOL0     H 9323   6.014   7.670   5.541 -1.0324 -3.2645 -1.8307
  810MOL0     H 9324   6.189   7.532   5.350 -2.1058 -3.9891 -1.5226
  810MOL0     H 9325   6.060   7.478   5.448 -0.0530  0.0386 -0.5332
  810MOL0     H 9326   6.340   7.535   5.552  0.8132  0.0383 -3.7693
  810MOL0     H 9327   6.219   7.461   5.653 -1.4693  1.2658 -0.5865
  810MOL0     H 9328   6.224   7.255   5.485 -1.2661 -1.0058  4.8464
  810MOL0     H 9329   6.336   7.275   5.606 -1.9430  0.1193  0.9409
  810MOL0     H 9330   6.392   7.383   5.331 -0.2656  0.4177  0.4428
  810MOL0     H 9331   6.426   7.209   5.387 -0.3031 -0.5721  2.0436
  810MOL0     H 9332   6.161   7.854   4.912  0.4103  0.6200  0.6243
  810MOL0     H 9333   6.161   7.995   4.728  2.0411 -0.5052  1.4507
  810MOL0     H 9334   5.989   8.342   4.515  0.0509 -0.0972 -0.3565
  810MOL0     H 9335   5.998   8.462   4.278  0.2934 -0.5245 -1.7434
  810MOL0     H 9336   6.623   7.914   2.803 -0.3479 -1.5052  0.1648
  810MOL0     H 9337   6.729   7.761   2.662 -1.4564  0.0404  1.3512
  810MOL0     H 9338   7.091   7.570   2.456  1.9116  1.6893  1.6586
  810MOL0     H 9339   7.186   7.422   2.302  2.5119  0.2756  0.1087
  810MOL0     H 9340   7.271   6.981   2.413  0.6741 -1.0787 -0.8650
  810MOL0     H 9341   7.116   7.055   2.385  1.4836  0.4967  2.9654
  810MOL0     H 9342   7.204   7.066   2.126 -1.2749 -2.1656 -3.0195
  810MOL0     H 9343   7.124   6.927   2.207 -0.7418  1.5192 -1.5795
  810MOL0     H 9344   7.373   6.857   2.267 -1.1258  1.2972 -0.0449
  810MOL0     H 9345   7.407   6.961   2.130 -1.4999 -0.3890 -2.1813
  810MOL0     H 9346   7.387   6.729   2.049  0.8149  3.7527  0.4135
  810MOL0     H 9347   7.255   6.829   1.979 -3.1851  3.1947  2.4974
  810MOL0     H 9348   7.066   6.528   2.220  1.0632 -1.6068 -0.8593
  810MOL0     H 9349   7.226   7.122   2.600 -1.8708 -0.8354  2.7363
  810MOL0     H 9350   7.133   7.271   2.779  1.3529 -0.3627 -1.4031
  811MOL0     O 9351  11.128   6.246   9.685 -0.8451 -0.2584  0.3858
  811MOL0     C 9352  11.187   6.326   9.750  0.7175 -1.5836 -0.8049
  811MOL0     O 9353  11.328   6.332   9.776  0.7332 -0.1025 -0.3025
  811MOL0     C 9354  11.428   6.268   9.719  0.1699 -0.0357 -0.5834
  811MOL0     C 9355  11.542   6.224   9.792 -0.7516 -0.2155 -0.0333
  811MOL0     C 9356  11.635   6.135   9.737 -0.0279  0.2088 -0.5664
  811MOL0     C 9357  11.623   6.099   9.604 -0.6174 -0.5154 -0.3748
  811MOL0     O 9358  11.708   6.013   9.541 -0.1879  0.7217  0.2546
  811MOL0     C 9359  11.794   5.921   9.617  0.4658  0.5957  0.2660
  811MOL0     C 9360  11.847   5.802   9.536 -0.5358  0.1202  1.1302
  811MOL0     C 9361  11.985   5.756   9.588 -0.0260 -0.1515  0.0931
  811MOL0     C 9362  12.064   5.678   9.483 -0.4670 -0.8886 -0.7207
  811MOL0     C 9363  12.192   5.629   9.535  0.0291 -0.6117  0.0138
  811MOL0     C 9364  12.300   5.608   9.427  0.6594  0.1890  0.1823
  811MOL0     C 9365  12.444   5.578   9.484 -0.2363  0.7380 -2.1821
  811MOL0     C 9366  12.444   5.484   9.606  0.5087  0.4565 -0.4729
  811MOL0     N 9367  12.589   5.474   9.655 -0.3988  0.0416  0.5231
  811MOL0     C 9368  12.704   5.447   9.588 -0.2931 -0.2682  0.0435
  811MOL0     C 9369  12.804   5.437   9.678  0.7281 -0.0143 -0.2843
  811MOL0     C 9370  12.958   5.425   9.659  0.2617 -0.6071  0.5076
  811MOL0     C 9371  12.999   5.282   9.696  0.0875  1.4610 -0.5590
  811MOL0     C 9372  13.146   5.259   9.720  0.1536 -1.2264  0.6022
  811MOL0     C 9373  13.224   5.271   9.587 -0.2397  0.0011 -0.3378
  811MOL0     O 9374  13.282   5.157   9.528 -0.4864  0.2032  0.7377
  811MOL0     C 9375  13.412   5.153   9.482 -0.6238 -0.6839  0.6687
  811MOL0     C 9376  13.500   5.043   9.498  1.7052  0.4474 -0.0785
  811MOL0     C 9377  13.616   5.027   9.426  0.6866 -1.1247  0.3005
  811MOL0     C 9378  13.710   4.919   9.449 -0.1464  0.1073 -0.1213
  811MOL0     C 9379  13.660   5.134   9.338  0.0689 -0.6134 -0.6188
  811MOL0     C 9380  13.773   5.128   9.240 -0.6140  0.5772 -0.7144
  811MOL0     O 9381  13.796   4.994   9.200 -0.2467 -0.6734  0.4768
  811MOL0     C 9382  13.898   4.988   9.108 -0.0733  0.1884 -0.7981
  811MOL0     C 9383  13.883   5.008   8.966  0.0682 -0.7400  0.0222
  811MOL0     C 9384  13.995   4.985   8.883 -0.3140 -1.7845 -0.5032
  811MOL0     C 9385  14.123   4.949   8.936 -0.4138  0.6626  0.4728
  811MOL0     O 9386  14.223   4.920   8.852 -0.5865 -0.8527  0.1731
  811MOL0     C 9387  14.353   4.888   8.910  0.1004  0.9665  0.1351
  811MOL0     C 9388  14.443   4.889   8.783  0.5814 -0.3256 -0.4886
  811MOL0     C 9389  14.595   4.880   8.826  1.0690 -0.5420 -0.1285
  811MOL0     C 9390  14.650   4.735   8.825  0.9874 -0.0710 -1.1177
  811MOL0     C 9391  14.792   4.738   8.889 -0.6328  0.3265 -0.9297
  811MOL0     C 9392  14.861   4.608   8.861 -1.0022  0.2096 -0.7837
  811MOL0     C 9393  15.009   4.616   8.919  0.0391 -0.9663  0.4303
  811MOL0     C 9394  15.092   4.490   8.880 -0.6568  0.1776 -0.5004
  811MOL0    Cl 9395  15.265   4.508   8.927  0.4551 -0.2254  0.4575
  811MOL0     C 9396  14.131   4.934   9.076  0.2565  1.1120 -0.1901
  811MOL0     C 9397  14.018   4.956   9.158 -0.5119 -1.1615 -0.2090
  811MOL0     O 9398  13.825   5.229   9.192  0.0700 -0.3228  0.5007
  811MOL0     C 9399  13.578   5.244   9.333  0.2635  0.2438 -0.0673
  811MOL0     C 9400  13.457   5.251   9.394  1.3544 -0.1589 -0.5519
  811MOL0     N 9401  12.746   5.454   9.801  0.6061 -0.1435 -0.4709
  811MOL0     N 9402  12.619   5.465   9.784  0.1478 -0.2324 -0.1184
  811MOL0     C 9403  11.518   6.154   9.535  0.0512 -0.3560  0.0114
  811MOL0     C 9404  11.427   6.237   9.592 -0.0366  0.3893  1.2481
  811MOL0     C 9405  11.119   6.422   9.840 -0.5089  0.2845  0.1252
  811MOL0     C 9406  10.981   6.432   9.854 -0.3186  0.3028  0.5544
  811MOL0     C 9407  10.913   6.521   9.919 -0.1247 -0.0359 -0.1959
  811MOL0     C 9408  10.979   6.619   9.998 -0.2165  0.5179 -0.3655
  811MOL0     O 9409  10.930   6.712  10.087  0.4390 -0.4205  0.0450
  811MOL0     C 9410  10.786   6.718  10.115  0.1765  0.7046  0.3782
  811MOL0     C 9411  10.750   6.808  10.225  1.3643  0.4373 -0.2933
  811MOL0     C 9412  10.591   6.792  10.258 -0.4233 -0.7470  0.0307
  811MOL0     C 9413  10.549   6.898  10.368  0.4628 -0.4211 -0.7170
  811MOL0     C 9414  10.544   7.039  10.333 -0.4089  0.5590 -0.6877
  811MOL0     C 9415  10.556   7.157  10.322 -0.0019 -1.0491 -0.2845
  811MOL0     C 9416  11.119   6.615  10.002 -0.2639  0.1231  0.8979
  811MOL0     C 9417  11.192   6.516   9.921 -0.2446  0.6095  0.1291
  811MOL0     H 9418  11.566   6.256   9.893  0.5155  0.4607 -0.5366
  811MOL0     H 9419  11.720   6.102   9.795  0.0737 -0.3045 -1.0014
  811MOL0     H 9420  11.876   5.979   9.660  1.6760 -0.5813 -0.3919
  811MOL0     H 9421  11.724   5.879   9.691 -0.3168 -0.4973 -1.0497
  811MOL0     H 9422  11.776   5.719   9.542 -0.0861 -0.4622 -0.8690
  811MOL0     H 9423  11.867   5.825   9.431  1.5342 -1.8425  1.0183
  811MOL0     H 9424  12.056   5.835   9.616  1.3444 -0.7415 -1.5310
  811MOL0     H 9425  11.974   5.692   9.676  1.2340 -3.2727 -1.8873
  811MOL0     H 9426  12.005   5.590   9.454 -0.9814 -0.7671 -0.0653
  811MOL0     H 9427  12.072   5.743   9.395 -2.8873 -2.5867 -2.3186
  811MOL0     H 9428  12.220   5.703   9.611 -3.4466  0.7084  0.2072
  811MOL0     H 9429  12.167   5.528   9.569  2.4423 -1.6775 -1.1587
  811MOL0     H 9430  12.263   5.535   9.354 -3.4909  2.7315 -0.5987
  811MOL0     H 9431  12.304   5.701   9.368 -0.5451  1.5550  2.1462
  811MOL0     H 9432  12.521   5.538   9.417  2.0845  0.9871  0.1559
  811MOL0     H 9433  12.485   5.677   9.504 -0.3113  0.4349 -0.2637
  811MOL0     H 9434  12.401   5.387   9.582  0.5797 -0.7841  3.6283
  811MOL0     H 9435  12.387   5.530   9.688  1.3997  2.6651 -1.0284
  811MOL0     H 9436  12.718   5.439   9.480  0.2016  2.2757 -0.1466
  811MOL0     H 9437  12.977   5.448   9.554 -1.4463  0.4023  0.3875
  811MOL0     H 9438  13.014   5.501   9.714 -1.3546  0.7211  0.3774
  811MOL0     H 9439  12.958   5.209   9.625  0.8282  0.7766 -0.2966
  811MOL0     H 9440  12.953   5.248   9.789  0.9507 -0.4864 -0.7896
  811MOL0     H 9441  13.168   5.160   9.761  1.0559 -1.2402  0.1252
  811MOL0     H 9442  13.183   5.322   9.802  3.6177  0.4214 -1.9817
  811MOL0     H 9443  13.295   5.353   9.603 -0.6288  0.1199  0.9155
  811MOL0     H 9444  13.147   5.309   9.519 -1.4728 -0.8012  0.5705
  811MOL0     H 9445  13.474   4.980   9.583  3.5093 -0.5410 -0.2157
  811MOL0     H 9446  13.812   4.949   9.427  0.2741 -2.1036 -1.4760
  811MOL0     H 9447  13.714   4.892   9.555  0.4585  2.1346  0.4169
  811MOL0     H 9448  13.681   4.828   9.395 -1.9368 -3.5078  5.8814
  811MOL0     H 9449  13.787   5.044   8.931 -1.3877  1.4705  5.2589
  811MOL0     H 9450  13.985   4.992   8.775 -1.3875 -0.0745 -0.3461
  811MOL0     H 9451  14.384   4.972   8.974 -1.7142  0.9534  1.0943
  811MOL0     H 9452  14.339   4.794   8.965 -3.3982 -1.1859 -3.8883
  811MOL0     H 9453  14.413   4.811   8.713  0.4946  0.3041 -1.1691
  811MOL0     H 9454  14.423   4.988   8.741  1.4670  2.1716  4.2605
  811MOL0     H 9455  14.599   4.917   8.928 -0.1971  1.5549 -0.7711
  811MOL0     H 9456  14.668   4.945   8.775  1.0677  1.1421  1.8716
  811MOL0     H 9457  14.579   4.672   8.879 -0.3165  3.7434  2.1081
  811MOL0     H 9458  14.658   4.704   8.720  1.2261 -0.1327 -1.0809
  811MOL0     H 9459  14.788   4.757   8.997 -1.5100 -1.2803 -0.6407
  811MOL0     H 9460  14.850   4.814   8.835  3.0830 -0.7480  1.1453
  811MOL0     H 9461  14.806   4.521   8.897 -0.1972 -0.9721 -2.2752
  811MOL0     H 9462  14.866   4.606   8.752  4.3866 -1.5784 -0.7896
  811MOL0     H 9463  15.003   4.639   9.026  1.4529 -1.6917  0.6783
  811MOL0     H 9464  15.057   4.703   8.873  2.1136 -1.9782  0.5959
  811MOL0     H 9465  15.074   4.487   8.772 -3.6968  3.8117 -0.3290
  811MOL0     H 9466  15.047   4.399   8.919  0.7221 -0.2063  0.2747
  811MOL0     H 9467  14.223   4.909   9.128 -1.3821 -2.0824  1.4034
  811MOL0     H 9468  14.028   4.938   9.264 -0.6681 -1.5436 -0.2568
  811MOL0     H 9469  13.599   5.331   9.271 -1.1212  2.1345  1.9949
  811MOL0     H 9470  13.385   5.331   9.378  2.0107  0.8250  1.0484
  811MOL0     H 9471  11.503   6.119   9.433  0.8277  2.0238 -0.9881
  811MOL0     H 9472  11.344   6.269   9.530  0.2229 -0.6106  0.3545
  811MOL0     H 9473  10.923   6.354   9.807 -2.3055  0.6020  2.3352
  811MOL0     H 9474  10.805   6.521   9.923 -0.2959  3.7387 -0.6953
  811MOL0     H 9475  10.740   6.760  10.025  1.5475 -0.8890 -1.1475
  811MOL0     H 9476  10.752   6.615  10.132 -0.1104  0.6112 -0.6682
  811MOL0     H 9477  10.779   6.912  10.204  3.2272  1.1027  4.3638
  811MOL0     H 9478  10.811   6.784  10.313  0.0653  1.2352  0.8699
  811MOL0     H 9479  10.575   6.690  10.296  1.2000 -0.9846  0.1208
  811MOL0     H 9480  10.529   6.812  10.170  0.3756  5.4058  0.4524
  811MOL0     H 9481  10.618   6.893  10.452  2.5990  2.9330 -2.0867
  811MOL0     H 9482  10.451   6.868  10.405  2.0672 -2.1735  2.5027
  811MOL0     H 9483  10.564   7.259  10.288 -0.7629 -1.9792 -3.6418
  811MOL0     H 9484  11.173   6.690  10.059  0.2675  1.6715 -1.4751
  811MOL0     H 9485  11.300   6.516   9.909 -0.2924 -1.9384 -0.9989
  812MOL0     O 9486   4.642   0.147   4.425  0.4962  0.1495  0.1115
  812MOL0     C 9487   4.534   0.124   4.473  0.3403 -0.5508 -0.0535
  812MOL0     O 9488   4.496   0.167   4.596 -0.1345 -0.4167 -0.6398
  812MOL0     C 9489   4.601   0.195   4.686  0.6442 -0.1640  1.1688
  812MOL0     C 9490   4.625   0.102   4.793  0.2407  0.3201 -0.2812
  812MOL0     C 9491   4.733   0.130   4.883  0.2114 -0.1694 -0.3353
  812MOL0     C 9492   4.798   0.253   4.884 -0.3969 -0.4586  0.1234
  812MOL0     O 9493   4.904   0.270   4.963  0.2454  0.4164  0.0410
  812MOL0     C 9494   4.882   0.350   5.079 -0.5031  0.0795 -0.0976
  812MOL0     C 9495   5.001   0.329   5.175 -0.4309 -0.2287  0.8440
  812MOL0     C 9496   5.005   0.183   5.220  0.2251 -0.2258 -0.5271
  812MOL0     C 9497   5.112   0.159   5.336  0.3175 -0.0829  0.4153
  812MOL0     C 9498   5.257   0.186   5.297 -0.2251  0.0991  0.3054
  812MOL0     C 9499   5.340   0.228   5.413 -0.4737 -0.5376 -0.0067
  812MOL0     C 9500   5.489   0.247   5.363 -0.9809  0.0128 -0.5032
  812MOL0     C 9501   5.595   0.217   5.477 -0.5063 -0.4054  0.6541
  812MOL0     N 9502   5.578   0.306   5.591  0.9404  0.1487  1.5651
  812MOL0     C 9503   5.529   0.263   5.706 -0.2132 -0.1628 -0.0333
  812MOL0     C 9504   5.494   0.378   5.773  0.3226  0.3409  0.6017
  812MOL0     C 9505   5.422   0.366   5.906  0.1129  0.3506 -0.0795
  812MOL0     C 9506   5.271   0.329   5.881 -0.8199 -0.6302  0.4982
  812MOL0     C 9507   5.170   0.339   5.994 -0.0431  0.0357 -0.7644
  812MOL0     C 9508   5.219   0.309   6.149 -0.3932 -0.3619  0.4664
  812MOL0     O 9509   5.124   0.252   6.230  0.0333  0.9858 -0.8017
  812MOL0     C 9510   5.045   0.331   6.303  1.1691  0.0785  0.5523
  812MOL0     C 9511   5.019   0.462   6.264 -0.6419  0.6914 -1.1968
  812MOL0     C 9512   4.923   0.546   6.330  0.3158  0.8696 -0.9905
  812MOL0     C 9513   4.910   0.686   6.281 -0.1320  0.6824  0.6555
  812MOL0     C 9514   4.836   0.491   6.433 -0.4881 -0.4439 -0.8324
  812MOL0     C 9515   4.757   0.565   6.528  0.0608  0.4790  0.0582
  812MOL0     O 9516   4.749   0.695   6.512  0.1419 -0.5231  0.0147
  812MOL0     C 9517   4.716   0.770   6.628  1.0023 -0.0480 -0.1996
  812MOL0     C 9518   4.813   0.834   6.719 -0.1311  0.0775  0.4377
  812MOL0     C 9519   4.773   0.906   6.831 -0.2144  0.1397  0.0377
  812MOL0     C 9520   4.636   0.930   6.857  0.4144  0.3677 -0.0996
  812MOL0     O 9521   4.602   0.986   6.980  0.3330 -0.0626 -0.0920
  812MOL0     C 9522   4.487   1.074   6.970 -0.0368 -0.9131 -0.3621
  812MOL0     C 9523   4.371   1.018   7.051  0.7845  0.4442 -1.1649
  812MOL0     C 9524   4.309   1.138   7.139 -0.6216 -1.1187  0.3129
  812MOL0     C 9525   4.183   1.098   7.210 -0.6508 -0.1848 -0.8370
  812MOL0     C 9526   4.120   1.209   7.279 -0.1844 -0.7653 -0.4974
  812MOL0     C 9527   4.191   1.256   7.413 -0.1981  0.4581 -0.3055
  812MOL0     C 9528   4.117   1.349   7.510  0.2408  0.4826 -0.1689
  812MOL0     C 9529   4.163   1.359   7.654 -0.5058  0.2364 -0.1195
  812MOL0    Cl 9530   4.016   1.416   7.731 -0.1014  0.2818 -0.1895
  812MOL0     C 9531   4.549   0.883   6.762 -0.1505  0.5758  0.9766
  812MOL0     C 9532   4.582   0.810   6.648  1.4393 -0.8298  0.0899
  812MOL0     O 9533   4.705   0.502   6.624  0.4198 -0.4720  0.6294
  812MOL0     C 9534   4.844   0.351   6.454 -0.4730  0.2647 -0.2012
  812MOL0     C 9535   4.949   0.272   6.395  0.5726  0.4250 -1.4629
  812MOL0     N 9536   5.544   0.488   5.701 -0.3382  0.5614 -0.0927
  812MOL0     N 9537   5.588   0.436   5.596  0.5340 -0.1539  1.6415
  812MOL0     C 9538   4.766   0.344   4.779  0.9722 -0.2852  0.0536
  812MOL0     C 9539   4.669   0.312   4.673 -0.0018  0.1052 -0.4757
  812MOL0     C 9540   4.438   0.045   4.391 -0.4803  0.7594 -1.1104
  812MOL0     C 9541   4.322  -0.019   4.452 -1.3249 -0.0424 -0.2097
  812MOL0     C 9542   4.242  -0.100   4.378 -0.2049 -0.0710  0.3195
  812MOL0     C 9543   4.269  -0.118   4.236  0.4799 -0.5680  0.9618
  812MOL0     O 9544   4.180  -0.164   4.146  0.1193 -0.0691  0.6836
  812MOL0     C 9545   4.069  -0.242   4.190  0.2259 -0.5658 -0.7331
  812MOL0     C 9546   3.973  -0.294   4.092 -0.4282  0.4082 -0.3165
  812MOL0     C 9547   4.031  -0.321   3.956 -0.0296  0.4205 -0.1381
  812MOL0     C 9548   4.124  -0.446   3.961 -0.6407 -0.6603  0.0385
  812MOL0     C 9549   4.058  -0.570   3.913  0.7001 -0.1172  0.2078
  812MOL0     C 9550   4.013  -0.680   3.873  1.0740  0.0171 -0.0344
  812MOL0     C 9551   4.380  -0.050   4.178 -0.6509  0.0452 -0.0996
  812MOL0     C 9552   4.464   0.032   4.254  0.4440  1.3696  0.6340
  812MOL0     H 9553   4.576   0.006   4.799  1.9761 -0.5784  0.1004
  812MOL0     H 9554   4.754   0.063   4.966  0.1492  0.2054 -0.0156
  812MOL0     H 9555   4.877   0.454   5.044  3.9869  0.4943 -0.1136
  812MOL0     H 9556   4.797   0.315   5.137  0.9679  1.5797  3.2141
  812MOL0     H 9557   5.084   0.348   5.107 -0.8594 -2.5953 -0.4807
  812MOL0     H 9558   4.981   0.393   5.261 -1.9348 -0.8193  0.9666
  812MOL0     H 9559   4.903   0.170   5.258 -1.4557  2.7007 -3.5563
  812MOL0     H 9560   5.012   0.124   5.129  1.7182 -1.5055  0.3776
  812MOL0     H 9561   5.076   0.224   5.416 -2.7317 -1.4346  0.2556
  812MOL0     H 9562   5.093   0.059   5.375 -1.2637 -1.3613 -3.2232
  812MOL0     H 9563   5.288   0.100   5.236 -1.3150 -0.5835  0.6742
  812MOL0     H 9564   5.250   0.271   5.228 -2.3302  0.1839  0.5359
  812MOL0     H 9565   5.299   0.320   5.456  1.4546  1.5492 -2.3196
  812MOL0     H 9566   5.324   0.143   5.480  0.0109 -1.5717 -1.1462
  812MOL0     H 9567   5.502   0.166   5.290  0.2688  1.4018 -1.8990
  812MOL0     H 9568   5.498   0.347   5.320  1.1720 -0.5685 -1.5586
  812MOL0     H 9569   5.700   0.228   5.446 -0.4690  2.1297  1.4094
  812MOL0     H 9570   5.566   0.119   5.515 -3.9623  0.3899  0.3415
  812MOL0     H 9571   5.512   0.158   5.725  1.6367 -0.2234  1.5995
  812MOL0     H 9572   5.474   0.293   5.969 -2.1924  0.8463  2.5423
  812MOL0     H 9573   5.416   0.464   5.954 -0.5624 -0.6116  1.8898
  812MOL0     H 9574   5.265   0.229   5.837 -3.7030 -0.9994  1.5470
  812MOL0     H 9575   5.239   0.393   5.798 -0.5290 -1.0245  0.0829
  812MOL0     H 9576   5.098   0.266   5.957  0.3122 -0.2522 -0.8972
  812MOL0     H 9577   5.129   0.441   5.986  1.0065  0.5621  0.2769
  812MOL0     H 9578   5.246   0.405   6.195 -0.4342  0.4452 -1.1271
  812MOL0     H 9579   5.313   0.254   6.147  1.9731  3.1521  2.6670
  812MOL0     H 9580   5.071   0.511   6.182  1.2778  1.4724  0.3935
  812MOL0     H 9581   4.811   0.697   6.237  1.1837  3.2137 -1.9679
  812MOL0     H 9582   4.927   0.759   6.361 -1.4717  1.8625 -0.0954
  812MOL0     H 9583   4.962   0.699   6.186 -0.8544  1.3526  0.3394
  812MOL0     H 9584   4.917   0.813   6.695 -1.0779 -4.1990 -0.9957
  812MOL0     H 9585   4.849   0.931   6.904  2.2765 -0.3980 -2.2220
  812MOL0     H 9586   4.511   1.172   7.011  3.0011 -1.9571  0.6586
  812MOL0     H 9587   4.455   1.093   6.867 -1.1872  2.0740  0.4514
  812MOL0     H 9588   4.290   0.990   6.984  0.4606 -0.4003 -0.4425
  812MOL0     H 9589   4.398   0.933   7.114 -1.1885 -0.6442 -1.7076
  812MOL0     H 9590   4.275   1.217   7.070 -0.0974 -1.8241 -0.7668
  812MOL0     H 9591   4.378   1.193   7.204  0.2011 -1.1831 -0.4883
  812MOL0     H 9592   4.118   1.057   7.133 -0.7141  0.8257 -1.3405
  812MOL0     H 9593   4.211   1.023   7.284 -2.8870 -0.6603 -0.3969
  812MOL0     H 9594   4.018   1.186   7.312 -0.0590  0.3065  0.7387
  812MOL0     H 9595   4.122   1.297   7.214  0.3928 -1.6230 -1.6638
  812MOL0     H 9596   4.216   1.169   7.475  1.9195  2.4489  1.8164
  812MOL0     H 9597   4.283   1.308   7.386  0.5644  0.1423  1.5332
  812MOL0     H 9598   4.019   1.300   7.516  0.6857 -0.3409  0.8217
  812MOL0     H 9599   4.104   1.445   7.459 -3.1949 -1.5090 -3.5203
  812MOL0     H 9600   4.253   1.420   7.665 -0.1848 -0.3194  0.4214
  812MOL0     H 9601   4.185   1.255   7.682 -0.9162  0.6094  1.7083
  812MOL0     H 9602   4.446   0.916   6.778  0.2385  1.5510  1.5822
  812MOL0     H 9603   4.500   0.782   6.581  2.8206 -0.4758 -1.8385
  812MOL0     H 9604   4.781   0.301   6.527  3.2774  0.1631  3.2900
  812MOL0     H 9605   4.961   0.165   6.407  1.0757  0.3408 -2.5782
  812MOL0     H 9606   4.823   0.436   4.770 -1.4026  1.2841  0.2682
  812MOL0     H 9607   4.647   0.380   4.592 -1.1691 -1.0862 -1.2083
  812MOL0     H 9608   4.303   0.003   4.556 -0.7893  1.5832 -0.4197
  812MOL0     H 9609   4.155  -0.137   4.431 -0.2031 -2.0722 -0.9829
  812MOL0     H 9610   4.115  -0.325   4.244 -3.4104 -0.3915  3.1085
  812MOL0     H 9611   4.012  -0.198   4.272 -2.1691 -4.1878 -0.2240
  812MOL0     H 9612   3.898  -0.216   4.080 -0.5643  0.5777  1.4304
  812MOL0     H 9613   3.918  -0.381   4.131 -1.8179  1.9801  1.3885
  812MOL0     H 9614   4.073  -0.230   3.912  2.6514 -1.5728 -2.0074
  812MOL0     H 9615   3.941  -0.346   3.899 -3.3877  0.3945  4.5631
  812MOL0     H 9616   4.157  -0.471   4.062  0.0574  1.5767  0.4376
  812MOL0     H 9617   4.208  -0.421   3.895 -1.2806  2.6639  0.3008
  812MOL0     H 9618   3.960  -0.769   3.846  1.7550 -0.4314  0.0957
  812MOL0     H 9619   4.409  -0.042   4.074  1.9416 -1.7948  0.3859
  812MOL0     H 9620   4.544   0.089   4.206  1.5603  1.2796  2.2963
  813MOL0     O 9621  10.774   4.567   2.224 -0.4245  0.2300  0.4877
  813MOL0     C 9622  10.775   4.563   2.349  0.0199  0.0724 -0.5442
  813MOL0     O 9623  10.660   4.550   2.432  1.1441 -0.4207  0.0397
  813MOL0     C 9624  10.534   4.558   2.362  0.4214 -0.7748  0.1160
  813MOL0     C 9625  10.460   4.450   2.336  0.5732  0.3994  0.7979
  813MOL0     C 9626  10.338   4.459   2.279  0.1324 -0.2554  0.0659
  813MOL0     C 9627  10.296   4.581   2.219 -0.0645 -0.0297 -0.0351
  813MOL0     O 9628  10.169   4.611   2.179  0.0469 -0.5510  0.3065
  813MOL0     C 9629  10.104   4.513   2.091  0.2080 -0.1378 -0.9922
  813MOL0     C 9630   9.953   4.570   2.079 -0.3570  0.1881  0.5503
  813MOL0     C 9631   9.858   4.537   2.195  0.6278  0.3483  0.6829
  813MOL0     C 9632   9.821   4.387   2.215 -0.2213 -0.3271 -0.8707
  813MOL0     C 9633   9.729   4.349   2.328  0.7040 -0.2566  0.7293
  813MOL0     C 9634   9.583   4.389   2.285 -0.2639 -0.3013  1.6508
  813MOL0     C 9635   9.475   4.351   2.362  0.2638  0.8028 -0.1477
  813MOL0     C 9636   9.341   4.333   2.281 -1.4644 -0.3137  0.2607
  813MOL0     N 9637   9.304   4.459   2.231 -0.4769 -0.0155 -0.0788
  813MOL0     C 9638   9.288   4.492   2.097 -0.1023 -1.2506 -0.6590
  813MOL0     C 9639   9.216   4.606   2.093 -0.1205 -0.1464  0.3995
  813MOL0     C 9640   9.166   4.677   1.961  0.3368 -0.0317 -0.0330
  813MOL0     C 9641   9.029   4.631   1.922 -0.2663  0.5172  0.1120
  813MOL0     C 9642   8.955   4.741   1.850  0.6228  0.0282 -0.5509
  813MOL0     C 9643   8.860   4.693   1.750 -0.5417 -0.0235 -0.5449
  813MOL0     O 9644   8.919   4.617   1.642 -0.5467  0.4715  0.1825
  813MOL0     C 9645   8.844   4.608   1.536 -0.1157  0.5809 -0.1568
  813MOL0     C 9646   8.814   4.476   1.497 -0.6861  0.6117  0.4287
  813MOL0     C 9647   8.757   4.445   1.371  0.2062 -0.3390  0.5603
  813MOL0     C 9648   8.725   4.294   1.328  0.3727  0.5749 -0.7334
  813MOL0     C 9649   8.723   4.556   1.291  0.4559  0.0052  0.5075
  813MOL0     C 9650   8.664   4.540   1.155  1.2354 -0.2651 -0.3624
  813MOL0     O 9651   8.728   4.458   1.065 -0.3645  0.3238  0.8932
  813MOL0     C 9652   8.702   4.462   0.938  0.9268 -0.9800 -0.0689
  813MOL0     C 9653   8.589   4.412   0.890 -0.8407 -0.1236  0.4431
  813MOL0     C 9654   8.551   4.424   0.756  0.3001 -0.1304  0.4713
  813MOL0     C 9655   8.644   4.471   0.658 -0.5560 -0.4524  0.7209
  813MOL0     O 9656   8.635   4.474   0.520 -0.2735  0.1287  0.0377
  813MOL0     C 9657   8.537   4.382   0.462  0.6291  0.8296  0.6861
  813MOL0     C 9658   8.416   4.477   0.421  0.4835 -0.7730 -1.1805
  813MOL0     C 9659   8.337   4.546   0.536  0.1441 -0.5369 -1.0415
  813MOL0     C 9660   8.224   4.634   0.477 -0.2198  0.1032  0.5244
  813MOL0     C 9661   8.284   4.760   0.419  0.4742  0.5164 -0.3366
  813MOL0     C 9662   8.191   4.820   0.315  0.1454 -0.4944  0.1131
  813MOL0     C 9663   8.054   4.838   0.382  0.7385 -0.3333  0.3828
  813MOL0     C 9664   7.965   4.940   0.310 -0.9414  0.2418 -0.4260
  813MOL0    Cl 9665   8.021   5.105   0.341  0.0736  0.1843  0.3315
  813MOL0     C 9666   8.773   4.508   0.708  0.2636  0.1290 -0.2205
  813MOL0     C 9667   8.799   4.503   0.847  0.9265  0.5089  0.5474
  813MOL0     O 9668   8.565   4.601   1.135 -0.0163 -0.2947  0.1770
  813MOL0     C 9669   8.731   4.688   1.340 -0.2242 -0.2789 -0.9110
  813MOL0     C 9670   8.796   4.719   1.463 -0.1696  0.2577 -0.1681
  813MOL0     N 9671   9.195   4.648   2.225  0.1455 -0.6233 -0.8254
  813MOL0     N 9672   9.249   4.556   2.307  0.3405 -0.0279  0.0206
  813MOL0     C 9673  10.384   4.694   2.240 -0.2204 -0.5142  0.1487
  813MOL0     C 9674  10.508   4.684   2.308  1.0965 -0.2067 -0.4492
  813MOL0     C 9675  10.906   4.574   2.410  0.3234  0.0229 -0.4452
  813MOL0     C 9676  11.020   4.620   2.348  0.1116  0.3649  0.1260
  813MOL0     C 9677  11.139   4.609   2.408 -0.4339 -0.6152 -0.2421
  813MOL0     C 9678  11.151   4.573   2.545 -0.1549 -0.7467  0.1268
  813MOL0     O 9679  11.260   4.573   2.620  0.1316 -0.0574 -0.2792
  813MOL0     C 9680  11.355   4.672   2.581  0.4009  0.7309 -0.5485
  813MOL0     C 9681  11.464   4.663   2.683  0.0924 -0.6633 -0.5123
  813MOL0     C 9682  11.585   4.752   2.644 -1.2687  0.4305  0.2506
  813MOL0     C 9683  11.705   4.732   2.753  0.5566 -0.0670  0.0641
  813MOL0     C 9684  11.687   4.808   2.883  0.3483 -0.2335 -0.0594
  813MOL0     C 9685  11.690   4.879   2.980  0.9587 -0.4584 -0.2741
  813MOL0     C 9686  11.040   4.523   2.607 -0.0492  0.4165 -0.3238
  813MOL0     C 9687  10.919   4.521   2.540  0.2482 -1.4865 -0.0761
  813MOL0     H 9688  10.505   4.364   2.387  0.9896  0.1647  0.0528
  813MOL0     H 9689  10.265   4.378   2.282 -0.0176 -0.2174 -1.6749
  813MOL0     H 9690  10.148   4.509   1.991  0.5251 -0.7067 -0.8370
  813MOL0     H 9691  10.125   4.412   2.130  2.0626  1.3025  2.1849
  813MOL0     H 9692   9.936   4.677   2.063 -0.7515  0.2095  1.0751
  813MOL0     H 9693   9.909   4.534   1.986 -1.3074  2.6527 -0.0281
  813MOL0     H 9694   9.900   4.575   2.289 -1.1701 -0.1240  1.7207
  813MOL0     H 9695   9.768   4.595   2.173 -1.5255 -3.3809 -1.1265
  813MOL0     H 9696   9.778   4.349   2.122 -2.8793 -1.3779  0.6806
  813MOL0     H 9697   9.909   4.326   2.235 -1.5186 -1.3690  2.2417
  813MOL0     H 9698   9.751   4.244   2.347  0.2026  0.1246  3.9440
  813MOL0     H 9699   9.746   4.399   2.424  0.4416 -1.7347  1.5747
  813MOL0     H 9700   9.578   4.498   2.281  1.0382 -0.2610  0.3094
  813MOL0     H 9701   9.575   4.347   2.184 -1.3302  3.1024  0.1445
  813MOL0     H 9702   9.500   4.247   2.387  3.0441  0.5104 -3.3564
  813MOL0     H 9703   9.466   4.418   2.448 -2.5638  0.3930 -0.0451
  813MOL0     H 9704   9.268   4.301   2.356 -1.2214 -0.7823  0.2963
  813MOL0     H 9705   9.355   4.266   2.196  1.7561  0.1344  0.3469
  813MOL0     H 9706   9.332   4.437   2.014 -0.0247 -0.6682 -1.0166
  813MOL0     H 9707   9.159   4.783   1.988 -0.0246  0.3073 -1.3623
  813MOL0     H 9708   9.237   4.671   1.878  1.3866  0.7391  0.7970
  813MOL0     H 9709   8.964   4.604   2.005 -0.9149 -1.2293 -0.8974
  813MOL0     H 9710   9.024   4.548   1.850 -2.1523 -0.7271  1.5819
  813MOL0     H 9711   9.012   4.811   1.788  0.6838  1.4888  1.0580
  813MOL0     H 9712   8.912   4.806   1.927  1.0423 -0.7998  0.4177
  813MOL0     H 9713   8.821   4.785   1.705  0.4349  0.4402 -0.4584
  813MOL0     H 9714   8.776   4.636   1.792  0.1665  0.4800  1.7406
  813MOL0     H 9715   8.839   4.395   1.564 -0.0644  2.5458  2.7045
  813MOL0     H 9716   8.666   4.257   1.413 -1.1959  2.4399 -0.9346
  813MOL0     H 9717   8.675   4.276   1.232 -1.0951 -0.5947  0.2007
  813MOL0     H 9718   8.816   4.234   1.319 -0.5133 -0.8502 -0.6726
  813MOL0     H 9719   8.523   4.370   0.967  4.0960 -0.1577  5.2558
  813MOL0     H 9720   8.452   4.384   0.733 -1.1611  0.2889  5.0284
  813MOL0     H 9721   8.570   4.328   0.372  1.9022  0.7093  1.2109
  813MOL0     H 9722   8.510   4.295   0.523  2.6367 -1.5296 -1.5549
  813MOL0     H 9723   8.459   4.555   0.357  0.3741 -0.2381 -0.6080
  813MOL0     H 9724   8.356   4.431   0.342  1.4463  5.1683 -6.1149
  813MOL0     H 9725   8.406   4.612   0.589  1.2933 -1.6807 -1.0748
  813MOL0     H 9726   8.298   4.477   0.611  1.1325  0.1949  0.1825
  813MOL0     H 9727   8.162   4.582   0.404  1.4533  1.4786 -2.0227
  813MOL0     H 9728   8.161   4.661   0.562 -1.3631 -2.0197  0.4187
  813MOL0     H 9729   8.386   4.753   0.381  0.1467 -0.3602 -1.1222
  813MOL0     H 9730   8.300   4.824   0.506  1.0047 -0.3003  0.1767
  813MOL0     H 9731   8.221   4.919   0.278 -1.0822 -0.2634 -0.3108
  813MOL0     H 9732   8.191   4.749   0.232 -1.3127 -1.2201  0.7141
  813MOL0     H 9733   8.061   4.871   0.486  2.0695 -0.0795  0.2403
  813MOL0     H 9734   8.016   4.736   0.384 -1.2997  0.3772 -0.3102
  813MOL0     H 9735   7.865   4.935   0.355 -0.4679  1.0166  0.7522
  813MOL0     H 9736   7.956   4.922   0.202 -2.8314  1.0564 -0.4483
  813MOL0     H 9737   8.859   4.538   0.649 -1.9207 -1.5487 -4.7705
  813MOL0     H 9738   8.897   4.532   0.884  1.1089  0.6437 -0.0406
  813MOL0     H 9739   8.699   4.777   1.287 -0.0391  1.2646  1.4132
  813MOL0     H 9740   8.808   4.819   1.503 -2.3306  0.9577 -1.1294
  813MOL0     H 9741  10.355   4.794   2.211  3.5294  0.9979  1.0384
  813MOL0     H 9742  10.574   4.769   2.326 -0.2640  1.4636 -2.8306
  813MOL0     H 9743  11.029   4.668   2.250 -0.7230  1.2207  0.4496
  813MOL0     H 9744  11.224   4.633   2.346 -1.2351  1.3991 -0.6318
  813MOL0     H 9745  11.401   4.655   2.482 -1.2628 -0.2936 -1.1954
  813MOL0     H 9746  11.306   4.770   2.577 -1.6722 -0.2166  0.3759
  813MOL0     H 9747  11.502   4.564   2.711 -0.4741 -0.0654  2.7434
  813MOL0     H 9748  11.418   4.706   2.773  0.0052 -1.5143 -0.1335
  813MOL0     H 9749  11.547   4.854   2.632  0.1722  0.9489 -0.0557
  813MOL0     H 9750  11.630   4.718   2.550 -1.1373  1.6665 -0.1559
  813MOL0     H 9751  11.794   4.786   2.717  2.0684 -1.1258  2.0407
  813MOL0     H 9752  11.724   4.627   2.774  1.9235  0.2040  0.2866
  813MOL0     H 9753  11.697   4.926   3.076  1.5156 -1.2371  0.0829
  813MOL0     H 9754  11.050   4.497   2.712 -0.9163 -2.4126 -0.8548
  813MOL0     H 9755  10.833   4.481   2.593  0.3113 -1.1292  0.2992
  814MOL0     O 9756   5.690  11.342   2.882  0.2414  0.1361  0.2123
  814MOL0     C 9757   5.641  11.306   2.987 -1.1112 -0.3988 -0.7504
  814MOL0     O 9758   5.709  11.302   3.103  0.9340 -0.8056 -0.5191
  814MOL0     C 9759   5.844  11.332   3.119  0.6602  0.0533 -0.2728
  814MOL0     C 9760   5.906  11.243   3.207 -0.0216 -0.3113  0.2547
  814MOL0     C 9761   6.048  11.259   3.235  0.3553  0.8452  0.4942
  814MOL0     C 9762   6.122  11.350   3.162  0.0154 -0.7108 -0.1634
  814MOL0     O 9763   6.262  11.375   3.178 -0.4215  0.1814  0.5633
  814MOL0     C 9764   6.335  11.266   3.236 -0.4627  0.9965  1.0055
  814MOL0     C 9765   6.478  11.318   3.251 -0.9321  0.1709 -0.4507
  814MOL0     C 9766   6.540  11.330   3.118 -0.0518  1.0592  0.6400
  814MOL0     C 9767   6.687  11.373   3.126  0.5524  1.1268 -0.6398
  814MOL0     C 9768   6.759  11.354   2.994 -0.3783 -0.4530  0.0111
  814MOL0     C 9769   6.903  11.392   3.010 -0.8541 -0.1334  0.3841
  814MOL0     C 9770   6.983  11.387   2.874 -0.1307 -1.0362 -0.5124
  814MOL0     C 9771   7.132  11.389   2.895 -0.1632 -0.6498 -0.5648
  814MOL0     N 9772   7.213  11.305   2.811 -0.0989 -0.2042  0.7005
  814MOL0     C 9773   7.239  11.321   2.672 -0.4915  0.0958 -0.2662
  814MOL0     C 9774   7.309  11.212   2.639 -0.0214  0.0118 -0.1004
  814MOL0     C 9775   7.359  11.184   2.501 -0.2138 -1.0176 -0.3997
  814MOL0     C 9776   7.487  11.268   2.484 -0.8322  0.8211 -0.5861
  814MOL0     C 9777   7.567  11.239   2.354  0.0499  0.2953  0.3655
  814MOL0     C 9778   7.686  11.142   2.380  0.8539 -0.6375 -0.6333
  814MOL0     O 9779   7.618  11.005   2.388  0.1073 -0.4028  0.3672
  814MOL0     C 9780   7.698  10.889   2.384  0.7408  0.4646 -0.3621
  814MOL0     C 9781   7.745  10.837   2.502 -0.8884  0.0283  0.2577
  814MOL0     C 9782   7.823  10.717   2.506  0.1345 -0.0543  0.4754
  814MOL0     C 9783   7.882  10.678   2.640  0.3777 -1.3104  0.6978
  814MOL0     C 9784   7.852  10.653   2.377 -0.7199 -0.3212 -0.4770
  814MOL0     C 9785   7.932  10.525   2.374  0.9635  0.5423  0.4051
  814MOL0     O 9786   7.979  10.480   2.258  0.1892  0.2532  0.0009
  814MOL0     C 9787   8.038  10.364   2.220  1.5592  1.3553  0.4761
  814MOL0     C 9788   8.108  10.374   2.102  0.1553 -0.0345 -0.2782
  814MOL0     C 9789   8.139  10.255   2.034  0.3721  0.0118  0.1356
  814MOL0     C 9790   8.093  10.129   2.078  0.7317  0.5243  0.4087
  814MOL0     O 9791   8.117  10.011   2.004  0.3205  0.3185  0.4739
  814MOL0     C 9792   8.094   9.879   2.063  1.2404 -0.4098 -0.0407
  814MOL0     C 9793   8.170   9.773   1.973 -0.2283  0.1660 -0.7347
  814MOL0     C 9794   8.119   9.744   1.831  0.4519 -0.5697 -0.2016
  814MOL0     C 9795   8.234   9.681   1.751  0.9311  0.3118 -0.7230
  814MOL0     C 9796   8.180   9.638   1.614 -0.5938 -0.7489 -0.3219
  814MOL0     C 9797   8.302   9.591   1.530  0.6445  0.8330 -0.2542
  814MOL0     C 9798   8.261   9.584   1.384  0.3300 -0.9435 -0.2205
  814MOL0     C 9799   8.328   9.481   1.304  0.4776  0.0599 -0.9703
  814MOL0    Cl 9800   8.281   9.494   1.127  0.1389  0.2724 -0.2188
  814MOL0     C 9801   8.013  10.126   2.203  0.1413  0.9562  0.6331
  814MOL0     C 9802   7.996  10.244   2.269 -0.4432  0.0415 -0.0964
  814MOL0     O 9803   7.946  10.467   2.480 -0.2995 -0.5121  0.5281
  814MOL0     C 9804   7.814  10.721   2.257  0.7273  0.0438 -0.2674
  814MOL0     C 9805   7.735  10.836   2.264  1.1289  1.0344 -0.1107
  814MOL0     N 9806   7.333  11.126   2.754  0.4230  0.5318  0.6761
  814MOL0     N 9807   7.269  11.184   2.854  0.6587  0.9766  0.1083
  814MOL0     C 9808   6.060  11.440   3.080  0.7690 -0.4266  0.2605
  814MOL0     C 9809   5.915  11.440   3.068  0.2854 -0.1768 -0.6961
  814MOL0     C 9810   5.504  11.265   3.008  0.1674 -0.1920  1.9361
  814MOL0     C 9811   5.419  11.247   2.895 -0.1891 -0.2603  0.0683
  814MOL0     C 9812   5.274  11.242   2.907 -0.4723  0.4227  0.0418
  814MOL0     C 9813   5.210  11.251   3.026  0.2510 -0.7352 -0.1138
  814MOL0     O 9814   5.068  11.262   3.036 -0.8010  0.1638  0.4250
  814MOL0     C 9815   4.983  11.238   2.931  0.7813 -0.1743 -0.2121
  814MOL0     C 9816   4.832  11.238   2.986 -0.0927  0.0444 -0.2571
  814MOL0     C 9817   4.805  11.343   3.091  1.0442  0.1224 -0.9262
  814MOL0     C 9818   4.653  11.330   3.130 -0.0188 -0.1047  0.5879
  814MOL0     C 9819   4.551  11.349   3.026 -0.7240 -0.1181  0.9103
  814MOL0     C 9820   4.477  11.370   2.935  0.8905 -0.9531  0.5071
  814MOL0     C 9821   5.288  11.280   3.141  0.2680 -0.5330  0.1092
  814MOL0     C 9822   5.428  11.281   3.134 -0.0070  0.1712  0.0442
  814MOL0     H 9823   5.847  11.164   3.251  0.3347 -0.3195  0.7136
  814MOL0     H 9824   6.095  11.187   3.301 -0.5902 -0.1830  0.0814
  814MOL0     H 9825   6.291  11.249   3.335 -0.9245 -1.3263  0.4520
  814MOL0     H 9826   6.325  11.171   3.183 -1.3478  0.1577  2.5853
  814MOL0     H 9827   6.470  11.414   3.303  0.1137 -1.0449  2.0792
  814MOL0     H 9828   6.530  11.254   3.322  0.0687  0.7933 -0.6078
  814MOL0     H 9829   6.544  11.231   3.071  1.6188 -0.1213  3.0998
  814MOL0     H 9830   6.483  11.389   3.046  2.5260 -0.5133 -2.9997
  814MOL0     H 9831   6.681  11.475   3.165 -0.8790  0.5839  0.6610
  814MOL0     H 9832   6.743  11.322   3.206  0.4236 -2.6774 -2.7320
  814MOL0     H 9833   6.757  11.254   2.950 -1.0013 -0.4008 -0.0762
  814MOL0     H 9834   6.712  11.422   2.923 -1.8819 -1.6362 -0.1672
  814MOL0     H 9835   6.893  11.486   3.066  0.5642 -0.4555  1.2177
  814MOL0     H 9836   6.943  11.320   3.082  0.9732 -0.4906 -0.9477
  814MOL0     H 9837   6.958  11.295   2.820 -0.5224 -1.8177  0.9388
  814MOL0     H 9838   6.949  11.476   2.820  0.0388 -0.8102 -0.2456
  814MOL0     H 9839   7.159  11.386   3.001 -3.8432 -0.5661  0.4968
  814MOL0     H 9840   7.159  11.490   2.864 -0.0109  0.0855  1.7425
  814MOL0     H 9841   7.234  11.411   2.611  1.8817  0.4336 -0.0657
  814MOL0     H 9842   7.368  11.080   2.467 -6.1173 -1.7949 -0.7357
  814MOL0     H 9843   7.288  11.218   2.424 -2.2697 -1.4488  1.2154
  814MOL0     H 9844   7.560  11.244   2.563  1.3518 -4.2998 -3.6524
  814MOL0     H 9845   7.457  11.373   2.476  2.5239  1.8623 -1.3802
  814MOL0     H 9846   7.607  11.329   2.307 -2.0974 -0.2610 -2.8837
  814MOL0     H 9847   7.502  11.191   2.280  1.5129 -4.2474  1.6999
  814MOL0     H 9848   7.741  11.155   2.474 -1.0712  0.2213  0.4160
  814MOL0     H 9849   7.746  11.149   2.288  0.5737  1.6686 -0.6762
  814MOL0     H 9850   7.737  10.911   2.581  0.4011  2.2188 -1.5492
  814MOL0     H 9851   7.990  10.663   2.650  0.4241 -0.9810  0.6892
  814MOL0     H 9852   7.847  10.743   2.721  1.8542 -0.7779  0.9281
  814MOL0     H 9853   7.849  10.579   2.673 -2.2201 -0.0436  2.1760
  814MOL0     H 9854   8.130  10.476   2.072 -0.2934  0.0335 -0.3867
  814MOL0     H 9855   8.194  10.246   1.941 -2.5428  1.6674 -1.9018
  814MOL0     H 9856   8.137   9.861   2.162 -0.4542 -2.4555  0.4039
  814MOL0     H 9857   7.986   9.864   2.075  0.7083  0.3219 -3.0974
  814MOL0     H 9858   8.274   9.805   1.988 -0.4235 -0.4203  2.5341
  814MOL0     H 9859   8.154   9.677   2.022  0.3660  0.6844  0.5106
  814MOL0     H 9860   8.091   9.839   1.785  1.8874 -0.7219 -1.4788
  814MOL0     H 9861   8.034   9.676   1.831 -0.0616 -0.1070 -3.8170
  814MOL0     H 9862   8.327   9.735   1.730  1.3509 -1.1848 -3.1436
  814MOL0     H 9863   8.261   9.585   1.794 -0.2958 -0.1826 -1.0129
  814MOL0     H 9864   8.139   9.726   1.564 -1.0791 -0.8611 -0.1238
  814MOL0     H 9865   8.115   9.551   1.606  0.4151 -1.5233 -0.2722
  814MOL0     H 9866   8.393   9.651   1.533  1.3080 -0.1522  0.0707
  814MOL0     H 9867   8.341   9.491   1.556  3.2050  1.8316  0.0757
  814MOL0     H 9868   8.285   9.684   1.345 -1.3418 -1.2001 -2.0944
  814MOL0     H 9869   8.152   9.577   1.378  0.3723 -0.7022 -2.0059
  814MOL0     H 9870   8.311   9.381   1.344  2.2336  0.0191 -0.2522
  814MOL0     H 9871   8.435   9.497   1.317  1.2913 -3.6158 -1.9174
  814MOL0     H 9872   7.971  10.031   2.234  4.5339 -0.8709  1.8545
  814MOL0     H 9873   7.957  10.247   2.370 -0.9341 -3.1393 -0.0766
  814MOL0     H 9874   7.847  10.671   2.167 -4.6996  0.5263 -2.8942
  814MOL0     H 9875   7.708  10.883   2.170  0.6759  2.8833  0.8877
  814MOL0     H 9876   6.127  11.511   3.032 -0.0111 -1.7182 -3.0495
  814MOL0     H 9877   5.859  11.507   3.004 -2.3217 -1.4196  0.1386
  814MOL0     H 9878   5.457  11.253   2.793 -1.3423  0.6047 -0.3420
  814MOL0     H 9879   5.225  11.217   2.814  3.3957 -3.7548 -1.2721
  814MOL0     H 9880   4.993  11.309   2.849 -0.9413  0.7980  0.3756
  814MOL0     H 9881   5.008  11.139   2.890 -0.3756  0.6611 -3.1662
  814MOL0     H 9882   4.816  11.140   3.032  3.3885 -0.0729  1.0059
  814MOL0     H 9883   4.768  11.240   2.897 -0.0636 -3.5876 -0.5151
  814MOL0     H 9884   4.842  11.442   3.062 -0.5085  0.5994 -1.3912
  814MOL0     H 9885   4.858  11.320   3.184 -0.5226 -0.3863 -0.1182
  814MOL0     H 9886   4.638  11.410   3.203  0.4636 -0.2213  0.8134
  814MOL0     H 9887   4.627  11.235   3.177 -1.5568 -0.0729 -0.1097
  814MOL0     H 9888   4.403  11.381   2.859 -0.4377  1.3003  2.0055
  814MOL0     H 9889   5.244  11.305   3.237  0.5308 -0.4911  0.2212
  814MOL0     H 9890   5.487  11.308   3.221  0.0468 -0.1912  0.1251
  815MOL0     O 9891   5.405   6.062   8.624  0.1506  0.2628  0.7605
  815MOL0     C 9892   5.344   6.169   8.652 -1.1312  0.5645 -0.3762
  815MOL0     O 9893   5.321   6.262   8.553  0.5627 -0.4056 -0.3283
  815MOL0     C 9894   5.346   6.222   8.426  0.2400 -0.2928  0.2239
  815MOL0     C 9895   5.265   6.130   8.355  0.2427 -0.0670 -0.1910
  815MOL0     C 9896   5.291   6.102   8.225 -0.7217  0.0344 -0.0489
  815MOL0     C 9897   5.389   6.165   8.154 -0.1072 -0.0568  0.0541
  815MOL0     O 9898   5.397   6.130   8.024 -0.2325  0.1400 -0.3604
  815MOL0     C 9899   5.476   6.212   7.924  0.6495  0.6166  0.3662
  815MOL0     C 9900   5.459   6.161   7.779 -0.9557  0.2553 -0.6843
  815MOL0     C 9901   5.559   6.212   7.671 -0.3694 -0.2883 -0.4628
  815MOL0     C 9902   5.531   6.158   7.531  0.4464  0.0357 -0.3841
  815MOL0     C 9903   5.592   6.234   7.416  0.5125 -0.2170  0.7707
  815MOL0     C 9904   5.582   6.169   7.280 -1.2992  0.8439  0.2460
  815MOL0     C 9905   5.443   6.124   7.237 -0.1939 -0.6110 -0.0593
  815MOL0     C 9906   5.434   6.101   7.084  0.1502  0.6010  0.0095
  815MOL0     N 9907   5.396   6.217   7.008 -0.1499  0.5094 -0.1761
  815MOL0     C 9908   5.480   6.317   6.979 -0.3658  0.8434  0.2612
  815MOL0     C 9909   5.413   6.415   6.916  0.2052  0.2124 -0.5654
  815MOL0     C 9910   5.458   6.538   6.849  0.3473  0.2333  0.1038
  815MOL0     C 9911   5.533   6.517   6.725  0.9005  0.4081  0.3526
  815MOL0     C 9912   5.529   6.640   6.628 -0.6587 -0.5589 -0.6711
  815MOL0     C 9913   5.529   6.597   6.481  0.3124 -0.7494 -1.2444
  815MOL0     O 9914   5.523   6.714   6.398  0.0490 -0.9296 -0.1249
  815MOL0     C 9915   5.584   6.710   6.280  0.9128  0.8098 -0.6205
  815MOL0     C 9916   5.601   6.588   6.202  0.0541 -0.8175  0.6757
  815MOL0     C 9917   5.662   6.588   6.076 -0.4078  0.1057 -0.2985
  815MOL0     C 9918   5.682   6.457   5.992 -0.2562 -0.0391 -0.4813
  815MOL0     C 9919   5.708   6.711   6.020  1.1721 -0.9850  0.0467
  815MOL0     C 9920   5.766   6.728   5.888 -1.4572 -0.5704 -0.2305
  815MOL0     O 9921   5.874   6.816   5.883  0.0175 -0.2373 -0.1119
  815MOL0     C 9922   5.935   6.856   5.772 -0.0433  1.0716 -0.3913
  815MOL0     C 9923   5.999   6.976   5.772 -0.6178 -0.7933  0.0436
  815MOL0     C 9924   6.080   7.019   5.661 -0.0938  0.8076  0.4769
  815MOL0     C 9925   6.087   6.949   5.540 -0.7764 -0.6341 -0.7784
  815MOL0     O 9926   6.162   6.987   5.432  0.7034 -0.1391  0.4307
  815MOL0     C 9927   6.192   6.895   5.321 -1.1861  0.7005 -0.8824
  815MOL0     C 9928   6.295   6.953   5.222 -0.5828 -0.8238  0.6703
  815MOL0     C 9929   6.227   7.087   5.172 -0.4260 -0.6806 -1.6368
  815MOL0     C 9930   6.286   7.139   5.035  0.5819  0.7344 -0.4847
  815MOL0     C 9931   6.221   7.268   4.993 -0.2714  0.3487  1.0695
  815MOL0     C 9932   6.242   7.394   5.086 -0.3003  0.7829 -0.5128
  815MOL0     C 9933   6.173   7.505   5.017  0.2051  0.0232 -0.1760
  815MOL0     C 9934   6.028   7.508   4.984 -0.3721  0.0372 -0.2629
  815MOL0    Cl 9935   5.927   7.448   5.116 -0.4709 -0.0622  0.0598
  815MOL0     C 9936   6.009   6.837   5.535  0.9135 -0.3424 -0.2021
  815MOL0     C 9937   5.944   6.783   5.649  0.4662 -0.2676  0.4870
  815MOL0     O 9938   5.731   6.672   5.787  0.8336 -0.6043 -0.0258
  815MOL0     C 9939   5.696   6.828   6.102 -0.0939  0.0740 -0.5791
  815MOL0     C 9940   5.651   6.823   6.231 -0.8422  0.0504  0.9755
  815MOL0     N 9941   5.280   6.373   6.913  0.4517  0.1469  0.1998
  815MOL0     N 9942   5.267   6.254   6.980 -0.3320 -0.6660  0.7002
  815MOL0     C 9943   5.474   6.254   8.221  0.5191  0.3312  1.2962
  815MOL0     C 9944   5.442   6.282   8.353 -1.0588  0.0574 -0.3003
  815MOL0     C 9945   5.309   6.191   8.790 -0.7261  0.3572 -0.5592
  815MOL0     C 9946   5.255   6.314   8.821  0.0834 -0.7706  0.4725
  815MOL0     C 9947   5.220   6.348   8.952 -0.0855  1.2116  1.5612
  815MOL0     C 9948   5.222   6.244   9.052 -0.1160 -0.5355 -0.2172
  815MOL0     O 9949   5.172   6.278   9.181 -0.0741 -0.3307 -0.4094
  815MOL0     C 9950   5.277   6.294   9.270 -0.0847 -0.9784  0.0955
  815MOL0     C 9951   5.311   6.164   9.345  0.6228 -0.6131 -0.1806
  815MOL0     C 9952   5.193   6.105   9.429 -0.8291 -0.5672 -0.3302
  815MOL0     C 9953   5.114   6.205   9.515  0.3508  0.3796  0.1046
  815MOL0     C 9954   5.195   6.302   9.584 -0.1106 -0.3305  0.4035
  815MOL0     C 9955   5.274   6.381   9.634  0.5611  0.6066 -0.2086
  815MOL0     C 9956   5.261   6.113   9.022  0.7318  0.6526  1.0169
  815MOL0     C 9957   5.298   6.082   8.888 -0.1963  1.2229 -0.1647
  815MOL0     H 9958   5.174   6.077   8.381  0.6105 -0.6710 -0.1161
  815MOL0     H 9959   5.214   6.046   8.171 -0.6178  1.2515 -1.5352
  815MOL0     H 9960   5.452   6.319   7.925  0.7468  0.6385  1.0028
  815MOL0     H 9961   5.582   6.209   7.950  2.0383 -0.5942 -4.4901
  815MOL0     H 9962   5.453   6.053   7.767  2.8797  0.0888 -2.7749
  815MOL0     H 9963   5.365   6.213   7.757 -0.2413  0.4922 -3.5976
  815MOL0     H 9964   5.545   6.319   7.656  2.1424  0.3195  1.0560
  815MOL0     H 9965   5.661   6.215   7.710 -0.7971  1.9868  0.6174
  815MOL0     H 9966   5.561   6.052   7.531  0.9813  0.1651  1.0567
  815MOL0     H 9967   5.423   6.145   7.513  0.5580  1.2484 -2.0972
  815MOL0     H 9968   5.528   6.322   7.411  1.2304  0.2143 -1.8664
  815MOL0     H 9969   5.694   6.257   7.449  1.4558 -2.7941 -0.0950
  815MOL0     H 9970   5.615   6.242   7.206 -1.0213  1.1405  0.6537
  815MOL0     H 9971   5.662   6.094   7.285  0.5573  2.4642 -2.4220
  815MOL0     H 9972   5.424   6.021   7.271 -0.6878 -0.6607 -0.4683
  815MOL0     H 9973   5.363   6.192   7.269 -0.6280  0.0795 -2.4469
  815MOL0     H 9974   5.376   6.016   7.046  1.5499 -0.7351  0.7789
  815MOL0     H 9975   5.532   6.063   7.053  0.6308 -0.3261  2.3915
  815MOL0     H 9976   5.587   6.318   7.000 -0.6926 -0.3252  2.3200
  815MOL0     H 9977   5.369   6.597   6.823  1.1102  0.7391 -1.5028
  815MOL0     H 9978   5.523   6.596   6.915  2.0263 -1.2563 -0.1930
  815MOL0     H 9979   5.476   6.445   6.664 -0.6857  2.1215 -0.2952
  815MOL0     H 9980   5.631   6.470   6.731 -0.2882 -2.4941 -0.6818
  815MOL0     H 9981   5.625   6.690   6.647 -1.4399  0.4508  0.7255
  815MOL0     H 9982   5.444   6.709   6.631  0.9402  1.6895 -2.7984
  815MOL0     H 9983   5.448   6.525   6.467  0.5681 -1.1761 -0.6169
  815MOL0     H 9984   5.618   6.539   6.454  0.5392 -0.1979 -1.7014
  815MOL0     H 9985   5.574   6.493   6.247 -0.4709 -1.1909 -0.3968
  815MOL0     H 9986   5.604   6.452   5.916 -1.8981  0.5645  1.0800
  815MOL0     H 9987   5.783   6.461   5.949 -0.0910 -2.4294 -0.4400
  815MOL0     H 9988   5.669   6.366   6.051 -0.2823 -0.1651 -0.6806
  815MOL0     H 9989   5.994   7.047   5.854  6.8174  0.2799  0.2512
  815MOL0     H 9990   6.125   7.117   5.669 -0.8176  1.8061 -4.4755
  815MOL0     H 9991   6.240   6.805   5.361  0.2067  1.1908 -1.4190
  815MOL0     H 9992   6.112   6.858   5.256 -0.6826 -2.6128  0.2112
  815MOL0     H 9993   6.384   6.989   5.275 -2.3646  1.6400  2.1906
  815MOL0     H 9994   6.312   6.887   5.136 -3.1023  1.0406 -1.4047
  815MOL0     H 9995   6.242   7.158   5.254  3.3874 -1.6231 -1.3338
  815MOL0     H 9996   6.123   7.064   5.148  0.0118 -0.8334 -3.4985
  815MOL0     H 9997   6.394   7.155   5.040  0.5098  1.2621 -0.6498
  815MOL0     H 9998   6.264   7.065   4.958 -2.8459  2.5565 -1.4547
  815MOL0     H 9999   6.112   7.259   4.990 -0.4290  2.0954  0.2508
  815MOL0     H10000   6.247   7.282   4.887  0.4919  0.3228  1.2487
  815MOL0     H10001   6.202   7.380   5.187 -0.1187  1.9546 -0.2732
  815MOL0     H10002   6.350   7.404   5.076  0.1027 -3.0730 -1.8860
  815MOL0     H10003   6.225   7.535   4.926 -0.4229  1.8216  0.0101
  815MOL0     H10004   6.195   7.593   5.079  0.2945  0.2645 -0.5428
  815MOL0     H10005   6.002   7.448   4.896 -1.2246  0.4174 -0.2749
  815MOL0     H10006   5.993   7.607   4.952 -0.4164  0.0274 -0.2460
  815MOL0     H10007   6.003   6.783   5.441  0.8397 -0.8601  0.0987
  815MOL0     H10008   5.912   6.681   5.630 -0.8325 -0.2140  2.2005
  815MOL0     H10009   5.727   6.927   6.070 -1.7933  0.7002 -0.3868
  815MOL0     H10010   5.628   6.913   6.287 -0.5749  0.7647 -0.0214
  815MOL0     H10011   5.553   6.294   8.158  1.8658 -1.3671  1.8614
  815MOL0     H10012   5.502   6.365   8.390 -0.8390 -0.3376  0.2415
  815MOL0     H10013   5.263   6.396   8.750 -2.8129  1.8919  2.8910
  815MOL0     H10014   5.169   6.440   8.977 -0.9835  0.4074  2.8555
  815MOL0     H10015   5.363   6.331   9.215  0.4845 -0.8747  1.0308
  815MOL0     H10016   5.249   6.369   9.345 -3.4554  1.0280 -2.8153
  815MOL0     H10017   5.386   6.188   9.421  0.6856 -1.5869  0.0789
  815MOL0     H10018   5.352   6.092   9.274 -1.8419 -0.8231 -1.4862
  815MOL0     H10019   5.227   6.026   9.497 -0.2440  0.3872  0.5120
  815MOL0     H10020   5.125   6.051   9.362  1.8770 -0.5573 -3.2927
  815MOL0     H10021   5.046   6.154   9.583 -1.3321  0.7731 -1.2084
  815MOL0     H10022   5.047   6.263   9.451 -1.2792  2.3635  3.3877
  815MOL0     H10023   5.301   6.473   9.683 -0.3556  2.3936 -2.8158
  815MOL0     H10024   5.254   6.037   9.099 -0.5125  1.8226  2.1033
  815MOL0     H10025   5.312   5.976   8.870 -1.4998  0.1107  4.0595
  816MOL0     O10026   5.408   8.471   9.862 -0.2703  1.0027 -0.8994
  816MOL0     C10027   5.356   8.362   9.863  0.3697 -0.6165 -0.2729
  816MOL0     O10028   5.412   8.242   9.844  0.1352 -0.1058 -0.3453
  816MOL0     C10029   5.541   8.208   9.797  0.7432 -0.2311 -0.0210
  816MOL0     C10030   5.589   8.085   9.842 -0.4624 -0.3822  0.5562
  816MOL0     C10031   5.717   8.038   9.810 -1.1595 -0.1693  0.3306
  816MOL0     C10032   5.804   8.123   9.742  0.4134 -0.0619  0.5679
  816MOL0     O10033   5.941   8.095   9.735  0.7688 -0.7218 -0.0025
  816MOL0     C10034   5.981   7.967   9.669 -0.1415  0.1392 -0.0674
  816MOL0     C10035   6.014   7.997   9.528 -0.8458  0.0419 -0.2451
  816MOL0     C10036   6.114   7.889   9.471  0.0816 -0.2920 -1.2688
  816MOL0     C10037   6.150   7.938   9.336 -0.4623  0.6907  0.1200
  816MOL0     C10038   6.279   7.879   9.280  0.1376  0.1786 -0.4265
  816MOL0     C10039   6.281   7.906   9.126 -0.6956  0.0358 -0.6443
  816MOL0     C10040   6.402   7.834   9.059 -0.4119 -0.0168 -0.8370
  816MOL0     C10041   6.406   7.856   8.903  0.0887 -0.8253  0.4102
  816MOL0     N10042   6.519   7.782   8.832  0.8025 -0.2243 -0.5268
  816MOL0     C10043   6.623   7.857   8.788 -0.0498  0.0822 -0.6118
  816MOL0     C10044   6.708   7.759   8.757  0.5040 -0.1044  0.0497
  816MOL0     C10045   6.835   7.783   8.665  0.3236 -0.1424  0.6517
  816MOL0     C10046   6.806   7.727   8.522  0.4488 -0.0726  0.3439
  816MOL0     C10047   6.930   7.731   8.428 -0.1970 -0.5103 -0.5573
  816MOL0     C10048   6.898   7.681   8.284 -0.0594 -0.3775  0.1455
  816MOL0     O10049   7.023   7.631   8.236  0.0326  0.6427 -0.0699
  816MOL0     C10050   7.019   7.558   8.120 -0.1225 -0.7768  0.3728
  816MOL0     C10051   7.107   7.453   8.119 -0.6418  0.2120 -0.6597
  816MOL0     C10052   7.115   7.362   8.016 -0.3689  0.4712  0.4424
  816MOL0     C10053   7.224   7.267   8.019 -0.1147  0.2786  0.6140
  816MOL0     C10054   7.021   7.367   7.912  0.3199  0.4170 -0.0988
  816MOL0     C10055   7.015   7.257   7.807  0.3658 -0.2108  0.3892
  816MOL0     O10056   6.890   7.260   7.757  0.1210 -0.2338  0.2536
  816MOL0     C10057   6.871   7.177   7.647 -0.2110 -0.2004  0.4725
  816MOL0     C10058   6.832   7.043   7.672  0.4818  0.4689 -0.8351
  816MOL0     C10059   6.792   6.965   7.560 -0.4159 -0.3840  0.2391
  816MOL0     C10060   6.798   7.008   7.431 -0.3953 -0.0623 -0.0683
  816MOL0     O10061   6.792   6.927   7.316  0.1161 -0.0953 -0.1338
  816MOL0     C10062   6.827   6.790   7.333  0.2422 -0.7782  0.1995
  816MOL0     C10063   6.846   6.718   7.192  0.2531 -0.0613 -0.2691
  816MOL0     C10064   6.713   6.661   7.120 -0.4651  0.4693  0.4500
  816MOL0     C10065   6.617   6.782   7.078 -0.7792 -1.0251  0.7486
  816MOL0     C10066   6.480   6.727   7.027 -0.1649  0.8542 -1.2385
  816MOL0     C10067   6.362   6.827   7.042 -0.4610  0.8555  0.0003
  816MOL0     C10068   6.232   6.768   6.990 -0.3419  0.3376 -0.1585
  816MOL0     C10069   6.113   6.862   7.024  0.3337  0.7584  0.3669
  816MOL0    Cl10070   5.946   6.791   7.014 -0.2022 -0.1589  0.2945
  816MOL0     C10071   6.826   7.138   7.408 -0.6073 -0.4060  0.3967
  816MOL0     C10072   6.868   7.228   7.513 -1.1902  0.6275 -0.0107
  816MOL0     O10073   7.109   7.181   7.770 -0.0152 -0.3317  0.2055
  816MOL0     C10074   6.923   7.473   7.921  0.1425 -0.4708  0.2085
  816MOL0     C10075   6.921   7.567   8.015 -0.3161 -0.1250 -0.5800
  816MOL0     N10076   6.661   7.632   8.788 -0.6410 -0.4846 -0.1185
  816MOL0     N10077   6.541   7.645   8.835  0.0650  0.0391 -0.3604
  816MOL0     C10078   5.760   8.252   9.713 -0.3300 -0.7010 -0.5818
  816MOL0     C10079   5.631   8.293   9.733 -0.4115  0.4777  0.8445
  816MOL0     C10080   5.211   8.369   9.896  0.1916 -0.5882 -0.4516
  816MOL0     C10081   5.148   8.492   9.890  0.3614 -0.5621 -0.3798
  816MOL0     C10082   5.010   8.513   9.914 -0.4895 -0.3446 -0.6479
  816MOL0     C10083   4.936   8.402   9.967  0.3536 -0.2490 -0.1885
  816MOL0     O10084   4.804   8.402  10.017 -0.7231  0.0074 -0.1100
  816MOL0     C10085   4.742   8.536  10.018 -0.9072 -0.5251  1.1212
  816MOL0     C10086   4.665   8.567   9.889 -0.4234  0.1763  0.0003
  816MOL0     C10087   4.531   8.499   9.875  0.6083  0.6681  0.4106
  816MOL0     C10088   4.429   8.568   9.976 -1.1694  0.7603 -0.0739
  816MOL0     C10089   4.293   8.538   9.952  1.3695  0.1815  0.1278
  816MOL0     C10090   4.176   8.533   9.902  0.3738  0.1555  0.5541
  816MOL0     C10091   4.998   8.274   9.966  0.4945 -0.4753  1.5470
  816MOL0     C10092   5.129   8.254   9.920 -0.4403 -0.4358  0.7439
  816MOL0     H10093   5.513   8.028   9.893 -2.0576  1.9777  0.9572
  816MOL0     H10094   5.751   7.939   9.836 -0.8427 -0.4580 -1.1034
  816MOL0     H10095   6.072   7.928   9.715 -0.2243  0.0834  0.0527
  816MOL0     H10096   5.902   7.891   9.674 -0.2041  0.0837 -1.5078
  816MOL0     H10097   5.926   7.991   9.463 -1.9959 -1.7087  1.3556
  816MOL0     H10098   6.061   8.095   9.535  0.4403 -0.6824  2.6712
  816MOL0     H10099   6.202   7.893   9.536 -0.6899 -0.9715 -0.1637
  816MOL0     H10100   6.078   7.786   9.469  0.0610 -0.4024  1.3347
  816MOL0     H10101   6.076   7.919   9.258  3.4714  4.4316 -5.2436
  816MOL0     H10102   6.160   8.047   9.339  1.2126  0.5379  1.0143
  816MOL0     H10103   6.368   7.921   9.327 -0.5083  1.2529 -0.1362
  816MOL0     H10104   6.266   7.771   9.297 -1.1323  0.6651  2.2416
  816MOL0     H10105   6.192   7.855   9.087 -1.8921  2.2957 -1.0088
  816MOL0     H10106   6.289   8.013   9.105 -0.3740  0.1694  0.1376
  816MOL0     H10107   6.491   7.868   9.113 -2.0556 -1.1238  2.9129
  816MOL0     H10108   6.411   7.725   9.066 -0.4850  0.0322  0.1622
  816MOL0     H10109   6.408   7.963   8.883  0.1658 -1.1158 -1.3151
  816MOL0     H10110   6.308   7.817   8.874  0.6387 -0.5854 -2.0158
  816MOL0     H10111   6.625   7.965   8.773  1.1986 -0.3209 -4.3498
  816MOL0     H10112   6.836   7.892   8.651 -1.3202 -0.4681 -3.1618
  816MOL0     H10113   6.931   7.739   8.694  0.3369 -2.3351 -2.3699
  816MOL0     H10114   6.727   7.778   8.466 -0.1613 -1.0765  0.2639
  816MOL0     H10115   6.766   7.626   8.528  0.8843 -0.3314 -0.8103
  816MOL0     H10116   7.008   7.675   8.481  0.3705  1.1595  0.4917
  816MOL0     H10117   6.968   7.833   8.420  2.5673 -0.6070  5.6769
  816MOL0     H10118   6.857   7.764   8.225 -3.0964 -0.6674  1.6850
  816MOL0     H10119   6.821   7.603   8.287  1.6670 -2.1355  2.4203
  816MOL0     H10120   7.183   7.444   8.197 -1.5401  2.2163  0.5419
  816MOL0     H10121   7.281   7.279   8.112  1.9513 -0.2032 -0.5513
  816MOL0     H10122   7.194   7.162   8.019 -0.6906  0.4309  1.5193
  816MOL0     H10123   7.286   7.291   7.933 -0.6847  2.8455  0.8202
  816MOL0     H10124   6.841   6.983   7.762  0.9961  0.3450 -0.9700
  816MOL0     H10125   6.772   6.860   7.578  0.7116 -0.6146  0.1750
  816MOL0     H10126   6.929   6.789   7.372  0.4654  1.3819 -0.2110
  816MOL0     H10127   6.754   6.737   7.395 -0.8439 -1.0164 -1.2424
  816MOL0     H10128   6.896   6.794   7.131 -1.3532 -0.5354 -2.3035
  816MOL0     H10129   6.912   6.632   7.202  0.6519 -0.3948 -4.1849
  816MOL0     H10130   6.674   6.592   7.195  2.2504 -3.3311 -1.3524
  816MOL0     H10131   6.745   6.598   7.037  2.0270 -1.7845  2.9573
  816MOL0     H10132   6.586   6.846   7.161  1.6867  2.3210 -0.6889
  816MOL0     H10133   6.652   6.834   6.989 -3.3359 -3.7212 -2.0608
  816MOL0     H10134   6.448   6.643   7.090 -0.3059  3.8431  3.1374
  816MOL0     H10135   6.489   6.702   6.921  0.4103  0.8886 -1.1982
  816MOL0     H10136   6.339   6.847   7.147  2.4976  2.3862  0.4678
  816MOL0     H10137   6.382   6.928   7.007  4.6282  0.3467  0.5939
  816MOL0     H10138   6.208   6.673   7.039 -0.5087  0.2252 -0.4514
  816MOL0     H10139   6.248   6.746   6.884  0.8189  0.9039 -0.1160
  816MOL0     H10140   6.132   6.957   6.973  1.5989  0.0721 -0.4938
  816MOL0     H10141   6.126   6.869   7.132  2.0485 -3.6832  0.6323
  816MOL0     H10142   6.817   7.176   7.307  2.4858 -0.7952 -0.1427
  816MOL0     H10143   6.891   7.333   7.493 -0.4238  0.2190 -1.3980
  816MOL0     H10144   6.840   7.467   7.852  1.7089 -4.5748 -1.6755
  816MOL0     H10145   6.838   7.637   8.016 -0.2927 -0.0860  0.7574
  816MOL0     H10146   5.825   8.318   9.657 -0.5784 -1.2074 -1.4992
  816MOL0     H10147   5.595   8.386   9.690 -1.8597  0.0845  1.1341
  816MOL0     H10148   5.196   8.589   9.883 -3.6087  1.6162  0.0818
  816MOL0     H10149   4.967   8.612   9.905 -1.9551 -1.0720 -2.1279
  816MOL0     H10150   4.680   8.555  10.106  0.8192  0.9171  2.0923
  816MOL0     H10151   4.811   8.620  10.034 -0.3647  0.7335 -5.1802
  816MOL0     H10152   4.736   8.551   9.807  0.8304  2.5089  0.5277
  816MOL0     H10153   4.648   8.674   9.870 -1.7509 -0.2311 -1.2843
  816MOL0     H10154   4.543   8.392   9.891  4.0025  0.4271 -2.5223
  816MOL0     H10155   4.494   8.507   9.772  0.6450 -5.7851 -0.4822
  816MOL0     H10156   4.435   8.677   9.984 -1.6840  0.9525 -2.0227
  816MOL0     H10157   4.453   8.534  10.077  1.3441 -0.6686 -1.0509
  816MOL0     H10158   4.081   8.511   9.859  1.4568 -2.6447 -0.7011
  816MOL0     H10159   4.942   8.185   9.994  0.0910 -0.7756 -0.1550
  816MOL0     H10160   5.187   8.163   9.934  2.9498  1.4240  0.1151
  817MOL0     O10161   8.837   6.194   6.208  1.4575 -0.3168 -0.2291
  817MOL0     C10162   8.952   6.177   6.170 -0.4159 -0.8451  0.3393
  817MOL0     O10163   9.062   6.215   6.244 -0.8177  0.5531  0.0329
  817MOL0     C10164   9.044   6.279   6.360 -0.2255  0.6610 -0.5716
  817MOL0     C10165   8.962   6.393   6.377 -0.4344 -0.4480 -0.6373
  817MOL0     C10166   8.908   6.422   6.505  0.5912  0.7655 -0.1774
  817MOL0     C10167   8.950   6.354   6.621  0.2353  0.2386  0.1319
  817MOL0     O10168   8.913   6.386   6.755 -0.8466  0.4825 -0.0488
  817MOL0     C10169   8.777   6.417   6.770 -0.4832  0.3176  0.9765
  817MOL0     C10170   8.739   6.423   6.919  0.0346 -0.4276 -1.4262
  817MOL0     C10171   8.598   6.482   6.949  0.3947 -0.4656 -0.5694
  817MOL0     C10172   8.574   6.457   7.104  0.6005 -0.4596 -0.1097
  817MOL0     C10173   8.450   6.530   7.144 -1.1368  0.2418  0.1416
  817MOL0     C10174   8.398   6.463   7.270 -0.3704  0.1203  0.1682
  817MOL0     C10175   8.279   6.559   7.304 -0.3062 -0.0361  0.4671
  817MOL0     C10176   8.302   6.650   7.420  0.2256  0.1756  0.2376
  817MOL0     N10177   8.183   6.747   7.423  0.1353 -0.6569 -0.1814
  817MOL0     C10178   8.204   6.883   7.417  0.5840 -0.9724  0.0210
  817MOL0     C10179   8.100   6.944   7.471  0.4055  0.6353  0.2631
  817MOL0     C10180   8.064   7.094   7.505  0.3615  1.1362 -0.2017
  817MOL0     C10181   8.185   7.169   7.551  0.6837 -0.3682  0.1458
  817MOL0     C10182   8.145   7.315   7.582  0.4041 -0.1282 -0.7168
  817MOL0     C10183   8.249   7.392   7.656  0.4172  1.2437 -0.0527
  817MOL0     O10184   8.347   7.434   7.559 -0.9178  0.6165  0.4865
  817MOL0     C10185   8.323   7.539   7.469 -0.2677  0.1773 -0.5259
  817MOL0     C10186   8.257   7.666   7.505 -0.7112  0.0077 -0.3713
  817MOL0     C10187   8.228   7.765   7.407  0.7227  0.2354 -0.8485
  817MOL0     C10188   8.164   7.896   7.450 -0.0308  0.4256  0.3157
  817MOL0     C10189   8.258   7.741   7.266 -0.7173 -0.3443 -0.3052
  817MOL0     C10190   8.224   7.823   7.151  1.0975  0.0643  0.4018
  817MOL0     O10191   8.167   7.761   7.049 -0.7306 -0.3938 -0.0619
  817MOL0     C10192   8.130   7.821   6.928  0.0154 -0.6985 -0.6795
  817MOL0     C10193   8.120   7.731   6.821  0.4919  0.1159 -1.4146
  817MOL0     C10194   8.082   7.775   6.697 -1.2273  0.5818  0.1962
  817MOL0     C10195   8.038   7.904   6.675  0.0799  0.5889 -1.1231
  817MOL0     O10196   7.977   7.930   6.555 -0.8201  0.5893 -0.1525
  817MOL0     C10197   7.935   8.061   6.524  0.9747 -0.5349 -0.7179
  817MOL0     C10198   7.870   8.056   6.388  0.7012  0.4263  0.5068
  817MOL0     C10199   7.746   7.968   6.389 -0.0677  0.5110  0.1216
  817MOL0     C10200   7.664   7.997   6.257 -0.1771  0.7313 -0.6274
  817MOL0     C10201   7.741   7.963   6.128 -0.4543 -0.0221  1.0840
  817MOL0     C10202   7.642   7.946   6.005  0.5554  0.3720 -0.7457
  817MOL0     C10203   7.514   7.869   6.029 -0.6472 -0.7170 -1.3816
  817MOL0     C10204   7.540   7.720   6.076  0.1003  0.9160  0.4732
  817MOL0    Cl10205   7.617   7.618   5.957  0.4089  0.3939  0.4599
  817MOL0     C10206   8.052   7.992   6.790  0.0950 -0.0011 -0.4352
  817MOL0     C10207   8.088   7.954   6.919  0.3136  0.7034 -0.2296
  817MOL0     O10208   8.239   7.947   7.162 -0.3916 -0.2757 -0.0072
  817MOL0     C10209   8.312   7.611   7.239  0.9136 -0.4600  0.4449
  817MOL0     C10210   8.347   7.518   7.333 -0.5342 -1.2662 -0.4676
  817MOL0     N10211   8.005   6.842   7.494  0.0605  0.5116  0.4695
  817MOL0     N10212   8.061   6.731   7.472 -0.7604 -0.2332  0.2488
  817MOL0     C10213   9.038   6.250   6.599 -0.0533 -0.4667 -1.1186
  817MOL0     C10214   9.086   6.211   6.470 -0.5021  0.2122  0.2802
  817MOL0     C10215   8.967   6.098   6.048 -0.7864  0.6186  0.3567
  817MOL0     C10216   9.097   6.073   5.994  0.0005 -0.0724 -0.1654
  817MOL0     C10217   9.114   5.995   5.877  0.0687  1.0495 -0.2435
  817MOL0     C10218   9.001   5.936   5.818 -0.5601 -0.4529  0.3316
  817MOL0     O10219   9.019   5.862   5.707 -0.0992 -0.8628 -1.0566
  817MOL0     C10220   8.910   5.821   5.620 -0.3973 -0.2849  0.1983
  817MOL0     C10221   8.960   5.791   5.481 -0.6103 -0.3781 -0.2489
  817MOL0     C10222   9.037   5.915   5.432  0.0144 -0.8415  0.3562
  817MOL0     C10223   8.956   6.001   5.320 -0.4578  1.1175  0.4892
  817MOL0     C10224   8.841   6.056   5.384 -0.8783 -1.0701  0.1691
  817MOL0     C10225   8.741   6.090   5.442  0.3271 -0.4239  0.0683
  817MOL0     C10226   8.871   5.964   5.874  0.7086  0.1419  0.9377
  817MOL0     C10227   8.857   6.037   5.982 -0.7498 -0.6840 -0.9942
  817MOL0     H10228   8.931   6.460   6.298 -2.0047 -0.0412  0.2727
  817MOL0     H10229   8.839   6.504   6.526  2.1163  1.3495  3.1343
  817MOL0     H10230   8.753   6.511   6.719  0.9467  1.3490  2.1444
  817MOL0     H10231   8.708   6.342   6.729  0.5317  0.2498 -0.6942
  817MOL0     H10232   8.729   6.320   6.955  0.1550 -0.0234 -0.1896
  817MOL0     H10233   8.817   6.473   6.977  0.5282 -2.1379 -0.5432
  817MOL0     H10234   8.592   6.585   6.913 -6.8941 -0.6119 -1.1419
  817MOL0     H10235   8.523   6.429   6.891 -0.7147  1.4086 -0.9257
  817MOL0     H10236   8.561   6.350   7.125  0.1359 -0.1471  1.2885
  817MOL0     H10237   8.653   6.487   7.174  1.0768 -0.5019 -0.6216
  817MOL0     H10238   8.465   6.638   7.157  0.4565 -0.0231  0.7179
  817MOL0     H10239   8.372   6.517   7.068  0.2702 -1.9671 -1.0422
  817MOL0     H10240   8.363   6.362   7.248 -1.2076  0.7948 -1.8417
  817MOL0     H10241   8.467   6.457   7.354 -1.7552  3.2257  1.7270
  817MOL0     H10242   8.253   6.615   7.214  0.4507  4.4334  2.7311
  817MOL0     H10243   8.196   6.492   7.329 -0.2000 -0.2303  0.3062
  817MOL0     H10244   8.395   6.706   7.408 -0.1519  0.5453 -1.0836
  817MOL0     H10245   8.301   6.592   7.513 -0.5515  0.6112  0.5018
  817MOL0     H10246   8.299   6.933   7.406 -0.3300  1.3706  1.7656
  817MOL0     H10247   8.024   7.134   7.412 -1.4122  7.2444  2.6305
  817MOL0     H10248   7.985   7.112   7.579  0.4634  0.5884  0.0432
  817MOL0     H10249   8.254   7.182   7.467 -1.2383  2.4642 -1.1499
  817MOL0     H10250   8.234   7.122   7.637 -1.6289  0.2215  1.8597
  817MOL0     H10251   8.057   7.307   7.647  1.6264  2.8026  1.5295
  817MOL0     H10252   8.119   7.373   7.493 -3.8415 -0.3791  0.1757
  817MOL0     H10253   8.297   7.349   7.744 -0.3706 -1.8476 -0.9813
  817MOL0     H10254   8.197   7.481   7.692 -3.5152 -1.1491  0.9443
  817MOL0     H10255   8.228   7.674   7.609 -0.8867  0.4730 -0.4569
  817MOL0     H10256   8.238   7.972   7.425  0.6327  0.3400  1.9058
  817MOL0     H10257   8.065   7.908   7.404 -0.9964 -1.1269  1.8738
  817MOL0     H10258   8.153   7.903   7.558 -0.2752  0.0987  0.3146
  817MOL0     H10259   8.137   7.625   6.835 -1.2056 -0.0905 -0.7062
  817MOL0     H10260   8.099   7.697   6.624  1.4634  0.0669  1.2312
  817MOL0     H10261   7.866   8.099   6.600  0.8092 -2.1624 -0.0080
  817MOL0     H10262   8.005   8.144   6.514 -0.5130  0.6913 -1.4247
  817MOL0     H10263   7.845   8.157   6.354 -3.0992 -0.8436 -1.0044
  817MOL0     H10264   7.948   8.021   6.320  0.8665 -1.1239  1.4345
  817MOL0     H10265   7.684   8.001   6.473  2.4547  5.3243  0.4034
  817MOL0     H10266   7.770   7.861   6.391 -0.8926  0.3097 -0.2738
  817MOL0     H10267   7.566   7.947   6.260 -0.4061  1.1779 -0.6037
  817MOL0     H10268   7.639   8.103   6.260 -0.0586  0.7518 -0.3193
  817MOL0     H10269   7.804   7.877   6.154  3.8223  1.6787 -2.3434
  817MOL0     H10270   7.817   8.038   6.102 -2.1019  0.4442 -3.1093
  817MOL0     H10271   7.619   8.049   5.975 -1.8151  0.3451  0.7051
  817MOL0     H10272   7.689   7.896   5.920 -1.0828  0.6512 -1.8737
  817MOL0     H10273   7.474   7.863   5.927 -0.8319 -1.2976 -1.2820
  817MOL0     H10274   7.435   7.925   6.080  0.4210 -1.6136  1.4437
  817MOL0     H10275   7.443   7.673   6.095 -0.2873  0.3263 -2.4698
  817MOL0     H10276   7.580   7.719   6.178 -1.1178 -2.3952  1.0479
  817MOL0     H10277   8.024   8.097   6.782  2.2970  0.4942 -2.7192
  817MOL0     H10278   8.077   8.015   7.008  2.3612 -0.1921  0.6999
  817MOL0     H10279   8.348   7.593   7.139  0.0456 -3.9520  0.6504
  817MOL0     H10280   8.409   7.434   7.302 -0.3743 -1.2300 -0.2440
  817MOL0     H10281   9.069   6.190   6.683  0.5151  0.8221 -0.3795
  817MOL0     H10282   9.163   6.137   6.448  0.8130  1.2272  1.3047
  817MOL0     H10283   9.187   6.118   6.033  0.7123 -0.0855 -1.6979
  817MOL0     H10284   9.209   5.971   5.831  0.6767  1.9889  0.4940
  817MOL0     H10285   8.861   5.742   5.678  0.8623  0.0599  1.8261
  817MOL0     H10286   8.848   5.909   5.601  0.7242  0.4069 -0.3248
  817MOL0     H10287   8.876   5.772   5.413  0.5320  1.1361 -2.1964
  817MOL0     H10288   9.017   5.698   5.475 -1.6605 -1.1811  1.4546
  817MOL0     H10289   9.132   5.873   5.399 -1.0542 -3.1130 -0.0488
  817MOL0     H10290   9.048   5.984   5.516 -2.6359 -0.9700  0.8918
  817MOL0     H10291   8.934   5.943   5.230 -2.4885  1.4857  0.6961
  817MOL0     H10292   9.015   6.089   5.293 -2.3696  1.9398 -1.2967
  817MOL0     H10293   8.646   6.107   5.488  1.6279 -4.5270  5.1313
  817MOL0     H10294   8.784   5.911   5.836  1.0999 -1.8706  2.6123
  817MOL0     H10295   8.756   6.053   6.019  0.0272  1.7483  0.2682
  818MOL0     O10296   4.933  10.844   8.381 -0.3339 -0.1671 -0.7227
  818MOL0     C10297   5.027  10.875   8.455 -0.4512  0.4501  0.7512
  818MOL0     O10298   5.150  10.810   8.454  0.2205 -0.0941  0.3569
  818MOL0     C10299   5.178  10.710   8.372  0.0494  0.6402  0.4506
  818MOL0     C10300   5.171  10.579   8.422  0.2696  1.0489  0.5512
  818MOL0     C10301   5.223  10.473   8.337  0.0754 -0.6931  1.0899
  818MOL0     C10302   5.270  10.497   8.206  0.4241 -0.2571 -0.8859
  818MOL0     O10303   5.318  10.399   8.128 -0.0788  0.3122 -1.0682
  818MOL0     C10304   5.280  10.274   8.163  0.3681  0.5929 -0.1954
  818MOL0     C10305   5.303  10.165   8.058 -0.0018 -0.6841 -1.3020
  818MOL0     C10306   5.246  10.214   7.921 -0.2066  0.3653  0.1132
  818MOL0     C10307   5.226  10.098   7.829 -0.2004  0.5662  0.7743
  818MOL0     C10308   5.166  10.143   7.682  0.7859  0.1612 -0.8480
  818MOL0     C10309   5.077  10.038   7.626 -0.7709  1.2288 -0.0156
  818MOL0     C10310   5.008  10.091   7.501 -0.2501  1.7795 -0.4508
  818MOL0     C10311   5.101  10.103   7.369  0.1531 -0.3691 -0.7215
  818MOL0     N10312   5.136   9.972   7.324 -0.0625 -0.4392 -0.3295
  818MOL0     C10313   5.084   9.902   7.225 -0.6658  0.3684  0.4717
  818MOL0     C10314   5.124   9.777   7.221 -0.1073  1.1911  0.0232
  818MOL0     C10315   5.092   9.666   7.123 -0.9902 -0.3907 -0.2300
  818MOL0     C10316   5.145   9.710   6.986  0.5102  0.2914  0.2334
  818MOL0     C10317   5.114   9.608   6.875  0.2053  0.8694  0.2950
  818MOL0     C10318   5.130   9.675   6.743 -0.0464  0.3895 -0.5491
  818MOL0     O10319   5.014   9.758   6.698 -0.6026  0.2460 -0.4936
  818MOL0     C10320   5.045   9.847   6.601 -1.1009  0.5181  0.0038
  818MOL0     C10321   5.051   9.817   6.467 -0.9011  0.5027  0.5410
  818MOL0     C10322   5.081   9.922   6.379 -1.2064  0.2387 -0.0178
  818MOL0     C10323   5.104   9.888   6.236 -0.2398 -0.1137 -0.9726
  818MOL0     C10324   5.102  10.056   6.434  0.5733 -1.5179 -0.1268
  818MOL0     C10325   5.111  10.184   6.358  0.2032  0.2689  0.1710
  818MOL0     O10326   5.085  10.185   6.222  0.4787 -0.0516  0.6049
  818MOL0     C10327   5.119  10.296   6.144 -0.5478  0.2615  0.8211
  818MOL0     C10328   5.178  10.275   6.017 -0.3000  0.5761  0.1289
  818MOL0     C10329   5.206  10.380   5.934  0.0276  0.8661  0.4866
  818MOL0     C10330   5.190  10.511   5.977 -0.2165 -0.3989  0.4527
  818MOL0     O10331   5.230  10.634   5.910 -0.2697 -0.1615 -0.2606
  818MOL0     C10332   5.325  10.633   5.808 -0.5070  0.0048  0.2546
  818MOL0     C10333   5.319  10.777   5.736  0.4555 -0.3852 -0.7043
  818MOL0     C10334   5.397  10.873   5.826 -0.5969  0.6391 -0.3523
  818MOL0     C10335   5.320  10.999   5.829  0.1218  0.0072  0.8297
  818MOL0     C10336   5.416  11.109   5.873  0.7060 -0.4647  0.6853
  818MOL0     C10337   5.340  11.238   5.885  0.8124  0.0545 -0.3012
  818MOL0     C10338   5.303  11.316   5.756  0.1937 -0.3684  0.5523
  818MOL0     C10339   5.194  11.425   5.767 -0.2331  0.2734  0.0031
  818MOL0    Cl10340   5.145  11.459   5.604 -0.3306 -0.3790  0.1031
  818MOL0     C10341   5.114  10.530   6.098 -0.9071  0.3806  0.1977
  818MOL0     C10342   5.069  10.422   6.173 -0.9731  0.3603  0.3595
  818MOL0     O10343   5.167  10.274   6.414 -0.1677  0.8645 -0.4875
  818MOL0     C10344   5.095  10.076   6.571 -0.0689  0.3048  0.5215
  818MOL0     C10345   5.072   9.974   6.654 -0.0235 -0.4648 -0.4714
  818MOL0     N10346   5.228   9.782   7.312 -0.2271  0.3165 -1.5419
  818MOL0     N10347   5.238   9.893   7.371 -0.0839  0.0906 -0.0732
  818MOL0     C10348   5.270  10.627   8.161 -0.2181 -0.5456  0.3197
  818MOL0     C10349   5.214  10.733   8.241 -1.3303  0.2934 -0.1309
  818MOL0     C10350   5.014  10.972   8.554 -0.0999 -0.4276  0.2621
  818MOL0     C10351   5.117  11.022   8.630 -0.7822  0.2873  1.0387
  818MOL0     C10352   5.102  11.125   8.719  0.2064 -0.0473 -0.3971
  818MOL0     C10353   4.981  11.187   8.731 -0.0675 -0.7292  0.6114
  818MOL0     O10354   4.978  11.290   8.824 -0.0103  0.1055  0.3459
  818MOL0     C10355   4.872  11.383   8.851 -0.2066  0.6331  0.0028
  818MOL0     C10356   4.944  11.519   8.887 -0.0866  0.0013 -0.9158
  818MOL0     C10357   5.013  11.512   9.029 -0.2618 -0.9108  0.2241
  818MOL0     C10358   5.019  11.653   9.090 -0.4363  0.2316 -0.1382
  818MOL0     C10359   5.150  11.720   9.072  0.4254  0.3795 -0.8993
  818MOL0     C10360   5.262  11.761   9.072 -0.0280 -0.4108 -1.1059
  818MOL0     C10361   4.865  11.142   8.664  0.2926  0.2686  0.6233
  818MOL0     C10362   4.882  11.031   8.581  0.2453  1.1310 -0.6129
  818MOL0     H10363   5.145  10.574   8.527  0.3219  1.3108  0.5791
  818MOL0     H10364   5.241  10.378   8.386 -0.8419 -2.9139 -2.5315
  818MOL0     H10365   5.326  10.254   8.260 -1.0230 -0.0793  0.3633
  818MOL0     H10366   5.171  10.279   8.176  0.2854  0.1525 -0.7083
  818MOL0     H10367   5.406  10.136   8.039  0.3679  1.0361 -2.0887
  818MOL0     H10368   5.259  10.079   8.109 -0.7443  0.5777  0.2887
  818MOL0     H10369   5.145  10.254   7.939  1.0326  2.8086  2.4218
  818MOL0     H10370   5.311  10.289   7.876  0.9787 -0.5307  0.2969
  818MOL0     H10371   5.319  10.041   7.818  0.6516  1.7691  1.4601
  818MOL0     H10372   5.169  10.034   7.896  2.6388  0.8476  3.7132
  818MOL0     H10373   5.096  10.223   7.710 -0.7691 -2.0085  2.0986
  818MOL0     H10374   5.245  10.188   7.621  1.9634  0.1051  0.5946
  818MOL0     H10375   5.127   9.944   7.601 -0.7951  1.0500  0.5875
  818MOL0     H10376   5.002  10.007   7.700  0.2961  0.9949  1.0048
  818MOL0     H10377   4.928  10.020   7.479 -0.0760  0.8042  1.7939
  818MOL0     H10378   4.955  10.183   7.526  0.1284  1.8984 -0.0748
  818MOL0     H10379   5.183  10.174   7.386 -1.4591  3.0297 -5.1867
  818MOL0     H10380   5.055  10.164   7.291  3.3664  2.9604 -0.2870
  818MOL0     H10381   5.016   9.946   7.154  0.9494  2.1649 -0.0481
  818MOL0     H10382   5.135   9.570   7.153 -3.4662 -0.9311  1.9511
  818MOL0     H10383   4.983   9.662   7.118 -1.3434  2.6731  2.1307
  818MOL0     H10384   5.255   9.712   6.989  0.6022  0.5505 -1.8802
  818MOL0     H10385   5.109   9.809   6.956 -2.1178  0.9215  4.5955
  818MOL0     H10386   5.017   9.558   6.885  0.3469  0.4678 -0.2840
  818MOL0     H10387   5.191   9.529   6.877  1.1662  1.8034  1.2726
  818MOL0     H10388   5.148   9.597   6.667 -0.3745 -1.0346  0.7760
  818MOL0     H10389   5.213   9.745   6.756 -2.0135  2.6588  0.5278
  818MOL0     H10390   5.045   9.717   6.423  2.0985  0.0237  0.9702
  818MOL0     H10391   5.014   9.892   6.175 -0.2647  0.1948 -0.9173
  818MOL0     H10392   5.180   9.957   6.199  2.5908 -2.2566  0.4253
  818MOL0     H10393   5.150   9.790   6.219 -1.1006 -0.4991 -1.0954
  818MOL0     H10394   5.193  10.171   5.989 -0.9111  0.7096 -0.7293
  818MOL0     H10395   5.248  10.363   5.835  3.6521  2.5133  1.5865
  818MOL0     H10396   5.431  10.623   5.832 -0.8963 -4.4933  0.9739
  818MOL0     H10397   5.300  10.561   5.729  2.0886 -1.2978  0.5165
  818MOL0     H10398   5.355  10.770   5.633 -0.9339  0.2697 -1.2674
  818MOL0     H10399   5.213  10.802   5.726 -0.6501 -4.5153 -1.2075
  818MOL0     H10400   5.491  10.886   5.773 -0.3812 -0.9053 -0.4153
  818MOL0     H10401   5.410  10.818   5.920 -0.3544 -0.0210 -0.7618
  818MOL0     H10402   5.288  11.022   5.726  3.3608 -1.9915 -0.8062
  818MOL0     H10403   5.236  10.982   5.896  0.5834 -4.1348  0.6386
  818MOL0     H10404   5.488  11.114   5.791  0.8623  1.3000  0.8926
  818MOL0     H10405   5.459  11.081   5.969  2.6637  1.4990  0.4499
  818MOL0     H10406   5.245  11.215   5.936  0.1785 -1.5321 -2.0873
  818MOL0     H10407   5.406  11.300   5.947  4.0224 -2.2503 -1.1718
  818MOL0     H10408   5.279  11.247   5.675  0.3252  0.5761 -0.3061
  818MOL0     H10409   5.393  11.369   5.724  0.0545 -0.4557  0.0147
  818MOL0     H10410   5.231  11.512   5.822  0.0213 -0.2538  0.6995
  818MOL0     H10411   5.112  11.390   5.832 -1.1386  2.5737  0.1760
  818MOL0     H10412   5.087  10.631   6.130  0.7024  0.3518  1.8709
  818MOL0     H10413   5.008  10.442   6.261 -0.1100  1.3390  0.7647
  818MOL0     H10414   5.096  10.176   6.614 -0.2188 -0.1925  1.7136
  818MOL0     H10415   5.049   9.988   6.759  2.0144 -0.5820  0.0271
  818MOL0     H10416   5.327  10.646   8.071 -0.9592 -1.5791 -0.3774
  818MOL0     H10417   5.207  10.840   8.223 -2.4135  0.5842  1.7288
  818MOL0     H10418   5.222  10.995   8.632 -0.2799  2.1414  1.6749
  818MOL0     H10419   5.181  11.185   8.765 -0.5809  1.7899 -1.3429
  818MOL0     H10420   4.807  11.407   8.766 -1.2955 -2.5115 -0.2076
  818MOL0     H10421   4.816  11.341   8.935  2.1187 -2.0163  0.3599
  818MOL0     H10422   4.860  11.586   8.903  0.3424  0.7826 -1.8843
  818MOL0     H10423   5.001  11.563   8.805 -2.9850  3.2768 -1.3768
  818MOL0     H10424   5.112  11.471   9.007  1.4896  2.9211  0.1589
  818MOL0     H10425   4.959  11.445   9.097 -0.2206 -1.2179 -0.0469
  818MOL0     H10426   5.007  11.639   9.198  0.0275  1.0154  0.0277
  818MOL0     H10427   4.938  11.715   9.052  0.9542  1.6012 -0.9944
  818MOL0     H10428   5.358  11.808   9.071 -0.3281  0.2032 -1.9827
  818MOL0     H10429   4.764  11.180   8.679 -0.2651 -0.4979 -1.0473
  818MOL0     H10430   4.796  10.974   8.547  1.2770 -2.2160  1.9196
  819MOL0     O10431   0.002   3.371   8.334  0.2366  0.0892 -0.0874
  819MOL0     C10432  -0.035   3.483   8.373 -0.3384  0.2913 -0.1134
  819MOL0     O10433   0.043   3.591   8.407 -0.5785 -0.0167 -0.7202
  819MOL0     C10434   0.163   3.584   8.462 -0.4045  1.1954 -0.8192
  819MOL0     C10435   0.203   3.477   8.543 -0.1393  0.3815  0.6596
  819MOL0     C10436   0.325   3.479   8.613 -0.5218 -0.7387  0.0344
  819MOL0     C10437   0.411   3.587   8.604 -0.2076  0.1568 -0.0985
  819MOL0     O10438   0.537   3.588   8.656  0.0481 -0.3343  0.2963
  819MOL0     C10439   0.632   3.502   8.602  0.2171  0.2001 -0.3915
  819MOL0     C10440   0.758   3.523   8.690 -0.2810 -0.0477 -0.0839
  819MOL0     C10441   0.744   3.433   8.801  0.2045  0.3831  0.1726
  819MOL0     C10442   0.866   3.443   8.889 -0.7507 -0.2703  0.5973
  819MOL0     C10443   0.846   3.377   9.027  0.1042 -0.3286 -0.2272
  819MOL0     C10444   0.987   3.349   9.098 -0.3905  0.8080  0.6657
  819MOL0     C10445   0.971   3.258   9.221  0.1514  0.0629 -0.0415
  819MOL0     C10446   1.080   3.275   9.331 -0.1164 -0.4964 -0.4053
  819MOL0     N10447   1.221   3.227   9.303 -0.1220 -0.2345 -0.3662
  819MOL0     C10448   1.320   3.293   9.232  0.1497 -0.0648 -0.0287
  819MOL0     C10449   1.416   3.200   9.201  0.4744 -0.3509  0.1641
  819MOL0     C10450   1.538   3.191   9.112  1.1692  0.4394  0.7660
  819MOL0     C10451   1.608   3.318   9.149 -0.3792  0.0692  0.1439
  819MOL0     C10452   1.734   3.356   9.057  0.0864  0.7511  0.1693
  819MOL0     C10453   1.855   3.394   9.142 -1.0942  0.5691 -0.5139
  819MOL0     O10454   1.946   3.466   9.061  0.1015  0.2685 -0.1556
  819MOL0     C10455   2.083   3.448   9.086  0.1464  0.3827 -0.2171
  819MOL0     C10456   2.167   3.383   8.992  0.4873 -0.4039 -0.7505
  819MOL0     C10457   2.294   3.335   9.022 -0.7595  0.8528 -0.7794
  819MOL0     C10458   2.391   3.276   8.919 -0.3609 -0.7243  0.0143
  819MOL0     C10459   2.342   3.337   9.155 -0.0729  0.2623 -0.7177
  819MOL0     C10460   2.467   3.276   9.199 -1.1049  0.1807  0.7158
  819MOL0     O10461   2.533   3.171   9.136  0.0299  0.1633  0.3428
  819MOL0     C10462   2.667   3.136   9.163  0.1932  0.5066 -0.1429
  819MOL0     C10463   2.707   3.036   9.253 -1.3032  0.4339  0.5064
  819MOL0     C10464   2.848   3.013   9.280  0.5578  0.3170  1.2141
  819MOL0     C10465   2.946   3.081   9.203  0.4842  0.3058  0.3619
  819MOL0     O10466   3.076   3.033   9.216 -0.2195  0.1919  0.4159
  819MOL0     C10467   3.183   3.122   9.174  0.1668  0.3095  0.3304
  819MOL0     C10468   3.318   3.070   9.194 -1.3997 -0.9710 -0.0303
  819MOL0     C10469   3.369   3.055   9.342 -0.5990 -0.5073 -0.1604
  819MOL0     C10470   3.521   3.002   9.350  0.0900  0.1333  0.7854
  819MOL0     C10471   3.564   2.957   9.486 -0.5434  0.3547  0.5173
  819MOL0     C10472   3.521   2.798   9.501  0.7006 -0.0458  0.4611
  819MOL0     C10473   3.553   2.744   9.631 -0.2506 -0.2858 -0.1954
  819MOL0     C10474   3.602   2.594   9.615  0.3702  0.7097 -0.2877
  819MOL0    Cl10475   3.780   2.567   9.574 -0.2391  0.3661 -0.1707
  819MOL0     C10476   2.903   3.185   9.109 -0.3297 -0.0545 -0.3275
  819MOL0     C10477   2.766   3.206   9.089  0.0264  0.5187 -0.1410
  819MOL0     O10478   2.522   3.353   9.283 -0.1814 -0.2547  0.2609
  819MOL0     C10479   2.258   3.413   9.251  0.0903  0.4094  0.0207
  819MOL0     C10480   2.132   3.466   9.211 -1.0337  0.6632 -0.0396
  819MOL0     N10481   1.361   3.078   9.246  0.8331  0.6095  0.7082
  819MOL0     N10482   1.251   3.097   9.310 -0.3385 -0.4190 -1.1288
  819MOL0     C10483   0.374   3.698   8.530  0.4882 -1.1990 -0.2989
  819MOL0     C10484   0.248   3.691   8.465 -0.2895  0.0929 -0.1969
  819MOL0     C10485  -0.175   3.505   8.391 -0.5300 -0.2216  0.6938
  819MOL0     C10486  -0.235   3.629   8.376 -0.5829 -0.0017  0.6543
  819MOL0     C10487  -0.375   3.643   8.398 -0.0484 -0.1319 -0.1375
  819MOL0     C10488  -0.458   3.538   8.424  0.5241  0.2316  0.4451
  819MOL0     O10489  -0.599   3.547   8.427 -0.5230 -0.3898  0.0452
  819MOL0     C10490  -0.652   3.674   8.458 -0.0841  0.0145  0.1539
  819MOL0     C10491  -0.626   3.724   8.600  0.2286 -0.3787 -0.1164
  819MOL0     C10492  -0.610   3.618   8.715  0.8915  0.3446  0.3324
  819MOL0     C10493  -0.726   3.517   8.737  0.2360 -0.3895 -0.4660
  819MOL0     C10494  -0.761   3.505   8.873  0.3857  0.7361  0.0876
  819MOL0     C10495  -0.811   3.468   8.979 -1.0055 -0.3171  0.0238
  819MOL0     C10496  -0.401   3.415   8.423  0.6394  0.5623 -0.3962
  819MOL0     C10497  -0.263   3.397   8.410 -0.3753  0.7660 -1.1019
  819MOL0     H10498   0.139   3.393   8.566 -0.2952  0.3331  0.0699
  819MOL0     H10499   0.337   3.392   8.677 -0.2992 -1.3788 -0.8537
  819MOL0     H10500   0.593   3.401   8.619 -0.2488  0.2093 -1.3341
  819MOL0     H10501   0.652   3.508   8.495 -0.6264  0.0754 -0.5565
  819MOL0     H10502   0.839   3.483   8.629 -3.1892 -2.4480 -2.7446
  819MOL0     H10503   0.769   3.630   8.710  1.1294 -0.5113  1.9343
  819MOL0     H10504   0.655   3.466   8.856 -2.0509 -1.5990 -2.0411
  819MOL0     H10505   0.742   3.327   8.775  0.5996  1.3679 -4.9718
  819MOL0     H10506   0.946   3.378   8.851 -0.4849  0.8605 -0.8374
  819MOL0     H10507   0.900   3.546   8.901  0.2099 -0.2943 -1.5330
  819MOL0     H10508   0.780   3.439   9.088  0.3918  1.0239 -1.2437
  819MOL0     H10509   0.794   3.282   9.013 -1.3407  0.4783 -0.4773
  819MOL0     H10510   1.053   3.301   9.025  0.1638  1.1201  0.9538
  819MOL0     H10511   1.024   3.443   9.140  0.9675  0.8296 -0.4995
  819MOL0     H10512   0.876   3.289   9.266 -0.1349 -1.0268  0.1335
  819MOL0     H10513   0.956   3.152   9.201 -0.5486 -0.2637  1.9728
  819MOL0     H10514   1.049   3.239   9.429  0.8643  1.7954  0.8269
  819MOL0     H10515   1.091   3.384   9.331 -2.0300 -0.2498 -1.9542
  819MOL0     H10516   1.320   3.399   9.209  1.4862  0.2625  1.3073
  819MOL0     H10517   1.590   3.095   9.114 -2.9819 -2.2100 -2.3655
  819MOL0     H10518   1.504   3.204   9.009  1.8539  0.8050  0.5844
  819MOL0     H10519   1.643   3.295   9.250 -3.7431  0.5988  1.5802
  819MOL0     H10520   1.544   3.407   9.154  0.0024  0.4578 -1.3613
  819MOL0     H10521   1.693   3.433   8.991 -0.7104  1.5813  1.5779
  819MOL0     H10522   1.765   3.267   9.003  0.0457 -1.3769  3.3909
  819MOL0     H10523   1.896   3.299   9.179 -1.8261 -0.1317 -1.4436
  819MOL0     H10524   1.829   3.456   9.228  3.0119  1.3266  0.4047
  819MOL0     H10525   2.126   3.368   8.892 -0.3349 -1.1616 -0.3227
  819MOL0     H10526   2.347   3.282   8.819  0.7628  0.3153 -0.4401
  819MOL0     H10527   2.473   3.348   8.912 -1.7643  0.7722 -2.2612
  819MOL0     H10528   2.408   3.169   8.934  0.5742 -0.7403 -1.0331
  819MOL0     H10529   2.628   2.978   9.298  0.1447 -2.2861 -0.2460
  819MOL0     H10530   2.869   2.923   9.336  0.4299  1.1278  2.6309
  819MOL0     H10531   3.164   3.134   9.067 -1.2561 -2.5450  0.1750
  819MOL0     H10532   3.172   3.221   9.219 -0.9576  1.3424 -2.0822
  819MOL0     H10533   3.340   2.985   9.129  0.6841  0.7065 -1.6742
  819MOL0     H10534   3.375   3.158   9.161 -1.8102 -0.4029  0.7334
  819MOL0     H10535   3.301   2.983   9.389 -0.6562 -0.9095 -0.8408
  819MOL0     H10536   3.355   3.154   9.387 -3.0597 -0.9711  0.2733
  819MOL0     H10537   3.512   2.916   9.283  0.6613 -0.1504  1.0642
  819MOL0     H10538   3.588   3.073   9.299 -0.4064  0.7353  0.9528
  819MOL0     H10539   3.523   3.015   9.568 -2.1808 -3.2039  2.4605
  819MOL0     H10540   3.673   2.965   9.492 -0.7792  3.0348  3.2097
  819MOL0     H10541   3.413   2.784   9.488  0.9055 -1.8835  0.3669
  819MOL0     H10542   3.578   2.745   9.424 -1.3590 -4.1732  1.4949
  819MOL0     H10543   3.463   2.748   9.694 -1.7161  1.1038 -2.2495
  819MOL0     H10544   3.643   2.796   9.666  1.7156 -1.4092 -3.2330
  819MOL0     H10545   3.544   2.537   9.542 -1.8141  2.9232 -0.4323
  819MOL0     H10546   3.589   2.544   9.711  1.0134 -0.7548 -0.9272
  819MOL0     H10547   2.972   3.240   9.045 -1.9720 -1.3288 -3.3912
  819MOL0     H10548   2.733   3.275   9.013 -1.1314 -2.6669 -2.7580
  819MOL0     H10549   2.295   3.426   9.352  1.3708 -2.5475  0.0351
  819MOL0     H10550   2.067   3.522   9.277  0.1993  1.8964  0.1822
  819MOL0     H10551   0.424   3.794   8.532  1.1285 -1.5294  0.6606
  819MOL0     H10552   0.210   3.780   8.416  0.2365 -0.5264 -1.7726
  819MOL0     H10553  -0.168   3.711   8.350 -2.0037  0.4252 -2.1002
  819MOL0     H10554  -0.406   3.747   8.405  3.8504  1.1856  0.3961
  819MOL0     H10555  -0.604   3.750   8.396  0.6721 -0.8951 -0.4147
  819MOL0     H10556  -0.758   3.676   8.432  0.0956  1.8530 -0.5451
  819MOL0     H10557  -0.711   3.786   8.629 -0.7130 -0.3802 -2.5897
  819MOL0     H10558  -0.534   3.782   8.605 -0.2379  0.2625  2.2329
  819MOL0     H10559  -0.591   3.678   8.804  2.6521  1.2192 -0.5859
  819MOL0     H10560  -0.511   3.574   8.710  0.8074  0.2750 -1.9935
  819MOL0     H10561  -0.696   3.413   8.718  1.4822 -0.0844 -0.2551
  819MOL0     H10562  -0.813   3.551   8.680 -0.4763  0.0554  0.8474
  819MOL0     H10563  -0.847   3.427   9.071 -2.5021  0.7754 -0.0301
  819MOL0     H10564  -0.450   3.319   8.419  1.0290  0.3829 -1.1008
  819MOL0     H10565  -0.217   3.300   8.398  3.6817  2.6271 -2.2430
  820MOL0     O10566   0.071   9.610   9.320  0.6179  0.0552  0.6660
  820MOL0     C10567  -0.054   9.616   9.341  0.1184  0.2120 -0.4216
  820MOL0     O10568  -0.110   9.633   9.475  0.0033 -0.5276 -0.5227
  820MOL0     C10569  -0.014   9.676   9.561 -0.0491 -0.0244 -0.1231
  820MOL0     C10570   0.070   9.587   9.620 -0.3425  0.3232 -0.6096
  820MOL0     C10571   0.159   9.621   9.719 -0.0957  1.2841 -0.2394
  820MOL0     C10572   0.175   9.753   9.745  0.5895  0.3827 -0.4893
  820MOL0     O10573   0.261   9.797   9.835  0.0865 -0.0028  0.3726
  820MOL0     C10574   0.393   9.751   9.856 -0.0285  0.3891 -0.0794
  820MOL0     C10575   0.484   9.864   9.860 -0.3611 -0.0771  0.1386
  820MOL0     C10576   0.506   9.925   9.722  0.5083 -0.4306 -0.0765
  820MOL0     C10577   0.643   9.997   9.706 -0.0107  0.2964  0.3036
  820MOL0     C10578   0.674  10.015   9.552 -0.2599  0.6095  0.6124
  820MOL0     C10579   0.810  10.082   9.527 -0.6426  0.3836 -0.1979
  820MOL0     C10580   0.828  10.167   9.404 -0.0651  0.4505 -0.1497
  820MOL0     C10581   0.904  10.107   9.285 -0.0798 -0.3223 -0.1513
  820MOL0     N10582   0.903  10.195   9.160  0.5480  0.1214  0.3372
  820MOL0     C10583   0.888  10.164   9.021  0.1636  1.0436 -0.0830
  820MOL0     C10584   0.896  10.280   8.951 -0.6422 -0.0189  0.4955
  820MOL0     C10585   0.897  10.298   8.800  0.3897 -0.0765 -0.6324
  820MOL0     C10586   0.751  10.294   8.763  0.2645 -0.0148 -0.3419
  820MOL0     C10587   0.714  10.306   8.614 -1.0203  1.3603  0.2171
  820MOL0     C10588   0.757  10.448   8.570 -0.2537  0.2568 -0.0699
  820MOL0     O10589   0.696  10.471   8.437  0.8704 -0.2017  0.3132
  820MOL0     C10590   0.740  10.583   8.362 -0.0652  0.4470 -0.1438
  820MOL0     C10591   0.722  10.584   8.226 -0.1517  0.4453  0.4581
  820MOL0     C10592   0.768  10.690   8.149 -0.1405  1.3065 -0.2126
  820MOL0     C10593   0.744  10.683   7.998 -0.6120  0.1487  0.1204
  820MOL0     C10594   0.830  10.794   8.208  0.3340 -0.7475 -0.4123
  820MOL0     C10595   0.865  10.912   8.143 -1.3119  0.1896  0.4439
  820MOL0     O10596   0.840  11.024   8.212  0.3464  1.3287 -0.5503
  820MOL0     C10597   0.881  11.146   8.156  1.6058 -0.2105 -0.4089
  820MOL0     C10598   0.990  11.224   8.203  0.7577 -0.1577  0.0702
  820MOL0     C10599   1.040  11.343   8.141  0.6067  0.3711 -0.1168
  820MOL0     C10600   0.972  11.386   8.028 -0.4272 -0.4470 -0.1158
  820MOL0     O10601   1.032  11.486   7.950  0.2900 -0.0034 -0.3909
  820MOL0     C10602   0.968  11.517   7.825 -0.1388  0.4432  0.2957
  820MOL0     C10603   1.055  11.610   7.745  0.4490  0.4241 -0.5794
  820MOL0     C10604   0.979  11.687   7.636  0.8550 -0.5697  0.1922
  820MOL0     C10605   1.078  11.786   7.572  0.6300 -0.4867 -0.0333
  820MOL0     C10606   0.999  11.911   7.525 -0.9946 -0.3211 -0.2232
  820MOL0     C10607   1.101  12.020   7.477  0.0039  0.9002 -0.5907
  820MOL0     C10608   1.031  12.121   7.374 -0.8193  0.0529  0.0235
  820MOL0     C10609   1.140  12.213   7.309  0.5426 -0.4457 -0.3841
  820MOL0    Cl10610   1.285  12.136   7.254 -0.4005  0.3765  0.2237
  820MOL0     C10611   0.853  11.319   7.987  0.4201  0.6038  0.6289
  820MOL0     C10612   0.807  11.201   8.051  0.1303  0.4235 -0.0747
  820MOL0     O10613   0.935  10.906   8.035  0.0211  0.4133 -0.3184
  820MOL0     C10614   0.833  10.804   8.353 -0.0926  0.2300 -0.9800
  820MOL0     C10615   0.786  10.701   8.428 -0.5542  0.1011 -0.7725
  820MOL0     N10616   0.917  10.383   9.045  0.0726  0.5438  0.3267
  820MOL0     N10617   0.917  10.328   9.160 -0.4250 -0.8040 -0.1583
  820MOL0     C10618   0.085   9.848   9.692  0.5511 -0.3012 -0.6133
  820MOL0     C10619  -0.013   9.810   9.602 -0.1602  0.6742  0.5709
  820MOL0     C10620  -0.143   9.602   9.220  0.2580 -0.2639  0.1172
  820MOL0     C10621  -0.082   9.597   9.087  0.5558  0.8413 -0.6867
  820MOL0     C10622  -0.161   9.607   8.969  0.1000  0.1125 -0.7360
  820MOL0     C10623  -0.308   9.610   8.989 -0.9834 -0.5472 -0.1932
  820MOL0     O10624  -0.381   9.628   8.876 -0.1960 -0.1953 -0.0284
  820MOL0     C10625  -0.474   9.521   8.851 -0.8557  0.1139 -0.2403
  820MOL0     C10626  -0.519   9.503   8.700 -0.0549 -0.3858 -0.3100
  820MOL0     C10627  -0.578   9.634   8.636  0.6554  0.1802 -0.2633
  820MOL0     C10628  -0.633   9.641   8.495  0.6507 -0.2951  0.2719
  820MOL0     C10629  -0.732   9.534   8.479  0.5189 -0.2669  0.5093
  820MOL0     C10630  -0.803   9.443   8.458  0.0946 -0.3106  1.1307
  820MOL0     C10631  -0.359   9.625   9.114 -1.1041 -0.3893 -0.4195
  820MOL0     C10632  -0.281   9.612   9.229  0.5090 -0.2962 -0.1872
  820MOL0     H10633   0.059   9.488   9.576  1.1522  0.5029 -1.4432
  820MOL0     H10634   0.227   9.551   9.767 -0.1729  0.5460 -1.1929
  820MOL0     H10635   0.394   9.712   9.958 -1.4967  3.7622  1.3839
  820MOL0     H10636   0.431   9.672   9.790 -0.4556 -1.0743  1.3656
  820MOL0     H10637   0.451   9.932   9.940  2.1869  1.7618 -0.2205
  820MOL0     H10638   0.579   9.817   9.886  0.4449  0.5839 -1.4884
  820MOL0     H10639   0.502   9.850   9.642  0.1801  0.5967 -1.0496
  820MOL0     H10640   0.429   9.998   9.697 -1.0128 -1.7550  0.5335
  820MOL0     H10641   0.626  10.094   9.754 -1.1687  0.2008  0.1029
  820MOL0     H10642   0.731   9.950   9.751  1.3155  1.8747 -0.5229
  820MOL0     H10643   0.669   9.919   9.499  4.0972  0.8015 -0.4548
  820MOL0     H10644   0.592  10.075   9.512 -0.8024 -0.6043 -0.1522
  820MOL0     H10645   0.830  10.131   9.623  2.0894 -0.0739 -0.4418
  820MOL0     H10646   0.895  10.013   9.524  1.2511  2.5486  0.8175
  820MOL0     H10647   0.729  10.194   9.366 -1.1754 -4.0733 -1.1756
  820MOL0     H10648   0.893  10.249   9.434 -0.8898  0.7184  0.9768
  820MOL0     H10649   0.849  10.015   9.267  3.8609 -2.4903 -2.3135
  820MOL0     H10650   1.006  10.080   9.315  0.6378  3.3937  1.3829
  820MOL0     H10651   0.873  10.067   8.974 -1.6687 -0.4010  3.1895
  820MOL0     H10652   0.937  10.393   8.762 -0.9467  0.0799 -1.7459
  820MOL0     H10653   0.935  10.216   8.737 -2.3989 -1.0081 -1.2674
  820MOL0     H10654   0.706  10.380   8.812  2.0515  1.2559 -0.8357
  820MOL0     H10655   0.697  10.203   8.791 -1.3834  1.1000  0.2793
  820MOL0     H10656   0.606  10.302   8.597 -0.9440  1.3048 -0.2510
  820MOL0     H10657   0.757  10.217   8.567  0.6462  0.9045  2.3974
  820MOL0     H10658   0.866  10.459   8.560 -0.1744 -1.6821 -2.0652
  820MOL0     H10659   0.723  10.512   8.652  3.1562 -1.9271  3.3919
  820MOL0     H10660   0.657  10.504   8.193 -0.9045  1.9999 -2.0923
  820MOL0     H10661   0.653  10.644   7.951  0.1396 -0.9865 -0.4407
  820MOL0     H10662   0.759  10.780   7.949  2.3029 -1.2226 -2.0759
  820MOL0     H10663   0.818  10.613   7.956  0.9909  1.2207  1.0417
  820MOL0     H10664   1.047  11.195   8.291 -0.7528 -3.7384  0.0335
  820MOL0     H10665   1.128  11.398   8.171 -1.1318  4.0663 -1.2663
  820MOL0     H10666   0.948  11.432   7.760  1.7167 -0.6008  1.0045
  820MOL0     H10667   0.874  11.569   7.844 -0.8080 -0.1275 -1.2716
  820MOL0     H10668   1.084  11.683   7.822  0.5187 -0.7330  0.5360
  820MOL0     H10669   1.148  11.566   7.706  0.9846  1.1551 -0.1711
  820MOL0     H10670   0.891  11.739   7.676  2.0346 -1.0152  3.7622
  820MOL0     H10671   0.955  11.618   7.555  0.4526  1.7078 -1.7283
  820MOL0     H10672   1.143  11.826   7.650 -2.7943  2.4657  1.6320
  820MOL0     H10673   1.141  11.745   7.493 -1.1903 -1.2055 -1.1824
  820MOL0     H10674   0.923  11.954   7.591 -0.5332  3.1543 -1.7665
  820MOL0     H10675   0.939  11.880   7.439 -1.8171  0.6906 -0.0304
  820MOL0     H10676   1.137  12.078   7.563 -0.6272  1.0096 -0.3897
  820MOL0     H10677   1.187  11.971   7.431  1.4841 -0.1894  3.0071
  820MOL0     H10678   0.962  12.189   7.425  0.2661  2.4085 -1.4510
  820MOL0     H10679   0.983  12.071   7.290  2.2981  0.7657 -2.3608
  820MOL0     H10680   1.159  12.290   7.384  1.0173 -0.2105 -0.7392
  820MOL0     H10681   1.091  12.264   7.225  0.6325  1.0920  0.4793
  820MOL0     H10682   0.790  11.362   7.911  0.5404  1.1135  0.8174
  820MOL0     H10683   0.725  11.148   8.004  1.3086 -0.8536 -0.7634
  820MOL0     H10684   0.870  10.888   8.411 -1.4346  0.5427 -0.5520
  820MOL0     H10685   0.804  10.707   8.535 -1.6600 -3.2460 -0.3039
  820MOL0     H10686   0.078   9.950   9.728  0.1914 -0.0929 -1.2635
  820MOL0     H10687  -0.087   9.880   9.564 -0.2012  0.1506 -0.3435
  820MOL0     H10688   0.026   9.597   9.080  0.4593  0.9324 -2.3901
  820MOL0     H10689  -0.124   9.636   8.871  1.1829  2.1413  0.2126
  820MOL0     H10690  -0.442   9.426   8.895 -0.6971  0.3459  0.1431
  820MOL0     H10691  -0.572   9.542   8.894 -0.6806  1.4026 -0.4428
  820MOL0     H10692  -0.602   9.431   8.705 -2.6638  2.3106 -1.6157
  820MOL0     H10693  -0.433   9.468   8.642  0.6663 -0.0359  0.5242
  820MOL0     H10694  -0.502   9.712   8.648  0.9227  0.1911 -1.8412
  820MOL0     H10695  -0.659   9.661   8.704  2.1264  0.7782  1.3472
  820MOL0     H10696  -0.550   9.634   8.424  0.9015 -1.6508  0.6757
  820MOL0     H10697  -0.689   9.730   8.465 -2.4614 -3.3649 -4.2312
  820MOL0     H10698  -0.874   9.365   8.440 -0.8334  0.3824  1.7290
  820MOL0     H10699  -0.465   9.651   9.115 -0.7344  1.2801  1.2696
  820MOL0     H10700  -0.312   9.629   9.332 -2.1131 -2.9982 -0.3882
  821MOL0     O10701   3.500   0.661   1.793  0.7686  0.5255 -0.5042
  821MOL0     C10702   3.586   0.577   1.799 -2.0695  0.4355  0.1085
  821MOL0     O10703   3.575   0.447   1.844 -0.7400 -0.7155 -0.6827
  821MOL0     C10704   3.450   0.405   1.886 -0.1379 -0.3440 -0.5086
  821MOL0     C10705   3.407   0.278   1.859  1.1563  0.5248  0.0809
  821MOL0     C10706   3.299   0.224   1.923  0.2234 -0.6258  0.0680
  821MOL0     C10707   3.226   0.299   2.018  0.3220 -0.5267 -1.1812
  821MOL0     O10708   3.113   0.273   2.086 -0.1222  0.5115  0.0466
  821MOL0     C10709   3.038   0.152   2.052 -1.1330 -0.2960  0.1692
  821MOL0     C10710   3.073   0.033   2.145  0.4588 -0.4128  0.4387
  821MOL0     C10711   2.970  -0.083   2.124  0.9640 -0.2008  0.2965
  821MOL0     C10712   3.006  -0.195   2.021  0.3007  0.0573 -1.0780
  821MOL0     C10713   3.007  -0.141   1.883  0.2074 -0.6491 -0.4865
  821MOL0     C10714   3.026  -0.262   1.785 -1.1473 -0.0763  0.4391
  821MOL0     C10715   2.892  -0.346   1.760 -0.1315 -0.3159  0.3745
  821MOL0     C10716   2.916  -0.471   1.673 -0.2409  0.9819  1.1034
  821MOL0     N10717   2.780  -0.529   1.653 -0.8659 -0.2321 -0.6737
  821MOL0     C10718   2.713  -0.586   1.767 -0.9290  0.1131  0.8346
  821MOL0     C10719   2.610  -0.657   1.714 -0.6174 -0.3893 -0.1511
  821MOL0     C10720   2.521  -0.736   1.794  0.0713  0.0698  0.0229
  821MOL0     C10721   2.600  -0.836   1.891 -0.2388 -0.4033  0.2524
  821MOL0     C10722   2.527  -0.973   1.910 -0.2710  0.6731 -0.3343
  821MOL0     C10723   2.582  -1.052   2.032 -0.1916 -0.5865  0.2071
  821MOL0     O10724   2.532  -1.183   2.026 -0.6138  0.1336  0.7337
  821MOL0     C10725   2.434  -1.209   2.117 -0.7946  0.1381 -0.7253
  821MOL0     C10726   2.401  -1.342   2.156  0.7133 -0.6210 -0.7146
  821MOL0     C10727   2.299  -1.376   2.251  0.0940  0.2293 -0.0695
  821MOL0     C10728   2.283  -1.516   2.275  0.4792 -0.9189  1.0390
  821MOL0     C10729   2.222  -1.279   2.314  0.5863 -0.0467  0.8510
  821MOL0     C10730   2.116  -1.299   2.417 -0.9979 -0.1665 -0.2559
  821MOL0     O10731   2.035  -1.189   2.458 -0.8065  0.6370 -0.7149
  821MOL0     C10732   1.983  -1.180   2.589 -0.1354 -1.2165 -0.9062
  821MOL0     C10733   1.922  -1.053   2.622 -0.0772 -1.0327  0.0223
  821MOL0     C10734   1.835  -1.025   2.729 -0.4631  0.0627  0.2403
  821MOL0     C10735   1.819  -1.136   2.820 -0.1154  0.1727  0.4984
  821MOL0     O10736   1.763  -1.097   2.942 -0.2977  0.7506  0.4256
  821MOL0     C10737   1.816  -1.156   3.062 -0.5745 -0.7260 -0.2515
  821MOL0     C10738   1.742  -1.091   3.182  0.0108  0.4370 -0.2289
  821MOL0     C10739   1.758  -1.157   3.326  0.6362 -1.6651  0.0880
  821MOL0     C10740   1.894  -1.232   3.344  0.1962 -0.1624  0.5185
  821MOL0     C10741   1.898  -1.278   3.489 -1.2057  0.2525 -0.7782
  821MOL0     C10742   2.028  -1.342   3.537  1.4009 -0.0845  0.1349
  821MOL0     C10743   1.997  -1.423   3.664 -0.3769 -0.1044  0.2927
  821MOL0     C10744   2.121  -1.487   3.727  1.3490  0.9171  0.3975
  821MOL0    Cl10745   2.090  -1.488   3.905  0.1656  0.5261 -0.3182
  821MOL0     C10746   1.876  -1.263   2.793  0.4720  0.9161  0.9611
  821MOL0     C10747   1.943  -1.289   2.674 -0.7750  0.5644 -0.2811
  821MOL0     O10748   2.112  -1.417   2.459 -0.2150 -0.0778  0.1215
  821MOL0     C10749   2.246  -1.149   2.274 -0.1055  0.7866  0.1766
  821MOL0     C10750   2.350  -1.122   2.179  0.1695 -0.9421  0.3203
  821MOL0     N10751   2.622  -0.652   1.573 -0.2797  0.4112 -0.4406
  821MOL0     N10752   2.712  -0.565   1.540 -0.7950  0.7346  0.3241
  821MOL0     C10753   3.256   0.426   2.037 -0.5022 -0.5143 -0.2542
  821MOL0     C10754   3.379   0.479   1.981  0.2692 -0.0564 -0.4528
  821MOL0     C10755   3.728   0.614   1.766  0.5160 -0.6763 -0.2555
  821MOL0     C10756   3.832   0.522   1.762 -0.1699  0.1139 -0.0495
  821MOL0     C10757   3.963   0.556   1.737 -0.2133 -0.0266 -0.9344
  821MOL0     C10758   3.996   0.694   1.729 -0.1114 -0.4120 -0.0178
  821MOL0     O10759   4.125   0.729   1.706  0.7913 -0.3589  0.2872
  821MOL0     C10760   4.176   0.862   1.673  0.6461  0.5547  0.2814
  821MOL0     C10761   4.304   0.856   1.596  0.0598  0.1153 -0.4614
  821MOL0     C10762   4.401   0.786   1.697 -0.0474  0.5983  1.1811
  821MOL0     C10763   4.521   0.737   1.628  0.7621 -0.0109 -0.4271
  821MOL0     C10764   4.604   0.851   1.581  0.0769 -0.1987  0.4202
  821MOL0     C10765   4.666   0.945   1.536 -0.0195  0.1065 -0.0852
  821MOL0     C10766   3.898   0.791   1.732 -0.1731  0.2070  0.8335
  821MOL0     C10767   3.763   0.748   1.746 -0.2707 -0.0494 -0.6722
  821MOL0     H10768   3.487   0.224   1.810 -0.0235 -0.7927 -0.4764
  821MOL0     H10769   3.268   0.120   1.915  2.1718 -1.4793  2.2818
  821MOL0     H10770   2.930   0.172   2.053 -1.9629 -3.9690 -0.0040
  821MOL0     H10771   3.053   0.128   1.947 -1.3595 -0.0556  0.0821
  821MOL0     H10772   3.174  -0.002   2.125  1.6016  3.6713 -2.1987
  821MOL0     H10773   3.074   0.071   2.247 -1.9520  1.8181 -0.2396
  821MOL0     H10774   2.938  -0.119   2.222 -2.0714  0.6309 -0.2799
  821MOL0     H10775   2.879  -0.031   2.090  1.7750  2.9379  2.4224
  821MOL0     H10776   3.100  -0.241   2.054 -0.9251 -0.0051  2.8000
  821MOL0     H10777   2.931  -0.274   2.035  0.7309 -0.3354 -0.9793
  821MOL0     H10778   2.922  -0.087   1.839 -0.9527 -2.4877 -0.6224
  821MOL0     H10779   3.084  -0.064   1.875 -0.2131  0.2890  2.8760
  821MOL0     H10780   3.061  -0.227   1.688  1.6342 -3.6492 -0.1027
  821MOL0     H10781   3.104  -0.322   1.834  2.1342  1.1692 -2.7826
  821MOL0     H10782   2.845  -0.383   1.852 -1.8672 -2.8170 -1.3806
  821MOL0     H10783   2.817  -0.280   1.715 -0.1030 -0.2002  0.4915
  821MOL0     H10784   2.985  -0.543   1.719  0.9287  1.2056 -0.2296
  821MOL0     H10785   2.965  -0.436   1.581  0.4414 -1.2464  0.5479
  821MOL0     H10786   2.743  -0.576   1.871  2.3711  2.4077 -0.1453
  821MOL0     H10787   2.476  -0.670   1.868  1.3243 -2.1140  2.9312
  821MOL0     H10788   2.453  -0.779   1.720 -0.4864 -1.2143  1.2376
  821MOL0     H10789   2.613  -0.782   1.985 -2.3563 -0.2292  0.4847
  821MOL0     H10790   2.702  -0.853   1.856  0.8876  0.6920  2.7380
  821MOL0     H10791   2.545  -1.036   1.822  0.5909  3.2894 -2.1993
  821MOL0     H10792   2.419  -0.975   1.927  0.0240 -2.9577  2.0543
  821MOL0     H10793   2.562  -0.999   2.125  0.0824  0.1167 -0.1312
  821MOL0     H10794   2.689  -1.070   2.028 -0.1893 -0.5512  0.0903
  821MOL0     H10795   2.453  -1.414   2.093  0.9833 -1.7532  0.7577
  821MOL0     H10796   2.183  -1.544   2.241  1.0083 -0.7730 -0.7552
  821MOL0     H10797   2.346  -1.577   2.210  1.1745  0.3824  0.4484
  821MOL0     H10798   2.285  -1.539   2.382 -2.1424  4.4939  2.6108
  821MOL0     H10799   1.935  -0.970   2.553 -0.8095 -1.5602 -0.7774
  821MOL0     H10800   1.791  -0.930   2.758  2.0157  1.6045 -0.7366
  821MOL0     H10801   1.800  -1.264   3.064  0.3733 -0.9376 -1.9593
  821MOL0     H10802   1.923  -1.130   3.059  0.3785 -4.0736  0.5203
  821MOL0     H10803   1.783  -0.991   3.195  0.9564 -0.0170  0.4847
  821MOL0     H10804   1.638  -1.087   3.149 -0.2777 -1.5984  0.2854
  821MOL0     H10805   1.681  -1.235   3.325  1.2889 -2.3217  0.0413
  821MOL0     H10806   1.734  -1.078   3.398 -2.9183  0.3429 -2.9199
  821MOL0     H10807   1.898  -1.321   3.280 -3.3388  1.0246 -1.6971
  821MOL0     H10808   1.977  -1.162   3.327 -1.4094  1.0268 -3.9299
  821MOL0     H10809   1.816  -1.349   3.506  1.2672 -2.2053  1.9381
  821MOL0     H10810   1.889  -1.197   3.563 -1.2278  1.4428 -2.0404
  821MOL0     H10811   2.051  -1.415   3.459 -1.6526 -1.5800  0.4633
  821MOL0     H10812   2.112  -1.274   3.554  0.4652  0.7362  1.6923
  821MOL0     H10813   1.919  -1.496   3.638 -3.0846  2.3130  0.9925
  821MOL0     H10814   1.964  -1.357   3.745 -0.1053 -1.6395  1.6943
  821MOL0     H10815   2.214  -1.432   3.716  2.0594 -0.5915 -1.8880
  821MOL0     H10816   2.127  -1.589   3.688  1.1451 -0.6148  3.9221
  821MOL0     H10817   1.877  -1.349   2.859 -1.4529  0.5706  0.6034
  821MOL0     H10818   1.962  -1.396   2.668  1.1900  0.8327  0.4079
  821MOL0     H10819   2.191  -1.062   2.308 -0.8884  0.7728 -1.0087
  821MOL0     H10820   2.357  -1.015   2.164  2.8942 -1.0012  0.5996
  821MOL0     H10821   3.198   0.486   2.106 -0.2678  0.1863 -0.6546
  821MOL0     H10822   3.404   0.581   2.009  3.0231  0.0271 -2.6870
  821MOL0     H10823   3.819   0.415   1.774  0.1817 -0.0713 -1.2330
  821MOL0     H10824   4.046   0.487   1.732 -0.3411 -0.6236  2.4553
  821MOL0     H10825   4.100   0.908   1.608 -0.2170  0.2165  1.0285
  821MOL0     H10826   4.191   0.924   1.762  0.7772  0.5035  0.2953
  821MOL0     H10827   4.346   0.955   1.576  1.8256 -0.6016 -0.4989
  821MOL0     H10828   4.280   0.805   1.503 -4.8122  3.0041 -1.1625
  821MOL0     H10829   4.349   0.700   1.741  1.7702  0.2999  2.8843
  821MOL0     H10830   4.439   0.854   1.774 -0.5837  2.2929  0.0205
  821MOL0     H10831   4.493   0.676   1.542  1.6371  0.2895 -0.9387
  821MOL0     H10832   4.584   0.678   1.695  0.4847  2.3476  2.1393
  821MOL0     H10833   4.717   1.024   1.485 -2.6900  0.3181 -2.7704
  821MOL0     H10834   3.915   0.894   1.704  0.0111 -0.3380 -1.2192
  821MOL0     H10835   3.686   0.824   1.731  0.4416  0.4199 -2.1594
  822MOL0     O10836   8.318   5.568  10.931  0.1698  0.0312 -0.6092
  822MOL0     C10837   8.232   5.642  10.878 -0.2285  0.7521  0.0816
  822MOL0     O10838   8.205   5.644  10.745 -0.2602 -0.0747  0.2898
  822MOL0     C10839   8.290   5.563  10.669  0.7910 -0.0287  0.6904
  822MOL0     C10840   8.390   5.631  10.595 -0.9660 -1.1681 -0.1056
  822MOL0     C10841   8.452   5.564  10.490  0.1261 -0.5661  0.3258
  822MOL0     C10842   8.431   5.430  10.465  0.1796  0.8382  0.6310
  822MOL0     O10843   8.492   5.370  10.360  0.1542 -0.3635 -0.1276
  822MOL0     C10844   8.559   5.252  10.399 -0.5371 -0.0102 -0.0634
  822MOL0     C10845   8.705   5.280  10.418  0.2793  0.5580 -0.4953
  822MOL0     C10846   8.774   5.305  10.288  0.3279  0.1424  0.5796
  822MOL0     C10847   8.812   5.178  10.205 -0.1817 -1.8438 -0.4464
  822MOL0     C10848   8.901   5.221  10.085  0.2527 -0.0471  0.1041
  822MOL0     C10849   8.892   5.106   9.974  0.4688 -0.3066 -1.4533
  822MOL0     C10850   8.988   5.130   9.856  0.3252 -0.0248  0.3641
  822MOL0     C10851   8.930   5.244   9.768 -0.3425 -0.6071 -0.6804
  822MOL0     N10852   8.992   5.250   9.634 -0.0495 -0.5137  0.2539
  822MOL0     C10853   8.990   5.142   9.546 -0.2751 -0.2049 -0.7995
  822MOL0     C10854   9.060   5.183   9.434 -0.5203 -0.5333  0.4180
  822MOL0     C10855   9.043   5.121   9.300 -0.2769 -1.0638  0.2715
  822MOL0     C10856   9.152   5.142   9.201 -0.0960  0.4869  0.2514
  822MOL0     C10857   9.094   5.091   9.065 -0.5565 -0.9242  1.7492
  822MOL0     C10858   9.138   4.962   9.001  0.4872  0.0245  0.2723
  822MOL0     O10859   9.276   4.969   8.972  0.7484  0.1526  0.3030
  822MOL0     C10860   9.307   5.041   8.853  0.1444  0.4689  0.0273
  822MOL0     C10861   9.441   5.048   8.834 -0.1428  1.2565  0.1629
  822MOL0     C10862   9.503   5.107   8.723 -0.3863  0.1461  0.0129
  822MOL0     C10863   9.657   5.113   8.724  0.6380  0.3436  0.4815
  822MOL0     C10864   9.417   5.141   8.612 -0.3474  0.0737 -0.2428
  822MOL0     C10865   9.469   5.167   8.474 -0.7455  1.0386  0.7313
  822MOL0     O10866   9.379   5.237   8.395 -0.2794  0.9848 -0.2336
  822MOL0     C10867   9.420   5.257   8.262  0.6533 -0.9563 -0.4994
  822MOL0     C10868   9.479   5.164   8.169 -0.0107 -0.2893  0.3608
  822MOL0     C10869   9.496   5.199   8.037  0.0512 -0.3094 -0.2860
  822MOL0     C10870   9.476   5.333   7.996 -0.9391 -0.4877 -0.9484
  822MOL0     O10871   9.519   5.354   7.868 -0.2135  0.5258  0.0927
  822MOL0     C10872   9.543   5.480   7.811  0.5250  0.1209 -0.7091
  822MOL0     C10873   9.632   5.579   7.884  0.4467 -0.7063 -0.5106
  822MOL0     C10874   9.785   5.537   7.875 -0.1619 -0.0931 -0.3875
  822MOL0     C10875   9.857   5.652   7.929  0.6801  0.0163 -0.0572
  822MOL0     C10876  10.002   5.623   7.941 -0.1507 -0.3460  0.1284
  822MOL0     C10877  10.088   5.748   7.956 -0.6602  0.6586  0.5211
  822MOL0     C10878  10.241   5.729   7.936  0.8990  0.5630  0.1094
  822MOL0     C10879  10.326   5.846   7.988  0.2161 -0.3664 -0.2358
  822MOL0    Cl10880  10.474   5.773   8.065 -0.1957  0.0830  0.0826
  822MOL0     C10881   9.424   5.428   8.085  0.0542 -0.5052  0.8715
  822MOL0     C10882   9.381   5.392   8.212 -0.4034 -0.5613 -0.4181
  822MOL0     O10883   9.576   5.115   8.432  0.2941 -0.6391 -0.1024
  822MOL0     C10884   9.280   5.141   8.632 -0.5416  0.5783  0.2995
  822MOL0     C10885   9.228   5.096   8.746  1.0054  0.3335  0.0312
  822MOL0     N10886   9.103   5.313   9.457 -1.0330  0.0181  0.1093
  822MOL0     N10887   9.069   5.343   9.579 -0.4679 -0.2011 -0.3758
  822MOL0     C10888   8.331   5.357  10.542 -1.4933 -0.6658  0.3677
  822MOL0     C10889   8.259   5.428  10.645  1.8817  0.0001 -0.4171
  822MOL0     C10890   8.155   5.717  10.974 -0.0790  0.4548 -0.7838
  822MOL0     C10891   8.052   5.803  10.948  0.7244 -0.8655  0.1351
  822MOL0     C10892   7.965   5.862  11.040 -0.9854  0.5739  0.8233
  822MOL0     C10893   7.999   5.862  11.174  0.0547 -0.6455  0.0577
  822MOL0     O10894   7.936   5.937  11.270 -0.1616  0.0692  0.3327
  822MOL0     C10895   7.836   6.031  11.227  0.4406 -0.2803 -0.4029
  822MOL0     C10896   7.796   6.126  11.343  0.2560  0.7535 -0.3395
  822MOL0     C10897   7.796   6.052  11.473  0.4250 -0.3565 -0.1129
  822MOL0     C10898   7.690   5.944  11.479 -0.0102  0.1244 -0.3917
  822MOL0     C10899   7.550   5.994  11.474 -0.4498  0.3908  0.7636
  822MOL0     C10900   7.434   6.030  11.456  0.0990  0.4310 -0.3053
  822MOL0     C10901   8.115   5.794  11.206 -0.0449 -0.4299 -0.4846
  822MOL0     C10902   8.189   5.718  11.111 -0.6260 -0.5552  0.6734
  822MOL0     H10903   8.409   5.738  10.595 -1.3694 -1.0960 -0.0657
  822MOL0     H10904   8.532   5.612  10.436 -2.9452  6.6625  1.0204
  822MOL0     H10905   8.525   5.210  10.494  2.4989 -0.2703  1.0292
  822MOL0     H10906   8.541   5.170  10.329 -2.0626 -0.4421  0.7677
  822MOL0     H10907   8.711   5.368  10.483 -1.2354 -1.1247  2.1186
  822MOL0     H10908   8.757   5.200  10.472  1.9293  2.2841  0.6206
  822MOL0     H10909   8.722   5.372  10.220  2.3280  2.5925  1.3045
  822MOL0     H10910   8.867   5.350  10.324 -0.9375  0.5494  3.6156
  822MOL0     H10911   8.861   5.103  10.268 -1.6541 -2.4268  0.0646
  822MOL0     H10912   8.720   5.133  10.166  0.5964 -0.9797 -3.5818
  822MOL0     H10913   8.867   5.309  10.030  1.3450 -2.0344 -4.1184
  822MOL0     H10914   9.007   5.225  10.110  0.4616 -2.4732 -0.1810
  822MOL0     H10915   8.917   5.009  10.018  1.8454 -0.4715 -2.5219
  822MOL0     H10916   8.786   5.109   9.948  0.0319 -3.5479 -0.5013
  822MOL0     H10917   9.090   5.139   9.894 -0.6401 -0.4148  3.3121
  822MOL0     H10918   8.987   5.041   9.793  1.7257 -0.0797  0.3915
  822MOL0     H10919   8.936   5.346   9.807 -1.6578  1.5002 -5.2365
  822MOL0     H10920   8.822   5.230   9.751 -0.2214 -0.2798 -1.8153
  822MOL0     H10921   8.908   5.072   9.538 -1.1776  0.8866 -1.5041
  822MOL0     H10922   9.025   5.014   9.311 -0.6179 -0.9284  1.1080
  822MOL0     H10923   8.954   5.164   9.253  0.2859 -1.3637 -1.1373
  822MOL0     H10924   9.244   5.097   9.239 -1.6317 -4.5413 -1.2493
  822MOL0     H10925   9.161   5.251   9.193 -1.6419  0.5103 -1.7834
  822MOL0     H10926   9.127   5.161   8.987  1.7845 -3.0354  0.6752
  822MOL0     H10927   8.985   5.098   9.069 -0.7304 -1.4275 -0.5815
  822MOL0     H10928   9.086   4.940   8.907  1.8096  1.3439 -0.8101
  822MOL0     H10929   9.120   4.880   9.072 -0.1440  0.3170  0.4505
  822MOL0     H10930   9.504   5.008   8.912 -2.6838 -0.4966  1.4763
  822MOL0     H10931   9.676   5.006   8.710 -1.8460  0.0877 -1.8575
  822MOL0     H10932   9.714   5.183   8.662 -0.5467  2.8996  2.0862
  822MOL0     H10933   9.687   5.146   8.824 -4.8272 -1.5712  3.1357
  822MOL0     H10934   9.490   5.068   8.219 -3.0624 -1.0345 -0.2021
  822MOL0     H10935   9.551   5.132   7.971  1.3253  2.6831 -2.4713
  822MOL0     H10936   9.586   5.473   7.710 -0.3575 -0.0263 -1.0839
  822MOL0     H10937   9.438   5.511   7.806 -0.2931 -2.5666 -1.8478
  822MOL0     H10938   9.627   5.681   7.847  0.7241 -1.2741 -2.1789
  822MOL0     H10939   9.594   5.589   7.986 -4.0868 -0.4164 -2.0103
  822MOL0     H10940   9.819   5.519   7.772  1.0202 -0.5563  0.0690
  822MOL0     H10941   9.804   5.445   7.932  0.4792  1.0957  1.4016
  822MOL0     H10942   9.840   5.746   7.876  0.7052  1.3946  2.2592
  822MOL0     H10943   9.822   5.663   8.032  2.0164  0.8228  0.3288
  822MOL0     H10944  10.031   5.569   7.850  1.4258 -0.6372  0.7679
  822MOL0     H10945  10.029   5.554   8.021  3.5753  1.0096  0.2448
  822MOL0     H10946  10.050   5.832   7.897  0.9969  0.8007 -0.4077
  822MOL0     H10947  10.071   5.780   8.060 -5.6826 -0.4959  0.3080
  822MOL0     H10948  10.265   5.715   7.830 -4.0557  2.0889 -1.5011
  822MOL0     H10949  10.261   5.636   7.990 -1.9583 -0.2865 -0.1092
  822MOL0     H10950  10.270   5.909   8.058 -2.5452 -1.1816 -1.5860
  822MOL0     H10951  10.352   5.914   7.907 -1.1779 -0.3736 -0.7021
  822MOL0     H10952   9.407   5.531   8.057 -1.4797 -1.7688 -3.8612
  822MOL0     H10953   9.340   5.481   8.260  2.1626  1.1388 -1.2096
  822MOL0     H10954   9.215   5.168   8.549 -0.4494 -0.2283 -0.0435
  822MOL0     H10955   9.122   5.075   8.756  1.2123  0.2295  2.3514
  822MOL0     H10956   8.314   5.250  10.535 -2.0230 -0.5042 -1.0893
  822MOL0     H10957   8.179   5.388  10.707  0.7011  1.8491 -0.6639
  822MOL0     H10958   8.019   5.815  10.845 -1.1888 -0.0437  0.7861
  822MOL0     H10959   7.883   5.923  11.005  1.2939  2.9202 -0.7674
  822MOL0     H10960   7.857   6.087  11.135  0.4538 -0.8228 -0.7332
  822MOL0     H10961   7.748   5.975  11.192  0.7814 -1.1423  0.1083
  822MOL0     H10962   7.707   6.187  11.328 -0.4689  0.3414  1.8297
  822MOL0     H10963   7.874   6.203  11.339  0.2311  0.8025  0.0979
  822MOL0     H10964   7.760   6.131  11.539 -1.7508 -0.6014 -0.8992
  822MOL0     H10965   7.896   6.023  11.505 -0.2314  0.2764  2.7887
  822MOL0     H10966   7.705   5.885  11.570  3.8969 -0.1678 -1.0347
  822MOL0     H10967   7.715   5.870  11.402  2.6766  1.1084 -0.5552
  822MOL0     H10968   7.331   6.055  11.440 -0.3440  0.7380  2.5120
  822MOL0     H10969   8.132   5.797  11.314  0.6210 -1.6148 -0.5398
  822MOL0     H10970   8.284   5.674  11.138 -0.1791  1.2067  2.2014
  823MOL0     O10971   9.090   9.951   5.492  0.1201 -0.0623  0.1875
  823MOL0     C10972   9.103   9.825   5.496  0.0011 -0.3055  0.2774
  823MOL0     O10973   9.064   9.740   5.587 -0.3804 -0.0043  0.0415
  823MOL0     C10974   9.018   9.781   5.708 -0.8476  0.0597  0.0966
  823MOL0     C10975   8.934   9.898   5.727 -0.3351 -0.1189 -0.7800
  823MOL0     C10976   8.913   9.944   5.861  0.0464 -1.2430 -0.8892
  823MOL0     C10977   8.949   9.868   5.972 -0.1922  0.2885  0.2229
  823MOL0     O10978   8.914   9.906   6.098 -0.4978  0.5598 -0.5547
  823MOL0     C10979   9.005  10.003   6.161  0.6945 -0.6706 -0.1391
  823MOL0     C10980   8.938  10.092   6.272 -1.3668  0.6602 -0.0934
  823MOL0     C10981   8.847  10.196   6.209 -0.0030 -0.3218 -0.3653
  823MOL0     C10982   8.902  10.320   6.131 -0.6909  0.0188  0.1980
  823MOL0     C10983   8.965  10.431   6.220  0.5750  0.6156  0.7016
  823MOL0     C10984   9.080  10.509   6.141  0.0850 -0.4302 -0.0155
  823MOL0     C10985   9.153  10.618   6.222 -0.8700  0.1790  0.0833
  823MOL0     C10986   9.281  10.676   6.144  0.5160 -1.2913  0.9845
  823MOL0     N10987   9.348  10.779   6.234  0.1239  0.4655  0.2482
  823MOL0     C10988   9.419  10.743   6.349 -0.3024 -0.3557  0.1054
  823MOL0     C10989   9.428  10.872   6.404 -0.3435  0.0067  0.7415
  823MOL0     C10990   9.500  10.922   6.536  0.1025  0.7973  0.1310
  823MOL0     C10991   9.584  10.811   6.580  0.0908 -0.1240 -0.1037
  823MOL0     C10992   9.631  10.831   6.724  0.5980 -0.6293  0.2203
  823MOL0     C10993   9.743  10.733   6.765 -0.2317 -0.6058 -0.4665
  823MOL0     O10994   9.867  10.759   6.696  1.0200  0.5653 -0.6200
  823MOL0     C10995   9.940  10.640   6.695  0.9789 -1.0198 -0.1311
  823MOL0     C10996   9.976  10.571   6.804 -0.5042 -0.2886 -0.5791
  823MOL0     C10997  10.046  10.454   6.794  1.0868 -0.4122  0.3697
  823MOL0     C10998  10.071  10.378   6.918 -0.7194  0.8423 -0.1249
  823MOL0     C10999  10.092  10.407   6.666 -0.7476 -0.1905  0.7183
  823MOL0     C11000  10.154  10.270   6.633  0.4944  0.3982  0.0577
  823MOL0     O11001  10.249  10.223   6.729 -0.2277  0.1001  0.9680
  823MOL0     C11002  10.297  10.097   6.707 -1.1589 -0.2121 -0.1722
  823MOL0     C11003  10.267   9.993   6.801  0.9749 -0.0567  0.1407
  823MOL0     C11004  10.328   9.876   6.798  0.1466 -0.0300  0.5536
  823MOL0     C11005  10.424   9.847   6.700  0.1725  0.0958 -0.6111
  823MOL0     O11006  10.510   9.737   6.721 -0.2873  0.1678 -0.1215
  823MOL0     C11007  10.553   9.668   6.601  0.2074 -0.0731 -0.7653
  823MOL0     C11008  10.696   9.594   6.621  1.0799 -0.3818  0.0500
  823MOL0     C11009  10.759   9.532   6.495  0.2680  1.0872 -0.5058
  823MOL0     C11010  10.888   9.481   6.547  0.3883  0.6382  0.3332
  823MOL0     C11011  10.966   9.391   6.443  0.5193 -0.2787 -0.3752
  823MOL0     C11012  10.946   9.442   6.286 -0.1254  0.2752  0.1840
  823MOL0     C11013  11.006   9.575   6.245 -0.0844  0.7692  0.1038
  823MOL0     C11014  10.958   9.614   6.112  0.4422 -0.7474 -0.1781
  823MOL0    Cl11015  11.030   9.774   6.086  0.1526  0.2308 -0.2037
  823MOL0     C11016  10.443   9.943   6.591 -0.3296  0.5196  0.5375
  823MOL0     C11017  10.372  10.063   6.597 -0.3267 -0.3869 -0.0046
  823MOL0     O11018  10.132  10.219   6.531  0.5777  0.1227 -0.4775
  823MOL0     C11019  10.056  10.488   6.558 -0.0154  0.0872 -0.6316
  823MOL0     C11020   9.977  10.590   6.570  0.6325 -1.4867 -0.2279
  823MOL0     N11021   9.365  10.969   6.328 -0.0125 -1.3892  0.1356
  823MOL0     N11022   9.306  10.909   6.231  0.6127 -0.2129  0.1033
  823MOL0     C11023   9.011   9.738   5.945 -0.2042  0.4517 -0.3953
  823MOL0     C11024   9.037   9.693   5.816 -0.2968 -0.8534 -1.0496
  823MOL0     C11025   9.206   9.770   5.404 -0.1704  0.0932 -0.2998
  823MOL0     C11026   9.260   9.851   5.300  0.1588 -0.5044  0.6694
  823MOL0     C11027   9.363   9.802   5.221  0.4313 -0.6566 -0.2270
  823MOL0     C11028   9.412   9.677   5.243  0.2640 -0.5972  1.3459
  823MOL0     O11029   9.513   9.639   5.158  0.1430 -0.2905 -0.5384
  823MOL0     C11030   9.465   9.547   5.066 -0.7230  0.0877  0.0696
  823MOL0     C11031   9.589   9.505   4.967 -0.4441 -0.8912  0.6763
  823MOL0     C11032   9.633   9.623   4.876 -0.3621  0.0508  0.0464
  823MOL0     C11033   9.703   9.570   4.745  0.1009 -0.0809  0.1998
  823MOL0     C11034   9.607   9.480   4.669  0.4218 -0.2441  0.0984
  823MOL0     C11035   9.518   9.423   4.621 -0.0795  1.2145  0.0748
  823MOL0     C11036   9.365   9.596   5.345  0.9084 -0.6158 -1.2320
  823MOL0     C11037   9.263   9.646   5.433  0.8087 -0.3026 -0.3694
  823MOL0     H11038   8.910   9.958   5.640 -0.1068 -0.7178 -1.2610
  823MOL0     H11039   8.864  10.041   5.862  0.8164 -0.8401 -1.2780
  823MOL0     H11040   9.093   9.950   6.199  0.7868 -2.6205 -2.7846
  823MOL0     H11041   9.048  10.068   6.083  0.0601 -0.7468 -0.5598
  823MOL0     H11042   8.893  10.029   6.349  1.2722 -0.1397  0.9033
  823MOL0     H11043   9.012  10.139   6.338  1.1838 -3.9857  0.7395
  823MOL0     H11044   8.778  10.155   6.135  0.9694  0.9727 -2.0344
  823MOL0     H11045   8.786  10.239   6.289 -1.7595 -1.4681 -1.0308
  823MOL0     H11046   8.973  10.277   6.059 -0.0177  0.5422  0.5332
  823MOL0     H11047   8.818  10.359   6.073 -0.8869 -1.9141 -0.9129
  823MOL0     H11048   8.885  10.492   6.263 -1.7212 -0.8845 -1.2410
  823MOL0     H11049   9.014  10.379   6.302  0.5809  2.9913  2.3271
  823MOL0     H11050   9.142  10.425   6.106  0.6812 -1.5429  3.3149
  823MOL0     H11051   9.038  10.555   6.051  3.5008  0.5844 -1.2894
  823MOL0     H11052   9.080  10.695   6.248 -1.8074 -0.3782 -0.7996
  823MOL0     H11053   9.193  10.579   6.316 -0.3475  1.9571  0.6329
  823MOL0     H11054   9.258  10.719   6.046 -1.3790 -2.1544  1.0204
  823MOL0     H11055   9.362  10.603   6.131  1.9625  0.5756 -1.5136
  823MOL0     H11056   9.455  10.651   6.394 -0.7271  0.7287  2.8894
  823MOL0     H11057   9.552  11.016   6.517 -2.2686  2.0321 -0.6743
  823MOL0     H11058   9.417  10.941   6.604 -2.5050 -1.7677 -2.0622
  823MOL0     H11059   9.673  10.814   6.517 -1.8237  2.1510 -2.9910
  823MOL0     H11060   9.533  10.715   6.575 -0.9546  0.2020  2.5728
  823MOL0     H11061   9.545  10.820   6.792  0.3084  4.1459  0.9835
  823MOL0     H11062   9.669  10.933   6.734  0.8721 -0.7223  0.1196
  823MOL0     H11063   9.706  10.631   6.754  0.3731 -0.9064  0.1881
  823MOL0     H11064   9.752  10.746   6.873 -0.8351  1.3716 -0.6181
  823MOL0     H11065   9.945  10.609   6.901  3.1700  3.1021 -0.4744
  823MOL0     H11066  10.174  10.402   6.947  0.1110 -1.4232 -0.9637
  823MOL0     H11067  10.000  10.411   6.994 -0.5983  1.1104 -0.1271
  823MOL0     H11068  10.054  10.270   6.909  1.0727  0.6470 -1.8624
  823MOL0     H11069  10.186  10.023   6.867  1.9497  1.0806  0.8751
  823MOL0     H11070  10.302   9.806   6.876  0.2421 -1.6603 -0.8175
  823MOL0     H11071  10.481   9.591   6.571 -0.6802  0.0300  1.0034
  823MOL0     H11072  10.571   9.726   6.510  1.5642 -1.9791 -1.7948
  823MOL0     H11073  10.767   9.667   6.660  0.2391 -0.6471  2.2072
  823MOL0     H11074  10.681   9.508   6.687 -0.7136 -2.2907 -2.6374
  823MOL0     H11075  10.779   9.602   6.413  1.2711 -0.3889 -1.5630
  823MOL0     H11076  10.701   9.444   6.467 -2.1581  1.7766  1.9587
  823MOL0     H11077  10.950   9.564   6.583  0.2885  0.0815  1.8872
  823MOL0     H11078  10.865   9.417   6.633  0.9758  2.0742  1.6143
  823MOL0     H11079  10.919   9.292   6.450 -2.7601  1.2220  0.9883
  823MOL0     H11080  11.072   9.389   6.471  0.4152 -1.6968  0.0081
  823MOL0     H11081  10.971   9.359   6.219  0.8284 -0.2415  1.1420
  823MOL0     H11082  10.839   9.454   6.266  0.0440 -0.0263 -1.0026
  823MOL0     H11083  11.115   9.570   6.244 -0.1450 -1.3949 -0.0509
  823MOL0     H11084  10.964   9.645   6.319 -0.6113 -1.7952  2.4301
  823MOL0     H11085  10.851   9.633   6.107  1.0907  3.4583 -1.4793
  823MOL0     H11086  10.984   9.546   6.030  1.4898 -0.4255 -0.1292
  823MOL0     H11087  10.502   9.914   6.505 -0.8642 -2.5133  1.0624
  823MOL0     H11088  10.388  10.139   6.521  0.3232  1.2097  1.6420
  823MOL0     H11089  10.080  10.472   6.453  0.0515  1.3058 -0.8141
  823MOL0     H11090   9.950  10.655   6.487  1.8320  2.5703  2.2431
  823MOL0     H11091   9.028   9.672   6.029 -0.9604  0.3802 -0.2888
  823MOL0     H11092   9.087   9.598   5.806  2.7808  0.2026  2.3654
  823MOL0     H11093   9.226   9.949   5.269 -1.0270 -0.9106  0.6058
  823MOL0     H11094   9.406   9.860   5.140  1.6798  0.9573  1.5044
  823MOL0     H11095   9.440   9.459   5.126  0.3847  1.8833  3.3942
  823MOL0     H11096   9.384   9.602   5.017 -1.2000  1.2994  2.1107
  823MOL0     H11097   9.553   9.427   4.900  2.1291 -0.0655 -1.9046
  823MOL0     H11098   9.661   9.443   5.020 -1.9785 -2.3750  1.0764
  823MOL0     H11099   9.684   9.691   4.945 -1.0018 -1.7611  2.4599
  823MOL0     H11100   9.543   9.676   4.844  2.3698  4.8864 -0.7646
  823MOL0     H11101   9.797   9.523   4.777  0.8568  1.8592  0.9891
  823MOL0     H11102   9.738   9.658   4.690  1.8316  0.6202  2.2507
  823MOL0     H11103   9.436   9.382   4.565 -1.4791  2.3969  1.1620
  823MOL0     H11104   9.407   9.499   5.368  0.2360 -0.8079 -0.7948
  823MOL0     H11105   9.238   9.593   5.524  4.2030  0.0032  0.8785
  824MOL0     O11106   6.249   4.985   2.252 -0.2398 -0.1906 -0.1422
  824MOL0     C11107   6.169   5.021   2.170 -0.2028 -0.2236  0.3438
  824MOL0     O11108   6.050   4.969   2.158  0.3105  0.2567  0.7031
  824MOL0     C11109   6.005   4.865   2.238 -0.3956  0.4938 -0.0832
  824MOL0     C11110   5.884   4.892   2.300  0.3006 -0.6004 -0.0787
  824MOL0     C11111   5.828   4.795   2.384  0.5323  0.4673  0.7331
  824MOL0     C11112   5.878   4.671   2.405  0.1055  0.1254  0.7204
  824MOL0     O11113   5.819   4.580   2.487 -0.2658  0.8268  0.0601
  824MOL0     C11114   5.736   4.627   2.592  0.3670  0.5031 -0.9205
  824MOL0     C11115   5.643   4.508   2.629 -0.1615 -0.3397  0.4351
  824MOL0     C11116   5.547   4.545   2.742 -0.1227 -1.0276  0.6985
  824MOL0     C11117   5.444   4.433   2.776  0.0501  0.6240 -0.0679
  824MOL0     C11118   5.334   4.419   2.661 -0.7831 -0.7459 -0.7749
  824MOL0     C11119   5.242   4.308   2.694  1.0796  0.9020  0.2426
  824MOL0     C11120   5.149   4.282   2.578 -0.0505  0.1475 -0.2926
  824MOL0     C11121   5.039   4.171   2.594  0.4026  0.4320 -0.7669
  824MOL0     N11122   4.935   4.176   2.486 -0.2247 -0.0668  0.7260
  824MOL0     C11123   4.804   4.144   2.513 -0.5407  0.1850  1.1841
  824MOL0     C11124   4.771   4.070   2.395 -0.0642 -0.4429  0.2137
  824MOL0     C11125   4.655   3.981   2.375  0.1097  0.2055  0.8549
  824MOL0     C11126   4.579   3.944   2.508  0.0487 -0.0464  0.0798
  824MOL0     C11127   4.464   3.847   2.468  0.7094  0.5296 -0.1447
  824MOL0     C11128   4.376   3.814   2.591 -0.7472 -0.2226  0.9648
  824MOL0     O11129   4.322   3.939   2.636 -0.7764  0.9868  0.1838
  824MOL0     C11130   4.240   3.907   2.742  0.7554 -0.8592  0.1642
  824MOL0     C11131   4.162   4.015   2.785  1.0471 -0.7128 -0.6906
  824MOL0     C11132   4.066   4.016   2.887  0.2476  0.5233 -0.4527
  824MOL0     C11133   4.002   4.135   2.923  0.0946 -0.9367  0.0175
  824MOL0     C11134   4.043   3.887   2.953  0.4204  0.6299  0.9864
  824MOL0     C11135   3.952   3.866   3.067  0.8195 -0.0291 -0.1980
  824MOL0     O11136   3.939   3.955   3.173  0.2421  0.1604  0.2228
  824MOL0     C11137   3.848   3.932   3.273  0.1801  0.9857  0.0014
  824MOL0     C11138   3.886   3.929   3.404 -0.3446 -0.6114  0.1859
  824MOL0     C11139   3.792   3.918   3.510 -0.2166  0.4959  0.5484
  824MOL0     C11140   3.659   3.906   3.491  1.0181  0.6636 -0.2891
  824MOL0     O11141   3.560   3.897   3.586 -0.1161  0.5703 -0.4185
  824MOL0     C11142   3.547   4.013   3.672 -1.0459 -0.3128  0.7414
  824MOL0     C11143   3.424   3.995   3.753 -0.0698  0.8098 -1.2685
  824MOL0     C11144   3.389   3.852   3.792  1.0908  0.6080 -0.2482
  824MOL0     C11145   3.490   3.777   3.870 -0.6220 -0.8002 -0.5489
  824MOL0     C11146   3.458   3.644   3.944 -0.9702  0.1731 -0.9638
  824MOL0     C11147   3.347   3.643   4.043 -0.0995  0.1296 -1.4036
  824MOL0     C11148   3.288   3.506   4.076 -0.2159  0.4023  0.4051
  824MOL0     C11149   3.237   3.425   3.955 -0.4820  0.3169  0.3781
  824MOL0    Cl11150   3.156   3.283   4.016 -0.2261  0.1322 -0.3937
  824MOL0     C11151   3.618   3.896   3.356 -0.5560  0.1933 -0.0000
  824MOL0     C11152   3.716   3.911   3.248  0.7366 -0.6769 -0.1230
  824MOL0     O11153   3.881   3.767   3.050 -0.0178 -0.0484  1.1899
  824MOL0     C11154   4.112   3.774   2.902  0.5824  0.9813  0.7622
  824MOL0     C11155   4.208   3.784   2.802 -0.8709 -0.3899 -0.5997
  824MOL0     N11156   4.872   4.100   2.296 -0.0613 -0.4903  0.6577
  824MOL0     N11157   4.966   4.163   2.355 -0.0672  0.3252 -1.0753
  824MOL0     C11158   6.003   4.645   2.348 -0.0186 -0.4683 -0.1268
  824MOL0     C11159   6.072   4.743   2.266 -0.2819  0.6681 -0.0504
  824MOL0     C11160   6.209   5.129   2.087  0.5832  0.2121  0.6583
  824MOL0     C11161   6.118   5.208   2.012 -0.3091  0.2781 -0.2572
  824MOL0     C11162   6.148   5.327   1.950  0.7777 -0.1921 -0.4960
  824MOL0     C11163   6.276   5.370   1.963  0.1634  0.1603 -0.0991
  824MOL0     O11164   6.313   5.499   1.918  0.8579  0.0740  0.1053
  824MOL0     C11165   6.214   5.599   1.890 -0.3309 -0.6064 -0.0287
  824MOL0     C11166   6.274   5.736   1.889 -0.7218  0.0960 -0.1204
  824MOL0     C11167   6.172   5.837   1.850 -0.2373  0.8200 -0.4960
  824MOL0     C11168   6.189   5.857   1.702 -0.2844 -0.0507  0.7607
  824MOL0     C11169   6.127   5.991   1.660  0.1115  0.0356  0.1492
  824MOL0     C11170   6.071   6.099   1.626 -0.0438  0.0774  0.9900
  824MOL0     C11171   6.379   5.291   2.029  0.2309 -0.2137  0.4320
  824MOL0     C11172   6.343   5.173   2.095 -0.4331 -0.6242 -0.4820
  824MOL0     H11173   5.835   4.987   2.280  0.9154  0.6698  3.7294
  824MOL0     H11174   5.737   4.838   2.425  0.3542  1.0867 -0.2721
  824MOL0     H11175   5.802   4.638   2.678  1.1105 -1.0025 -1.2658
  824MOL0     H11176   5.667   4.706   2.563 -0.1279 -0.0885 -1.3809
  824MOL0     H11177   5.585   4.464   2.547 -1.5384  0.5716  0.8705
  824MOL0     H11178   5.706   4.429   2.670  1.1500  0.5807  0.2407
  824MOL0     H11179   5.604   4.579   2.829  2.4417  1.0853 -1.6330
  824MOL0     H11180   5.488   4.634   2.717  0.1238 -0.6565  1.3915
  824MOL0     H11181   5.485   4.334   2.795  0.7791  0.4756 -2.1187
  824MOL0     H11182   5.380   4.461   2.860 -1.5517  1.6824 -1.5600
  824MOL0     H11183   5.278   4.511   2.640  1.7635  1.5608  1.7127
  824MOL0     H11184   5.381   4.405   2.563 -1.1566 -0.8473 -0.9428
  824MOL0     H11185   5.295   4.215   2.717  0.6553  0.8832  1.1560
  824MOL0     H11186   5.177   4.330   2.779 -2.6367  0.3978 -2.2507
  824MOL0     H11187   5.099   4.377   2.557  0.4409  0.5276  0.2134
  824MOL0     H11188   5.207   4.260   2.488 -2.0804  1.8401 -2.1138
  824MOL0     H11189   4.995   4.201   2.689 -1.8857  4.4216 -2.7949
  824MOL0     H11190   5.086   4.072   2.592 -1.6370 -0.6294  0.7443
  824MOL0     H11191   4.741   4.145   2.601 -3.1224  2.4418 -0.5032
  824MOL0     H11192   4.590   4.038   2.309  3.1049 -0.4824 -3.0640
  824MOL0     H11193   4.680   3.892   2.315  2.0039 -0.9769  3.2032
  824MOL0     H11194   4.533   4.034   2.551  3.4394  1.6663  0.4812
  824MOL0     H11195   4.644   3.893   2.579  1.8228  2.4088  0.3477
  824MOL0     H11196   4.506   3.751   2.437  1.2217  0.9428 -0.7641
  824MOL0     H11197   4.401   3.899   2.395  0.7408  3.7549  1.9434
  824MOL0     H11198   4.430   3.763   2.671 -1.4160 -1.5945  0.5618
  824MOL0     H11199   4.296   3.755   2.547 -0.2278 -0.1567 -0.0998
  824MOL0     H11200   4.180   4.110   2.736 -1.8357 -0.9447 -2.4148
  824MOL0     H11201   4.047   4.221   2.873 -0.4708  0.8245  2.3519
  824MOL0     H11202   3.895   4.136   2.900 -0.1400  4.8286 -0.1961
  824MOL0     H11203   4.026   4.153   3.029  0.0753  1.0628 -0.2655
  824MOL0     H11204   3.993   3.944   3.415 -0.7274  1.2403  1.8822
  824MOL0     H11205   3.839   3.911   3.608  1.5512 -1.8288 -0.3651
  824MOL0     H11206   3.635   4.020   3.736 -0.0354 -2.2662 -0.3399
  824MOL0     H11207   3.536   4.105   3.614 -0.1600  1.4692  3.2647
  824MOL0     H11208   3.420   4.059   3.841  0.2727 -1.0709  0.1781
  824MOL0     H11209   3.349   4.022   3.678  1.6368  0.6280 -3.1407
  824MOL0     H11210   3.364   3.794   3.703 -3.4588  1.0204  0.5046
  824MOL0     H11211   3.301   3.849   3.858  2.0342  1.9254  1.1391
  824MOL0     H11212   3.572   3.745   3.805 -0.5274 -1.6422 -0.0401
  824MOL0     H11213   3.535   3.843   3.945 -2.5204 -1.3489  1.1526
  824MOL0     H11214   3.548   3.618   3.999 -1.9199 -2.7325 -0.6074
  824MOL0     H11215   3.456   3.559   3.874  0.3136 -1.9868  1.4706
  824MOL0     H11216   3.384   3.694   4.132 -1.2519  2.3050 -2.0843
  824MOL0     H11217   3.264   3.707   4.011  1.0156  2.1055 -0.5518
  824MOL0     H11218   3.203   3.529   4.141 -0.6100 -1.7481  0.7115
  824MOL0     H11219   3.360   3.456   4.142  0.2659  2.8552  1.8657
  824MOL0     H11220   3.309   3.405   3.875 -3.4692  1.3289 -2.8612
  824MOL0     H11221   3.145   3.457   3.904 -1.1021 -0.5674  0.9255
  824MOL0     H11222   3.514   3.885   3.329 -0.5765 -0.0312  0.1702
  824MOL0     H11223   3.669   3.918   3.150  1.1587  2.2283 -0.2005
  824MOL0     H11224   4.082   3.679   2.946 -0.3296  1.3511  0.9544
  824MOL0     H11225   4.232   3.686   2.760 -1.3178  0.3358 -2.7033
  824MOL0     H11226   6.059   4.552   2.353  0.8949  0.0958  0.1608
  824MOL0     H11227   6.172   4.718   2.231 -0.3231 -1.6862  1.3309
  824MOL0     H11228   6.019   5.167   1.998 -0.1521 -0.8303  1.5935
  824MOL0     H11229   6.075   5.388   1.897 -0.2439 -1.1141 -0.1924
  824MOL0     H11230   6.167   5.590   1.791 -1.3972 -3.2566  0.6336
  824MOL0     H11231   6.134   5.589   1.965  1.6116 -1.3328  2.0617
  824MOL0     H11232   6.360   5.716   1.824 -0.6468 -3.2932  0.8577
  824MOL0     H11233   6.312   5.763   1.989  1.1405  0.1626 -0.8149
  824MOL0     H11234   6.194   5.929   1.904 -4.2016  1.6273  0.0325
  824MOL0     H11235   6.070   5.805   1.871 -1.0336  3.0302 -0.7796
  824MOL0     H11236   6.139   5.785   1.636  1.9048 -0.4146 -0.6243
  824MOL0     H11237   6.295   5.867   1.676 -0.5210 -0.7401 -0.5764
  824MOL0     H11238   6.026   6.189   1.591  2.2586  1.2191  0.7581
  824MOL0     H11239   6.478   5.335   2.031 -0.1707  0.9164 -1.5463
  824MOL0     H11240   6.407   5.121   2.165  0.6164 -1.0642 -1.7345
  825MOL0     O11241   4.475   0.835   4.150 -0.0790 -0.7131 -1.0050
  825MOL0     C11242   4.436   0.857   4.036 -0.1385 -0.1894  0.3920
  825MOL0     O11243   4.335   0.950   3.994  0.3117 -0.0451 -0.1349
  825MOL0     C11244   4.225   0.949   4.080 -1.2144 -0.0480 -0.6178
  825MOL0     C11245   4.154   1.070   4.101 -0.5031  1.1406 -0.3382
  825MOL0     C11246   4.045   1.079   4.187  0.3495  0.0754  0.4096
  825MOL0     C11247   3.994   0.963   4.241 -0.0895  0.8582 -0.5824
  825MOL0     O11248   3.891   0.943   4.325 -0.0881  0.2267 -0.2650
  825MOL0     C11249   3.777   1.032   4.328 -1.0213  0.1278 -0.0715
  825MOL0     C11250   3.666   0.945   4.275  0.3074  0.8671 -0.7106
  825MOL0     C11251   3.530   1.017   4.254  0.5048  0.3419  0.9064
  825MOL0     C11252   3.546   1.132   4.152 -0.1858  0.3233  0.4303
  825MOL0     C11253   3.426   1.174   4.061  0.7133  0.1934 -0.1888
  825MOL0     C11254   3.330   1.237   4.154 -0.2841 -0.6022 -0.2598
  825MOL0     C11255   3.203   1.297   4.081 -0.4025 -0.3392  0.3041
  825MOL0     C11256   3.101   1.195   4.033  1.3748  0.1501  0.8163
  825MOL0     N11257   2.989   1.265   3.968  0.6664  0.1713 -0.3226
  825MOL0     C11258   2.912   1.204   3.870 -0.8598 -0.0937  0.1418
  825MOL0     C11259   2.828   1.297   3.816  0.7038  0.5979 -0.5614
  825MOL0     C11260   2.728   1.269   3.712 -0.3901  0.0942 -0.3348
  825MOL0     C11261   2.618   1.161   3.755 -0.4712 -0.1119  0.9252
  825MOL0     C11262   2.520   1.224   3.858 -0.3838  0.2198 -0.2086
  825MOL0     C11263   2.548   1.184   4.004 -0.2791 -1.3956 -0.4708
  825MOL0     O11264   2.517   1.053   4.038 -0.3355  0.2033  0.5861
  825MOL0     C11265   2.450   1.020   4.152  0.5964  0.6200 -0.9053
  825MOL0     C11266   2.379   0.897   4.142  0.8535  0.3527 -0.5137
  825MOL0     C11267   2.305   0.849   4.250  0.4532  0.0670  0.2974
  825MOL0     C11268   2.235   0.716   4.229  0.5298 -0.3122 -0.1752
  825MOL0     C11269   2.313   0.918   4.376  1.4139  0.4012 -0.2869
  825MOL0     C11270   2.230   0.882   4.494  0.2883 -0.1488  1.0114
  825MOL0     O11271   2.203   0.743   4.507  0.3557  0.0341  0.3234
  825MOL0     C11272   2.124   0.689   4.602 -0.3732  0.2711  0.4997
  825MOL0     C11273   2.091   0.548   4.597 -0.4791 -0.6195 -0.4563
  825MOL0     C11274   2.022   0.476   4.691 -0.4913 -0.1205 -1.1137
  825MOL0     C11275   1.968   0.545   4.803  0.2013 -0.3408 -0.0659
  825MOL0     O11276   1.898   0.477   4.900 -0.7459 -0.5339 -0.5368
  825MOL0     C11277   1.819   0.361   4.862  0.4931 -1.1247  0.2155
  825MOL0     C11278   1.702   0.360   4.956 -0.2443 -0.5156  0.1427
  825MOL0     C11279   1.617   0.237   4.921  0.4786  0.2392 -0.5047
  825MOL0     C11280   1.464   0.243   4.961 -0.8568  1.7733  0.5071
  825MOL0     C11281   1.442   0.287   5.108 -0.2529 -0.2767  0.2512
  825MOL0     C11282   1.306   0.254   5.172  0.8998  0.7252 -0.3760
  825MOL0     C11283   1.289   0.285   5.321  0.7667  0.3844 -0.5191
  825MOL0     C11284   1.139   0.257   5.356 -0.8411 -0.1293  0.5496
  825MOL0    Cl11285   1.112   0.077   5.368  0.4969 -0.3754 -0.0030
  825MOL0     C11286   1.982   0.685   4.811 -1.3276  0.5296 -0.5065
  825MOL0     C11287   2.061   0.757   4.708 -0.6818  0.1713 -0.9357
  825MOL0     O11288   2.175   0.973   4.552 -0.9116 -0.3378 -0.7590
  825MOL0     C11289   2.390   1.031   4.392  0.3125 -0.1087  0.0670
  825MOL0     C11290   2.446   1.086   4.278 -0.7615 -0.2249  0.1391
  825MOL0     N11291   2.882   1.420   3.869  0.4031 -0.2668  0.8502
  825MOL0     N11292   2.965   1.402   3.963 -0.6694 -0.2052 -0.4571
  825MOL0     C11293   4.059   0.839   4.216 -0.6071 -0.1263  0.0847
  825MOL0     C11294   4.179   0.835   4.143  0.9323  1.7454  0.4385
  825MOL0     C11295   4.542   0.804   3.938 -0.4947  0.2591 -0.1588
  825MOL0     C11296   4.535   0.835   3.805  0.1332 -0.4505  0.1379
  825MOL0     C11297   4.624   0.771   3.719 -0.2203 -0.0632  0.4207
  825MOL0     C11298   4.739   0.702   3.763  0.1520 -0.7203 -0.2334
  825MOL0     O11299   4.848   0.685   3.677 -0.1197 -0.0619 -0.3336
  825MOL0     C11300   4.815   0.648   3.542  0.1353  0.7109  0.4886
  825MOL0     C11301   4.952   0.594   3.491 -0.2494  0.0052  0.8012
  825MOL0     C11302   5.060   0.698   3.505  0.0970  0.4147 -1.2247
  825MOL0     C11303   5.060   0.823   3.400 -0.2821  1.0248  0.9403
  825MOL0     C11304   4.936   0.904   3.391 -0.2981  0.7834  0.8407
  825MOL0     C11305   4.835   0.972   3.396  0.0316 -0.3934 -0.9046
  825MOL0     C11306   4.751   0.670   3.906  0.3873 -0.5284  0.4027
  825MOL0     C11307   4.654   0.721   3.993 -0.5939 -0.2827  0.1701
  825MOL0     H11308   4.200   1.159   4.060 -2.4864  2.0543 -0.6873
  825MOL0     H11309   4.007   1.179   4.203 -3.5578 -1.2913  0.6245
  825MOL0     H11310   3.743   1.079   4.421 -0.2738 -0.0590  0.3015
  825MOL0     H11311   3.806   1.110   4.258  2.8602 -0.6131  0.4937
  825MOL0     H11312   3.698   0.895   4.184 -0.7924 -1.8276  0.2962
  825MOL0     H11313   3.649   0.860   4.341  2.3141 -1.7942 -3.3590
  825MOL0     H11314   3.459   0.944   4.216 -1.5289  0.5731  3.9524
  825MOL0     H11315   3.496   1.061   4.348  0.2448  1.0805  0.4728
  825MOL0     H11316   3.592   1.226   4.184  0.7052 -0.3128  1.0913
  825MOL0     H11317   3.632   1.101   4.092  0.0289  0.3203  0.7361
  825MOL0     H11318   3.447   1.255   3.991 -1.8046 -1.4822 -3.0697
  825MOL0     H11319   3.392   1.083   4.011 -1.4153  1.2638 -0.7953
  825MOL0     H11320   3.304   1.156   4.224 -3.5735 -1.5283 -2.3444
  825MOL0     H11321   3.375   1.322   4.207 -1.3500  0.1886 -0.5937
  825MOL0     H11322   3.163   1.362   4.159 -0.0220  0.7755 -0.4072
  825MOL0     H11323   3.232   1.352   3.991 -1.0139 -3.9163 -2.3117
  825MOL0     H11324   3.059   1.131   4.110  0.1814 -1.0056 -0.7229
  825MOL0     H11325   3.152   1.129   3.963 -0.7246 -1.2787  0.5455
  825MOL0     H11326   2.913   1.099   3.844  4.2429  0.1273 -1.4976
  825MOL0     H11327   2.680   1.362   3.680  0.9758  0.1353 -2.4511
  825MOL0     H11328   2.784   1.216   3.634 -0.3821 -0.6781  0.1820
  825MOL0     H11329   2.674   1.075   3.792  0.7245  1.0231  1.8838
  825MOL0     H11330   2.564   1.118   3.670 -0.1423 -3.9984  2.5104
  825MOL0     H11331   2.421   1.183   3.838 -1.0329  2.4060 -1.8278
  825MOL0     H11332   2.494   1.330   3.861 -0.3462  0.2441 -0.6482
  825MOL0     H11333   2.502   1.248   4.080  1.3987 -2.6976  1.7833
  825MOL0     H11334   2.655   1.188   4.023 -0.8987  0.6307  3.6387
  825MOL0     H11335   2.376   0.832   4.055 -1.7987 -0.4130  0.0614
  825MOL0     H11336   2.256   0.677   4.129  1.8307  1.0594 -0.4793
  825MOL0     H11337   2.289   0.654   4.301  1.8285  0.4314 -0.4558
  825MOL0     H11338   2.128   0.718   4.251 -0.1367 -0.3651 -3.0524
  825MOL0     H11339   2.116   0.493   4.507 -1.3033  1.7205 -2.2273
  825MOL0     H11340   2.010   0.369   4.688  0.7080 -0.2483 -2.5411
  825MOL0     H11341   1.787   0.369   4.758 -1.3644  5.6092  0.8172
  825MOL0     H11342   1.878   0.269   4.867  0.9456 -0.8259  0.5292
  825MOL0     H11343   1.742   0.356   5.057  1.3632  2.4522 -0.2558
  825MOL0     H11344   1.645   0.452   4.942 -0.5640 -0.9127 -1.3400
  825MOL0     H11345   1.662   0.151   4.973 -0.2536 -1.1454 -2.0492
  825MOL0     H11346   1.621   0.221   4.813  0.1221  2.6006 -0.9114
  825MOL0     H11347   1.415   0.305   4.886 -3.1860 -2.1796 -1.5765
  825MOL0     H11348   1.417   0.145   4.946 -0.8513  1.2884  3.1189
  825MOL0     H11349   1.463   0.392   5.128  1.4771 -0.9543  2.4265
  825MOL0     H11350   1.519   0.225   5.156  0.7240 -0.1669 -1.0943
  825MOL0     H11351   1.224   0.297   5.113  0.9050 -3.2278 -3.7600
  825MOL0     H11352   1.276   0.150   5.157 -2.1082  1.6382 -1.4680
  825MOL0     H11353   1.305   0.391   5.341  0.0038  0.0157  2.5526
  825MOL0     H11354   1.352   0.220   5.382  1.1579 -0.1237 -1.4510
  825MOL0     H11355   1.081   0.305   5.276  1.2786 -0.6605 -1.4194
  825MOL0     H11356   1.114   0.311   5.447 -1.3779  2.1086 -0.8470
  825MOL0     H11357   1.935   0.731   4.898 -1.4693 -0.5661  0.0127
  825MOL0     H11358   2.075   0.863   4.729  0.0230 -0.3776  1.8281
  825MOL0     H11359   2.378   1.083   4.486 -3.1110  0.4390 -0.5264
  825MOL0     H11360   2.507   1.176   4.284 -3.9254  2.2905 -1.7960
  825MOL0     H11361   4.028   0.748   4.266  0.2710  0.5598  1.9698
  825MOL0     H11362   4.228   0.739   4.145 -3.3086 -0.6704  0.9517
  825MOL0     H11363   4.463   0.897   3.752  0.6457  1.2201  1.2978
  825MOL0     H11364   4.625   0.805   3.615 -0.4352  2.4558  1.1722
  825MOL0     H11365   4.739   0.571   3.526 -2.4755  3.1635  0.5044
  825MOL0     H11366   4.780   0.729   3.478  0.5398 -2.4062 -4.1923
  825MOL0     H11367   4.946   0.547   3.392 -3.7697  1.1101  0.3421
  825MOL0     H11368   4.971   0.514   3.563 -0.4413 -0.0537  0.7877
  825MOL0     H11369   5.152   0.640   3.500 -1.4851 -2.3346 -0.2655
  825MOL0     H11370   5.059   0.736   3.608 -3.4045 -2.7245  0.1008
  825MOL0     H11371   5.102   0.792   3.304 -1.9782 -1.7392  0.9803
  825MOL0     H11372   5.141   0.884   3.439  3.3541 -1.4963 -1.9468
  825MOL0     H11373   4.742   1.025   3.398 -2.4123 -4.3012  0.5447
  825MOL0     H11374   4.843   0.618   3.931  0.7194 -0.3782 -0.4669
  825MOL0     H11375   4.666   0.705   4.100 -1.3555 -0.1660  0.2791
  826MOL0     O11376   0.641  10.835   1.745  1.0254  0.3150 -0.4502
  826MOL0     C11377   0.573  10.939   1.725 -0.5299  1.0704 -0.3288
  826MOL0     O11378   0.491  10.958   1.610 -0.1010  0.8283 -0.2142
  826MOL0     C11379   0.495  10.862   1.511 -0.8413 -0.6876 -0.1797
  826MOL0     C11380   0.413  10.755   1.522  0.5190  0.6714  1.0620
  826MOL0     C11381   0.417  10.661   1.410  1.4611 -0.5053 -1.6906
  826MOL0     C11382   0.501  10.690   1.295  0.0208 -0.3335 -0.0777
  826MOL0     O11383   0.515  10.602   1.192 -0.3583  0.3630 -0.5373
  826MOL0     C11384   0.578  10.649   1.070  1.4835 -0.4243  1.1821
  826MOL0     C11385   0.517  10.584   0.938 -0.6367 -0.5583  0.4382
  826MOL0     C11386   0.395  10.658   0.896  0.6546 -0.3979  0.3213
  826MOL0     C11387   0.356  10.632   0.753 -0.1891  0.4416  0.5672
  826MOL0     C11388   0.241  10.716   0.708 -0.2355 -0.0964 -0.4977
  826MOL0     C11389   0.250  10.865   0.742 -0.7538 -0.8805 -0.9505
  826MOL0     C11390   0.386  10.930   0.696  0.3922 -0.4708  0.0848
  826MOL0     C11391   0.412  10.947   0.548 -0.4200  0.0507  0.0195
  826MOL0     N11392   0.547  10.991   0.527  0.1114 -0.4621 -0.1542
  826MOL0     C11393   0.594  11.112   0.481  0.4699 -0.5132  0.6853
  826MOL0     C11394   0.722  11.096   0.488  0.1471  1.2372 -0.0192
  826MOL0     C11395   0.826  11.186   0.456  0.1022  0.3815  0.1279
  826MOL0     C11396   0.967  11.124   0.459  0.7364 -0.1737  0.0163
  826MOL0     C11397   1.083  11.227   0.441  0.5973  0.5161 -0.4034
  826MOL0     C11398   1.121  11.257   0.300 -0.1363  1.3804 -0.2127
  826MOL0     O11399   1.196  11.142   0.239  0.1764  0.2131 -0.0082
  826MOL0     C11400   1.341  11.137   0.234  0.5838 -0.1630  0.0791
  826MOL0     C11401   1.421  11.222   0.316 -0.4863 -0.1007  0.1468
  826MOL0     C11402   1.566  11.216   0.305  0.0328 -0.4360 -0.2315
  826MOL0     C11403   1.650  11.323   0.371  0.5566  0.5657  0.1015
  826MOL0     C11404   1.624  11.113   0.225 -0.1155  0.5583 -0.2255
  826MOL0     C11405   1.766  11.107   0.196 -0.4874  0.0551  0.4856
  826MOL0     O11406   1.804  11.160   0.075 -0.5243  0.5650 -0.2713
  826MOL0     C11407   1.936  11.165   0.040 -0.3559 -0.1663 -0.5079
  826MOL0     C11408   2.018  11.272   0.068 -0.6956 -0.3122 -0.2555
  826MOL0     C11409   2.152  11.270   0.030  0.8806  0.5412  0.1921
  826MOL0     C11410   2.212  11.152  -0.021  0.9007  0.4866  0.3101
  826MOL0     O11411   2.340  11.125  -0.058 -0.0358 -0.5090  0.0045
  826MOL0     C11412   2.451  11.209  -0.016  0.4121  0.1051 -0.2409
  826MOL0     C11413   2.581  11.170  -0.074  0.6094  1.0887 -0.6492
  826MOL0     C11414   2.591  11.151  -0.221 -0.5457 -0.2216 -0.7361
  826MOL0     C11415   2.702  11.053  -0.257  0.5397  0.3826 -0.5187
  826MOL0     C11416   2.696  11.020  -0.409 -1.0518  0.0389  0.0690
  826MOL0     C11417   2.767  10.890  -0.451  0.1857  0.1907 -1.1532
  826MOL0     C11418   2.916  10.892  -0.451 -0.3071  0.3888  0.5472
  826MOL0     C11419   2.983  10.779  -0.519  0.3836  0.6555 -0.3925
  826MOL0    Cl11420   3.022  10.640  -0.423  0.2350  0.0125 -0.0495
  826MOL0     C11421   2.121  11.050  -0.052 -0.1275 -1.1350 -0.3999
  826MOL0     C11422   1.984  11.055  -0.016 -0.6253 -0.2267 -0.2592
  826MOL0     O11423   1.841  11.031   0.264 -0.0514 -0.0544 -0.6246
  826MOL0     C11424   1.540  11.029   0.153  0.2937  0.6065  0.4197
  826MOL0     C11425   1.400  11.041   0.156  0.2543 -0.1707  0.5298
  826MOL0     N11426   0.748  10.966   0.538  0.0187 -0.0257  0.4914
  826MOL0     N11427   0.641  10.907   0.566 -0.3658 -0.4928  0.0048
  826MOL0     C11428   0.568  10.811   1.299 -0.0806 -0.3981 -0.3782
  826MOL0     C11429   0.567  10.902   1.405 -0.2013 -0.5675  0.8459
  826MOL0     C11430   0.588  11.049   1.828 -0.3989  0.7179  0.3881
  826MOL0     C11431   0.660  11.019   1.952  0.3319  0.5353 -0.4861
  826MOL0     C11432   0.671  11.114   2.048 -0.6574 -0.3772 -0.2958
  826MOL0     C11433   0.617  11.249   2.027 -0.0922  0.4986  0.4729
  826MOL0     O11434   0.631  11.354   2.113  0.4184  0.2256  0.9704
  826MOL0     C11435   0.680  11.325   2.241  0.0414  0.1647  0.0905
  826MOL0     C11436   0.691  11.455   2.313  0.2411  0.4360 -0.9330
  826MOL0     C11437   0.702  11.445   2.471  0.6528 -0.2218  0.4978
  826MOL0     C11438   0.834  11.413   2.525  0.1340  0.3820 -0.0564
  826MOL0     C11439   0.870  11.269   2.517  0.1752 -0.8087  0.1923
  826MOL0     C11440   0.872  11.151   2.529 -0.6978  0.5906  0.3617
  826MOL0     C11441   0.549  11.274   1.905 -0.2336  0.3097  0.6559
  826MOL0     C11442   0.531  11.173   1.807  0.2289 -0.6168 -0.0426
  826MOL0     H11443   0.362  10.721   1.612 -1.0630 -0.2645 -0.1449
  826MOL0     H11444   0.354  10.573   1.419  0.0126  0.5334 -1.1375
  826MOL0     H11445   0.558  10.756   1.057  2.0187 -0.4370  0.0600
  826MOL0     H11446   0.687  10.640   1.065  1.5721  0.6867  0.8042
  826MOL0     H11447   0.588  10.590   0.855 -0.3239 -1.5050  0.6174
  826MOL0     H11448   0.511  10.479   0.969  3.3411 -0.6574  1.4299
  826MOL0     H11449   0.307  10.625   0.952 -3.5575  1.4059 -4.4683
  826MOL0     H11450   0.409  10.765   0.914  0.3709 -0.3804  0.4479
  826MOL0     H11451   0.444  10.663   0.696  0.5303  0.6542  1.7381
  826MOL0     H11452   0.336  10.526   0.734  0.4671  0.6929 -1.7340
  826MOL0     H11453   0.235  10.710   0.599 -0.0923  2.5898 -0.7314
  826MOL0     H11454   0.148  10.671   0.744  0.6464 -0.6302  1.2078
  826MOL0     H11455   0.175  10.926   0.691  1.0745  0.7315 -1.8537
  826MOL0     H11456   0.239  10.874   0.851 -0.7816 -3.2690 -0.7043
  826MOL0     H11457   0.397  11.024   0.750 -0.5307 -0.6924  0.6761
  826MOL0     H11458   0.459  10.870   0.752 -1.0397  0.1868  2.8218
  826MOL0     H11459   0.343  11.022   0.506  1.5633  0.2396 -3.3141
  826MOL0     H11460   0.383  10.863   0.484  2.7747  0.4359 -2.2073
  826MOL0     H11461   0.544  11.198   0.438  1.2774  0.2083  1.1564
  826MOL0     H11462   0.797  11.247   0.370 -2.1111 -0.8566 -0.0792
  826MOL0     H11463   0.823  11.251   0.544  2.3486 -1.2483  1.5146
  826MOL0     H11464   0.984  11.049   0.381  4.4774  0.6260 -0.1507
  826MOL0     H11465   0.961  11.064   0.550 -3.9679 -0.8034 -0.4689
  826MOL0     H11466   1.175  11.197   0.492  0.5941 -0.4038 -0.9208
  826MOL0     H11467   1.048  11.310   0.503  0.6954 -1.2539  2.1621
  826MOL0     H11468   1.185  11.346   0.295  2.0508 -0.1814 -1.4648
  826MOL0     H11469   1.027  11.275   0.248 -0.2345  0.4806 -0.3494
  826MOL0     H11470   1.378  11.297   0.381 -0.2605  0.4926 -0.3775
  826MOL0     H11471   1.595  11.418   0.382 -0.6422  0.1006 -1.3595
  826MOL0     H11472   1.675  11.275   0.465 -3.2613 -2.4578 -0.1779
  826MOL0     H11473   1.742  11.348   0.318 -0.4892  2.2927 -1.0546
  826MOL0     H11474   1.988  11.352   0.135  2.9070 -0.7410  2.1591
  826MOL0     H11475   2.212  11.354   0.062  1.4541 -0.7878  2.8524
  826MOL0     H11476   2.448  11.312  -0.052  2.9174 -0.5440 -2.6634
  826MOL0     H11477   2.453  11.197   0.093  2.0880 -2.5685 -0.4664
  826MOL0     H11478   2.646  11.255  -0.050 -1.4450  2.6588 -0.3913
  826MOL0     H11479   2.630  11.082  -0.032 -1.3964  0.0143 -0.4482
  826MOL0     H11480   2.594  11.248  -0.272 -0.6295 -0.7660 -1.8041
  826MOL0     H11481   2.499  11.112  -0.267 -0.4047  2.5689 -3.7426
  826MOL0     H11482   2.806  11.081  -0.239  0.4962 -0.1722  0.6566
  826MOL0     H11483   2.684  10.957  -0.210 -1.7249 -0.0969 -2.2172
  826MOL0     H11484   2.735  11.105  -0.465 -1.8002  0.9579  0.8912
  826MOL0     H11485   2.594  10.986  -0.433 -0.9420 -0.1343 -0.1476
  826MOL0     H11486   2.735  10.818  -0.374 -0.2463  0.8920 -0.6587
  826MOL0     H11487   2.729  10.868  -0.551 -0.5057  1.2305 -1.1394
  826MOL0     H11488   2.942  10.892  -0.345 -1.9012  2.4252  1.0159
  826MOL0     H11489   2.959  10.990  -0.476 -1.2497  0.2954 -1.6497
  826MOL0     H11490   3.073  10.814  -0.571  0.8883  0.2336  0.1860
  826MOL0     H11491   2.921  10.745  -0.603  2.0794 -2.1760 -0.6392
  826MOL0     H11492   2.155  10.962  -0.105  0.4639 -0.8863 -0.4351
  826MOL0     H11493   1.916  10.975  -0.045  0.3149 -0.4659 -1.8809
  826MOL0     H11494   1.589  10.963   0.082  2.5319  3.5104 -0.9701
  826MOL0     H11495   1.333  10.966   0.115 -0.6742  0.0277  1.6347
  826MOL0     H11496   0.638  10.826   1.216  3.6792 -5.0096  1.4803
  826MOL0     H11497   0.630  10.990   1.396 -0.7943 -0.1847  0.3547
  826MOL0     H11498   0.702  10.920   1.966 -2.3680 -1.0378 -2.4479
  826MOL0     H11499   0.716  11.094   2.145  2.1202  2.0545 -0.9478
  826MOL0     H11500   0.601  11.261   2.281 -1.3921 -1.5168 -4.7368
  826MOL0     H11501   0.775  11.272   2.239 -0.6254 -1.0583 -0.7653
  826MOL0     H11502   0.590  11.495   2.313  0.8602  2.1536  0.5033
  826MOL0     H11503   0.761  11.527   2.270  1.8006 -0.7568 -0.4969
  826MOL0     H11504   0.629  11.376   2.515 -1.2023  0.4742 -1.3313
  826MOL0     H11505   0.680  11.546   2.507  1.2225  0.0610  0.0579
  826MOL0     H11506   0.836  11.436   2.632  0.9641  1.5130 -0.2884
  826MOL0     H11507   0.918  11.464   2.476  1.1068 -2.7839 -1.9807
  826MOL0     H11508   0.877  11.044   2.529 -1.4592  0.5176  2.0419
  826MOL0     H11509   0.492  11.363   1.882 -0.1841 -0.6115 -4.0241
  826MOL0     H11510   0.471  11.191   1.719  1.0288 -1.3325 -0.7480
  827MOL0     O11511   8.606   4.742   0.227  0.5971  0.1862 -0.3190
  827MOL0     C11512   8.606   4.741   0.103 -0.3372 -0.1494 -0.1817
  827MOL0     O11513   8.683   4.662   0.031  0.4060  0.1344 -0.4882
  827MOL0     C11514   8.773   4.582   0.087  0.8640  0.8668 -0.4370
  827MOL0     C11515   8.761   4.498   0.202 -0.2840 -0.3217  0.1074
  827MOL0     C11516   8.865   4.420   0.254  0.8859 -0.3905 -0.1419
  827MOL0     C11517   8.986   4.411   0.187 -0.3629 -0.5190 -0.4159
  827MOL0     O11518   9.072   4.323   0.245  0.6681 -0.8472 -0.3535
  827MOL0     C11519   9.210   4.345   0.225  0.4505 -0.8825  0.3234
  827MOL0     C11520   9.262   4.259   0.093 -0.6949  1.3492 -0.4908
  827MOL0     C11521   9.197   4.122   0.095  0.1052  0.6913  0.1879
  827MOL0     C11522   9.223   4.044   0.227  0.3323 -0.0255 -0.1035
  827MOL0     C11523   9.249   3.898   0.209 -0.4169  0.4680  0.6264
  827MOL0     C11524   9.116   3.837   0.159 -0.0954  0.4112  0.0915
  827MOL0     C11525   9.143   3.693   0.197 -0.5704 -0.0252 -0.0273
  827MOL0     C11526   9.043   3.592   0.141 -0.4213 -0.8300 -0.2115
  827MOL0     N11527   9.091   3.456   0.159 -0.1659  0.5897  0.9808
  827MOL0     C11528   9.196   3.390   0.097 -1.0203  0.5652 -0.4695
  827MOL0     C11529   9.233   3.286   0.179 -0.1621  0.0512  0.0603
  827MOL0     C11530   9.345   3.190   0.155 -1.0325 -0.1865 -0.7054
  827MOL0     C11531   9.469   3.231   0.239  0.6523  0.6058 -0.2537
  827MOL0     C11532   9.443   3.246   0.385 -0.4341 -0.4391 -0.6572
  827MOL0     C11533   9.559   3.217   0.472  0.1445 -0.0510  1.3332
  827MOL0     O11534   9.682   3.267   0.423  0.2325  0.1836  0.1008
  827MOL0     C11535   9.783   3.265   0.509 -0.6531 -0.3086 -0.7922
  827MOL0     C11536   9.903   3.304   0.444  0.3471  0.0918  0.4663
  827MOL0     C11537  10.025   3.300   0.510 -0.9367 -0.4067  0.6332
  827MOL0     C11538  10.149   3.327   0.416  0.1309 -0.7702  0.4761
  827MOL0     C11539  10.030   3.247   0.644 -0.6246  0.2197  0.8644
  827MOL0     C11540  10.158   3.236   0.722 -0.4321 -0.7601 -0.0097
  827MOL0     O11541  10.144   3.205   0.854  0.5650  0.9524 -0.5186
  827MOL0     C11542  10.237   3.172   0.947 -0.5624 -0.0165  0.1355
  827MOL0     C11543  10.198   3.169   1.081  0.0492  0.7937  1.1510
  827MOL0     C11544  10.287   3.130   1.175  0.0687  0.1117 -0.1132
  827MOL0     C11545  10.419   3.102   1.141 -0.9715  0.8665  0.3443
  827MOL0     O11546  10.493   3.053   1.246  0.7031 -0.2929 -0.2071
  827MOL0     C11547  10.597   2.969   1.209 -1.0150  0.1185 -0.0738
  827MOL0     C11548  10.733   3.037   1.206  0.4946 -0.2452  0.1526
  827MOL0     C11549  10.832   2.934   1.133  0.1672 -0.0375 -0.2518
  827MOL0     C11550  10.838   2.990   0.991  0.6778  1.0569  0.4694
  827MOL0     C11551  10.935   2.898   0.911  0.0532  0.2955 -0.0316
  827MOL0     C11552  10.956   2.947   0.763  0.2995  0.9018  0.5657
  827MOL0     C11553  11.059   2.846   0.696 -0.5086 -0.4915 -0.4671
  827MOL0     C11554  11.205   2.887   0.725 -0.1942 -1.5045  0.2382
  827MOL0    Cl11555  11.321   2.758   0.659 -0.3282 -0.2464  0.4437
  827MOL0     C11556  10.461   3.112   1.010 -0.9756  0.7972 -0.1364
  827MOL0     C11557  10.373   3.141   0.913  0.6015 -0.2621  0.6682
  827MOL0     O11558  10.266   3.231   0.660  0.9466  0.1449  0.6538
  827MOL0     C11559   9.914   3.191   0.701 -0.0611  0.0442 -0.3370
  827MOL0     C11560   9.790   3.199   0.633 -0.0711  0.1565 -0.8296
  827MOL0     N11561   9.159   3.298   0.296 -0.5753  0.3739 -0.0352
  827MOL0     N11562   9.078   3.396   0.283  0.3365  0.1779  0.3871
  827MOL0     C11563   9.002   4.486   0.069 -0.8890  0.5206 -0.3852
  827MOL0     C11564   8.897   4.571   0.024 -0.3749 -0.7645 -0.2003
  827MOL0     C11565   8.534   4.848   0.030 -0.5219  1.7860  0.1288
  827MOL0     C11566   8.470   4.949   0.096  0.4479 -0.7685 -0.9625
  827MOL0     C11567   8.402   5.047   0.028 -0.1968 -0.1109  0.0103
  827MOL0     C11568   8.384   5.038  -0.113 -1.3100 -0.2649  0.5969
  827MOL0     O11569   8.315   5.137  -0.176  0.0013 -0.2604 -0.1050
  827MOL0     C11570   8.264   5.131  -0.303  0.6503 -0.0142  0.7196
  827MOL0     C11571   8.150   5.236  -0.305  0.2673  0.2094  0.9996
  827MOL0     C11572   8.106   5.267  -0.447  0.0546 -0.4911  0.3934
  827MOL0     C11573   8.016   5.391  -0.440 -0.0534 -0.7353 -0.1975
  827MOL0     C11574   7.947   5.406  -0.562 -0.3090  0.0916 -0.0062
  827MOL0     C11575   7.893   5.403  -0.674 -0.8047 -0.0364 -0.3324
  827MOL0     C11576   8.434   4.925  -0.170  0.2078  0.8682  0.4073
  827MOL0     C11577   8.514   4.829  -0.104  0.3058 -0.5226 -0.6296
  827MOL0     H11578   8.664   4.500   0.249  0.3616 -1.3527  1.5776
  827MOL0     H11579   8.853   4.369   0.349 -0.8410 -0.0121 -0.1330
  827MOL0     H11580   9.235   4.451   0.213  2.5891 -1.1541  1.7820
  827MOL0     H11581   9.264   4.313   0.315  1.1463  0.9933  0.6157
  827MOL0     H11582   9.258   4.307  -0.005  1.4164  4.7478  0.8619
  827MOL0     H11583   9.366   4.228   0.110 -0.6021  1.8772 -0.0619
  827MOL0     H11584   9.089   4.132   0.079  0.2280  1.2165 -0.3736
  827MOL0     H11585   9.243   4.069   0.012 -0.7489 -2.1746  1.4237
  827MOL0     H11586   9.312   4.080   0.279 -0.3183  0.2431  0.8404
  827MOL0     H11587   9.136   4.062   0.291  0.5825 -1.3470  0.6628
  827MOL0     H11588   9.328   3.877   0.137 -1.3336 -1.8339  0.2112
  827MOL0     H11589   9.290   3.873   0.307  3.0496  1.5252 -0.4165
  827MOL0     H11590   9.024   3.878   0.202 -2.4329 -1.5024 -2.7609
  827MOL0     H11591   9.107   3.854   0.051 -0.1769 -0.9068 -0.1185
  827MOL0     H11592   9.249   3.675   0.176 -0.4033  2.3507 -1.6518
  827MOL0     H11593   9.132   3.693   0.306 -4.4374 -2.0423 -0.2578
  827MOL0     H11594   9.034   3.617   0.034 -0.5128  1.9124  0.3590
  827MOL0     H11595   8.949   3.599   0.197  0.1080 -0.0576  0.5989
  827MOL0     H11596   9.245   3.417   0.004 -0.2452  3.3254  0.6200
  827MOL0     H11597   9.301   3.097   0.193  0.2994 -0.5149  0.0997
  827MOL0     H11598   9.373   3.179   0.050  2.7735 -2.2748  0.3157
  827MOL0     H11599   9.507   3.327   0.204 -0.2259  1.6956  1.6700
  827MOL0     H11600   9.544   3.151   0.228  0.1256 -0.7390  4.0594
  827MOL0     H11601   9.366   3.169   0.399 -0.1064 -0.9182 -1.4537
  827MOL0     H11602   9.416   3.348   0.415  0.5050 -0.9112  2.0994
  827MOL0     H11603   9.574   3.110   0.482  1.9852  0.2723  2.6467
  827MOL0     H11604   9.539   3.273   0.565  1.4158  0.7871  1.1295
  827MOL0     H11605   9.885   3.340   0.343  0.5150 -2.1329 -0.4331
  827MOL0     H11606  10.209   3.241   0.384  0.5261 -0.3372  0.0345
  827MOL0     H11607  10.131   3.367   0.315  0.6805 -0.8026  0.3639
  827MOL0     H11608  10.213   3.399   0.467  1.7719 -4.8737  4.9248
  827MOL0     H11609  10.095   3.194   1.106 -1.6098 -2.1520 -1.8689
  827MOL0     H11610  10.264   3.141   1.281  1.1383  1.3940  0.0097
  827MOL0     H11611  10.614   2.899   1.290  4.5280  0.4938 -0.5636
  827MOL0     H11612  10.591   2.915   1.114  0.4372  0.9420 -0.6571
  827MOL0     H11613  10.726   3.132   1.153  0.5045 -1.1906 -1.6321
  827MOL0     H11614  10.763   3.048   1.310 -1.9867  0.6337  0.8278
  827MOL0     H11615  10.800   2.831   1.150  0.5916 -0.2751 -0.8665
  827MOL0     H11616  10.927   2.933   1.188 -0.0568 -1.6799  0.1533
  827MOL0     H11617  10.743   2.991   0.937 -0.5085 -3.5863  2.0504
  827MOL0     H11618  10.874   3.094   0.991 -0.5105  1.4934 -0.8663
  827MOL0     H11619  10.890   2.799   0.921  0.0576  0.2054 -0.8121
  827MOL0     H11620  11.028   2.892   0.967 -0.5601 -2.5870  0.8430
  827MOL0     H11621  10.863   2.949   0.706  2.0145  1.3614 -2.4310
  827MOL0     H11622  10.984   3.053   0.757 -1.6467  1.4583  0.5003
  827MOL0     H11623  11.034   2.853   0.590 -0.1645  0.1782 -0.5132
  827MOL0     H11624  11.045   2.746   0.737 -0.1361 -0.4359 -0.1940
  827MOL0     H11625  11.227   2.889   0.832 -2.0279  1.4548  0.6732
  827MOL0     H11626  11.214   2.987   0.681 -3.5507 -0.1917  2.1223
  827MOL0     H11627  10.563   3.083   0.987 -1.3633 -0.9322  0.1227
  827MOL0     H11628  10.422   3.149   0.817  2.8547  0.8113  1.8261
  827MOL0     H11629   9.923   3.139   0.796  0.7369 -2.5314 -1.7327
  827MOL0     H11630   9.700   3.170   0.685  2.2122 -1.3488  2.6395
  827MOL0     H11631   9.097   4.475   0.019  0.9435  0.1311  2.8946
  827MOL0     H11632   8.897   4.633  -0.065  1.3435 -2.0947 -1.1970
  827MOL0     H11633   8.490   4.961   0.202  4.3233 -2.7218 -1.2841
  827MOL0     H11634   8.362   5.129   0.086  3.2881  1.5748  0.2788
  827MOL0     H11635   8.344   5.142  -0.376  0.6909 -3.8939 -0.0442
  827MOL0     H11636   8.216   5.033  -0.316  0.6122 -0.0998  1.4559
  827MOL0     H11637   8.181   5.335  -0.269  1.2474  1.2485 -2.3076
  827MOL0     H11638   8.059   5.203  -0.255 -0.6737  0.0795 -0.7162
  827MOL0     H11639   8.076   5.169  -0.485  1.9197 -0.3478 -1.6531
  827MOL0     H11640   8.189   5.290  -0.514  0.3030  0.2826  0.9528
  827MOL0     H11641   8.078   5.478  -0.414 -1.7811  0.3060  0.6795
  827MOL0     H11642   7.942   5.396  -0.360 -1.9371  1.6878 -1.9393
  827MOL0     H11643   7.850   5.397  -0.771 -0.2218 -0.4104 -0.5726
  827MOL0     H11644   8.416   4.905  -0.275  2.2835 -2.7585  0.5579
  827MOL0     H11645   8.562   4.749  -0.159  1.2304  0.1272 -0.7998
  828MOL0     O11646   7.732   0.711  10.179 -0.3988  0.0228  0.1449
  828MOL0     C11647   7.730   0.755  10.066  0.6447  1.1447  1.3668
  828MOL0     O11648   7.786   0.693   9.959  0.6819 -0.4223  0.8079
  828MOL0     C11649   7.889   0.602   9.984  0.6156 -0.6974  0.1634
  828MOL0     C11650   8.019   0.657  10.013  0.5515 -0.4850  0.0718
  828MOL0     C11651   8.135   0.575  10.030  0.0091  0.4106 -1.0373
  828MOL0     C11652   8.122   0.440  10.021  0.5186  0.2468 -0.3669
  828MOL0     O11653   8.229   0.358  10.045  0.4779 -0.0171  0.8695
  828MOL0     C11654   8.348   0.380   9.963  0.9185  0.1885 -0.6864
  828MOL0     C11655   8.448   0.260   9.971  0.4085  0.8036  0.0744
  828MOL0     C11656   8.440   0.169   9.848 -0.1832 -0.1163  0.1817
  828MOL0     C11657   8.302   0.102   9.834  0.3401  0.2306 -0.1894
  828MOL0     C11658   8.283   0.005   9.712 -0.2795 -0.1578 -0.2777
  828MOL0     C11659   8.148  -0.012   9.662 -0.4426  0.0901  0.6731
  828MOL0     C11660   8.088   0.110   9.598 -0.9968 -0.3674 -0.2858
  828MOL0     C11661   7.960   0.093   9.513  0.1542  0.3857  0.2409
  828MOL0     N11662   7.849   0.038   9.591  0.3808 -0.0191 -0.4154
  828MOL0     C11663   7.778   0.101   9.687  0.1781 -0.1747  0.1317
  828MOL0     C11664   7.684   0.018   9.725 -0.1972  0.2776 -1.0188
  828MOL0     C11665   7.567   0.056   9.815  0.7521  0.2154  0.1429
  828MOL0     C11666   7.592   0.169   9.917  0.0755 -0.7329  0.0777
  828MOL0     C11667   7.461   0.206   9.992  0.3506  0.4476 -0.0481
  828MOL0     C11668   7.360   0.281   9.896  0.5152 -0.7114 -0.2513
  828MOL0     O11669   7.323   0.405   9.947  0.9741 -0.0066 -0.5233
  828MOL0     C11670   7.258   0.500   9.871 -0.8854  0.6576 -0.1889
  828MOL0     C11671   7.200   0.482   9.740  0.3095  0.6085 -0.0425
  828MOL0     C11672   7.152   0.593   9.679  0.7838  0.6952 -0.1716
  828MOL0     C11673   7.098   0.580   9.544  0.6348  0.1987 -0.3073
  828MOL0     C11674   7.149   0.715   9.746  0.1279 -0.5436  0.2796
  828MOL0     C11675   7.111   0.838   9.665  0.2436  0.1889  0.3468
  828MOL0     O11676   7.016   0.916   9.731  0.6538  0.7777  0.7010
  828MOL0     C11677   6.965   1.030   9.673  0.5906 -0.2467 -1.7075
  828MOL0     C11678   7.029   1.135   9.614  0.1442  0.3295  0.4787
  828MOL0     C11679   6.964   1.253   9.570  0.5658  0.8029 -0.1007
  828MOL0     C11680   6.827   1.271   9.592  0.3659  0.2395 -0.1576
  828MOL0     O11681   6.778   1.403   9.560 -0.9552  0.0185 -0.1144
  828MOL0     C11682   6.666   1.448   9.640  0.1083 -0.5155  0.6159
  828MOL0     C11683   6.565   1.527   9.555  0.2411  0.0042  0.4744
  828MOL0     C11684   6.495   1.435   9.452 -0.0263  0.4405  0.4900
  828MOL0     C11685   6.387   1.509   9.376 -0.1852  0.8047  1.1008
  828MOL0     C11686   6.250   1.498   9.460 -0.2257  0.6768  0.5503
  828MOL0     C11687   6.156   1.371   9.434 -0.0003 -0.7214  0.3360
  828MOL0     C11688   6.106   1.363   9.292 -0.8346 -0.4187 -0.1296
  828MOL0     C11689   5.978   1.274   9.269  0.5994  0.3199 -0.5669
  828MOL0    Cl11690   5.943   1.260   9.084 -0.0276 -0.1733  0.2026
  828MOL0     C11691   6.760   1.151   9.632 -0.0024  0.1824 -0.3066
  828MOL0     C11692   6.826   1.044   9.680 -0.2682  0.5254 -0.3883
  828MOL0     O11693   7.168   0.871   9.558 -0.0750 -0.0242  0.0013
  828MOL0     C11694   7.196   0.731   9.873 -0.7909  0.6398 -0.1326
  828MOL0     C11695   7.252   0.619   9.938  0.5642 -0.6438 -0.9197
  828MOL0     N11696   7.689  -0.097   9.649  0.2313  0.0088 -0.5907
  828MOL0     N11697   7.794  -0.083   9.580  0.4120  0.1621  0.6333
  828MOL0     C11698   7.993   0.379   9.992  0.8521 -0.1384  0.1788
  828MOL0     C11699   7.884   0.461   9.973  0.3183  0.4729 -0.3024
  828MOL0     C11700   7.632   0.865  10.040  0.0140  0.0282  0.1547
  828MOL0     C11701   7.597   0.960  10.141  0.2241 -0.1559  0.2044
  828MOL0     C11702   7.509   1.062  10.109 -0.5010  0.0226 -0.5446
  828MOL0     C11703   7.454   1.069   9.985  0.0836 -0.1826 -0.5967
  828MOL0     O11704   7.358   1.165   9.980  0.3486 -0.6876 -0.4346
  828MOL0     C11705   7.318   1.219   9.842 -0.1066 -0.0528 -0.7412
  828MOL0     C11706   7.429   1.321   9.780 -0.9623 -0.2685 -0.1354
  828MOL0     C11707   7.439   1.439   9.876  1.0725 -0.3340 -0.6411
  828MOL0     C11708   7.358   1.562   9.829 -0.3728  0.0416  0.8965
  828MOL0     C11709   7.210   1.532   9.803 -0.9534 -0.1037  0.1752
  828MOL0     C11710   7.094   1.502   9.789  1.5020 -0.0870 -0.9430
  828MOL0     C11711   7.486   0.976   9.890 -0.2346  0.7959  0.2557
  828MOL0     C11712   7.564   0.864   9.923 -0.0354  0.5948 -0.7804
  828MOL0     H11713   8.015   0.765  10.005  2.0264 -0.4753 -0.9922
  828MOL0     H11714   8.230   0.627  10.040  1.0329 -1.5258 -0.1537
  828MOL0     H11715   8.326   0.403   9.858 -2.8462  1.1677  0.1661
  828MOL0     H11716   8.401   0.463  10.010  1.3361 -0.5180  0.1302
  828MOL0     H11717   8.549   0.300   9.964 -0.3486  2.6956 -0.6291
  828MOL0     H11718   8.433   0.214  10.069 -0.0662  0.7868 -0.0056
  828MOL0     H11719   8.467   0.226   9.759  0.7557 -0.3246  0.3250
  828MOL0     H11720   8.513   0.089   9.865  2.1011  2.3476  3.1437
  828MOL0     H11721   8.259   0.056   9.923  2.4132  1.4969  1.5787
  828MOL0     H11722   8.233   0.185   9.816  0.0518  0.5902  2.1993
  828MOL0     H11723   8.337   0.049   9.628 -0.5887  1.8025  0.4800
  828MOL0     H11724   8.331  -0.091   9.730 -3.2815 -1.7630 -0.1753
  828MOL0     H11725   8.153  -0.075   9.572 -4.7112  2.2660 -1.4078
  828MOL0     H11726   8.083  -0.063   9.733 -0.1297 -1.2861  0.0187
  828MOL0     H11727   8.066   0.179   9.680  1.4227 -3.0392  2.9218
  828MOL0     H11728   8.164   0.162   9.540 -1.1913  0.4727  0.2007
  828MOL0     H11729   7.979   0.031   9.425 -1.5349  0.4124 -0.1750
  828MOL0     H11730   7.937   0.189   9.466 -1.1695 -2.0422 -4.7173
  828MOL0     H11731   7.795   0.195   9.739 -4.2043 -1.7036  5.2045
  828MOL0     H11732   7.483   0.081   9.749  1.9840  2.1393 -0.7969
  828MOL0     H11733   7.537  -0.027   9.879 -2.2275  0.5338 -0.6700
  828MOL0     H11734   7.628   0.259   9.865 -4.2758  0.2943 -1.6438
  828MOL0     H11735   7.651   0.139  10.004  0.4836  1.3621  0.5754
  828MOL0     H11736   7.470   0.263  10.085 -2.1182  2.2476 -0.7988
  828MOL0     H11737   7.420   0.110  10.024  2.8301 -0.3183  1.0842
  828MOL0     H11738   7.273   0.218   9.880 -0.5211  0.8798 -1.0925
  828MOL0     H11739   7.410   0.297   9.800  1.6227 -1.9218  0.0874
  828MOL0     H11740   7.192   0.384   9.692  3.1953 -0.4924  1.4718
  828MOL0     H11741   7.004   0.635   9.555  2.4114  3.3481  0.3089
  828MOL0     H11742   7.164   0.635   9.475 -1.3475  1.0637 -1.6054
  828MOL0     H11743   7.079   0.476   9.518 -5.7970  0.3581  2.1007
  828MOL0     H11744   7.136   1.123   9.608  0.1219  0.5097 -0.4863
  828MOL0     H11745   7.017   1.333   9.521  1.6652 -0.2489 -0.6774
  828MOL0     H11746   6.627   1.361   9.694  1.8131 -1.9635 -0.3897
  828MOL0     H11747   6.691   1.512   9.725 -1.4355  0.4915  0.3495
  828MOL0     H11748   6.489   1.571   9.620  1.4550 -0.2988  2.1816
  828MOL0     H11749   6.610   1.618   9.513  0.9139 -0.3017  0.5259
  828MOL0     H11750   6.451   1.348   9.500 -0.1523  1.2598  1.9018
  828MOL0     H11751   6.566   1.394   9.379 -1.1999 -1.5354  0.3944
  828MOL0     H11752   6.406   1.617   9.377  1.2558  0.5787  0.4954
  828MOL0     H11753   6.379   1.480   9.271 -0.5118  0.0072  1.3420
  828MOL0     H11754   6.183   1.582   9.437 -2.1041 -0.5697  1.2588
  828MOL0     H11755   6.257   1.495   9.569 -3.5690  0.4271  0.8882
  828MOL0     H11756   6.198   1.279   9.475 -2.4466 -0.6761  3.3435
  828MOL0     H11757   6.064   1.388   9.491  0.0130 -3.0314  1.1700
  828MOL0     H11758   6.190   1.323   9.234  1.2801  0.5676  2.0853
  828MOL0     H11759   6.085   1.462   9.250 -2.4054  0.4956  2.5642
  828MOL0     H11760   5.894   1.320   9.321  2.0413  2.4992 -0.0388
  828MOL0     H11761   6.000   1.178   9.317 -0.7620 -0.9948 -2.4288
  828MOL0     H11762   6.654   1.147   9.657  0.0018  0.6104 -0.2126
  828MOL0     H11763   6.777   0.956   9.723  1.0290 -0.3144 -0.5708
  828MOL0     H11764   7.174   0.827   9.919 -3.4954 -0.1216  0.3882
  828MOL0     H11765   7.292   0.613  10.039 -0.1618  1.2705 -0.4684
  828MOL0     H11766   7.992   0.273   9.973 -1.1473  0.1711 -2.0198
  828MOL0     H11767   7.792   0.410   9.947  1.4877 -2.2379  0.5424
  828MOL0     H11768   7.633   0.969  10.243  0.3003  5.2305 -0.0083
  828MOL0     H11769   7.475   1.122  10.193 -2.7036 -3.7608  1.5680
  828MOL0     H11770   7.307   1.139   9.767  2.4732 -1.6332  0.4002
  828MOL0     H11771   7.221   1.265   9.860  0.7407  1.3436  0.5435
  828MOL0     H11772   7.395   1.358   9.683  0.4660  1.8311  0.1052
  828MOL0     H11773   7.533   1.287   9.782 -0.6794  0.1971 -3.2025
  828MOL0     H11774   7.547   1.457   9.878  1.1900 -1.0181 -0.5635
  828MOL0     H11775   7.393   1.418   9.973 -0.8056  1.0668 -1.1722
  828MOL0     H11776   7.410   1.583   9.735 -0.3529 -2.1954  0.3561
  828MOL0     H11777   7.372   1.648   9.895 -0.3210  1.0924 -0.4313
  828MOL0     H11778   6.988   1.487   9.792  0.9368  2.6397  4.1570
  828MOL0     H11779   7.442   0.991   9.792  0.5369 -1.7187 -0.5648
  828MOL0     H11780   7.599   0.790   9.851  2.6237  0.5408  0.4549
  829MOL0     O11781   6.272   1.116   6.778  0.5205 -0.5936 -0.3985
  829MOL0     C11782   6.153   1.115   6.793  0.8697 -0.3655 -0.3321
  829MOL0     O11783   6.060   1.183   6.718 -1.2002 -0.0952 -0.1098
  829MOL0     C11784   6.099   1.238   6.596 -0.7737 -0.6058  0.0080
  829MOL0     C11785   6.124   1.158   6.489 -0.7404 -0.0133  0.4051
  829MOL0     C11786   6.154   1.209   6.364  0.4427  0.2254 -0.6725
  829MOL0     C11787   6.172   1.348   6.346 -0.3237  0.4899 -0.0741
  829MOL0     O11788   6.214   1.390   6.217 -0.5803 -0.3313 -0.7683
  829MOL0     C11789   6.326   1.472   6.206  1.0369 -0.9627 -0.5794
  829MOL0     C11790   6.456   1.382   6.224  0.6312  0.2294  0.0985
  829MOL0     C11791   6.536   1.382   6.093 -0.4296  1.0359 -0.7209
  829MOL0     C11792   6.458   1.284   5.993 -0.2508  0.1193 -1.1944
  829MOL0     C11793   6.511   1.292   5.861  0.0414  0.0747  0.9725
  829MOL0     C11794   6.465   1.408   5.785 -0.0014 -1.1263  0.0656
  829MOL0     C11795   6.466   1.389   5.635  0.2660  0.4195  0.4865
  829MOL0     C11796   6.362   1.476   5.559  0.3916 -0.2402  0.3868
  829MOL0     N11797   6.238   1.390   5.561  0.2401 -0.2868 -0.5382
  829MOL0     C11798   6.130   1.400   5.652  0.3702 -0.1474  0.4132
  829MOL0     C11799   6.044   1.290   5.623  0.4309  0.0827  0.2005
  829MOL0     C11800   5.935   1.243   5.703  0.2067 -0.9159 -0.3843
  829MOL0     C11801   5.993   1.168   5.819 -0.0600  0.7480 -0.2662
  829MOL0     C11802   6.051   1.032   5.774 -0.5244 -0.0514 -0.2586
  829MOL0     C11803   6.126   0.954   5.886 -0.1226 -0.4405 -0.1311
  829MOL0     O11804   6.054   0.953   6.007  0.6437  0.4332  0.1305
  829MOL0     C11805   6.120   0.897   6.106 -0.3119  1.0912 -0.9730
  829MOL0     C11806   6.241   0.944   6.158 -0.1591 -0.0663 -0.2692
  829MOL0     C11807   6.312   0.884   6.257 -1.0814  0.1668  0.6849
  829MOL0     C11808   6.441   0.946   6.296 -0.2909 -1.0050 -0.5010
  829MOL0     C11809   6.257   0.776   6.316 -0.0022  0.6163  0.4291
  829MOL0     C11810   6.315   0.703   6.430  0.4766  0.0289  1.0296
  829MOL0     O11811   6.230   0.671   6.538  0.2794 -0.0136  0.1315
  829MOL0     C11812   6.290   0.638   6.656  0.3990 -0.0665  0.1479
  829MOL0     C11813   6.361   0.735   6.740  0.1615 -0.0570  0.2640
  829MOL0     C11814   6.436   0.693   6.857  0.7799 -0.2962  0.4947
  829MOL0     C11815   6.432   0.559   6.899  0.1750 -0.6188 -0.5483
  829MOL0     O11816   6.506   0.521   7.008 -0.3622  0.2041  1.2988
  829MOL0     C11817   6.438   0.461   7.119 -1.0596  0.3682 -0.8473
  829MOL0     C11818   6.451   0.539   7.244  0.6301 -0.8393 -0.0475
  829MOL0     C11819   6.337   0.652   7.255 -0.3064 -0.4332 -1.2855
  829MOL0     C11820   6.338   0.737   7.382 -0.2893 -0.8049  0.5445
  829MOL0     C11821   6.369   0.659   7.519 -0.1879  0.2698 -0.8320
  829MOL0     C11822   6.334   0.746   7.643 -0.6443  0.1079 -0.0834
  829MOL0     C11823   6.189   0.747   7.689 -1.2086  0.6372  0.4087
  829MOL0     C11824   6.197   0.801   7.827  0.2598 -0.2733  0.6857
  829MOL0    Cl11825   6.020   0.829   7.879  0.4295  0.4235 -0.3075
  829MOL0     C11826   6.347   0.471   6.827 -0.9285 -1.1352 -0.5876
  829MOL0     C11827   6.279   0.513   6.708 -0.1656  0.3438 -0.1920
  829MOL0     O11828   6.434   0.672   6.419  0.0485 -0.6941 -0.1434
  829MOL0     C11829   6.129   0.719   6.274  0.5883 -0.1806 -0.0094
  829MOL0     C11830   6.065   0.779   6.170 -0.3406  0.2484  0.5638
  829MOL0     N11831   6.098   1.227   5.504 -0.3436 -0.6711 -1.0882
  829MOL0     N11832   6.206   1.286   5.477  0.6028 -0.2409 -0.4043
  829MOL0     C11833   6.146   1.425   6.455  0.6037 -0.0223 -0.7616
  829MOL0     C11834   6.114   1.379   6.591 -0.0533 -0.4798  0.7611
  829MOL0     C11835   6.108   1.060   6.925  1.2364 -0.3308 -0.0735
  829MOL0     C11836   6.195   1.048   7.031 -0.4692  0.2064 -0.1240
  829MOL0     C11837   6.161   0.995   7.154  0.5399  0.5233  0.0256
  829MOL0     C11838   6.032   0.943   7.167 -0.6043 -0.3000 -0.7053
  829MOL0     O11839   6.011   0.895   7.288 -0.2136  0.3104  0.0401
  829MOL0     C11840   5.890   0.824   7.327 -0.6659 -0.4124  0.7881
  829MOL0     C11841   5.904   0.760   7.455 -0.4700  1.0841  0.5497
  829MOL0     C11842   5.783   0.668   7.479 -0.8783 -0.2699 -0.1619
  829MOL0     C11843   5.789   0.621   7.627 -0.4125 -0.4381 -0.3795
  829MOL0     C11844   5.672   0.546   7.672 -0.2047 -0.1282  0.6106
  829MOL0     C11845   5.570   0.484   7.685  0.0712 -0.2774 -0.1531
  829MOL0     C11846   5.940   0.963   7.063 -0.2849 -0.1668  0.2776
  829MOL0     C11847   5.975   1.003   6.932 -0.1060 -0.4624  0.1206
  829MOL0     H11848   6.111   1.051   6.487 -0.8722 -0.0134 -2.1822
  829MOL0     H11849   6.172   1.149   6.276 -0.4352 -0.1837 -0.5794
  829MOL0     H11850   6.319   1.526   6.111  0.3959 -2.4026 -1.3867
  829MOL0     H11851   6.345   1.546   6.283  0.0226 -0.3279 -0.9164
  829MOL0     H11852   6.517   1.441   6.292  2.0013  3.7775 -3.7418
  829MOL0     H11853   6.435   1.281   6.261  2.2156  0.3349  1.3914
  829MOL0     H11854   6.544   1.484   6.053 -2.3302  1.4452 -0.2025
  829MOL0     H11855   6.639   1.351   6.107 -0.4698  1.4865  0.9249
  829MOL0     H11856   6.472   1.185   6.036  5.0128  0.8453 -0.4972
  829MOL0     H11857   6.354   1.314   6.004  0.9481  3.8877  4.0474
  829MOL0     H11858   6.615   1.259   5.855 -0.7627 -2.5856 -3.7788
  829MOL0     H11859   6.464   1.205   5.814  0.0024 -0.7863  2.5107
  829MOL0     H11860   6.366   1.440   5.818  0.3477 -0.8440  0.8704
  829MOL0     H11861   6.530   1.495   5.804  3.0993 -2.9810 -1.2012
  829MOL0     H11862   6.563   1.423   5.598  0.8035 -1.9060 -0.3901
  829MOL0     H11863   6.461   1.283   5.609 -0.8807 -0.3649  3.4997
  829MOL0     H11864   6.390   1.472   5.453 -2.5899 -5.2956 -0.5108
  829MOL0     H11865   6.345   1.580   5.591 -0.1938  0.4958 -2.1058
  829MOL0     H11866   6.119   1.462   5.740  1.4826 -0.1309  0.5572
  829MOL0     H11867   5.891   1.335   5.744  2.7971  0.1258  0.2440
  829MOL0     H11868   5.862   1.183   5.649  0.2693 -0.9191 -0.4648
  829MOL0     H11869   5.937   1.151   5.911  2.1429 -1.9062  0.7287
  829MOL0     H11870   6.080   1.225   5.853  0.0030 -1.3604  3.5644
  829MOL0     H11871   6.122   1.038   5.691 -1.6490  0.9336 -1.1781
  829MOL0     H11872   5.971   0.971   5.731  1.6520 -2.3436 -1.2874
  829MOL0     H11873   6.228   0.990   5.905 -1.4185  2.5469  1.9766
  829MOL0     H11874   6.119   0.853   5.846 -0.7251  0.2041 -1.7470
  829MOL0     H11875   6.294   1.021   6.102  1.1871 -0.7816 -0.0254
  829MOL0     H11876   6.436   1.055   6.306 -1.9298 -1.1087  0.1159
  829MOL0     H11877   6.476   0.906   6.392 -0.4120 -0.3793 -0.1879
  829MOL0     H11878   6.515   0.930   6.217  2.0374  0.2932  1.2883
  829MOL0     H11879   6.373   0.841   6.718  2.1444 -0.6948 -2.1315
  829MOL0     H11880   6.503   0.766   6.902 -0.2434  0.0657  1.4980
  829MOL0     H11881   6.334   0.436   7.097 -1.7099  0.9543  1.3759
  829MOL0     H11882   6.485   0.366   7.145  4.2601  3.3098  2.0683
  829MOL0     H11883   6.440   0.469   7.327 -4.7709 -1.6899 -1.1017
  829MOL0     H11884   6.543   0.595   7.261  0.4282 -0.9981  1.7032
  829MOL0     H11885   6.241   0.599   7.256 -0.4859 -0.1088 -1.1244
  829MOL0     H11886   6.354   0.707   7.163  0.5708 -1.5686 -1.8333
  829MOL0     H11887   6.412   0.817   7.375 -1.6916  0.4149 -1.2600
  829MOL0     H11888   6.243   0.791   7.380 -1.3624 -2.2935 -4.8705
  829MOL0     H11889   6.478   0.650   7.529 -0.4439 -0.1018  4.3499
  829MOL0     H11890   6.315   0.565   7.506  2.7879 -1.6666 -0.2177
  829MOL0     H11891   6.412   0.729   7.719 -3.6606  1.5917  3.6782
  829MOL0     H11892   6.348   0.853   7.621 -1.1122 -0.0056 -0.9765
  829MOL0     H11893   6.160   0.641   7.696 -1.9002  0.5570 -2.4381
  829MOL0     H11894   6.115   0.804   7.633 -1.7765 -0.6685 -0.2107
  829MOL0     H11895   6.263   0.887   7.841 -0.8275  0.4541  1.5250
  829MOL0     H11896   6.241   0.719   7.885 -1.7801 -1.3182  0.8623
  829MOL0     H11897   6.339   0.368   6.861 -0.3267 -0.7503  0.8019
  829MOL0     H11898   6.218   0.442   6.653  1.2915 -0.4908 -0.7862
  829MOL0     H11899   6.083   0.633   6.323 -0.4009  0.9136  1.0331
  829MOL0     H11900   5.968   0.745   6.136  0.7953 -2.1478 -0.4957
  829MOL0     H11901   6.139   1.534   6.458 -0.6900 -0.0556  2.6896
  829MOL0     H11902   6.088   1.447   6.672 -3.2070 -0.2545 -0.3116
  829MOL0     H11903   6.295   1.086   7.014 -1.1273  0.8974 -2.9290
  829MOL0     H11904   6.235   0.983   7.233  1.8629 -1.7890 -1.4533
  829MOL0     H11905   5.821   0.906   7.349 -0.5394 -0.2768  0.6835
  829MOL0     H11906   5.850   0.758   7.251 -3.6933  1.0499  0.9941
  829MOL0     H11907   5.923   0.835   7.532  0.1010 -0.8071  2.3441
  829MOL0     H11908   5.993   0.697   7.461  0.5843  2.4586 -0.1294
  829MOL0     H11909   5.787   0.577   7.418  0.0561 -1.0728  1.0573
  829MOL0     H11910   5.684   0.712   7.462 -1.5523 -2.5185 -2.8647
  829MOL0     H11911   5.801   0.701   7.700 -0.5375  0.8438 -1.7201
  829MOL0     H11912   5.878   0.558   7.635  0.2871  0.5284 -0.3883
  829MOL0     H11913   5.484   0.420   7.692  0.1869 -0.2818  1.7513
  829MOL0     H11914   5.836   0.931   7.056  0.5540 -2.6922 -3.1743
  829MOL0     H11915   5.902   0.994   6.853  1.6008 -2.4658 -1.3313
  830MOL0     O11916   8.479  11.165   4.893  0.1944  0.4275  0.4019
  830MOL0     C11917   8.555  11.247   4.856 -0.3681  0.7138  0.0170
  830MOL0     O11918   8.570  11.376   4.903 -0.0991  0.3324  0.2176
  830MOL0     C11919   8.469  11.453   4.965 -0.0133  0.4038  0.5455
  830MOL0     C11920   8.355  11.408   5.045 -0.1423  0.1419  0.5028
  830MOL0     C11921   8.264  11.494   5.098 -0.6046 -0.0075  0.7219
  830MOL0     C11922   8.269  11.632   5.066  0.4039  0.7690  0.5166
  830MOL0     O11923   8.187  11.736   5.106  0.0174  0.5854 -0.3759
  830MOL0     C11924   8.072  11.689   5.186 -0.0683  0.0680  0.5700
  830MOL0     C11925   7.994  11.791   5.265 -0.0381 -0.0675 -0.7462
  830MOL0     C11926   8.095  11.889   5.333  0.0924 -0.2109 -0.0030
  830MOL0     C11927   8.037  12.006   5.424 -0.1410 -0.5476  0.5137
  830MOL0     C11928   8.152  12.053   5.515  0.5173  0.5409  0.0939
  830MOL0     C11929   8.294  12.070   5.459 -0.5782 -0.1918 -0.6695
  830MOL0     C11930   8.315  12.175   5.344  0.3698 -0.5912 -0.0320
  830MOL0     C11931   8.273  12.317   5.393 -0.1906  0.3113  0.9546
  830MOL0     N11932   8.389  12.377   5.455  0.6311 -0.1098 -0.2462
  830MOL0     C11933   8.436  12.490   5.410 -0.5238  0.3398  0.9447
  830MOL0     C11934   8.533  12.524   5.497  1.1560  0.5014 -1.6604
  830MOL0     C11935   8.649  12.621   5.489  0.1939 -0.1810  0.7387
  830MOL0     C11936   8.596  12.761   5.457 -0.5718  0.4357 -1.3020
  830MOL0     C11937   8.723  12.858   5.436  0.4517 -0.2215  0.0898
  830MOL0     C11938   8.685  12.975   5.347 -0.5362  0.0012  0.8761
  830MOL0     O11939   8.647  12.948   5.215  0.8078  0.8170 -0.0747
  830MOL0     C11940   8.736  12.930   5.118 -0.1679 -0.4762 -0.3467
  830MOL0     C11941   8.679  12.922   4.992  0.3811 -0.0717 -0.0073
  830MOL0     C11942   8.760  12.904   4.875  0.8521  0.3891 -0.1025
  830MOL0     C11943   8.684  12.891   4.743  0.3118  0.5803  0.1884
  830MOL0     C11944   8.905  12.889   4.884 -0.2266 -1.0653 -0.0762
  830MOL0     C11945   9.007  12.881   4.781  0.5283 -0.1379  0.1614
  830MOL0     O11946   9.131  12.867   4.823 -0.5784 -0.9155  0.2278
  830MOL0     C11947   9.229  12.848   4.727  0.0082 -0.2238 -0.5166
  830MOL0     C11948   9.328  12.952   4.731  0.6580  0.1507  0.1062
  830MOL0     C11949   9.428  12.943   4.634  0.2589  0.1601  0.1417
  830MOL0     C11950   9.431  12.841   4.537  0.3308  0.0034  0.0859
  830MOL0     O11951   9.521  12.866   4.431  0.5590  0.5667  0.2444
  830MOL0     C11952   9.565  12.757   4.349 -0.6318  0.6943 -0.0212
  830MOL0     C11953   9.683  12.801   4.272 -0.0710 -0.6654 -0.1951
  830MOL0     C11954   9.649  12.906   4.164 -1.1586 -0.1508 -0.4430
  830MOL0     C11955   9.669  13.050   4.220  0.1244  0.9171 -0.1034
  830MOL0     C11956   9.706  13.137   4.102 -1.0297 -0.1764  0.5620
  830MOL0     C11957   9.855  13.133   4.061  0.2542  0.2901  0.3130
  830MOL0     C11958   9.870  13.162   3.909 -0.2648  0.8320  1.1375
  830MOL0     C11959  10.012  13.202   3.867 -0.2435  0.4428 -0.2442
  830MOL0    Cl11960  10.032  13.370   3.919  0.3809  0.2282 -0.0795
  830MOL0     C11961   9.337  12.739   4.536  0.6280  0.3964 -0.9954
  830MOL0     C11962   9.227  12.748   4.629 -0.6237  0.8420  0.7723
  830MOL0     O11963   8.975  12.880   4.664  0.7947  0.7656 -0.5839
  830MOL0     C11964   8.955  12.907   5.013  0.6291 -0.8745 -0.0006
  830MOL0     C11965   8.872  12.926   5.133 -0.1575 -0.3408  0.3523
  830MOL0     N11966   8.516  12.449   5.611 -0.3169  0.4865 -1.3785
  830MOL0     N11967   8.423  12.365   5.582 -0.2042  0.0753 -0.8202
  830MOL0     C11968   8.372  11.679   4.983 -0.5092  0.8491  0.3027
  830MOL0     C11969   8.474  11.592   4.934 -0.1047  0.1210  0.3718
  830MOL0     C11970   8.660  11.212   4.757 -0.1792 -0.6199  0.8514
  830MOL0     C11971   8.763  11.310   4.739  0.3416  0.1179 -0.3046
  830MOL0     C11972   8.861  11.284   4.653 -1.0860 -0.0029  0.7415
  830MOL0     C11973   8.868  11.169   4.575 -1.2176 -1.1616 -0.0785
  830MOL0     O11974   8.963  11.134   4.480  0.6993 -0.1626  0.5796
  830MOL0     C11975   9.075  11.217   4.458  0.6285  0.9763 -0.0472
  830MOL0     C11976   9.190  11.202   4.561 -0.7050 -0.2781  0.8939
  830MOL0     C11977   9.297  11.301   4.527 -0.8321 -1.9501 -0.0231
  830MOL0     C11978   9.412  11.314   4.618  0.5051 -0.1999  0.2384
  830MOL0     C11979   9.389  11.382   4.747 -0.6767  0.0126  0.8612
  830MOL0     C11980   9.392  11.415   4.862 -1.0824  0.2093 -0.5141
  830MOL0     C11981   8.763  11.081   4.589 -0.3727  0.3825  1.2389
  830MOL0     C11982   8.662  11.101   4.683 -0.9464  0.2632 -0.0969
  830MOL0     H11983   8.361  11.306   5.081  1.9089 -0.0164 -0.1468
  830MOL0     H11984   8.187  11.463   5.166  0.0810 -1.8029  0.7235
  830MOL0     H11985   8.005  11.623   5.131 -0.3359 -1.2205  2.3481
  830MOL0     H11986   8.099  11.612   5.259  0.7697  0.7117  0.9599
  830MOL0     H11987   7.914  11.841   5.210 -1.9511  0.3173  2.1902
  830MOL0     H11988   7.942  11.746   5.350  4.5017 -0.9415  1.9347
  830MOL0     H11989   8.162  11.828   5.395  0.1952  1.8760  2.0872
  830MOL0     H11990   8.172  11.933   5.269  0.0043  0.8157  0.5755
  830MOL0     H11991   7.999  12.097   5.377  1.6946  1.7005  3.0727
  830MOL0     H11992   7.952  11.969   5.481 -0.7909 -2.3403 -1.4589
  830MOL0     H11993   8.117  12.145   5.564 -1.9119 -0.3378  0.1436
  830MOL0     H11994   8.160  11.976   5.593 -3.7662 -0.4959 -0.2379
  830MOL0     H11995   8.366  12.090   5.540 -2.7744 -0.8375  1.5760
  830MOL0     H11996   8.340  11.976   5.428  1.5867 -0.3898  2.6272
  830MOL0     H11997   8.419  12.183   5.312  1.1138 -2.0507  1.8335
  830MOL0     H11998   8.244  12.152   5.264  2.2137  1.1684 -2.3393
  830MOL0     H11999   8.179  12.328   5.448 -0.0396  3.4168  0.8197
  830MOL0     H12000   8.254  12.368   5.298 -1.9699 -1.1250  0.4944
  830MOL0     H12001   8.417  12.556   5.326  1.4963 -2.3383 -1.8736
  830MOL0     H12002   8.711  12.620   5.579  0.1276 -0.0541  0.7841
  830MOL0     H12003   8.712  12.599   5.402 -0.1398  3.3414 -0.5590
  830MOL0     H12004   8.513  12.788   5.523 -0.7167 -0.9421 -0.9010
  830MOL0     H12005   8.545  12.745   5.361  0.2328  0.7041 -1.7863
  830MOL0     H12006   8.802  12.797   5.393  3.1891  2.5014  0.8880
  830MOL0     H12007   8.752  12.907   5.530  1.7179 -0.1735 -0.3153
  830MOL0     H12008   8.770  13.040   5.368 -0.1093 -1.4428  4.2866
  830MOL0     H12009   8.595  13.025   5.384 -0.8397 -0.8964  1.3827
  830MOL0     H12010   8.571  12.930   4.983  0.5326 -0.1802 -4.2483
  830MOL0     H12011   8.577  12.872   4.760  0.3251 -2.2244 -2.0797
  830MOL0     H12012   8.697  12.976   4.675 -2.8208  0.3088 -0.9261
  830MOL0     H12013   8.715  12.800   4.690 -0.8457 -0.2117  0.8211
  830MOL0     H12014   9.317  13.033   4.802 -2.1834  0.4514 -0.5372
  830MOL0     H12015   9.510  13.016   4.634 -0.1969  0.7201 -1.3921
  830MOL0     H12016   9.601  12.674   4.411  0.9494 -1.4364 -3.4797
  830MOL0     H12017   9.485  12.728   4.280 -2.0384  0.7626  1.4926
  830MOL0     H12018   9.760  12.850   4.333  0.4538  4.4440 -4.3249
  830MOL0     H12019   9.712  12.708   4.222 -1.0032 -0.6545 -0.7659
  830MOL0     H12020   9.551  12.906   4.116 -0.9964  0.1947 -0.7813
  830MOL0     H12021   9.710  12.893   4.074 -2.6697  0.9312 -1.6856
  830MOL0     H12022   9.579  13.093   4.264  0.1320  1.1319 -0.2923
  830MOL0     H12023   9.754  13.045   4.289 -1.8865 -0.9718  2.4350
  830MOL0     H12024   9.683  13.240   4.130 -0.8425 -0.3834  1.4966
  830MOL0     H12025   9.637  13.121   4.019 -0.5013  0.9920 -0.1339
  830MOL0     H12026   9.900  13.216   4.117 -1.9011  1.0525  1.0587
  830MOL0     H12027   9.894  13.035   4.089  3.4232  1.1793 -0.6283
  830MOL0     H12028   9.794  13.235   3.881 -1.9110 -1.5236 -0.9685
  830MOL0     H12029   9.834  13.077   3.851  0.6389 -0.1403  1.9496
  830MOL0     H12030  10.031  13.179   3.762  0.3071  0.3342 -0.1256
  830MOL0     H12031  10.075  13.136   3.928 -1.4473  1.1435  1.8926
  830MOL0     H12032   9.328  12.657   4.466  2.4628 -3.3726  2.7358
  830MOL0     H12033   9.141  12.684   4.612  1.1298 -1.1778 -1.1020
  830MOL0     H12034   9.060  12.891   5.034  0.6876  2.4220  3.3225
  830MOL0     H12035   8.920  12.917   5.230 -0.0638 -3.4399  0.1236
  830MOL0     H12036   8.383  11.783   4.954  1.0023  1.1291  1.7501
  830MOL0     H12037   8.560  11.626   4.877  0.0093 -0.6303  0.0727
  830MOL0     H12038   8.761  11.404   4.795  0.5151 -1.1126  1.8792
  830MOL0     H12039   8.939  11.356   4.630 -1.6007  1.1492  2.3804
  830MOL0     H12040   9.115  11.196   4.358  0.8108  1.5016 -0.0880
  830MOL0     H12041   9.037  11.318   4.449 -3.2233 -0.5139 -3.6458
  830MOL0     H12042   9.238  11.104   4.556  1.6612  0.8402  0.5451
  830MOL0     H12043   9.169  11.216   4.667  3.1752  2.5835  1.4665
  830MOL0     H12044   9.248  11.397   4.546 -0.6454 -0.6966 -4.6176
  830MOL0     H12045   9.321  11.318   4.422  1.3044 -0.8078  0.5931
  830MOL0     H12046   9.489  11.370   4.564  0.7161  0.1115  0.8497
  830MOL0     H12047   9.447  11.212   4.636 -0.6254 -0.8997 -1.3691
  830MOL0     H12048   9.405  11.434   4.967  0.5272 -1.3949 -0.3733
  830MOL0     H12049   8.774  10.996   4.522  0.1331  0.1003  1.6701
  830MOL0     H12050   8.594  11.017   4.697 -3.9442  2.5767  0.3596
  831MOL0     O12051   7.197   6.308   3.268 -0.2123 -0.3174 -0.1614
  831MOL0     C12052   7.265   6.262   3.356 -0.3368 -0.2364  0.2886
  831MOL0     O12053   7.339   6.336   3.455  0.1723  0.1615 -0.0969
  831MOL0     C12054   7.324   6.472   3.463  0.7213 -0.2021 -0.7904
  831MOL0     C12055   7.430   6.554   3.493 -1.3376 -0.3079  0.2177
  831MOL0     C12056   7.435   6.688   3.505 -0.1751 -0.4296 -0.9805
  831MOL0     C12057   7.313   6.753   3.485  1.2475  0.2581 -0.3923
  831MOL0     O12058   7.294   6.892   3.485  0.4613 -0.3318  0.9796
  831MOL0     C12059   7.407   6.974   3.489 -0.1895 -0.6143 -0.1963
  831MOL0     C12060   7.376   7.118   3.500 -1.5040  0.3906  0.0784
  831MOL0     C12061   7.318   7.185   3.382 -0.8484  0.5540 -0.2779
  831MOL0     C12062   7.423   7.243   3.276  0.7226  0.8394  0.0238
  831MOL0     C12063   7.351   7.321   3.165 -0.9126 -0.4106  1.0949
  831MOL0     C12064   7.445   7.349   3.047 -0.5967 -0.3776 -0.8359
  831MOL0     C12065   7.371   7.447   2.944 -0.3075  1.8870 -0.6176
  831MOL0     C12066   7.456   7.537   2.861 -0.8622  0.1169 -0.0788
  831MOL0     N12067   7.539   7.626   2.947 -0.2661  0.1386  0.2563
  831MOL0     C12068   7.664   7.595   2.984 -0.5251  0.4764  0.5214
  831MOL0     C12069   7.718   7.701   3.051  0.2101  0.6667 -0.3416
  831MOL0     C12070   7.863   7.707   3.111  0.6769  0.2136  0.5750
  831MOL0     C12071   7.874   7.682   3.260  1.2531 -0.3519  0.1103
  831MOL0     C12072   7.806   7.784   3.351 -0.1989  0.1791  0.0276
  831MOL0     C12073   7.818   7.758   3.506 -0.2464 -0.8650  0.4687
  831MOL0     O12074   7.834   7.622   3.519 -0.4235 -0.6623 -0.7277
  831MOL0     C12075   7.783   7.570   3.630 -0.1843  0.5411 -0.5119
  831MOL0     C12076   7.743   7.437   3.616 -0.4462 -0.2624  0.3813
  831MOL0     C12077   7.705   7.352   3.724  0.0198  0.5258 -0.4180
  831MOL0     C12078   7.650   7.216   3.703  0.9278  0.1676  0.3566
  831MOL0     C12079   7.679   7.420   3.854  0.9810  0.1606 -0.5617
  831MOL0     C12080   7.617   7.347   3.974  0.2490 -0.6203  0.4830
  831MOL0     O12081   7.584   7.434   4.083 -0.1096  0.1546  0.2422
  831MOL0     C12082   7.489   7.398   4.179 -0.6645  0.7453  0.3531
  831MOL0     C12083   7.387   7.305   4.143  0.1620  0.9897  0.1987
  831MOL0     C12084   7.292   7.261   4.244 -0.1845 -0.0138  0.3703
  831MOL0     C12085   7.305   7.296   4.378  0.7925 -0.3785 -0.0276
  831MOL0     O12086   7.222   7.237   4.472  0.8154 -0.5951 -0.2986
  831MOL0     C12087   7.172   7.320   4.592 -0.0775  0.3649 -0.1460
  831MOL0     C12088   7.052   7.271   4.669  0.6214  0.8608  1.4819
  831MOL0     C12089   6.964   7.390   4.719  0.7932  0.4370 -0.5557
  831MOL0     C12090   7.016   7.446   4.850 -1.2684 -0.4761 -0.1818
  831MOL0     C12091   6.898   7.511   4.923 -0.7650  0.7824  0.3269
  831MOL0     C12092   6.909   7.500   5.079 -0.1628 -0.1484 -0.1045
  831MOL0     C12093   6.783   7.561   5.157 -0.1094 -0.0200  1.0246
  831MOL0     C12094   6.810   7.569   5.315  0.5503 -0.4323  0.4885
  831MOL0    Cl12095   6.908   7.715   5.366 -0.1311 -0.6801  0.1552
  831MOL0     C12096   7.408   7.379   4.413 -0.8348  0.0761 -0.0861
  831MOL0     C12097   7.503   7.431   4.318  0.4816  0.3974  0.5590
  831MOL0     O12098   7.600   7.231   3.977 -0.3800 -0.3281 -0.3339
  831MOL0     C12099   7.725   7.554   3.875 -0.1220  0.1970 -0.1742
  831MOL0     C12100   7.782   7.620   3.761  0.2564 -0.5490 -0.2874
  831MOL0     N12101   7.624   7.806   3.041 -0.1313 -0.5077  0.0392
  831MOL0     N12102   7.514   7.755   2.998  0.4474  0.0431  0.2898
  831MOL0     C12103   7.197   6.674   3.456 -0.2604  0.4344  0.0781
  831MOL0     C12104   7.202   6.540   3.451 -0.1197  0.0120  1.4041
  831MOL0     C12105   7.295   6.111   3.354  0.4776  0.0840 -0.4027
  831MOL0     C12106   7.231   6.035   3.259 -0.2833 -0.6217  0.1356
  831MOL0     C12107   7.252   5.899   3.242  0.0417 -0.2159 -0.2922
  831MOL0     C12108   7.331   5.831   3.332  0.0446 -0.1254 -0.2708
  831MOL0     O12109   7.350   5.693   3.326 -0.5023  0.3782 -0.4094
  831MOL0     C12110   7.447   5.623   3.409 -0.1792  0.3900  0.4411
  831MOL0     C12111   7.455   5.469   3.371 -0.1329  0.0340  0.0546
  831MOL0     C12112   7.581   5.400   3.431 -0.0180 -0.7417  0.9739
  831MOL0     C12113   7.582   5.415   3.579  0.6012 -0.0375  0.4833
  831MOL0     C12114   7.671   5.316   3.631 -0.4450  0.5051 -0.0105
  831MOL0     C12115   7.754   5.227   3.664  0.3103 -0.5462 -0.0152
  831MOL0     C12116   7.393   5.903   3.439  0.1680  0.3404  0.7387
  831MOL0     C12117   7.365   6.039   3.447  0.3280  0.9629 -0.6466
  831MOL0     H12118   7.523   6.500   3.497  0.0518  2.0253  2.2484
  831MOL0     H12119   7.523   6.739   3.544 -2.3788  1.0576  2.5632
  831MOL0     H12120   7.473   6.953   3.574 -0.9561  0.6946  0.7637
  831MOL0     H12121   7.456   6.961   3.393 -1.5231  0.5002 -1.0575
  831MOL0     H12122   7.306   7.121   3.584 -1.1013  1.8542  0.3933
  831MOL0     H12123   7.463   7.179   3.525  0.0527 -2.3631  1.9022
  831MOL0     H12124   7.253   7.124   3.319 -2.7334  2.7075 -0.5666
  831MOL0     H12125   7.249   7.259   3.423  2.5282  3.0259  1.3708
  831MOL0     H12126   7.507   7.299   3.319  2.5982  0.3463 -2.7810
  831MOL0     H12127   7.459   7.153   3.227 -3.6328 -0.0568 -2.0295
  831MOL0     H12128   7.267   7.269   3.116  1.2913 -0.1196 -3.6049
  831MOL0     H12129   7.319   7.415   3.210  2.4189  0.7895  1.1844
  831MOL0     H12130   7.536   7.391   3.092  0.7802 -3.6424 -0.3276
  831MOL0     H12131   7.466   7.250   3.008 -0.9161 -2.1926  3.0770
  831MOL0     H12132   7.325   7.383   2.867  2.0323  1.0003 -1.3594
  831MOL0     H12133   7.305   7.510   3.005 -2.7911 -0.4192 -0.6994
  831MOL0     H12134   7.392   7.606   2.805  0.9448  1.6981 -0.3076
  831MOL0     H12135   7.521   7.485   2.789 -2.4069  1.4068 -2.5491
  831MOL0     H12136   7.713   7.501   2.962  0.6742  0.7262  1.9319
  831MOL0     H12137   7.928   7.637   3.059  0.7055  2.2278 -2.2672
  831MOL0     H12138   7.897   7.808   3.091 -0.2010  0.6086  0.9898
  831MOL0     H12139   7.976   7.680   3.300  1.8341  0.2512 -1.2777
  831MOL0     H12140   7.823   7.587   3.279 -1.9131  1.7229  3.2696
  831MOL0     H12141   7.700   7.784   3.325 -0.5141 -0.8655  1.1782
  831MOL0     H12142   7.850   7.884   3.349 -0.3504  0.2416 -0.1671
  831MOL0     H12143   7.725   7.792   3.553 -1.6617 -0.4442 -2.3754
  831MOL0     H12144   7.907   7.811   3.539  2.0958 -1.9544 -3.4939
  831MOL0     H12145   7.744   7.392   3.517  0.6172  0.3681  0.0913
  831MOL0     H12146   7.672   7.181   3.602 -4.6372  0.1554 -1.1607
  831MOL0     H12147   7.688   7.147   3.779  1.5750  1.0066  0.8171
  831MOL0     H12148   7.542   7.210   3.721  1.2011 -3.1631  1.5803
  831MOL0     H12149   7.373   7.253   4.048 -1.1796 -1.6204  1.7078
  831MOL0     H12150   7.210   7.193   4.224 -0.4902 -0.3500  2.4907
  831MOL0     H12151   7.246   7.344   4.670 -2.8193  0.2064  2.6997
  831MOL0     H12152   7.148   7.419   4.554  1.7609  1.7173  1.9617
  831MOL0     H12153   6.992   7.211   4.601 -2.0287  3.4426  1.3529
  831MOL0     H12154   7.080   7.219   4.761  0.7695 -0.0399  0.9374
  831MOL0     H12155   6.864   7.347   4.732  1.4369 -0.6198  1.2605
  831MOL0     H12156   6.958   7.470   4.644 -0.4229  3.2968  2.3455
  831MOL0     H12157   7.060   7.379   4.924 -2.5262  1.7837  2.8421
  831MOL0     H12158   7.089   7.527   4.840 -1.0011 -0.6004  0.6620
  831MOL0     H12159   6.803   7.461   4.901  0.8273 -1.5784 -1.5192
  831MOL0     H12160   6.897   7.613   4.883  1.2382  0.7055  0.0052
  831MOL0     H12161   6.941   7.400   5.109  1.3532  0.4606  0.4729
  831MOL0     H12162   6.996   7.560   5.109 -1.4143  2.3789 -1.2468
  831MOL0     H12163   6.702   7.490   5.138 -0.9319  1.1592  0.0265
  831MOL0     H12164   6.753   7.654   5.109 -1.5191 -1.4919 -1.1565
  831MOL0     H12165   6.854   7.475   5.352  0.0979 -1.0618 -0.5185
  831MOL0     H12166   6.712   7.580   5.361  0.7924 -0.3936  1.0055
  831MOL0     H12167   7.408   7.405   4.518 -0.6242  1.3096 -0.3788
  831MOL0     H12168   7.578   7.498   4.360  0.4685 -1.5950  4.1781
  831MOL0     H12169   7.725   7.607   3.969 -1.9014  0.4197 -0.2611
  831MOL0     H12170   7.809   7.725   3.775 -1.3162 -0.3779  2.2521
  831MOL0     H12171   7.101   6.725   3.456  0.0898  1.1108  0.0927
  831MOL0     H12172   7.115   6.482   3.423  1.5434 -0.2782 -4.4280
  831MOL0     H12173   7.171   6.084   3.183 -0.3886  2.4003  2.0273
  831MOL0     H12174   7.199   5.854   3.158 -2.7613 -1.5523  2.0189
  831MOL0     H12175   7.547   5.667   3.406 -2.1164  5.4556  0.6053
  831MOL0     H12176   7.414   5.637   3.513 -0.4458  1.6678  0.2002
  831MOL0     H12177   7.451   5.471   3.262 -1.1186  2.5575  0.0563
  831MOL0     H12178   7.373   5.409   3.411  1.5863 -1.3642  1.6450
  831MOL0     H12179   7.670   5.453   3.397  1.7836 -2.2830  3.0371
  831MOL0     H12180   7.586   5.296   3.398 -3.2835 -0.0572 -2.3984
  831MOL0     H12181   7.478   5.392   3.603 -0.4470  0.1725 -3.2525
  831MOL0     H12182   7.618   5.517   3.600 -0.4256  0.2148  1.1128
  831MOL0     H12183   7.827   5.155   3.695  1.0342 -0.6243 -1.7565
  831MOL0     H12184   7.443   5.848   3.519  0.7201  0.1914  0.2986
  831MOL0     H12185   7.410   6.092   3.530  0.5036 -0.2904  0.0725
  832MOL0     O12186   9.582   3.101   4.267  0.3269 -0.1174 -0.4190
  832MOL0     C12187   9.651   3.005   4.232  0.2189 -0.3640 -0.2603
  832MOL0     O12188   9.604   2.897   4.165  0.2087 -0.5862  0.0998
  832MOL0     C12189   9.486   2.870   4.121  0.4198 -1.0146  0.9673
  832MOL0     C12190   9.478   2.786   4.009 -0.6842 -0.2465 -0.0577
  832MOL0     C12191   9.350   2.756   3.961 -0.9018 -0.6921 -0.8448
  832MOL0     C12192   9.231   2.809   4.005 -0.1970 -0.1425 -0.4217
  832MOL0     O12193   9.112   2.779   3.944  0.0455  0.0005  0.3456
  832MOL0     C12194   9.064   2.882   3.855 -0.2829  0.6152  0.3716
  832MOL0     C12195   8.929   2.845   3.794 -0.9107  0.6153 -0.7644
  832MOL0     C12196   8.827   2.771   3.889  0.0065  0.0627  0.2542
  832MOL0     C12197   8.753   2.861   3.990  0.6085 -0.2200  0.3363
  832MOL0     C12198   8.659   2.783   4.085  0.6180 -0.0026  0.0992
  832MOL0     C12199   8.734   2.672   4.171  0.8071  0.2541  0.1634
  832MOL0     C12200   8.649   2.630   4.295  0.1106  0.2948 -0.3687
  832MOL0     C12201   8.522   2.545   4.266 -0.3391 -0.0510 -0.9493
  832MOL0     N12202   8.468   2.511   4.396  0.5151  1.6379  0.0753
  832MOL0     C12203   8.363   2.555   4.469 -0.2370 -0.1957  0.3688
  832MOL0     C12204   8.348   2.461   4.564 -0.7648  0.2907 -0.1479
  832MOL0     C12205   8.229   2.466   4.654  0.6397 -0.2156  0.0814
  832MOL0     C12206   8.101   2.432   4.582  0.4344 -0.3064  0.7590
  832MOL0     C12207   7.975   2.496   4.651  1.1085 -0.1698  0.3770
  832MOL0     C12208   7.844   2.446   4.578  0.1096  0.2229 -0.2078
  832MOL0     O12209   7.813   2.302   4.591 -0.3474 -0.3661 -0.2209
  832MOL0     C12210   7.687   2.258   4.568  0.6549  0.4073 -0.0240
  832MOL0     C12211   7.669   2.128   4.600 -0.6680 -0.0020 -0.8646
  832MOL0     C12212   7.550   2.067   4.582 -0.3709 -0.3133  0.5198
  832MOL0     C12213   7.533   1.927   4.636 -0.1880  0.5124 -0.5421
  832MOL0     C12214   7.445   2.145   4.529  0.2102 -0.4288  0.4131
  832MOL0     C12215   7.306   2.096   4.486 -0.2689  0.0983  0.5328
  832MOL0     O12216   7.207   2.193   4.478  0.7485  0.2930  0.0907
  832MOL0     C12217   7.066   2.171   4.484  0.1037  0.1415 -0.3246
  832MOL0     C12218   6.985   2.281   4.438 -1.0142 -0.2295  0.3181
  832MOL0     C12219   6.848   2.283   4.425  0.0687  0.6356  0.3239
  832MOL0     C12220   6.777   2.168   4.475  0.3449  0.0174  0.1620
  832MOL0     O12221   6.645   2.140   4.470  0.3706  0.6234  0.1751
  832MOL0     C12222   6.562   2.250   4.429  0.7892  0.5357 -0.1704
  832MOL0     C12223   6.420   2.207   4.463 -0.0360  0.5597  0.3612
  832MOL0     C12224   6.323   2.305   4.406  0.9591  0.1881  0.1193
  832MOL0     C12225   6.232   2.241   4.303 -0.4153  0.4168  0.2205
  832MOL0     C12226   6.109   2.183   4.372 -0.2921 -0.8908 -0.7137
  832MOL0     C12227   6.145   2.052   4.437 -0.1628  0.0365  0.4114
  832MOL0     C12228   6.008   1.970   4.436 -0.4556  0.2987 -0.1056
  832MOL0     C12229   6.027   1.835   4.490  1.5239  0.4770 -0.7325
  832MOL0    Cl12230   5.869   1.753   4.523 -0.3053 -0.1554 -0.5035
  832MOL0     C12231   6.855   2.060   4.529 -0.0815 -0.4227  0.1528
  832MOL0     C12232   7.000   2.066   4.533  0.7815  1.3318  0.0481
  832MOL0     O12233   7.291   1.976   4.454  0.0255 -0.1221 -0.4193
  832MOL0     C12234   7.468   2.277   4.487  0.9583 -0.0031 -0.1088
  832MOL0     C12235   7.587   2.344   4.512  1.0588  0.5950  0.3881
  832MOL0     N12236   8.450   2.368   4.557  0.4381  0.3734 -0.4304
  832MOL0     N12237   8.522   2.399   4.455 -0.0164 -0.6077  0.6082
  832MOL0     C12238   9.238   2.889   4.120 -0.3591  0.0958  1.2556
  832MOL0     C12239   9.358   2.916   4.177  0.3316  0.5399 -0.6905
  832MOL0     C12240   9.794   2.998   4.271  1.3177 -0.3129 -0.3074
  832MOL0     C12241   9.866   2.879   4.284  0.8155 -0.0042 -0.0672
  832MOL0     C12242   9.999   2.875   4.331 -0.4228 -0.9156 -0.6556
  832MOL0     C12243  10.057   2.998   4.367 -1.3376 -1.4719  1.3181
  832MOL0     O12244  10.197   3.002   4.398  0.0361  0.2506 -0.5807
  832MOL0     C12245  10.269   3.119   4.423  1.1024 -0.2229  0.6231
  832MOL0     C12246  10.422   3.098   4.369  0.3546  0.1167  0.1132
  832MOL0     C12247  10.505   3.209   4.423 -0.6116  0.4107  0.0922
  832MOL0     C12248  10.570   3.185   4.562  0.4025 -0.4434  0.1725
  832MOL0     C12249  10.646   3.308   4.592 -0.0475 -0.5872 -0.3219
  832MOL0     C12250  10.704   3.409   4.625  0.4136 -0.3183 -0.1634
  832MOL0     C12251   9.985   3.117   4.349  0.7668  0.0455 -1.2111
  832MOL0     C12252   9.850   3.116   4.309  0.2651 -0.3749 -0.5482
  832MOL0     H12253   9.566   2.758   3.953 -1.9178  0.4307 -2.4677
  832MOL0     H12254   9.352   2.695   3.871  0.6097 -2.4275  0.2936
  832MOL0     H12255   9.049   2.980   3.901 -1.8601  0.8316 -0.5221
  832MOL0     H12256   9.140   2.884   3.776  0.9808  4.6572  1.4060
  832MOL0     H12257   8.875   2.939   3.776  1.1349  1.6721 -1.6576
  832MOL0     H12258   8.935   2.792   3.699  2.0733 -1.5579  0.4786
  832MOL0     H12259   8.755   2.723   3.823 -0.4834  0.4533  0.5004
  832MOL0     H12260   8.885   2.693   3.940  0.1454  0.2510  0.3880
  832MOL0     H12261   8.820   2.920   4.053  0.5282  0.5371 -0.2712
  832MOL0     H12262   8.692   2.928   3.928  0.1337  2.0343  3.0362
  832MOL0     H12263   8.614   2.856   4.154  1.4916 -2.1299  3.1645
  832MOL0     H12264   8.585   2.722   4.032 -1.1901 -1.6305  4.0667
  832MOL0     H12265   8.757   2.583   4.112 -5.3433 -1.7343  0.1543
  832MOL0     H12266   8.829   2.709   4.210  1.1070  1.3349 -1.4749
  832MOL0     H12267   8.719   2.573   4.357  0.0893 -0.2141 -0.8078
  832MOL0     H12268   8.629   2.714   4.362  1.5567 -0.0750  0.5705
  832MOL0     H12269   8.546   2.453   4.212  0.1816 -0.1106 -0.6228
  832MOL0     H12270   8.460   2.603   4.198 -2.1851  0.0413  0.7110
  832MOL0     H12271   8.298   2.639   4.446 -0.6207  0.1306  2.4520
  832MOL0     H12272   8.242   2.404   4.744  1.7299 -0.2181 -0.0573
  832MOL0     H12273   8.222   2.565   4.699  3.1981  0.1001 -0.0546
  832MOL0     H12274   8.074   2.327   4.571  0.5122 -0.2535 -0.0251
  832MOL0     H12275   8.098   2.467   4.478 -0.1810 -1.1804  0.4659
  832MOL0     H12276   7.987   2.605   4.644  3.6458 -0.2312  2.2226
  832MOL0     H12277   7.964   2.464   4.755 -3.4557  0.3460  0.2521
  832MOL0     H12278   7.846   2.478   4.473 -0.5053 -1.0070 -0.6176
  832MOL0     H12279   7.767   2.503   4.631 -1.3250 -0.7114 -1.1953
  832MOL0     H12280   7.760   2.075   4.629 -0.4342  0.6419 -0.3971
  832MOL0     H12281   7.540   1.854   4.554 -2.0643 -2.0085  1.3747
  832MOL0     H12282   7.611   1.908   4.710 -1.3437  1.5866  1.0225
  832MOL0     H12283   7.435   1.923   4.686 -1.5716  0.2085 -3.0875
  832MOL0     H12284   7.037   2.373   4.413 -2.3606  0.3475 -0.4294
  832MOL0     H12285   6.795   2.368   4.382 -1.9958  0.1067  1.6860
  832MOL0     H12286   6.579   2.348   4.475  2.0599 -0.6421  2.0474
  832MOL0     H12287   6.578   2.249   4.320 -0.4416  1.7338 -0.3953
  832MOL0     H12288   6.405   2.106   4.422 -1.0393  0.8573 -0.0230
  832MOL0     H12289   6.407   2.207   4.572 -2.5309  1.3837  0.1147
  832MOL0     H12290   6.381   2.376   4.347  0.3229 -0.8999 -1.9061
  832MOL0     H12291   6.270   2.365   4.480 -2.7853 -0.4151 -1.8173
  832MOL0     H12292   6.188   2.307   4.227 -2.8270  0.4195  1.5221
  832MOL0     H12293   6.290   2.173   4.239 -1.0113  1.2216 -1.2379
  832MOL0     H12294   6.041   2.174   4.288 -0.5882  1.6224 -0.8038
  832MOL0     H12295   6.066   2.253   4.444  0.9410  0.3039 -1.1075
  832MOL0     H12296   6.217   1.999   4.373 -2.4045 -1.3273 -1.1326
  832MOL0     H12297   6.199   2.063   4.531  0.4458 -2.0639  0.3495
  832MOL0     H12298   5.967   1.962   4.335 -1.1624 -0.9189  0.2509
  832MOL0     H12299   5.938   2.022   4.502  0.8636  3.4250 -1.0071
  832MOL0     H12300   6.072   1.820   4.588 -3.1139 -1.8282  1.3646
  832MOL0     H12301   6.096   1.779   4.425  2.6883  1.9808 -0.8628
  832MOL0     H12302   6.788   1.983   4.565 -0.2218 -2.1869 -3.4695
  832MOL0     H12303   7.041   1.975   4.576 -1.6324  0.1866  0.0859
  832MOL0     H12304   7.392   2.325   4.425  2.0294  2.3945  0.3389
  832MOL0     H12305   7.609   2.449   4.493  2.0078  0.9400  3.0017
  832MOL0     H12306   9.154   2.937   4.170 -2.5578  1.1682 -2.9608
  832MOL0     H12307   9.358   2.985   4.261 -2.3788 -0.1710 -0.0208
  832MOL0     H12308   9.821   2.784   4.259  0.6641 -0.4731  1.8237
  832MOL0     H12309  10.040   2.775   4.335  3.8733  0.6980  0.1915
  832MOL0     H12310  10.219   3.207   4.381  2.0135  0.8508  1.7109
  832MOL0     H12311  10.273   3.135   4.531 -0.7283  0.9222  0.5802
  832MOL0     H12312  10.435   3.093   4.261  3.4929 -4.2743  0.4224
  832MOL0     H12313  10.448   3.001   4.413  0.2142  0.8806  1.9633
  832MOL0     H12314  10.436   3.292   4.435 -0.4369  1.7003 -5.2450
  832MOL0     H12315  10.580   3.238   4.348 -2.0111  1.1630 -1.0660
  832MOL0     H12316  10.635   3.097   4.567 -0.0357 -1.1053 -3.2620
  832MOL0     H12317  10.488   3.163   4.631  0.1476 -0.9716 -0.2821
  832MOL0     H12318  10.740   3.506   4.654  0.5607 -0.8572  1.5382
  832MOL0     H12319  10.021   3.214   4.382 -1.9554  1.3785 -1.8636
  832MOL0     H12320   9.792   3.209   4.308 -0.3736 -0.7626 -0.3520
  833MOL0     O12321   1.376  11.058  10.159 -0.2994  0.5227  0.0430
  833MOL0     C12322   1.338  11.163  10.204  0.0606 -0.8709  0.3033
  833MOL0     O12323   1.289  11.272  10.126  0.3081  0.3168 -1.0268
  833MOL0     C12324   1.280  11.252   9.990  0.6451 -0.2127  0.2408
  833MOL0     C12325   1.392  11.234   9.910 -0.0099  0.5586  0.9381
  833MOL0     C12326   1.375  11.230   9.769  0.3797  0.6353  0.1156
  833MOL0     C12327   1.250  11.241   9.700  0.1938  0.4232 -0.0106
  833MOL0     O12328   1.236  11.232   9.564  0.7896 -0.0312  0.1784
  833MOL0     C12329   1.106  11.225   9.509 -0.0210  0.0582  0.6884
  833MOL0     C12330   1.099  11.233   9.359 -0.4072  0.0990  0.1456
  833MOL0     C12331   1.169  11.100   9.293 -1.3737  0.1884  0.2083
  833MOL0     C12332   1.192  11.107   9.146 -0.6497  0.7388 -0.9861
  833MOL0     C12333   1.234  10.972   9.097 -0.0350 -0.0677  0.8911
  833MOL0     C12334   1.258  10.975   8.943 -0.8076  0.0153  1.0911
  833MOL0     C12335   1.269  10.835   8.875 -0.6390  0.2121  0.9316
  833MOL0     C12336   1.143  10.745   8.885 -0.6198  0.6980 -1.1981
  833MOL0     N12337   1.016  10.817   8.865 -0.2024 -1.1152 -0.9324
  833MOL0     C12338   0.906  10.811   8.947  0.6521 -0.3779 -0.3316
  833MOL0     C12339   0.809  10.882   8.877 -0.0844 -0.2060  0.6814
  833MOL0     C12340   0.662  10.904   8.917 -0.1057 -1.1118 -0.4568
  833MOL0     C12341   0.629  11.054   8.928  0.0466  0.3287  0.3311
  833MOL0     C12342   0.695  11.125   9.041  1.0720 -0.2811 -0.3538
  833MOL0     C12343   0.676  11.059   9.178  0.1390  1.4280  0.1278
  833MOL0     O12344   0.671  11.155   9.290 -0.0137 -0.5315  0.1979
  833MOL0     C12345   0.724  11.121   9.410  0.2311 -1.2717 -0.6184
  833MOL0     C12346   0.709  11.221   9.501  0.1716  0.4082  0.0198
  833MOL0     C12347   0.742  11.216   9.637 -0.9886  0.5666 -0.8800
  833MOL0     C12348   0.721  11.328   9.726  0.1328 -0.6366 -0.3394
  833MOL0     C12349   0.812  11.098   9.683  0.1240  0.5603  0.0091
  833MOL0     C12350   0.872  11.062   9.820 -0.0731  0.4264  0.5197
  833MOL0     O12351   0.959  10.949   9.826 -0.2324 -0.1583 -0.0636
  833MOL0     C12352   0.978  10.905   9.951 -0.4278 -0.0946 -0.0839
  833MOL0     C12353   1.109  10.899   9.990  0.4274 -0.3113  0.5832
  833MOL0     C12354   1.137  10.839  10.115  0.7785  0.6585 -0.3583
  833MOL0     C12355   1.033  10.803  10.198 -0.3355  0.2925  0.4604
  833MOL0     O12356   1.067  10.745  10.318 -0.2099  0.1512  0.2943
  833MOL0     C12357   1.148  10.830  10.401  0.4260  0.6998  0.5828
  833MOL0     C12358   1.129  10.758  10.540  0.0580 -0.1730  0.1081
  833MOL0     C12359   1.233  10.817  10.646  0.0804 -0.7844  0.1487
  833MOL0     C12360   1.210  10.757  10.791  0.1569  1.1900  0.8195
  833MOL0     C12361   1.314  10.820  10.887 -0.2376 -0.4146  0.1188
  833MOL0     C12362   1.289  10.783  11.032  0.9617  0.1267  0.4448
  833MOL0     C12363   1.389  10.836  11.137 -1.0554  0.5596  0.5299
  833MOL0     C12364   1.523  10.761  11.128 -0.8289 -0.0749 -0.6430
  833MOL0    Cl12365   1.619  10.776  11.283 -0.4515  0.1433  0.4458
  833MOL0     C12366   0.906  10.818  10.163  0.3953 -0.2485 -1.0086
  833MOL0     C12367   0.871  10.863  10.035 -1.0233  0.4543 -0.1931
  833MOL0     O12368   0.821  11.112   9.915 -0.0564  0.3448 -0.2303
  833MOL0     C12369   0.826  10.994   9.582 -0.2116  0.0347 -0.8693
  833MOL0     C12370   0.780  11.009   9.453  0.4932  0.2187  1.3651
  833MOL0     N12371   0.868  10.946   8.769  0.7397  0.5746  0.4316
  833MOL0     N12372   0.984  10.903   8.759 -0.0142  0.2479 -0.9303
  833MOL0     C12373   1.144  11.264   9.791  0.1199  0.3164  0.3553
  833MOL0     C12374   1.151  11.268   9.928  0.6020  1.3622 -0.5782
  833MOL0     C12375   1.358  11.193  10.350 -0.4952 -0.4126 -0.1241
  833MOL0     C12376   1.422  11.103  10.443 -0.1639  0.0721  0.7660
  833MOL0     C12377   1.435  11.128  10.583  0.0535 -0.9690  0.7047
  833MOL0     C12378   1.400  11.254  10.631  0.4718 -0.7153 -0.0144
  833MOL0     O12379   1.416  11.281  10.764 -0.9302  0.1933  0.1710
  833MOL0     C12380   1.383  11.402  10.820 -0.2273  0.5103 -0.5425
  833MOL0     C12381   1.236  11.435  10.837 -0.2075  0.7053 -0.4238
  833MOL0     C12382   1.236  11.579  10.880 -0.1638  0.1392 -0.7448
  833MOL0     C12383   1.088  11.610  10.926 -0.5114 -0.6489  0.6100
  833MOL0     C12384   1.101  11.720  11.021 -0.0096  0.6400 -0.5049
  833MOL0     C12385   1.096  11.797  11.110  0.2426 -0.7521  0.4712
  833MOL0     C12386   1.359  11.349  10.537 -0.3589 -0.1195 -0.4137
  833MOL0     C12387   1.343  11.322  10.403  0.0484  0.2447 -0.8410
  833MOL0     H12388   1.481  11.214   9.968 -1.2774  0.7158  3.0528
  833MOL0     H12389   1.452  11.193   9.701  0.8361 -2.6498  2.2057
  833MOL0     H12390   1.065  11.124   9.519 -0.3312 -0.1115 -1.8362
  833MOL0     H12391   1.034  11.299   9.545 -0.2915 -1.1297  2.7557
  833MOL0     H12392   0.992  11.234   9.335 -0.7844 -0.0819  1.7561
  833MOL0     H12393   1.150  11.322   9.320 -1.9345  0.8551 -0.1838
  833MOL0     H12394   1.271  11.092   9.332 -0.5127  3.3856 -1.0040
  833MOL0     H12395   1.096  11.022   9.317 -4.1366  1.8389 -2.1632
  833MOL0     H12396   1.106  11.131   9.083 -1.2377 -0.4550 -0.6562
  833MOL0     H12397   1.267  11.184   9.124  0.1014  0.6147  0.9340
  833MOL0     H12398   1.335  10.958   9.135  0.2042 -0.3994  0.1617
  833MOL0     H12399   1.165  10.894   9.131 -1.6340 -0.2418 -2.3917
  833MOL0     H12400   1.188  11.034   8.884 -0.5346 -1.1967 -0.5081
  833MOL0     H12401   1.348  11.032   8.918 -0.9486 -0.5261 -0.8198
  833MOL0     H12402   1.279  10.849   8.767  1.4039  0.1333  1.0736
  833MOL0     H12403   1.349  10.775   8.918 -1.4897 -0.9193  0.9920
  833MOL0     H12404   1.129  10.708   8.987 -1.0868  3.9027  0.0063
  833MOL0     H12405   1.149  10.658   8.818 -0.4479  0.0614 -0.3826
  833MOL0     H12406   0.892  10.768   9.046 -2.5027  1.0750 -0.0303
  833MOL0     H12407   0.595  10.855   8.846 -3.3231  0.2150  1.4410
  833MOL0     H12408   0.646  10.865   9.018 -3.9071  1.7493  0.2439
  833MOL0     H12409   0.520  11.066   8.934 -0.4920 -0.8054 -3.6689
  833MOL0     H12410   0.655  11.097   8.830 -1.8025 -0.6379 -0.6496
  833MOL0     H12411   0.667  11.228   9.061  1.9270  0.8428 -4.0620
  833MOL0     H12412   0.804  11.128   9.033  1.0507  0.1969 -0.4592
  833MOL0     H12413   0.757  10.986   9.187 -0.2162  1.0085 -0.0065
  833MOL0     H12414   0.582  11.004   9.187 -0.1208  2.1863  3.0547
  833MOL0     H12415   0.655  11.310   9.467  1.2438  1.3948  0.8348
  833MOL0     H12416   0.817  11.359   9.768 -0.7562  4.0444 -1.1515
  833MOL0     H12417   0.694  11.423   9.678  1.2359 -0.0154  0.2149
  833MOL0     H12418   0.646  11.304   9.802  0.2976  0.6789  0.2626
  833MOL0     H12419   1.176  10.952   9.923 -0.2936  1.3497  1.1264
  833MOL0     H12420   1.239  10.833  10.153  0.1282  1.1426  1.6229
  833MOL0     H12421   1.255  10.810  10.386  1.1567  3.2910  1.7105
  833MOL0     H12422   1.136  10.938  10.404  1.4478  0.8192  1.3993
  833MOL0     H12423   1.027  10.752  10.579 -0.3502  0.8912 -0.7408
  833MOL0     H12424   1.155  10.655  10.514 -1.3113  0.0827 -2.6371
  833MOL0     H12425   1.209  10.924  10.653 -1.4901 -1.0592 -0.5904
  833MOL0     H12426   1.336  10.805  10.611 -0.6031 -1.7204 -1.6119
  833MOL0     H12427   1.111  10.788  10.825 -0.2159 -0.3252  1.1817
  833MOL0     H12428   1.213  10.648  10.793  0.9769  0.9518 -3.3789
  833MOL0     H12429   1.326  10.929  10.883 -0.6406 -0.3914 -0.9753
  833MOL0     H12430   1.416  10.789  10.861  0.3628  0.5382  1.2439
  833MOL0     H12431   1.188  10.810  11.062  1.2555 -1.7955  3.6226
  833MOL0     H12432   1.300  10.674  11.034  0.4549  0.0385 -0.7326
  833MOL0     H12433   1.339  10.840  11.235 -1.0420  2.7773  0.4956
  833MOL0     H12434   1.410  10.943  11.123  0.1213  0.7040  2.9483
  833MOL0     H12435   1.570  10.793  11.034 -1.6786 -0.2221 -1.1310
  833MOL0     H12436   1.507  10.653  11.117 -0.9575 -0.3532  1.8452
  833MOL0     H12437   0.840  10.799  10.248  3.9867  1.7500  2.6123
  833MOL0     H12438   0.768  10.882  10.005 -0.3493  0.6990 -2.5407
  833MOL0     H12439   0.851  10.895   9.620 -1.8286 -0.1177 -0.1013
  833MOL0     H12440   0.781  10.916   9.396 -1.8384 -0.0520  1.6827
  833MOL0     H12441   1.043  11.263   9.751 -0.0112 -3.5863  0.3691
  833MOL0     H12442   1.062  11.267   9.990  0.3057  1.7145 -0.9943
  833MOL0     H12443   1.440  11.000  10.414 -0.9212  0.1032  0.1234
  833MOL0     H12444   1.487  11.054  10.642  4.4557  0.3117 -1.1521
  833MOL0     H12445   1.440  11.396  10.913  0.7243  0.9151 -1.0863
  833MOL0     H12446   1.422  11.479  10.752 -0.3981  1.4446  0.3933
  833MOL0     H12447   1.195  11.366  10.912  1.7133  1.5358  1.4927
  833MOL0     H12448   1.175  11.425  10.747 -4.0644  2.0118  1.8106
  833MOL0     H12449   1.274  11.645  10.802  0.2359  0.7547 -0.0330
  833MOL0     H12450   1.292  11.585  10.974 -0.0243 -1.6042 -0.6667
  833MOL0     H12451   1.046  11.516  10.963  2.6863 -2.4692 -0.0670
  833MOL0     H12452   1.020  11.645  10.847  1.0389  0.7995 -0.1505
  833MOL0     H12453   1.095  11.858  11.199  1.7050 -2.1556  1.4858
  833MOL0     H12454   1.340  11.454  10.559  1.4408 -0.0879  1.2707
  833MOL0     H12455   1.285  11.398  10.350 -3.1746 -1.0184  0.5816
  834MOL0     O12456   3.635   1.562   2.997 -0.2067 -0.4442 -0.9026
  834MOL0     C12457   3.732   1.493   3.027  0.5609 -0.8438  0.2194
  834MOL0     O12458   3.788   1.478   3.146 -0.2139 -0.6548 -0.9629
  834MOL0     C12459   3.730   1.540   3.258  0.2034  1.0553 -0.8662
  834MOL0     C12460   3.824   1.586   3.345 -0.7854  0.5611  0.4590
  834MOL0     C12461   3.793   1.679   3.450 -0.4969  0.8847 -0.0297
  834MOL0     C12462   3.657   1.704   3.468 -0.2611 -0.0470 -0.5553
  834MOL0     O12463   3.608   1.794   3.560  0.9346  0.0506 -0.2107
  834MOL0     C12464   3.657   1.790   3.692  0.8346 -0.6102 -0.8282
  834MOL0     C12465   3.725   1.929   3.716 -0.1102  1.5140  0.4094
  834MOL0     C12466   3.780   1.943   3.860 -0.6248  0.8510 -0.5874
  834MOL0     C12467   3.792   2.093   3.893 -0.3859  0.2239  0.4543
  834MOL0     C12468   3.892   2.165   3.798 -0.3092  0.1511  0.6107
  834MOL0     C12469   3.923   2.313   3.840  0.5296 -0.3538  0.3075
  834MOL0     C12470   3.816   2.413   3.785 -0.4882 -0.3272 -0.8901
  834MOL0     C12471   3.864   2.454   3.639 -0.1532 -0.3298 -0.0634
  834MOL0     N12472   3.828   2.384   3.518 -0.0784  0.7229 -0.0215
  834MOL0     C12473   3.872   2.418   3.392  0.3732 -0.1522 -0.7890
  834MOL0     C12474   3.816   2.335   3.303 -0.0387  0.6655 -1.1258
  834MOL0     C12475   3.815   2.338   3.154  0.0637  0.5849  0.5768
  834MOL0     C12476   3.882   2.457   3.088  0.6094 -1.1412 -0.5462
  834MOL0     C12477   3.850   2.462   2.933 -0.3762  0.7293 -0.0508
  834MOL0     C12478   3.914   2.346   2.854  0.2574 -0.0568  0.5618
  834MOL0     O12479   3.821   2.320   2.746  0.3195  0.4051  0.0414
  834MOL0     C12480   3.864   2.352   2.613  0.7165  0.5271 -0.6208
  834MOL0     C12481   3.994   2.347   2.568 -0.4263 -0.3691 -0.2735
  834MOL0     C12482   4.031   2.420   2.450  0.2505 -0.5542 -0.4578
  834MOL0     C12483   4.181   2.434   2.422 -1.7875  0.6898  0.6217
  834MOL0     C12484   3.931   2.466   2.368  1.2748  0.0145  0.0143
  834MOL0     C12485   3.950   2.546   2.241  0.9380 -0.3978 -0.4840
  834MOL0     O12486   3.840   2.596   2.168  0.9131  0.0538 -0.1879
  834MOL0     C12487   3.864   2.655   2.050  0.2065  0.4606  0.5734
  834MOL0     C12488   3.857   2.796   2.049  0.9992 -0.6502  0.7215
  834MOL0     C12489   3.889   2.861   1.931  0.0008  0.1958  0.9271
  834MOL0     C12490   3.925   2.796   1.807  0.0567 -0.6211 -0.0918
  834MOL0     O12491   3.991   2.853   1.700 -0.1602  0.3334 -0.6070
  834MOL0     C12492   3.999   2.988   1.677  0.5566 -1.1983  1.0247
  834MOL0     C12493   4.058   3.006   1.544  1.3693  0.0677  0.5327
  834MOL0     C12494   3.941   3.009   1.435  0.8944 -0.2822  0.8096
  834MOL0     C12495   3.866   2.878   1.428  0.9088  0.1248 -0.4458
  834MOL0     C12496   3.764   2.881   1.314 -0.9253  0.5684  1.5976
  834MOL0     C12497   3.666   2.768   1.330 -0.7848 -0.5586  0.4674
  834MOL0     C12498   3.605   2.702   1.203 -0.3749  0.6478 -0.7258
  834MOL0     C12499   3.538   2.798   1.120  0.0080 -0.4256  0.4267
  834MOL0    Cl12500   3.406   2.908   1.179  0.7372 -0.0213  0.0510
  834MOL0     C12501   3.922   2.660   1.809  0.4433  1.0102  0.4068
  834MOL0     C12502   3.892   2.589   1.929 -0.2579  0.2933  1.2080
  834MOL0     O12503   4.070   2.567   2.208 -0.1009 -0.0893  0.2897
  834MOL0     C12504   3.794   2.447   2.403  0.0795 -0.4327 -0.0519
  834MOL0     C12505   3.761   2.397   2.521 -0.2854 -0.6407 -1.0048
  834MOL0     N12506   3.736   2.249   3.380 -0.6450  0.2363 -0.5896
  834MOL0     N12507   3.734   2.281   3.504 -0.5444  0.5987 -0.0527
  834MOL0     C12508   3.559   1.642   3.389 -0.1060 -0.8866  0.3702
  834MOL0     C12509   3.596   1.560   3.290 -0.6600 -0.2428  1.5845
  834MOL0     C12510   3.808   1.460   2.917 -1.0379  0.9109  0.1494
  834MOL0     C12511   3.802   1.520   2.787  0.3991  0.6861 -0.9300
  834MOL0     C12512   3.900   1.498   2.692  0.4285  0.4877 -0.3014
  834MOL0     C12513   3.999   1.408   2.715  0.1173  0.4367  0.3421
  834MOL0     O12514   4.091   1.386   2.614 -0.2628  0.4311 -0.2965
  834MOL0     C12515   4.227   1.420   2.644 -0.3176 -0.1387  0.3019
  834MOL0     C12516   4.325   1.412   2.520  0.4420 -0.0022 -0.3399
  834MOL0     C12517   4.325   1.269   2.459  0.0750  0.8137  0.2568
  834MOL0     C12518   4.424   1.242   2.352 -0.1532 -0.1121  0.7498
  834MOL0     C12519   4.427   1.350   2.252 -0.4373  0.5820 -0.0545
  834MOL0     C12520   4.448   1.435   2.168 -0.2610 -0.5985 -0.9456
  834MOL0     C12521   4.003   1.344   2.834 -0.2086  0.0315 -0.0779
  834MOL0     C12522   3.914   1.365   2.932 -0.4536  0.0396 -0.6722
  834MOL0     H12523   3.930   1.583   3.321 -1.3248 -1.5075 -2.1717
  834MOL0     H12524   3.865   1.735   3.508  1.6612 -0.6111 -1.1134
  834MOL0     H12525   3.567   1.780   3.753  0.9200 -0.0706 -0.6088
  834MOL0     H12526   3.711   1.700   3.724 -3.2822 -1.8332  3.8914
  834MOL0     H12527   3.807   1.944   3.645  0.3996  2.4110  1.1680
  834MOL0     H12528   3.648   2.005   3.702  0.3922  1.5659 -3.0941
  834MOL0     H12529   3.714   1.898   3.935  1.3754 -1.0365  0.1518
  834MOL0     H12530   3.872   1.885   3.875 -1.3534 -0.3478 -0.6867
  834MOL0     H12531   3.690   2.131   3.879 -0.1773  2.3099  3.5108
  834MOL0     H12532   3.814   2.105   4.000  1.8854  3.6449 -0.2287
  834MOL0     H12533   3.988   2.115   3.813 -0.4977 -1.1373 -2.0374
  834MOL0     H12534   3.861   2.155   3.694  3.6733  0.0516 -0.7492
  834MOL0     H12535   3.929   2.319   3.949 -0.8129  0.7759  0.3403
  834MOL0     H12536   4.020   2.352   3.808 -0.9042  3.6707  0.2911
  834MOL0     H12537   3.717   2.366   3.793  0.7922 -2.9117  0.8750
  834MOL0     H12538   3.824   2.513   3.829  4.0679  0.5795 -3.1988
  834MOL0     H12539   3.972   2.468   3.647 -0.0491  0.3478 -2.0188
  834MOL0     H12540   3.840   2.559   3.617  0.0922 -0.4089 -0.7519
  834MOL0     H12541   3.950   2.493   3.381  0.0274  0.1694 -1.0472
  834MOL0     H12542   3.876   2.250   3.134  2.7342  1.7029  3.0414
  834MOL0     H12543   3.712   2.326   3.119  0.9465  1.7507 -2.7416
  834MOL0     H12544   3.990   2.456   3.105  0.8140  1.9679 -1.1321
  834MOL0     H12545   3.830   2.548   3.118 -0.4954 -0.1728 -4.7766
  834MOL0     H12546   3.896   2.550   2.886 -0.9390  0.7848 -0.5087
  834MOL0     H12547   3.743   2.443   2.924  0.3496 -3.1813 -2.6008
  834MOL0     H12548   3.923   2.261   2.922  3.5698 -0.0098  0.3431
  834MOL0     H12549   4.020   2.356   2.829  0.0833 -0.7834 -0.5000
  834MOL0     H12550   4.074   2.322   2.637  0.2557  2.2285 -0.0073
  834MOL0     H12551   4.215   2.362   2.346  0.8378  1.0926  1.2987
  834MOL0     H12552   4.204   2.539   2.402 -0.4782  0.7624  2.2626
  834MOL0     H12553   4.246   2.426   2.509  1.8922  0.4471 -1.8737
  834MOL0     H12554   3.816   2.852   2.132 -1.6756  0.2455 -1.0638
  834MOL0     H12555   3.875   2.969   1.936 -0.4407  0.3681 -2.1782
  834MOL0     H12556   3.904   3.040   1.686 -0.7759 -3.4504  0.7836
  834MOL0     H12557   4.062   3.039   1.750 -1.1995  0.6696  1.3183
  834MOL0     H12558   4.110   3.101   1.526 -3.9898  3.0736 -1.5864
  834MOL0     H12559   4.124   2.921   1.526 -1.4792 -2.1663 -0.2079
  834MOL0     H12560   3.975   3.031   1.334 -3.9595  0.2974 -0.9562
  834MOL0     H12561   3.886   3.102   1.452  1.3855  0.4458 -1.3099
  834MOL0     H12562   3.938   2.796   1.422  2.8301  1.5945  1.0110
  834MOL0     H12563   3.817   2.861   1.524  4.6902 -1.8722  1.3804
  834MOL0     H12564   3.816   2.868   1.219 -1.4276  0.4054  1.3356
  834MOL0     H12565   3.717   2.980   1.312  0.2897  1.1644  2.1144
  834MOL0     H12566   3.720   2.696   1.392  0.4040 -0.6855 -0.6890
  834MOL0     H12567   3.588   2.806   1.397 -0.3361  4.1139 -1.3225
  834MOL0     H12568   3.529   2.631   1.236 -1.7516  2.0472 -0.7794
  834MOL0     H12569   3.677   2.648   1.141  1.0724 -0.0116  1.4102
  834MOL0     H12570   3.488   2.733   1.047 -3.6132  1.5478  0.9397
  834MOL0     H12571   3.611   2.857   1.064 -2.7003  1.8757 -0.9065
  834MOL0     H12572   3.955   2.598   1.727 -0.5988  0.6117  0.2771
  834MOL0     H12573   3.912   2.483   1.931  1.1071  0.4469 -0.8159
  834MOL0     H12574   3.719   2.493   2.339  0.7872 -0.3687 -0.8472
  834MOL0     H12575   3.658   2.381   2.552 -0.6146  1.6412 -0.8149
  834MOL0     H12576   3.455   1.674   3.393  0.3127  0.6953 -0.3983
  834MOL0     H12577   3.528   1.517   3.217  2.0810  0.3520 -1.5646
  834MOL0     H12578   3.720   1.590   2.778 -0.3208  0.4163  2.3989
  834MOL0     H12579   3.897   1.544   2.594  0.1886 -1.2496 -1.1333
  834MOL0     H12580   4.224   1.521   2.687  2.8569  0.2118 -0.1228
  834MOL0     H12581   4.254   1.349   2.723 -2.3666 -2.6577 -1.0951
  834MOL0     H12582   4.426   1.436   2.555 -0.8663  1.9828  2.4440
  834MOL0     H12583   4.287   1.486   2.449 -0.4715  2.3573  2.4174
  834MOL0     H12584   4.226   1.252   2.415  0.4774 -0.4904 -0.1934
  834MOL0     H12585   4.329   1.200   2.543  3.9121  2.0937  1.3172
  834MOL0     H12586   4.391   1.149   2.304 -0.5151  0.7851 -0.8330
  834MOL0     H12587   4.529   1.226   2.379  0.1205 -2.0798 -1.1646
  834MOL0     H12588   4.479   1.519   2.109  0.2027  0.3969  0.6464
  834MOL0     H12589   4.080   1.268   2.842  0.7966  0.6649 -2.6126
  834MOL0     H12590   3.935   1.316   3.026  2.2854  2.3644  0.0628
  835MOL0     O12591   6.412   7.656   9.687 -0.5798 -0.1149 -0.2108
  835MOL0     C12592   6.370   7.553   9.638  0.0733  0.3390 -0.5379
  835MOL0     O12593   6.240   7.519   9.631 -0.0985 -0.4280 -0.1140
  835MOL0     C12594   6.145   7.568   9.709  0.9024 -0.2266 -0.5735
  835MOL0     C12595   6.167   7.656   9.823 -0.6549 -0.9777  0.3971
  835MOL0     C12596   6.053   7.684   9.899 -0.1478 -0.0707  0.3741
  835MOL0     C12597   5.926   7.647   9.874  0.3476 -0.5532  0.4338
  835MOL0     O12598   5.819   7.698   9.944 -0.0528  0.6113 -0.1224
  835MOL0     C12599   5.689   7.647   9.937 -0.3005 -0.0503  0.1301
  835MOL0     C12600   5.669   7.498   9.981  0.2821 -0.2897 -0.5292
  835MOL0     C12601   5.686   7.475  10.135  0.0715  0.3387  0.3002
  835MOL0     C12602   5.572   7.525  10.222 -0.2910  0.8306  0.0013
  835MOL0     C12603   5.584   7.485  10.370  0.2453  0.2855 -0.1006
  835MOL0     C12604   5.686   7.571  10.448 -0.2655 -0.4648 -0.4071
  835MOL0     C12605   5.695   7.534  10.595 -0.5675 -0.0247 -0.8301
  835MOL0     C12606   5.832   7.533  10.661  0.2893 -0.4189  0.0422
  835MOL0     N12607   5.914   7.423  10.614  0.2627  0.3693  0.8152
  835MOL0     C12608   6.027   7.437  10.543 -0.3972 -0.8380  0.7054
  835MOL0     C12609   6.065   7.308  10.514  0.2331  0.5528  0.5002
  835MOL0     C12610   6.192   7.274  10.437  0.2563  0.6028  0.0256
  835MOL0     C12611   6.316   7.333  10.476 -0.0600 -0.4020  0.3580
  835MOL0     C12612   6.347   7.311  10.630  0.0226 -0.8467 -0.6934
  835MOL0     C12613   6.303   7.428  10.722 -0.4212 -0.8667  0.6457
  835MOL0     O12614   6.350   7.551  10.657  0.0504  1.0274  0.0455
  835MOL0     C12615   6.337   7.656  10.741  0.1756  0.8221  0.9595
  835MOL0     C12616   6.445   7.709  10.805  0.4349 -0.2183 -0.1249
  835MOL0     C12617   6.438   7.821  10.891  0.1922 -0.1559 -0.7740
  835MOL0     C12618   6.574   7.876  10.950 -0.0959  0.4541  0.3123
  835MOL0     C12619   6.311   7.880  10.914 -0.4632  0.3664 -0.1294
  835MOL0     C12620   6.290   8.008  10.985 -0.0925 -0.0602  0.5938
  835MOL0     O12621   6.230   8.102  10.903 -0.2140 -0.4466  0.8191
  835MOL0     C12622   6.218   8.233  10.935 -0.8622  0.5038 -0.2924
  835MOL0     C12623   6.291   8.311  11.021 -0.7064  0.4017 -0.2993
  835MOL0     C12624   6.246   8.446  11.044 -0.2501  0.3130  0.1328
  835MOL0     C12625   6.140   8.506  10.978 -0.1076  0.3559 -0.3790
  835MOL0     O12626   6.115   8.638  11.001 -0.4767 -0.3822  0.1123
  835MOL0     C12627   5.983   8.663  11.062  0.3233 -0.0770 -0.5807
  835MOL0     C12628   5.982   8.804  11.125 -0.2865 -0.3121  0.3379
  835MOL0     C12629   6.102   8.856  11.217 -0.2599  0.9057 -0.1399
  835MOL0     C12630   6.102   9.013  11.224  0.4005 -0.0061  0.5689
  835MOL0     C12631   6.145   9.076  11.092  0.3313  0.6084  0.4334
  835MOL0     C12632   6.283   9.035  11.026  0.2695 -0.0358 -0.1559
  835MOL0     C12633   6.388   9.044  11.137 -0.4284 -0.5127  0.1217
  835MOL0     C12634   6.529   9.067  11.080 -0.4525 -0.0659 -0.4504
  835MOL0    Cl12635   6.527   9.235  11.012  0.0984  0.2852  0.0400
  835MOL0     C12636   6.064   8.424  10.888 -0.1610  0.1909 -0.2210
  835MOL0     C12637   6.102   8.287  10.872 -0.0916  0.8949  1.2624
  835MOL0     O12638   6.321   8.022  11.098 -0.6325  0.1448 -0.0982
  835MOL0     C12639   6.200   7.816  10.874  0.3291  0.5198 -0.0590
  835MOL0     C12640   6.211   7.705  10.784  0.2601 -0.5057  0.3890
  835MOL0     N12641   5.974   7.222  10.576  0.2294 -0.2572 -0.0146
  835MOL0     N12642   5.882   7.294  10.633  0.9419  1.1282  0.0482
  835MOL0     C12643   5.910   7.563   9.761  0.7484  1.1154 -0.0906
  835MOL0     C12644   6.014   7.520   9.679  0.0675 -0.0412 -0.9749
  835MOL0     C12645   6.475   7.453   9.604 -0.5153  0.2001 -0.7135
  835MOL0     C12646   6.468   7.360   9.501  0.1033  0.9756  0.2797
  835MOL0     C12647   6.557   7.262   9.473  0.0546  0.6680 -0.7766
  835MOL0     C12648   6.679   7.274   9.529 -0.3207  0.0214  0.4494
  835MOL0     O12649   6.783   7.202   9.475  0.0726 -0.2812  0.5956
  835MOL0     C12650   6.883   7.287   9.412  0.5958 -0.5553  0.4056
  835MOL0     C12651   6.830   7.369   9.291  0.5397 -0.5804  0.6066
  835MOL0     C12652   6.783   7.291   9.167  1.3366  0.2690  0.2595
  835MOL0     C12653   6.719   7.387   9.060  0.8032 -0.1857 -0.6748
  835MOL0     C12654   6.604   7.463   9.120 -0.2093  1.1552  0.0113
  835MOL0     C12655   6.511   7.502   9.184 -0.1315 -0.3872  0.3009
  835MOL0     C12656   6.706   7.373   9.634  0.0497  0.9115  0.9647
  835MOL0     C12657   6.602   7.455   9.666 -0.0663 -0.2400 -0.1829
  835MOL0     H12658   6.259   7.711   9.844 -0.2587 -1.3368 -0.3472
  835MOL0     H12659   6.050   7.765   9.972 -0.1815  1.4262 -1.2154
  835MOL0     H12660   5.630   7.720   9.994 -0.7714  0.6262 -1.1840
  835MOL0     H12661   5.653   7.656   9.835  1.9377 -1.9174 -0.9106
  835MOL0     H12662   5.572   7.457   9.953 -1.1110  0.3276  2.9135
  835MOL0     H12663   5.749   7.443   9.931  3.1365  2.8866  0.1354
  835MOL0     H12664   5.712   7.372  10.160  0.3871  0.0075 -1.3060
  835MOL0     H12665   5.777   7.525  10.170 -0.7773  0.3592  2.6828
  835MOL0     H12666   5.566   7.634  10.216 -2.0296  0.6943 -2.8207
  835MOL0     H12667   5.482   7.482  10.177 -0.4509 -1.0017  1.9085
  835MOL0     H12668   5.486   7.496  10.417 -0.5762  2.6920 -2.2085
  835MOL0     H12669   5.620   7.382  10.384 -2.5104 -0.6173  1.0238
  835MOL0     H12670   5.786   7.565  10.405  0.1280  0.7737  0.2747
  835MOL0     H12671   5.654   7.675  10.442  0.9389 -0.0685 -0.1758
  835MOL0     H12672   5.646   7.618  10.645  2.3155  1.0052  0.4592
  835MOL0     H12673   5.646   7.438  10.616  1.7644 -0.9200  0.9440
  835MOL0     H12674   5.836   7.519  10.770 -3.4698 -2.4677  0.0776
  835MOL0     H12675   5.882   7.624  10.627 -2.2474  0.2054 -2.3587
  835MOL0     H12676   6.074   7.528  10.508 -1.7578 -0.5827 -0.5797
  835MOL0     H12677   6.208   7.166  10.425 -0.9321  0.6282 -2.4589
  835MOL0     H12678   6.173   7.323  10.342  2.8976  4.5419  1.2798
  835MOL0     H12679   6.309   7.436  10.439 -0.2908 -0.9340 -1.1564
  835MOL0     H12680   6.399   7.288  10.421  0.8968  1.3593  0.2910
  835MOL0     H12681   6.455   7.306  10.645  0.0625  1.6543  0.3017
  835MOL0     H12682   6.302   7.216  10.659  0.3825 -1.1596 -1.1448
  835MOL0     H12683   6.354   7.420  10.819  0.2949 -0.9050  0.2732
  835MOL0     H12684   6.194   7.431  10.721 -0.4735 -2.1741  0.9095
  835MOL0     H12685   6.543   7.661  10.807  0.7638  0.4488  1.7677
  835MOL0     H12686   6.590   7.842  11.053 -1.7661  0.1192  0.4973
  835MOL0     H12687   6.657   7.851  10.883  0.3617  2.7501 -0.0588
  835MOL0     H12688   6.589   7.984  10.945 -0.8640  0.5328 -0.6951
  835MOL0     H12689   6.381   8.271  11.066  0.1210 -0.5439 -2.6303
  835MOL0     H12690   6.291   8.516  11.114  1.9558 -1.0781  0.2077
  835MOL0     H12691   5.900   8.669  10.990 -0.3632  0.0859  0.2141
  835MOL0     H12692   5.971   8.586  11.138  2.2558  0.2433  0.0827
  835MOL0     H12693   5.975   8.879  11.046 -0.6922 -0.2003  0.4797
  835MOL0     H12694   5.885   8.789  11.174  0.5488 -1.9941  1.5853
  835MOL0     H12695   6.198   8.821  11.177 -1.4512 -1.6473 -1.0094
  835MOL0     H12696   6.092   8.800  11.310 -0.3675  2.5495  0.8791
  835MOL0     H12697   6.007   9.055  11.258  0.8180  1.3798  0.1051
  835MOL0     H12698   6.182   9.027  11.297  2.4610 -0.5716 -1.4632
  835MOL0     H12699   6.139   9.183  11.116 -4.8530  0.3700  1.5164
  835MOL0     H12700   6.064   9.073  11.017  0.1048  0.1501  0.6963
  835MOL0     H12701   6.267   8.932  10.993  0.0367  0.1582 -0.6571
  835MOL0     H12702   6.313   9.093  10.938 -0.1396 -2.4472 -1.9968
  835MOL0     H12703   6.392   8.954  11.199  0.3684 -1.2281 -0.9239
  835MOL0     H12704   6.372   9.135  11.196  1.7926 -0.8261  1.3162
  835MOL0     H12705   6.522   8.993  11.000 -1.8516 -0.5308  0.0635
  835MOL0     H12706   6.614   9.045  11.144 -0.9295 -2.8277 -0.6497
  835MOL0     H12707   5.978   8.471  10.843  0.4357 -1.4527 -3.3529
  835MOL0     H12708   6.040   8.224  10.809  1.3372  0.9388 -0.2350
  835MOL0     H12709   6.101   7.855  10.899 -0.5307 -1.5909  0.0404
  835MOL0     H12710   6.123   7.666  10.734 -1.5242 -0.8855  3.6006
  835MOL0     H12711   5.811   7.532   9.730  1.0269 -0.6427  0.6428
  835MOL0     H12712   5.989   7.443   9.607  1.1742  0.2380 -1.6795
  835MOL0     H12713   6.373   7.360   9.448  0.0255 -0.1421  0.3999
  835MOL0     H12714   6.536   7.184   9.400  2.6296 -2.8023  1.8427
  835MOL0     H12715   6.902   7.368   9.482 -1.6852  0.7371 -0.4028
  835MOL0     H12716   6.975   7.237   9.378 -0.2093 -1.9556  0.1951
  835MOL0     H12717   6.908   7.440   9.264  1.1530 -1.1219  0.9247
  835MOL0     H12718   6.751   7.430   9.336  0.8398 -0.5736  1.1285
  835MOL0     H12719   6.708   7.216   9.195  0.1368  0.9613 -0.9534
  835MOL0     H12720   6.875   7.245   9.130  0.2667 -3.2216  1.5007
  835MOL0     H12721   6.687   7.326   8.975 -2.2908  2.0342 -1.2390
  835MOL0     H12722   6.803   7.445   9.021  1.5956 -0.1710  0.9606
  835MOL0     H12723   6.431   7.528   9.250  0.3413 -0.0770  0.7554
  835MOL0     H12724   6.807   7.378   9.674  0.2930 -1.9824  0.9471
  835MOL0     H12725   6.626   7.517   9.752 -1.0171  1.1534 -0.9070
  836MOL0     O12726  11.463   9.489  11.289  0.0633  0.1630 -0.8943
  836MOL0     C12727  11.580   9.489  11.254  0.5845 -0.3499  0.5883
  836MOL0     O12728  11.686   9.452  11.329  0.5457 -0.7498  0.2074
  836MOL0     C12729  11.662   9.427  11.464  0.3938  0.0641  1.4462
  836MOL0     C12730  11.673   9.295  11.506  0.8007  0.3025 -0.7550
  836MOL0     C12731  11.640   9.268  11.639  0.6670 -0.4644  0.6327
  836MOL0     C12732  11.577   9.363  11.711 -0.4638  0.2534  0.0370
  836MOL0     O12733  11.516   9.332  11.833  0.2197  0.3511  0.2744
  836MOL0     C12734  11.560   9.222  11.906  0.5658  0.2771 -0.7293
  836MOL0     C12735  11.489   9.235  12.044  0.5697  0.3009  0.2091
  836MOL0     C12736  11.513   9.118  12.137  0.2635 -0.5496 -0.1750
  836MOL0     C12737  11.469   9.165  12.274  0.3168 -0.0701  0.3529
  836MOL0     C12738  11.477   9.049  12.373 -0.2381 -0.2651 -0.0512
  836MOL0     C12739  11.345   8.973  12.401  0.0275  0.2136  0.0545
  836MOL0     C12740  11.374   8.834  12.454  0.6901  0.6452  0.1413
  836MOL0     C12741  11.435   8.741  12.355  0.8176  0.8841 -0.0202
  836MOL0     N12742  11.437   8.607  12.417 -1.0863 -0.1657 -1.0374
  836MOL0     C12743  11.338   8.541  12.488  0.5093 -0.7679  0.2721
  836MOL0     C12744  11.407   8.444  12.559  1.0781 -0.1803 -0.7346
  836MOL0     C12745  11.337   8.346  12.643  0.9152 -0.7661 -0.5661
  836MOL0     C12746  11.245   8.261  12.543 -0.5244 -1.0882 -0.0931
  836MOL0     C12747  11.182   8.140  12.604  1.3452 -0.5145  0.2921
  836MOL0     C12748  11.135   8.164  12.748  0.3605 -0.5044  0.0011
  836MOL0     O12749  11.057   8.054  12.790 -0.1855  0.1337  0.8424
  836MOL0     C12750  10.991   8.068  12.908  1.0512 -0.0124 -0.5218
  836MOL0     C12751  10.934   7.959  12.968  0.8090  0.3342 -0.5198
  836MOL0     C12752  10.847   7.963  13.077  0.2883 -0.4035  0.3236
  836MOL0     C12753  10.803   7.825  13.129  0.3496 -0.4514  0.2467
  836MOL0     C12754  10.833   8.087  13.147  0.4051 -0.4805 -0.5911
  836MOL0     C12755  10.737   8.101  13.253  0.2407  0.2753 -0.3631
  836MOL0     O12756  10.776   8.186  13.347 -0.8496 -0.2256  0.0867
  836MOL0     C12757  10.684   8.249  13.429 -0.2389  0.5942  0.5014
  836MOL0     C12758  10.677   8.391  13.411 -0.1519  0.3105 -0.8241
  836MOL0     C12759  10.596   8.466  13.501  0.1488 -0.2016 -0.6124
  836MOL0     C12760  10.514   8.404  13.600 -0.4615  0.0651  0.2973
  836MOL0     O12761  10.432   8.478  13.680 -0.5064 -0.6590  0.7361
  836MOL0     C12762  10.493   8.570  13.767  0.1071  0.0398 -0.2216
  836MOL0     C12763  10.476   8.521  13.903 -0.2338  0.6482  0.8135
  836MOL0     C12764  10.529   8.624  14.002 -0.0686 -0.0456 -1.1450
  836MOL0     C12765  10.451   8.761  14.011  0.4347 -0.9207  0.3878
  836MOL0     C12766  10.323   8.736  14.073 -0.1981  0.6730  0.1389
  836MOL0     C12767  10.254   8.866  14.119  0.7797 -1.2276  0.6552
  836MOL0     C12768  10.260   8.978  14.017  0.3203 -0.7386  0.1609
  836MOL0     C12769  10.221   9.113  14.085 -0.7493  0.6940 -0.5319
  836MOL0    Cl12770  10.040   9.139  14.105  0.5420 -0.0025 -0.0141
  836MOL0     C12771  10.524   8.266  13.606  0.9268  0.3163 -0.2753
  836MOL0     C12772  10.607   8.183  13.522 -0.3021  0.0626 -0.1853
  836MOL0     O12773  10.636   8.041  13.253 -0.7847 -0.1459  0.3284
  836MOL0     C12774  10.894   8.195  13.096 -0.2944 -0.1924  0.3231
  836MOL0     C12775  10.969   8.195  12.976  0.4852  0.5035 -0.0755
  836MOL0     N12776  11.536   8.460  12.524  0.1054 -0.1933  0.1718
  836MOL0     N12777  11.559   8.552  12.442  0.7614 -1.3225  0.5652
  836MOL0     C12778  11.563   9.490  11.667  0.2437 -0.7857  0.1623
  836MOL0     C12779  11.609   9.524  11.548 -0.8926  0.3031  0.5393
  836MOL0     C12780  11.605   9.528  11.117 -0.1276 -0.1458 -0.3532
  836MOL0     C12781  11.729   9.536  11.058 -0.8254  0.1509 -0.0817
  836MOL0     C12782  11.762   9.596  10.929 -0.0945 -0.0342  0.3574
  836MOL0     C12783  11.655   9.638  10.847  1.0183 -0.5628  0.0005
  836MOL0     O12784  11.670   9.686  10.721  0.2548  0.1827 -0.1858
  836MOL0     C12785  11.619   9.816  10.684  0.2604  0.7114 -1.0056
  836MOL0     C12786  11.728   9.921  10.668 -0.2383  0.2525  0.5712
  836MOL0     C12787  11.827   9.874  10.560  0.2716  0.3875 -0.4768
  836MOL0     C12788  11.780   9.903  10.418 -0.1170  0.7005 -0.9421
  836MOL0     C12789  11.892   9.895  10.335 -0.3968  0.4997  0.7133
  836MOL0     C12790  12.004   9.881  10.289 -1.4369  0.5025  0.0019
  836MOL0     C12791  11.526   9.615  10.898  0.0834  0.0406 -0.7650
  836MOL0     C12792  11.502   9.559  11.026  0.2774  0.7184  0.4505
  836MOL0     H12793  11.709   9.210  11.448 -3.8850 -2.3564 -0.2783
  836MOL0     H12794  11.651   9.170  11.686  1.1920  0.6092  2.9050
  836MOL0     H12795  11.531   9.128  11.858 -2.1996  0.7957 -0.2417
  836MOL0     H12796  11.669   9.221  11.914  0.6370  2.4404 -0.8464
  836MOL0     H12797  11.538   9.321  12.091  0.3121 -1.0236  3.1354
  836MOL0     H12798  11.385   9.270  12.047  0.6782  0.6049  0.7527
  836MOL0     H12799  11.443   9.043  12.099 -1.7651  1.2469 -0.2284
  836MOL0     H12800  11.619   9.091  12.134  0.3466 -0.3701  0.8433
  836MOL0     H12801  11.544   9.237  12.308  0.0894 -0.2426  1.2377
  836MOL0     H12802  11.369   9.208  12.275 -0.2848 -1.3875 -0.1176
  836MOL0     H12803  11.558   8.985  12.336 -0.7060 -0.1644 -1.2824
  836MOL0     H12804  11.523   9.087  12.465  2.1068 -0.3401 -1.1022
  836MOL0     H12805  11.286   9.023  12.478  0.6952  0.5976  0.3223
  836MOL0     H12806  11.296   8.946  12.306  0.6736 -2.4520  0.3784
  836MOL0     H12807  11.432   8.844  12.545  1.1895 -1.1940  0.0575
  836MOL0     H12808  11.282   8.779  12.479 -0.6944  2.5716 -0.4236
  836MOL0     H12809  11.539   8.762  12.328  0.7025  1.3519 -0.1056
  836MOL0     H12810  11.375   8.735  12.264 -2.5293  2.6562  1.8534
  836MOL0     H12811  11.231   8.552  12.478  0.1911 -3.8504 -1.0408
  836MOL0     H12812  11.401   8.282  12.703  1.3399 -0.5942 -0.8272
  836MOL0     H12813  11.277   8.390  12.724  1.2200 -0.7659 -0.3389
  836MOL0     H12814  11.304   8.228  12.457 -0.3401 -0.1859 -0.3278
  836MOL0     H12815  11.173   8.327  12.493  0.3982  0.6957  0.8135
  836MOL0     H12816  11.252   8.056  12.604  3.4718  1.1793  0.4761
  836MOL0     H12817  11.096   8.105  12.545  2.0141 -2.3781  0.3488
  836MOL0     H12818  11.083   8.260  12.740  0.4536 -0.4607 -0.0973
  836MOL0     H12819  11.217   8.180  12.819  0.2963  1.6589 -0.3391
  836MOL0     H12820  10.947   7.863  12.918 -0.1987 -1.3589  2.1900
  836MOL0     H12821  10.854   7.750  13.068 -1.8527 -0.4468 -1.7206
  836MOL0     H12822  10.838   7.807  13.232 -0.8295 -4.3769  0.1192
  836MOL0     H12823  10.695   7.812  13.116  0.8492 -4.3586 -1.4126
  836MOL0     H12824  10.740   8.447  13.343  1.2168 -0.2849 -0.0791
  836MOL0     H12825  10.597   8.574  13.509  0.9766 -0.3612  2.9589
  836MOL0     H12826  10.599   8.595  13.753  0.0362  1.1915  1.0516
  836MOL0     H12827  10.443   8.666  13.756  1.2290  0.6541 -0.1342
  836MOL0     H12828  10.370   8.505  13.923 -1.0745  4.5055  0.3871
  836MOL0     H12829  10.533   8.430  13.922 -0.9586 -0.1887 -0.8777
  836MOL0     H12830  10.627   8.657  13.968  0.8842 -2.6816 -1.2568
  836MOL0     H12831  10.559   8.576  14.096  3.5564  2.8920 -0.5933
  836MOL0     H12832  10.496   8.833  14.079  2.3052 -1.9130  0.2716
  836MOL0     H12833  10.451   8.800  13.909  1.0805 -0.7022  0.4684
  836MOL0     H12834  10.325   8.668  14.158 -2.8283 -1.5552 -1.4339
  836MOL0     H12835  10.260   8.689  13.996  2.0520 -2.5527  0.0538
  836MOL0     H12836  10.150   8.847  14.146  0.5932 -2.4455 -0.7814
  836MOL0     H12837  10.301   8.909  14.208 -2.4866  3.7055  0.3935
  836MOL0     H12838  10.190   8.957  13.936 -4.9212  0.1384  3.9375
  836MOL0     H12839  10.365   8.987  13.989  1.1999  0.0065  3.2687
  836MOL0     H12840  10.262   9.190  14.019  1.4447 -1.3799 -1.7099
  836MOL0     H12841  10.273   9.123  14.180 -2.8510  1.0240  0.6491
  836MOL0     H12842  10.444   8.227  13.668  0.5784  3.6251  1.5881
  836MOL0     H12843  10.600   8.075  13.531 -2.9532  0.0236 -1.7809
  836MOL0     H12844  10.890   8.292  13.144 -1.3709  0.6462 -1.3387
  836MOL0     H12845  11.000   8.288  12.928 -0.6421 -0.3886 -2.7170
  836MOL0     H12846  11.513   9.550  11.742 -3.5692 -1.8925 -1.2857
  836MOL0     H12847  11.591   9.628  11.521  2.3108  0.8150  0.0107
  836MOL0     H12848  11.813   9.502  11.117 -0.6907 -2.6381 -1.6736
  836MOL0     H12849  11.866   9.593  10.897  0.0845 -0.9279  0.9883
  836MOL0     H12850  11.544   9.816  10.605 -2.5576  2.3945  1.4347
  836MOL0     H12851  11.560   9.855  10.768 -0.6899 -1.3627 -0.6486
  836MOL0     H12852  11.778   9.940  10.763 -0.1892 -1.9309  1.0279
  836MOL0     H12853  11.678  10.016  10.644  1.3881  1.8925  3.1241
  836MOL0     H12854  11.853   9.768  10.561 -1.2388 -0.0039  0.5242
  836MOL0     H12855  11.913   9.940  10.568 -1.0220  2.6841 -3.2910
  836MOL0     H12856  11.734  10.002  10.409  0.1550  1.4778  3.7439
  836MOL0     H12857  11.705   9.832  10.380  0.0289  0.5080 -0.8735
  836MOL0     H12858  12.096   9.874  10.235 -0.8695  1.1205  0.8622
  836MOL0     H12859  11.449   9.633  10.824 -0.6084  0.8829  0.1513
  836MOL0     H12860  11.402   9.522  11.046  0.1170 -0.5532 -2.2533
  837MOL0     O12861  10.778   7.266   4.912  0.2492  0.5932  0.1484
  837MOL0     C12862  10.747   7.210   4.811 -0.7694  0.6209 -0.6465
  837MOL0     O12863  10.711   7.275   4.697 -0.0852  0.0057  0.0051
  837MOL0     C12864  10.687   7.407   4.699  0.4018  0.2140  0.1082
  837MOL0     C12865  10.786   7.497   4.689 -1.3287  0.5088  0.2196
  837MOL0     C12866  10.755   7.637   4.686 -0.1615  0.1320  1.0440
  837MOL0     C12867  10.621   7.676   4.708 -0.5513  0.8843  0.6627
  837MOL0     O12868  10.598   7.806   4.736  0.4357 -0.6020  0.0833
  837MOL0     C12869  10.468   7.846   4.781  1.1571  0.8861 -0.6439
  837MOL0     C12870  10.451   7.999   4.766  0.4173 -0.0288  0.7652
  837MOL0     C12871  10.311   8.038   4.826 -0.7270  0.6899  0.2304
  837MOL0     C12872  10.226   8.125   4.728 -0.3926  0.3943  0.9472
  837MOL0     C12873  10.125   8.226   4.792 -0.1744 -0.3853 -0.4775
  837MOL0     C12874  10.195   8.341   4.861  0.4207 -0.7748 -0.7108
  837MOL0     C12875  10.095   8.438   4.923  0.1152 -0.2576  0.1642
  837MOL0     C12876  10.010   8.383   5.037  0.1766  0.2984 -0.2297
  837MOL0     N12877  10.090   8.333   5.149  1.0219  0.0476  0.0799
  837MOL0     C12878  10.120   8.205   5.177  0.1977  0.0134 -0.4741
  837MOL0     C12879  10.196   8.213   5.287 -0.1458  0.8447  0.5822
  837MOL0     C12880  10.264   8.094   5.355 -0.1550 -0.7202  0.1333
  837MOL0     C12881  10.416   8.100   5.356 -0.1156 -0.1360 -0.5977
  837MOL0     C12882  10.453   8.063   5.212  0.2140  0.0662 -0.2331
  837MOL0     C12883  10.527   7.935   5.190 -0.3126  0.7263  0.1847
  837MOL0     O12884  10.444   7.815   5.202 -0.3015 -0.1734 -0.3180
  837MOL0     C12885  10.500   7.711   5.272  0.1594  0.3243  1.1630
  837MOL0     C12886  10.560   7.709   5.390 -0.2353 -0.3971  0.0650
  837MOL0     C12887  10.600   7.588   5.462  0.6293  0.7461  0.4113
  837MOL0     C12888  10.631   7.603   5.612 -0.8400  0.0916  0.0720
  837MOL0     C12889  10.605   7.464   5.386  0.3220 -0.7536 -0.4001
  837MOL0     C12890  10.666   7.332   5.434 -0.7659 -1.7271  0.2503
  837MOL0     O12891  10.757   7.335   5.527  0.3636 -0.6368 -0.1138
  837MOL0     C12892  10.797   7.216   5.590  0.3116 -0.2022 -0.0282
  837MOL0     C12893  10.940   7.216   5.626 -0.0417 -0.0118  0.5253
  837MOL0     C12894  10.997   7.099   5.687  0.0603 -0.1427  0.8870
  837MOL0     C12895  10.908   6.993   5.734  0.1326 -0.3859 -0.6032
  837MOL0     O12896  10.951   6.891   5.818  0.0537 -0.7599  0.3230
  837MOL0     C12897  11.078   6.925   5.891  0.1157 -0.6504  0.2174
  837MOL0     C12898  11.061   6.877   6.037  0.3541 -0.1197  1.1409
  837MOL0     C12899  11.044   6.729   6.042 -0.5507  0.5202 -0.1906
  837MOL0     C12900  11.086   6.685   6.184  0.0198  0.3752 -0.3498
  837MOL0     C12901  11.107   6.527   6.175 -0.7441  0.0054  0.9778
  837MOL0     C12902  11.140   6.473   6.313  0.3969  0.1264  0.0589
  837MOL0     C12903  11.291   6.480   6.343 -0.0605 -0.4642  0.4422
  837MOL0     C12904  11.326   6.445   6.486 -0.3291 -0.7151  0.7432
  837MOL0    Cl12905  11.300   6.597   6.577  0.2171  0.1664 -0.8399
  837MOL0     C12906  10.770   7.005   5.711 -1.2048 -0.1503  0.5513
  837MOL0     C12907  10.714   7.105   5.634  0.4610  0.3007 -0.7609
  837MOL0     O12908  10.637   7.235   5.378  1.0263  0.3880  0.2160
  837MOL0     C12909  10.546   7.470   5.253 -0.4564  0.2047  0.4287
  837MOL0     C12910  10.498   7.594   5.198  0.0831  0.3890 -0.0910
  837MOL0     N12911  10.199   8.339   5.320  0.1929 -0.4014  0.3029
  837MOL0     N12912  10.138   8.412   5.245 -0.1262  0.6248 -0.6507
  837MOL0     C12913  10.521   7.585   4.734  0.7379 -0.0751 -0.5676
  837MOL0     C12914  10.557   7.447   4.725 -0.3053 -0.4937  0.3014
  837MOL0     C12915  10.772   7.069   4.805 -0.8112  0.0801  0.4592
  837MOL0     C12916  10.831   7.000   4.904  0.0989 -0.0942 -0.2825
  837MOL0     C12917  10.861   6.864   4.882 -1.1160  0.6842 -0.4579
  837MOL0     C12918  10.855   6.798   4.756  0.0241 -0.0890  0.2064
  837MOL0     O12919  10.917   6.672   4.738 -0.0130 -0.1761 -0.3100
  837MOL0     C12920  11.011   6.653   4.634  0.9147 -0.7679  1.1412
  837MOL0     C12921  10.990   6.513   4.580 -1.1936  0.0708 -0.5465
  837MOL0     C12922  10.848   6.468   4.542 -0.0653 -0.0651 -0.0959
  837MOL0     C12923  10.850   6.312   4.512  0.8114 -0.8517 -0.7475
  837MOL0     C12924  10.940   6.285   4.404  1.3008  0.3965  0.0679
  837MOL0     C12925  10.999   6.257   4.302  0.1899 -0.3461  0.4650
  837MOL0     C12926  10.780   6.874   4.653  0.3722 -0.1331 -0.0461
  837MOL0     C12927  10.739   7.005   4.684  0.3803  0.1759  0.3503
  837MOL0     H12928  10.888   7.462   4.688 -2.2255 -2.3169 -0.2269
  837MOL0     H12929  10.834   7.707   4.662 -0.7117 -0.0164 -1.4312
  837MOL0     H12930  10.392   7.799   4.717  0.0212 -0.4801  1.5793
  837MOL0     H12931  10.447   7.809   4.881 -0.2722  4.0892  0.4020
  837MOL0     H12932  10.531   8.040   4.828  0.5117  1.1631 -0.1251
  837MOL0     H12933  10.464   8.031   4.662  0.0312  0.4241  0.8543
  837MOL0     H12934  10.248   7.952   4.851 -0.4054  0.5682  0.6424
  837MOL0     H12935  10.331   8.094   4.918  1.2675  0.7491 -0.2003
  837MOL0     H12936  10.291   8.181   4.660  0.7378 -0.2313  1.4685
  837MOL0     H12937  10.167   8.051   4.674 -0.1745  0.6933  0.2939
  837MOL0     H12938  10.051   8.255   4.717 -0.3282 -2.0112 -0.9977
  837MOL0     H12939  10.076   8.162   4.866  0.3234  1.8623  1.9523
  837MOL0     H12940  10.262   8.304   4.939  0.6132  0.2665 -0.3711
  837MOL0     H12941  10.257   8.401   4.794 -0.2556  2.1122  1.0799
  837MOL0     H12942  10.150   8.527   4.954  0.9268 -0.5615 -0.3761
  837MOL0     H12943  10.025   8.462   4.843  2.5552  1.9102 -1.4501
  837MOL0     H12944   9.956   8.295   5.001  2.4012 -1.3394  0.2249
  837MOL0     H12945   9.948   8.465   5.074  0.4014  0.2220  0.3347
  837MOL0     H12946  10.113   8.112   5.122 -1.2488 -2.3361  3.3153
  837MOL0     H12947  10.227   8.077   5.457 -1.3601 -0.9407 -0.3167
  837MOL0     H12948  10.229   7.999   5.314  0.6110 -0.6273 -0.7697
  837MOL0     H12949  10.465   8.031   5.425  1.7680  3.1006  1.5453
  837MOL0     H12950  10.444   8.194   5.404 -0.7177 -0.7629  1.0673
  837MOL0     H12951  10.521   8.144   5.184  1.1303 -0.1603  1.2207
  837MOL0     H12952  10.371   8.071   5.140  0.1124 -0.1124 -0.1373
  837MOL0     H12953  10.604   7.924   5.267  0.8358 -1.7173 -1.1993
  837MOL0     H12954  10.577   7.935   5.093 -1.3128  1.1256 -0.3469
  837MOL0     H12955  10.573   7.801   5.447  2.1590 -2.1467  2.6274
  837MOL0     H12956  10.737   7.583   5.631  0.1164  1.3184 -3.1666
  837MOL0     H12957  10.623   7.706   5.648  1.1092  0.3028  0.0370
  837MOL0     H12958  10.583   7.527   5.674 -0.9136  0.5733  0.6105
  837MOL0     H12959  10.995   7.305   5.595 -1.8049  1.1738  0.6050
  837MOL0     H12960  11.102   7.082   5.708  0.3362  0.4888  0.0943
  837MOL0     H12961  11.151   6.868   5.832  3.3398  2.6664  0.6356
  837MOL0     H12962  11.100   7.031   5.908 -0.6159 -0.7688  2.0519
  837MOL0     H12963  11.154   6.906   6.088  1.7949 -0.5223 -1.1094
  837MOL0     H12964  10.978   6.931   6.083 -1.1088 -0.9008 -0.4726
  837MOL0     H12965  11.092   6.671   5.962 -3.2035  2.0836 -3.1464
  837MOL0     H12966  10.940   6.697   6.036 -0.0482 -0.9453 -1.9952
  837MOL0     H12967  11.184   6.720   6.217  1.4981 -2.9966 -0.7126
  837MOL0     H12968  11.004   6.704   6.255  1.9087  3.7135  1.1769
  837MOL0     H12969  11.194   6.513   6.109 -0.5387  4.1719  0.1116
  837MOL0     H12970  11.022   6.467   6.142 -0.6067 -1.9227  3.7589
  837MOL0     H12971  11.074   6.522   6.385 -2.0248 -0.9497 -1.3252
  837MOL0     H12972  11.121   6.365   6.311  0.8222  0.0618 -0.6341
  837MOL0     H12973  11.325   6.580   6.313 -1.4448  0.8208  2.8617
  837MOL0     H12974  11.351   6.412   6.282  0.9633 -0.5703  1.5279
  837MOL0     H12975  11.434   6.428   6.488 -0.0307 -0.1361 -2.9559
  837MOL0     H12976  11.271   6.358   6.524 -0.5761 -2.1240 -2.4509
  837MOL0     H12977  10.710   6.924   5.752 -1.2931  0.8794  2.5906
  837MOL0     H12978  10.609   7.099   5.604 -0.6431  1.8585  2.2703
  837MOL0     H12979  10.550   7.382   5.189 -2.2631  1.4561 -1.5733
  837MOL0     H12980  10.468   7.589   5.093  0.5066 -0.0363 -0.1945
  837MOL0     H12981  10.415   7.596   4.755  0.2195 -2.8479 -1.3120
  837MOL0     H12982  10.489   7.365   4.746  0.3937 -1.0930  0.2915
  837MOL0     H12983  10.843   7.041   5.004  3.0781  0.3376 -0.7047
  837MOL0     H12984  10.909   6.820   4.968  1.6365  3.3772 -0.4375
  837MOL0     H12985  10.993   6.725   4.554 -0.4862 -0.1066  2.0134
  837MOL0     H12986  11.114   6.667   4.667  1.5446  0.3494 -1.0854
  837MOL0     H12987  11.024   6.445   4.659  4.1721  2.2310 -0.5614
  837MOL0     H12988  11.058   6.495   4.496 -2.1868  0.0832 -1.3808
  837MOL0     H12989  10.815   6.524   4.454 -0.3255 -0.5620 -0.3191
  837MOL0     H12990  10.778   6.495   4.622 -0.9390  1.8739 -1.4434
  837MOL0     H12991  10.753   6.278   4.477 -0.7990  3.4962 -1.1358
  837MOL0     H12992  10.865   6.261   4.608 -2.4991  0.7771  0.7805
  837MOL0     H12993  11.057   6.211   4.225 -0.0776 -2.3036  1.3743
  837MOL0     H12994  10.759   6.832   4.555 -2.7456  1.2421 -0.0774
  837MOL0     H12995  10.684   7.063   4.611  1.2787 -0.7633 -1.1029
  838MOL0     O12996   0.594   2.313   3.541 -0.3558  0.6465  0.7561
  838MOL0     C12997   0.611   2.344   3.427 -0.2242  0.2106 -0.3929
  838MOL0     O12998   0.560   2.294   3.309 -0.6796  0.2451  0.2591
  838MOL0     C12999   0.509   2.171   3.307 -0.2530 -0.9241 -0.1310
  838MOL0     C13000   0.545   2.066   3.383 -0.3132 -0.2653 -0.5909
  838MOL0     C13001   0.471   1.947   3.379  0.4411  0.3720  0.9015
  838MOL0     C13002   0.365   1.916   3.292  0.3737  0.2021  0.1069
  838MOL0     O13003   0.307   1.790   3.274  0.0543 -0.4667 -0.2181
  838MOL0     C13004   0.194   1.782   3.360  0.1470 -0.2073 -0.0007
  838MOL0     C13005   0.231   1.746   3.511 -0.4199  0.5927  1.3842
  838MOL0     C13006   0.110   1.751   3.602  0.0558 -1.0028  0.5697
  838MOL0     C13007   0.003   1.649   3.582 -0.0905  0.4337  0.3970
  838MOL0     C13008  -0.098   1.633   3.705 -0.1930 -1.2711 -0.5093
  838MOL0     C13009  -0.205   1.522   3.685 -0.6467  0.1135  0.0584
  838MOL0     C13010  -0.295   1.512   3.802  0.0403  0.6955  0.4955
  838MOL0     C13011  -0.230   1.526   3.947  0.2025  0.3645  1.0055
  838MOL0     N13012  -0.264   1.650   3.998 -0.6054 -0.5680 -0.5803
  838MOL0     C13013  -0.178   1.749   4.046  0.8563 -0.2040  0.2782
  838MOL0     C13014  -0.259   1.829   4.126  0.3395 -0.7811  1.8099
  838MOL0     C13015  -0.215   1.940   4.206 -0.4021 -0.4734  0.0376
  838MOL0     C13016  -0.149   2.052   4.130 -0.2325 -0.3660 -0.3078
  838MOL0     C13017  -0.251   2.128   4.043  0.8065 -0.9251 -0.9223
  838MOL0     C13018  -0.272   2.073   3.897  0.1110 -0.0748 -0.5942
  838MOL0     O13019  -0.152   2.075   3.814  0.4150 -0.2381  0.0043
  838MOL0     C13020  -0.127   2.175   3.727 -0.3015 -0.3296  0.3548
  838MOL0     C13021   0.004   2.180   3.686 -0.2205 -0.5061  0.3406
  838MOL0     C13022   0.049   2.280   3.596  0.5664 -0.6551  0.1119
  838MOL0     C13023   0.188   2.273   3.550 -0.2345  0.7444 -0.3964
  838MOL0     C13024  -0.039   2.387   3.562 -0.5562 -0.7099 -0.8269
  838MOL0     C13025   0.002   2.516   3.487 -0.1626 -0.2238 -0.3443
  838MOL0     O13026  -0.097   2.617   3.488 -0.3620  0.9878 -0.6799
  838MOL0     C13027  -0.043   2.740   3.461  0.3261  0.3141  0.2919
  838MOL0     C13028  -0.028   2.838   3.562  0.0742  0.0934 -0.8764
  838MOL0     C13029   0.011   2.964   3.526 -1.1704 -0.2798 -0.6064
  838MOL0     C13030   0.041   2.998   3.390  0.2629 -0.4540  1.1347
  838MOL0     O13031   0.083   3.126   3.351  0.3076  0.7225  0.2298
  838MOL0     C13032  -0.026   3.221   3.390  0.1419  0.2244 -0.8552
  838MOL0     C13033  -0.033   3.314   3.281 -0.3283  0.5056  0.5747
  838MOL0     C13034  -0.089   3.447   3.320  0.0434  0.0558  0.3335
  838MOL0     C13035  -0.119   3.544   3.207 -0.0763  0.7347  1.0283
  838MOL0     C13036   0.011   3.596   3.136 -0.1909 -0.4424 -0.2811
  838MOL0     C13037  -0.035   3.720   3.051  0.0357  0.0709 -0.2385
  838MOL0     C13038   0.077   3.814   2.996 -0.0735 -0.2954 -0.6015
  838MOL0     C13039   0.171   3.734   2.904  0.2377 -0.8341  0.4177
  838MOL0    Cl13040   0.281   3.854   2.830 -0.3915  0.8870 -0.2340
  838MOL0     C13041   0.018   2.907   3.284  0.5678  0.0474  0.4500
  838MOL0     C13042  -0.025   2.776   3.325 -0.0164  0.7023  0.3599
  838MOL0     O13043   0.105   2.524   3.434 -0.2932 -0.4720  0.4902
  838MOL0     C13044  -0.169   2.370   3.598 -0.9383 -0.0655 -0.2856
  838MOL0     C13045  -0.216   2.274   3.682 -0.8865 -0.1729 -0.5316
  838MOL0     N13046  -0.392   1.783   4.126  0.6008 -0.0670  0.0641
  838MOL0     N13047  -0.388   1.674   4.049 -0.3623  0.6883 -0.0267
  838MOL0     C13048   0.327   2.029   3.214  0.1572 -0.8433  0.5862
  838MOL0     C13049   0.400   2.150   3.214 -0.3632 -0.4563 -0.3077
  838MOL0     C13050   0.692   2.470   3.415 -0.6933  0.1770  0.9038
  838MOL0     C13051   0.751   2.544   3.529  0.1055  0.7617 -0.5943
  838MOL0     C13052   0.816   2.665   3.523  0.2598  0.6142  0.2507
  838MOL0     C13053   0.850   2.708   3.387 -0.2374  0.0313  0.1495
  838MOL0     O13054   0.920   2.826   3.383 -0.2885 -0.7779 -0.0526
  838MOL0     C13055   0.907   2.912   3.264 -0.0356  0.3212 -0.0091
  838MOL0     C13056   0.956   3.049   3.284 -1.4594  0.1839 -0.1279
  838MOL0     C13057   1.101   3.054   3.325 -0.2894 -0.0827  0.4876
  838MOL0     C13058   1.209   3.039   3.213  0.3615 -0.2255  0.6510
  838MOL0     C13059   1.203   2.911   3.148 -1.0908 -0.3242  0.0068
  838MOL0     C13060   1.215   2.809   3.090  0.9609 -0.0487 -0.0582
  838MOL0     C13061   0.797   2.640   3.278  0.8963 -0.1793 -0.3443
  838MOL0     C13062   0.714   2.538   3.289  0.2788  0.4280  0.1525
  838MOL0     H13063   0.612   2.072   3.468 -2.5488 -0.6335  1.2924
  838MOL0     H13064   0.506   1.863   3.439 -0.2654 -1.0691 -0.6420
  838MOL0     H13065   0.130   1.871   3.366  2.7410  1.7287  0.3297
  838MOL0     H13066   0.141   1.694   3.323 -0.0840  0.7169 -2.0274
  838MOL0     H13067   0.262   1.642   3.504 -2.0887  0.1683 -2.0566
  838MOL0     H13068   0.308   1.811   3.554  2.7782 -2.1981  0.2890
  838MOL0     H13069   0.153   1.727   3.699  3.4912 -0.1485 -0.5979
  838MOL0     H13070   0.077   1.855   3.601  0.9570 -0.6443 -2.4885
  838MOL0     H13071  -0.048   1.677   3.489  0.8237 -1.2567 -0.6561
  838MOL0     H13072   0.061   1.560   3.555  2.7139  2.4263 -0.6477
  838MOL0     H13073  -0.035   1.609   3.791 -1.1542 -1.2506  0.2189
  838MOL0     H13074  -0.153   1.726   3.723 -0.6716 -1.7825  0.8406
  838MOL0     H13075  -0.257   1.543   3.592 -0.1480 -1.3921 -0.5940
  838MOL0     H13076  -0.152   1.427   3.675 -4.0284 -2.0847  1.2127
  838MOL0     H13077  -0.371   1.589   3.784 -2.7010 -2.2162 -1.7599
  838MOL0     H13078  -0.359   1.423   3.800  1.5063 -0.4141  1.4875
  838MOL0     H13079  -0.121   1.511   3.943  0.1700  0.3191 -2.3646
  838MOL0     H13080  -0.278   1.438   3.991  4.1199 -2.9193 -0.6346
  838MOL0     H13081  -0.073   1.772   4.038  0.5488  1.0964 -0.3321
  838MOL0     H13082  -0.302   1.984   4.256 -2.2394 -3.5136 -0.2581
  838MOL0     H13083  -0.151   1.909   4.289 -3.2488  0.5031  2.7966
  838MOL0     H13084  -0.060   2.009   4.083 -0.5047 -3.5812  1.8245
  838MOL0     H13085  -0.104   2.116   4.206 -0.4690 -1.4765  0.8048
  838MOL0     H13086  -0.231   2.236   4.038  1.9611 -1.1728 -2.0772
  838MOL0     H13087  -0.342   2.129   4.104  0.7419  1.6425 -0.9142
  838MOL0     H13088  -0.353   2.122   3.844 -0.8837 -1.7081 -0.6691
  838MOL0     H13089  -0.323   1.976   3.904  0.2013 -0.0497  0.8098
  838MOL0     H13090   0.077   2.105   3.714 -0.5325 -1.5198 -1.4071
  838MOL0     H13091   0.220   2.353   3.484 -2.2169  1.7287 -0.2391
  838MOL0     H13092   0.251   2.289   3.637  2.1394 -0.0400 -1.8808
  838MOL0     H13093   0.213   2.177   3.503 -1.4836  1.6378 -3.1054
  838MOL0     H13094  -0.033   2.817   3.668 -0.9093 -1.0334 -1.1224
  838MOL0     H13095   0.031   3.048   3.592 -0.0365  1.4599 -2.9989
  838MOL0     H13096  -0.118   3.167   3.415 -0.9494  3.0418  1.7753
  838MOL0     H13097  -0.002   3.282   3.477 -1.3466 -2.1187  1.3185
  838MOL0     H13098   0.070   3.337   3.252 -1.2639  1.4343 -2.3170
  838MOL0     H13099  -0.092   3.265   3.203 -0.2674 -1.2519  1.5867
  838MOL0     H13100  -0.006   3.481   3.384  1.4745 -3.6896  0.7438
  838MOL0     H13101  -0.177   3.420   3.379 -0.3178 -0.7024 -0.5227
  838MOL0     H13102  -0.179   3.508   3.123 -1.5709 -1.2443  2.8168
  838MOL0     H13103  -0.173   3.627   3.254 -1.3886 -0.5118  1.8213
  838MOL0     H13104   0.073   3.526   3.079  0.8527 -1.9076  2.5090
  838MOL0     H13105   0.088   3.622   3.208 -2.4880  0.9627  1.8195
  838MOL0     H13106  -0.105   3.684   2.975  2.3757  1.7579 -3.4221
  838MOL0     H13107  -0.093   3.792   3.110 -1.1928 -1.9762  1.1720
  838MOL0     H13108   0.130   3.861   3.079 -0.0077 -0.6111 -0.4631
  838MOL0     H13109   0.017   3.886   2.938 -2.0101  0.1642  1.8023
  838MOL0     H13110   0.102   3.699   2.827 -0.4809  0.3483  0.4981
  838MOL0     H13111   0.225   3.651   2.950  2.3416 -0.6299 -1.4924
  838MOL0     H13112   0.042   2.932   3.182  0.0908  0.3025  0.3977
  838MOL0     H13113  -0.042   2.700   3.250 -0.5604  0.9621  0.2211
  838MOL0     H13114  -0.238   2.445   3.562 -0.2364  1.5176  1.4569
  838MOL0     H13115  -0.321   2.282   3.707 -0.7464  2.9921 -0.5539
  838MOL0     H13116   0.235   2.020   3.157  0.1373 -1.0734  0.6553
  838MOL0     H13117   0.383   2.226   3.138  1.8924 -0.5235 -0.9473
  838MOL0     H13118   0.714   2.495   3.619 -0.4801  1.7692 -0.2694
  838MOL0     H13119   0.828   2.727   3.612 -0.4510  1.2795 -0.1102
  838MOL0     H13120   0.957   2.861   3.180  0.1610 -3.3021  2.0829
  838MOL0     H13121   0.802   2.922   3.236 -0.6782 -1.1665  1.7064
  838MOL0     H13122   0.890   3.109   3.348 -1.0218 -0.4718  0.9634
  838MOL0     H13123   0.947   3.095   3.186 -4.2725 -2.0939 -1.0837
  838MOL0     H13124   1.124   2.983   3.405  1.0165 -1.7735 -1.2950
  838MOL0     H13125   1.112   3.158   3.355  0.8081 -0.5317  1.7461
  838MOL0     H13126   1.309   3.065   3.250  0.6077  1.2342 -0.8732
  838MOL0     H13127   1.189   3.108   3.130  0.5649  0.8164  1.4548
  838MOL0     H13128   1.230   2.717   3.037  0.4190  0.5194 -1.2469
  838MOL0     H13129   0.822   2.676   3.179 -0.3276  2.4990  0.2281
  838MOL0     H13130   0.675   2.482   3.205 -3.0478  3.3543 -0.4992
  839MOL0     O13131   3.307   2.677   0.429  0.1464 -0.8702 -0.0203
  839MOL0     C13132   3.364   2.570   0.432 -0.7937  1.0579 -1.4714
  839MOL0     O13133   3.309   2.454   0.468 -0.3969  1.0771  0.1319
  839MOL0     C13134   3.189   2.460   0.528 -0.1568 -1.4180  0.2865
  839MOL0     C13135   3.082   2.382   0.482 -0.9816 -0.1679  1.2299
  839MOL0     C13136   2.956   2.393   0.552 -0.5353  0.9091  0.2174
  839MOL0     C13137   2.936   2.477   0.654  0.3006  0.1039  0.2575
  839MOL0     O13138   2.814   2.489   0.715  0.4308  0.0620  0.7529
  839MOL0     C13139   2.772   2.628   0.697  0.8860 -0.5630  0.7097
  839MOL0     C13140   2.630   2.623   0.758 -0.4625  1.2079  0.5033
  839MOL0     C13141   2.581   2.762   0.794  0.4762 -0.0900 -0.3951
  839MOL0     C13142   2.431   2.774   0.846  0.3276  0.5656  0.2504
  839MOL0     C13143   2.397   2.910   0.878 -0.3853  0.0369  0.7098
  839MOL0     C13144   2.255   2.931   0.940 -0.5086 -0.1516 -0.2108
  839MOL0     C13145   2.262   3.079   0.995 -0.0757 -0.2510 -0.3751
  839MOL0     C13146   2.128   3.111   1.076  0.2864 -0.7434  0.7377
  839MOL0     N13147   2.020   3.108   0.978  1.0562  0.7852  0.5665
  839MOL0     C13148   1.928   3.007   0.969 -0.3200 -0.1391 -0.1561
  839MOL0     C13149   1.837   3.060   0.882 -0.3160 -0.5112  0.0469
  839MOL0     C13150   1.691   3.028   0.868 -0.5477 -0.9963  0.3516
  839MOL0     C13151   1.616   3.036   0.994 -0.3997  0.8407 -0.6026
  839MOL0     C13152   1.466   3.038   0.961 -0.0354 -0.3324 -0.5561
  839MOL0     C13153   1.382   3.018   1.086 -0.2198 -0.1615 -0.8736
  839MOL0     O13154   1.237   3.012   1.057  0.0913  0.0596 -0.6622
  839MOL0     C13155   1.158   2.921   1.143 -0.7116  0.5511  0.3350
  839MOL0     C13156   1.081   2.969   1.247 -0.2406 -0.8052 -0.2875
  839MOL0     C13157   1.001   2.884   1.324 -0.9039  0.3709  0.2853
  839MOL0     C13158   0.906   2.935   1.424 -0.5552 -0.4470 -0.9079
  839MOL0     C13159   0.999   2.745   1.283  0.0800 -0.8016  0.1103
  839MOL0     C13160   0.922   2.641   1.354 -0.1229  0.5573 -0.7424
  839MOL0     O13161   0.833   2.579   1.270 -0.0904  0.9683 -0.9306
  839MOL0     C13162   0.746   2.495   1.329 -0.2272  0.0148 -0.1234
  839MOL0     C13163   0.631   2.549   1.381 -0.8701  0.8768  0.7965
  839MOL0     C13164   0.540   2.473   1.447 -0.4621  0.0185 -0.0812
  839MOL0     C13165   0.546   2.335   1.439  0.1087  0.2134 -1.0330
  839MOL0     O13166   0.440   2.256   1.472  0.4815  0.2626 -0.4012
  839MOL0     C13167   0.313   2.295   1.420 -0.7391 -0.3813  0.3563
  839MOL0     C13168   0.212   2.180   1.440  0.2193 -0.6540 -0.2192
  839MOL0     C13169   0.234   2.066   1.346 -0.6629 -0.3175  0.2901
  839MOL0     C13170   0.119   1.968   1.341 -0.2821  1.0505 -0.2249
  839MOL0     C13171   0.153   1.838   1.250 -0.5090  0.1926  0.1049
  839MOL0     C13172   0.274   1.757   1.306 -0.9960 -0.7505 -0.2582
  839MOL0     C13173   0.300   1.639   1.218  1.3734  0.8500  1.1069
  839MOL0     C13174   0.399   1.553   1.285  1.0883  0.4646 -0.7890
  839MOL0    Cl13175   0.333   1.504   1.441 -0.3035 -0.1788 -0.1259
  839MOL0     C13176   0.656   2.275   1.373  0.8040  0.0931 -0.4017
  839MOL0     C13177   0.762   2.361   1.333 -0.4580  0.9439 -0.7074
  839MOL0     O13178   0.940   2.618   1.474 -0.1691  0.2125  0.0066
  839MOL0     C13179   1.084   2.698   1.182  0.2176 -0.0957  0.3032
  839MOL0     C13180   1.175   2.780   1.132 -0.4446 -0.5777  0.7218
  839MOL0     N13181   1.876   3.184   0.842 -0.6724  0.1859 -0.1013
  839MOL0     N13182   1.985   3.212   0.904 -0.9590 -0.3838 -0.8867
  839MOL0     C13183   3.037   2.551   0.705 -0.6334 -0.0520 -0.2692
  839MOL0     C13184   3.164   2.547   0.641  0.3537  0.2053 -0.5683
  839MOL0     C13185   3.501   2.570   0.374 -0.3127  0.8302 -0.5557
  839MOL0     C13186   3.594   2.466   0.385 -0.3789 -0.0015  0.8848
  839MOL0     C13187   3.721   2.476   0.323  0.2100  0.0724 -0.3381
  839MOL0     C13188   3.761   2.604   0.275 -0.1746  0.2130 -0.6834
  839MOL0     O13189   3.891   2.618   0.227 -0.6689  0.5070  0.2272
  839MOL0     C13190   3.952   2.749   0.242 -0.5486  0.5424 -0.9136
  839MOL0     C13191   4.076   2.728   0.331  0.1709 -0.2546 -0.8295
  839MOL0     C13192   4.153   2.861   0.347 -0.3307  1.3244  0.6509
  839MOL0     C13193   4.269   2.855   0.444 -0.9602  0.2649  0.4064
  839MOL0     C13194   4.381   2.794   0.370  0.7514 -1.1964  0.0127
  839MOL0     C13195   4.478   2.758   0.310 -0.5556 -0.4602  0.2378
  839MOL0     C13196   3.665   2.704   0.266 -0.9472 -0.6872  0.5913
  839MOL0     C13197   3.541   2.684   0.305 -0.5832  0.5050  0.1779
  839MOL0     H13198   3.097   2.309   0.402  0.7045  1.6668 -0.2216
  839MOL0     H13199   2.876   2.339   0.502 -0.1279  1.8457 -1.5161
  839MOL0     H13200   2.832   2.703   0.750 -0.1926  2.1164 -1.6319
  839MOL0     H13201   2.778   2.659   0.593  1.8157 -1.2582  0.5409
  839MOL0     H13202   2.560   2.581   0.685 -2.4327  3.6690  0.8094
  839MOL0     H13203   2.629   2.564   0.849 -1.0698  4.1037  2.5188
  839MOL0     H13204   2.650   2.795   0.872  0.0324 -1.9759  0.8737
  839MOL0     H13205   2.581   2.810   0.696  0.5805 -1.5110 -1.1129
  839MOL0     H13206   2.370   2.753   0.759  0.1900 -0.3996  0.5664
  839MOL0     H13207   2.408   2.702   0.925  0.5705 -1.7173 -1.6578
  839MOL0     H13208   2.465   2.929   0.961  0.4407 -3.6227  1.0401
  839MOL0     H13209   2.399   2.972   0.788 -2.1005 -0.3177  0.3901
  839MOL0     H13210   2.186   2.916   0.857 -0.6838 -1.3777  0.1285
  839MOL0     H13211   2.246   2.860   1.023 -0.6457  1.1659  0.9379
  839MOL0     H13212   2.349   3.077   1.062  1.6392  2.7817 -2.3044
  839MOL0     H13213   2.292   3.145   0.913 -2.4972 -0.9614 -1.9439
  839MOL0     H13214   2.129   3.213   1.114 -0.5015 -1.0009  1.4741
  839MOL0     H13215   2.117   3.033   1.151  0.2280 -0.6439  0.8317
  839MOL0     H13216   1.932   2.911   1.019 -0.8778  0.9947  2.1755
  839MOL0     H13217   1.656   3.107   0.801  3.0566  2.0936  1.7845
  839MOL0     H13218   1.674   2.926   0.831 -1.4266 -1.6693  2.4798
  839MOL0     H13219   1.653   3.117   1.058  2.1139 -1.2509  0.7889
  839MOL0     H13220   1.635   2.948   1.056  2.7327  2.7310  1.3867
  839MOL0     H13221   1.445   2.961   0.886  1.3312 -0.5457 -0.7485
  839MOL0     H13222   1.443   3.136   0.919  1.7816 -0.6111 -2.3480
  839MOL0     H13223   1.400   3.097   1.160  2.8506  0.0393 -1.7194
  839MOL0     H13224   1.418   2.928   1.138 -1.8059 -0.8921 -0.9872
  839MOL0     H13225   1.083   3.070   1.286  3.0476 -1.5331  1.9039
  839MOL0     H13226   0.804   2.937   1.385 -1.0347  1.9095  0.2667
  839MOL0     H13227   0.920   2.891   1.523 -1.2117 -1.6596 -1.3242
  839MOL0     H13228   0.936   3.038   1.444  2.7030 -0.9191 -2.6545
  839MOL0     H13229   0.615   2.657   1.380 -1.2720  0.8317 -0.9732
  839MOL0     H13230   0.460   2.531   1.490  0.2836  1.7704 -0.9442
  839MOL0     H13231   0.274   2.362   1.498 -3.5233 -0.8328 -0.5235
  839MOL0     H13232   0.317   2.344   1.323  0.5115 -0.4146  0.3822
  839MOL0     H13233   0.209   2.150   1.545  1.0084 -1.6590 -0.4703
  839MOL0     H13234   0.114   2.221   1.415  0.8429  2.0723  1.3747
  839MOL0     H13235   0.335   2.025   1.360  1.0311  3.5160  0.4838
  839MOL0     H13236   0.225   2.116   1.249  2.2069 -0.2066 -0.0065
  839MOL0     H13237   0.097   1.937   1.444  1.7834  0.3114  0.0458
  839MOL0     H13238   0.032   2.015   1.295 -1.6171 -2.0864 -1.2034
  839MOL0     H13239   0.178   1.867   1.147  2.3421  0.0011  0.6476
  839MOL0     H13240   0.062   1.778   1.252 -0.8329  0.6317 -0.7780
  839MOL0     H13241   0.362   1.821   1.306 -2.7815  1.8678  0.0341
  839MOL0     H13242   0.251   1.726   1.408  0.0745 -1.5975 -0.2609
  839MOL0     H13243   0.346   1.671   1.124 -2.4009 -0.6129 -1.4869
  839MOL0     H13244   0.207   1.587   1.192  2.9035 -0.0261 -3.7144
  839MOL0     H13245   0.486   1.617   1.306  1.4535  0.1866 -1.4430
  839MOL0     H13246   0.418   1.464   1.225 -0.7293 -3.5053  3.8744
  839MOL0     H13247   0.665   2.168   1.385 -0.3946 -0.0160 -0.3249
  839MOL0     H13248   0.850   2.316   1.286 -0.6661 -0.7124  0.4023
  839MOL0     H13249   1.087   2.592   1.159 -0.5111  0.1698 -1.0799
  839MOL0     H13250   1.249   2.726   1.074  0.0150  1.6301 -0.8933
  839MOL0     H13251   3.038   2.618   0.791  2.5618  2.7471 -2.2240
  839MOL0     H13252   3.241   2.613   0.680 -1.4068  2.1883 -0.2492
  839MOL0     H13253   3.574   2.368   0.425  4.8295 -0.9666  1.8465
  839MOL0     H13254   3.788   2.392   0.309  0.7151 -0.0523  2.3386
  839MOL0     H13255   3.980   2.789   0.145  2.2637 -2.0663 -1.3465
  839MOL0     H13256   3.891   2.817   0.303 -1.8533 -1.0023 -0.4112
  839MOL0     H13257   4.151   2.669   0.278  4.4506  2.2975  1.7697
  839MOL0     H13258   4.045   2.681   0.425 -0.8027  1.5887 -0.1814
  839MOL0     H13259   4.088   2.938   0.388 -1.3635  0.8630 -0.0942
  839MOL0     H13260   4.187   2.906   0.253 -1.1597  2.5636  0.9248
  839MOL0     H13261   4.247   2.808   0.541  1.0062  3.9212  2.8541
  839MOL0     H13262   4.304   2.956   0.466  1.1087 -0.5041  0.9163
  839MOL0     H13263   4.556   2.716   0.250 -2.2878 -0.9293 -1.8291
  839MOL0     H13264   3.696   2.800   0.225 -1.1173  0.0776  2.1936
  839MOL0     H13265   3.478   2.770   0.284 -1.0101  0.7486  2.2346
  840MOL0     O13266   8.742   6.302   1.236  0.0930  0.6070 -0.1575
  840MOL0     C13267   8.799   6.241   1.321 -0.8665  0.5852 -0.3427
  840MOL0     O13268   8.818   6.109   1.320 -0.1511 -0.1240  0.1873
  840MOL0     C13269   8.739   6.044   1.226 -0.7975  0.4985 -0.1894
  840MOL0     C13270   8.638   5.969   1.270 -0.4300  0.5341 -1.1587
  840MOL0     C13271   8.552   5.900   1.176  0.3268  0.4907 -0.2779
  840MOL0     C13272   8.573   5.918   1.040  0.1550 -0.4740  0.1924
  840MOL0     O13273   8.501   5.867   0.944  1.0824 -0.2236  0.3677
  840MOL0     C13274   8.429   5.742   0.964 -1.3356  0.9525  0.0284
  840MOL0     C13275   8.525   5.613   0.944 -0.3528  0.6022  0.3043
  840MOL0     C13276   8.447   5.484   0.931  0.4788  0.1950 -0.3795
  840MOL0     C13277   8.436   5.421   1.073 -0.5633  0.2680  0.6227
  840MOL0     C13278   8.319   5.324   1.104 -0.4660 -0.9499  0.0702
  840MOL0     C13279   8.322   5.191   1.026 -0.2526  0.6711 -0.1822
  840MOL0     C13280   8.435   5.103   1.072 -0.3087 -0.0311 -0.9917
  840MOL0     C13281   8.548   5.115   0.970  0.6170  0.5445 -0.1173
  840MOL0     N13282   8.669   5.054   1.012  0.8921  0.1347 -0.3448
  840MOL0     C13283   8.733   4.949   0.957 -0.3385 -0.8031  0.5041
  840MOL0     C13284   8.829   4.912   1.046 -0.3618 -0.3205  0.4694
  840MOL0     C13285   8.931   4.805   1.022  0.5647  0.3867 -0.7679
  840MOL0     C13286   9.069   4.849   1.061 -0.4358 -0.4542  0.3327
  840MOL0     C13287   9.136   4.968   0.986  0.8601 -0.6192  1.4747
  840MOL0     C13288   9.288   4.988   1.015 -0.6129 -0.9061  0.5160
  840MOL0     O13289   9.364   4.863   0.993 -0.2359  0.1152  0.9252
  840MOL0     C13290   9.468   4.830   1.067 -0.9042 -0.0075  0.5943
  840MOL0     C13291   9.466   4.695   1.102 -0.4127  0.5689  0.6568
  840MOL0     C13292   9.566   4.645   1.178 -0.5606  0.1583  0.6340
  840MOL0     C13293   9.552   4.492   1.196  0.6201 -0.0538 -0.0805
  840MOL0     C13294   9.672   4.726   1.227  0.2188 -0.4260  0.6528
  840MOL0     C13295   9.789   4.676   1.314 -0.6600  0.9388  0.3013
  840MOL0     O13296   9.888   4.766   1.336  0.5024 -0.1414  0.2491
  840MOL0     C13297   9.976   4.725   1.437 -0.5439 -0.8287  0.6112
  840MOL0     C13298   9.956   4.765   1.570  0.6409 -0.7413  0.0634
  840MOL0     C13299  10.058   4.744   1.665  0.5717 -0.0469 -0.1980
  840MOL0     C13300  10.181   4.676   1.629  1.2744  0.8635  0.2364
  840MOL0     O13301  10.286   4.653   1.709 -0.2871 -0.8999 -0.8083
  840MOL0     C13302  10.302   4.732   1.830  0.0219  0.1060  0.5475
  840MOL0     C13303  10.331   4.876   1.807 -0.1571  1.0710  0.0123
  840MOL0     C13304  10.467   4.891   1.738  0.2481  0.0474  0.4423
  840MOL0     C13305  10.474   5.007   1.657  0.0469 -0.5000  0.0637
  840MOL0     C13306  10.619   5.048   1.629  0.6393 -0.4288 -0.4018
  840MOL0     C13307  10.613   5.188   1.572 -0.7697 -0.1515 -0.0788
  840MOL0     C13308  10.755   5.210   1.524 -0.0057  2.1741  0.6465
  840MOL0     C13309  10.748   5.318   1.425 -0.6539 -0.3238 -0.0869
  840MOL0    Cl13310  10.658   5.288   1.275  0.2670 -0.9356 -0.7722
  840MOL0     C13311  10.207   4.658   1.499 -0.2862  0.0405  0.4237
  840MOL0     C13312  10.107   4.679   1.402  0.7423  1.0524 -0.1757
  840MOL0     O13313   9.798   4.560   1.342  0.1501  0.0385  0.5225
  840MOL0     C13314   9.669   4.864   1.186 -0.7990 -0.3051 -0.6533
  840MOL0     C13315   9.575   4.914   1.103  0.0315  1.0643  0.3464
  840MOL0     N13316   8.817   4.986   1.156 -0.6533 -1.2274 -0.1363
  840MOL0     N13317   8.732   5.084   1.138 -0.1806 -0.1021  0.0216
  840MOL0     C13318   8.672   6.012   0.997 -0.7403  0.1693  0.0210
  840MOL0     C13319   8.757   6.066   1.085  0.2944 -0.2060 -0.4745
  840MOL0     C13320   8.865   6.315   1.427  0.2528  0.0463 -0.4607
  840MOL0     C13321   8.918   6.243   1.538  0.1609 -0.0498  0.0374
  840MOL0     C13322   9.003   6.306   1.633 -0.2685 -0.5013 -0.0292
  840MOL0     C13323   9.038   6.437   1.614  0.0198 -0.1990  0.1034
  840MOL0     O13324   9.130   6.503   1.688 -0.8070 -0.3192  0.6844
  840MOL0     C13325   9.236   6.435   1.746 -0.2691  0.3967  0.0765
  840MOL0     C13326   9.306   6.526   1.853  0.8146  0.0623  0.4642
  840MOL0     C13327   9.218   6.571   1.967  0.1539 -0.0121  1.1204
  840MOL0     C13328   9.317   6.654   2.055 -0.2414 -0.6154 -0.8286
  840MOL0     C13329   9.245   6.714   2.169  0.2250 -0.9372 -0.5279
  840MOL0     C13330   9.194   6.766   2.273 -0.3122 -0.0510 -0.3760
  840MOL0     C13331   8.975   6.517   1.507 -0.5146  0.4184  0.1192
  840MOL0     C13332   8.886   6.452   1.422 -0.2155  0.9506  1.3851
  840MOL0     H13333   8.629   5.951   1.377 -1.9001  0.1255 -1.3299
  840MOL0     H13334   8.471   5.834   1.207 -0.7956  1.9482  0.0122
  840MOL0     H13335   8.371   5.752   1.056  2.4592  2.6207  2.4999
  840MOL0     H13336   8.352   5.753   0.887 -0.9099 -2.5067 -1.0675
  840MOL0     H13337   8.578   5.621   0.849 -0.8007 -2.9999 -0.3923
  840MOL0     H13338   8.598   5.597   1.024  2.1136 -1.3589 -2.1197
  840MOL0     H13339   8.347   5.520   0.904  1.0195  0.5879 -1.9732
  840MOL0     H13340   8.482   5.417   0.852 -2.8996 -1.1533 -0.8738
  840MOL0     H13341   8.534   5.379   1.100 -1.6592 -0.9023  3.1540
  840MOL0     H13342   8.420   5.503   1.143  1.0606  3.4733 -2.4750
  840MOL0     H13343   8.343   5.308   1.209 -1.8421  0.9026  0.7145
  840MOL0     H13344   8.221   5.365   1.078 -1.6613 -4.1056 -0.8299
  840MOL0     H13345   8.227   5.138   1.035  1.2713 -2.3471 -0.8359
  840MOL0     H13346   8.338   5.219   0.922  2.2050  2.8840  0.6521
  840MOL0     H13347   8.456   5.126   1.177  0.4041  0.2132 -1.1842
  840MOL0     H13348   8.400   5.000   1.083 -0.0270 -0.0683 -0.4245
  840MOL0     H13349   8.562   5.218   0.937 -1.1948  1.1560  0.8860
  840MOL0     H13350   8.505   5.064   0.883 -1.2440  0.0352  1.0506
  840MOL0     H13351   8.716   4.889   0.868  0.5837 -0.1311 -0.1407
  840MOL0     H13352   8.903   4.713   1.074  0.0533  0.4448 -0.9348
  840MOL0     H13353   8.934   4.779   0.916  1.4945  0.0305 -0.6624
  840MOL0     H13354   9.133   4.762   1.039  0.0945 -0.2531  1.0352
  840MOL0     H13355   9.078   4.875   1.167 -1.2283  3.2682 -0.3817
  840MOL0     H13356   9.087   5.052   1.036  0.1267  0.2502 -0.5985
  840MOL0     H13357   9.125   4.973   0.878  1.8324 -1.7461  1.2951
  840MOL0     H13358   9.298   5.027   1.117 -0.0353 -2.0509  0.9078
  840MOL0     H13359   9.318   5.055   0.934 -0.1217 -2.0832 -0.3007
  840MOL0     H13360   9.388   4.634   1.058  0.0616  1.7911 -2.1022
  840MOL0     H13361   9.462   4.457   1.144  2.4287 -2.7524 -1.5876
  840MOL0     H13362   9.623   4.444   1.129  0.5793  1.4892 -1.2950
  840MOL0     H13363   9.559   4.450   1.297  0.1113 -1.7509 -0.7166
  840MOL0     H13364   9.870   4.829   1.586  2.0153  1.3040 -0.3139
  840MOL0     H13365  10.043   4.777   1.768  1.0921  0.7049 -0.3503
  840MOL0     H13366  10.215   4.710   1.893 -0.8640 -4.0510 -1.7818
  840MOL0     H13367  10.392   4.701   1.884 -1.0500  0.4451  2.6476
  840MOL0     H13368  10.261   4.912   1.731 -2.0967 -0.7872  0.7983
  840MOL0     H13369  10.324   4.930   1.902  0.9052 -0.1811  0.8399
  840MOL0     H13370  10.492   4.806   1.674  1.2133  0.4433  0.2774
  840MOL0     H13371  10.542   4.894   1.818  0.6862  0.4922  0.0208
  840MOL0     H13372  10.431   4.984   1.559  0.8339 -2.3335  0.1204
  840MOL0     H13373  10.417   5.089   1.702  0.5950  0.4093 -0.8416
  840MOL0     H13374  10.662   4.969   1.566  4.6516 -0.9656  2.6447
  840MOL0     H13375  10.669   5.054   1.726 -0.4228 -1.5205  0.2422
  840MOL0     H13376  10.533   5.199   1.498 -0.3147  0.9477 -0.4200
  840MOL0     H13377  10.586   5.269   1.641 -0.6499  1.8125 -2.2353
  840MOL0     H13378  10.791   5.118   1.477 -0.7168  1.3599  1.6444
  840MOL0     H13379  10.825   5.242   1.602  0.0474  1.2015  1.0166
  840MOL0     H13380  10.850   5.330   1.387 -0.1219 -0.4674  1.2508
  840MOL0     H13381  10.718   5.411   1.474 -1.1211 -0.1812 -0.6235
  840MOL0     H13382  10.307   4.636   1.463 -1.4536 -1.7458 -2.0405
  840MOL0     H13383  10.141   4.663   1.300  1.8413 -0.7849  0.4369
  840MOL0     H13384   9.754   4.925   1.215  0.1872 -0.5835 -2.7718
  840MOL0     H13385   9.576   5.016   1.066 -0.7519  0.9462 -0.0206
  840MOL0     H13386   8.686   6.035   0.891  1.3199  1.2081  0.4610
  840MOL0     H13387   8.836   6.130   1.049  2.2373 -2.4383 -0.4195
  840MOL0     H13388   8.891   6.138   1.539 -0.4290  0.1002 -0.1575
  840MOL0     H13389   9.038   6.246   1.717 -0.4331  0.7098  0.9256
  840MOL0     H13390   9.209   6.338   1.788  1.4123 -0.8941 -1.6590
  840MOL0     H13391   9.304   6.422   1.661 -1.3621  1.7695 -1.0639
  840MOL0     H13392   9.351   6.612   1.803  1.8617 -1.5763 -1.5489
  840MOL0     H13393   9.390   6.466   1.888 -0.4894 -2.3861 -0.3469
  840MOL0     H13394   9.175   6.482   2.013 -0.0077 -0.1561  0.6987
  840MOL0     H13395   9.139   6.641   1.937 -0.8392 -0.4506  2.6283
  840MOL0     H13396   9.371   6.729   1.999  1.5566 -0.9918  0.3244
  840MOL0     H13397   9.390   6.580   2.091 -1.1676 -1.3212 -0.3403
  840MOL0     H13398   9.167   6.785   2.375  0.8969 -1.9846  0.3524
  840MOL0     H13399   9.005   6.617   1.476  4.3825 -0.4779  1.2231
  840MOL0     H13400   8.845   6.507   1.338 -2.7748 -0.2505  1.7495
  841MOL0     O13401   0.015  10.116   8.188 -0.1096 -0.3383 -0.4408
  841MOL0     C13402   0.037  10.182   8.291 -0.5427 -0.7463  1.0629
  841MOL0     O13403   0.153  10.183   8.365  0.0765  0.0022 -0.1733
  841MOL0     C13404   0.255  10.102   8.326  0.3539  0.5296  0.1388
  841MOL0     C13405   0.351  10.163   8.251  0.4637 -0.3790  0.3858
  841MOL0     C13406   0.453  10.094   8.195 -0.0954 -0.1077 -1.3181
  841MOL0     C13407   0.481   9.962   8.237  0.6149 -0.5894 -0.3864
  841MOL0     O13408   0.598   9.904   8.192  0.4293  0.4002  0.3470
  841MOL0     C13409   0.681   9.833   8.287  0.7803  0.7196 -0.6017
  841MOL0     C13410   0.812   9.767   8.232  0.2244 -0.3483  0.3418
  841MOL0     C13411   0.759   9.644   8.153 -1.1093 -0.5870 -0.1968
  841MOL0     C13412   0.877   9.578   8.081  0.0371  0.7043  0.4386
  841MOL0     C13413   0.823   9.492   7.957 -0.7146  0.1664 -0.2027
  841MOL0     C13414   0.748   9.366   8.007  0.7296 -0.2126 -1.0369
  841MOL0     C13415   0.676   9.308   7.883  0.0805 -0.5432  0.3680
  841MOL0     C13416   0.780   9.220   7.804  0.8547  0.7692 -0.6474
  841MOL0     N13417   0.822   9.104   7.883 -0.3242 -1.3272  0.1331
  841MOL0     C13418   0.742   9.003   7.929 -0.4520 -0.1578  0.4216
  841MOL0     C13419   0.805   8.921   8.020 -0.6404  0.5900 -0.5415
  841MOL0     C13420   0.769   8.785   8.081 -0.6229  0.5845 -0.3915
  841MOL0     C13421   0.743   8.796   8.228 -0.2885  0.0616 -0.1607
  841MOL0     C13422   0.604   8.851   8.255  0.1332  0.6684  0.0841
  841MOL0     C13423   0.578   8.898   8.395 -0.1067 -0.1190  0.3413
  841MOL0     O13424   0.629   9.028   8.421  0.3181 -0.0400  0.4222
  841MOL0     C13425   0.539   9.127   8.443 -0.3949  0.9916 -0.4738
  841MOL0     C13426   0.425   9.107   8.515 -0.0246 -0.4592 -0.7024
  841MOL0     C13427   0.335   9.215   8.535  0.0388 -0.1172 -0.7277
  841MOL0     C13428   0.218   9.189   8.628  0.7829 -0.1643  0.2944
  841MOL0     C13429   0.373   9.348   8.480 -0.2103  0.9486 -0.7267
  841MOL0     C13430   0.279   9.466   8.502  0.0578  0.1119  0.3384
  841MOL0     O13431   0.201   9.477   8.610 -0.5213  0.4694 -0.6559
  841MOL0     C13432   0.146   9.593   8.633 -0.1491 -0.3374  0.4929
  841MOL0     C13433   0.009   9.624   8.608 -0.0942  0.2024  0.1899
  841MOL0     C13434  -0.041   9.743   8.661 -0.7002  0.1136 -0.2184
  841MOL0     C13435   0.047   9.835   8.722 -0.7850 -0.6303  0.2494
  841MOL0     O13436   0.004   9.966   8.757 -0.4522 -1.0321  0.4865
  841MOL0     C13437   0.073  10.039   8.854 -0.7129 -0.4118 -0.2240
  841MOL0     C13438   0.083   9.966   8.987  0.0785 -0.7725  1.0667
  841MOL0     C13439   0.143  10.049   9.102  0.7625 -0.2024 -0.3021
  841MOL0     C13440   0.094  10.018   9.247  0.0022 -0.0875  0.4352
  841MOL0     C13441   0.166  10.106   9.354 -0.2737 -0.0018 -0.4506
  841MOL0     C13442   0.158  10.258   9.312 -0.0318  0.0958  0.4997
  841MOL0     C13443   0.179  10.361   9.426  0.5152 -0.7631  0.3904
  841MOL0     C13444   0.314  10.420   9.432 -0.6787  0.2721  0.6438
  841MOL0    Cl13445   0.336  10.487   9.582 -0.4001 -0.2873 -0.5067
  841MOL0     C13446   0.187   9.817   8.721  0.2543 -0.6209 -0.0066
  841MOL0     C13447   0.232   9.686   8.688 -0.0875 -0.2834 -0.5486
  841MOL0     O13448   0.287   9.547   8.413  0.5077 -1.2060  0.3791
  841MOL0     C13449   0.494   9.361   8.426 -0.5508 -0.5823 -0.8011
  841MOL0     C13450   0.583   9.249   8.408  0.2825 -0.1016 -0.5760
  841MOL0     N13451   0.927   8.982   8.040  0.7614 -0.3225 -0.4649
  841MOL0     N13452   0.932   9.088   7.955  0.4120  0.8490  0.4884
  841MOL0     C13453   0.383   9.902   8.314 -0.2728 -0.3450 -0.3148
  841MOL0     C13454   0.269   9.970   8.361 -0.0259 -0.6549  0.3288
  841MOL0     C13455  -0.052  10.298   8.314 -0.4848 -0.6976  0.1913
  841MOL0     C13456  -0.187  10.299   8.263  0.6677 -0.0240 -0.4040
  841MOL0     C13457  -0.276  10.413   8.272 -0.7325  0.4169  0.1994
  841MOL0     C13458  -0.242  10.520   8.358 -0.3966  0.2304  0.9419
  841MOL0     O13459  -0.315  10.629   8.391 -0.5949  0.9013  0.4589
  841MOL0     C13460  -0.452  10.624   8.387 -0.6276  0.5137  0.0153
  841MOL0     C13461  -0.516  10.714   8.497  0.5306  0.0179 -0.9295
  841MOL0     C13462  -0.669  10.707   8.498 -0.1786 -0.4895 -0.5168
  841MOL0     C13463  -0.732  10.810   8.604 -0.5418  0.2537  0.6841
  841MOL0     C13464  -0.712  10.951   8.577  0.9803 -0.7598  1.4433
  841MOL0     C13465  -0.707  11.068   8.530 -0.9866  0.6337 -0.2168
  841MOL0     C13466  -0.112  10.513   8.418 -0.4060  0.9342  0.5236
  841MOL0     C13467  -0.020  10.406   8.392 -0.2644  0.1828 -1.0214
  841MOL0     H13468   0.342  10.269   8.231  1.3207 -0.3358  0.2028
  841MOL0     H13469   0.527  10.143   8.132  1.3094  2.0431  1.7896
  841MOL0     H13470   0.698   9.906   8.367 -0.6834 -0.9662  1.3712
  841MOL0     H13471   0.620   9.754   8.332 -0.5310  1.2455 -1.4057
  841MOL0     H13472   0.864   9.830   8.159 -2.4127  0.2584 -1.1438
  841MOL0     H13473   0.889   9.740   8.305 -0.3252 -2.1185  0.3331
  841MOL0     H13474   0.720   9.573   8.228 -0.6617 -0.7907 -0.1566
  841MOL0     H13475   0.690   9.673   8.073  0.4702 -1.1427 -1.8101
  841MOL0     H13476   0.944   9.651   8.033  1.2329 -1.6880 -1.7666
  841MOL0     H13477   0.938   9.524   8.154  0.7731  0.1915 -0.5310
  841MOL0     H13478   0.762   9.558   7.895 -0.7887  0.9478  0.6760
  841MOL0     H13479   0.912   9.463   7.901  1.3406  1.7391  2.0114
  841MOL0     H13480   0.811   9.295   8.061  0.2291 -0.3841 -0.6662
  841MOL0     H13481   0.670   9.402   8.075  1.2917  0.9136 -0.9750
  841MOL0     H13482   0.588   9.247   7.904 -0.2820 -0.6908 -1.3935
  841MOL0     H13483   0.633   9.382   7.816 -1.0577 -0.8281  0.7576
  841MOL0     H13484   0.867   9.278   7.772 -0.6551  3.0218 -0.9073
  841MOL0     H13485   0.727   9.209   7.709 -3.3710 -0.7084  1.6429
  841MOL0     H13486   0.640   8.983   7.899 -1.0976  0.4868  2.0622
  841MOL0     H13487   0.688   8.734   8.029  0.7358 -0.4811 -1.5350
  841MOL0     H13488   0.854   8.717   8.072 -0.1751  0.9643  0.7113
  841MOL0     H13489   0.823   8.861   8.266  0.1914  0.5897 -1.9856
  841MOL0     H13490   0.750   8.695   8.269 -3.4281 -1.8545 -3.7535
  841MOL0     H13491   0.537   8.766   8.247 -0.9002  1.4972 -0.2770
  841MOL0     H13492   0.570   8.932   8.189 -3.9015  0.5237  1.7157
  841MOL0     H13493   0.624   8.831   8.468 -1.5272 -0.8137  0.6376
  841MOL0     H13494   0.470   8.892   8.408 -0.1758  0.5383  0.1077
  841MOL0     H13495   0.401   9.006   8.545  5.1767 -2.3178 -1.7546
  841MOL0     H13496   0.133   9.239   8.580 -0.1459 -0.8969  1.1484
  841MOL0     H13497   0.171   9.091   8.626 -1.5501  0.8561  1.2362
  841MOL0     H13498   0.245   9.220   8.729 -0.8398  0.1757  0.6407
  841MOL0     H13499  -0.055   9.552   8.558  2.2917 -1.2339 -0.9780
  841MOL0     H13500  -0.148   9.741   8.674 -0.5767 -5.6911  3.4602
  841MOL0     H13501   0.171  10.080   8.829 -0.0248 -2.9488 -2.0454
  841MOL0     H13502   0.018  10.132   8.868  1.0149  0.8670 -1.4468
  841MOL0     H13503  -0.023   9.954   9.011 -0.4021  1.1153 -0.0008
  841MOL0     H13504   0.129   9.867   8.974  2.0417  0.1979  0.1008
  841MOL0     H13505   0.139  10.152   9.066  0.7544  0.5292  1.6510
  841MOL0     H13506   0.251  10.030   9.108  0.2694 -3.0403  1.6013
  841MOL0     H13507  -0.013  10.038   9.261 -0.2872 -0.1124 -1.5325
  841MOL0     H13508   0.115   9.911   9.259  0.9375 -0.0154 -0.4490
  841MOL0     H13509   0.268  10.066   9.361 -1.1905 -2.3376  0.9373
  841MOL0     H13510   0.138  10.091   9.459  1.4160 -0.6479 -0.0444
  841MOL0     H13511   0.239  10.274   9.240  2.2858 -1.1673  2.6668
  841MOL0     H13512   0.062  10.284   9.268  0.7095  0.3736 -1.0415
  841MOL0     H13513   0.151  10.322   9.524 -1.7972  1.1135  0.5739
  841MOL0     H13514   0.107  10.441   9.407 -0.9468 -2.3106 -0.8904
  841MOL0     H13515   0.334  10.498   9.358 -1.9850 -0.3562 -0.4086
  841MOL0     H13516   0.386  10.339   9.415  1.0559  2.0975 -1.2337
  841MOL0     H13517   0.257   9.896   8.742 -0.7815  0.1105  0.7829
  841MOL0     H13518   0.338   9.671   8.702  0.4482  1.7592 -1.9510
  841MOL0     H13519   0.522   9.458   8.387  1.7347 -1.9014 -2.6547
  841MOL0     H13520   0.674   9.268   8.352  1.0548 -0.2120  0.6078
  841MOL0     H13521   0.388   9.795   8.331  1.2119 -0.5698 -1.8738
  841MOL0     H13522   0.194   9.922   8.422  0.5850 -1.8285  0.1881
  841MOL0     H13523  -0.235  10.213   8.219  1.4190 -3.1252  4.2007
  841MOL0     H13524  -0.382  10.395   8.259 -1.0193  1.4657  0.9864
  841MOL0     H13525  -0.484  10.666   8.292 -0.5049  2.5973  0.8224
  841MOL0     H13526  -0.490  10.522   8.396 -3.2948  1.5870  3.0773
  841MOL0     H13527  -0.481  10.817   8.492 -0.1612  0.2726 -0.6945
  841MOL0     H13528  -0.483  10.676   8.594  0.8575 -0.0433 -1.0636
  841MOL0     H13529  -0.682  10.604   8.532 -0.5271  0.6449  3.2293
  841MOL0     H13530  -0.711  10.738   8.401  2.0272  0.3987 -1.2630
  841MOL0     H13531  -0.681  10.793   8.699 -0.0850  0.7152  0.5257
  841MOL0     H13532  -0.839  10.789   8.610 -0.7111  0.0044 -1.8346
  841MOL0     H13533  -0.706  11.168   8.492 -1.2471  1.0345  0.7866
  841MOL0     H13534  -0.078  10.602   8.469 -1.2657  0.9362  1.1003
  841MOL0     H13535   0.079  10.415   8.435 -0.6782  2.1927 -0.3907
  842MOL0     O13536   0.442   1.407   3.563  1.0909 -0.6893 -0.0384
  842MOL0     C13537   0.413   1.296   3.513  0.2136  0.0543 -0.1942
  842MOL0     O13538   0.381   1.187   3.587  0.2169  0.2671 -0.3146
  842MOL0     C13539   0.367   1.204   3.726  0.3922  0.4753 -0.6256
  842MOL0     C13540   0.434   1.120   3.807  0.1505  1.1040 -0.1811
  842MOL0     C13541   0.408   1.119   3.950 -0.6658  0.9255  0.1817
  842MOL0     C13542   0.312   1.198   4.003  0.0347  0.5211 -0.4373
  842MOL0     O13543   0.289   1.212   4.139 -0.0375  0.4011  0.3512
  842MOL0     C13544   0.250   1.087   4.209  0.1205 -0.4168 -0.7896
  842MOL0     C13545   0.311   1.071   4.344  0.1386  0.0133  0.5199
  842MOL0     C13546   0.208   1.005   4.442 -0.5092  0.7774  0.1380
  842MOL0     C13547   0.275   0.965   4.577  0.1661 -0.4275  0.4960
  842MOL0     C13548   0.177   0.887   4.657  0.9956 -0.0441  0.5000
  842MOL0     C13549   0.220   0.850   4.801  0.4114 -0.7823  0.3621
  842MOL0     C13550   0.144   0.734   4.863  0.6722 -0.7130 -0.2489
  842MOL0     C13551   0.005   0.782   4.899  0.3671 -0.0370 -0.3033
  842MOL0     N13552  -0.100   0.680   4.911  0.2854  0.7855 -0.7280
  842MOL0     C13553  -0.127   0.641   5.036 -0.4345 -0.8271  0.0692
  842MOL0     C13554  -0.208   0.536   5.026  0.0359 -0.1467  0.4966
  842MOL0     C13555  -0.274   0.461   5.139 -1.2935  0.5080  0.7352
  842MOL0     C13556  -0.368   0.554   5.225  0.6214 -0.0509  0.3911
  842MOL0     C13557  -0.514   0.550   5.172 -0.3904  0.3251  0.3511
  842MOL0     C13558  -0.612   0.650   5.240  0.5706 -0.0579 -0.3330
  842MOL0     O13559  -0.599   0.649   5.385  0.2893 -0.1540  0.1874
  842MOL0     C13560  -0.713   0.710   5.428  0.4397 -0.2361 -0.1913
  842MOL0     C13561  -0.840   0.645   5.437  0.9566  0.1426 -0.7193
  842MOL0     C13562  -0.957   0.711   5.469 -0.0906  0.2280  0.0942
  842MOL0     C13563  -1.087   0.623   5.467 -0.8148 -0.4525  0.2642
  842MOL0     C13564  -0.941   0.845   5.513  0.0069  0.1620  0.0420
  842MOL0     C13565  -1.061   0.920   5.554  0.4493  0.3901  0.5477
  842MOL0     O13566  -1.051   1.046   5.580 -0.3808 -1.1296 -0.0018
  842MOL0     C13567  -1.137   1.104   5.676 -0.5326 -0.1807  0.2218
  842MOL0     C13568  -1.268   1.121   5.657 -0.0991 -1.0958  0.4043
  842MOL0     C13569  -1.337   1.198   5.748  0.5334 -0.0742  0.4959
  842MOL0     C13570  -1.273   1.260   5.857 -0.6899  0.7684 -0.3066
  842MOL0     O13571  -1.321   1.344   5.957 -0.1789  0.4208  0.4498
  842MOL0     C13572  -1.464   1.363   5.962 -0.4194  0.1308 -1.0261
  842MOL0     C13573  -1.517   1.478   6.053  0.3133 -0.0987 -0.2362
  842MOL0     C13574  -1.448   1.611   6.041  0.1811  0.6482  0.8074
  842MOL0     C13575  -1.316   1.601   6.125  0.3676 -0.5984 -1.4378
  842MOL0     C13576  -1.259   1.736   6.181  0.9807 -0.5590 -0.9634
  842MOL0     C13577  -1.361   1.800   6.283  0.2548  0.0091  0.8101
  842MOL0     C13578  -1.286   1.880   6.388 -0.0927 -0.5958 -0.1224
  842MOL0     C13579  -1.379   1.960   6.473  0.4651  0.3653  0.3971
  842MOL0    Cl13580  -1.479   1.863   6.574 -0.3303  0.0061 -0.5311
  842MOL0     C13581  -1.142   1.249   5.871  0.5277  0.2436  0.2547
  842MOL0     C13582  -1.071   1.171   5.781 -0.1812  0.6586 -0.7495
  842MOL0     O13583  -1.173   0.867   5.557 -0.1144 -0.3490 -0.2016
  842MOL0     C13584  -0.813   0.905   5.522 -0.6723 -0.2453 -0.0697
  842MOL0     C13585  -0.700   0.841   5.476 -0.3332  0.8298  0.1285
  842MOL0     N13586  -0.228   0.504   4.893 -0.5434  0.0757  1.1205
  842MOL0     N13587  -0.160   0.602   4.823  0.6378  0.5101 -0.0706
  842MOL0     C13588   0.243   1.286   3.919  0.2817 -0.3664  0.0477
  842MOL0     C13589   0.269   1.286   3.784  0.0325  0.5318  1.2089
  842MOL0     C13590   0.423   1.279   3.368 -0.5314 -0.2480 -1.1981
  842MOL0     C13591   0.432   1.151   3.314 -0.3556 -0.6018 -0.5488
  842MOL0     C13592   0.431   1.138   3.177  0.8179 -1.1976  0.7815
  842MOL0     C13593   0.418   1.242   3.083  0.5526 -0.4480 -0.0485
  842MOL0     O13594   0.416   1.212   2.944  0.0901  0.2116  0.0384
  842MOL0     C13595   0.374   1.321   2.858  0.2544 -0.3642 -0.7529
  842MOL0     C13596   0.370   1.268   2.719  0.9757  0.1237  0.4276
  842MOL0     C13597   0.295   1.131   2.694 -0.0303 -0.7985 -0.3506
  842MOL0     C13598   0.386   1.014   2.676 -0.3525 -0.1548 -0.1455
  842MOL0     C13599   0.432   1.011   2.536 -0.6515  0.7583 -0.3344
  842MOL0     C13600   0.469   1.036   2.425  0.4170  0.2781  0.1851
  842MOL0     C13601   0.397   1.373   3.137 -0.6192  0.5923  1.1748
  842MOL0     C13602   0.408   1.380   3.273 -0.7615  0.2314  0.5147
  842MOL0     H13603   0.507   1.052   3.767  2.4199  1.2177  3.3504
  842MOL0     H13604   0.465   1.054   4.016 -2.9141 -0.2552  1.0642
  842MOL0     H13605   0.143   1.094   4.226  0.4149 -0.3086  1.2096
  842MOL0     H13606   0.283   1.004   4.147  0.5300  0.5940 -1.9779
  842MOL0     H13607   0.384   0.991   4.330 -0.5974 -0.9709  2.0230
  842MOL0     H13608   0.364   1.160   4.376  2.9051 -1.3081 -0.0948
  842MOL0     H13609   0.130   1.081   4.453  0.8517  2.1888  0.3680
  842MOL0     H13610   0.147   0.921   4.408  1.6282 -1.7982  2.2418
  842MOL0     H13611   0.357   0.899   4.546  0.9708  0.1213  1.4273
  842MOL0     H13612   0.319   1.047   4.633  0.6009  0.1589 -0.6656
  842MOL0     H13613   0.087   0.948   4.667  2.7688  2.5566  1.7129
  842MOL0     H13614   0.155   0.796   4.600  0.5200  0.9558 -0.9770
  842MOL0     H13615   0.329   0.836   4.804  0.6511  0.3924 -1.4206
  842MOL0     H13616   0.194   0.931   4.870 -0.6675 -1.1570  0.4020
  842MOL0     H13617   0.148   0.648   4.796  0.4994 -0.6351 -0.3609
  842MOL0     H13618   0.185   0.701   4.958  2.1560  1.6953  0.0381
  842MOL0     H13619  -0.030   0.856   4.826  1.8509 -1.6094 -2.7246
  842MOL0     H13620   0.010   0.841   4.991 -0.4480 -0.3057 -0.0810
  842MOL0     H13621  -0.101   0.681   5.134  1.0764  1.8353 -1.3055
  842MOL0     H13622  -0.329   0.374   5.102  0.1109 -1.6929  3.4528
  842MOL0     H13623  -0.195   0.424   5.206  0.8941 -1.5906 -2.6870
  842MOL0     H13624  -0.323   0.654   5.218  1.2978 -0.4675 -1.8487
  842MOL0     H13625  -0.382   0.516   5.327 -3.2051 -1.1044 -0.3546
  842MOL0     H13626  -0.557   0.452   5.194  0.1909 -0.3671 -1.4610
  842MOL0     H13627  -0.517   0.566   5.064 -0.7498  0.6837  0.4115
  842MOL0     H13628  -0.716   0.636   5.208  0.8610 -2.3511 -0.4171
  842MOL0     H13629  -0.583   0.752   5.211 -0.6582  0.2728 -0.4608
  842MOL0     H13630  -0.845   0.539   5.411  0.4871  0.4035 -1.7649
  842MOL0     H13631  -1.120   0.607   5.570 -0.5920 -0.9164  0.2626
  842MOL0     H13632  -1.171   0.675   5.419  0.3367 -0.9045 -2.4479
  842MOL0     H13633  -1.069   0.532   5.409 -1.0861  1.1758 -2.5879
  842MOL0     H13634  -1.313   1.083   5.566 -3.4912  0.6942  1.1617
  842MOL0     H13635  -1.443   1.210   5.733  0.1050 -3.2439  0.3128
  842MOL0     H13636  -1.509   1.394   5.868 -1.7098  2.3304  0.2247
  842MOL0     H13637  -1.514   1.273   5.998 -2.3196  2.2477  2.1637
  842MOL0     H13638  -1.622   1.496   6.025 -0.7227  0.6790  3.6122
  842MOL0     H13639  -1.522   1.442   6.156  1.3238  0.5790  0.0601
  842MOL0     H13640  -1.506   1.698   6.075  0.0962  1.9706 -2.3402
  842MOL0     H13641  -1.423   1.621   5.935 -0.3407 -3.3500  0.1648
  842MOL0     H13642  -1.340   1.546   6.216 -0.0540  1.7635 -0.0177
  842MOL0     H13643  -1.234   1.540   6.085  0.9439 -2.3445  2.0831
  842MOL0     H13644  -1.226   1.813   6.111  1.1808  1.4870  1.2486
  842MOL0     H13645  -1.164   1.717   6.233  0.5157  2.8879  1.4491
  842MOL0     H13646  -1.434   1.859   6.226 -1.1831 -1.5006  1.0247
  842MOL0     H13647  -1.413   1.714   6.327  0.7158 -4.4688 -5.9665
  842MOL0     H13648  -1.218   1.949   6.339  0.7910 -1.1732  0.2706
  842MOL0     H13649  -1.230   1.810   6.451 -4.0315 -1.9770  2.2513
  842MOL0     H13650  -1.461   1.995   6.410 -0.4333 -3.1216 -0.5859
  842MOL0     H13651  -1.326   2.043   6.520 -1.0742  1.2851  0.5859
  842MOL0     H13652  -1.087   1.319   5.933  3.5036  0.8334 -2.7658
  842MOL0     H13653  -0.962   1.172   5.777 -0.0745  1.6554  1.1243
  842MOL0     H13654  -0.805   1.004   5.566  1.5028 -0.0954 -0.7070
  842MOL0     H13655  -0.596   0.870   5.489 -0.4441  1.9531 -1.3019
  842MOL0     H13656   0.164   1.356   3.944  1.1993  0.4602  0.6980
  842MOL0     H13657   0.220   1.354   3.715  1.2864  0.6346  0.3873
  842MOL0     H13658   0.439   1.066   3.380 -0.0974 -1.0878 -1.1871
  842MOL0     H13659   0.442   1.041   3.131  1.1539 -0.6079 -0.4077
  842MOL0     H13660   0.269   1.341   2.882 -0.9198 -3.4851 -2.6747
  842MOL0     H13661   0.442   1.406   2.865  0.3813 -0.4207 -1.3101
  842MOL0     H13662   0.461   1.260   2.659 -0.3465  0.2400 -1.7069
  842MOL0     H13663   0.315   1.340   2.658  3.2000  0.0629 -1.8322
  842MOL0     H13664   0.224   1.147   2.612 -0.1546  0.7671  0.0257
  842MOL0     H13665   0.241   1.103   2.784  1.0710 -0.3117  0.4873
  842MOL0     H13666   0.331   0.920   2.683 -2.6859  0.8112 -3.2850
  842MOL0     H13667   0.469   1.016   2.747  2.1385 -2.7968 -2.7076
  842MOL0     H13668   0.504   1.064   2.328  1.1798 -2.5426 -0.4429
  842MOL0     H13669   0.381   1.458   3.072  2.2899 -0.3847 -1.0631
  842MOL0     H13670   0.404   1.477   3.322  1.3266 -0.6623  2.6347
  843MOL0     O13671   6.195   9.806   9.961 -0.9387 -0.1526  0.2247
  843MOL0     C13672   6.204   9.681   9.945 -0.2593 -0.0927 -0.4719
  843MOL0     O13673   6.117   9.595  10.001 -0.0458 -0.9108 -1.2196
  843MOL0     C13674   6.008   9.635  10.083 -0.3777  0.4950  0.2792
  843MOL0     C13675   5.897   9.721  10.046 -0.3205 -0.0252  0.0107
  843MOL0     C13676   5.801   9.739  10.140  0.2796 -0.5075  0.2531
  843MOL0     C13677   5.788   9.671  10.257  0.1301 -0.0703  0.1646
  843MOL0     O13678   5.680   9.692  10.342 -0.0885 -0.0034 -0.5221
  843MOL0     C13679   5.642   9.595  10.437 -0.6040  0.1980 -0.1939
  843MOL0     C13680   5.563   9.643  10.557  0.7823 -0.3099 -0.0049
  843MOL0     C13681   5.491   9.537  10.641 -0.9854  0.5619 -0.6503
  843MOL0     C13682   5.405   9.591  10.759 -0.2562  0.2969  1.1301
  843MOL0     C13683   5.313   9.482  10.822 -0.1388  0.8303  0.1557
  843MOL0     C13684   5.232   9.532  10.943 -0.9398  0.1385  0.7376
  843MOL0     C13685   5.125   9.425  10.975  0.4246  0.0346  0.4947
  843MOL0     C13686   5.049   9.463  11.112 -0.2835  0.1332  0.1195
  843MOL0     N13687   4.958   9.357  11.166  0.2568  0.5157  0.0251
  843MOL0     C13688   4.908   9.343  11.301  0.1311  0.0924  0.3354
  843MOL0     C13689   4.825   9.231  11.286 -0.9051  0.2488 -0.1714
  843MOL0     C13690   4.745   9.177  11.399  0.7542 -0.2753  0.0624
  843MOL0     C13691   4.826   9.106  11.508  0.0234  0.1577  0.3654
  843MOL0     C13692   4.889   9.205  11.606  0.1459 -0.8763  0.1040
  843MOL0     C13693   4.946   9.134  11.717 -0.9227 -0.9037 -0.2845
  843MOL0     O13694   5.055   9.056  11.674 -1.0164 -0.0629 -0.3505
  843MOL0     C13695   5.085   8.927  11.712  0.7770  0.6643 -0.1195
  843MOL0     C13696   5.202   8.870  11.653  0.6705  0.1201 -0.6987
  843MOL0     C13697   5.239   8.741  11.683  0.0803  0.7842  1.0643
  843MOL0     C13698   5.361   8.688  11.603  0.1141 -1.1590 -0.5648
  843MOL0     C13699   5.161   8.657  11.760 -0.3714  0.8249 -0.0353
  843MOL0     C13700   5.180   8.509  11.773 -0.0645  0.1398 -0.5422
  843MOL0     O13701   5.191   8.437  11.670  0.1134 -1.0728 -0.4071
  843MOL0     C13702   5.192   8.305  11.677  0.5289 -0.6669  0.0718
  843MOL0     C13703   5.274   8.233  11.594 -0.2190  0.4007 -0.3079
  843MOL0     C13704   5.277   8.087  11.601  0.1906 -0.2638 -0.5210
  843MOL0     C13705   5.189   8.013  11.675 -0.5297  0.5210  0.0498
  843MOL0     O13706   5.203   7.876  11.668  0.4166  1.2822 -0.0176
  843MOL0     C13707   5.097   7.799  11.733 -0.5458  0.1965  1.0325
  843MOL0     C13708   5.074   7.659  11.690 -0.6081 -0.1342  0.8005
  843MOL0     C13709   5.161   7.575  11.774  0.4696  0.2357 -0.2605
  843MOL0     C13710   5.296   7.527  11.713  0.3363 -0.3478  0.7990
  843MOL0     C13711   5.390   7.455  11.819  0.4257  0.1129  0.2835
  843MOL0     C13712   5.537   7.437  11.785 -0.2251 -0.0706  0.3268
  843MOL0     C13713   5.630   7.408  11.903  0.8574  1.2270  0.2376
  843MOL0     C13714   5.627   7.263  11.949  0.7774 -0.3008  0.0072
  843MOL0    Cl13715   5.698   7.152  11.819 -0.1666 -0.3906 -0.3649
  843MOL0     C13716   5.095   8.087  11.754 -0.5133  0.5560 -0.3759
  843MOL0     C13717   5.094   8.229  11.751  0.5234  0.1134 -0.1030
  843MOL0     O13718   5.153   8.462  11.888 -0.4370  0.1165  0.4256
  843MOL0     C13719   5.037   8.715  11.814 -0.1248 -0.4512  0.2475
  843MOL0     C13720   4.997   8.842  11.790 -0.3998 -0.0064 -0.6387
  843MOL0     N13721   4.835   9.176  11.153 -0.4069  0.2867 -1.0587
  843MOL0     N13722   4.908   9.253  11.084 -0.2914 -0.3899  0.4612
  843MOL0     C13723   5.894   9.580  10.291  0.6945 -0.1070 -0.6258
  843MOL0     C13724   5.996   9.564  10.200 -0.7910 -0.2354  0.6098
  843MOL0     C13725   6.322   9.623   9.874  0.1441  1.1709  0.2497
  843MOL0     C13726   6.337   9.480   9.885  0.2272 -0.1818 -0.0518
  843MOL0     C13727   6.430   9.420   9.808 -1.3058  0.5323 -0.4664
  843MOL0     C13728   6.503   9.489   9.711 -0.0089  0.2922 -1.2033
  843MOL0     O13729   6.590   9.400   9.645  0.5293  0.1891  0.4965
  843MOL0     C13730   6.666   9.463   9.535  0.0506  0.6834 -0.1410
  843MOL0     C13731   6.793   9.522   9.575  0.5404 -0.5103  0.5911
  843MOL0     C13732   6.857   9.446   9.694 -0.7188 -0.2667 -0.3082
  843MOL0     C13733   6.988   9.523   9.732 -0.9302 -0.2695 -0.4010
  843MOL0     C13734   6.958   9.660   9.775 -0.2692  0.6106  0.6232
  843MOL0     C13735   6.944   9.768   9.832  1.0581 -0.4979  0.6838
  843MOL0     C13736   6.485   9.626   9.691 -1.0278 -0.6610 -0.2782
  843MOL0     C13737   6.394   9.688   9.779 -0.5504 -0.6358 -0.5496
  843MOL0     H13738   5.883   9.767   9.949 -3.5349  3.5095  1.8887
  843MOL0     H13739   5.731   9.816  10.107 -0.7003 -2.1874 -1.8867
  843MOL0     H13740   5.581   9.527  10.376 -1.4262  1.3421 -0.6793
  843MOL0     H13741   5.728   9.542  10.480 -1.8168  0.6044  2.9684
  843MOL0     H13742   5.614   9.716  10.621 -0.1934 -0.2264  0.7001
  843MOL0     H13743   5.473   9.697  10.526  1.0037  2.8779  4.0131
  843MOL0     H13744   5.425   9.475  10.579  1.6231 -1.9318 -1.1383
  843MOL0     H13745   5.562   9.462  10.677  0.7983  4.0536  4.2470
  843MOL0     H13746   5.465   9.639  10.838 -2.1864  0.2006  2.7336
  843MOL0     H13747   5.340   9.668  10.718  2.6070  0.7556 -3.2141
  843MOL0     H13748   5.239   9.452  10.748 -0.8712 -0.0500  1.2003
  843MOL0     H13749   5.382   9.401  10.849 -1.0488 -0.5324 -1.4217
  843MOL0     H13750   5.291   9.555  11.033 -0.5514 -1.7451  1.0181
  843MOL0     H13751   5.184   9.625  10.912 -0.4929 -0.8223 -3.3072
  843MOL0     H13752   5.058   9.425  10.889  0.5553 -1.3992  0.3749
  843MOL0     H13753   5.156   9.322  10.995 -1.8622 -0.3036  3.0158
  843MOL0     H13754   4.995   9.556  11.094 -0.9042  0.1175  1.7140
  843MOL0     H13755   5.125   9.482  11.189  0.1873 -0.3229 -0.2149
  843MOL0     H13756   4.930   9.390  11.397  0.0172 -0.3439  0.5773
  843MOL0     H13757   4.693   9.262  11.445  0.2719 -1.1200  1.1257
  843MOL0     H13758   4.668   9.109  11.360 -3.0647  2.0700  2.8207
  843MOL0     H13759   4.907   9.054  11.457 -0.5870 -1.2160  0.7506
  843MOL0     H13760   4.763   9.036  11.564 -1.0886 -0.3290 -1.4128
  843MOL0     H13761   4.809   9.271  11.640  2.0401  1.4741  0.2313
  843MOL0     H13762   4.961   9.268  11.553 -1.9781  0.2210 -1.5932
  843MOL0     H13763   4.863   9.076  11.759 -2.0111  0.4415 -0.4780
  843MOL0     H13764   4.981   9.214  11.784 -1.1597 -0.7238 -0.3735
  843MOL0     H13765   5.260   8.938  11.590 -0.4671  1.5250 -0.2807
  843MOL0     H13766   5.444   8.749  11.640 -3.3384  1.8466  3.1577
  843MOL0     H13767   5.393   8.584  11.614  4.0941  0.0789  1.7227
  843MOL0     H13768   5.346   8.709  11.497  3.4863  1.7348 -0.6434
  843MOL0     H13769   5.345   8.281  11.528 -0.1511  0.3190 -0.2945
  843MOL0     H13770   5.357   8.032  11.551  0.9613  3.0423 -3.2726
  843MOL0     H13771   5.095   7.808  11.842 -1.6707 -2.2375  1.2781
  843MOL0     H13772   5.010   7.853  11.695 -1.4830  0.7093  3.6991
  843MOL0     H13773   4.969   7.630  11.698 -0.7138 -0.2993 -0.8608
  843MOL0     H13774   5.096   7.653  11.583  0.0327  3.1651  0.6387
  843MOL0     H13775   5.106   7.481  11.788 -1.1978  0.5542 -3.6303
  843MOL0     H13776   5.169   7.604  11.879 -2.4111  0.5642 -0.0496
  843MOL0     H13777   5.273   7.456  11.633  2.0978 -0.3133  0.2321
  843MOL0     H13778   5.346   7.609  11.661 -3.2353  2.5577  1.5078
  843MOL0     H13779   5.358   7.357  11.857  0.0715  0.9092  2.1859
  843MOL0     H13780   5.380   7.534  11.894  0.8500  0.9297 -0.5129
  843MOL0     H13781   5.537   7.355  11.713  1.0024  0.1539  0.0540
  843MOL0     H13782   5.567   7.525  11.728 -0.9778  0.9076  1.3899
  843MOL0     H13783   5.594   7.476  11.980 -2.5592  0.5552 -0.6024
  843MOL0     H13784   5.736   7.429  11.886  1.7276 -0.4345  3.0110
  843MOL0     H13785   5.520   7.243  11.956 -0.0430  2.6934 -1.8650
  843MOL0     H13786   5.673   7.258  12.048 -2.2522 -0.6011  1.5009
  843MOL0     H13787   5.019   8.041  11.816 -1.1211  2.2814  0.2356
  843MOL0     H13788   5.012   8.269  11.810  0.7379 -2.1062  1.8388
  843MOL0     H13789   4.971   8.654  11.875  2.8063 -2.1807  1.9329
  843MOL0     H13790   4.903   8.887  11.822 -0.4111 -0.6010  0.2105
  843MOL0     H13791   5.916   9.522  10.381  1.0784 -1.7078 -1.7048
  843MOL0     H13792   6.074   9.489  10.207  1.0276  1.2602 -1.9723
  843MOL0     H13793   6.282   9.425   9.960 -1.0990 -0.3165 -1.0757
  843MOL0     H13794   6.446   9.315   9.829  0.7724  1.1364  1.3117
  843MOL0     H13795   6.681   9.376   9.471 -2.4080 -1.6839  2.2471
  843MOL0     H13796   6.604   9.531   9.475 -3.9882 -1.1746  1.5328
  843MOL0     H13797   6.762   9.623   9.604 -0.6499 -0.7698  0.2662
  843MOL0     H13798   6.860   9.535   9.490 -0.7168  2.8893 -0.0600
  843MOL0     H13799   6.878   9.346   9.652 -1.1153  0.5702 -2.6733
  843MOL0     H13800   6.791   9.421   9.777 -3.6973 -0.0715 -2.4419
  843MOL0     H13801   7.057   9.534   9.647 -0.4764 -1.9961 -0.2866
  843MOL0     H13802   7.050   9.471   9.806 -1.3166 -0.3013 -0.0938
  843MOL0     H13803   6.918   9.853   9.892 -0.6140 -1.3970  1.2750
  843MOL0     H13804   6.530   9.686   9.612  2.3590 -2.5766 -0.0061
  843MOL0     H13805   6.375   9.794   9.773  0.2610 -0.2840  2.1301
  844MOL0     O13806   8.470   1.878   4.116 -0.0965  0.3379  0.0984
  844MOL0     C13807   8.464   1.932   4.219  0.4968  0.3102  0.2621
  844MOL0     O13808   8.535   2.044   4.254  0.3087  0.9810  0.9868
  844MOL0     C13809   8.635   2.104   4.170 -0.4135  0.3198 -1.8431
  844MOL0     C13810   8.686   2.212   4.230  0.4574  0.5278  0.4221
  844MOL0     C13811   8.776   2.298   4.167  0.3412 -0.7700 -0.0737
  844MOL0     C13812   8.812   2.273   4.030 -0.7507  0.4587  0.2977
  844MOL0     O13813   8.915   2.334   3.966 -0.0160 -0.4696  0.1073
  844MOL0     C13814   8.891   2.404   3.839  0.6173  0.2095  0.1130
  844MOL0     C13815   9.008   2.478   3.790 -0.0470 -0.0016  0.4379
  844MOL0     C13816   9.132   2.396   3.728 -0.6478 -0.2059  0.1506
  844MOL0     C13817   9.255   2.459   3.782 -0.7324  0.0016  0.0400
  844MOL0     C13818   9.381   2.385   3.739 -0.1384  1.0581  0.4496
  844MOL0     C13819   9.462   2.354   3.864 -0.3762 -0.6920 -1.0440
  844MOL0     C13820   9.595   2.276   3.820 -0.0266  0.3220 -0.0406
  844MOL0     C13821   9.687   2.230   3.934 -0.7081  0.9291 -0.0654
  844MOL0     N13822   9.758   2.344   3.983  0.3556  0.3109  0.9875
  844MOL0     C13823   9.884   2.377   3.945  0.6242 -0.4852  0.1212
  844MOL0     C13824   9.923   2.454   4.052 -0.8223 -0.4272 -0.3741
  844MOL0     C13825  10.064   2.510   4.073  0.6035  0.1081 -0.1839
  844MOL0     C13826  10.096   2.631   3.993  0.1856 -0.1778  1.0207
  844MOL0     C13827  10.120   2.598   3.854 -0.0301  0.2446  0.8013
  844MOL0     C13828  10.156   2.728   3.782  0.1202  0.1961  0.1382
  844MOL0     O13829  10.193   2.690   3.650  0.2224 -0.3055 -0.4295
  844MOL0     C13830  10.247   2.789   3.569 -0.0230 -0.1315  0.6588
  844MOL0     C13831  10.276   2.921   3.604 -0.0013  0.3563  0.3528
  844MOL0     C13832  10.338   3.003   3.505  0.4496  0.1294 -0.1168
  844MOL0     C13833  10.381   3.142   3.540  0.3514 -0.4613 -0.2291
  844MOL0     C13834  10.337   2.967   3.370 -0.4910 -0.3300 -0.4505
  844MOL0     C13835  10.385   3.051   3.257 -0.4330  0.3775  0.2584
  844MOL0     O13836  10.308   3.060   3.144 -0.1576 -0.4832 -0.0742
  844MOL0     C13837  10.368   3.143   3.050 -0.2929  0.7538 -1.1380
  844MOL0     C13838  10.358   3.282   3.054 -0.8128  0.4712 -0.2421
  844MOL0     C13839  10.424   3.356   2.957  0.5500 -0.2753 -0.5770
  844MOL0     C13840  10.495   3.295   2.857  0.5986  0.3085 -0.3622
  844MOL0     O13841  10.565   3.376   2.769  0.1159  0.2743 -0.9962
  844MOL0     C13842  10.601   3.331   2.642 -0.3747 -0.1353 -0.1972
  844MOL0     C13843  10.743   3.283   2.658  0.7274 -0.0580 -0.2326
  844MOL0     C13844  10.784   3.211   2.530  0.1161  0.3449  0.6723
  844MOL0     C13845  10.935   3.227   2.506 -0.2769 -0.0103 -0.1550
  844MOL0     C13846  10.980   3.145   2.382 -0.0314 -0.6742  1.0403
  844MOL0     C13847  11.104   3.205   2.312 -0.3924 -0.8609 -0.1809
  844MOL0     C13848  11.235   3.160   2.381  1.1803  0.1455 -0.2563
  844MOL0     C13849  11.349   3.250   2.334  0.7711  0.2526 -0.7456
  844MOL0    Cl13850  11.360   3.220   2.157  0.0783  0.5728 -0.5203
  844MOL0     C13851  10.507   3.160   2.858  0.6092  0.7892 -0.5603
  844MOL0     C13852  10.436   3.085   2.948 -1.4162 -0.0055 -0.1457
  844MOL0     O13853  10.495   3.105   3.276  1.2529 -0.0155 -0.0678
  844MOL0     C13854  10.303   2.838   3.335  0.0931  0.0321 -0.0910
  844MOL0     C13855  10.263   2.741   3.431 -0.5991 -0.9883 -0.2698
  844MOL0     N13856   9.813   2.470   4.139  0.1631  0.6569 -0.4074
  844MOL0     N13857   9.713   2.402   4.100 -0.3038  0.5523 -0.1793
  844MOL0     C13858   8.748   2.162   3.969  0.8597  0.2205 -0.1352
  844MOL0     C13859   8.657   2.081   4.036  0.1671  0.9169 -0.1302
  844MOL0     C13860   8.380   1.872   4.328  0.7413 -0.5875  0.0977
  844MOL0     C13861   8.325   1.968   4.423  0.6169 -0.4968 -0.1563
  844MOL0     C13862   8.217   1.945   4.512  0.5561  0.9363 -0.5617
  844MOL0     C13863   8.168   1.812   4.507  0.2759  0.6929 -0.2967
  844MOL0     O13864   8.050   1.768   4.574  0.2864  1.1642 -0.4646
  844MOL0     C13865   7.981   1.866   4.656  0.3817  0.5742  0.2095
  844MOL0     C13866   7.864   1.802   4.728  0.3272 -0.3504  0.5505
  844MOL0     C13867   7.908   1.724   4.851  0.5945 -0.6467 -0.1900
  844MOL0     C13868   7.795   1.637   4.907  0.0125  0.0742  0.7114
  844MOL0     C13869   7.851   1.557   5.020 -0.1080  0.6833 -1.0654
  844MOL0     C13870   7.878   1.479   5.114  0.3094 -0.7354  0.5380
  844MOL0     C13871   8.226   1.712   4.427  0.4860 -0.6747 -0.2995
  844MOL0     C13872   8.333   1.744   4.344 -0.5347  0.1948  0.2816
  844MOL0     H13873   8.665   2.235   4.333  5.7184  0.5392  1.7732
  844MOL0     H13874   8.816   2.375   4.233 -0.8065  1.6002 -1.9719
  844MOL0     H13875   8.861   2.333   3.761  2.2653 -0.5596  0.1519
  844MOL0     H13876   8.806   2.472   3.848 -0.8112 -1.3458 -0.9934
  844MOL0     H13877   8.963   2.546   3.717  3.8028  0.6289 -1.5787
  844MOL0     H13878   9.020   2.545   3.876 -2.5024  1.9004 -0.5697
  844MOL0     H13879   9.132   2.288   3.745 -1.4648 -0.1797  0.3695
  844MOL0     H13880   9.124   2.406   3.620 -1.6627 -0.9637  0.1291
  844MOL0     H13881   9.271   2.559   3.740 -1.0609  1.1126  2.4072
  844MOL0     H13882   9.252   2.472   3.891  0.2548  4.1170 -0.2747
  844MOL0     H13883   9.357   2.291   3.688  3.6102  1.4938 -2.5329
  844MOL0     H13884   9.445   2.439   3.669  1.5066 -1.7566 -0.3928
  844MOL0     H13885   9.480   2.455   3.901 -0.6701  0.0519 -2.8320
  844MOL0     H13886   9.400   2.314   3.945  0.7851  0.2707  0.3792
  844MOL0     H13887   9.557   2.192   3.762 -0.2501  1.1826 -1.1769
  844MOL0     H13888   9.656   2.333   3.750 -1.6517  1.6944 -0.3821
  844MOL0     H13889   9.763   2.156   3.909 -2.6934 -2.4289  2.9045
  844MOL0     H13890   9.621   2.189   4.011  0.7236  1.1126  1.3188
  844MOL0     H13891   9.944   2.359   3.856  2.8282  2.2420  0.9270
  844MOL0     H13892  10.068   2.519   4.182  0.9483  0.1579 -0.2006
  844MOL0     H13893  10.133   2.432   4.042  0.0620 -0.8251  0.8991
  844MOL0     H13894  10.188   2.675   4.033  0.6412  2.3381 -2.3852
  844MOL0     H13895  10.018   2.706   4.008  0.8293  1.0056 -1.1522
  844MOL0     H13896  10.030   2.558   3.806  0.7690 -3.5165  2.0912
  844MOL0     H13897  10.204   2.528   3.845  0.8337  0.6992  4.0135
  844MOL0     H13898  10.227   2.789   3.838  1.1433 -1.2206  0.4220
  844MOL0     H13899  10.065   2.790   3.780  0.8717  1.3035 -0.7363
  844MOL0     H13900  10.258   2.977   3.696 -2.5977  2.8506 -1.5055
  844MOL0     H13901  10.486   3.171   3.530  0.8108 -1.1879  1.8831
  844MOL0     H13902  10.322   3.215   3.484  2.1905  2.5976  1.5041
  844MOL0     H13903  10.347   3.171   3.640  1.4996  2.0960 -0.4931
  844MOL0     H13904  10.305   3.322   3.139 -0.0384  1.0712 -0.0253
  844MOL0     H13905  10.401   3.462   2.956 -2.3167 -0.8158 -0.2787
  844MOL0     H13906  10.535   3.251   2.606 -2.5813  1.0549  0.9610
  844MOL0     H13907  10.601   3.418   2.576  2.8761 -0.9827 -1.4898
  844MOL0     H13908  10.816   3.362   2.682 -0.2931 -0.0091  3.3762
  844MOL0     H13909  10.747   3.209   2.738  1.2930  1.4981  1.2489
  844MOL0     H13910  10.726   3.244   2.444 -2.0445 -0.6030  1.7076
  844MOL0     H13911  10.771   3.106   2.555  4.5804 -0.3101  1.0937
  844MOL0     H13912  10.959   3.333   2.500  0.9976 -0.1401  1.8382
  844MOL0     H13913  10.992   3.189   2.591 -0.0840  2.7338  1.0346
  844MOL0     H13914  10.902   3.144   2.305  2.3290 -0.4330 -1.5131
  844MOL0     H13915  11.005   3.042   2.408 -2.8523 -1.3192  1.4905
  844MOL0     H13916  11.113   3.176   2.207 -1.4543 -0.0926 -0.5011
  844MOL0     H13917  11.105   3.314   2.321 -1.8471 -0.5866 -2.5329
  844MOL0     H13918  11.262   3.056   2.359 -3.0078 -0.2026 -5.5801
  844MOL0     H13919  11.220   3.178   2.488 -1.4077  3.2416 -0.9820
  844MOL0     H13920  11.444   3.227   2.383  0.9120  1.3050 -0.5079
  844MOL0     H13921  11.331   3.354   2.364 -0.9715 -0.2384  0.0827
  844MOL0     H13922  10.565   3.095   2.793 -0.4313  0.1897 -0.9355
  844MOL0     H13923  10.458   2.979   2.952 -1.8222 -0.0792  3.6848
  844MOL0     H13924  10.298   2.808   3.231  1.2526 -0.9967  0.1378
  844MOL0     H13925  10.244   2.638   3.404  1.0460 -0.6080 -3.2965
  844MOL0     H13926   8.761   2.119   3.871 -2.4477 -3.6618  0.8578
  844MOL0     H13927   8.621   2.005   3.967  0.3748  0.7680 -0.0740
  844MOL0     H13928   8.357   2.071   4.428 -0.6058  0.0511 -2.1590
  844MOL0     H13929   8.170   2.029   4.562 -0.0052 -0.1822  0.8469
  844MOL0     H13930   8.037   1.901   4.743 -0.7129 -0.0393  1.1881
  844MOL0     H13931   7.948   1.946   4.588 -1.5369 -1.2509 -1.1182
  844MOL0     H13932   7.807   1.753   4.649  0.6855  2.6485 -1.7309
  844MOL0     H13933   7.804   1.886   4.763  0.9434  0.3633 -0.0786
  844MOL0     H13934   7.962   1.787   4.923  1.8030 -0.2677 -1.3973
  844MOL0     H13935   7.985   1.649   4.832  2.5688  1.4324 -0.8574
  844MOL0     H13936   7.757   1.574   4.826 -2.4198  1.3093  0.8299
  844MOL0     H13937   7.710   1.701   4.932  0.3347 -0.3856  3.2177
  844MOL0     H13938   7.899   1.400   5.183  1.5850 -2.9131 -2.1541
  844MOL0     H13939   8.185   1.613   4.440 -0.1302 -0.3389  0.3731
  844MOL0     H13940   8.373   1.667   4.278 -2.4318 -0.5289 -0.0784
  845MOL0     O13941   5.608   9.892   8.462 -0.0230  0.6581 -0.8906
  845MOL0     C13942   5.500   9.950   8.463 -0.2065 -0.1160 -1.0147
  845MOL0     O13943   5.444  10.028   8.356  0.6343  0.1916 -0.2294
  845MOL0     C13944   5.540  10.053   8.257 -0.6021  0.1448 -0.2832
  845MOL0     C13945   5.556   9.949   8.171  0.5872  0.4947  0.7945
  845MOL0     C13946   5.656   9.954   8.072 -0.3532 -0.7583  0.4934
  845MOL0     C13947   5.720  10.070   8.048  0.5209  0.0854 -0.1568
  845MOL0     O13948   5.787  10.089   7.933 -0.6123  0.1123 -0.4148
  845MOL0     C13949   5.874  10.200   7.930 -0.2926  0.6206  0.3347
  845MOL0     C13950   5.979  10.178   7.823  0.1009 -0.0930 -0.2719
  845MOL0     C13951   6.046  10.311   7.798  0.1534  0.4168  0.2384
  845MOL0     C13952   5.965  10.374   7.692  0.2182 -0.0031 -0.6304
  845MOL0     C13953   6.017  10.515   7.656 -0.1134  0.7585 -0.5961
  845MOL0     C13954   5.923  10.586   7.548  0.3688  0.3219  0.0900
  845MOL0     C13955   5.953  10.743   7.537 -0.0141  0.7584  0.1252
  845MOL0     C13956   5.872  10.818   7.414 -0.8771 -0.0243  0.1777
  845MOL0     N13957   5.920  10.958   7.395  0.3218  0.6245 -0.2683
  845MOL0     C13958   5.909  11.056   7.490  1.1104 -0.7103  0.0177
  845MOL0     C13959   5.960  11.159   7.422  0.8611  0.5276 -0.7256
  845MOL0     C13960   5.950  11.303   7.473  1.3584  0.1426  0.0956
  845MOL0     C13961   5.869  11.381   7.377  0.6410  0.4051 -0.1855
  845MOL0     C13962   5.714  11.331   7.379 -0.2154  1.0095  0.8440
  845MOL0     C13963   5.646  11.347   7.243 -0.1637  0.3669  0.0245
  845MOL0     O13964   5.721  11.282   7.129 -0.1697 -0.2866  0.3431
  845MOL0     C13965   5.709  11.154   7.099 -0.3064  0.3013  0.5672
  845MOL0     C13966   5.635  11.054   7.152  0.1037 -0.0767 -0.9170
  845MOL0     C13967   5.649  10.917   7.127 -0.1616  0.3932  0.6873
  845MOL0     C13968   5.544  10.824   7.188 -0.4296 -0.1410  0.2237
  845MOL0     C13969   5.758  10.878   7.034 -0.2376 -0.7989 -0.1835
  845MOL0     C13970   5.789  10.735   7.006  0.5457 -0.8683  0.5469
  845MOL0     O13971   5.794  10.647   7.108 -0.2050  0.0951 -0.0089
  845MOL0     C13972   5.834  10.522   7.078 -0.2104  0.1241  0.0806
  845MOL0     C13973   5.967  10.501   7.038  0.0289  0.1766  0.5445
  845MOL0     C13974   5.998  10.378   6.985 -0.7329 -0.9060 -0.2528
  845MOL0     C13975   5.919  10.263   7.013 -0.1227 -0.4814 -0.2116
  845MOL0     O13976   5.939  10.134   6.972  0.9809 -0.1002  0.4024
  845MOL0     C13977   6.076  10.103   6.929  0.0376 -0.1920 -0.3988
  845MOL0     C13978   6.093   9.957   6.921 -0.3281 -0.1700  0.6755
  845MOL0     C13979   6.001   9.904   6.807 -0.4585 -0.1297  0.4338
  845MOL0     C13980   6.039   9.759   6.765  0.1770  0.5723  0.0131
  845MOL0     C13981   5.947   9.704   6.656 -0.2406  0.0579 -0.6530
  845MOL0     C13982   5.964   9.562   6.608  0.7547 -1.5259  0.3286
  845MOL0     C13983   5.957   9.449   6.713 -0.5146  0.3144 -0.2575
  845MOL0     C13984   6.073   9.348   6.683  0.0906 -0.1947 -0.0401
  845MOL0    Cl13985   6.028   9.230   6.549 -0.4265  0.0250  0.1517
  845MOL0     C13986   5.794  10.284   7.086  0.1092 -0.3205 -0.6093
  845MOL0     C13987   5.751  10.413   7.104 -0.5979 -0.2052 -1.1586
  845MOL0     O13988   5.798  10.713   6.882 -0.9563 -0.4164  0.5930
  845MOL0     C13989   5.833  10.983   6.975 -0.5601 -1.2990  0.7586
  845MOL0     C13990   5.807  11.118   7.005 -0.7754  0.7290  1.0210
  845MOL0     N13991   6.025  11.127   7.308 -0.2155  1.5295  0.2390
  845MOL0     N13992   5.984  11.007   7.287  0.5292 -0.3963  0.8642
  845MOL0     C13993   5.699  10.178   8.135 -0.3965 -0.3285 -0.6345
  845MOL0     C13994   5.620  10.170   8.249 -0.0133 -0.4814  0.5090
  845MOL0     C13995   5.404   9.912   8.569 -0.8078 -0.2666 -0.2914
  845MOL0     C13996   5.438   9.848   8.690 -0.7297 -0.4726  0.2881
  845MOL0     C13997   5.345   9.815   8.778 -0.0670 -0.3867 -0.3145
  845MOL0     C13998   5.208   9.856   8.764  0.2181  0.1485  0.3706
  845MOL0     O13999   5.103   9.857   8.859 -0.0528 -0.3420 -0.2074
  845MOL0     C14000   5.134   9.824   9.000  0.2293  0.4016  0.2140
  845MOL0     C14001   5.192   9.944   9.076 -0.5262 -0.0725 -0.8000
  845MOL0     C14002   5.230   9.913   9.228 -0.3153 -0.3826 -0.3181
  845MOL0     C14003   5.327   9.791   9.264  0.2520 -0.7443 -0.1602
  845MOL0     C14004   5.344   9.784   9.409 -0.1347 -0.0652 -0.0168
  845MOL0     C14005   5.364   9.782   9.523  0.3274 -0.0833  0.6447
  845MOL0     C14006   5.165   9.921   8.644 -0.9599  0.3052 -0.1836
  845MOL0     C14007   5.265   9.946   8.554 -0.4815  0.4965 -0.1689
  845MOL0     H14008   5.503   9.855   8.181  1.0618  0.1247 -0.0413
  845MOL0     H14009   5.666   9.871   8.003 -2.0838 -0.7823  0.2220
  845MOL0     H14010   5.810  10.287   7.913 -0.5534  0.5265  0.8303
  845MOL0     H14011   5.929  10.216   8.023  0.0430  3.9162 -0.3256
  845MOL0     H14012   6.055  10.115   7.871 -2.8356 -1.7229  2.6907
  845MOL0     H14013   5.942  10.123   7.736 -2.4061 -3.5479  2.6643
  845MOL0     H14014   6.051  10.361   7.895  3.1622  0.7170  0.0244
  845MOL0     H14015   6.146  10.285   7.762  0.6828  2.2766  0.2746
  845MOL0     H14016   5.952  10.312   7.603  1.4582 -1.4809  0.1648
  845MOL0     H14017   5.863  10.382   7.730  1.1349 -2.3344  2.7677
  845MOL0     H14018   6.023  10.571   7.750 -1.2340  1.5238 -0.9607
  845MOL0     H14019   6.116  10.504   7.612  0.3941  0.8923  0.4609
  845MOL0     H14020   5.946  10.538   7.452  3.1983  1.8424 -0.0864
  845MOL0     H14021   5.815  10.573   7.565  0.3824  0.5854  0.3777
  845MOL0     H14022   5.924  10.794   7.629  2.9177  1.3133  0.8251
  845MOL0     H14023   6.057  10.760   7.511  0.4119 -4.1211 -2.7898
  845MOL0     H14024   5.770  10.845   7.442 -1.9140 -0.9607 -2.3883
  845MOL0     H14025   5.880  10.749   7.330  6.0901  0.1990  0.1358
  845MOL0     H14026   5.859  11.044   7.585  0.7795 -0.5475 -0.1346
  845MOL0     H14027   5.907  11.326   7.572  0.6266 -0.4417 -0.0762
  845MOL0     H14028   6.051  11.346   7.476  0.7219  1.7326 -0.2842
  845MOL0     H14029   5.912  11.369   7.278  1.0283 -0.3866  0.0693
  845MOL0     H14030   5.867  11.483   7.416  0.4794 -0.3408  1.9452
  845MOL0     H14031   5.652  11.378   7.456 -0.2562 -0.5973  1.8400
  845MOL0     H14032   5.708  11.226   7.409 -1.4770  0.5445 -0.8699
  845MOL0     H14033   5.650  11.455   7.227 -2.2183  0.3118 -1.1463
  845MOL0     H14034   5.546  11.303   7.234  0.0698 -0.1024 -0.3766
  845MOL0     H14035   5.556  11.072   7.224  0.6028 -2.6036  0.3828
  845MOL0     H14036   5.591  10.726   7.184 -0.1704 -0.2315  3.0131
  845MOL0     H14037   5.535  10.860   7.291 -0.8776  0.7167 -0.1032
  845MOL0     H14038   5.455  10.841   7.128  0.4460  0.8439 -0.8364
  845MOL0     H14039   6.035  10.586   7.030 -1.3984  1.5831  2.4848
  845MOL0     H14040   6.079  10.352   6.918 -0.8130 -0.5242 -0.4971
  845MOL0     H14041   6.109  10.147   6.835 -0.0338 -0.7524 -0.6906
  845MOL0     H14042   6.144  10.138   7.006 -1.7661  2.0973  0.3042
  845MOL0     H14043   6.199   9.939   6.901  0.3937  2.2770  1.8246
  845MOL0     H14044   6.062   9.914   7.017  0.4435 -2.5232 -0.0633
  845MOL0     H14045   6.011   9.970   6.720  2.2876  0.5342  1.1532
  845MOL0     H14046   5.896   9.905   6.837 -0.8394  1.0129 -0.7916
  845MOL0     H14047   6.141   9.754   6.725  0.6235  1.9043  0.9318
  845MOL0     H14048   6.012   9.693   6.848  1.2134  0.6719  0.4358
  845MOL0     H14049   5.957   9.764   6.565  0.9311 -1.3635 -1.5109
  845MOL0     H14050   5.844   9.716   6.691 -0.0679 -1.3709  0.4357
  845MOL0     H14051   5.888   9.550   6.530  1.5853 -0.9945 -0.5836
  845MOL0     H14052   6.064   9.557   6.565  0.5994 -0.7756 -0.1246
  845MOL0     H14053   5.860   9.401   6.702 -0.6120  0.5750 -0.5529
  845MOL0     H14054   5.978   9.485   6.814 -0.9618  0.1303 -0.1006
  845MOL0     H14055   6.064   9.288   6.775 -1.8919 -0.9717 -0.6897
  845MOL0     H14056   6.170   9.397   6.692  0.3753 -0.8161  0.3788
  845MOL0     H14057   5.739  10.205   7.136  2.3987  0.5187  3.7456
  845MOL0     H14058   5.658  10.423   7.160  2.6821  0.1067  5.1275
  845MOL0     H14059   5.923  10.959   6.920 -0.7494  0.0477 -0.2005
  845MOL0     H14060   5.875  11.188   6.957 -1.4571 -0.9391 -2.7379
  845MOL0     H14061   5.735  10.278   8.114 -2.6293  0.6189 -0.2175
  845MOL0     H14062   5.598  10.255   8.313 -0.3956 -1.3546  1.5839
  845MOL0     H14063   5.541   9.835   8.718 -0.5555 -0.3204 -0.2647
  845MOL0     H14064   5.383   9.777   8.872  1.8266  1.2246 -0.3445
  845MOL0     H14065   5.041   9.789   9.047  0.5741  0.0647  0.6481
  845MOL0     H14066   5.204   9.741   9.012 -0.3041  0.2088  2.6743
  845MOL0     H14067   5.125  10.030   9.085  1.0638  1.0522  1.2007
  845MOL0     H14068   5.277   9.975   9.013  1.7977 -2.6707  0.8290
  845MOL0     H14069   5.132   9.901   9.275 -1.0597  0.6831 -1.5252
  845MOL0     H14070   5.279  10.006   9.256  1.7773 -1.0856 -1.4408
  845MOL0     H14071   5.428   9.815   9.230 -0.1316  4.0073  1.3103
  845MOL0     H14072   5.289   9.701   9.216 -2.7032  1.5132 -2.4711
  845MOL0     H14073   5.361   9.781   9.630  1.4067  0.6975  0.7046
  845MOL0     H14074   5.062   9.950   8.628 -2.0502 -3.5298 -1.0562
  845MOL0     H14075   5.235  10.004   8.467 -2.2217  0.3719  0.3314
  846MOL0     O14076   9.889   3.265   9.859 -0.4372 -0.5745 -0.4063
  846MOL0     C14077   9.862   3.333   9.761 -0.2112  0.7800 -0.8072
  846MOL0     O14078   9.801   3.280   9.642  0.2410 -0.1831 -0.4637
  846MOL0     C14079   9.798   3.143   9.617 -0.1563  0.3715 -0.7888
  846MOL0     C14080   9.694   3.105   9.536 -0.1507  0.5746  0.3355
  846MOL0     C14081   9.664   2.971   9.512 -0.9330 -0.4160 -0.0122
  846MOL0     C14082   9.756   2.864   9.553 -0.7751 -0.6598  0.5730
  846MOL0     O14083   9.745   2.728   9.526  0.3247 -0.2581  0.3068
  846MOL0     C14084   9.622   2.673   9.556 -0.0786 -0.1220 -0.4702
  846MOL0     C14085   9.575   2.583   9.452  0.5462  0.5368  1.0792
  846MOL0     C14086   9.479   2.661   9.363 -0.1614  1.4117  0.8420
  846MOL0     C14087   9.425   2.565   9.250  0.5543 -0.9513 -0.3044
  846MOL0     C14088   9.296   2.633   9.184 -0.2379  1.1147  0.9951
  846MOL0     C14089   9.211   2.519   9.121  0.5576  0.4223 -0.3300
  846MOL0     C14090   9.091   2.580   9.040 -0.0982  0.2468 -0.1135
  846MOL0     C14091   8.967   2.493   9.052  0.0250 -0.1038 -0.4353
  846MOL0     N14092   8.871   2.522   8.937 -0.1782  0.6917 -0.0458
  846MOL0     C14093   8.871   2.456   8.812  0.8183  0.5906 -0.4431
  846MOL0     C14094   8.792   2.528   8.722  0.8286  0.7666 -0.4964
  846MOL0     C14095   8.757   2.496   8.579 -0.2398  0.2946 -0.4500
  846MOL0     C14096   8.618   2.452   8.551 -0.2804  0.5241 -0.3774
  846MOL0     C14097   8.570   2.313   8.604 -0.5772 -0.0142 -0.1442
  846MOL0     C14098   8.537   2.295   8.753 -1.2352 -0.5360 -0.2833
  846MOL0     O14099   8.473   2.422   8.792  0.5813  0.7566  0.0903
  846MOL0     C14100   8.476   2.455   8.923  0.0101 -0.5036  0.8989
  846MOL0     C14101   8.520   2.375   9.034 -0.4773 -1.0549 -0.2411
  846MOL0     C14102   8.493   2.412   9.172  0.7791 -0.0703  0.5495
  846MOL0     C14103   8.516   2.312   9.289 -0.4052  0.4635 -0.3944
  846MOL0     C14104   8.414   2.530   9.198 -0.6174  0.2693  0.0778
  846MOL0     C14105   8.371   2.584   9.329  0.0451  0.5728  0.4958
  846MOL0     O14106   8.250   2.646   9.336  0.2455 -1.4063 -0.4458
  846MOL0     C14107   8.201   2.704   9.449 -0.0820  1.1520 -1.1942
  846MOL0     C14108   8.066   2.674   9.464  0.6700  0.7026  0.7029
  846MOL0     C14109   8.004   2.677   9.588 -0.4341  0.5307 -1.3964
  846MOL0     C14110   8.074   2.734   9.694  0.8850  0.8579  0.0843
  846MOL0     O14111   8.028   2.742   9.822  0.8336  0.1757  0.5204
  846MOL0     C14112   7.895   2.803   9.858 -0.0534 -0.0901  0.0997
  846MOL0     C14113   7.884   2.848  10.007 -0.4105  0.3907 -0.4400
  846MOL0     C14114   7.979   2.965  10.019  0.1698  1.6303  0.5249
  846MOL0     C14115   8.030   2.979  10.156  0.0025  0.2648 -0.1295
  846MOL0     C14116   8.116   3.110  10.155 -0.1574  0.2329  0.2889
  846MOL0     C14117   8.131   3.172  10.298 -0.6958  0.3151  0.1623
  846MOL0     C14118   8.217   3.294  10.274  0.0667 -0.5137  0.3299
  846MOL0     C14119   8.273   3.331  10.404  0.5056 -0.1160 -0.8270
  846MOL0    Cl14120   8.293   3.516  10.427 -0.5419  0.4873 -0.2362
  846MOL0     C14121   8.206   2.783   9.673 -0.1677  0.0465 -0.7081
  846MOL0     C14122   8.274   2.759   9.556 -0.6758 -0.2526 -1.0345
  846MOL0     O14123   8.451   2.572   9.421 -0.0392  0.0864 -1.0097
  846MOL0     C14124   8.375   2.613   9.085 -0.5535  0.4466 -0.2289
  846MOL0     C14125   8.410   2.573   8.955 -0.0893 -0.8470 -0.4327
  846MOL0     N14126   8.756   2.633   8.794 -0.1505  0.4488 -0.1216
  846MOL0     N14127   8.803   2.637   8.912 -0.3176  0.4468 -0.5804
  846MOL0     C14128   9.870   2.902   9.630 -0.1263 -0.5523 -0.2794
  846MOL0     C14129   9.876   3.035   9.673 -0.2474 -0.3032 -0.1305
  846MOL0     C14130   9.883   3.472   9.772  0.3572  0.0311 -0.1971
  846MOL0     C14131   9.855   3.554   9.660 -0.3584  0.1131 -0.6768
  846MOL0     C14132   9.887   3.681   9.660 -0.3628  0.2162 -0.1211
  846MOL0     C14133   9.936   3.751   9.768 -0.7888 -0.2253  0.2993
  846MOL0     O14134   9.956   3.889   9.764  0.0848  0.1302  0.2405
  846MOL0     C14135   9.937   3.959   9.885  0.9626  0.1829  0.4255
  846MOL0     C14136   9.891   4.104   9.859  0.0405 -0.4020  0.4959
  846MOL0     C14137   9.964   4.170   9.740  0.4651 -0.5416  0.3131
  846MOL0     C14138   9.958   4.315   9.754  0.2767  0.1039 -0.6639
  846MOL0     C14139   9.824   4.376   9.753  0.1721  0.1787  0.1365
  846MOL0     C14140   9.723   4.444   9.766 -0.4022 -0.6918  0.3381
  846MOL0     C14141   9.958   3.673   9.887 -0.4014 -0.3341  0.9736
  846MOL0     C14142   9.932   3.535   9.891  0.3369 -0.4503  0.8110
  846MOL0     H14143   9.636   3.191   9.506  0.9281  0.9820 -0.6839
  846MOL0     H14144   9.584   2.930   9.452  0.5042  1.5714 -3.6053
  846MOL0     H14145   9.633   2.599   9.636  0.8361  0.6897  0.1778
  846MOL0     H14146   9.544   2.738   9.597 -0.2599 -0.9545  0.5457
  846MOL0     H14147   9.662   2.540   9.401 -0.2594 -3.2098  2.5615
  846MOL0     H14148   9.516   2.500   9.492 -0.1892  1.4816  1.9860
  846MOL0     H14149   9.396   2.707   9.417 -0.5196 -0.3780  1.9251
  846MOL0     H14150   9.527   2.740   9.305 -0.2521  1.6946  1.1460
  846MOL0     H14151   9.501   2.549   9.174  1.7273 -1.5929  0.9671
  846MOL0     H14152   9.391   2.471   9.296 -2.2094  0.5872  1.0960
  846MOL0     H14153   9.235   2.690   9.254 -0.3603  1.8004  0.3483
  846MOL0     H14154   9.333   2.701   9.106 -1.1389 -0.9171 -1.3619
  846MOL0     H14155   9.277   2.457   9.060  0.5198 -1.0781  1.0751
  846MOL0     H14156   9.171   2.455   9.201  1.4107  1.7808  1.2519
  846MOL0     H14157   9.067   2.680   9.076  0.9289  0.2608  0.5908
  846MOL0     H14158   9.126   2.588   8.936  3.6363  2.9451  1.1365
  846MOL0     H14159   8.920   2.511   9.149  2.8695 -0.0763  1.0667
  846MOL0     H14160   8.991   2.387   9.037  3.7776  0.4830  0.1952
  846MOL0     H14161   8.932   2.371   8.785 -2.1701 -2.8737  2.7150
  846MOL0     H14162   8.773   2.593   8.530 -3.3011  1.1618  0.0870
  846MOL0     H14163   8.832   2.425   8.542  2.3314  2.1906  0.7562
  846MOL0     H14164   8.602   2.443   8.443  0.9571 -0.0305 -0.5367
  846MOL0     H14165   8.556   2.527   8.601  0.2256  0.9030 -0.3013
  846MOL0     H14166   8.632   2.233   8.561 -0.8353  0.8041 -2.1565
  846MOL0     H14167   8.471   2.290   8.563  0.4274 -3.1572 -1.1377
  846MOL0     H14168   8.633   2.282   8.805 -0.1479 -1.3735 -2.3979
  846MOL0     H14169   8.479   2.202   8.758  2.2510 -2.9684 -1.1856
  846MOL0     H14170   8.580   2.286   9.020  1.0781  0.0942 -1.2501
  846MOL0     H14171   8.600   2.341   9.353 -0.1197 -1.8406  0.3892
  846MOL0     H14172   8.425   2.297   9.348  1.5237 -1.1711  2.3991
  846MOL0     H14173   8.543   2.210   9.259  0.6854 -0.5782  3.5140
  846MOL0     H14174   8.018   2.620   9.383 -0.0543  1.1567  0.8229
  846MOL0     H14175   7.903   2.647   9.613  0.3509 -0.8621  0.3468
  846MOL0     H14176   7.868   2.882   9.788 -1.2842  0.8539  1.5865
  846MOL0     H14177   7.832   2.714   9.852 -0.3843 -0.1602  3.2280
  846MOL0     H14178   7.782   2.886  10.017 -0.5991  0.0097 -0.8486
  846MOL0     H14179   7.897   2.767  10.079 -0.1482  2.0347  1.4445
  846MOL0     H14180   7.927   3.056   9.990  0.9619  1.7464 -0.6247
  846MOL0     H14181   8.062   2.946   9.949 -1.9029 -1.4315 -1.3746
  846MOL0     H14182   7.952   2.981  10.233 -0.6833 -1.4394 -0.7412
  846MOL0     H14183   8.092   2.895  10.188 -1.1973 -0.1375  1.2498
  846MOL0     H14184   8.063   3.189  10.102  1.4498  2.2605  1.5602
  846MOL0     H14185   8.217   3.092  10.117  0.0102 -1.5213  1.4393
  846MOL0     H14186   8.032   3.198  10.336 -0.3300  1.6411  0.2593
  846MOL0     H14187   8.183   3.110  10.372  0.6841  0.5537 -0.5862
  846MOL0     H14188   8.154   3.375  10.236  0.5872  0.1897  0.9215
  846MOL0     H14189   8.301   3.283  10.205 -0.8758  2.1001 -1.3967
  846MOL0     H14190   8.367   3.279  10.424  1.9484  3.3585  2.8346
  846MOL0     H14191   8.201   3.312  10.485 -0.0573  2.4350 -0.6267
  846MOL0     H14192   8.258   2.823   9.759  0.5936  1.3944 -1.7512
  846MOL0     H14193   8.378   2.777   9.530 -1.1249 -1.5844 -4.2989
  846MOL0     H14194   8.320   2.706   9.094 -1.1490  0.0972 -0.2438
  846MOL0     H14195   8.372   2.636   8.874 -0.9983  0.1802  0.7383
  846MOL0     H14196   9.951   2.839   9.665 -1.3181 -2.5730 -0.9633
  846MOL0     H14197   9.952   3.054   9.748 -0.9196 -0.0585  0.5064
  846MOL0     H14198   9.823   3.499   9.572  1.7675 -2.3848 -0.0227
  846MOL0     H14199   9.875   3.725   9.561  0.2302 -2.0032 -1.2447
  846MOL0     H14200   9.852   3.913   9.937  0.4052 -0.5162 -1.0633
  846MOL0     H14201  10.022   3.950   9.953  0.9648 -2.9376  0.1314
  846MOL0     H14202   9.909   4.161   9.951  3.0185 -3.2948  1.9152
  846MOL0     H14203   9.786   4.109   9.831  0.2129 -1.8536 -0.5138
  846MOL0     H14204   9.918   4.147   9.643 -1.6313  1.2878  0.7741
  846MOL0     H14205  10.068   4.138   9.738  0.1310 -1.6863 -1.1851
  846MOL0     H14206  10.010   4.366   9.673 -0.6418 -0.3940 -1.5979
  846MOL0     H14207  10.016   4.335   9.844 -1.0624 -4.5690  1.5955
  846MOL0     H14208   9.638   4.509   9.775  1.6598  2.5195 -1.3225
  846MOL0     H14209   9.987   3.712   9.984 -0.8200  1.4082  0.4312
  846MOL0     H14210   9.937   3.485   9.987  3.2305 -1.0930  0.4357
  847MOL0     O14211   8.008  10.023   2.837 -0.9018 -0.3183 -0.2540
  847MOL0     C14212   8.108  10.101   2.854 -0.5863  0.1099 -0.5830
  847MOL0     O14213   8.094  10.239   2.857  0.2513  1.0574 -0.0734
  847MOL0     C14214   7.964  10.282   2.857 -0.1476 -0.0313 -0.5498
  847MOL0     C14215   7.898  10.297   2.988 -0.5168 -0.0071  0.1942
  847MOL0     C14216   7.765  10.332   2.992  0.0805 -0.9115 -0.2317
  847MOL0     C14217   7.687  10.350   2.872 -0.7137  0.4699 -0.3075
  847MOL0     O14218   7.561  10.391   2.903  0.1232 -0.0068 -0.2940
  847MOL0     C14219   7.509  10.506   2.835  0.3854  0.2785  0.6259
  847MOL0     C14220   7.566  10.644   2.886 -0.3495 -0.1367 -0.3318
  847MOL0     C14221   7.473  10.733   2.972  0.3047 -0.0988 -0.1463
  847MOL0     C14222   7.540  10.872   2.998  0.1005  0.8914  0.2259
  847MOL0     C14223   7.440  10.962   3.072 -0.1762  0.6089  0.2827
  847MOL0     C14224   7.488  11.107   3.092  0.6318  0.4579  0.1674
  847MOL0     C14225   7.392  11.192   3.179 -0.3204  1.0393 -0.3020
  847MOL0     C14226   7.430  11.340   3.156 -0.0373  0.2212  1.2154
  847MOL0     N14227   7.355  11.415   3.252  0.1320  0.0993  0.5011
  847MOL0     C14228   7.411  11.469   3.364 -1.0035 -0.9062  0.7397
  847MOL0     C14229   7.297  11.528   3.426  0.6474 -0.4821 -0.7300
  847MOL0     C14230   7.283  11.599   3.556 -0.7463 -0.5026  0.4026
  847MOL0     C14231   7.320  11.747   3.529  0.5605  0.2242  0.0572
  847MOL0     C14232   7.474  11.773   3.493  0.5415  0.5467 -0.3075
  847MOL0     C14233   7.520  11.925   3.509 -0.0562  0.1300 -0.1769
  847MOL0     O14234   7.654  11.955   3.476 -0.3698 -0.0098 -0.7391
  847MOL0     C14235   7.697  12.091   3.456  0.9119  0.4606 -0.1662
  847MOL0     C14236   7.803  12.119   3.373  0.1704 -0.4930 -0.2389
  847MOL0     C14237   7.858  12.244   3.370 -0.3185  0.1245  0.3620
  847MOL0     C14238   7.968  12.256   3.262 -0.0706  0.4015 -1.3000
  847MOL0     C14239   7.803  12.345   3.450  0.2845 -0.3601 -0.0891
  847MOL0     C14240   7.869  12.481   3.467  0.3973  0.0377 -0.4004
  847MOL0     O14241   7.820  12.554   3.569  0.8248  0.3196  0.0489
  847MOL0     C14242   7.859  12.678   3.594  0.0847  0.4228 -0.1479
  847MOL0     C14243   7.936  12.697   3.709 -0.2059  0.0389 -0.4496
  847MOL0     C14244   7.976  12.829   3.747 -0.5945  0.1657  0.8131
  847MOL0     C14245   7.940  12.932   3.661 -0.7466 -0.8222  0.1773
  847MOL0     O14246   7.964  13.070   3.680 -0.1016  0.5457  0.0786
  847MOL0     C14247   8.097  13.114   3.652  0.0058 -0.4566  0.5730
  847MOL0     C14248   8.166  13.152   3.788  0.5439  0.3821 -0.5622
  847MOL0     C14249   8.088  13.279   3.835 -0.9804 -0.5961 -0.2772
  847MOL0     C14250   8.134  13.348   3.970  0.8303 -0.2731  0.5859
  847MOL0     C14251   8.053  13.453   4.022  0.2607 -0.2716  0.2305
  847MOL0     C14252   8.117  13.535   4.127  0.4952  0.2567  0.3267
  847MOL0     C14253   8.213  13.646   4.069  0.6826 -0.3979 -0.3294
  847MOL0     C14254   8.264  13.754   4.163 -0.0405  0.4767 -0.6202
  847MOL0    Cl14255   8.145  13.821   4.274 -0.0114 -0.7067 -0.9973
  847MOL0     C14256   7.874  12.907   3.540 -0.0213  0.1716  0.5900
  847MOL0     C14257   7.838  12.781   3.509 -0.5049 -0.1133 -0.6943
  847MOL0     O14258   7.968  12.509   3.401 -0.0097  0.4011  0.0850
  847MOL0     C14259   7.695  12.323   3.532  0.3734  0.3927  1.5842
  847MOL0     C14260   7.646  12.196   3.538  0.0880  0.1593 -0.1637
  847MOL0     N14261   7.186  11.507   3.344  0.8485 -0.3317  0.1152
  847MOL0     N14262   7.227  11.448   3.235 -0.3308 -0.3576 -0.4309
  847MOL0     C14263   7.755  10.325   2.753  0.5105  0.0701 -0.4055
  847MOL0     C14264   7.890  10.292   2.746  1.0318 -0.6719 -0.2729
  847MOL0     C14265   8.244  10.045   2.877  0.2234 -0.2245 -0.2083
  847MOL0     C14266   8.263   9.914   2.927  0.2858 -0.1705  0.0495
  847MOL0     C14267   8.394   9.867   2.953 -0.5804  0.2005 -0.3176
  847MOL0     C14268   8.506   9.950   2.946 -0.9440 -0.6991  0.0186
  847MOL0     O14269   8.625   9.896   2.991  0.2221 -0.9776  0.1742
  847MOL0     C14270   8.734   9.985   2.979 -0.0401  1.3983 -0.0345
  847MOL0     C14271   8.858   9.907   3.020  0.1182  0.4478 -0.3379
  847MOL0     C14272   8.962  10.019   3.002 -0.0627  1.0048  0.0175
  847MOL0     C14273   9.100   9.989   3.062  0.1805  0.3137  0.1802
  847MOL0     C14274   9.154   9.889   2.976 -0.0266 -0.3139 -0.3251
  847MOL0     C14275   9.196   9.784   2.922 -0.1279 -0.0635 -0.1983
  847MOL0     C14276   8.480  10.084   2.909  0.6223 -0.4053  0.5385
  847MOL0     C14277   8.346  10.124   2.875 -1.1855 -0.0057  0.1295
  847MOL0     H14278   7.973  10.286   3.065 -0.6282  0.5218  0.3785
  847MOL0     H14279   7.716  10.360   3.085 -0.3152 -0.3181 -0.6196
  847MOL0     H14280   7.539  10.499   2.730  1.5162 -0.5036  0.9846
  847MOL0     H14281   7.399  10.509   2.829  0.3699  2.8771  1.0550
  847MOL0     H14282   7.650  10.621   2.953  2.1815  2.1644 -2.4943
  847MOL0     H14283   7.605  10.701   2.801  1.2416  0.5570  0.7962
  847MOL0     H14284   7.381  10.754   2.917  0.4376  3.1330  0.6992
  847MOL0     H14285   7.450  10.684   3.067  2.1042 -0.3186  0.2129
  847MOL0     H14286   7.631  10.851   3.056  1.8723  2.3149 -1.8742
  847MOL0     H14287   7.563  10.931   2.909  0.5055  0.3942 -0.0077
  847MOL0     H14288   7.346  10.971   3.016 -0.0216 -1.5441 -0.4026
  847MOL0     H14289   7.420  10.917   3.170  2.2762 -1.4290 -0.0379
  847MOL0     H14290   7.595  11.117   3.115  1.3680 -1.2034 -2.1492
  847MOL0     H14291   7.499  11.151   2.992  2.2870  0.6066  0.3773
  847MOL0     H14292   7.284  11.176   3.172 -0.3068  0.3593  0.6906
  847MOL0     H14293   7.420  11.180   3.284  1.4703  1.2196 -0.7219
  847MOL0     H14294   7.417  11.373   3.052  2.1377 -0.6365  0.6014
  847MOL0     H14295   7.532  11.365   3.188 -1.2099  3.6232  2.7359
  847MOL0     H14296   7.510  11.490   3.404 -2.7597  3.0480  3.6508
  847MOL0     H14297   7.179  11.604   3.592 -1.5838 -2.1792 -1.5601
  847MOL0     H14298   7.349  11.546   3.626  2.6265  2.0208 -0.6174
  847MOL0     H14299   7.292  11.799   3.622  0.6631 -0.6078  0.5621
  847MOL0     H14300   7.271  11.783   3.439 -1.6982  0.3241  1.2431
  847MOL0     H14301   7.494  11.733   3.393  5.1583  0.5216  0.4139
  847MOL0     H14302   7.547  11.718   3.553 -0.8639 -3.4725 -1.9890
  847MOL0     H14303   7.493  11.938   3.615 -6.2491 -3.8234 -0.7847
  847MOL0     H14304   7.454  11.992   3.453  1.7798 -0.6247 -3.4671
  847MOL0     H14305   7.849  12.038   3.318 -0.5914 -0.9609 -0.1925
  847MOL0     H14306   8.069  12.254   3.305 -0.2873 -2.1363 -0.7435
  847MOL0     H14307   7.967  12.170   3.195  0.6781  0.3827 -1.3004
  847MOL0     H14308   7.963  12.345   3.199  1.2507 -0.5040 -2.7418
  847MOL0     H14309   7.941  12.610   3.774 -3.6937 -1.6216 -2.1251
  847MOL0     H14310   8.040  12.848   3.833 -1.2816  0.9841  1.1567
  847MOL0     H14311   8.147  13.038   3.592  2.3330  1.4539 -0.1003
  847MOL0     H14312   8.094  13.199   3.582  1.6743 -0.3969  0.5325
  847MOL0     H14313   8.159  13.072   3.863 -4.7631  0.6803 -0.3557
  847MOL0     H14314   8.271  13.170   3.765  0.6025 -2.2994 -3.0054
  847MOL0     H14315   7.980  13.262   3.836 -1.1405  0.3252 -0.8817
  847MOL0     H14316   8.108  13.356   3.760  4.3599  1.8553  3.0795
  847MOL0     H14317   8.140  13.277   4.054 -1.0397 -1.4476 -0.2126
  847MOL0     H14318   8.231  13.394   3.951  0.9087  0.2549  2.1403
  847MOL0     H14319   7.960  13.410   4.062  1.3675 -1.2994  1.8115
  847MOL0     H14320   8.035  13.516   3.934 -1.4425  2.0213  2.0713
  847MOL0     H14321   8.032  13.588   4.172 -2.6699 -0.2550 -4.3387
  847MOL0     H14322   8.164  13.466   4.197 -1.1370 -0.2083  0.9907
  847MOL0     H14323   8.153  13.701   3.995 -0.3243 -0.8008  0.1688
  847MOL0     H14324   8.300  13.602   4.019  0.4141 -2.3929  0.8577
  847MOL0     H14325   8.320  13.828   4.106  3.1330 -2.0228 -1.0718
  847MOL0     H14326   8.336  13.699   4.226 -1.3253 -0.5198  0.0384
  847MOL0     H14327   7.838  12.979   3.467 -0.8440 -0.6562  0.1591
  847MOL0     H14328   7.789  12.762   3.414 -0.3077  0.3614 -0.8896
  847MOL0     H14329   7.660  12.408   3.589  1.6343  1.7110  0.4797
  847MOL0     H14330   7.570  12.181   3.613  0.4566 -0.3998  0.1110
  847MOL0     H14331   7.702  10.320   2.658  3.2439 -0.1147 -2.0343
  847MOL0     H14332   7.944  10.268   2.654  4.6505  0.5469  1.3670
  847MOL0     H14333   8.175   9.852   2.941 -0.2089  0.6355  0.5653
  847MOL0     H14334   8.415   9.773   3.003  2.8668  0.3437 -1.2114
  847MOL0     H14335   8.734  10.017   2.874 -1.5408  3.4017  0.5041
  847MOL0     H14336   8.713  10.064   3.051  0.7929  2.3032 -0.7578
  847MOL0     H14337   8.870   9.834   2.939  0.6629  0.9109 -0.6961
  847MOL0     H14338   8.851   9.876   3.124 -2.7646 -0.1996 -0.6557
  847MOL0     H14339   8.922  10.104   3.058 -1.9172 -0.4481  1.0251
  847MOL0     H14340   8.982  10.040   2.897 -1.7096 -1.2858 -0.8271
  847MOL0     H14341   9.098   9.950   3.164 -0.2982  1.5651  0.6645
  847MOL0     H14342   9.173  10.070   3.066  0.3184  0.1790  0.3971
  847MOL0     H14343   9.244   9.690   2.904 -1.8360 -0.5966 -2.3487
  847MOL0     H14344   8.558  10.160   2.909  0.3847 -0.1576  0.0740
  847MOL0     H14345   8.344  10.229   2.848  0.3401 -0.6029 -2.7356
  848MOL0     O14346   9.257   8.741   4.227 -0.5121 -0.5442 -0.1974
  848MOL0     C14347   9.382   8.725   4.224  1.3250  0.1096 -0.2888
  848MOL0     O14348   9.449   8.690   4.107 -0.7876 -0.4424  0.3027
  848MOL0     C14349   9.381   8.626   4.000  0.7970  0.7611 -0.0135
  848MOL0     C14350   9.398   8.686   3.877  0.5951 -0.0973 -0.2865
  848MOL0     C14351   9.326   8.636   3.764 -0.4382 -0.0273 -1.0531
  848MOL0     C14352   9.247   8.520   3.776  0.3677  0.2857 -1.1248
  848MOL0     O14353   9.209   8.443   3.669  0.2133 -0.5086  0.2731
  848MOL0     C14354   9.298   8.444   3.548 -0.4621  0.7036  0.2352
  848MOL0     C14355   9.225   8.370   3.437  0.5533 -0.5817  0.5023
  848MOL0     C14356   9.178   8.223   3.470 -0.0882 -1.0352  0.3155
  848MOL0     C14357   9.104   8.162   3.347 -0.1458  0.0405  0.4533
  848MOL0     C14358   9.087   8.006   3.342 -0.3402 -0.0471  0.4893
  848MOL0     C14359   9.221   7.917   3.332  0.1743 -0.2982 -0.7833
  848MOL0     C14360   9.179   7.790   3.408 -0.1738  0.0256  0.0031
  848MOL0     C14361   9.255   7.657   3.388 -0.4329  0.6023  0.5765
  848MOL0     N14362   9.395   7.659   3.438  0.6703  0.2243  0.1287
  848MOL0     C14363   9.500   7.716   3.377 -0.6580  0.0184 -1.4068
  848MOL0     C14364   9.609   7.699   3.465  0.7313  0.7367  0.1653
  848MOL0     C14365   9.758   7.705   3.442  0.5201  0.6425  0.1399
  848MOL0     C14366   9.817   7.559   3.424  0.1873  0.4314 -0.0807
  848MOL0     C14367   9.966   7.562   3.438  0.2436  0.9593  0.9474
  848MOL0     C14368  10.024   7.424   3.433 -0.1874 -0.5142 -0.2790
  848MOL0     O14369  10.165   7.435   3.390 -0.1967  0.7716 -0.2685
  848MOL0     C14370  10.244   7.329   3.371  0.8956 -0.7839 -0.2406
  848MOL0     C14371  10.198   7.195   3.377 -0.0505 -0.2585 -0.0264
  848MOL0     C14372  10.283   7.089   3.348  0.0620  0.4543 -0.0460
  848MOL0     C14373  10.222   6.951   3.364 -0.0721 -0.4235  0.8280
  848MOL0     C14374  10.420   7.117   3.311 -0.0314  0.7161  0.2404
  848MOL0     C14375  10.522   7.006   3.281  1.0233  0.8880 -0.1326
  848MOL0     O14376  10.648   7.048   3.256 -0.8212 -0.0283  0.6344
  848MOL0     C14377  10.742   6.955   3.263  0.4483 -0.0359  0.7774
  848MOL0     C14378  10.818   6.948   3.371 -0.2542  0.8559 -0.6972
  848MOL0     C14379  10.924   6.846   3.388 -0.8874 -0.3514 -0.6303
  848MOL0     C14380  10.945   6.756   3.283 -0.8563 -0.7153  0.7893
  848MOL0     O14381  11.046   6.659   3.295  0.7905 -0.6245  0.4394
  848MOL0     C14382  10.993   6.523   3.289 -0.9258 -0.6270 -0.5433
  848MOL0     C14383  11.106   6.427   3.302 -0.6817 -0.3047 -0.1303
  848MOL0     C14384  11.148   6.399   3.450 -0.4794 -0.5525 -0.8565
  848MOL0     C14385  11.206   6.527   3.504 -0.4905 -0.1470 -0.7779
  848MOL0     C14386  11.295   6.509   3.639 -0.1224 -0.9302 -0.7510
  848MOL0     C14387  11.212   6.461   3.759  0.5592  0.1032  0.1068
  848MOL0     C14388  11.303   6.433   3.880 -0.3881  0.6582 -0.6154
  848MOL0     C14389  11.368   6.296   3.868 -0.1633 -0.3458  0.3981
  848MOL0    Cl14390  11.246   6.160   3.870 -0.2773  0.0832 -0.1927
  848MOL0     C14391  10.860   6.771   3.177  0.5130 -0.0143  0.8561
  848MOL0     C14392  10.762   6.865   3.160  0.5372 -1.0386  0.1603
  848MOL0     O14393  10.480   6.892   3.270 -0.2117 -0.0333 -0.1005
  848MOL0     C14394  10.457   7.254   3.293  0.1912  0.6651 -1.1031
  848MOL0     C14395  10.369   7.354   3.327 -0.2246  0.6552 -0.2956
  848MOL0     N14396   9.551   7.649   3.576  0.0516 -0.5700 -0.5658
  848MOL0     N14397   9.426   7.631   3.562 -0.3190  0.5917 -0.2237
  848MOL0     C14398   9.218   8.473   3.906  0.1298 -0.2008 -0.6056
  848MOL0     C14399   9.280   8.526   4.017 -0.6847  1.1760  0.2596
  848MOL0     C14400   9.458   8.794   4.327 -0.6759  0.2911 -0.6358
  848MOL0     C14401   9.602   8.777   4.328  0.3272 -0.1035  0.7604
  848MOL0     C14402   9.671   8.831   4.433  0.5242 -0.6660 -0.7150
  848MOL0     C14403   9.612   8.910   4.529 -0.6295  0.0893  0.5741
  848MOL0     O14404   9.703   8.967   4.616  0.7015 -0.4949 -0.3691
  848MOL0     C14405   9.677   9.102   4.655 -0.9443  1.2086 -0.2661
  848MOL0     C14406   9.810   9.166   4.700 -0.6983  0.5371  0.1499
  848MOL0     C14407   9.893   9.175   4.578 -0.6889 -0.5707 -0.1920
  848MOL0     C14408  10.006   9.284   4.569  0.1789 -0.7288 -1.3400
  848MOL0     C14409  10.131   9.226   4.523 -0.7890 -0.2923  0.3319
  848MOL0     C14410  10.235   9.189   4.488 -0.3973  0.1906  0.7067
  848MOL0     C14411   9.477   8.918   4.526 -0.1525  0.4005  0.6896
  848MOL0     C14412   9.395   8.873   4.424  1.1305  0.1627  0.2539
  848MOL0     H14413   9.470   8.766   3.874  1.1970 -0.6541 -1.6628
  848MOL0     H14414   9.340   8.688   3.670  1.3607  2.7539  0.6081
  848MOL0     H14415   9.341   8.541   3.523  0.6746  0.2691  0.4497
  848MOL0     H14416   9.381   8.377   3.572 -3.1172 -2.8787  0.3039
  848MOL0     H14417   9.129   8.417   3.411  0.2902 -1.2180  0.3160
  848MOL0     H14418   9.292   8.370   3.351  2.2783  1.5854  1.7474
  848MOL0     H14419   9.262   8.164   3.507  0.7244 -0.6772 -0.9172
  848MOL0     H14420   9.109   8.227   3.555  0.6610  1.4464  0.9083
  848MOL0     H14421   9.001   8.193   3.329 -0.4082 -0.0264  1.7718
  848MOL0     H14422   9.171   8.191   3.266 -0.1605  0.9216  0.7463
  848MOL0     H14423   9.038   7.984   3.438 -1.5480  3.6426  0.9064
  848MOL0     H14424   9.016   7.968   3.269  1.2704  0.8334 -1.6274
  848MOL0     H14425   9.245   7.883   3.231 -1.9435 -1.3212 -0.9997
  848MOL0     H14426   9.305   7.975   3.373  2.1218 -0.5102 -4.1473
  848MOL0     H14427   9.189   7.809   3.515  2.3195 -2.4186  0.3182
  848MOL0     H14428   9.075   7.763   3.387 -1.4691  1.8312  3.3725
  848MOL0     H14429   9.245   7.631   3.282 -0.8960  0.8352  0.5602
  848MOL0     H14430   9.212   7.578   3.450  0.5778 -0.6343 -0.2338
  848MOL0     H14431   9.491   7.758   3.277 -1.4937 -1.3840 -1.9389
  848MOL0     H14432   9.781   7.771   3.357 -0.2326  2.3454  1.2149
  848MOL0     H14433   9.808   7.742   3.532 -1.5440 -0.8147  2.0008
  848MOL0     H14434   9.774   7.525   3.329 -0.9504  2.0223 -0.1710
  848MOL0     H14435   9.778   7.497   3.505  1.8875  1.1512  1.3508
  848MOL0     H14436   9.998   7.607   3.533  3.8982  2.1920 -0.6638
  848MOL0     H14437  10.012   7.615   3.354 -0.6213 -1.3736 -1.1025
  848MOL0     H14438   9.960   7.362   3.369 -1.6692 -1.9998  2.4727
  848MOL0     H14439  10.015   7.365   3.525 -1.4932 -2.1684 -1.3910
  848MOL0     H14440  10.098   7.167   3.407 -0.4084  1.8374  0.9109
  848MOL0     H14441  10.244   6.895   3.273 -0.7909 -1.4916  1.2927
  848MOL0     H14442  10.262   6.892   3.447  4.0835 -2.2484 -2.1414
  848MOL0     H14443  10.114   6.960   3.377 -0.0824  1.6211 -0.2182
  848MOL0     H14444  10.808   7.017   3.455 -0.3277  0.0599 -0.0448
  848MOL0     H14445  10.981   6.827   3.479 -1.3988 -0.8293 -0.4027
  848MOL0     H14446  10.920   6.498   3.366  0.0241 -2.3723 -0.1588
  848MOL0     H14447  10.947   6.517   3.191 -1.4792  2.0321 -0.5411
  848MOL0     H14448  11.072   6.334   3.255 -1.3224 -0.5161  0.7406
  848MOL0     H14449  11.188   6.464   3.239 -2.2932  3.1701 -0.4185
  848MOL0     H14450  11.232   6.330   3.456 -0.1658 -0.3787 -2.7089
  848MOL0     H14451  11.072   6.356   3.515 -1.4427  1.4109 -0.6118
  848MOL0     H14452  11.264   6.584   3.431  0.3337  2.1226  1.5310
  848MOL0     H14453  11.128   6.600   3.528  1.4351  2.0247 -0.8672
  848MOL0     H14454  11.332   6.610   3.660 -1.6497 -0.3466 -0.7115
  848MOL0     H14455  11.373   6.435   3.621 -0.9346 -2.6133  2.0832
  848MOL0     H14456  11.156   6.551   3.786 -2.4619 -2.4145  3.1030
  848MOL0     H14457  11.141   6.382   3.733  1.9883 -1.0340 -0.4804
  848MOL0     H14458  11.245   6.449   3.972  0.8840  1.5448  0.0548
  848MOL0     H14459  11.376   6.514   3.887 -1.4960  1.5591  2.2237
  848MOL0     H14460  11.431   6.287   3.957 -0.3744  0.2799  0.6203
  848MOL0     H14461  11.431   6.291   3.778 -0.1378  0.3876  0.3709
  848MOL0     H14462  10.857   6.698   3.096  0.0562  0.3436  0.5527
  848MOL0     H14463  10.722   6.877   3.060  2.9283  0.1022 -0.7318
  848MOL0     H14464  10.556   7.293   3.271 -0.3963  2.4230 -0.8161
  848MOL0     H14465  10.398   7.458   3.327 -0.6122  0.7667 -1.1363
  848MOL0     H14466   9.143   8.395   3.911  1.3099 -1.4168 -1.1331
  848MOL0     H14467   9.266   8.480   4.114  3.1975  1.3329  1.0519
  848MOL0     H14468   9.656   8.704   4.270 -1.4661 -0.9899  0.1339
  848MOL0     H14469   9.779   8.823   4.428  0.4201 -1.9459 -1.2181
  848MOL0     H14470   9.636   9.163   4.574 -1.4791  2.4339  0.8671
  848MOL0     H14471   9.598   9.103   4.731  0.0969 -2.2124  1.0472
  848MOL0     H14472   9.869   9.109   4.772 -3.0502  1.7625  3.3085
  848MOL0     H14473   9.793   9.264   4.745  3.2777  0.8767  1.2555
  848MOL0     H14474   9.834   9.178   4.487 -1.0005  1.3745  0.0266
  848MOL0     H14475   9.959   9.088   4.581  0.0405 -0.2061  5.0025
  848MOL0     H14476  10.037   9.332   4.662 -1.0613 -1.0309 -0.7515
  848MOL0     H14477   9.982   9.361   4.494  3.3772  1.2934 -0.5174
  848MOL0     H14478  10.336   9.157   4.469  1.0631  0.9506  5.6005
  848MOL0     H14479   9.428   8.961   4.613 -1.8339 -3.1588  1.6725
  848MOL0     H14480   9.292   8.901   4.443  1.1766  1.7036 -1.4889
  849MOL0     O14481   9.349   1.955  10.288  0.3468  0.3024 -0.4257
  849MOL0     C14482   9.459   1.889  10.287  0.3831 -0.0566  0.7700
  849MOL0     O14483   9.565   1.901  10.203 -0.0393  0.1145 -0.6914
  849MOL0     C14484   9.577   1.985  10.088  0.2498 -0.2400 -0.4724
  849MOL0     C14485   9.495   2.102  10.068  0.6639  0.4145  0.4094
  849MOL0     C14486   9.503   2.182   9.956  0.3904  1.2060 -0.0649
  849MOL0     C14487   9.603   2.147   9.866  0.1338 -0.6895  0.1356
  849MOL0     O14488   9.615   2.227   9.754  0.6308 -0.3041 -0.4500
  849MOL0     C14489   9.562   2.163   9.633  0.3952 -0.1407  0.4321
  849MOL0     C14490   9.667   2.092   9.541 -0.2854 -0.1874 -1.1417
  849MOL0     C14491   9.725   2.178   9.440  0.3321  0.0772  0.6373
  849MOL0     C14492   9.649   2.165   9.306 -0.5024 -0.4249  0.7746
  849MOL0     C14493   9.736   2.222   9.189  0.4207 -0.6539  1.0063
  849MOL0     C14494   9.651   2.198   9.061  0.1157  0.6103  0.4685
  849MOL0     C14495   9.753   2.189   8.946 -0.4130  1.2129  0.0383
  849MOL0     C14496   9.697   2.198   8.802 -0.6849  0.2248  0.4307
  849MOL0     N14497   9.615   2.321   8.772 -0.8788 -0.5279  0.1957
  849MOL0     C14498   9.674   2.452   8.766 -0.0490 -0.3874 -0.2090
  849MOL0     C14499   9.562   2.540   8.763 -0.4994  0.5366 -0.0272
  849MOL0     C14500   9.576   2.692   8.763  0.2358  0.0590  0.5969
  849MOL0     C14501   9.480   2.755   8.650 -0.2070  0.6087 -0.8178
  849MOL0     C14502   9.492   2.679   8.519  0.1767 -0.2797  0.4547
  849MOL0     C14503   9.429   2.759   8.402  0.3131  1.5528  0.7680
  849MOL0     O14504   9.464   2.690   8.282 -0.1962  0.0209 -0.5556
  849MOL0     C14505   9.359   2.666   8.192  0.8678  0.0859 -0.5769
  849MOL0     C14506   9.344   2.532   8.136 -0.7754 -0.3747 -0.2788
  849MOL0     C14507   9.252   2.505   8.028  0.0703  0.0339 -0.6118
  849MOL0     C14508   9.256   2.365   7.970  0.7533 -0.3280 -1.2988
  849MOL0     C14509   9.161   2.617   7.992  0.3461  0.2813  0.5836
  849MOL0     C14510   9.065   2.601   7.884  0.3795 -0.0939 -0.2703
  849MOL0     O14511   9.055   2.718   7.804 -0.6627 -0.1743  0.8612
  849MOL0     C14512   8.969   2.703   7.700 -0.2549 -0.4355 -0.6533
  849MOL0     C14513   8.836   2.750   7.713 -0.0730 -0.0582  0.4031
  849MOL0     C14514   8.748   2.723   7.606  0.0301 -0.7348  0.5974
  849MOL0     C14515   8.782   2.664   7.479 -0.2584 -0.7574 -0.4378
  849MOL0     O14516   8.683   2.651   7.382 -0.2391  0.5614 -0.4861
  849MOL0     C14517   8.709   2.567   7.261 -0.3018 -1.0395 -0.3864
  849MOL0     C14518   8.574   2.535   7.201 -0.6725  0.0360  0.7022
  849MOL0     C14519   8.571   2.454   7.067  0.2492  0.5516 -0.0336
  849MOL0     C14520   8.449   2.364   7.059  0.7602  0.2094  0.2844
  849MOL0     C14521   8.314   2.438   7.033 -0.7826  0.0235 -0.3918
  849MOL0     C14522   8.200   2.340   7.013 -0.0723 -0.6405  0.3972
  849MOL0     C14523   8.137   2.293   7.150 -0.5524 -0.3733  0.8837
  849MOL0     C14524   7.997   2.218   7.120 -0.1531  0.0252 -0.1979
  849MOL0    Cl14525   8.017   2.058   7.053 -0.2190 -0.3226 -0.2804
  849MOL0     C14526   8.912   2.608   7.477  0.1386 -0.4363  0.1801
  849MOL0     C14527   9.004   2.620   7.587 -0.1673 -0.8150  0.4616
  849MOL0     O14528   8.990   2.507   7.888 -0.7654  0.6030  0.8290
  849MOL0     C14529   9.175   2.745   8.055 -0.3423  0.1470  0.1737
  849MOL0     C14530   9.265   2.759   8.158 -1.2783  0.4779  0.7650
  849MOL0     N14531   9.450   2.464   8.788  0.0597 -0.2171 -0.0910
  849MOL0     N14532   9.476   2.330   8.794 -0.5290 -0.4451 -0.1174
  849MOL0     C14533   9.690   2.035   9.891 -0.5261 -0.1371 -0.7867
  849MOL0     C14534   9.678   1.956  10.003 -0.5957  0.3628 -0.1887
  849MOL0     C14535   9.471   1.776  10.375 -1.0259  0.6063 -0.8159
  849MOL0     C14536   9.394   1.757  10.496 -0.1590 -0.2568  0.6194
  849MOL0     C14537   9.410   1.649  10.580  0.2092  0.5443  0.4320
  849MOL0     C14538   9.505   1.546  10.549  0.3444  1.6086 -0.6564
  849MOL0     O14539   9.525   1.442  10.637  0.0179  0.1599 -0.2284
  849MOL0     C14540   9.428   1.329  10.626 -0.7018 -0.3689 -0.2782
  849MOL0     C14541   9.494   1.214  10.558  0.0486 -0.6773 -0.3641
  849MOL0     C14542   9.563   1.119  10.657  0.5577  1.1537  0.1719
  849MOL0     C14543   9.453   1.045  10.741 -0.0492 -0.5589 -1.1887
  849MOL0     C14544   9.356   0.978  10.644  0.2056 -0.1520 -0.1180
  849MOL0     C14545   9.271   0.918  10.584  0.2257 -1.4350  0.2146
  849MOL0     C14546   9.577   1.553  10.437 -0.3524  0.4628  0.3102
  849MOL0     C14547   9.562   1.661  10.349 -0.2094  0.7487  0.0061
  849MOL0     H14548   9.406   2.125  10.125  0.0744 -0.0318 -0.3199
  849MOL0     H14549   9.440   2.270   9.941 -0.8746  0.0756 -1.7297
  849MOL0     H14550   9.484   2.089   9.655  0.0501 -0.3115 -1.2268
  849MOL0     H14551   9.499   2.234   9.579 -0.2237 -2.0141 -1.4650
  849MOL0     H14552   9.749   2.058   9.605 -1.6158  1.7857  1.8036
  849MOL0     H14553   9.617   2.001   9.506 -2.8136  0.2159  1.1034
  849MOL0     H14554   9.725   2.282   9.476 -3.6345  0.0646  1.0488
  849MOL0     H14555   9.829   2.143   9.438  0.1703 -0.3767 -0.1854
  849MOL0     H14556   9.632   2.061   9.277  0.3850 -0.2911 -0.2497
  849MOL0     H14557   9.554   2.220   9.309 -0.6970 -0.7964  1.9107
  849MOL0     H14558   9.753   2.330   9.195 -1.0866 -0.2701 -0.7808
  849MOL0     H14559   9.824   2.157   9.192 -0.0642 -1.2902  2.1298
  849MOL0     H14560   9.596   2.105   9.073  1.1357 -0.5679 -2.8197
  849MOL0     H14561   9.577   2.277   9.045 -0.7344 -0.4505 -1.0924
  849MOL0     H14562   9.839   2.254   8.963  0.0331  1.2664 -2.1089
  849MOL0     H14563   9.791   2.086   8.950 -1.7829  0.5664 -1.7910
  849MOL0     H14564   9.635   2.111   8.781  1.1671 -0.9337 -0.5130
  849MOL0     H14565   9.777   2.184   8.729 -3.0456 -0.2274 -2.2310
  849MOL0     H14566   9.781   2.466   8.764 -0.0692  0.5540  1.9356
  849MOL0     H14567   9.541   2.715   8.864  1.3549 -3.5387  1.9560
  849MOL0     H14568   9.681   2.723   8.767  0.8966 -2.0926  1.5794
  849MOL0     H14569   9.500   2.863   8.642  1.7163  0.2682 -1.1715
  849MOL0     H14570   9.375   2.753   8.680 -0.0397  0.5634 -0.2133
  849MOL0     H14571   9.441   2.582   8.518  0.1487 -0.2668  0.6699
  849MOL0     H14572   9.598   2.659   8.503 -0.4199 -3.0770 -0.5850
  849MOL0     H14573   9.474   2.859   8.400  2.4305  0.6760 -2.2490
  849MOL0     H14574   9.322   2.771   8.421 -0.2900  0.9615 -1.8265
  849MOL0     H14575   9.414   2.468   8.188 -0.1388 -0.1778 -0.8868
  849MOL0     H14576   9.233   2.359   7.863  0.7002 -1.0348 -1.2466
  849MOL0     H14577   9.358   2.330   7.987  0.9483  0.1168 -1.5175
  849MOL0     H14578   9.180   2.305   8.019  0.0279 -0.1437 -2.1581
  849MOL0     H14579   8.814   2.811   7.801  1.9723 -0.6864  1.4206
  849MOL0     H14580   8.643   2.747   7.619 -0.4755 -1.8081 -1.1397
  849MOL0     H14581   8.778   2.622   7.195  0.2344  4.2267  3.8138
  849MOL0     H14582   8.752   2.471   7.290 -1.5573 -1.4347  0.2356
  849MOL0     H14583   8.514   2.483   7.277 -1.6033  0.5184  0.3068
  849MOL0     H14584   8.508   2.622   7.190  0.1770  0.4080 -2.2518
  849MOL0     H14585   8.664   2.400   7.047  0.2908  0.5362  0.1978
  849MOL0     H14586   8.560   2.516   6.977 -0.9032  1.8400  0.9521
  849MOL0     H14587   8.461   2.288   6.982 -0.5579  1.4478 -1.2086
  849MOL0     H14588   8.444   2.306   7.152 -1.0225 -0.8130 -0.4001
  849MOL0     H14589   8.321   2.495   6.940  2.1447  1.9596  0.9001
  849MOL0     H14590   8.300   2.510   7.114  1.3575  1.2714 -1.0566
  849MOL0     H14591   8.125   2.390   6.950  0.2516  0.7384  1.0585
  849MOL0     H14592   8.231   2.247   6.964 -0.1626 -0.6997  0.4521
  849MOL0     H14593   8.114   2.387   7.202 -0.2572 -0.3391  0.9541
  849MOL0     H14594   8.211   2.230   7.201 -0.1132 -1.4098 -0.9598
  849MOL0     H14595   7.932   2.277   7.055  0.0451  0.0521 -0.3745
  849MOL0     H14596   7.941   2.218   7.213  0.0599  0.1784 -0.0682
  849MOL0     H14597   8.923   2.558   7.381 -3.6569  0.0408 -0.6606
  849MOL0     H14598   9.102   2.575   7.573 -1.9928 -4.2758 -3.5083
  849MOL0     H14599   9.109   2.828   8.034 -1.0425  0.4509  3.0813
  849MOL0     H14600   9.251   2.844   8.224 -1.0232  0.2815  1.0789
  849MOL0     H14601   9.771   2.005   9.825 -1.2020 -2.4015 -0.6868
  849MOL0     H14602   9.747   1.875  10.025  1.7954  2.1039 -0.8108
  849MOL0     H14603   9.322   1.832  10.527 -0.0726 -0.6265  1.7391
  849MOL0     H14604   9.362   1.643  10.677  1.2596  0.7490  0.9835
  849MOL0     H14605   9.379   1.314  10.723 -4.6352  0.3808 -1.9449
  849MOL0     H14606   9.345   1.367  10.566  0.2461  2.0779 -0.1515
  849MOL0     H14607   9.580   1.252  10.502 -1.0942  0.2116 -1.5863
  849MOL0     H14608   9.427   1.161  10.490 -0.2246 -0.2609 -0.4185
  849MOL0     H14609   9.627   1.181  10.719 -1.3171  0.0275  3.4581
  849MOL0     H14610   9.611   1.045  10.593 -1.1706 -1.0260  1.2544
  849MOL0     H14611   9.390   1.109  10.803 -0.0184  0.2589 -1.9765
  849MOL0     H14612   9.499   0.977  10.813 -2.2069  0.5896  1.4594
  849MOL0     H14613   9.200   0.864  10.525 -0.9798 -0.7808  1.0370
  849MOL0     H14614   9.646   1.470  10.426  1.4784  1.9696 -0.0270
  849MOL0     H14615   9.604   1.667  10.249 -1.4193 -1.5126 -0.7114
  850MOL0     O14616   1.318   3.767  11.334  0.1070 -0.5794  0.8434
  850MOL0     C14617   1.333   3.647  11.337  1.5624 -0.0378 -0.5156
  850MOL0     O14618   1.259   3.547  11.273 -0.3110  0.0090  0.3101
  850MOL0     C14619   1.145   3.582  11.211  0.4048 -0.4239 -0.1891
  850MOL0     C14620   1.034   3.652  11.264 -0.7117 -0.5682  0.1213
  850MOL0     C14621   0.913   3.666  11.199 -0.2010 -0.5022 -0.7187
  850MOL0     C14622   0.890   3.594  11.081  0.6825 -0.0084  0.2134
  850MOL0     O14623   0.763   3.604  11.029 -0.5855  0.3712 -0.6444
  850MOL0     C14624   0.749   3.614  10.890  0.2080  0.9191  0.9366
  850MOL0     C14625   0.593   3.613  10.857 -1.2363  0.7765 -0.4436
  850MOL0     C14626   0.565   3.642  10.706  0.5023 -0.2744 -0.1191
  850MOL0     C14627   0.535   3.515  10.632  0.3439  0.2539 -0.0220
  850MOL0     C14628   0.518   3.540  10.479  0.2063 -0.7564 -0.0685
  850MOL0     C14629   0.498   3.418  10.393 -0.6381 -0.4085 -0.2412
  850MOL0     C14630   0.450   3.450  10.258 -0.1219  0.0374 -0.5342
  850MOL0     C14631   0.555   3.514  10.173  0.9778  0.7959 -0.3054
  850MOL0     N14632   0.495   3.548  10.039  0.9787 -0.0844  0.1620
  850MOL0     C14633   0.440   3.444   9.960  0.0155 -0.0038  0.7576
  850MOL0     C14634   0.392   3.508   9.847 -0.9329  0.6145 -0.5954
  850MOL0     C14635   0.338   3.432   9.734  0.9449  0.4092 -0.5037
  850MOL0     C14636   0.282   3.516   9.607  0.1541  0.1235  0.0448
  850MOL0     C14637   0.151   3.460   9.545 -0.0410  0.0983 -1.1825
  850MOL0     C14638   0.177   3.333   9.470 -0.7212 -0.3964  0.9759
  850MOL0     O14639   0.265   3.340   9.358  1.1006 -0.1340 -0.6612
  850MOL0     C14640   0.267   3.237   9.273  0.2773 -0.4877 -0.1691
  850MOL0     C14641   0.328   3.263   9.153  0.9410  1.1837  0.4129
  850MOL0     C14642   0.345   3.169   9.046  0.7058 -0.3536 -0.0118
  850MOL0     C14643   0.428   3.217   8.935  0.1447 -0.8849 -0.2236
  850MOL0     C14644   0.298   3.036   9.073  0.3725  0.8281  0.2182
  850MOL0     C14645   0.318   2.927   8.972 -1.0135 -0.1231  0.0730
  850MOL0     O14646   0.377   2.952   8.854 -0.0869  0.1815 -0.3390
  850MOL0     C14647   0.353   2.877   8.743 -1.0007  0.4655 -0.2842
  850MOL0     C14648   0.257   2.780   8.713 -0.4854  0.3795  0.2799
  850MOL0     C14649   0.255   2.732   8.591 -1.2158  0.0375  0.0599
  850MOL0     C14650   0.364   2.755   8.498 -0.2899 -1.3843 -0.7736
  850MOL0     O14651   0.372   2.691   8.379 -0.7969  0.5994  0.1912
  850MOL0     C14652   0.254   2.655   8.312  0.0938  0.5107  0.4394
  850MOL0     C14653   0.287   2.637   8.154  1.1045  0.3330 -0.7049
  850MOL0     C14654   0.349   2.742   8.064 -0.0532  0.4188  0.2305
  850MOL0     C14655   0.348   2.890   8.115  0.1294 -0.6709 -0.3522
  850MOL0     C14656   0.224   2.962   8.159  0.0843 -0.0757 -0.6873
  850MOL0     C14657   0.113   2.940   8.051  0.2780  0.6448 -0.0949
  850MOL0     C14658  -0.015   2.995   8.083 -0.2314 -0.2470  1.2093
  850MOL0     C14659   0.001   3.143   8.117 -0.1319  0.9914  0.7290
  850MOL0    Cl14660  -0.162   3.224   8.107 -0.3083  0.4721 -0.2406
  850MOL0     C14661   0.465   2.839   8.529  0.9332 -0.0165  0.3957
  850MOL0     C14662   0.458   2.904   8.651  1.0646  1.2768  0.3571
  850MOL0     O14663   0.300   2.814   9.013  0.7789  0.2459  0.2612
  850MOL0     C14664   0.246   3.004   9.205 -0.3520  0.5377  0.5776
  850MOL0     C14665   0.229   3.102   9.296 -0.2858  0.1648  0.1593
  850MOL0     N14666   0.414   3.648   9.864 -0.4551  0.3810  0.2457
  850MOL0     N14667   0.479   3.667   9.973 -0.2491 -0.4954 -0.8374
  850MOL0     C14668   0.990   3.510  11.029  0.9549  0.3099  0.6361
  850MOL0     C14669   1.112   3.506  11.100 -0.5815  0.8967 -0.5979
  850MOL0     C14670   1.456   3.594  11.396 -0.5420  0.3306 -0.3005
  850MOL0     C14671   1.480   3.455  11.421 -0.0467 -0.6625 -0.0920
  850MOL0     C14672   1.596   3.403  11.481 -0.1554  0.2988 -0.1003
  850MOL0     C14673   1.688   3.500  11.531 -0.6908  1.3076 -0.0183
  850MOL0     O14674   1.815   3.459  11.594  0.0869  0.5236  0.2366
  850MOL0     C14675   1.870   3.327  11.562 -0.4459 -0.4436  0.3622
  850MOL0     C14676   2.013   3.323  11.610  0.6026  0.4408  2.0717
  850MOL0     C14677   2.067   3.190  11.554 -0.9972 -0.2779  0.3590
  850MOL0     C14678   2.210   3.170  11.604  0.9039 -0.7290 -0.2798
  850MOL0     C14679   2.305   3.236  11.513  0.1033 -0.3298 -0.3551
  850MOL0     C14680   2.384   3.297  11.440 -0.1880 -0.3817 -0.6496
  850MOL0     C14681   1.666   3.637  11.519 -1.0744  0.2435  0.4457
  850MOL0     C14682   1.553   3.682  11.449 -0.5344 -0.1296 -0.4033
  850MOL0     H14683   1.049   3.703  11.359  3.2108  1.9216 -1.5525
  850MOL0     H14684   0.844   3.743  11.233  0.1362  0.1597 -1.4767
  850MOL0     H14685   0.793   3.708  10.857  0.8314  0.4886  0.5281
  850MOL0     H14686   0.790   3.526  10.839 -2.7682 -0.7859  1.1903
  850MOL0     H14687   0.539   3.523  10.891 -1.0617  1.1868  1.0011
  850MOL0     H14688   0.555   3.689  10.926  0.1837 -0.1651  1.4665
  850MOL0     H14689   0.489   3.720  10.701  2.8543  2.4078  2.0889
  850MOL0     H14690   0.649   3.698  10.663  2.6588 -4.2988 -1.7210
  850MOL0     H14691   0.616   3.442  10.646  2.1137  1.6184 -2.3918
  850MOL0     H14692   0.445   3.469  10.674  1.7363  0.2986  3.3745
  850MOL0     H14693   0.445   3.620  10.465  0.4753  0.1651  2.9116
  850MOL0     H14694   0.608   3.594  10.448  0.6523 -1.1705  0.4817
  850MOL0     H14695   0.595   3.369  10.401  0.5609  1.8665 -0.3585
  850MOL0     H14696   0.420   3.358  10.442  1.2749 -2.2629  0.6624
  850MOL0     H14697   0.394   3.364  10.220 -0.9793 -0.3144  1.4096
  850MOL0     H14698   0.372   3.525  10.272  1.1583  1.2645  0.2958
  850MOL0     H14699   0.628   3.436  10.152 -1.3974 -1.0515 -2.3223
  850MOL0     H14700   0.589   3.610  10.214  0.9791  0.7495 -0.1997
  850MOL0     H14701   0.439   3.337   9.976 -2.0927 -0.5502 -2.1763
  850MOL0     H14702   0.425   3.374   9.702  2.4353  0.9549  2.2903
  850MOL0     H14703   0.262   3.361   9.769 -0.1882  2.7652  2.1388
  850MOL0     H14704   0.363   3.532   9.535  1.9372 -1.2412  1.6357
  850MOL0     H14705   0.255   3.615   9.644 -2.3155  0.2505 -1.8075
  850MOL0     H14706   0.104   3.541   9.490 -0.3841  0.7244 -0.0040
  850MOL0     H14707   0.089   3.438   9.632  2.2773  0.4729  0.6819
  850MOL0     H14708   0.079   3.297   9.436 -0.5440  1.3555 -1.6445
  850MOL0     H14709   0.219   3.268   9.548 -0.4496  0.8868  1.9322
  850MOL0     H14710   0.352   3.365   9.128  1.3791  1.2329  1.0048
  850MOL0     H14711   0.386   3.191   8.838  1.8281  0.1775 -1.2853
  850MOL0     H14712   0.441   3.325   8.932  2.7211 -1.1183 -0.1413
  850MOL0     H14713   0.525   3.170   8.954  1.9978  1.9382 -1.9827
  850MOL0     H14714   0.180   2.750   8.784  3.5064 -1.1490  4.4082
  850MOL0     H14715   0.179   2.659   8.563  0.8367 -1.5416 -1.7467
  850MOL0     H14716   0.212   2.564   8.357  2.1878 -0.3644  0.7728
  850MOL0     H14717   0.178   2.731   8.334 -3.0599 -2.3182  0.1503
  850MOL0     H14718   0.362   2.558   8.153  0.8101  0.0572 -0.8702
  850MOL0     H14719   0.199   2.592   8.108  0.3006 -0.4741  1.5150
  850MOL0     H14720   0.285   2.747   7.975  1.2749  5.1582 -0.7178
  850MOL0     H14721   0.448   2.720   8.025 -0.2120 -1.4603  0.7939
  850MOL0     H14722   0.422   2.901   8.195  0.5038  1.1072 -0.8974
  850MOL0     H14723   0.374   2.964   8.038 -3.9175  1.3580 -0.0334
  850MOL0     H14724   0.260   3.064   8.171 -1.2056  0.2743  0.4417
  850MOL0     H14725   0.183   2.929   8.256 -1.2189  1.9170 -0.5165
  850MOL0     H14726   0.136   2.991   7.957  1.0798  0.9287  0.2495
  850MOL0     H14727   0.101   2.832   8.033  0.7253  0.6504 -0.4487
  850MOL0     H14728  -0.063   2.939   8.164 -2.0854  1.5144  1.4068
  850MOL0     H14729  -0.083   2.991   7.998  3.4033 -2.0240 -1.9091
  850MOL0     H14730   0.066   3.194   8.045 -0.2031  0.2716  0.1369
  850MOL0     H14731   0.039   3.154   8.219  0.1765  2.3616  0.4849
  850MOL0     H14732   0.548   2.860   8.463  1.3728  0.3736  1.0611
  850MOL0     H14733   0.527   2.981   8.686 -0.0029  0.6999  4.1875
  850MOL0     H14734   0.209   2.905   9.229  1.3098 -0.4765 -0.7874
  850MOL0     H14735   0.170   3.087   9.385 -1.5626  1.7411 -0.3718
  850MOL0     H14736   0.971   3.442  10.947  2.8994  1.2533 -0.6782
  850MOL0     H14737   1.184   3.428  11.076  0.1286  1.4886 -0.4126
  850MOL0     H14738   1.391   3.402  11.387 -0.0235 -0.8522  0.1402
  850MOL0     H14739   1.617   3.298  11.498 -2.0284 -0.0031  0.5215
  850MOL0     H14740   1.809   3.245  11.600  0.6927 -2.0801 -1.1965
  850MOL0     H14741   1.878   3.331  11.453  1.8625 -2.3164  0.3745
  850MOL0     H14742   2.025   3.337  11.717  0.3113  1.4737  1.9850
  850MOL0     H14743   2.064   3.408  11.562  0.3919 -1.3937 -1.8169
  850MOL0     H14744   2.063   3.187  11.444 -0.1901 -0.4814  0.3321
  850MOL0     H14745   2.005   3.112  11.598  1.9901 -1.5574  2.6603
  850MOL0     H14746   2.241   3.066  11.595 -1.2970 -1.2656 -2.8933
  850MOL0     H14747   2.221   3.208  11.707  0.3673  0.3039 -0.5871
  850MOL0     H14748   2.446   3.332  11.360 -0.5231  0.1964 -0.6551
  850MOL0     H14749   1.746   3.706  11.543 -0.7016 -0.1204  0.2536
  850MOL0     H14750   1.554   3.790  11.446 -1.6343 -0.0905  0.2260
  851MOL0     O14751   6.125  10.164   0.190  0.0982 -0.5588  0.5548
  851MOL0     C14752   6.046  10.080   0.148 -0.1805  0.4979  0.4417
  851MOL0     O14753   6.076   9.960   0.089  0.9893 -0.2304  0.3705
  851MOL0     C14754   6.210   9.913   0.071  1.0324 -0.1660 -1.0865
  851MOL0     C14755   6.226   9.864  -0.058  0.4115  0.5678 -0.3234
  851MOL0     C14756   6.345   9.808  -0.088 -0.0321 -0.7625  1.4662
  851MOL0     C14757   6.467   9.833  -0.013  1.0232 -0.3892 -0.2789
  851MOL0     O14758   6.594   9.805  -0.052 -0.4402 -0.0711  0.8587
  851MOL0     C14759   6.610   9.684  -0.132 -0.0660  0.3603  0.7877
  851MOL0     C14760   6.753   9.659  -0.176  0.5726  0.4775  0.6813
  851MOL0     C14761   6.768   9.512  -0.228  0.4861 -0.0449 -0.2620
  851MOL0     C14762   6.906   9.505  -0.300  0.5208 -0.4958  0.1406
  851MOL0     C14763   6.934   9.383  -0.384  0.5577 -0.0164  0.3893
  851MOL0     C14764   6.933   9.267  -0.281 -0.4423 -0.3189  0.4304
  851MOL0     C14765   7.025   9.277  -0.156  0.0016 -0.6957  0.8694
  851MOL0     C14766   7.044   9.142  -0.096 -0.4385  0.3255 -1.1141
  851MOL0     N14767   7.180   9.127  -0.035  0.6713 -0.0936 -1.2516
  851MOL0     C14768   7.304   9.121  -0.101 -0.3565 -0.5868 -0.5592
  851MOL0     C14769   7.386   9.123   0.006 -0.2599 -0.3151  1.1748
  851MOL0     C14770   7.524   9.096  -0.005  0.0459 -0.1565  0.7102
  851MOL0     C14771   7.600   9.226  -0.020  0.4192 -0.2808  0.9830
  851MOL0     C14772   7.740   9.227  -0.068  0.3539  0.1200  0.7478
  851MOL0     C14773   7.825   9.158   0.043 -1.1116  0.5671 -0.2918
  851MOL0     O14774   7.965   9.151   0.008 -0.0513 -0.6825  0.3696
  851MOL0     C14775   8.058   9.142   0.117  0.0697 -0.7217 -0.7901
  851MOL0     C14776   8.186   9.119   0.094 -0.3066  1.0299  0.0305
  851MOL0     C14777   8.284   9.101   0.191  0.6578  0.2503  0.8009
  851MOL0     C14778   8.428   9.095   0.132  0.5055 -0.9617 -0.8373
  851MOL0     C14779   8.254   9.113   0.326 -0.6749 -0.5076 -0.0045
  851MOL0     C14780   8.347   9.125   0.438 -1.1007  1.0861 -0.1691
  851MOL0     O14781   8.290   9.161   0.551 -0.5103 -0.0199 -0.0184
  851MOL0     C14782   8.362   9.151   0.668  0.3561  1.3020 -0.1794
  851MOL0     C14783   8.425   9.262   0.711 -1.0767  0.6072 -0.3256
  851MOL0     C14784   8.497   9.273   0.835 -0.3988  0.2893 -0.9851
  851MOL0     C14785   8.493   9.166   0.921 -1.5111 -0.7631 -0.1266
  851MOL0     O14786   8.568   9.168   1.036  0.4300  0.5355 -0.6666
  851MOL0     C14787   8.634   9.282   1.095 -0.3638  0.6817 -0.0208
  851MOL0     C14788   8.711   9.248   1.234  0.4436 -0.2936  0.7118
  851MOL0     C14789   8.639   9.293   1.366  0.0251  0.2148  1.6615
  851MOL0     C14790   8.693   9.218   1.485 -0.2184  0.2988 -0.0047
  851MOL0     C14791   8.641   9.301   1.604  0.0751 -0.3797 -0.5003
  851MOL0     C14792   8.732   9.416   1.648  0.3599 -0.4173 -0.1538
  851MOL0     C14793   8.694   9.497   1.779 -0.1623 -0.6154 -0.0412
  851MOL0     C14794   8.788   9.613   1.818 -0.3871  0.0038  0.0564
  851MOL0    Cl14795   8.765   9.728   1.695 -0.3392 -0.6317  0.1529
  851MOL0     C14796   8.430   9.051   0.876 -0.6148  0.4464  0.2946
  851MOL0     C14797   8.363   9.039   0.752  0.4159 -0.8743 -0.3356
  851MOL0     O14798   8.465   9.067   0.433 -0.2915  0.2381  0.6661
  851MOL0     C14799   8.112   9.126   0.352 -0.3552 -0.5889 -0.6406
  851MOL0     C14800   8.021   9.134   0.249  0.0097 -0.1617  0.3912
  851MOL0     N14801   7.319   9.146   0.126 -0.2669  0.4350  0.0940
  851MOL0     N14802   7.194   9.159   0.094 -0.1507  0.4443 -0.6583
  851MOL0     C14803   6.453   9.888   0.117  0.3404 -0.0696  0.5992
  851MOL0     C14804   6.319   9.923   0.160  0.1617  0.6282 -0.5058
  851MOL0     C14805   5.902  10.107   0.172  0.4796 -0.9507  0.1518
  851MOL0     C14806   5.847  10.205   0.252 -1.4796  1.5258 -0.6885
  851MOL0     C14807   5.711  10.204   0.280 -0.1910  0.8971 -0.3369
  851MOL0     C14808   5.614  10.124   0.221  0.7044 -0.4713  0.0142
  851MOL0     O14809   5.486  10.123   0.269  0.0586  0.0300  0.1233
  851MOL0     C14810   5.436  10.234   0.345 -0.6974  0.0777  0.1112
  851MOL0     C14811   5.286  10.232   0.345  0.1413 -0.4908 -0.0052
  851MOL0     C14812   5.227  10.370   0.356 -0.3036 -0.3474  0.1779
  851MOL0     C14813   5.078  10.378   0.384  0.1061 -0.7494 -0.1696
  851MOL0     C14814   4.995  10.328   0.278  0.1269  0.0113  1.1637
  851MOL0     C14815   4.924  10.294   0.185  0.4066  0.5182 -0.2004
  851MOL0     C14816   5.661  10.031   0.136 -1.0979  0.2427 -0.2876
  851MOL0     C14817   5.805  10.013   0.120 -1.0836 -0.4026  0.0183
  851MOL0     H14818   6.148   9.849  -0.131 -0.2476 -2.5481  0.8680
  851MOL0     H14819   6.361   9.779  -0.192  0.7704  3.7892  0.0897
  851MOL0     H14820   6.563   9.602  -0.076  3.3623 -2.3065  0.1616
  851MOL0     H14821   6.553   9.680  -0.225  0.4275  0.0305  0.4915
  851MOL0     H14822   6.790   9.729  -0.251  1.1623  0.5143  1.0011
  851MOL0     H14823   6.815   9.661  -0.086  0.6637  0.7753  0.6129
  851MOL0     H14824   6.763   9.432  -0.154 -0.2694  0.7110  0.5327
  851MOL0     H14825   6.695   9.494  -0.308  2.0629 -0.2044 -1.7283
  851MOL0     H14826   6.911   9.588  -0.371  1.8048 -0.6349  0.0538
  851MOL0     H14827   6.978   9.530  -0.222 -1.5595  0.4049  1.8888
  851MOL0     H14828   6.853   9.367  -0.456  0.9229  2.6151 -0.7535
  851MOL0     H14829   7.032   9.397  -0.431  0.3879  3.2460  0.7799
  851MOL0     H14830   6.833   9.245  -0.242 -0.8236 -0.4542 -0.5810
  851MOL0     H14831   6.953   9.170  -0.329 -2.1613 -1.7878  2.4716
  851MOL0     H14832   7.122   9.313  -0.192 -1.3333  0.4145 -1.9807
  851MOL0     H14833   6.980   9.340  -0.079  1.3957  0.4372  0.8080
  851MOL0     H14834   7.027   9.070  -0.177 -2.1432  0.3456 -0.8158
  851MOL0     H14835   6.966   9.119  -0.023  0.3219  0.5912 -0.2011
  851MOL0     H14836   7.330   9.097  -0.203  2.7897 -0.6954  0.1704
  851MOL0     H14837   7.550   9.054   0.093  2.3079 -1.3142 -0.2886
  851MOL0     H14838   7.553   9.024  -0.083 -0.3791  2.0654 -1.6147
  851MOL0     H14839   7.589   9.288   0.070 -3.4007  2.9416 -1.3563
  851MOL0     H14840   7.540   9.281  -0.094  0.4434 -1.8529 -0.2495
  851MOL0     H14841   7.778   9.329  -0.075  1.8953 -0.4944 -0.1569
  851MOL0     H14842   7.767   9.173  -0.159  0.4430  0.9110  0.2978
  851MOL0     H14843   7.788   9.057   0.064 -3.4920  2.0938  4.2195
  851MOL0     H14844   7.808   9.214   0.135  0.9727  2.3193 -0.8910
  851MOL0     H14845   8.226   9.125  -0.007  2.7795 -0.0700  1.0551
  851MOL0     H14846   8.515   9.104   0.197  1.1863 -0.2966 -1.8025
  851MOL0     H14847   8.439   9.008   0.067  1.2009 -1.5285  0.0338
  851MOL0     H14848   8.441   9.191   0.080 -1.9012 -0.4832 -0.6576
  851MOL0     H14849   8.426   9.339   0.634  0.3120 -0.5770 -1.5407
  851MOL0     H14850   8.569   9.350   0.858 -0.2609 -0.3181  0.7815
  851MOL0     H14851   8.711   9.310   1.022  0.4803  1.3067  1.0699
  851MOL0     H14852   8.564   9.364   1.113 -1.4857 -0.3894  0.5836
  851MOL0     H14853   8.713   9.139   1.232 -0.9807 -0.3620  1.2959
  851MOL0     H14854   8.811   9.291   1.238  0.5243 -0.4430  0.2863
  851MOL0     H14855   8.532   9.273   1.353  0.0367  1.3691 -0.8359
  851MOL0     H14856   8.658   9.400   1.379  0.0441  0.5002 -0.3570
  851MOL0     H14857   8.666   9.113   1.496  0.8636  0.1916  2.4181
  851MOL0     H14858   8.801   9.234   1.474 -0.1666  0.5810  0.8748
  851MOL0     H14859   8.650   9.239   1.694 -1.4858  0.6336  0.3890
  851MOL0     H14860   8.540   9.340   1.595  1.0102  3.1807  2.2305
  851MOL0     H14861   8.828   9.365   1.657 -0.1410 -1.5366 -0.9930
  851MOL0     H14862   8.741   9.495   1.572 -3.4934  2.2140  1.8388
  851MOL0     H14863   8.681   9.412   1.846  3.5755 -0.7366  0.7508
  851MOL0     H14864   8.592   9.538   1.780  0.5638  1.4773 -1.7982
  851MOL0     H14865   8.890   9.575   1.825 -0.7413 -0.8199  0.8703
  851MOL0     H14866   8.756   9.659   1.912  2.1586  0.9370  0.5306
  851MOL0     H14867   8.440   8.969   0.945  1.7435  1.0661  0.7537
  851MOL0     H14868   8.320   8.950   0.709 -1.8236  0.4664 -1.0238
  851MOL0     H14869   8.069   9.160   0.445  0.5140  0.8528 -0.7284
  851MOL0     H14870   7.916   9.129   0.277  0.2135 -0.1225  1.1930
  851MOL0     H14871   6.533   9.899   0.188  0.9703  0.1557 -0.1271
  851MOL0     H14872   6.296   9.969   0.256 -3.5556  2.0215 -1.8757
  851MOL0     H14873   5.908  10.287   0.290 -1.4494  2.3398 -2.3940
  851MOL0     H14874   5.675  10.271   0.357  0.0090 -1.0023  1.5121
  851MOL0     H14875   5.479  10.216   0.444 -0.6158 -2.4765 -0.3348
  851MOL0     H14876   5.487  10.322   0.305 -0.1491  0.2736  1.1888
  851MOL0     H14877   5.255  10.176   0.434  1.3704 -0.3283  0.5364
  851MOL0     H14878   5.243  10.176   0.261 -0.1957  1.2843 -1.0599
  851MOL0     H14879   5.259  10.420   0.264 -3.2674 -0.4481 -1.0405
  851MOL0     H14880   5.272  10.420   0.442  2.0444 -0.4825 -0.9134
  851MOL0     H14881   5.051  10.482   0.403 -0.7325 -0.9468 -0.2572
  851MOL0     H14882   5.042  10.340   0.480 -0.4107 -1.6259 -0.6960
  851MOL0     H14883   4.878  10.247   0.100  2.4944 -1.3949 -0.3531
  851MOL0     H14884   5.594   9.955   0.097 -3.3550  0.2458  3.1787
  851MOL0     H14885   5.835   9.931   0.055  0.5821  0.1125  0.0743
  852MOL0     O14886   0.465   6.549   0.914 -0.7313  0.6796 -0.5878
  852MOL0     C14887   0.383   6.631   0.951 -0.2313 -0.0779  1.6171
  852MOL0     O14888   0.275   6.612   1.029  0.3083  0.4161 -0.0427
  852MOL0     C14889   0.240   6.482   1.061 -0.2822 -0.3562  0.0457
  852MOL0     C14890   0.319   6.391   1.132  0.3038 -0.3808 -0.7045
  852MOL0     C14891   0.260   6.276   1.195 -0.2122 -0.0241 -0.2582
  852MOL0     C14892   0.129   6.238   1.177 -0.4221  0.5098 -0.3195
  852MOL0     O14893   0.087   6.116   1.221 -0.7580  0.2286 -0.0004
  852MOL0     C14894  -0.051   6.077   1.220  0.2267  1.1134 -0.5692
  852MOL0     C14895  -0.070   5.939   1.284  0.4531  0.5610 -0.9647
  852MOL0     C14896  -0.216   5.885   1.295  0.8686 -0.6608 -0.8045
  852MOL0     C14897  -0.234   5.731   1.303  0.4368 -0.0904  0.0431
  852MOL0     C14898  -0.387   5.692   1.325  0.0829 -0.9895  0.0179
  852MOL0     C14899  -0.456   5.660   1.192 -0.3807  0.8703 -0.0254
  852MOL0     C14900  -0.607   5.650   1.219  0.0193  0.2384 -0.2137
  852MOL0     C14901  -0.694   5.770   1.245  1.1162 -0.2415 -0.3635
  852MOL0     N14902  -0.844   5.741   1.259  0.7059  0.4360  0.0946
  852MOL0     C14903  -0.918   5.721   1.372  0.7879 -1.0930 -0.3674
  852MOL0     C14904  -1.043   5.688   1.332 -0.2139 -1.2983  0.7093
  852MOL0     C14905  -1.174   5.674   1.404  0.1280  0.4431 -0.0622
  852MOL0     C14906  -1.191   5.524   1.456  0.0748 -0.7850  0.3713
  852MOL0     C14907  -1.322   5.498   1.536 -1.0369  0.1697  0.1022
  852MOL0     C14908  -1.453   5.500   1.449 -0.4945 -0.5964 -0.1347
  852MOL0     O14909  -1.525   5.625   1.462 -0.1502  0.4918  0.0596
  852MOL0     C14910  -1.612   5.643   1.564 -0.3340 -0.5385  1.1255
  852MOL0     C14911  -1.615   5.565   1.676  0.4406  0.2491 -0.8318
  852MOL0     C14912  -1.670   5.617   1.798  0.0537 -0.6273  0.6428
  852MOL0     C14913  -1.654   5.542   1.927  0.3943 -0.6253  0.0634
  852MOL0     C14914  -1.727   5.748   1.797 -0.1401 -0.5449 -0.5911
  852MOL0     C14915  -1.796   5.818   1.921 -0.5158 -0.0093 -0.2608
  852MOL0     O14916  -1.768   5.946   1.932  0.0101 -0.2878 -0.4449
  852MOL0     C14917  -1.821   6.008   2.043  0.3105 -0.8546  0.7015
  852MOL0     C14918  -1.922   6.104   2.025  0.8584  0.9644  0.3297
  852MOL0     C14919  -1.982   6.162   2.137 -0.9516  0.6263 -0.1474
  852MOL0     C14920  -1.949   6.115   2.268 -0.2919 -0.6950  0.5149
  852MOL0     O14921  -1.981   6.178   2.384  0.7381  0.1820 -0.7537
  852MOL0     C14922  -2.117   6.239   2.378  0.3679 -0.3582  0.3887
  852MOL0     C14923  -2.105   6.395   2.370 -1.1148 -0.3727  0.3947
  852MOL0     C14924  -2.027   6.455   2.488 -0.2739 -0.4570  0.1849
  852MOL0     C14925  -2.010   6.608   2.475 -0.9370  0.1799  0.5738
  852MOL0     C14926  -1.965   6.680   2.596 -0.1688 -0.4037  1.1038
  852MOL0     C14927  -1.817   6.656   2.636  0.2001 -0.8651  0.9922
  852MOL0     C14928  -1.769   6.730   2.762 -0.2176  0.7876 -0.7606
  852MOL0     C14929  -1.620   6.714   2.771 -0.5781  0.4313  0.2397
  852MOL0    Cl14930  -1.570   6.547   2.764  0.4333  0.4202  0.1699
  852MOL0     C14931  -1.843   6.024   2.277  0.3492 -0.2117  0.0302
  852MOL0     C14932  -1.782   5.971   2.169  0.7336 -0.2367 -0.3979
  852MOL0     O14933  -1.877   5.756   1.991  0.1817  0.4358  0.3198
  852MOL0     C14934  -1.732   5.827   1.677  0.8716  0.1037  0.2464
  852MOL0     C14935  -1.675   5.773   1.563  0.1150  0.0807 -0.5970
  852MOL0     N14936  -1.036   5.680   1.196  0.3649 -0.1791  0.3921
  852MOL0     N14937  -0.921   5.715   1.149  0.1349 -0.0894  0.4123
  852MOL0     C14938   0.053   6.327   1.100  0.2215 -0.2177 -0.4994
  852MOL0     C14939   0.104   6.448   1.052  0.3054 -0.5184 -0.4997
  852MOL0     C14940   0.414   6.772   0.911  0.0528 -0.4305  0.5043
  852MOL0     C14941   0.529   6.814   0.835 -1.7881 -0.8791  0.2923
  852MOL0     C14942   0.539   6.945   0.820  1.1365 -0.6679  0.3210
  852MOL0     C14943   0.461   7.043   0.882 -0.0724 -0.0798  0.4402
  852MOL0     O14944   0.498   7.173   0.855  0.2234  0.0559 -0.0704
  852MOL0     C14945   0.414   7.279   0.903 -0.1983  0.0512  0.3536
  852MOL0     C14946   0.465   7.414   0.864 -1.3636 -0.1580 -0.3020
  852MOL0     C14947   0.420   7.434   0.726  0.5286  0.1540  0.2138
  852MOL0     C14948   0.489   7.564   0.667  0.3150  1.3245  0.6372
  852MOL0     C14949   0.400   7.682   0.676  0.3895  0.1730 -0.1784
  852MOL0     C14950   0.311   7.768   0.679 -0.5294  1.0016  0.0871
  852MOL0     C14951   0.358   7.006   0.970  0.7243  0.0569  0.7945
  852MOL0     C14952   0.335   6.873   0.972 -0.6658 -0.0161 -0.8133
  852MOL0     H14953   0.412   6.419   1.179 -0.8067  0.9197  0.8367
  852MOL0     H14954   0.315   6.203   1.253 -3.3050  1.1364  4.8469
  852MOL0     H14955  -0.104   6.146   1.286  0.8201 -0.2094  1.3908
  852MOL0     H14956  -0.099   6.078   1.122 -0.0312  1.6662 -0.4442
  852MOL0     H14957  -0.023   5.868   1.215  2.9026  0.8661  0.2749
  852MOL0     H14958  -0.017   5.931   1.380 -0.5461 -0.3060 -0.4693
  852MOL0     H14959  -0.286   5.935   1.363  0.3206 -1.2853 -0.8872
  852MOL0     H14960  -0.263   5.918   1.202 -0.6598  0.2709  0.2509
  852MOL0     H14961  -0.197   5.677   1.215 -1.1433 -1.0406 -0.0895
  852MOL0     H14962  -0.182   5.713   1.397 -0.4368  2.8932  1.2010
  852MOL0     H14963  -0.378   5.604   1.389  0.1564  0.6993  2.4874
  852MOL0     H14964  -0.442   5.769   1.381 -2.1216 -1.9791 -0.6550
  852MOL0     H14965  -0.435   5.740   1.121 -0.6525  1.1187  0.1710
  852MOL0     H14966  -0.426   5.561   1.155 -2.9300 -1.0185  2.4473
  852MOL0     H14967  -0.634   5.608   1.122  0.3887 -0.3451 -0.0683
  852MOL0     H14968  -0.635   5.574   1.292 -2.4438  1.6789  0.4746
  852MOL0     H14969  -0.684   5.847   1.167  0.4439  1.5658  1.2532
  852MOL0     H14970  -0.657   5.815   1.337 -0.3715  0.3355 -0.0176
  852MOL0     H14971  -0.883   5.740   1.473  1.1212  0.6415 -0.7877
  852MOL0     H14972  -1.176   5.747   1.485 -0.7723  0.1239  0.2137
  852MOL0     H14973  -1.258   5.702   1.339  0.1965  1.5088  0.2918
  852MOL0     H14974  -1.107   5.492   1.518  1.5457  1.7082 -0.1994
  852MOL0     H14975  -1.176   5.472   1.361 -3.5287  0.1842 -0.8958
  852MOL0     H14976  -1.336   5.574   1.612 -1.3679  0.0416  0.1718
  852MOL0     H14977  -1.322   5.404   1.592  0.1318 -0.9963 -1.7098
  852MOL0     H14978  -1.507   5.414   1.491 -0.4459  0.0433  1.2852
  852MOL0     H14979  -1.430   5.487   1.343  0.2943 -2.8169  0.2420
  852MOL0     H14980  -1.559   5.474   1.698 -1.4090 -0.5641  0.8475
  852MOL0     H14981  -1.692   5.441   1.910 -0.4712 -0.4566  0.9307
  852MOL0     H14982  -1.545   5.539   1.940  0.5791  2.0064 -0.3694
  852MOL0     H14983  -1.704   5.582   2.016 -1.0615  0.0130 -1.0101
  852MOL0     H14984  -1.956   6.128   1.924 -0.3711  0.4071  0.5908
  852MOL0     H14985  -2.054   6.243   2.127  0.7319  2.4506  1.4304
  852MOL0     H14986  -2.169   6.211   2.286  2.5005  1.2147 -1.4087
  852MOL0     H14987  -2.171   6.209   2.468 -1.1783 -0.0495 -0.4084
  852MOL0     H14988  -2.044   6.428   2.285 -3.1084  3.0098  0.0915
  852MOL0     H14989  -2.201   6.448   2.375 -0.3078  1.6958 -2.8939
  852MOL0     H14990  -1.923   6.419   2.492  0.2400  0.9649  0.3707
  852MOL0     H14991  -2.083   6.439   2.581  0.6911  1.3194  1.1223
  852MOL0     H14992  -1.948   6.632   2.388  0.7664  0.6219  1.8617
  852MOL0     H14993  -2.105   6.661   2.460 -1.0417  0.0662  0.8289
  852MOL0     H14994  -2.033   6.647   2.676 -0.8302 -1.0909  0.2903
  852MOL0     H14995  -1.986   6.785   2.579 -1.3671 -0.8529 -0.4090
  852MOL0     H14996  -1.798   6.549   2.643  2.3052 -0.5032  1.3388
  852MOL0     H14997  -1.761   6.690   2.548  0.3098  1.6810  1.9410
  852MOL0     H14998  -1.815   6.689   2.853  0.1316 -0.3975 -1.1073
  852MOL0     H14999  -1.796   6.836   2.760 -2.4692  0.2911 -0.3455
  852MOL0     H15000  -1.572   6.756   2.860 -1.3894  0.2175  0.7928
  852MOL0     H15001  -1.565   6.769   2.694 -2.0134  0.8361 -0.5412
  852MOL0     H15002  -1.821   6.003   2.381 -3.6623 -1.9483  0.7127
  852MOL0     H15003  -1.705   5.896   2.185  2.0936  0.9307 -1.2159
  852MOL0     H15004  -1.771   5.928   1.671  0.4654 -0.1682 -3.1180
  852MOL0     H15005  -1.651   5.831   1.474  3.5294 -1.7584 -1.0242
  852MOL0     H15006  -0.049   6.295   1.083 -0.1802 -1.3323  3.1749
  852MOL0     H15007   0.035   6.522   1.013  0.6043  0.4730  0.8117
  852MOL0     H15008   0.604   6.756   0.783 -2.0148 -0.1748 -0.8759
  852MOL0     H15009   0.617   6.994   0.761 -1.3409  3.5727  0.1400
  852MOL0     H15010   0.306   7.272   0.883  0.1770 -1.0149 -1.5141
  852MOL0     H15011   0.424   7.285   1.012 -1.2026 -1.3208  0.5476
  852MOL0     H15012   0.573   7.416   0.876 -1.5758  0.1219  1.8731
  852MOL0     H15013   0.443   7.497   0.931 -0.4397  0.2938 -0.5378
  852MOL0     H15014   0.315   7.463   0.726  1.0586  2.3282  1.3537
  852MOL0     H15015   0.435   7.347   0.662 -1.1396 -0.4876  0.6360
  852MOL0     H15016   0.510   7.550   0.561 -1.1727  1.3739  0.3149
  852MOL0     H15017   0.582   7.594   0.716  1.4809 -1.3210  0.2555
  852MOL0     H15018   0.240   7.848   0.677 -1.2170  0.4373 -2.9002
  852MOL0     H15019   0.288   7.077   1.013  0.7762  0.3964  0.3235
  852MOL0     H15020   0.253   6.854   1.040  2.3084  1.2132  3.5078
  853MOL0     O15021  11.052  10.143  11.324 -0.8477  0.7190  0.6191
  853MOL0     C15022  10.993  10.196  11.414  0.0383 -0.0971 -0.9314
  853MOL0     O15023  10.857  10.192  11.435  0.2590 -0.2657  0.5267
  853MOL0     C15024  10.783  10.099  11.359 -0.8391 -0.1852 -0.3661
  853MOL0     C15025  10.834   9.982  11.303 -0.2416 -0.1959 -0.1593
  853MOL0     C15026  10.761   9.896  11.214  0.1564 -0.3564  0.0227
  853MOL0     C15027  10.635   9.939  11.179  0.2840  0.0274 -0.5428
  853MOL0     O15028  10.553   9.879  11.088  0.3119 -0.2176 -0.6260
  853MOL0     C15029  10.605   9.767  11.026 -1.2374  1.0115  0.0537
  853MOL0     C15030  10.542   9.750  10.883 -1.0829  0.0791  0.0825
  853MOL0     C15031  10.613   9.845  10.784 -0.4279  0.9691  0.0733
  853MOL0     C15032  10.601   9.799  10.639  1.2439 -0.2702  0.4962
  853MOL0     C15033  10.465   9.809  10.576  0.0882  0.7584  0.4867
  853MOL0     C15034  10.378   9.930  10.594 -0.1625  0.2395  0.8604
  853MOL0     C15035  10.241   9.911  10.545 -0.7536 -0.8456  0.8241
  853MOL0     C15036  10.153  10.034  10.587  0.9729 -0.6354 -1.1368
  853MOL0     N15037  10.022  10.043  10.511  0.2933 -0.3761  1.3008
  853MOL0     C15038  10.009  10.084  10.382 -0.1147 -1.1941  0.1805
  853MOL0     C15039   9.891  10.029  10.348  0.0527 -0.1722  0.6010
  853MOL0     C15040   9.844  10.033  10.204  0.0335  0.6224  0.1760
  853MOL0     C15041   9.736  10.144  10.178 -0.8159  0.5507 -0.0929
  853MOL0     C15042   9.660  10.131  10.044  0.5299 -1.1201 -0.0181
  853MOL0     C15043   9.523  10.060  10.058  0.0141  0.2758 -0.2370
  853MOL0     O15044   9.536   9.937  10.124  0.5395  0.4337  0.1677
  853MOL0     C15045   9.444   9.835  10.115 -1.2608  0.1963  0.0649
  853MOL0     C15046   9.315   9.845  10.068  0.1683 -0.8246  0.1153
  853MOL0     C15047   9.219   9.745  10.061 -0.4867  0.3827 -0.0514
  853MOL0     C15048   9.075   9.772   9.996 -0.3354 -0.1304 -0.5016
  853MOL0     C15049   9.263   9.619  10.120  0.2144  0.2802  0.5115
  853MOL0     C15050   9.176   9.506  10.130  0.5345  0.5536 -0.3713
  853MOL0     O15051   9.188   9.428  10.238  0.3157 -0.7537 -0.1453
  853MOL0     C15052   9.097   9.322  10.261 -0.0120  0.2644 -1.0589
  853MOL0     C15053   8.964   9.349  10.291  0.6314 -1.1843 -0.2351
  853MOL0     C15054   8.873   9.246  10.320 -0.0200 -0.2523  1.1039
  853MOL0     C15055   8.917   9.113  10.318  0.6131 -0.5140  1.1089
  853MOL0     O15056   8.845   9.000  10.350 -0.1460 -0.2112 -0.6358
  853MOL0     C15057   8.743   9.028  10.448 -0.2537  0.1377 -0.0898
  853MOL0     C15058   8.693   8.890  10.489  0.9014 -0.7290  0.2516
  853MOL0     C15059   8.616   8.822  10.371 -0.2362  0.2999 -0.7393
  853MOL0     C15060   8.548   8.695  10.426 -1.1892 -0.3961  0.2977
  853MOL0     C15061   8.492   8.609  10.308 -1.5375  0.3302 -0.3199
  853MOL0     C15062   8.593   8.567  10.202 -0.2193  0.6554  0.0639
  853MOL0     C15063   8.532   8.506  10.075  0.3523  0.3413 -0.0883
  853MOL0     C15064   8.452   8.379  10.104  0.2932  0.0817 -0.1363
  853MOL0    Cl15065   8.419   8.308   9.936 -0.0252 -0.6555 -0.3112
  853MOL0     C15066   9.046   9.091  10.282  0.3275  0.7650  0.0536
  853MOL0     C15067   9.138   9.190  10.256  0.2866 -0.3190  0.1062
  853MOL0     O15068   9.098   9.482  10.037  0.3751  0.4440 -0.1239
  853MOL0     C15069   9.386   9.605  10.186 -1.3249 -0.0975 -1.3434
  853MOL0     C15070   9.476   9.707  10.172 -0.3958 -0.2336 -1.0221
  853MOL0     N15071   9.833   9.959  10.450  0.0640  0.7979 -0.4034
  853MOL0     N15072   9.910   9.981  10.552  0.0624 -0.6587 -0.1867
  853MOL0     C15073  10.579  10.048  11.237  1.1712 -0.2860 -0.0949
  853MOL0     C15074  10.652  10.133  11.334  0.5017  0.7526  0.0634
  853MOL0     C15075  11.077  10.287  11.496  0.3263 -0.9330 -0.8026
  853MOL0     C15076  11.012  10.379  11.574 -0.0029 -0.8160  0.4713
  853MOL0     C15077  11.077  10.468  11.658 -0.5356  0.3057  0.9011
  853MOL0     C15078  11.219  10.453  11.676 -0.3597 -0.3673  1.3320
  853MOL0     O15079  11.301  10.543  11.746  0.4119 -0.2525  0.3942
  853MOL0     C15080  11.252  10.576  11.869 -0.7571  0.1211  0.7582
  853MOL0     C15081  11.202  10.723  11.880  1.3037  0.6301 -0.2435
  853MOL0     C15082  11.309  10.829  11.850 -0.3944 -0.3455  0.3146
  853MOL0     C15083  11.357  10.888  11.988 -0.1449  0.1009 -0.3325
  853MOL0     C15084  11.458  10.994  11.976 -1.0631  0.4552 -0.1585
  853MOL0     C15085  11.547  11.075  11.971  0.4469 -0.4762  0.3134
  853MOL0     C15086  11.293  10.369  11.587  0.9084 -0.4542  1.4014
  853MOL0     C15087  11.218  10.294  11.497 -0.1333  0.0293  0.2896
  853MOL0     H15088  10.925   9.937  11.341 -0.0503 -1.6730 -2.1759
  853MOL0     H15089  10.797   9.798  11.186  1.4742  0.5254 -1.5427
  853MOL0     H15090  10.711   9.789  11.008 -0.6648  0.1205  2.1147
  853MOL0     H15091  10.595   9.684  11.097  3.5949 -0.4973 -0.6431
  853MOL0     H15092  10.556   9.646  10.854  1.9984  0.2098  0.8114
  853MOL0     H15093  10.433   9.765  10.881 -1.0364  0.4128 -0.1422
  853MOL0     H15094  10.583   9.950  10.788  1.1907  1.5670 -1.9171
  853MOL0     H15095  10.720   9.833  10.802 -0.5056 -1.6221 -0.7802
  853MOL0     H15096  10.656   9.870  10.576  2.6978  1.3224  3.3660
  853MOL0     H15097  10.649   9.701  10.630 -2.7907 -2.3328 -0.8251
  853MOL0     H15098  10.484   9.808  10.468 -4.4615 -1.3921 -0.5576
  853MOL0     H15099  10.402   9.720  10.586  1.1075  0.2405  3.0269
  853MOL0     H15100  10.369   9.961  10.699 -3.8535  0.1138  0.7130
  853MOL0     H15101  10.427  10.006  10.532  0.1299 -1.5636 -1.2165
  853MOL0     H15102  10.230   9.893  10.438  0.6712  1.8302  0.1411
  853MOL0     H15103  10.217   9.819  10.601  0.6829 -2.0390 -0.4356
  853MOL0     H15104  10.212  10.126  10.585  0.2796  0.0795  2.8297
  853MOL0     H15105  10.133  10.010  10.692  2.6088 -0.7495 -0.8236
  853MOL0     H15106  10.085  10.114  10.310  1.3588 -2.5860  1.0914
  853MOL0     H15107   9.920  10.048  10.127 -2.4800  0.9759 -2.4011
  853MOL0     H15108   9.800   9.935  10.187  1.1377  0.1355  0.0409
  853MOL0     H15109   9.777  10.245  10.189  1.3386 -0.3780  1.0254
  853MOL0     H15110   9.654  10.137  10.250 -0.6935 -0.4779 -0.0415
  853MOL0     H15111   9.735  10.075   9.987  1.5813  2.3201 -2.2962
  853MOL0     H15112   9.651  10.229   9.997 -1.5762 -1.1530  0.1978
  853MOL0     H15113   9.479  10.025   9.964  0.1151 -2.3174  0.6153
  853MOL0     H15114   9.449  10.125  10.107 -1.4613 -1.0865 -0.5909
  853MOL0     H15115   9.281   9.937  10.020 -0.0258 -1.7495 -1.6257
  853MOL0     H15116   9.039   9.696   9.926 -0.7204  0.1144 -0.5698
  853MOL0     H15117   9.005   9.788  10.078 -0.1337  0.0584 -0.3643
  853MOL0     H15118   9.064   9.862   9.934 -0.5049  1.5459  1.8478
  853MOL0     H15119   8.926   9.447  10.317 -2.1178 -1.9703 -0.9114
  853MOL0     H15120   8.769   9.267  10.343 -0.1912 -1.6571  1.7377
  853MOL0     H15121   8.792   9.071  10.536 -1.2527 -0.5206  0.8000
  853MOL0     H15122   8.669   9.098  10.408  0.7621  0.2934 -1.8396
  853MOL0     H15123   8.775   8.837  10.538  1.6150  0.9580  0.9688
  853MOL0     H15124   8.620   8.908  10.569  2.5854 -2.6596  2.3495
  853MOL0     H15125   8.702   8.794  10.309  0.4241 -1.5486  0.9229
  853MOL0     H15126   8.546   8.872  10.302 -1.5733 -1.2625 -0.5712
  853MOL0     H15127   8.628   8.655  10.489  1.4986  3.5572 -0.2513
  853MOL0     H15128   8.463   8.723  10.489  1.2464  1.7252  2.9725
  853MOL0     H15129   8.408   8.661  10.261 -2.1652 -0.5614 -0.2062
  853MOL0     H15130   8.451   8.519  10.355  0.3188 -2.6465 -3.8729
  853MOL0     H15131   8.643   8.655  10.162 -0.9159  0.9242 -0.2418
  853MOL0     H15132   8.648   8.488  10.254 -3.4202 -4.0760 -2.8279
  853MOL0     H15133   8.613   8.474  10.009  1.0462 -1.7350  1.6264
  853MOL0     H15134   8.481   8.586  10.020 -1.2389 -1.5692 -1.5186
  853MOL0     H15135   8.360   8.395  10.160 -0.9268 -2.1381 -1.3690
  853MOL0     H15136   8.521   8.305  10.146  1.2333  1.9630  1.8455
  853MOL0     H15137   9.079   8.988  10.294  1.1050  0.7262 -1.9531
  853MOL0     H15138   9.244   9.172  10.246  0.1864 -0.1494 -1.5650
  853MOL0     H15139   9.413   9.514  10.240 -2.3249  1.0246  1.2506
  853MOL0     H15140   9.572   9.692  10.222 -0.0972 -0.2659 -1.6061
  853MOL0     H15141  10.477  10.074  11.211  1.1578  0.1158  0.3530
  853MOL0     H15142  10.610  10.219  11.385 -0.1190  1.0777 -0.9654
  853MOL0     H15143  10.904  10.391  11.578 -0.2932 -3.0689  4.0328
  853MOL0     H15144  11.027  10.538  11.724  0.5226  0.8208  1.1865
  853MOL0     H15145  11.185  10.505  11.918  2.5967 -2.1089  2.4481
  853MOL0     H15146  11.342  10.563  11.928 -2.0871  0.8197  3.0525
  853MOL0     H15147  11.153  10.737  11.977  2.1564  1.3450  0.0945
  853MOL0     H15148  11.131  10.737  11.798 -0.3217 -2.2043  0.5317
  853MOL0     H15149  11.271  10.904  11.780  2.1591 -2.3928 -3.6371
  853MOL0     H15150  11.389  10.782  11.792 -1.2812  0.6486 -1.8473
  853MOL0     H15151  11.412  10.809  12.039 -0.0272 -1.7065 -3.0349
  853MOL0     H15152  11.270  10.925  12.043  0.2371  1.2576 -0.4633
  853MOL0     H15153  11.627  11.144  11.959  1.0124 -1.4940 -2.7131
  853MOL0     H15154  11.401  10.381  11.589  1.1481 -0.3661 -2.9548
  853MOL0     H15155  11.266  10.230  11.423 -2.6968 -2.8258  0.9201
  854MOL0     O15156  10.405   4.670   9.195 -0.5724 -0.3418  0.7402
  854MOL0     C15157  10.364   4.684   9.307 -0.6912  0.4947  0.5607
  854MOL0     O15158  10.293   4.596   9.379 -0.5499  0.0849  0.2878
  854MOL0     C15159  10.226   4.487   9.328 -0.6892 -0.6672  0.1421
  854MOL0     C15160  10.210   4.458   9.196 -0.3602  0.3146 -0.7348
  854MOL0     C15161  10.140   4.347   9.152 -0.2622  0.3340  0.6263
  854MOL0     C15162  10.081   4.256   9.238  0.0490  1.1457 -0.4821
  854MOL0     O15163   9.994   4.158   9.201 -0.3920 -0.7845 -0.0211
  854MOL0     C15164   9.979   4.123   9.060  0.5015 -0.1378  0.6910
  854MOL0     C15165   9.878   4.009   9.042  0.6087  0.2819  0.2335
  854MOL0     C15166   9.748   4.063   9.062  0.4973  0.0358  0.1502
  854MOL0     C15167   9.633   3.954   9.064 -0.1481  0.6659 -0.1193
  854MOL0     C15168   9.501   4.006   9.113  0.3351  0.4285 -0.2382
  854MOL0     C15169   9.464   4.142   9.039 -0.2066  1.0974  0.3265
  854MOL0     C15170   9.335   4.217   9.086  0.3153  0.4287 -0.4124
  854MOL0     C15171   9.226   4.130   9.140 -0.3411  1.0956 -0.3955
  854MOL0     N15172   9.105   4.194   9.188  0.4493 -0.6643  0.2057
  854MOL0     C15173   9.091   4.291   9.281  0.0596 -0.2061  0.3223
  854MOL0     C15174   8.956   4.325   9.272 -0.7249 -0.0139  0.6255
  854MOL0     C15175   8.895   4.447   9.338  0.3019 -0.3620 -0.7302
  854MOL0     C15176   8.747   4.429   9.373  0.4180 -0.4846  0.1704
  854MOL0     C15177   8.644   4.412   9.258 -0.2576  0.6757 -0.0786
  854MOL0     C15178   8.499   4.470   9.291  1.0778 -0.0536 -0.2078
  854MOL0     O15179   8.458   4.434   9.427  0.2924  0.7342 -0.5782
  854MOL0     C15180   8.389   4.523   9.505  0.7150 -0.3465 -0.4081
  854MOL0     C15181   8.255   4.552   9.475 -0.1830 -0.7856  0.6677
  854MOL0     C15182   8.182   4.651   9.547  1.2848 -0.2505  0.2657
  854MOL0     C15183   8.033   4.684   9.518 -1.4972  0.1310  0.2985
  854MOL0     C15184   8.241   4.714   9.652  0.7651  0.3346 -1.0275
  854MOL0     C15185   8.177   4.827   9.716 -0.7248  0.3068 -0.4178
  854MOL0     O15186   8.064   4.814   9.786 -0.4532 -0.1867  0.0574
  854MOL0     C15187   7.981   4.912   9.832  0.2602 -0.8357  0.9645
  854MOL0     C15188   7.981   5.048   9.786  0.1194 -0.0380 -0.1155
  854MOL0     C15189   7.896   5.141   9.842 -0.2698 -0.2223  0.2897
  854MOL0     C15190   7.795   5.107   9.925  0.5068  0.6625  0.6864
  854MOL0     O15191   7.719   5.217   9.953  0.3920 -0.8059 -0.1326
  854MOL0     C15192   7.596   5.172  10.015  0.4259  0.1873  0.3574
  854MOL0     C15193   7.489   5.281  10.016  0.5215 -0.3132 -0.0347
  854MOL0     C15194   7.364   5.216  10.085 -0.1695  0.1811  0.1318
  854MOL0     C15195   7.289   5.321  10.161  0.9559 -0.0652 -0.8310
  854MOL0     C15196   7.164   5.267  10.227 -0.4118 -0.7091 -0.6774
  854MOL0     C15197   7.191   5.182  10.353 -0.0890 -0.8461  0.5203
  854MOL0     C15198   7.059   5.123  10.402  1.3930  0.0223  0.4669
  854MOL0     C15199   7.039   5.052  10.530  0.6129 -0.5009 -0.4222
  854MOL0    Cl15200   7.158   5.132  10.633 -0.0597  0.0357 -0.1762
  854MOL0     C15201   7.778   4.980   9.972 -0.2219 -0.0634 -1.7405
  854MOL0     C15202   7.883   4.888   9.931 -0.0096  0.1689  0.1489
  854MOL0     O15203   8.237   4.932   9.708  0.6541  0.5220 -0.0271
  854MOL0     C15204   8.371   4.662   9.694  0.2835 -0.7453  0.1983
  854MOL0     C15205   8.443   4.570   9.620  0.2152 -0.5338 -0.3185
  854MOL0     N15206   8.891   4.235   9.189  0.0328 -0.5223  0.3132
  854MOL0     N15207   8.981   4.156   9.139  0.8094  0.0364 -0.2092
  854MOL0     C15208  10.098   4.284   9.376  0.5032  0.4770 -0.1912
  854MOL0     C15209  10.168   4.395   9.420 -0.5549  0.3463  0.1089
  854MOL0     C15210  10.405   4.812   9.376  1.0216 -0.1279 -0.2980
  854MOL0     C15211  10.379   4.822   9.510  0.4873  0.1841 -0.7316
  854MOL0     C15212  10.429   4.932   9.582 -0.7358  0.1681  0.0503
  854MOL0     C15213  10.507   5.033   9.521 -0.1027  0.2276  0.7055
  854MOL0     O15214  10.555   5.144   9.579 -0.8878 -0.3171 -0.1043
  854MOL0     C15215  10.516   5.174   9.715  1.1401  0.1189 -0.4362
  854MOL0     C15216  10.581   5.082   9.823  0.5053 -0.3945 -0.1427
  854MOL0     C15217  10.734   5.092   9.801  0.1486  0.7839 -0.4108
  854MOL0     C15218  10.802   5.154   9.925  0.1752  0.5130  0.4562
  854MOL0     C15219  10.796   5.079  10.050 -0.2370  0.6739  0.6429
  854MOL0     C15220  10.780   5.011  10.146 -0.8773 -0.5304 -0.4080
  854MOL0     C15221  10.535   5.019   9.381 -0.3940 -0.8994  0.2114
  854MOL0     C15222  10.486   4.910   9.313  0.3162  0.4010 -0.3475
  854MOL0     H15223  10.258   4.516   9.117  0.4629 -0.4462 -0.8166
  854MOL0     H15224  10.122   4.326   9.047 -2.0368  0.2056  0.9329
  854MOL0     H15225   9.962   4.216   9.005  4.7417  1.8267  2.2269
  854MOL0     H15226  10.076   4.081   9.028 -0.1691  0.4619 -2.4695
  854MOL0     H15227   9.881   3.985   8.936  1.7954 -5.7133  1.2729
  854MOL0     H15228   9.916   3.924   9.100 -0.2734  1.2839  2.4184
  854MOL0     H15229   9.750   4.124   9.153  0.8958 -1.9743  1.5409
  854MOL0     H15230   9.725   4.136   8.983 -1.5583 -0.2930  0.3701
  854MOL0     H15231   9.604   3.926   8.962 -3.8563 -0.2250  1.0481
  854MOL0     H15232   9.671   3.862   9.109 -0.3497 -0.4101 -2.0321
  854MOL0     H15233   9.425   3.931   9.091  0.1070 -0.3255  2.6787
  854MOL0     H15234   9.500   4.013   9.223 -3.0043  1.7276 -0.2494
  854MOL0     H15235   9.546   4.213   9.050  0.2114  0.2541  3.7186
  854MOL0     H15236   9.462   4.115   8.932  2.2342 -2.9131  1.0697
  854MOL0     H15237   9.360   4.284   9.170 -0.8665 -2.2973  2.3019
  854MOL0     H15238   9.297   4.273   9.000  1.9383 -0.7651 -1.9758
  854MOL0     H15239   9.273   4.086   9.228  2.4491  2.4099 -1.1203
  854MOL0     H15240   9.203   4.048   9.070  1.4706 -1.6803  2.0076
  854MOL0     H15241   9.167   4.339   9.343  2.6160 -2.9325 -0.4645
  854MOL0     H15242   8.950   4.472   9.430 -4.1357  1.6780  1.6945
  854MOL0     H15243   8.907   4.529   9.266 -2.7980  0.1751 -0.7672
  854MOL0     H15244   8.716   4.503   9.447 -2.3495 -2.5862  1.2706
  854MOL0     H15245   8.748   4.338   9.434  2.8454 -0.1384  0.7653
  854MOL0     H15246   8.633   4.306   9.234  0.6465  0.6533 -0.3961
  854MOL0     H15247   8.673   4.469   9.169 -3.9528 -1.6438 -3.0667
  854MOL0     H15248   8.421   4.434   9.223  1.4480 -2.4249  0.5493
  854MOL0     H15249   8.507   4.578   9.274  1.7812 -0.3196 -1.7521
  854MOL0     H15250   8.202   4.509   9.389  1.5992  0.4440 -1.1306
  854MOL0     H15251   8.004   4.640   9.422  1.9769 -0.5965 -0.5225
  854MOL0     H15252   7.962   4.655   9.597 -3.2853  2.2122 -0.4251
  854MOL0     H15253   8.034   4.792   9.503 -0.7122 -0.0866 -1.4473
  854MOL0     H15254   8.054   5.079   9.712  0.2838 -1.4452 -0.5743
  854MOL0     H15255   7.920   5.244   9.819  2.6630 -0.7846  0.4535
  854MOL0     H15256   7.544   5.102   9.949  1.4073  0.1787 -0.4245
  854MOL0     H15257   7.620   5.132  10.113  2.9059  0.0731 -0.2290
  854MOL0     H15258   7.521   5.363  10.081 -1.8942 -0.5135  1.5450
  854MOL0     H15259   7.465   5.310   9.914 -0.7834  1.8107  0.7987
  854MOL0     H15260   7.396   5.142  10.159  0.4917 -1.4807 -1.7387
  854MOL0     H15261   7.293   5.164  10.021 -1.1230  0.3684  1.0111
  854MOL0     H15262   7.350   5.382  10.228  2.2182 -0.5431 -1.5301
  854MOL0     H15263   7.269   5.395  10.083 -0.1652 -0.1857 -0.6744
  854MOL0     H15264   7.112   5.203  10.155 -1.0033 -3.3136  1.8722
  854MOL0     H15265   7.107   5.352  10.265  0.9668  0.1036 -0.3772
  854MOL0     H15266   7.251   5.096  10.321 -3.7784 -2.0150 -4.2367
  854MOL0     H15267   7.231   5.253  10.426 -1.1030  1.4899 -1.0811
  854MOL0     H15268   7.017   5.046  10.338 -2.1043  2.1722 -0.0513
  854MOL0     H15269   6.984   5.202  10.394  1.5744  0.2049  0.5544
  854MOL0     H15270   7.058   4.945  10.515  2.1296  0.0840 -3.4496
  854MOL0     H15271   6.940   5.077  10.570  1.4053  1.8761  0.2327
  854MOL0     H15272   7.713   4.943  10.050  5.0264 -1.5376  2.5340
  854MOL0     H15273   7.877   4.787   9.969 -2.0458 -0.8323 -2.4909
  854MOL0     H15274   8.408   4.699   9.789  1.6365 -0.1204 -0.5330
  854MOL0     H15275   8.530   4.517   9.659  1.5933  1.5843 -0.3560
  854MOL0     H15276  10.050   4.211   9.441 -0.0426 -0.8447 -1.9722
  854MOL0     H15277  10.183   4.413   9.526  2.7889 -0.3055 -0.1400
  854MOL0     H15278  10.309   4.753   9.557  1.6207 -0.8858 -0.5591
  854MOL0     H15279  10.403   4.935   9.687 -1.8424  1.8610 -0.2226
  854MOL0     H15280  10.540   5.277   9.742  3.1251  0.0046 -1.5813
  854MOL0     H15281  10.407   5.159   9.711  1.1740 -0.2796 -0.0262
  854MOL0     H15282  10.556   4.976   9.808 -0.7948 -0.0199 -0.7305
  854MOL0     H15283  10.552   5.117   9.923  0.7592 -2.4736  0.7156
  854MOL0     H15284  10.765   5.162   9.723  1.3385  1.4519  0.6335
  854MOL0     H15285  10.764   4.988   9.784 -0.1607  0.7761 -0.9173
  854MOL0     H15286  10.767   5.256   9.940  0.5376  0.1753  5.6957
  854MOL0     H15287  10.909   5.164   9.905  0.2339  4.7988  1.8905
  854MOL0     H15288  10.768   4.941  10.227 -2.2456 -0.0052 -0.1368
  854MOL0     H15289  10.586   5.089   9.315 -2.6532 -0.9504 -1.7132
  854MOL0     H15290  10.505   4.901   9.206  1.6544  0.5417 -0.1407
  855MOL0     O15291   9.688  10.867   5.001 -0.9329  0.1463  0.2296
  855MOL0     C15292   9.815  10.876   5.013 -0.0194  0.4163 -0.2577
  855MOL0     O15293   9.909  10.867   4.913  0.3356 -0.0433  0.1389
  855MOL0     C15294   9.848  10.920   4.794 -0.9624  1.9379 -1.4221
  855MOL0     C15295   9.775  11.037   4.780 -0.2097 -0.1651 -0.3798
  855MOL0     C15296   9.727  11.068   4.658 -0.0141 -0.0354 -0.5406
  855MOL0     C15297   9.757  10.994   4.542  0.3091 -1.3231 -0.7088
  855MOL0     O15298   9.684  11.034   4.427 -0.0928  0.2635  0.6521
  855MOL0     C15299   9.654  10.929   4.333  0.4832  0.9909 -0.4810
  855MOL0     C15300   9.505  10.940   4.294  0.4079  0.1278  1.0229
  855MOL0     C15301   9.474  11.076   4.215  0.1688 -0.4594  0.4373
  855MOL0     C15302   9.352  11.077   4.114  0.1804 -0.0641  0.8456
  855MOL0     C15303   9.387  11.086   3.967 -1.7464 -0.3597 -0.0098
  855MOL0     C15304   9.477  10.970   3.923  0.3197  0.7030 -0.8937
  855MOL0     C15305   9.533  10.990   3.783 -0.7032  0.3617  1.2680
  855MOL0     C15306   9.668  11.063   3.768 -0.3325  0.0134  0.4091
  855MOL0     N15307   9.743  11.038   3.892 -0.2560 -0.0744  0.9658
  855MOL0     C15308   9.813  10.926   3.930 -0.2231 -0.6140  0.1803
  855MOL0     C15309   9.880  10.963   4.039  0.7462 -0.1844  1.1907
  855MOL0     C15310   9.980  10.882   4.109  0.3178  0.9392  0.0291
  855MOL0     C15311  10.117  10.954   4.093  0.2956  0.1932  0.9353
  855MOL0     C15312  10.224  10.872   4.156  0.2965 -0.6272 -0.0588
  855MOL0     C15313  10.361  10.922   4.125 -0.4502 -0.3897  0.6733
  855MOL0     O15314  10.385  10.904   3.986  0.3170  0.4791  0.4145
  855MOL0     C15315  10.509  10.926   3.932 -0.4591 -0.5135 -0.3720
  855MOL0     C15316  10.627  10.948   4.012 -0.2685  0.0242 -0.3134
  855MOL0     C15317  10.750  10.967   3.949  0.2894 -0.1885 -1.1807
  855MOL0     C15318  10.867  11.019   4.035  1.1551  0.4654 -0.7684
  855MOL0     C15319  10.757  10.953   3.807  0.2283  0.1915 -0.0925
  855MOL0     C15320  10.882  10.969   3.731 -0.5815 -0.0536  1.8316
  855MOL0     O15321  10.864  10.994   3.596 -0.2550  0.4782  0.0136
  855MOL0     C15322  10.972  11.023   3.515  0.1270  1.1825  0.7254
  855MOL0     C15323  10.957  10.982   3.380 -0.6424  0.5056 -0.5786
  855MOL0     C15324  11.049  11.010   3.275  0.4089 -0.3565 -0.2452
  855MOL0     C15325  11.165  11.086   3.306 -0.2981 -0.0853 -0.0084
  855MOL0     O15326  11.250  11.125   3.200 -1.1939  0.7964  0.9303
  855MOL0     C15327  11.391  11.153   3.227 -0.2465  0.3270 -0.4590
  855MOL0     C15328  11.476  11.174   3.108 -1.5306 -0.0117  1.1621
  855MOL0     C15329  11.514  11.047   3.026 -0.8118  0.7405 -0.0049
  855MOL0     C15330  11.628  10.970   3.093  0.5716  0.1058  0.4120
  855MOL0     C15331  11.629  10.823   3.056  0.6595 -0.0106 -0.1805
  855MOL0     C15332  11.609  10.786   2.909 -0.9152 -0.1123 -0.2776
  855MOL0     C15333  11.703  10.867   2.805 -0.4270  0.5590 -1.2747
  855MOL0     C15334  11.851  10.857   2.831  0.0069  0.4352 -0.3226
  855MOL0    Cl15335  11.890  10.689   2.841 -0.1918 -0.2264 -0.0042
  855MOL0     C15336  11.190  11.120   3.444 -0.3324 -0.3221  0.3638
  855MOL0     C15337  11.093  11.087   3.543  0.1568  0.0209 -0.2772
  855MOL0     O15338  10.996  10.956   3.778 -0.3082  0.3243 -0.1961
  855MOL0     C15339  10.636  10.936   3.728 -0.4473  0.3614 -0.4058
  855MOL0     C15340  10.519  10.921   3.796  0.7498  0.0015  0.6249
  855MOL0     N15341   9.859  11.094   4.062  0.3862 -0.2660 -0.0697
  855MOL0     N15342   9.773  11.139   3.978 -0.0583  0.2880 -0.4597
  855MOL0     C15343   9.822  10.875   4.555 -0.7579 -0.1458 -0.1427
  855MOL0     C15344   9.871  10.834   4.684  0.2104 -0.0307 -0.2264
  855MOL0     C15345   9.868  10.882   5.152 -0.4534  0.6782  0.1292
  855MOL0     C15346   9.788  10.904   5.267 -0.4731 -0.1453 -0.5597
  855MOL0     C15347   9.841  10.922   5.391 -0.3301  0.2298 -0.6993
  855MOL0     C15348   9.985  10.900   5.408 -0.3868 -1.1845 -0.0121
  855MOL0     O15349  10.049  10.923   5.527  0.2196  0.0663 -0.5159
  855MOL0     C15350   9.971  10.974   5.647 -0.2056 -0.2650  0.3882
  855MOL0     C15351   9.928  10.851   5.726  0.1710  0.5938  0.3918
  855MOL0     C15352   9.878  10.886   5.863  0.6918 -0.5084  0.5501
  855MOL0     C15353   9.725  10.908   5.852 -0.5027 -0.5299 -0.5939
  855MOL0     C15354   9.675  10.950   5.979  0.1931 -0.5986  0.7134
  855MOL0     C15355   9.618  10.981   6.081 -0.9394  0.0196  0.4000
  855MOL0     C15356  10.055  10.865   5.295  0.4092  0.1209  1.2680
  855MOL0     C15357   9.997  10.848   5.169  0.4659  0.9724 -0.0922
  855MOL0     H15358   9.746  11.091   4.869 -1.0372 -0.7025 -0.3119
  855MOL0     H15359   9.663  11.155   4.648 -1.1714 -1.1111 -5.0204
  855MOL0     H15360   9.718  10.950   4.246  0.4422  1.3579 -0.4251
  855MOL0     H15361   9.655  10.832   4.383  0.5879  2.1675  1.9432
  855MOL0     H15362   9.481  10.866   4.217 -0.0113  3.5456 -2.4151
  855MOL0     H15363   9.439  10.929   4.380 -1.2823  1.9490  0.0446
  855MOL0     H15364   9.450  11.153   4.290 -0.6846 -0.7839  0.5021
  855MOL0     H15365   9.563  11.110   4.161  1.5178 -1.4875  1.9293
  855MOL0     H15366   9.290  10.989   4.132  0.5760 -0.6573 -0.5363
  855MOL0     H15367   9.287  11.161   4.137  0.8001  0.6718 -0.0078
  855MOL0     H15368   9.302  11.072   3.900 -1.8347 -3.4095  0.5948
  855MOL0     H15369   9.425  11.185   3.940 -1.4850 -1.1514 -2.8231
  855MOL0     H15370   9.550  10.939   3.999 -0.8566 -0.0166 -0.0102
  855MOL0     H15371   9.411  10.883   3.922 -0.3175  0.9033  3.2148
  855MOL0     H15372   9.557  10.895   3.736 -0.8312  0.2390  1.4515
  855MOL0     H15373   9.463  11.041   3.716  0.9421 -1.9188 -2.4641
  855MOL0     H15374   9.658  11.169   3.743 -1.0282 -0.2081 -0.2994
  855MOL0     H15375   9.716  11.015   3.683  1.5672 -0.1281  1.4953
  855MOL0     H15376   9.813  10.828   3.883 -1.7921 -1.5264  1.9710
  855MOL0     H15377   9.942  10.865   4.210  0.2009  0.7683 -0.0441
  855MOL0     H15378   9.988  10.789   4.052  1.8039 -0.2405  2.0471
  855MOL0     H15379  10.110  11.057   4.131 -1.2458  0.4838 -0.0419
  855MOL0     H15380  10.130  10.963   3.985 -1.5334 -1.1066  0.5729
  855MOL0     H15381  10.214  10.766   4.128  1.9297 -0.8274 -0.0150
  855MOL0     H15382  10.204  10.876   4.264 -2.2209 -3.9341 -0.2407
  855MOL0     H15383  10.432  10.868   4.189  0.8457 -0.0268 -0.4207
  855MOL0     H15384  10.366  11.027   4.156  1.2503 -0.6406  1.3810
  855MOL0     H15385  10.632  10.970   4.118  3.3971 -0.4909 -0.2571
  855MOL0     H15386  10.840  10.993   4.138 -1.0160  0.5407 -1.2726
  855MOL0     H15387  10.963  10.975   4.005  0.7176  0.9230 -3.0334
  855MOL0     H15388  10.874  11.128   4.040  3.3930  0.3858 -1.0082
  855MOL0     H15389  10.862  10.932   3.372  0.4441 -1.7384 -0.1645
  855MOL0     H15390  11.040  10.972   3.174  1.3893 -3.2489  0.6567
  855MOL0     H15391  11.403  11.246   3.284 -1.0796 -1.1123  2.2537
  855MOL0     H15392  11.426  11.069   3.288 -0.9861  0.5352  0.2658
  855MOL0     H15393  11.427  11.248   3.044  0.7091 -1.0900 -2.0572
  855MOL0     H15394  11.572  11.213   3.143  0.2414 -2.5835 -0.4753
  855MOL0     H15395  11.551  11.080   2.928  2.0956 -0.9148  0.4400
  855MOL0     H15396  11.424  10.985   3.016 -0.3637  0.1463 -0.4197
  855MOL0     H15397  11.721  11.021   3.069  1.9536 -1.0080  3.0183
  855MOL0     H15398  11.625  10.979   3.202 -1.0850  2.2945  0.2492
  855MOL0     H15399  11.550  10.775   3.114  1.2014  1.0106  1.4692
  855MOL0     H15400  11.721  10.775   3.089  0.7414 -1.0659 -1.7849
  855MOL0     H15401  11.623  10.679   2.895 -2.6862 -0.4884  0.5427
  855MOL0     H15402  11.502  10.804   2.895 -1.2063 -0.9032  0.8136
  855MOL0     H15403  11.692  10.976   2.805  1.8336  0.8909  1.0368
  855MOL0     H15404  11.665  10.834   2.708 -0.4844 -2.0198 -0.4347
  855MOL0     H15405  11.889  10.915   2.915  0.6655 -1.0464  0.4503
  855MOL0     H15406  11.906  10.882   2.740  2.1077 -0.6204  0.5872
  855MOL0     H15407  11.284  11.170   3.469  1.2066 -3.1852  0.7485
  855MOL0     H15408  11.103  11.125   3.644 -2.7661  1.9398 -0.5776
  855MOL0     H15409  10.632  10.909   3.623 -2.0467 -2.2976  0.2390
  855MOL0     H15410  10.431  10.905   3.735 -0.4007  1.4406  1.8068
  855MOL0     H15411   9.837  10.807   4.472  1.0490 -0.8281  0.6871
  855MOL0     H15412   9.918  10.736   4.683 -1.3318 -0.8075 -1.0758
  855MOL0     H15413   9.680  10.910   5.259 -0.8028 -1.4738  2.0869
  855MOL0     H15414   9.764  10.947   5.463 -1.2875 -1.6555 -1.0239
  855MOL0     H15415  10.039  11.040   5.701  1.3355  0.1089 -1.8761
  855MOL0     H15416   9.887  11.034   5.611  0.4225 -0.8685 -2.3645
  855MOL0     H15417  10.021  10.797   5.745 -0.4247 -0.4487  0.4488
  855MOL0     H15418   9.849  10.793   5.676  1.2837 -0.8781  0.2837
  855MOL0     H15419   9.927  10.975   5.904  1.4827 -1.0269  0.7336
  855MOL0     H15420   9.884  10.800   5.930 -1.2561 -0.0566  1.3869
  855MOL0     H15421   9.676  10.816   5.819  0.6932 -1.2959 -0.2925
  855MOL0     H15422   9.704  10.974   5.768 -0.4529 -2.3102 -2.0768
  855MOL0     H15423   9.560  10.997   6.169 -1.0249  2.1427  0.0066
  855MOL0     H15424  10.162  10.847   5.304  0.2369 -1.1311  0.9616
  855MOL0     H15425  10.065  10.828   5.087 -4.0745 -4.0095 -3.3269
  856MOL0     O15426   9.037   7.128   8.145  0.4554 -0.4464  0.1695
  856MOL0     C15427   8.976   7.024   8.152 -0.5105  0.9789 -0.3776
  856MOL0     O15428   8.839   7.009   8.161 -0.7033 -0.0560 -0.2105
  856MOL0     C15429   8.774   7.128   8.165  0.3474 -0.1902 -0.8411
  856MOL0     C15430   8.773   7.205   8.049  0.1269  0.3671  0.0289
  856MOL0     C15431   8.709   7.333   8.045 -1.0997  0.1289  0.2731
  856MOL0     C15432   8.652   7.385   8.163 -0.2417 -0.1139  1.1376
  856MOL0     O15433   8.603   7.513   8.187 -0.3325 -0.6967  0.5355
  856MOL0     C15434   8.692   7.609   8.141  0.3581 -0.2759  0.0122
  856MOL0     C15435   8.660   7.687   8.013  0.4733  0.7455  0.9637
  856MOL0     C15436   8.771   7.786   7.973 -0.9856 -0.3854  1.0360
  856MOL0     C15437   8.714   7.929   8.005  0.0187 -1.2469 -0.2996
  856MOL0     C15438   8.826   8.045   7.994 -0.0745 -0.2489 -0.3257
  856MOL0     C15439   8.769   8.183   7.998  0.4130  0.5398 -0.3462
  856MOL0     C15440   8.694   8.222   8.125 -0.1690 -0.7545  0.1762
  856MOL0     C15441   8.690   8.380   8.131  0.9059 -0.1463 -0.6925
  856MOL0     N15442   8.613   8.418   8.250  0.2842  0.1677 -0.1304
  856MOL0     C15443   8.481   8.456   8.244  0.8078  0.0300  0.2193
  856MOL0     C15444   8.449   8.493   8.370 -0.5496  0.0051  0.2948
  856MOL0     C15445   8.316   8.532   8.421 -0.2075 -1.3120 -0.5943
  856MOL0     C15446   8.258   8.398   8.482 -0.1903  0.5579  0.2766
  856MOL0     C15447   8.143   8.424   8.579 -1.2725 -0.0496 -0.9033
  856MOL0     C15448   8.138   8.322   8.699  0.0680  0.9316 -0.4282
  856MOL0     O15449   8.009   8.298   8.761  0.0377  0.3844  0.1995
  856MOL0     C15450   7.948   8.407   8.802  0.0175 -0.3233  0.2535
  856MOL0     C15451   7.874   8.481   8.723 -0.7836 -0.6595  0.5305
  856MOL0     C15452   7.804   8.592   8.781  0.1479 -0.4469  1.3806
  856MOL0     C15453   7.695   8.659   8.695 -0.0311  1.1667 -0.3474
  856MOL0     C15454   7.811   8.622   8.923  0.9185  0.8067  0.5538
  856MOL0     C15455   7.729   8.719   8.999  0.2929 -0.0252 -1.0246
  856MOL0     O15456   7.773   8.738   9.128  0.0338  0.1313  0.8018
  856MOL0     C15457   7.709   8.803   9.231  1.0908  0.2456 -0.2790
  856MOL0     C15458   7.788   8.873   9.323  0.4593 -0.2997  0.0309
  856MOL0     C15459   7.737   8.926   9.443 -1.2487 -0.4925  0.1546
  856MOL0     C15460   7.600   8.932   9.460  1.2149 -0.4821 -0.4352
  856MOL0     O15461   7.537   9.006   9.566 -0.6664  0.3001  0.0266
  856MOL0     C15462   7.601   9.128   9.615  0.0264  0.3670  0.0791
  856MOL0     C15463   7.499   9.211   9.703 -1.9660  0.1816  0.5009
  856MOL0     C15464   7.413   9.122   9.800  0.5218 -0.8024  0.4447
  856MOL0     C15465   7.325   9.204   9.882  0.8258  0.2497 -0.1099
  856MOL0     C15466   7.393   9.284  10.001  1.0565 -0.6652 -0.0694
  856MOL0     C15467   7.291   9.353  10.104 -0.7077  0.0669 -0.5659
  856MOL0     C15468   7.363   9.403  10.234  0.0136  0.2860 -0.4236
  856MOL0     C15469   7.273   9.418  10.361  0.0079  0.5595  0.2984
  856MOL0    Cl15470   7.122   9.490  10.322 -0.2260 -0.1323  0.7112
  856MOL0     C15471   7.519   8.857   9.378 -0.1134 -0.6509  1.3915
  856MOL0     C15472   7.573   8.800   9.261 -0.1345  0.2262 -0.2056
  856MOL0     O15473   7.631   8.786   8.956 -0.0515 -0.1414  0.8200
  856MOL0     C15474   7.899   8.536   8.993 -0.5309  0.9301 -0.6819
  856MOL0     C15475   7.962   8.430   8.934  0.5090  1.2382  0.2513
  856MOL0     N15476   8.565   8.468   8.451  0.4316  0.3765  0.4266
  856MOL0     N15477   8.661   8.417   8.371  0.0868  0.7457 -0.0448
  856MOL0     C15478   8.645   7.310   8.275  0.1833  0.4364 -0.3082
  856MOL0     C15479   8.712   7.180   8.275 -0.2750  0.6856  0.1321
  856MOL0     C15480   9.054   6.901   8.143 -0.0007 -1.6149  0.7077
  856MOL0     C15481   8.999   6.795   8.212 -0.1388  0.6207 -0.2304
  856MOL0     C15482   9.079   6.673   8.221 -0.1145 -0.4564  0.2958
  856MOL0     C15483   9.211   6.669   8.167  0.7422 -0.4933 -0.7402
  856MOL0     O15484   9.293   6.563   8.190  0.8345 -0.2071  0.5985
  856MOL0     C15485   9.426   6.593   8.222  0.1967 -0.4805  1.1301
  856MOL0     C15486   9.527   6.525   8.126 -0.1541  0.0063 -0.7049
  856MOL0     C15487   9.660   6.590   8.120  0.5192  0.2662  0.8583
  856MOL0     C15488   9.746   6.532   8.231  0.5758 -0.1394  0.7736
  856MOL0     C15489   9.733   6.611   8.363 -0.0257  0.6044 -0.3449
  856MOL0     C15490   9.711   6.683   8.456 -0.7613  0.4050 -0.0138
  856MOL0     C15491   9.257   6.774   8.081  0.0624 -0.2645  0.2620
  856MOL0     C15492   9.173   6.889   8.065 -0.5383 -0.1396  0.2847
  856MOL0     H15493   8.824   7.166   7.962  0.0092  2.3730 -0.9976
  856MOL0     H15494   8.711   7.380   7.947 -1.4688 -1.2620 -0.4341
  856MOL0     H15495   8.686   7.686   8.218 -1.3473  0.8806 -1.2100
  856MOL0     H15496   8.792   7.564   8.141  1.3002  1.6086  2.2515
  856MOL0     H15497   8.652   7.624   7.925  1.1530  0.2107  1.2814
  856MOL0     H15498   8.568   7.741   8.039  0.7961  1.5666  0.4568
  856MOL0     H15499   8.860   7.774   8.036 -1.6484  0.2703  2.1383
  856MOL0     H15500   8.799   7.790   7.867  0.1435 -0.2708  1.3291
  856MOL0     H15501   8.629   7.958   7.942  1.1807 -1.2183 -1.9099
  856MOL0     H15502   8.664   7.931   8.102  0.8617  2.2156  0.2066
  856MOL0     H15503   8.888   8.026   8.082  2.1118 -0.5847 -1.8490
  856MOL0     H15504   8.880   8.038   7.899 -2.6553  1.2616 -2.0317
  856MOL0     H15505   8.833   8.269   7.976  0.3523  0.3310 -1.4350
  856MOL0     H15506   8.691   8.183   7.921  1.6991  0.1510 -1.6991
  856MOL0     H15507   8.590   8.188   8.130  0.2246 -1.9160  3.5077
  856MOL0     H15508   8.747   8.180   8.212 -0.0116  0.2630  0.5904
  856MOL0     H15509   8.650   8.423   8.039  2.9274  1.2782 -0.9681
  856MOL0     H15510   8.795   8.410   8.137  1.1526 -1.1559  3.1442
  856MOL0     H15511   8.403   8.458   8.169  0.0293  0.2786  1.0068
  856MOL0     H15512   8.330   8.607   8.500 -0.8928 -2.8025  1.0139
  856MOL0     H15513   8.255   8.572   8.340 -0.2455  0.2757  0.1733
  856MOL0     H15514   8.350   8.357   8.525  0.7508 -0.1447 -2.2244
  856MOL0     H15515   8.234   8.317   8.412 -0.2893  0.2426  0.6724
  856MOL0     H15516   8.054   8.418   8.514  0.2526  0.3927 -3.1662
  856MOL0     H15517   8.166   8.523   8.620  1.7242 -0.7725 -0.6489
  856MOL0     H15518   8.204   8.342   8.784 -0.7397  1.7085  0.0316
  856MOL0     H15519   8.188   8.230   8.666  2.1082  2.5133 -2.0247
  856MOL0     H15520   7.858   8.456   8.618  1.8342  0.2150 -0.1741
  856MOL0     H15521   7.600   8.612   8.719 -0.3028  0.7274 -2.1573
  856MOL0     H15522   7.683   8.766   8.714 -1.5363  1.3152 -1.8862
  856MOL0     H15523   7.712   8.621   8.594  0.9615 -1.1048  0.5908
  856MOL0     H15524   7.892   8.884   9.294  0.0984  2.0575 -0.6016
  856MOL0     H15525   7.796   8.991   9.508 -0.4733  0.2628 -1.2413
  856MOL0     H15526   7.695   9.102   9.664  0.2521 -0.3701 -0.7238
  856MOL0     H15527   7.623   9.190   9.528 -1.4345 -0.7067 -1.1051
  856MOL0     H15528   7.563   9.281   9.759 -0.6247  2.0901 -3.1012
  856MOL0     H15529   7.440   9.277   9.639 -1.7224  0.4837  0.5861
  856MOL0     H15530   7.474   9.057   9.864  2.6647  0.5310 -0.1561
  856MOL0     H15531   7.350   9.059   9.736  1.9269  0.0022 -1.8802
  856MOL0     H15532   7.267   9.269   9.816  0.8745 -0.6844 -1.0985
  856MOL0     H15533   7.252   9.145   9.937  0.6875  2.0656  1.8060
  856MOL0     H15534   7.466   9.355   9.961  1.2433 -1.7896 -1.8384
  856MOL0     H15535   7.468   9.221  10.050  5.0674  3.0242 -0.7880
  856MOL0     H15536   7.249   9.445  10.061  0.8746  0.4056 -1.4759
  856MOL0     H15537   7.213   9.279  10.124 -1.0773  0.4138 -0.7073
  856MOL0     H15538   7.423   9.493  10.218  1.4055 -0.6745 -0.8551
  856MOL0     H15539   7.443   9.331  10.255 -0.8937 -0.6811 -0.1891
  856MOL0     H15540   7.329   9.485  10.426  1.9757  0.5114 -1.2617
  856MOL0     H15541   7.253   9.322  10.409 -0.2252 -0.8423 -2.4037
  856MOL0     H15542   7.413   8.862   9.399 -0.8005 -1.7368 -1.4024
  856MOL0     H15543   7.511   8.751   9.186 -1.0437  2.1308 -0.7630
  856MOL0     H15544   7.911   8.534   9.101 -0.7070 -2.7621 -0.6185
  856MOL0     H15545   8.009   8.362   9.004 -0.7018  1.2180  1.0726
  856MOL0     H15546   8.589   7.354   8.357  0.9985  0.6783  0.1289
  856MOL0     H15547   8.716   7.119   8.365  1.9025 -0.3592 -0.6071
  856MOL0     H15548   8.902   6.798   8.260 -0.4732 -1.8258 -0.6271
  856MOL0     H15549   9.035   6.593   8.280 -1.5544 -0.1825 -0.3734
  856MOL0     H15550   9.432   6.702   8.222 -3.9999  0.2721 -5.0381
  856MOL0     H15551   9.448   6.565   8.326 -1.3095 -0.4205  1.4882
  856MOL0     H15552   9.476   6.514   8.030  0.1793 -0.1658 -0.8648
  856MOL0     H15553   9.543   6.424   8.164  2.1399  0.7111  0.4057
  856MOL0     H15554   9.632   6.695   8.136 -1.0627 -0.2813  1.9093
  856MOL0     H15555   9.707   6.582   8.021 -1.6559 -1.9551 -0.1125
  856MOL0     H15556   9.849   6.529   8.192 -0.9342 -2.5609 -3.7469
  856MOL0     H15557   9.722   6.431   8.263 -1.2369 -0.2317 -0.7542
  856MOL0     H15558   9.688   6.764   8.522 -0.3590  0.5821 -0.0829
  856MOL0     H15559   9.352   6.763   8.030 -0.7512 -0.1669 -1.3571
  856MOL0     H15560   9.220   6.973   8.014  0.6703 -0.7606  0.3401
  857MOL0     O15561   5.112   3.087   3.996  0.0610 -0.3780  0.6017
  857MOL0     C15562   5.130   3.155   4.093  0.4337 -0.5110 -0.4728
  857MOL0     O15563   5.195   3.273   4.110  0.3267  0.3976 -0.2539
  857MOL0     C15564   5.226   3.352   4.003 -0.8740  0.6776 -0.1959
  857MOL0     C15565   5.246   3.308   3.869  0.2853  0.4452  0.0903
  857MOL0     C15566   5.260   3.409   3.765 -0.1592  0.3608 -0.3104
  857MOL0     C15567   5.279   3.540   3.806  0.0462 -0.0633 -0.8760
  857MOL0     O15568   5.337   3.627   3.722  0.1036  0.0339 -0.0400
  857MOL0     C15569   5.256   3.728   3.660 -0.5881  0.1433  0.6797
  857MOL0     C15570   5.294   3.731   3.506  0.0876 -0.2974 -0.6483
  857MOL0     C15571   5.195   3.811   3.421 -0.0280  0.2166  0.1617
  857MOL0     C15572   5.072   3.727   3.372  0.5054 -0.5626 -0.3312
  857MOL0     C15573   4.956   3.821   3.326 -0.2002 -0.2474  0.6765
  857MOL0     C15574   4.871   3.841   3.452  0.8993 -0.7498  0.1699
  857MOL0     C15575   4.739   3.910   3.418  0.1178 -0.4854 -0.7735
  857MOL0     C15576   4.631   3.816   3.398  0.3329 -0.0521  0.4962
  857MOL0     N15577   4.590   3.734   3.515 -1.3770 -0.3950 -0.4290
  857MOL0     C15578   4.524   3.785   3.628  1.2387 -0.3527  0.0748
  857MOL0     C15579   4.504   3.675   3.699 -0.2226  0.0930 -0.1749
  857MOL0     C15580   4.433   3.681   3.835  0.7923  0.6742 -0.2059
  857MOL0     C15581   4.395   3.543   3.894 -0.2866 -0.0242 -0.6574
  857MOL0     C15582   4.280   3.554   3.992  0.2547  0.5644 -0.4057
  857MOL0     C15583   4.303   3.446   4.100  1.1479 -0.4772 -0.1199
  857MOL0     O15584   4.183   3.431   4.184  0.8487 -0.1039  0.1834
  857MOL0     C15585   4.075   3.354   4.132  0.2895 -0.4714 -0.0195
  857MOL0     C15586   4.085   3.253   4.031 -0.1872 -0.2006  0.0113
  857MOL0     C15587   3.974   3.183   3.979 -0.7041  0.3347 -0.1363
  857MOL0     C15588   4.023   3.079   3.873  1.1499 -0.7973 -0.0113
  857MOL0     C15589   3.845   3.186   4.041 -0.1242 -0.4447  0.3831
  857MOL0     C15590   3.725   3.113   4.002  0.1534 -0.6872 -0.0420
  857MOL0     O15591   3.612   3.133   4.077 -0.0269  0.2058  0.3822
  857MOL0     C15592   3.531   3.023   4.095 -0.0358 -1.1357  0.5219
  857MOL0     C15593   3.572   2.889   4.055 -0.2900 -1.1262 -0.0781
  857MOL0     C15594   3.483   2.780   4.072  1.1486 -0.4088  0.2699
  857MOL0     C15595   3.350   2.806   4.111 -0.3430 -0.2096  0.2514
  857MOL0     O15596   3.270   2.695   4.134 -0.2726 -0.2843 -0.8865
  857MOL0     C15597   3.132   2.714   4.183 -1.0294 -0.7259  0.1925
  857MOL0     C15598   3.056   2.596   4.168  0.2964 -0.9250  0.8538
  857MOL0     C15599   2.906   2.629   4.184  0.0566  0.1220  0.6758
  857MOL0     C15600   2.826   2.505   4.165  0.4083  0.2939 -0.0745
  857MOL0     C15601   2.678   2.521   4.191  0.9158 -0.6717  0.1502
  857MOL0     C15602   2.664   2.512   4.340  0.1141  0.0485 -0.0930
  857MOL0     C15603   2.522   2.572   4.369  1.1143  0.1883  0.6953
  857MOL0     C15604   2.449   2.501   4.484  0.5614  0.0854  0.2083
  857MOL0    Cl15605   2.289   2.573   4.496 -0.2272 -0.0080 -0.3698
  857MOL0     C15606   3.304   2.941   4.127 -0.4343  0.3160  0.2045
  857MOL0     C15607   3.398   3.040   4.142 -0.1146 -0.8890 -0.1510
  857MOL0     O15608   3.736   3.059   3.892  0.2820 -0.4087  0.4292
  857MOL0     C15609   3.838   3.273   4.149  0.5051  0.0731 -0.3407
  857MOL0     C15610   3.949   3.357   4.197  0.7570  0.4649  0.2437
  857MOL0     N15611   4.544   3.563   3.635 -0.9695  0.7566  0.1835
  857MOL0     N15612   4.589   3.597   3.514  0.2251 -0.0166 -0.1848
  857MOL0     C15613   5.263   3.579   3.941 -0.6280 -0.1361 -0.6597
  857MOL0     C15614   5.243   3.485   4.038 -0.3555  0.6658 -0.1961
  857MOL0     C15615   5.079   3.097   4.224  0.1165 -0.4054  0.1578
  857MOL0     C15616   4.976   2.999   4.212  0.1743  0.1680  0.5876
  857MOL0     C15617   4.921   2.945   4.333  0.0020 -0.0997 -0.4691
  857MOL0     C15618   4.955   3.004   4.463  0.1239  0.7120  0.6392
  857MOL0     O15619   4.890   2.961   4.570 -0.3949 -0.7164  0.3018
  857MOL0     C15620   4.953   2.938   4.696 -0.3939  0.8053  0.5364
  857MOL0     C15621   4.883   2.817   4.766 -0.7756  0.4644  0.6834
  857MOL0     C15622   4.957   2.777   4.893  0.8741  0.1010  0.3783
  857MOL0     C15623   4.953   2.891   4.985 -0.1407 -0.1791  0.1360
  857MOL0     C15624   4.968   2.865   5.130  0.1303 -0.1299  0.0644
  857MOL0     C15625   4.969   2.863   5.255  0.0029 -0.7236  0.4833
  857MOL0     C15626   5.039   3.103   4.465 -0.6159 -0.2189  0.2841
  857MOL0     C15627   5.101   3.152   4.355  1.4039  0.2478  0.7532
  857MOL0     H15628   5.240   3.207   3.829  2.2291  0.8835 -1.4437
  857MOL0     H15629   5.275   3.391   3.659 -1.4138 -1.5259 -0.2266
  857MOL0     H15630   5.150   3.701   3.669  0.3085 -3.4046  2.4369
  857MOL0     H15631   5.272   3.826   3.705  0.0487  0.6853 -0.6706
  857MOL0     H15632   5.385   3.793   3.499  0.6535 -0.9631  0.5919
  857MOL0     H15633   5.320   3.634   3.461  0.1223  0.1741 -1.6950
  857MOL0     H15634   5.172   3.903   3.477  4.2408  0.4698  1.9445
  857MOL0     H15635   5.246   3.837   3.328 -2.1556  0.7533 -0.9011
  857MOL0     H15636   5.099   3.675   3.280  2.8783  2.1750 -1.3553
  857MOL0     H15637   5.031   3.659   3.447 -0.7860 -0.3397 -0.8113
  857MOL0     H15638   4.999   3.916   3.293 -1.1008 -0.4778 -1.2998
  857MOL0     H15639   4.892   3.783   3.246  2.1960  1.9515 -2.5397
  857MOL0     H15640   4.838   3.745   3.491 -0.3555 -0.9111 -1.1937
  857MOL0     H15641   4.934   3.892   3.525 -1.2745 -0.7999  2.2038
  857MOL0     H15642   4.721   3.987   3.494 -0.1008 -1.3936  0.1223
  857MOL0     H15643   4.760   3.963   3.325 -0.5971  1.3756  0.0867
  857MOL0     H15644   4.659   3.752   3.314 -1.5887 -0.2744 -0.0163
  857MOL0     H15645   4.542   3.876   3.373  0.4606  0.3864  1.0639
  857MOL0     H15646   4.495   3.885   3.659  0.9346 -0.6906  0.9067
  857MOL0     H15647   4.505   3.726   3.903  0.1346  4.5840 -1.8591
  857MOL0     H15648   4.335   3.729   3.824 -0.3259 -1.4814 -0.4412
  857MOL0     H15649   4.484   3.517   3.951 -1.0706 -1.6228 -0.0783
  857MOL0     H15650   4.387   3.475   3.809 -0.3894 -0.2991 -0.4294
  857MOL0     H15651   4.186   3.538   3.939  0.2568  3.1893 -1.3252
  857MOL0     H15652   4.278   3.649   4.047  0.2621  0.6096 -0.4843
  857MOL0     H15653   4.387   3.470   4.166 -0.0966  1.5359  0.8472
  857MOL0     H15654   4.327   3.351   4.053 -0.8109  0.3859 -3.1556
  857MOL0     H15655   4.172   3.236   3.968  0.9148 -1.6246  1.8365
  857MOL0     H15656   3.980   3.119   3.781  1.5618  0.5606  0.3559
  857MOL0     H15657   4.132   3.077   3.864  1.2608 -0.8074  1.1765
  857MOL0     H15658   3.994   2.976   3.894 -0.9312 -1.0420 -3.2892
  857MOL0     H15659   3.677   2.872   4.030  0.2180  0.7605  0.6097
  857MOL0     H15660   3.529   2.682   4.077  0.5893 -0.7407 -0.8728
  857MOL0     H15661   3.124   2.726   4.291 -1.0527 -0.8137  0.2003
  857MOL0     H15662   3.091   2.786   4.111 -3.8905 -2.8857 -0.5136
  857MOL0     H15663   3.081   2.556   4.069  1.4841  0.6465  0.4810
  857MOL0     H15664   3.088   2.530   4.248  1.7745 -1.2053  0.0706
  857MOL0     H15665   2.856   2.703   4.121  0.0481 -1.7141 -1.6363
  857MOL0     H15666   2.887   2.662   4.286  0.4608  2.3046  0.0882
  857MOL0     H15667   2.825   2.467   4.062  1.6723  4.9714 -2.0560
  857MOL0     H15668   2.880   2.424   4.214 -0.0879 -1.5676 -2.3999
  857MOL0     H15669   2.613   2.445   4.147  0.3054 -0.9480  1.4773
  857MOL0     H15670   2.656   2.620   4.149 -0.7758 -0.2323  1.9191
  857MOL0     H15671   2.675   2.407   4.368  3.4739  1.3737  5.0239
  857MOL0     H15672   2.728   2.583   4.394  1.6408 -1.6897  0.4549
  857MOL0     H15673   2.459   2.563   4.280  0.2989  0.3571  1.2497
  857MOL0     H15674   2.521   2.680   4.387  0.0756  0.4451 -0.7259
  857MOL0     H15675   2.507   2.517   4.576 -2.5632 -0.0640  2.3440
  857MOL0     H15676   2.443   2.396   4.455 -0.0656  0.6958 -2.0811
  857MOL0     H15677   3.200   2.956   4.154 -0.9197  1.8785 -2.2414
  857MOL0     H15678   3.376   3.138   4.182  1.3526 -0.9365  0.8253
  857MOL0     H15679   3.736   3.277   4.187 -1.8324 -1.8049 -5.5067
  857MOL0     H15680   3.927   3.434   4.269 -1.3572 -1.1130  1.3980
  857MOL0     H15681   5.282   3.683   3.967  1.5217 -0.9199  1.2782
  857MOL0     H15682   5.214   3.513   4.139  2.4974  1.1284  0.5724
  857MOL0     H15683   4.942   2.958   4.118  3.1392 -2.5031  0.4637
  857MOL0     H15684   4.836   2.879   4.324 -0.7132  1.0047 -2.4031
  857MOL0     H15685   5.057   2.915   4.671 -0.8780  1.3156 -2.2742
  857MOL0     H15686   4.953   3.030   4.755  0.4772  2.9595 -2.5474
  857MOL0     H15687   4.874   2.719   4.718 -2.6925 -0.0531  1.9801
  857MOL0     H15688   4.780   2.846   4.791 -0.7503  1.2868 -0.1009
  857MOL0     H15689   5.059   2.748   4.867  0.9031  1.1497 -0.7349
  857MOL0     H15690   4.905   2.689   4.931 -1.3347  1.7114  1.2924
  857MOL0     H15691   4.854   2.938   4.986 -1.3664 -2.5654  0.0661
  857MOL0     H15692   5.030   2.966   4.967 -0.0910  0.4428  2.5010
  857MOL0     H15693   4.978   2.874   5.361 -1.6949  0.2325  0.5538
  857MOL0     H15694   5.059   3.160   4.555  1.0391  1.0703 -0.8547
  857MOL0     H15695   5.165   3.240   4.361  0.4127  1.1190 -0.6894
  858MOL0     O15696   4.362   3.800   1.419 -0.1074 -0.0828 -0.0109
  858MOL0     C15697   4.395   3.843   1.530  0.2153  0.4728 -0.4779
  858MOL0     O15698   4.340   3.942   1.597  1.0264  0.1856  0.7389
  858MOL0     C15699   4.264   4.040   1.541 -0.6673  0.0674  0.1552
  858MOL0     C15700   4.283   4.168   1.591  0.1395 -0.9409  0.0235
  858MOL0     C15701   4.199   4.277   1.565 -0.6087 -0.6557 -0.4864
  858MOL0     C15702   4.097   4.255   1.475  0.5779  0.5132  1.6657
  858MOL0     O15703   4.013   4.352   1.461  0.2771 -0.9271  0.0700
  858MOL0     C15704   3.912   4.350   1.359  0.4401 -0.8491 -0.5377
  858MOL0     C15705   3.858   4.495   1.334  0.6713  0.3339  0.6451
  858MOL0     C15706   3.938   4.570   1.226  0.1559  0.0659 -0.2378
  858MOL0     C15707   3.943   4.720   1.249  0.2338 -0.3131  0.6886
  858MOL0     C15708   3.924   4.794   1.112  0.1304 -0.6316  1.3110
  858MOL0     C15709   3.989   4.933   1.121  0.0759 -0.7830  0.1480
  858MOL0     C15710   3.939   5.032   1.219  0.5224  0.4642 -0.9383
  858MOL0     C15711   3.827   5.108   1.151  1.0670  0.0774 -0.3152
  858MOL0     N15712   3.774   5.223   1.232  0.0561  0.4730  0.0641
  858MOL0     C15713   3.836   5.341   1.239 -0.0810 -0.5990  0.1313
  858MOL0     C15714   3.741   5.425   1.287  0.5181 -0.3438 -0.2018
  858MOL0     C15715   3.746   5.571   1.314 -1.3813 -1.3960 -0.4984
  858MOL0     C15716   3.673   5.656   1.200 -0.0402 -0.1618  0.1885
  858MOL0     C15717   3.648   5.807   1.247 -0.1322  0.0500  0.4336
  858MOL0     C15718   3.583   5.901   1.147 -0.4789 -0.3617  0.6047
  858MOL0     O15719   3.566   6.036   1.205  0.3723 -0.3676  0.2708
  858MOL0     C15720   3.493   6.130   1.136 -0.2970 -0.1102  0.7467
  858MOL0     C15721   3.405   6.108   1.022 -0.9592  0.2576  1.6112
  858MOL0     C15722   3.331   6.208   0.957 -0.5169  0.1017  0.4670
  858MOL0     C15723   3.248   6.160   0.834  0.6327 -0.2994 -0.8222
  858MOL0     C15724   3.345   6.341   1.007  0.8286  0.8068 -1.1920
  858MOL0     C15725   3.267   6.464   0.955  0.3419  0.4348  0.7192
  858MOL0     O15726   3.268   6.579   1.031  0.2728  0.2799 -0.1658
  858MOL0     C15727   3.214   6.699   0.982 -0.5112 -0.7711  0.9819
  858MOL0     C15728   3.076   6.719   0.989 -0.3227 -0.1527  0.1389
  858MOL0     C15729   3.031   6.839   0.936  0.1447 -0.0681  0.4153
  858MOL0     C15730   3.114   6.952   0.906  0.7931 -0.8063 -0.1311
  858MOL0     O15731   3.081   7.061   0.839 -0.7259  0.0503  0.3744
  858MOL0     C15732   3.023   7.034   0.721 -0.1559  0.1059 -0.1019
  858MOL0     C15733   3.007   7.165   0.642  0.2264  1.3260  0.2063
  858MOL0     C15734   3.133   7.218   0.580  0.1221  0.4972  0.2872
  858MOL0     C15735   3.088   7.330   0.473  0.6019 -0.8602  1.0792
  858MOL0     C15736   3.041   7.461   0.543 -0.0333 -0.9508  0.2072
  858MOL0     C15737   3.098   7.587   0.473  0.1577  0.1713  0.1407
  858MOL0     C15738   3.061   7.715   0.555 -0.1886 -0.1788 -0.2564
  858MOL0     C15739   3.075   7.837   0.470 -0.8833 -0.1123 -0.1410
  858MOL0    Cl15740   3.040   7.977   0.572  0.3434  0.0807 -0.2150
  858MOL0     C15741   3.245   6.935   0.949 -0.2327  0.6871  0.5694
  858MOL0     C15742   3.300   6.810   0.966  0.3093 -0.5994  0.1750
  858MOL0     O15743   3.205   6.455   0.841 -0.8891 -0.6548 -0.7767
  858MOL0     C15744   3.411   6.356   1.133  0.8174 -0.1494 -0.8119
  858MOL0     C15745   3.498   6.259   1.183  0.3832 -0.4599  0.1712
  858MOL0     N15746   3.630   5.349   1.310 -0.1451  0.1077 -0.4499
  858MOL0     N15747   3.649   5.238   1.273  0.0717  0.5057  0.5625
  858MOL0     C15748   4.072   4.127   1.428 -0.2033 -0.0589 -0.2542
  858MOL0     C15749   4.155   4.024   1.454 -0.1613  1.3234 -1.1351
  858MOL0     C15750   4.502   3.768   1.591 -1.2518  0.6772 -0.6463
  858MOL0     C15751   4.545   3.638   1.550  0.4154  0.0489  0.1483
  858MOL0     C15752   4.648   3.568   1.616  0.5640 -0.7132 -0.9591
  858MOL0     C15753   4.712   3.627   1.727  0.3749 -0.6753  0.0532
  858MOL0     O15754   4.825   3.568   1.773 -0.0551  0.5092 -0.1728
  858MOL0     C15755   4.868   3.446   1.709 -0.7805  0.4849  0.4045
  858MOL0     C15756   5.001   3.381   1.755  0.1903  0.4076  0.6592
  858MOL0     C15757   5.124   3.472   1.773  0.4884  0.3694  0.4674
  858MOL0     C15758   5.112   3.573   1.886  0.0232  0.9030 -0.9100
  858MOL0     C15759   5.070   3.512   2.021 -0.0542  0.2311 -1.2060
  858MOL0     C15760   5.051   3.454   2.128 -0.8911  0.0517 -0.0177
  858MOL0     C15761   4.677   3.758   1.754  0.2373  0.4719 -0.2231
  858MOL0     C15762   4.567   3.819   1.699 -0.1358 -0.6125 -0.7390
  858MOL0     H15763   4.381   4.183   1.636  1.0687 -0.3979 -2.0651
  858MOL0     H15764   4.223   4.372   1.610 -0.3769 -1.4543  1.1350
  858MOL0     H15765   3.934   4.311   1.259  0.7676  4.5305 -2.9353
  858MOL0     H15766   3.823   4.301   1.398  1.2428  1.1021  4.5160
  858MOL0     H15767   3.753   4.494   1.302  1.4837 -1.5750 -2.3960
  858MOL0     H15768   3.876   4.551   1.426  2.0969  2.0854 -0.6342
  858MOL0     H15769   4.042   4.541   1.244  0.7616  1.8442 -0.7307
  858MOL0     H15770   3.910   4.536   1.126  2.2696 -1.0969 -0.4837
  858MOL0     H15771   3.854   4.737   1.311  0.1250 -2.1853  1.0946
  858MOL0     H15772   4.027   4.745   1.313 -0.3438 -2.5791  2.4537
  858MOL0     H15773   3.967   4.730   1.034  1.1486 -1.7957  2.7619
  858MOL0     H15774   3.816   4.807   1.097  0.4275  0.1627 -0.3755
  858MOL0     H15775   4.097   4.919   1.134  0.7290  1.6125 -2.0091
  858MOL0     H15776   3.973   4.975   1.022  2.5232  2.1134  0.8404
  858MOL0     H15777   3.890   4.986   1.305 -0.1600  1.1979 -0.9125
  858MOL0     H15778   4.026   5.089   1.253 -1.3123  2.2932  1.0933
  858MOL0     H15779   3.747   5.040   1.120  2.4490 -2.1289  0.6778
  858MOL0     H15780   3.869   5.155   1.062 -0.0428  0.4145 -0.6789
  858MOL0     H15781   3.942   5.361   1.239  0.0321 -1.0131 -1.4510
  858MOL0     H15782   3.697   5.574   1.412 -0.7441  1.7647 -0.1928
  858MOL0     H15783   3.847   5.612   1.325 -2.3901  2.3758 -3.2746
  858MOL0     H15784   3.576   5.613   1.173 -0.6115 -0.5103  2.6430
  858MOL0     H15785   3.731   5.657   1.107 -0.0743 -4.1465 -0.0840
  858MOL0     H15786   3.749   5.838   1.273  0.5642 -1.6835 -0.0660
  858MOL0     H15787   3.585   5.795   1.336  2.2921  0.9418  2.3507
  858MOL0     H15788   3.487   5.852   1.127  1.0976 -2.7828 -1.6361
  858MOL0     H15789   3.632   5.912   1.050  0.5536  4.2312  1.3852
  858MOL0     H15790   3.403   6.005   0.988  3.9405  1.0138 -1.9188
  858MOL0     H15791   3.146   6.180   0.870  1.0585 -2.4713  1.9060
  858MOL0     H15792   3.271   6.218   0.744 -1.1763  1.9304  0.0548
  858MOL0     H15793   3.257   6.053   0.815 -3.3355 -0.9072 -0.1229
  858MOL0     H15794   3.001   6.641   0.984 -0.7488  0.3268 -2.3589
  858MOL0     H15795   2.924   6.837   0.915  0.0579 -1.9597  0.9036
  858MOL0     H15796   3.076   6.967   0.653 -1.5009  0.4980 -1.5825
  858MOL0     H15797   2.923   6.993   0.736 -0.6238  0.5830 -1.7038
  858MOL0     H15798   2.935   7.141   0.563 -1.8495  1.4060  1.9544
  858MOL0     H15799   2.958   7.240   0.705 -2.0710 -1.6989  2.3536
  858MOL0     H15800   3.165   7.135   0.516 -0.8318  1.5305 -1.6152
  858MOL0     H15801   3.213   7.242   0.652  0.8608  1.4341 -0.8043
  858MOL0     H15802   3.173   7.351   0.406 -3.1641  2.4539 -3.3082
  858MOL0     H15803   3.006   7.303   0.405  1.9846  0.7403 -1.3939
  858MOL0     H15804   3.078   7.458   0.646 -1.5247  0.0990  0.7964
  858MOL0     H15805   2.933   7.470   0.532  0.3784  1.2715 -4.6489
  858MOL0     H15806   3.207   7.578   0.466  0.2213 -2.0484  2.4926
  858MOL0     H15807   3.065   7.600   0.370  2.6757 -1.6238 -0.9788
  858MOL0     H15808   3.131   7.719   0.639 -0.0779 -0.2698 -0.3432
  858MOL0     H15809   2.956   7.706   0.584 -1.2397  3.7644 -2.1512
  858MOL0     H15810   3.010   7.843   0.382 -0.5161  1.3001 -0.3464
  858MOL0     H15811   3.174   7.860   0.428 -2.1440  3.4169 -1.5602
  858MOL0     H15812   3.306   7.023   0.930 -1.4415  0.8013 -3.6922
  858MOL0     H15813   3.404   6.781   0.974  1.4966  3.3997  1.6129
  858MOL0     H15814   3.415   6.454   1.179 -0.3155 -0.5314  0.1440
  858MOL0     H15815   3.576   6.266   1.258  1.3544 -0.9622 -0.7684
  858MOL0     H15816   3.987   4.119   1.360  1.6478 -3.2788 -2.4615
  858MOL0     H15817   4.123   3.923   1.430  2.2121 -0.0982  1.1692
  858MOL0     H15818   4.486   3.600   1.467 -2.5809  1.4213  1.4952
  858MOL0     H15819   4.665   3.473   1.567 -1.8487 -1.0475 -1.2658
  858MOL0     H15820   4.790   3.371   1.724 -0.7078  0.8396  2.9593
  858MOL0     H15821   4.888   3.471   1.604  0.1018  2.5277  0.9911
  858MOL0     H15822   5.023   3.306   1.679  2.7624  0.8609  0.8653
  858MOL0     H15823   4.990   3.329   1.850  0.5061  2.5606  1.9335
  858MOL0     H15824   5.143   3.536   1.687  2.0324  0.5303  0.8939
  858MOL0     H15825   5.211   3.406   1.771 -0.1652 -0.6613  2.8446
  858MOL0     H15826   5.036   3.648   1.863 -0.2961  1.1297  0.7707
  858MOL0     H15827   5.210   3.616   1.910  0.7255 -0.9077 -0.4040
  858MOL0     H15828   5.028   3.395   2.215 -1.5539  0.1533 -0.1140
  858MOL0     H15829   4.739   3.826   1.813  3.8251 -0.0674 -2.9970
  858MOL0     H15830   4.537   3.919   1.726 -0.3469 -0.5074 -1.3482
  859MOL0     O15831   3.085   3.461  10.127 -0.4223 -0.1844 -0.4229
  859MOL0     C15832   3.003   3.534  10.066 -0.6552  0.0249 -0.4205
  859MOL0     O15833   3.030   3.613   9.949  0.0719  0.3298  0.6882
  859MOL0     C15834   3.157   3.632   9.906 -0.9390 -0.0215  0.3390
  859MOL0     C15835   3.177   3.661   9.770  0.7135 -0.3152  0.8660
  859MOL0     C15836   3.295   3.694   9.703  0.3639  0.0514 -0.0582
  859MOL0     C15837   3.412   3.684   9.784 -0.2666 -0.8932  0.3749
  859MOL0     O15838   3.548   3.703   9.736  0.1852 -0.0229 -0.2483
  859MOL0     C15839   3.564   3.726   9.596  0.6895 -0.5492  0.2614
  859MOL0     C15840   3.709   3.709   9.537  0.4651  0.6611 -1.2328
  859MOL0     C15841   3.716   3.745   9.388 -1.2620 -0.3876  0.5358
  859MOL0     C15842   3.856   3.709   9.342 -0.1167  0.1113  0.2904
  859MOL0     C15843   3.904   3.826   9.253 -0.9333 -0.4954  0.3378
  859MOL0     C15844   3.929   3.961   9.319 -1.1283  0.1860  0.2214
  859MOL0     C15845   4.050   3.950   9.412  0.0359 -0.5720 -0.1512
  859MOL0     C15846   4.073   4.075   9.498  0.5217 -0.8465 -0.7352
  859MOL0     N15847   3.952   4.121   9.576  0.1074 -0.0406  0.5435
  859MOL0     C15848   3.901   4.062   9.687  0.1031 -0.6801 -0.0587
  859MOL0     C15849   3.788   4.132   9.729  0.1909 -0.4407 -0.1802
  859MOL0     C15850   3.708   4.118   9.850 -0.0121 -0.6370  0.2286
  859MOL0     C15851   3.583   4.024   9.826 -0.1215  0.0004  0.3222
  859MOL0     C15852   3.478   4.106   9.761  0.5109  0.0451  0.4607
  859MOL0     C15853   3.340   4.029   9.784 -0.1848  0.1157 -0.0859
  859MOL0     O15854   3.230   4.119   9.752 -0.9849  0.8674  0.1055
  859MOL0     C15855   3.106   4.101   9.805  0.5512  0.1212  0.5042
  859MOL0     C15856   3.006   4.193   9.764 -0.4136  0.6426  0.6225
  859MOL0     C15857   2.876   4.184   9.818 -0.3972  0.0396  0.5274
  859MOL0     C15858   2.779   4.298   9.781 -0.2009  0.2830 -0.4812
  859MOL0     C15859   2.845   4.070   9.894 -0.1602 -0.0981 -0.1633
  859MOL0     C15860   2.713   4.060   9.973 -0.3568  1.1699  0.2737
  859MOL0     O15861   2.658   3.933   9.958 -0.5571 -0.7017  0.0351
  859MOL0     C15862   2.548   3.909  10.023  0.3092  0.2982  0.2521
  859MOL0     C15863   2.434   3.886   9.948 -0.0867  0.4265 -0.8307
  859MOL0     C15864   2.314   3.860  10.008 -0.8852 -0.6594 -0.1412
  859MOL0     C15865   2.303   3.845  10.145  0.3502  0.1164  0.3299
  859MOL0     O15866   2.180   3.819  10.189 -0.4504 -0.0613  0.5514
  859MOL0     C15867   2.097   3.935  10.195 -0.2271  0.1863  0.0764
  859MOL0     C15868   1.955   3.926  10.137  0.5900  0.4027  0.2367
  859MOL0     C15869   1.857   3.876  10.248 -0.8507 -0.0284 -0.2352
  859MOL0     C15870   1.705   3.860  10.208 -0.6567  0.1497 -0.4790
  859MOL0     C15871   1.637   3.796  10.329 -0.1401 -0.2377  0.2709
  859MOL0     C15872   1.480   3.806  10.326 -0.6052 -0.4209  0.5214
  859MOL0     C15873   1.423   3.680  10.396 -0.1455  0.4368  0.3522
  859MOL0     C15874   1.267   3.671  10.386 -0.4705 -0.0733  0.4413
  859MOL0    Cl15875   1.192   3.819  10.451  0.0769  0.0268  0.1282
  859MOL0     C15876   2.413   3.865  10.224  0.0876  0.9548  0.2891
  859MOL0     C15877   2.536   3.900  10.165  0.6602  0.4885 -0.5451
  859MOL0     O15878   2.675   4.149  10.037  0.0635  0.1512 -0.6748
  859MOL0     C15879   2.949   3.974   9.923  0.9197 -0.2375 -0.6077
  859MOL0     C15880   3.074   3.992   9.880 -0.2943  0.2927  0.0775
  859MOL0     N15881   3.781   4.238   9.643 -0.3393 -0.6962  0.5709
  859MOL0     N15882   3.889   4.235   9.553  0.4380 -0.1130 -0.4686
  859MOL0     C15883   3.404   3.645   9.924  0.4545  0.8606  1.0061
  859MOL0     C15884   3.282   3.617   9.980  0.6958  0.3120 -1.2377
  859MOL0     C15885   2.863   3.517  10.108 -0.3088  0.1168 -0.9384
  859MOL0     C15886   2.761   3.547  10.014  0.5980  0.6386  0.1568
  859MOL0     C15887   2.627   3.517  10.042 -0.2418 -0.0280 -0.0519
  859MOL0     C15888   2.591   3.486  10.176  0.2221  0.0761  0.1917
  859MOL0     O15889   2.465   3.460  10.221 -0.1525  0.8102 -0.8594
  859MOL0     C15890   2.367   3.476  10.120 -0.3688  0.6111  0.2235
  859MOL0     C15891   2.236   3.463  10.199  0.9271  0.1241  0.1571
  859MOL0     C15892   2.124   3.490  10.101  0.6585  0.3443 -0.8793
  859MOL0     C15893   1.989   3.423  10.156  0.8289 -0.2441 -0.2483
  859MOL0     C15894   1.888   3.459  10.048 -0.1616 -0.4194 -0.3205
  859MOL0     C15895   1.828   3.502   9.955  0.7692  0.0764  0.5405
  859MOL0     C15896   2.690   3.453  10.268  0.1466 -0.1426  0.0742
  859MOL0     C15897   2.823   3.456  10.236  0.1192 -0.7909 -0.1132
  859MOL0     H15898   3.092   3.679   9.705  0.5790 -2.0592  0.5287
  859MOL0     H15899   3.296   3.730   9.601 -0.3028  3.2640  0.9544
  859MOL0     H15900   3.502   3.661   9.533 -0.2403  0.8212 -0.2829
  859MOL0     H15901   3.510   3.818   9.572 -0.4522 -1.7669 -2.2180
  859MOL0     H15902   3.779   3.769   9.596 -0.3310  0.0430  0.3817
  859MOL0     H15903   3.727   3.602   9.542  0.5051  0.7427  2.1089
  859MOL0     H15904   3.647   3.688   9.325 -0.7198  1.6864 -2.1022
  859MOL0     H15905   3.694   3.851   9.371  0.6288 -0.4200 -2.8548
  859MOL0     H15906   3.920   3.688   9.428 -0.0766  2.4130  0.8881
  859MOL0     H15907   3.846   3.623   9.275  2.5305 -0.7698  0.8842
  859MOL0     H15908   3.986   3.794   9.188 -3.6879 -1.6114 -2.8849
  859MOL0     H15909   3.824   3.844   9.180  1.2634  0.1698 -2.0444
  859MOL0     H15910   3.952   4.037   9.244  3.5117  2.4795  3.4655
  859MOL0     H15911   3.841   3.990   9.377 -1.7529 -1.7412  0.3194
  859MOL0     H15912   4.031   3.863   9.476 -0.1963 -2.6946 -2.8592
  859MOL0     H15913   4.131   3.912   9.348  0.4978 -2.0093  1.2192
  859MOL0     H15914   4.101   4.168   9.448 -1.7409  1.6390  2.1883
  859MOL0     H15915   4.157   4.058   9.566  2.4170  2.4704 -2.0168
  859MOL0     H15916   3.952   3.979   9.735 -0.3430 -0.1376  1.3773
  859MOL0     H15917   3.772   4.088   9.934 -1.5948 -0.5524  1.4990
  859MOL0     H15918   3.670   4.214   9.886 -0.3709 -1.2938  1.6393
  859MOL0     H15919   3.542   3.979   9.917  0.6683  0.8900  1.1537
  859MOL0     H15920   3.614   3.955   9.748  1.1490  1.6859 -0.7435
  859MOL0     H15921   3.498   4.101   9.654  1.4330  0.5149  0.6023
  859MOL0     H15922   3.466   4.209   9.795  2.5832  1.5661 -3.0260
  859MOL0     H15923   3.322   4.001   9.889 -1.6759  0.2207 -0.2861
  859MOL0     H15924   3.339   3.938   9.724  0.9299 -0.4010  0.6350
  859MOL0     H15925   3.042   4.279   9.708  1.0026 -1.0493 -1.1678
  859MOL0     H15926   2.684   4.246   9.766 -1.7861  2.9917 -0.6039
  859MOL0     H15927   2.757   4.364   9.865  2.9042  3.0047 -1.5431
  859MOL0     H15928   2.818   4.367   9.705  1.5654 -0.2543 -0.1142
  859MOL0     H15929   2.443   3.905   9.842 -1.8394  1.4759 -0.8302
  859MOL0     H15930   2.218   3.854   9.959 -1.6663  0.7060  1.1323
  859MOL0     H15931   2.090   3.966  10.300  0.9753 -1.6054  0.7113
  859MOL0     H15932   2.138   4.020  10.139 -0.8870  0.8889  0.6313
  859MOL0     H15933   1.903   4.017  10.105 -1.4327 -1.3635 -1.8304
  859MOL0     H15934   1.965   3.862  10.050  0.1126  0.3442  0.2227
  859MOL0     H15935   1.867   3.953  10.326 -0.8057 -1.3087  1.0629
  859MOL0     H15936   1.891   3.785  10.298 -1.2729 -0.5053 -0.8000
  859MOL0     H15937   1.661   3.960  10.198 -3.5996 -0.8992  0.7079
  859MOL0     H15938   1.694   3.810  10.111  2.1067 -0.9757 -0.2958
  859MOL0     H15939   1.672   3.852  10.416  3.9468 -1.9432 -0.0301
  859MOL0     H15940   1.675   3.694  10.339  0.8534  0.2313  1.4968
  859MOL0     H15941   1.433   3.895  10.370 -2.2877 -1.5495  1.0998
  859MOL0     H15942   1.445   3.799  10.223  0.3968  1.3942  0.0133
  859MOL0     H15943   1.460   3.688  10.498  3.2135  0.6823 -0.7363
  859MOL0     H15944   1.463   3.589  10.351  1.1091  0.3358  1.6198
  859MOL0     H15945   1.232   3.583  10.442  1.6554 -1.6885 -0.6578
  859MOL0     H15946   1.229   3.683  10.285  1.6069 -0.4394 -0.4312
  859MOL0     H15947   2.417   3.851  10.332  0.2269 -0.6070  0.0985
  859MOL0     H15948   2.622   3.903  10.231 -0.4971  3.1127  1.0181
  859MOL0     H15949   2.926   3.889   9.986  1.7191  3.0010  4.6722
  859MOL0     H15950   3.139   3.908   9.899 -2.8951 -2.1177 -1.0128
  859MOL0     H15951   3.492   3.649   9.988  0.5002  2.1316  0.8861
  859MOL0     H15952   3.275   3.598  10.086 -0.6944  0.8894 -1.2024
  859MOL0     H15953   2.786   3.574   9.912 -1.1161  3.6336  0.4037
  859MOL0     H15954   2.547   3.528   9.970 -1.1313 -0.8905  0.7721
  859MOL0     H15955   2.377   3.580  10.086  2.2821  0.7429  1.1414
  859MOL0     H15956   2.388   3.420  10.028  1.8797 -1.0044  1.6126
  859MOL0     H15957   2.233   3.533  10.282 -0.7061 -1.9765  1.9930
  859MOL0     H15958   2.229   3.358  10.230  0.2445  0.3474  0.7782
  859MOL0     H15959   2.150   3.432  10.012 -1.7156 -2.9030  0.3587
  859MOL0     H15960   2.103   3.595  10.082 -2.6832  0.7611  3.6665
  859MOL0     H15961   1.970   3.456  10.258  1.4281  1.8998 -0.7742
  859MOL0     H15962   1.989   3.314  10.153 -0.4830 -0.3720  2.0403
  859MOL0     H15963   1.793   3.537   9.860  0.1818 -3.9375 -0.9411
  859MOL0     H15964   2.662   3.417  10.367 -2.0531  0.0088 -0.4361
  859MOL0     H15965   2.898   3.431  10.311 -0.7804 -0.0204  1.0826
  860MOL0     O15966   3.130   4.085   6.534  0.1378  0.7821 -0.0402
  860MOL0     C15967   3.127   3.961   6.569 -0.8466 -0.3413  1.0343
  860MOL0     O15968   3.232   3.887   6.641  0.5129 -0.0520  0.4617
  860MOL0     C15969   3.350   3.950   6.679 -0.1287  0.4718  0.6185
  860MOL0     C15970   3.385   4.089   6.687 -0.2910 -0.0550  0.5743
  860MOL0     C15971   3.515   4.124   6.732 -0.8603  0.2742 -0.0551
  860MOL0     C15972   3.597   4.029   6.789  0.5425  0.2110  0.1600
  860MOL0     O15973   3.725   4.038   6.838  0.0935 -0.2221 -1.0126
  860MOL0     C15974   3.808   4.131   6.779  0.9417  0.4645  0.6349
  860MOL0     C15975   3.943   4.139   6.850  0.1556  0.3052 -1.0989
  860MOL0     C15976   3.927   4.135   7.010 -0.2499  0.9602  0.2502
  860MOL0     C15977   4.059   4.168   7.078 -0.2634  0.3090  0.3036
  860MOL0     C15978   4.068   4.120   7.224  0.7173 -0.0425 -0.3806
  860MOL0     C15979   4.209   4.075   7.266  0.3403 -0.1116  0.1445
  860MOL0     C15980   4.228   4.029   7.409  1.0050 -0.5892  0.4159
  860MOL0     C15981   4.192   4.121   7.523  0.5456  0.0366  1.0839
  860MOL0     N15982   4.213   4.067   7.661  0.4191 -0.4009 -0.0478
  860MOL0     C15983   4.318   4.016   7.728 -0.1036 -0.8766  0.5823
  860MOL0     C15984   4.291   4.034   7.858  0.6436  0.3056  0.8270
  860MOL0     C15985   4.379   4.017   7.980  0.1529 -0.2402  0.3182
  860MOL0     C15986   4.464   4.140   7.998 -0.6900 -0.5805  0.5300
  860MOL0     C15987   4.569   4.141   8.114 -0.4033  0.0558  1.2231
  860MOL0     C15988   4.509   4.133   8.250  0.5726 -1.4482  0.1791
  860MOL0     O15989   4.612   4.150   8.348 -0.1131  0.5562  0.4613
  860MOL0     C15990   4.691   4.042   8.379  0.0890  0.6834 -0.4940
  860MOL0     C15991   4.781   4.079   8.484  0.1575 -1.1040  0.4505
  860MOL0     C15992   4.898   3.989   8.522  0.2587  0.3648  0.1896
  860MOL0     C15993   5.008   4.040   8.611 -0.5913  0.2663  0.1773
  860MOL0     C15994   4.900   3.853   8.472 -0.1438 -0.2546  0.8723
  860MOL0     C15995   5.003   3.742   8.493  0.0917 -1.3554  0.6508
  860MOL0     O15996   5.127   3.778   8.531  0.4321 -0.0935  0.6870
  860MOL0     C15997   5.222   3.686   8.555 -0.1142  0.1344  0.4954
  860MOL0     C15998   5.197   3.546   8.582 -1.2181  1.0475  0.8743
  860MOL0     C15999   5.308   3.459   8.593 -0.3614  0.5673  0.8824
  860MOL0     C16000   5.440   3.500   8.571  0.3049  0.0699 -0.8448
  860MOL0     O16001   5.535   3.404   8.586  0.1386 -0.4099 -0.3468
  860MOL0     C16002   5.656   3.417   8.503 -0.1865 -0.1954 -0.2717
  860MOL0     C16003   5.717   3.275   8.487  0.5576  0.7956  0.8404
  860MOL0     C16004   5.821   3.276   8.380  0.9213  1.1967 -0.0589
  860MOL0     C16005   5.849   3.134   8.326 -0.2732 -0.6868 -0.8027
  860MOL0     C16006   5.999   3.119   8.298 -1.0203 -0.6474 -0.0776
  860MOL0     C16007   6.039   3.005   8.201  0.4354  0.1837 -0.0765
  860MOL0     C16008   6.185   2.968   8.178 -0.2579  0.4922  0.4417
  860MOL0     C16009   6.195   2.869   8.060  0.6244 -0.8431 -0.8421
  860MOL0    Cl16010   6.351   2.798   8.069 -0.3081  0.2961 -0.3217
  860MOL0     C16011   5.461   3.635   8.549  0.9106  0.2639 -0.2203
  860MOL0     C16012   5.350   3.723   8.542 -0.9714 -0.7268 -0.3929
  860MOL0     O16013   4.963   3.632   8.467  0.4303 -0.2914  0.4158
  860MOL0     C16014   4.792   3.821   8.381  0.2446 -0.4043  0.2626
  860MOL0     C16015   4.699   3.909   8.330  0.5801  0.7351 -0.8949
  860MOL0     N16016   4.166   4.099   7.872  0.5453 -0.6595  0.5836
  860MOL0     N16017   4.118   4.114   7.753  0.6014  0.2599  0.4613
  860MOL0     C16018   3.552   3.893   6.798  0.1086  0.5834  0.2903
  860MOL0     C16019   3.430   3.852   6.741 -0.3612 -0.2369 -0.5177
  860MOL0     C16020   3.000   3.893   6.529  0.1218  0.4668 -0.7980
  860MOL0     C16021   2.993   3.758   6.549 -0.0731  0.3272  0.0411
  860MOL0     C16022   2.874   3.700   6.506  0.4334  0.6295  0.0316
  860MOL0     C16023   2.768   3.761   6.454 -0.0404 -0.2356  0.8425
  860MOL0     O16024   2.651   3.688   6.421  0.3012 -0.1348  0.3683
  860MOL0     C16025   2.530   3.762   6.415  1.0093  0.2156  0.7829
  860MOL0     C16026   2.399   3.678   6.399 -0.0632  0.2640  0.4029
  860MOL0     C16027   2.402   3.598   6.265  0.5596 -0.2338 -0.2740
  860MOL0     C16028   2.281   3.504   6.258 -0.2395  0.4072 -0.6066
  860MOL0     C16029   2.290   3.397   6.355  0.7424  0.7682  0.3404
  860MOL0     C16030   2.283   3.296   6.423 -0.5191  0.3521  1.0446
  860MOL0     C16031   2.769   3.904   6.448 -0.2754  0.1353  1.0276
  860MOL0     C16032   2.883   3.963   6.486 -0.6185  0.3944  0.1868
  860MOL0     H16033   3.309   4.163   6.666 -0.9162  0.0973  3.0273
  860MOL0     H16034   3.543   4.227   6.748 -2.0267  0.6038 -0.0324
  860MOL0     H16035   3.822   4.120   6.671 -2.9498  0.1863  0.0046
  860MOL0     H16036   3.765   4.232   6.786 -1.1734 -0.3221 -0.0430
  860MOL0     H16037   4.002   4.051   6.821 -2.1674 -0.7995 -2.7921
  860MOL0     H16038   4.010   4.221   6.822 -1.2382  2.5394  1.6662
  860MOL0     H16039   3.840   4.194   7.040 -0.7567  1.0838 -1.4178
  860MOL0     H16040   3.904   4.033   7.044  0.0016  1.0115  0.5845
  860MOL0     H16041   4.136   4.126   7.012  0.9529  2.1882  0.4671
  860MOL0     H16042   4.069   4.276   7.086  2.2286 -0.0438  4.9788
  860MOL0     H16043   4.030   4.206   7.282  1.1695  0.0028 -0.1497
  860MOL0     H16044   3.999   4.037   7.240  1.6979 -0.3177  3.4287
  860MOL0     H16045   4.252   4.006   7.193  1.4352  2.1296 -1.4645
  860MOL0     H16046   4.274   4.162   7.255  1.0944 -0.7030 -0.1744
  860MOL0     H16047   4.162   3.942   7.416  2.1341 -1.7322 -1.9602
  860MOL0     H16048   4.328   3.986   7.426  2.3786  1.8312 -1.0891
  860MOL0     H16049   4.084   4.133   7.507  0.5529 -1.2769 -0.0884
  860MOL0     H16050   4.245   4.216   7.512  0.9136 -0.1394  1.3335
  860MOL0     H16051   4.410   3.973   7.689 -1.9967 -3.6904 -1.1685
  860MOL0     H16052   4.318   4.015   8.070  1.7556 -0.9191  1.4465
  860MOL0     H16053   4.445   3.929   7.983 -1.5850 -1.5582  1.9927
  860MOL0     H16054   4.394   4.221   8.024 -2.3688 -0.7613 -2.8594
  860MOL0     H16055   4.524   4.160   7.909  3.0246  3.3607  3.5319
  860MOL0     H16056   4.626   4.234   8.107  0.3307 -0.5095 -2.4864
  860MOL0     H16057   4.643   4.061   8.100  1.4610  2.2548 -3.5540
  860MOL0     H16058   4.468   4.031   8.257  2.1716 -2.0555  1.6434
  860MOL0     H16059   4.424   4.200   8.264 -0.4294 -3.1187  3.0663
  860MOL0     H16060   4.770   4.182   8.515 -0.5771 -0.8164 -0.6765
  860MOL0     H16061   5.002   3.984   8.705  0.2933 -2.6048 -1.3410
  860MOL0     H16062   5.107   4.009   8.576 -0.6026  1.2398 -0.7544
  860MOL0     H16063   5.005   4.148   8.628 -5.3588  0.5246 -0.8847
  860MOL0     H16064   5.099   3.501   8.596 -0.7235 -1.1755 -1.8131
  860MOL0     H16065   5.281   3.357   8.618  1.0095  0.2234  1.0490
  860MOL0     H16066   5.629   3.457   8.404  3.4769 -0.6589 -1.6187
  860MOL0     H16067   5.726   3.481   8.558 -0.6031  0.7776 -0.8402
  860MOL0     H16068   5.755   3.225   8.576 -1.1967  0.1801  1.2894
  860MOL0     H16069   5.638   3.214   8.442  0.1837  0.6177  1.7214
  860MOL0     H16070   5.911   3.320   8.423  0.0387  2.3103  0.7212
  860MOL0     H16071   5.766   3.320   8.296 -1.4290 -0.3678  0.5403
  860MOL0     H16072   5.819   3.048   8.386  0.0753 -1.9646 -2.4008
  860MOL0     H16073   5.805   3.118   8.227 -2.2379 -0.5104  0.0107
  860MOL0     H16074   6.048   3.105   8.395 -2.0677 -1.6697  0.3257
  860MOL0     H16075   6.042   3.213   8.263  0.9487 -1.8104 -0.9327
  860MOL0     H16076   5.987   2.915   8.233 -2.6170  0.8985 -2.5427
  860MOL0     H16077   5.993   3.031   8.105  2.2916  0.5441 -0.9127
  860MOL0     H16078   6.212   2.906   8.264 -0.5059 -1.3480 -0.7468
  860MOL0     H16079   6.256   3.052   8.173  2.2881 -1.5388  0.2317
  860MOL0     H16080   6.180   2.927   7.968  0.5687 -0.0369 -0.3369
  860MOL0     H16081   6.111   2.800   8.061 -1.5578  1.5981 -2.0451
  860MOL0     H16082   5.563   3.668   8.532  0.8973  1.8154  2.3254
  860MOL0     H16083   5.358   3.825   8.506 -1.6178 -0.9879 -1.3230
  860MOL0     H16084   4.781   3.722   8.337 -0.6531  0.5990 -1.8547
  860MOL0     H16085   4.619   3.868   8.268  0.6499 -0.1694 -0.4097
  860MOL0     H16086   3.608   3.815   6.849 -0.3996  0.6289  0.9369
  860MOL0     H16087   3.400   3.748   6.743  0.3702 -0.8782 -6.1902
  860MOL0     H16088   3.071   3.694   6.591 -1.1945 -1.5942 -0.6686
  860MOL0     H16089   2.877   3.595   6.531  0.2841  0.8883  1.1683
  860MOL0     H16090   2.526   3.825   6.504  2.4328 -0.2439  1.1915
  860MOL0     H16091   2.535   3.837   6.335  1.2742  0.3234  0.8986
  860MOL0     H16092   2.318   3.751   6.389  0.4049  0.6244 -1.0598
  860MOL0     H16093   2.393   3.605   6.480 -0.6382 -0.5305 -0.3405
  860MOL0     H16094   2.497   3.542   6.267 -0.6598 -2.3980  1.1063
  860MOL0     H16095   2.405   3.675   6.188  0.5611  3.1005  2.8048
  860MOL0     H16096   2.279   3.449   6.163 -3.3714 -1.2694  0.2726
  860MOL0     H16097   2.190   3.565   6.267 -1.2031 -1.2396  1.5808
  860MOL0     H16098   2.288   3.197   6.464 -2.1783  1.5384  4.4330
  860MOL0     H16099   2.686   3.967   6.417 -0.5148 -0.9380 -0.6533
  860MOL0     H16100   2.902   4.069   6.469  1.3650  0.5657  2.8103
  861MOL0     O16101  10.508   4.015   3.797  0.2121 -0.0927 -0.7991
  861MOL0     C16102  10.561   3.909   3.758  0.5003  0.9984 -0.3783
  861MOL0     O16103  10.695   3.896   3.731 -0.2686  0.2032 -0.5794
  861MOL0     C16104  10.776   3.988   3.789  0.3622 -0.3043 -0.0110
  861MOL0     C16105  10.841   3.974   3.908  0.2475  0.1171  0.4449
  861MOL0     C16106  10.946   4.063   3.941  0.4402 -0.6095 -0.6367
  861MOL0     C16107  10.976   4.166   3.852  0.6581 -0.3117 -0.0987
  861MOL0     O16108  11.076   4.243   3.892 -0.1431 -0.7670  0.3746
  861MOL0     C16109  11.074   4.385   3.879  0.1836 -0.5597  0.6290
  861MOL0     C16110  11.177   4.446   3.781 -0.0969  0.0231  0.8825
  861MOL0     C16111  11.194   4.598   3.800 -0.2146 -0.5422 -0.4254
  861MOL0     C16112  11.312   4.645   3.720  0.1417  0.1170 -0.5933
  861MOL0     C16113  11.375   4.787   3.770  0.0691  0.9537 -0.3154
  861MOL0     C16114  11.502   4.753   3.843  0.6955 -0.3335 -0.3420
  861MOL0     C16115  11.538   4.879   3.913 -0.6695  0.1230  0.6106
  861MOL0     C16116  11.466   4.903   4.045  0.3857  0.9213 -0.1301
  861MOL0     N16117  11.522   5.023   4.119  0.0941  0.1190 -0.8564
  861MOL0     C16118  11.530   5.142   4.054 -0.2853 -0.0889 -0.3409
  861MOL0     C16119  11.592   5.218   4.151  0.2043  0.3432 -0.5366
  861MOL0     C16120  11.635   5.360   4.146 -0.0729  0.1092  0.3099
  861MOL0     C16121  11.535   5.456   4.111 -0.3026 -0.2177 -0.0966
  861MOL0     C16122  11.596   5.602   4.099 -0.0715  0.6629 -0.2062
  861MOL0     C16123  11.620   5.685   4.228 -1.3211  0.8661  0.2835
  861MOL0     O16124  11.491   5.690   4.296 -0.5599  0.9904  0.3858
  861MOL0     C16125  11.458   5.813   4.317 -0.5002  0.1033  0.3629
  861MOL0     C16126  11.522   5.883   4.427  1.2990  0.9446  0.9187
  861MOL0     C16127  11.494   6.015   4.455  0.8105  0.2800 -0.5178
  861MOL0     C16128  11.556   6.068   4.582 -0.8709 -0.5285 -0.2821
  861MOL0     C16129  11.413   6.083   4.369  0.6969  0.4125  1.1708
  861MOL0     C16130  11.384   6.226   4.391  0.3848 -0.2059  0.3229
  861MOL0     O16131  11.485   6.310   4.451  0.1569  1.1358 -0.5214
  861MOL0     C16132  11.454   6.442   4.464 -0.0234  0.6040  0.4097
  861MOL0     C16133  11.434   6.489   4.598 -0.0638  0.8831 -0.0160
  861MOL0     C16134  11.415   6.630   4.626  0.3185 -0.7289 -0.0682
  861MOL0     C16135  11.423   6.719   4.514  0.6156  0.1877  0.5518
  861MOL0     O16136  11.414   6.850   4.535 -0.2698  0.2860 -0.6293
  861MOL0     C16137  11.289   6.911   4.584  0.0060  0.8945 -0.5404
  861MOL0     C16138  11.198   6.962   4.472 -0.5045  0.1968 -0.6957
  861MOL0     C16139  11.081   7.040   4.543  0.0681  0.3123 -0.6514
  861MOL0     C16140  10.979   7.068   4.439 -0.5133 -0.2386 -0.3194
  861MOL0     C16141  11.011   7.196   4.363  0.2465 -0.3068  0.2691
  861MOL0     C16142  10.903   7.204   4.252  0.3141  0.2414  0.1266
  861MOL0     C16143  10.758   7.249   4.295 -0.3477 -0.0174 -0.3574
  861MOL0     C16144  10.717   7.368   4.198 -0.1935  0.2383 -0.6163
  861MOL0    Cl16145  10.795   7.522   4.263 -0.2184  0.2685  0.5068
  861MOL0     C16146  11.431   6.666   4.381  0.8763 -0.3678 -0.3285
  861MOL0     C16147  11.444   6.530   4.360 -0.1586 -0.2246 -0.5720
  861MOL0     O16148  11.282   6.253   4.332  0.2770  0.2386  0.8668
  861MOL0     C16149  11.363   6.014   4.249 -0.5085 -0.0708 -0.4335
  861MOL0     C16150  11.386   5.872   4.222 -0.5396 -1.0198 -1.0467
  861MOL0     N16151  11.591   5.149   4.270 -0.3089  0.0497 -0.0719
  861MOL0     N16152  11.538   5.036   4.256 -0.6661  0.2808 -0.2496
  861MOL0     C16153  10.907   4.192   3.736 -0.6106 -0.5218  0.3482
  861MOL0     C16154  10.796   4.107   3.710 -0.6290 -0.0887 -0.2875
  861MOL0     C16155  10.463   3.792   3.735 -0.4206 -0.6553  0.1857
  861MOL0     C16156  10.502   3.678   3.670 -0.4491 -0.4679 -0.3942
  861MOL0     C16157  10.434   3.557   3.682  0.0043 -0.7446  0.6787
  861MOL0     C16158  10.302   3.558   3.742  0.5650  0.8636  0.2997
  861MOL0     O16159  10.220   3.446   3.735 -0.2471  0.0455  0.6612
  861MOL0     C16160  10.110   3.435   3.827 -1.0920 -0.8596  0.3375
  861MOL0     C16161  10.058   3.295   3.805  0.3330 -0.1139  0.7795
  861MOL0     C16162  10.004   3.251   3.940  0.5271 -0.3566 -0.5110
  861MOL0     C16163   9.946   3.098   3.948 -0.0040  0.5704  0.9097
  861MOL0     C16164   9.810   3.078   3.887 -0.3984 -0.0270  1.5057
  861MOL0     C16165   9.697   3.061   3.845  0.0386  0.7948  0.3360
  861MOL0     C16166  10.257   3.682   3.797 -0.0127 -0.4201 -0.3530
  861MOL0     C16167  10.340   3.796   3.802 -0.6106 -0.6402 -0.6551
  861MOL0     H16168  10.815   3.895   3.978 -0.7773  3.1718  3.8353
  861MOL0     H16169  11.013   4.068   4.027  1.8241  2.3119 -1.7573
  861MOL0     H16170  10.978   4.418   3.839  0.5964 -0.3076 -0.1765
  861MOL0     H16171  11.074   4.426   3.981 -0.9560 -2.3860  1.4068
  861MOL0     H16172  11.274   4.408   3.815  0.7238  2.9237  2.1589
  861MOL0     H16173  11.183   4.424   3.674  2.7584  4.1582 -0.0618
  861MOL0     H16174  11.098   4.646   3.775 -0.8412 -2.2386 -1.4335
  861MOL0     H16175  11.208   4.623   3.905 -1.3092 -2.7075  0.2935
  861MOL0     H16176  11.392   4.571   3.725  0.6859  0.5801 -2.1188
  861MOL0     H16177  11.270   4.649   3.619  1.8989 -1.8921 -1.4594
  861MOL0     H16178  11.398   4.847   3.681 -0.5177  1.0372 -0.4156
  861MOL0     H16179  11.303   4.848   3.826 -0.0333  1.5922 -1.1211
  861MOL0     H16180  11.483   4.673   3.916 -0.6948  0.1412 -0.1681
  861MOL0     H16181  11.580   4.720   3.773 -2.8978 -2.6262 -3.6283
  861MOL0     H16182  11.642   4.867   3.946 -1.2609 -0.3685  2.3714
  861MOL0     H16183  11.526   4.952   3.833 -1.6854 -1.5352 -0.8443
  861MOL0     H16184  11.479   4.815   4.109  0.0526  2.2540  1.8444
  861MOL0     H16185  11.361   4.908   4.014  1.1837  1.8850 -3.0429
  861MOL0     H16186  11.507   5.163   3.950  0.0835  0.8588 -0.2451
  861MOL0     H16187  11.660   5.385   4.250 -3.4216 -1.1008  1.5537
  861MOL0     H16188  11.717   5.360   4.073 -0.0192 -1.0121  0.3450
  861MOL0     H16189  11.446   5.461   4.174 -0.5311  1.6685 -0.5006
  861MOL0     H16190  11.492   5.415   4.019 -1.0377  1.2178 -0.4282
  861MOL0     H16191  11.525   5.653   4.033 -0.3946 -0.5534 -0.8384
  861MOL0     H16192  11.695   5.588   4.054  0.8982  1.1589  1.6549
  861MOL0     H16193  11.657   5.779   4.187  2.0006 -0.4117  0.0281
  861MOL0     H16194  11.696   5.620   4.275 -1.0391 -0.7625 -2.2162
  861MOL0     H16195  11.579   5.816   4.490  0.5869 -2.8290 -2.0923
  861MOL0     H16196  11.588   5.991   4.652 -0.9234 -0.2543  0.0505
  861MOL0     H16197  11.649   6.116   4.550  0.9180 -2.8410  1.1387
  861MOL0     H16198  11.507   6.143   4.646  2.1111  0.2134  1.3049
  861MOL0     H16199  11.421   6.422   4.682  1.7402  0.6402  0.1119
  861MOL0     H16200  11.424   6.672   4.725  0.4917  0.9639 -0.7803
  861MOL0     H16201  11.243   6.826   4.635  2.8122 -2.2040 -2.7841
  861MOL0     H16202  11.317   7.002   4.638 -0.1327  2.8573 -3.5381
  861MOL0     H16203  11.258   7.017   4.399 -0.3358 -0.9192 -1.4124
  861MOL0     H16204  11.163   6.877   4.414 -0.0276  0.9908 -2.1969
  861MOL0     H16205  11.122   7.133   4.584 -1.5317  0.5762  0.4974
  861MOL0     H16206  11.031   6.977   4.617 -0.8654 -1.4260 -2.6818
  861MOL0     H16207  10.977   6.982   4.372 -0.5150  0.4282 -1.1893
  861MOL0     H16208  10.875   7.076   4.471 -1.2903  2.6517 -3.0617
  861MOL0     H16209  11.110   7.213   4.319  0.8699  5.4034  2.9214
  861MOL0     H16210  10.999   7.291   4.417  0.0714  0.4885 -1.1150
  861MOL0     H16211  10.946   7.272   4.178 -0.5609  0.6619 -0.0102
  861MOL0     H16212  10.899   7.113   4.193  2.3167  1.5449 -2.2091
  861MOL0     H16213  10.750   7.273   4.402  2.8449 -3.3588  0.8591
  861MOL0     H16214  10.694   7.161   4.285  1.4297 -1.1417 -3.1935
  861MOL0     H16215  10.608   7.376   4.199 -0.3173 -1.2528  0.1773
  861MOL0     H16216  10.746   7.344   4.096  0.2722 -0.4678 -0.3213
  861MOL0     H16217  11.430   6.738   4.300  0.3854  1.5530  1.3107
  861MOL0     H16218  11.431   6.495   4.258 -0.4557  1.7198 -1.2400
  861MOL0     H16219  11.327   6.072   4.165 -0.4542 -0.2177 -0.5598
  861MOL0     H16220  11.350   5.814   4.138 -3.0764 -1.7208  0.4237
  861MOL0     H16221  10.930   4.271   3.665 -0.4241 -0.5564  0.3689
  861MOL0     H16222  10.733   4.142   3.630 -1.5779  0.3138  0.6152
  861MOL0     H16223  10.606   3.679   3.640  0.6707  8.2018  1.1556
  861MOL0     H16224  10.473   3.460   3.655  1.4337 -0.6941  2.3842
  861MOL0     H16225  10.150   3.468   3.923  0.6181  1.8433 -1.1697
  861MOL0     H16226  10.033   3.512   3.813  1.7588  1.9831 -0.7715
  861MOL0     H16227  10.145   3.233   3.780  1.7458  1.4807  1.5106
  861MOL0     H16228   9.980   3.306   3.729  1.5176  1.3432 -0.2970
  861MOL0     H16229   9.934   3.326   3.977  0.9940 -0.3757  0.4348
  861MOL0     H16230  10.084   3.266   4.013  0.0402  0.2849 -0.0999
  861MOL0     H16231   9.923   3.074   4.052 -0.9214  0.3744  0.6741
  861MOL0     H16232  10.011   3.021   3.904 -3.4002 -1.0438 -1.8233
  861MOL0     H16233   9.597   3.042   3.814 -0.2005  1.9281  0.3555
  861MOL0     H16234  10.153   3.706   3.819  0.3007  2.9460 -1.8977
  861MOL0     H16235  10.305   3.880   3.861 -0.8438  0.4246 -2.2328
  862MOL0     O16236   1.680   4.539   7.563  0.3680 -0.3120 -0.3901
  862MOL0     C16237   1.644   4.507   7.451 -0.3957  0.6135  0.4492
  862MOL0     O16238   1.647   4.582   7.335  0.7234 -0.3043  0.6026
  862MOL0     C16239   1.710   4.708   7.352  0.9356 -0.3548  0.6913
  862MOL0     C16240   1.818   4.741   7.272  0.7093  0.2091  0.0758
  862MOL0     C16241   1.878   4.868   7.269  0.2463 -0.0447  0.1953
  862MOL0     C16242   1.819   4.971   7.331  0.5243 -0.5707 -1.2474
  862MOL0     O16243   1.853   5.106   7.316  0.3674 -0.8529  0.3243
  862MOL0     C16244   1.773   5.179   7.218  0.0886 -0.1928 -0.5769
  862MOL0     C16245   1.861   5.301   7.173  0.0602 -0.4035  0.5019
  862MOL0     C16246   1.789   5.376   7.061  0.1348 -0.3107  0.3297
  862MOL0     C16247   1.680   5.466   7.125 -0.2498  0.3088  0.3526
  862MOL0     C16248   1.606   5.554   7.033  0.0483  0.1623 -0.5858
  862MOL0     C16249   1.552   5.473   6.913 -0.7643 -0.4620  0.4465
  862MOL0     C16250   1.436   5.554   6.830  0.3067 -0.5625 -0.0076
  862MOL0     C16251   1.426   5.494   6.691  0.3786  0.2946 -0.2483
  862MOL0     N16252   1.400   5.349   6.687  0.2549 -0.2154 -1.3211
  862MOL0     C16253   1.470   5.251   6.616 -0.0098 -1.2430 -0.0555
  862MOL0     C16254   1.386   5.153   6.620  0.5761  0.0488  0.3447
  862MOL0     C16255   1.401   5.015   6.561 -0.6007  0.4653 -0.2519
  862MOL0     C16256   1.337   4.987   6.415  0.2587 -0.6338  0.1965
  862MOL0     C16257   1.290   4.843   6.398  0.4597 -0.4259 -0.3303
  862MOL0     C16258   1.405   4.738   6.413 -0.6838 -0.5321  0.7080
  862MOL0     O16259   1.440   4.702   6.550 -0.3843 -0.0083  0.4545
  862MOL0     C16260   1.567   4.663   6.581 -1.2906  1.3112  0.4023
  862MOL0     C16261   1.614   4.690   6.711  0.3582  0.7761  0.1994
  862MOL0     C16262   1.732   4.651   6.763 -0.4813  0.3849 -0.4440
  862MOL0     C16263   1.745   4.664   6.906  0.0997  0.5107 -0.1569
  862MOL0     C16264   1.822   4.588   6.683  0.6027 -0.3189 -0.5774
  862MOL0     C16265   1.958   4.553   6.729  0.2735 -0.9100 -0.4199
  862MOL0     O16266   2.065   4.639   6.703 -0.0342 -0.0942 -0.1503
  862MOL0     C16267   2.182   4.637   6.779  0.0977  0.0296 -0.2119
  862MOL0     C16268   2.279   4.718   6.729 -0.3725  0.8773  0.1600
  862MOL0     C16269   2.407   4.728   6.796 -0.8193 -0.3406  0.6605
  862MOL0     C16270   2.437   4.665   6.920  1.2415  0.8531 -0.0928
  862MOL0     O16271   2.555   4.693   6.976 -0.0583 -0.1875  1.1098
  862MOL0     C16272   2.656   4.597   6.955 -0.4349  0.3378  0.1336
  862MOL0     C16273   2.794   4.654   7.001 -0.1539  0.5510  0.6695
  862MOL0     C16274   2.856   4.602   7.131 -0.0010  0.2175 -0.7260
  862MOL0     C16275   2.786   4.651   7.258  0.1655 -0.1333 -0.3802
  862MOL0     C16276   2.810   4.559   7.385  0.3345 -0.8072  0.6049
  862MOL0     C16277   2.714   4.600   7.492 -0.4874 -0.0137  0.1221
  862MOL0     C16278   2.724   4.530   7.624  0.0004  1.6418  0.3535
  862MOL0     C16279   2.618   4.579   7.726  0.8793  0.0581  0.4115
  862MOL0    Cl16280   2.456   4.490   7.705  0.3773 -0.4264 -0.7255
  862MOL0     C16281   2.328   4.581   6.968 -0.5384  0.9456  0.5161
  862MOL0     C16282   2.205   4.569   6.907  0.2071 -0.5054  0.7427
  862MOL0     O16283   1.962   4.439   6.775 -0.3460  0.1749  0.4031
  862MOL0     C16284   1.792   4.568   6.550 -0.6836  0.5379 -0.0432
  862MOL0     C16285   1.666   4.602   6.494  0.7107 -0.3660 -0.7101
  862MOL0     N16286   1.271   5.178   6.682  0.2137  0.3313 -0.5648
  862MOL0     N16287   1.276   5.300   6.726 -0.1072 -0.0717  0.3986
  862MOL0     C16288   1.701   4.948   7.399  0.2131 -0.0587 -0.3025
  862MOL0     C16289   1.649   4.814   7.417 -0.6720  0.6914  0.3783
  862MOL0     C16290   1.581   4.373   7.431  0.3015  0.1307 -1.0375
  862MOL0     C16291   1.529   4.333   7.307 -0.3759 -0.2129 -1.3156
  862MOL0     C16292   1.487   4.202   7.295 -0.0518  0.0075 -0.4505
  862MOL0     C16293   1.490   4.106   7.392 -0.1382 -0.3859  0.6498
  862MOL0     O16294   1.449   3.975   7.361 -0.3767  0.3274 -0.7534
  862MOL0     C16295   1.493   3.859   7.428 -0.0521 -0.1244  0.5626
  862MOL0     C16296   1.615   3.812   7.366  0.4573 -0.4720  0.2838
  862MOL0     C16297   1.677   3.708   7.455  0.0450 -0.9339  0.3422
  862MOL0     C16298   1.814   3.655   7.409  0.3425  0.1234 -0.3195
  862MOL0     C16299   1.924   3.741   7.411 -0.1078 -1.2375 -0.1434
  862MOL0     C16300   1.997   3.838   7.426 -0.7528  0.0292  0.2354
  862MOL0     C16301   1.546   4.148   7.522 -0.0943 -1.0225  0.1212
  862MOL0     C16302   1.590   4.278   7.531  0.3001  0.5268 -0.1261
  862MOL0     H16303   1.861   4.665   7.208  0.5306  1.5778 -1.7333
  862MOL0     H16304   1.976   4.867   7.222  1.0771  0.5763  1.8134
  862MOL0     H16305   1.755   5.114   7.132 -1.0807 -0.3943 -0.2037
  862MOL0     H16306   1.677   5.205   7.265  0.0846 -0.8463 -0.2200
  862MOL0     H16307   1.877   5.365   7.260 -3.1032  2.0685 -0.5371
  862MOL0     H16308   1.954   5.257   7.135 -0.0824 -1.9747  1.8753
  862MOL0     H16309   1.845   5.454   7.010 -3.6228  3.1613  1.0469
  862MOL0     H16310   1.750   5.307   6.986  2.1685 -0.3555 -0.7649
  862MOL0     H16311   1.602   5.405   7.172 -1.7754 -0.7485 -3.2380
  862MOL0     H16312   1.736   5.517   7.204  1.0694  0.1601 -0.4430
  862MOL0     H16313   1.518   5.600   7.080  0.6855 -0.7220  1.5689
  862MOL0     H16314   1.671   5.636   7.000  3.2030 -0.3158  3.5507
  862MOL0     H16315   1.641   5.472   6.850 -0.3942  2.1506  0.8297
  862MOL0     H16316   1.517   5.372   6.939  2.0121 -1.7237 -0.3219
  862MOL0     H16317   1.343   5.546   6.886  0.3705  1.1192  0.3995
  862MOL0     H16318   1.461   5.660   6.824  1.7145 -0.9621 -2.6418
  862MOL0     H16319   1.525   5.503   6.645 -0.4039 -1.2199 -2.4125
  862MOL0     H16320   1.348   5.542   6.632  0.6687 -0.5111 -1.3271
  862MOL0     H16321   1.566   5.257   6.565 -1.1320  0.8778 -2.0999
  862MOL0     H16322   1.508   4.992   6.568 -1.1618 -2.0162  1.5851
  862MOL0     H16323   1.340   4.953   6.628  1.1477 -0.7378  0.3014
  862MOL0     H16324   1.407   5.009   6.334 -0.0295  2.4088  0.6600
  862MOL0     H16325   1.250   5.054   6.407 -2.3643 -3.8556 -0.5323
  862MOL0     H16326   1.256   4.851   6.294 -2.8953 -0.0741  0.6996
  862MOL0     H16327   1.205   4.819   6.462 -0.1935  5.1902  1.4875
  862MOL0     H16328   1.494   4.772   6.359  0.2093  0.0240  2.4619
  862MOL0     H16329   1.367   4.648   6.364 -2.3364 -0.1370  1.1915
  862MOL0     H16330   1.551   4.746   6.780  1.5235 -1.5132  3.3357
  862MOL0     H16331   1.657   4.713   6.951  1.5473  3.0723  0.0912
  862MOL0     H16332   1.770   4.569   6.955  2.1598  0.7255 -0.7036
  862MOL0     H16333   1.844   4.709   6.918  1.9814 -2.9986 -1.2027
  862MOL0     H16334   2.262   4.766   6.633 -4.4055 -2.2134 -0.9710
  862MOL0     H16335   2.480   4.794   6.750  0.0261  2.5693  5.5507
  862MOL0     H16336   2.633   4.505   7.010  0.1503 -2.4887 -3.9432
  862MOL0     H16337   2.672   4.588   6.847 -2.8705  4.3594 -0.7860
  862MOL0     H16338   2.860   4.604   6.929 -2.0820 -4.1306  1.8055
  862MOL0     H16339   2.794   4.761   6.979 -1.2089  0.2133 -1.1856
  862MOL0     H16340   2.964   4.619   7.127  0.2412  0.1032  2.4638
  862MOL0     H16341   2.839   4.494   7.130 -4.0288  0.5697  2.5215
  862MOL0     H16342   2.807   4.755   7.286 -0.1769 -0.5370  1.5529
  862MOL0     H16343   2.677   4.649   7.245 -0.1684 -1.8915  1.8824
  862MOL0     H16344   2.915   4.569   7.415  0.8467 -0.1292 -1.2996
  862MOL0     H16345   2.805   4.450   7.372  3.3321 -1.1813  1.6856
  862MOL0     H16346   2.735   4.705   7.513  0.9331 -0.1576 -0.4565
  862MOL0     H16347   2.612   4.580   7.456 -1.0467  1.3486  0.8981
  862MOL0     H16348   2.818   4.565   7.668  0.0121  2.2378 -0.1272
  862MOL0     H16349   2.728   4.422   7.606  0.8287  1.7766 -0.3304
  862MOL0     H16350   2.611   4.688   7.726 -0.8244 -0.0213 -0.5177
  862MOL0     H16351   2.655   4.550   7.825  2.2181  1.3597  0.3320
  862MOL0     H16352   2.340   4.512   7.050  0.1335  0.3856 -0.0306
  862MOL0     H16353   2.139   4.493   6.946 -0.4518  0.7272  2.1069
  862MOL0     H16354   1.869   4.521   6.490 -1.2821 -3.1137  1.7510
  862MOL0     H16355   1.648   4.590   6.388  0.9715  1.4538 -0.9891
  862MOL0     H16356   1.631   5.021   7.437  2.1344  1.4653  0.5370
  862MOL0     H16357   1.557   4.794   7.471 -0.0544 -0.5954  1.0114
  862MOL0     H16358   1.516   4.398   7.221  1.3771 -0.5238 -1.8594
  862MOL0     H16359   1.449   4.163   7.201 -1.0984 -1.6969  0.6310
  862MOL0     H16360   1.511   3.897   7.530  1.8573  5.4451 -1.4690
  862MOL0     H16361   1.421   3.777   7.425  2.4394 -2.6420  3.0049
  862MOL0     H16362   1.684   3.897   7.362 -1.1248  0.8681  0.3851
  862MOL0     H16363   1.594   3.774   7.266  2.6505  1.3183 -0.9603
  862MOL0     H16364   1.602   3.631   7.479 -2.7357  1.4155 -0.2342
  862MOL0     H16365   1.701   3.754   7.551  0.4829 -5.2145  2.5164
  862MOL0     H16366   1.818   3.605   7.312 -1.7137  0.6027 -0.6924
  862MOL0     H16367   1.837   3.589   7.494 -0.0961  1.6706  1.0498
  862MOL0     H16368   2.055   3.928   7.416 -1.1903  0.1780 -1.0958
  862MOL0     H16369   1.532   4.080   7.605  0.1371 -0.3680  0.7017
  862MOL0     H16370   1.629   4.303   7.629  0.2956 -1.0520  0.3068
  863MOL0     O16371   6.149   8.378   9.388 -0.3553  0.8524  0.7655
  863MOL0     C16372   6.139   8.391   9.263 -0.2755  0.0727 -0.4409
  863MOL0     O16373   6.052   8.481   9.200 -0.7767  0.0408 -0.0553
  863MOL0     C16374   5.917   8.473   9.233 -0.4301 -0.5447 -0.0560
  863MOL0     C16375   5.842   8.596   9.215 -1.1204  0.1441  0.8559
  863MOL0     C16376   5.714   8.595   9.265  0.3516 -0.1549  0.6859
  863MOL0     C16377   5.655   8.482   9.317  0.0059 -0.2921  0.5240
  863MOL0     O16378   5.526   8.504   9.367 -0.0080 -0.3484  0.8715
  863MOL0     C16379   5.457   8.389   9.399  1.1848 -0.2975 -0.0903
  863MOL0     C16380   5.324   8.433   9.466  0.3395  0.0039 -0.0234
  863MOL0     C16381   5.192   8.406   9.386 -0.7838  0.0891 -0.5452
  863MOL0     C16382   5.079   8.508   9.399  0.2265  0.8004 -0.5911
  863MOL0     C16383   5.021   8.493   9.537  0.7148  0.5629  0.3885
  863MOL0     C16384   4.922   8.615   9.549  0.1286  0.1327  0.2633
  863MOL0     C16385   4.790   8.608   9.463  0.0218  0.2856  0.8226
  863MOL0     C16386   4.719   8.476   9.502  0.8348  0.3607 -0.7380
  863MOL0     N16387   4.699   8.397   9.380 -0.0882 -0.9660 -0.0989
  863MOL0     C16388   4.578   8.375   9.317  0.0115 -0.2541 -0.5527
  863MOL0     C16389   4.605   8.316   9.207  0.3288  0.7674 -0.3264
  863MOL0     C16390   4.495   8.287   9.097 -0.5741  0.4123 -0.0383
  863MOL0     C16391   4.360   8.243   9.155  0.2534 -0.4908 -0.2957
  863MOL0     C16392   4.358   8.123   9.258  0.1692  0.1766 -0.2244
  863MOL0     C16393   4.218   8.070   9.259  0.7064  0.3065  0.0306
  863MOL0     O16394   4.201   7.945   9.332  0.2443  0.6112  0.3075
  863MOL0     C16395   4.077   7.884   9.331  0.6793  0.2478  0.5254
  863MOL0     C16396   3.960   7.960   9.298  0.1217  0.6575  0.7598
  863MOL0     C16397   3.830   7.905   9.282  0.0216  1.6119  0.0123
  863MOL0     C16398   3.708   7.999   9.259 -0.5466 -0.3988 -0.5694
  863MOL0     C16399   3.822   7.765   9.294  0.7268  0.5014 -0.5907
  863MOL0     C16400   3.689   7.696   9.293  0.9271 -1.0502  0.5480
  863MOL0     O16401   3.681   7.603   9.390  0.8746  0.3795  0.8562
  863MOL0     C16402   3.566   7.528   9.425  0.5518  0.5420  0.1005
  863MOL0     C16403   3.581   7.397   9.472  0.3233  0.1566 -0.0019
  863MOL0     C16404   3.466   7.328   9.502  0.0787 -0.3024 -0.4089
  863MOL0     C16405   3.341   7.382   9.491  0.2730  0.1400 -0.3246
  863MOL0     O16406   3.230   7.309   9.523  0.0867 -0.4776  0.1302
  863MOL0     C16407   3.216   7.280   9.664 -0.7311 -0.2721 -1.1664
  863MOL0     C16408   3.061   7.264   9.698  0.1355 -0.9849 -0.8940
  863MOL0     C16409   3.003   7.142   9.635  0.2751 -0.7442  0.1387
  863MOL0     C16410   2.867   7.120   9.689 -0.6706 -1.0412 -0.2012
  863MOL0     C16411   2.827   6.973   9.684  0.3805  0.9102 -0.1884
  863MOL0     C16412   2.676   6.936   9.707 -0.3209 -0.0859 -0.3462
  863MOL0     C16413   2.628   6.895   9.570  0.2199 -1.4884  1.1173
  863MOL0     C16414   2.635   6.987   9.451 -0.5742  0.2025  0.5416
  863MOL0    Cl16415   2.517   6.927   9.336  0.6626  0.0010 -0.2447
  863MOL0     C16416   3.330   7.517   9.453  1.1990  0.4784 -0.0710
  863MOL0     C16417   3.442   7.591   9.424  0.2526  0.1301  0.2764
  863MOL0     O16418   3.601   7.711   9.205 -0.2200 -0.1197 -0.8482
  863MOL0     C16419   3.939   7.683   9.323 -0.7830  0.0274 -0.0524
  863MOL0     C16420   4.067   7.749   9.352  0.3548 -0.2608 -0.2802
  863MOL0     N16421   4.740   8.293   9.199 -0.5455  0.6964 -0.6308
  863MOL0     N16422   4.797   8.336   9.310 -0.2388 -0.6756  0.2052
  863MOL0     C16423   5.728   8.354   9.319 -0.1263 -0.5497 -0.9052
  863MOL0     C16424   5.859   8.351   9.277 -0.2918 -0.7864  0.8096
  863MOL0     C16425   6.253   8.346   9.171 -0.4997  0.2695 -0.2490
  863MOL0     C16426   6.383   8.295   9.223  0.8315 -0.4717 -0.4451
  863MOL0     C16427   6.477   8.248   9.126  0.6888  0.4068  0.2257
  863MOL0     C16428   6.468   8.263   8.995  0.8078  0.8419 -1.3204
  863MOL0     O16429   6.572   8.235   8.904  0.0544  0.5039  0.5752
  863MOL0     C16430   6.683   8.318   8.932 -0.1350 -0.1343  0.5422
  863MOL0     C16431   6.809   8.242   8.885  0.4408  0.6545 -0.2387
  863MOL0     C16432   6.931   8.326   8.920  0.7845  0.0976 -0.2134
  863MOL0     C16433   7.045   8.323   8.810 -0.9403  0.4467  0.5726
  863MOL0     C16434   7.084   8.189   8.770  0.3643 -0.0773  0.5365
  863MOL0     C16435   7.129   8.077   8.764  0.9473  0.7095  0.3946
  863MOL0     C16436   6.358   8.327   8.942 -0.1372 -0.4798 -0.4948
  863MOL0     C16437   6.256   8.355   9.032 -0.6332 -1.0195  0.9283
  863MOL0     H16438   5.892   8.681   9.168 -2.5466 -0.5604 -2.1346
  863MOL0     H16439   5.646   8.680   9.267  0.2689 -0.2200  2.4736
  863MOL0     H16440   5.447   8.325   9.311  0.8095  1.2272 -1.1997
  863MOL0     H16441   5.512   8.332   9.476  0.5866 -1.8272 -0.7604
  863MOL0     H16442   5.317   8.396   9.569  3.9424 -1.6640 -0.2209
  863MOL0     H16443   5.326   8.542   9.477 -1.1833  0.1638 -0.9860
  863MOL0     H16444   5.214   8.387   9.281 -0.7765  1.8219 -0.8853
  863MOL0     H16445   5.157   8.308   9.421 -0.1124 -0.3975 -1.2082
  863MOL0     H16446   5.124   8.607   9.390  0.9445  0.5483  0.1172
  863MOL0     H16447   4.996   8.494   9.329 -1.5725  2.4260  1.0741
  863MOL0     H16448   4.961   8.403   9.551  1.6535  0.0497  1.1515
  863MOL0     H16449   5.105   8.487   9.607  0.9688  0.1512  0.0464
  863MOL0     H16450   4.893   8.632   9.653 -0.8533 -1.0233  0.1945
  863MOL0     H16451   4.970   8.710   9.523 -1.2883  0.9236  0.3853
  863MOL0     H16452   4.723   8.689   9.493  1.2161  1.9060 -0.6712
  863MOL0     H16453   4.807   8.623   9.356 -2.8864  5.2652  0.7383
  863MOL0     H16454   4.629   8.508   9.556  2.5617  1.9612  1.4140
  863MOL0     H16455   4.772   8.410   9.572 -2.4418 -1.9861 -0.2552
  863MOL0     H16456   4.478   8.400   9.349  1.2660  1.9673  2.0812
  863MOL0     H16457   4.483   8.369   9.027 -3.8930 -0.1915 -0.3511
  863MOL0     H16458   4.536   8.203   9.040  1.5439 -1.8861  4.3715
  863MOL0     H16459   4.302   8.217   9.066 -0.8762  2.3796 -0.5054
  863MOL0     H16460   4.318   8.330   9.206  0.1009 -0.8557  0.2038
  863MOL0     H16461   4.389   8.167   9.353 -1.6711 -2.9881  2.0196
  863MOL0     H16462   4.422   8.039   9.229  1.6833  0.0782  2.9021
  863MOL0     H16463   4.181   8.063   9.157  0.3736 -0.3186  0.1924
  863MOL0     H16464   4.162   8.134   9.328  1.6355 -1.3813  2.5184
  863MOL0     H16465   3.970   8.067   9.279  0.0597  0.7113  1.0354
  863MOL0     H16466   3.750   8.100   9.268 -1.4387 -0.1462  1.2182
  863MOL0     H16467   3.653   7.988   9.165 -1.2274  0.4535 -0.2922
  863MOL0     H16468   3.632   7.998   9.337 -1.7190  2.1653 -1.5492
  863MOL0     H16469   3.679   7.350   9.465  1.0733  1.7877 -1.5119
  863MOL0     H16470   3.467   7.223   9.529  2.5367 -0.8765 -2.3590
  863MOL0     H16471   3.284   7.195   9.670 -0.2369  0.0175 -2.3091
  863MOL0     H16472   3.255   7.365   9.720  0.4190 -0.3761 -1.7710
  863MOL0     H16473   3.037   7.254   9.804  3.2915 -1.6418 -0.1313
  863MOL0     H16474   3.010   7.357   9.672 -4.3867 -2.6189  1.0537
  863MOL0     H16475   3.076   7.061   9.650 -2.4220 -3.3624 -0.0619
  863MOL0     H16476   2.982   7.142   9.527 -3.5518 -1.9394  0.7580
  863MOL0     H16477   2.856   7.149   9.794 -1.0254 -3.7749  0.6017
  863MOL0     H16478   2.808   7.191   9.631  1.2374  0.8491  0.0431
  863MOL0     H16479   2.888   6.928   9.763  0.6571 -2.4411 -2.1200
  863MOL0     H16480   2.866   6.943   9.586  0.2835 -0.6418  0.2110
  863MOL0     H16481   2.666   6.856   9.781  1.1447 -0.1653 -0.2100
  863MOL0     H16482   2.618   7.022   9.742  0.7871  0.8532 -0.7551
  863MOL0     H16483   2.520   6.880   9.579 -0.5355  2.5501  0.7404
  863MOL0     H16484   2.669   6.796   9.546  0.5944 -1.1999  0.5562
  863MOL0     H16485   2.736   6.985   9.408 -1.0031  2.6315 -0.7608
  863MOL0     H16486   2.603   7.089   9.474 -0.0739  0.4886  0.0002
  863MOL0     H16487   3.230   7.558   9.470  1.2528 -0.2067  2.1668
  863MOL0     H16488   3.439   7.697   9.398 -0.6443  0.1294  0.3453
  863MOL0     H16489   3.944   7.575   9.328  0.3660  0.1144  2.1097
  863MOL0     H16490   4.158   7.705   9.392  1.8438  0.6191 -2.5353
  863MOL0     H16491   5.691   8.267   9.373  1.6058  0.3257  1.8659
  863MOL0     H16492   5.916   8.260   9.293 -0.9200 -1.2766  0.3188
  863MOL0     H16493   6.407   8.276   9.327 -2.9946 -1.1257  0.4668
  863MOL0     H16494   6.569   8.198   9.156 -0.4064 -0.7331  1.8056
  863MOL0     H16495   6.673   8.418   8.890 -1.7947  1.3877  4.1531
  863MOL0     H16496   6.694   8.329   9.041  0.1856  2.3608  0.3172
  863MOL0     H16497   6.801   8.234   8.776 -1.3555  1.9050 -0.2299
  863MOL0     H16498   6.818   8.140   8.923 -1.4323 -0.5031 -2.6390
  863MOL0     H16499   6.983   8.299   9.013 -0.0515  1.4568  0.6817
  863MOL0     H16500   6.891   8.427   8.933  0.5616 -0.2740  2.8488
  863MOL0     H16501   7.140   8.361   8.848 -2.1136  1.8529  2.2960
  863MOL0     H16502   7.025   8.371   8.714  1.8344 -0.6562 -0.6490
  863MOL0     H16503   7.160   7.976   8.748 -2.9864 -0.3628 -1.7645
  863MOL0     H16504   6.350   8.345   8.835  1.9823 -1.6235 -0.9066
  863MOL0     H16505   6.168   8.414   9.008  2.5334  4.1781  0.6426
  864MOL0     O16506   9.967   3.785   7.066  0.6717  0.5250 -0.5045
  864MOL0     C16507   9.870   3.718   7.062  0.9788  0.0541  0.5681
  864MOL0     O16508   9.860   3.583   7.077 -0.4620 -0.5305 -0.0188
  864MOL0     C16509   9.964   3.497   7.116  0.1812 -1.0250 -0.8603
  864MOL0     C16510   9.913   3.390   7.190 -0.3505  0.8960 -0.4894
  864MOL0     C16511   9.999   3.294   7.241  0.9237  0.8710 -0.1168
  864MOL0     C16512  10.134   3.293   7.203 -0.5282  0.5143 -0.0786
  864MOL0     O16513  10.206   3.182   7.237  0.9790 -0.3535  0.4036
  864MOL0     C16514  10.331   3.165   7.178  0.3553 -0.1307 -0.0537
  864MOL0     C16515  10.387   3.033   7.208  0.3611  0.3567  0.3046
  864MOL0     C16516  10.517   3.003   7.135 -0.6416 -0.5908 -0.4787
  864MOL0     C16517  10.621   2.955   7.234  0.3617 -0.4654  0.1206
  864MOL0     C16518  10.758   2.915   7.173 -0.1872 -0.0799 -1.1629
  864MOL0     C16519  10.767   2.817   7.055  0.0841  0.6668  0.1945
  864MOL0     C16520  10.696   2.687   7.098 -0.6313 -0.7163  0.4050
  864MOL0     C16521  10.730   2.582   7.000  0.0462 -0.4996  0.2176
  864MOL0     N16522  10.708   2.618   6.854  0.7313 -0.3551  0.3132
  864MOL0     C16523  10.620   2.707   6.814 -0.2088  0.7965  0.4072
  864MOL0     C16524  10.658   2.736   6.684 -0.5102 -0.2229  0.3951
  864MOL0     C16525  10.605   2.854   6.612 -0.2626  0.7656 -0.5166
  864MOL0     C16526  10.486   2.822   6.523  0.1937 -0.3328 -1.0779
  864MOL0     C16527  10.420   2.954   6.460  0.6092  0.0564 -0.8510
  864MOL0     C16528  10.274   2.925   6.432 -0.4658 -0.8889 -0.5117
  864MOL0     O16529  10.226   3.058   6.402  0.5604  0.4979 -0.4816
  864MOL0     C16530  10.095   3.080   6.426  0.2456  1.0235 -1.2422
  864MOL0     C16531  10.000   3.003   6.494  0.3837  0.0909 -0.1631
  864MOL0     C16532   9.865   3.041   6.518  0.9295  0.5084 -0.2485
  864MOL0     C16533   9.775   2.939   6.588 -0.0804 -0.3700  0.4700
  864MOL0     C16534   9.820   3.161   6.473 -0.0586 -0.8088 -0.8885
  864MOL0     C16535   9.684   3.216   6.488  0.7286  0.5284 -0.5176
  864MOL0     O16536   9.656   3.339   6.438  0.0039 -0.1645  0.6081
  864MOL0     C16537   9.539   3.398   6.482  0.9155 -0.2548 -0.2055
  864MOL0     C16538   9.428   3.385   6.401  0.0904  0.4873  0.4033
  864MOL0     C16539   9.313   3.462   6.421 -0.3108  0.7587 -0.2711
  864MOL0     C16540   9.308   3.557   6.528 -0.9850  1.1094 -0.7031
  864MOL0     O16541   9.202   3.638   6.545 -0.0457  0.1302 -0.0945
  864MOL0     C16542   9.070   3.599   6.499 -0.8447 -0.9383  0.3161
  864MOL0     C16543   9.044   3.710   6.387 -0.0369  0.6906  0.8835
  864MOL0     C16544   8.894   3.717   6.367  0.9100  0.4673 -1.0105
  864MOL0     C16545   8.861   3.788   6.235 -0.6445 -0.5532 -0.6829
  864MOL0     C16546   8.719   3.773   6.195  0.4098  0.9852 -0.0063
  864MOL0     C16547   8.664   3.870   6.078 -0.7470 -0.4697 -0.4022
  864MOL0     C16548   8.515   3.849   6.040  0.2643 -0.1366 -0.1301
  864MOL0     C16549   8.502   3.749   5.919 -0.7332  0.5142  0.1728
  864MOL0    Cl16550   8.528   3.582   5.979 -0.1915  0.2653  0.1273
  864MOL0     C16551   9.428   3.572   6.610 -0.6811  0.3018 -0.0612
  864MOL0     C16552   9.541   3.486   6.586 -0.6657  0.1522  0.7134
  864MOL0     O16553   9.600   3.154   6.551  0.0016 -0.8826 -0.3416
  864MOL0     C16554   9.919   3.241   6.422 -0.3330  0.1674 -0.1352
  864MOL0     C16555  10.051   3.205   6.391 -0.3479 -0.2863 -0.3005
  864MOL0     N16556  10.775   2.666   6.643  0.3006 -0.3846 -0.8105
  864MOL0     N16557  10.810   2.606   6.760 -1.2311  0.3221  0.0814
  864MOL0     C16558  10.187   3.401   7.138  0.1692 -0.9392  0.1095
  864MOL0     C16559  10.102   3.506   7.093  0.7055 -0.3912 -0.2153
  864MOL0     C16560   9.746   3.792   7.032 -0.6956  0.2509  0.3746
  864MOL0     C16561   9.632   3.721   6.999  0.2933  0.1395 -0.5933
  864MOL0     C16562   9.510   3.774   6.970  0.4588 -0.3852  0.2611
  864MOL0     C16563   9.500   3.917   6.973 -0.1632 -0.6231  0.1404
  864MOL0     O16564   9.379   3.994   6.964 -0.4947 -0.1629 -0.2440
  864MOL0     C16565   9.251   3.948   7.016 -1.5107  0.0257 -0.2923
  864MOL0     C16566   9.217   3.989   7.161  0.1698  0.1087 -0.5005
  864MOL0     C16567   9.199   4.147   7.151 -0.6761  0.1800  0.0941
  864MOL0     C16568   9.148   4.212   7.284  0.4222  0.9798  0.0783
  864MOL0     C16569   9.035   4.131   7.331 -0.0006  0.5206 -0.8926
  864MOL0     C16570   8.945   4.065   7.389  0.7404 -0.7063  0.4630
  864MOL0     C16571   9.617   3.991   7.001  0.0575 -0.0077 -0.4033
  864MOL0     C16572   9.738   3.932   7.022 -0.5190 -0.4734  0.8109
  864MOL0     H16573   9.811   3.365   7.218 -0.0553 -0.4156 -0.5195
  864MOL0     H16574   9.958   3.212   7.300  0.3352  0.3787 -1.1954
  864MOL0     H16575  10.315   3.180   7.071 -1.8046  1.5630  0.4297
  864MOL0     H16576  10.404   3.244   7.201  3.5366 -2.6506 -0.7767
  864MOL0     H16577  10.400   3.040   7.316  3.0857  1.5598 -0.0268
  864MOL0     H16578  10.307   2.960   7.187 -0.4842  1.5548 -0.7660
  864MOL0     H16579  10.506   2.923   7.062  0.8506 -0.5206 -0.7940
  864MOL0     H16580  10.554   3.095   7.089  1.4953 -0.8157  0.6927
  864MOL0     H16581  10.629   3.029   7.313 -1.2297 -0.2705  0.1301
  864MOL0     H16582  10.582   2.876   7.299 -0.2062  1.2013  1.8725
  864MOL0     H16583  10.810   3.009   7.152  1.3791  0.2960  3.4300
  864MOL0     H16584  10.811   2.862   7.252  0.9176 -2.2429 -3.2268
  864MOL0     H16585  10.713   2.871   6.977 -0.9650  0.4322  0.7431
  864MOL0     H16586  10.865   2.785   7.018 -0.7789  0.4375 -2.0352
  864MOL0     H16587  10.742   2.654   7.192  0.5278  1.4235  0.6490
  864MOL0     H16588  10.588   2.698   7.113 -0.4192 -0.6271  1.9733
  864MOL0     H16589  10.656   2.504   7.021 -0.2964  0.3545  2.4851
  864MOL0     H16590  10.828   2.540   7.020  0.9276  1.0361 -0.6867
  864MOL0     H16591  10.533   2.742   6.869 -0.1228 -1.3036  2.0142
  864MOL0     H16592  10.578   2.925   6.690  0.9472  2.7759 -1.8508
  864MOL0     H16593  10.684   2.904   6.555  2.4230 -1.8738  0.5997
  864MOL0     H16594  10.413   2.782   6.594  1.6522 -1.8608 -0.3637
  864MOL0     H16595  10.504   2.740   6.453 -2.5220 -1.9274 -0.0696
  864MOL0     H16596  10.468   2.997   6.371  1.3645  0.6627 -0.1614
  864MOL0     H16597  10.428   3.037   6.531 -1.3472 -1.8856  1.8282
  864MOL0     H16598  10.229   2.890   6.525 -0.2543 -1.0910 -0.4838
  864MOL0     H16599  10.266   2.848   6.355 -1.3019 -0.0127 -1.3267
  864MOL0     H16600  10.021   2.899   6.518  0.1796 -0.2799 -1.4941
  864MOL0     H16601   9.684   2.929   6.527  1.2988  1.6606 -2.1468
  864MOL0     H16602   9.815   2.837   6.595 -0.5274 -0.7332 -1.4464
  864MOL0     H16603   9.763   2.968   6.692 -0.2676 -1.8123  0.8680
  864MOL0     H16604   9.432   3.317   6.316 -0.5858  1.0954 -0.1252
  864MOL0     H16605   9.236   3.448   6.346 -0.3971  0.4886 -0.1304
  864MOL0     H16606   9.048   3.498   6.463  0.4070 -0.6906 -1.2714
  864MOL0     H16607   9.002   3.620   6.582 -0.3887 -2.7689  1.2048
  864MOL0     H16608   9.083   3.807   6.420 -0.6205  2.0064 -2.0306
  864MOL0     H16609   9.094   3.680   6.295 -0.7505  0.1880  0.6490
  864MOL0     H16610   8.846   3.754   6.458  3.0285 -1.0957  0.8650
  864MOL0     H16611   8.850   3.618   6.353  0.5901  0.3919  0.3957
  864MOL0     H16612   8.875   3.897   6.242 -0.9825 -0.3011 -3.0485
  864MOL0     H16613   8.931   3.757   6.157  2.5033  2.8996  0.4728
  864MOL0     H16614   8.654   3.790   6.281  1.5590  1.4090  0.8011
  864MOL0     H16615   8.705   3.673   6.153 -0.3003  1.2948 -0.5120
  864MOL0     H16616   8.673   3.966   6.129 -1.1092  0.2776 -1.7091
  864MOL0     H16617   8.736   3.870   5.995 -1.8863  1.0246 -1.4272
  864MOL0     H16618   8.476   3.946   6.009 -2.8193 -1.3802 -0.5823
  864MOL0     H16619   8.460   3.821   6.130 -0.3592 -0.2535 -0.5381
  864MOL0     H16620   8.576   3.769   5.840 -1.4801  2.8818  0.0049
  864MOL0     H16621   8.407   3.758   5.866 -0.5824 -0.4443 -0.2827
  864MOL0     H16622   9.419   3.656   6.678 -0.9829  1.0334 -0.9918
  864MOL0     H16623   9.636   3.492   6.637 -1.0890  3.4126  1.2946
  864MOL0     H16624   9.891   3.343   6.399  1.4479  0.7246  0.0473
  864MOL0     H16625  10.107   3.284   6.340  1.3925 -1.3779 -0.1740
  864MOL0     H16626  10.285   3.430   7.101  0.4247 -1.3575  0.4518
  864MOL0     H16627  10.148   3.595   7.053  0.6958  1.1128  2.8169
  864MOL0     H16628   9.648   3.616   6.978 -0.2708  0.0060 -0.3644
  864MOL0     H16629   9.428   3.715   6.933  1.2964  0.4631 -3.2975
  864MOL0     H16630   9.167   3.988   6.959 -3.5504  0.4007  2.7191
  864MOL0     H16631   9.248   3.838   7.012 -3.2267  0.0638 -0.7781
  864MOL0     H16632   9.298   3.975   7.234 -0.2358  2.5999  0.5054
  864MOL0     H16633   9.123   3.938   7.183  0.9614 -2.2152 -2.0928
  864MOL0     H16634   9.131   4.167   7.067 -1.6482  0.2886  0.8856
  864MOL0     H16635   9.296   4.194   7.134 -0.7877  1.0284  1.6679
  864MOL0     H16636   9.107   4.313   7.271 -0.3352  0.5555 -1.0908
  864MOL0     H16637   9.226   4.213   7.360  0.7392 -2.1248 -0.0568
  864MOL0     H16638   8.876   4.004   7.444  4.9075 -2.5514  4.2412
  864MOL0     H16639   9.611   4.099   7.006  0.5564  0.2355 -3.2301
  864MOL0     H16640   9.812   4.011   7.027 -1.5119  0.8709 -2.6168
  865MOL0     O16641   2.114   8.390   6.594  0.5668 -0.2364  0.0423
  865MOL0     C16642   2.202   8.424   6.515  0.5435 -0.6523 -0.6949
  865MOL0     O16643   2.206   8.541   6.451  0.4342  0.7821 -0.3227
  865MOL0     C16644   2.106   8.629   6.473  0.5528 -0.3342 -0.2922
  865MOL0     C16645   2.103   8.727   6.577  0.1885  0.7569  0.3680
  865MOL0     C16646   1.998   8.819   6.590 -0.9963 -0.5107 -0.8416
  865MOL0     C16647   1.904   8.834   6.493 -0.1397  0.0666 -0.1204
  865MOL0     O16648   1.820   8.940   6.516 -0.1891 -0.2892  0.0707
  865MOL0     C16649   1.747   9.003   6.410 -0.2998 -0.3500 -0.6096
  865MOL0     C16650   1.754   9.153   6.442 -0.5145 -0.4793  0.4632
  865MOL0     C16651   1.897   9.212   6.433  0.0792  0.3494  1.1233
  865MOL0     C16652   1.898   9.349   6.505  0.5406 -0.7678 -0.1061
  865MOL0     C16653   1.909   9.343   6.664 -0.2005 -0.9255  0.5546
  865MOL0     C16654   2.025   9.278   6.721  0.5283  0.1269 -0.2346
  865MOL0     C16655   2.010   9.246   6.871  0.6609  0.2659 -0.8478
  865MOL0     C16656   1.882   9.169   6.918 -0.3761 -0.7336 -0.5017
  865MOL0     N16657   1.929   9.093   7.034 -0.4202  0.1659 -0.9150
  865MOL0     C16658   1.936   9.142   7.170  0.5837  0.3693  0.4351
  865MOL0     C16659   1.949   9.032   7.239 -1.1220 -0.4835 -0.3136
  865MOL0     C16660   1.942   9.022   7.390 -0.2016 -0.7382 -0.4245
  865MOL0     C16661   2.073   9.066   7.464 -0.2532  0.7904 -0.3493
  865MOL0     C16662   2.202   9.016   7.399  0.7363 -0.1281  0.4416
  865MOL0     C16663   2.224   8.867   7.394 -0.0586  0.7329 -0.6697
  865MOL0     O16664   2.210   8.802   7.517  0.3788  0.2823 -0.7683
  865MOL0     C16665   2.244   8.669   7.537 -0.3098 -0.3909  0.0055
  865MOL0     C16666   2.289   8.588   7.435  0.4977  0.3278 -0.5451
  865MOL0     C16667   2.316   8.456   7.463  0.6645 -1.4467 -0.2576
  865MOL0     C16668   2.373   8.378   7.348  0.4998  0.4191 -0.1254
  865MOL0     C16669   2.286   8.402   7.599 -0.6630 -1.0396  0.2653
  865MOL0     C16670   2.306   8.260   7.630  1.3716  0.0405  0.7772
  865MOL0     O16671   2.250   8.207   7.753  1.0677  0.6316 -0.5621
  865MOL0     C16672   2.291   8.088   7.792 -0.4099 -0.7134  0.3775
  865MOL0     C16673   2.251   7.972   7.731 -0.3611 -0.7895  0.0119
  865MOL0     C16674   2.277   7.852   7.800  0.1817 -0.3213  0.7041
  865MOL0     C16675   2.335   7.849   7.933 -0.0368  0.2882  1.1138
  865MOL0     O16676   2.363   7.731   7.992 -0.5028 -0.8592  0.6848
  865MOL0     C16677   2.474   7.738   8.085 -0.1775  0.2912 -0.6233
  865MOL0     C16678   2.540   7.604   8.118  0.2915  0.0497 -1.2083
  865MOL0     C16679   2.670   7.623   8.200  0.0067 -0.7995  0.0240
  865MOL0     C16680   2.782   7.521   8.183  0.0236  1.0044  0.0693
  865MOL0     C16681   2.822   7.508   8.028 -1.0392 -0.1048 -0.1606
  865MOL0     C16682   2.933   7.409   8.019 -0.6809 -0.1050 -0.2984
  865MOL0     C16683   3.074   7.462   8.040 -0.2250  0.0657 -0.7475
  865MOL0     C16684   3.168   7.335   8.034  0.3187  0.6438  0.4242
  865MOL0    Cl16685   3.180   7.292   7.860  0.0174 -0.4599 -0.2765
  865MOL0     C16686   2.371   7.975   7.987 -1.1274 -0.7949 -1.0541
  865MOL0     C16687   2.343   8.091   7.917 -0.1590  0.5639 -0.2684
  865MOL0     O16688   2.351   8.189   7.546  0.5347 -0.1182 -0.2534
  865MOL0     C16689   2.241   8.489   7.701  0.2327  0.3173  0.4173
  865MOL0     C16690   2.228   8.622   7.668  0.4922 -0.1242 -0.5318
  865MOL0     N16691   1.971   8.922   7.160  0.5865  0.2112  0.3861
  865MOL0     N16692   1.950   8.953   7.040  0.0102 -0.2972 -0.2370
  865MOL0     C16693   1.918   8.753   6.382 -0.6314  0.4490  0.1724
  865MOL0     C16694   2.013   8.653   6.369 -0.0770 -0.2657  0.8185
  865MOL0     C16695   2.291   8.321   6.485  0.9019  0.5973  0.4906
  865MOL0     C16696   2.380   8.343   6.382 -0.2929  0.8088  0.2741
  865MOL0     C16697   2.480   8.249   6.338  0.1629  0.0882  0.5088
  865MOL0     C16698   2.476   8.127   6.405  0.5094  0.2467  0.8209
  865MOL0     O16699   2.559   8.033   6.342 -0.0759 -0.1442 -0.1460
  865MOL0     C16700   2.591   7.905   6.403  1.0393 -0.3891  0.5294
  865MOL0     C16701   2.681   7.824   6.313 -0.0964 -0.0631 -0.2541
  865MOL0     C16702   2.782   7.905   6.226 -1.2826 -0.2302  0.1777
  865MOL0     C16703   2.923   7.929   6.286 -0.1585  0.5172  0.1739
  865MOL0     C16704   2.996   8.010   6.187 -0.1000 -1.3398  0.0894
  865MOL0     C16705   3.065   8.093   6.138 -0.4966 -0.0640 -0.1120
  865MOL0     C16706   2.381   8.098   6.512 -1.2856  0.5811 -1.5354
  865MOL0     C16707   2.294   8.197   6.557 -1.4161 -0.0257 -0.5411
  865MOL0     H16708   2.179   8.706   6.652  0.3774  1.7303  0.4657
  865MOL0     H16709   2.014   8.884   6.675  1.5687 -0.9173 -0.9229
  865MOL0     H16710   1.803   9.010   6.315  0.8126  2.6225  0.1555
  865MOL0     H16711   1.649   8.956   6.397 -0.8391  1.3059 -3.3216
  865MOL0     H16712   1.703   9.211   6.364  1.5116 -1.8823 -2.0557
  865MOL0     H16713   1.711   9.172   6.540 -2.3097 -0.0129 -0.3663
  865MOL0     H16714   1.970   9.143   6.477  1.8683  1.6069  0.2785
  865MOL0     H16715   1.922   9.222   6.327  2.7136 -1.7493  1.4279
  865MOL0     H16716   1.986   9.403   6.469  0.6837  1.1879  2.8302
  865MOL0     H16717   1.814   9.410   6.470  0.2442 -0.8052  0.5134
  865MOL0     H16718   1.916   9.446   6.701 -0.0269 -1.1213  1.0732
  865MOL0     H16719   1.815   9.306   6.705 -0.4068  1.2030  2.2074
  865MOL0     H16720   2.049   9.194   6.654 -0.0317  2.6898 -3.9770
  865MOL0     H16721   2.116   9.337   6.704  0.4785  0.4896  0.6930
  865MOL0     H16722   2.104   9.191   6.884  2.0639  2.6031 -0.3082
  865MOL0     H16723   2.008   9.339   6.928  0.4408 -0.3385  0.1456
  865MOL0     H16724   1.833   9.105   6.845 -3.2104 -1.8787  2.2144
  865MOL0     H16725   1.798   9.232   6.949 -0.6837 -2.0322  1.4550
  865MOL0     H16726   1.924   9.244   7.206  2.5549 -0.2632  3.1673
  865MOL0     H16727   1.850   9.071   7.425  0.4197  0.8638 -0.9614
  865MOL0     H16728   1.921   8.917   7.412 -4.8085 -0.4285 -2.0931
  865MOL0     H16729   2.066   9.045   7.571  2.3111  1.9144  0.1158
  865MOL0     H16730   2.076   9.176   7.459 -1.5051  0.8810  0.4678
  865MOL0     H16731   2.291   9.057   7.447  1.1249 -2.3674  1.7642
  865MOL0     H16732   2.207   9.064   7.300  1.3189  0.9835  0.9944
  865MOL0     H16733   2.325   8.851   7.357  1.2105 -0.0623  2.7573
  865MOL0     H16734   2.146   8.819   7.335  1.4746 -1.2210 -1.1987
  865MOL0     H16735   2.297   8.632   7.337 -1.1704 -1.0330 -1.3416
  865MOL0     H16736   2.372   8.441   7.258 -0.1615  1.2522  0.4500
  865MOL0     H16737   2.479   8.353   7.359  0.5622  0.8812  0.3780
  865MOL0     H16738   2.313   8.293   7.313  1.5683  0.8893 -3.4756
  865MOL0     H16739   2.193   7.967   7.640 -1.8090 -3.3464  0.9570
  865MOL0     H16740   2.263   7.753   7.756  2.9832 -1.2358  1.6326
  865MOL0     H16741   2.559   7.797   8.048 -0.4537  0.2446 -1.3494
  865MOL0     H16742   2.436   7.789   8.174  1.1079 -3.1560  2.1197
  865MOL0     H16743   2.475   7.543   8.183  1.7330  0.0452  0.2872
  865MOL0     H16744   2.553   7.561   8.018 -1.1508  0.2632 -1.5198
  865MOL0     H16745   2.659   7.655   8.303  0.2871  1.3943 -0.5707
  865MOL0     H16746   2.707   7.714   8.150  2.6504 -2.7300 -1.8598
  865MOL0     H16747   2.871   7.542   8.244  0.4838  1.4830 -0.7543
  865MOL0     H16748   2.736   7.423   8.197  2.7735 -0.7449 -2.1206
  865MOL0     H16749   2.868   7.598   7.986  1.0861 -1.7198 -1.4618
  865MOL0     H16750   2.735   7.486   7.967 -1.1649  2.8151 -1.2170
  865MOL0     H16751   2.912   7.332   8.094  0.3116  1.2361  1.4253
  865MOL0     H16752   2.921   7.358   7.923 -1.5677  0.1788 -0.3433
  865MOL0     H16753   3.086   7.514   8.135  0.0721 -0.2187 -0.6275
  865MOL0     H16754   3.096   7.533   7.959  0.8698 -1.9708 -2.3298
  865MOL0     H16755   3.124   7.263   8.104 -0.3450  0.5773 -0.0522
  865MOL0     H16756   3.267   7.368   8.066  1.9410 -1.8050 -1.6415
  865MOL0     H16757   2.426   7.978   8.080 -0.6607 -4.9519 -1.0179
  865MOL0     H16758   2.373   8.189   7.952  2.1096 -1.3047  3.8390
  865MOL0     H16759   2.222   8.460   7.804  1.7425  0.4301  0.7571
  865MOL0     H16760   2.198   8.692   7.745  3.1878 -2.1802  2.6917
  865MOL0     H16761   1.839   8.757   6.308  0.1638 -1.5854 -0.8446
  865MOL0     H16762   2.029   8.595   6.278 -0.1478 -1.6055  1.6298
  865MOL0     H16763   2.393   8.442   6.339  0.0332 -0.0459 -1.7066
  865MOL0     H16764   2.557   8.283   6.269  0.8252 -1.1270  0.6354
  865MOL0     H16765   2.632   7.912   6.504  2.5552 -3.3464  0.2302
  865MOL0     H16766   2.507   7.846   6.441 -0.4744  1.4422  0.1470
  865MOL0     H16767   2.613   7.765   6.250  2.1578 -2.1410 -0.8871
  865MOL0     H16768   2.742   7.750   6.365  0.6704  1.0247  0.4143
  865MOL0     H16769   2.746   8.006   6.209  1.8490  1.2782  1.6495
  865MOL0     H16770   2.797   7.843   6.137 -1.1566 -0.6978  0.5199
  865MOL0     H16771   2.970   7.834   6.315 -1.1645  0.4421  1.6529
  865MOL0     H16772   2.916   7.988   6.377 -1.7282 -0.5548  0.7902
  865MOL0     H16773   3.127   8.167   6.091 -0.0430 -0.4442 -0.1267
  865MOL0     H16774   2.386   8.003   6.563 -1.7008  0.1598 -2.2635
  865MOL0     H16775   2.223   8.187   6.638 -0.2235 -0.7301  0.4625
  866MOL0     O16776   0.215   4.164   8.040  0.1405  0.3865  0.1631
  866MOL0     C16777   0.170   4.208   7.930 -0.8015  1.0662 -0.0231
  866MOL0     O16778   0.031   4.228   7.893 -0.5648 -0.2271  0.4702
  866MOL0     C16779  -0.059   4.159   7.972 -0.6541 -0.5617  1.0054
  866MOL0     C16780  -0.046   4.016   8.004  0.1878 -1.3063  0.3244
  866MOL0     C16781  -0.145   3.960   8.078 -0.5572 -0.5706  0.1467
  866MOL0     C16782  -0.247   4.036   8.134  0.1036 -0.2985  0.6410
  866MOL0     O16783  -0.336   3.964   8.211 -0.1476  0.7170 -0.1350
  866MOL0     C16784  -0.476   3.984   8.212  0.2344 -0.2656 -0.2537
  866MOL0     C16785  -0.526   4.068   8.328  0.0394 -0.0921 -0.0129
  866MOL0     C16786  -0.676   4.030   8.338 -0.2550 -0.4876 -0.3081
  866MOL0     C16787  -0.759   4.148   8.381  0.6649 -0.1649 -0.1581
  866MOL0     C16788  -0.891   4.094   8.425  0.3939 -0.7935 -0.7558
  866MOL0     C16789  -0.998   4.044   8.325  0.8025  0.1471 -0.0609
  866MOL0     C16790  -1.122   3.973   8.388  0.1909  0.6645 -0.1015
  866MOL0     C16791  -1.086   3.835   8.447 -0.5415  0.2126 -0.6615
  866MOL0     N16792  -1.199   3.779   8.508  0.0805  1.1624  0.2115
  866MOL0     C16793  -1.235   3.651   8.473  0.7134  1.1605  0.0913
  866MOL0     C16794  -1.317   3.605   8.575 -0.1629  0.1886 -0.5423
  866MOL0     C16795  -1.362   3.465   8.575 -0.8509  0.3802  1.1347
  866MOL0     C16796  -1.243   3.367   8.592 -0.3148 -0.8761  1.1137
  866MOL0     C16797  -1.170   3.396   8.719  0.2050 -0.1711 -0.1687
  866MOL0     C16798  -1.048   3.298   8.739  0.7900 -0.2401  0.3890
  866MOL0     O16799  -0.945   3.328   8.649  0.1041 -0.4262 -0.0543
  866MOL0     C16800  -0.875   3.233   8.586 -0.6289 -0.3077 -0.0355
  866MOL0     C16801  -0.869   3.094   8.619 -0.6549 -0.6828  0.1992
  866MOL0     C16802  -0.789   3.012   8.537 -0.1593  0.4705  0.0072
  866MOL0     C16803  -0.779   2.864   8.572  0.6419 -0.2125  0.4456
  866MOL0     C16804  -0.714   3.062   8.427  0.1391 -0.7801  0.3642
  866MOL0     C16805  -0.618   2.982   8.357  0.4873 -0.0254 -0.2724
  866MOL0     O16806  -0.668   2.914   8.253  0.3962 -0.0292  0.1603
  866MOL0     C16807  -0.582   2.849   8.171  0.1081 -0.8191 -0.6926
  866MOL0     C16808  -0.611   2.720   8.139 -0.1816  1.1032  0.4569
  866MOL0     C16809  -0.533   2.655   8.039  0.8097 -0.8021  0.9045
  866MOL0     C16810  -0.417   2.720   7.982  0.0580  0.3253 -0.3184
  866MOL0     O16811  -0.338   2.635   7.909 -0.1565 -0.0396  0.8850
  866MOL0     C16812  -0.210   2.687   7.865 -1.0867  0.6863 -0.0750
  866MOL0     C16813  -0.117   2.571   7.806 -0.2548  0.0982  0.3652
  866MOL0     C16814  -0.117   2.459   7.912  0.0856 -0.0136 -0.1547
  866MOL0     C16815  -0.008   2.345   7.900  0.1271  1.3602  0.3727
  866MOL0     C16816  -0.008   2.215   7.980  0.3097  0.5521 -1.0574
  866MOL0     C16817  -0.030   2.245   8.129 -0.6419  0.9885 -0.5426
  866MOL0     C16818  -0.003   2.108   8.203 -0.4917 -0.2444  0.5300
  866MOL0     C16819  -0.024   2.117   8.352  0.1853 -1.0575 -0.2945
  866MOL0    Cl16820   0.052   2.254   8.428 -0.0134 -0.4003  0.2760
  866MOL0     C16821  -0.381   2.850   8.024 -0.2441  0.1206 -0.0882
  866MOL0     C16822  -0.466   2.915   8.123 -0.0642  0.4651  0.3019
  866MOL0     O16823  -0.506   2.974   8.405  0.8836 -0.4136  0.2663
  866MOL0     C16824  -0.712   3.199   8.400  0.5113 -0.4843 -0.7992
  866MOL0     C16825  -0.795   3.283   8.482 -0.6105 -1.0365 -0.2396
  866MOL0     N16826  -1.319   3.706   8.671  0.9064 -0.3619  1.0222
  866MOL0     N16827  -1.274   3.815   8.622 -0.0787  0.2566 -0.3263
  866MOL0     C16828  -0.267   4.174   8.113  0.2743  0.1788  0.2483
  866MOL0     C16829  -0.167   4.236   8.029 -0.2529 -0.0339 -0.0238
  866MOL0     C16830   0.272   4.245   7.830  0.0374 -0.3690 -0.0315
  866MOL0     C16831   0.413   4.204   7.849 -0.1994 -0.3358  0.0583
  866MOL0     C16832   0.505   4.238   7.757  0.3335  0.0927 -0.0626
  866MOL0     C16833   0.467   4.325   7.654 -0.3410 -1.0018  0.3133
  866MOL0     O16834   0.573   4.356   7.574 -0.3795  0.0593  0.4903
  866MOL0     C16835   0.553   4.434   7.460  0.9048 -0.8227  0.6052
  866MOL0     C16836   0.680   4.479   7.378  0.2548  0.2004 -0.0730
  866MOL0     C16837   0.653   4.584   7.260  0.8385 -0.2575 -0.1070
  866MOL0     C16838   0.755   4.592   7.155 -0.4817  0.0582  0.2826
  866MOL0     C16839   0.889   4.600   7.222  0.2313 -0.5828 -0.4358
  866MOL0     C16840   1.001   4.594   7.270  0.9732 -0.5845 -0.6114
  866MOL0     C16841   0.337   4.363   7.627  0.3198 -0.5357  0.3934
  866MOL0     C16842   0.236   4.321   7.723 -0.2116 -0.8041  1.3977
  866MOL0     H16843   0.047   3.963   7.986 -0.5919 -2.2412 -1.1706
  866MOL0     H16844  -0.129   3.863   8.125 -0.4310  0.1329  1.6040
  866MOL0     H16845  -0.504   4.032   8.117  2.9198 -2.6541 -2.4241
  866MOL0     H16846  -0.504   3.879   8.216  0.8470 -0.4078  0.5583
  866MOL0     H16847  -0.488   4.051   8.429  0.2609 -1.7467 -0.3334
  866MOL0     H16848  -0.512   4.174   8.305 -1.2489  0.6115  2.1313
  866MOL0     H16849  -0.705   3.990   8.240  3.8337  1.0076 -2.3751
  866MOL0     H16850  -0.677   3.949   8.412 -0.3048  0.5793  0.8919
  866MOL0     H16851  -0.716   4.198   8.467  0.7147 -1.4729  0.6027
  866MOL0     H16852  -0.773   4.215   8.296 -1.3653 -0.6258 -0.2498
  866MOL0     H16853  -0.877   4.011   8.495  3.9053 -0.7476 -1.2252
  866MOL0     H16854  -0.928   4.184   8.475  2.6360  3.2260 -5.4783
  866MOL0     H16855  -1.043   4.130   8.274 -1.3058 -0.8362  0.0305
  866MOL0     H16856  -0.949   3.976   8.256  1.1934  0.9866 -0.6341
  866MOL0     H16857  -1.157   4.045   8.462  0.6121 -0.3886  1.1634
  866MOL0     H16858  -1.207   3.953   8.322  0.1436 -1.4077  0.5159
  866MOL0     H16859  -1.014   3.834   8.529 -0.7423 -4.7147 -0.2574
  866MOL0     H16860  -1.043   3.769   8.371  3.9892  0.0732  1.7146
  866MOL0     H16861  -1.215   3.593   8.383  1.2537  4.0669 -1.8305
  866MOL0     H16862  -1.449   3.446   8.638 -0.8505 -0.7056  0.8259
  866MOL0     H16863  -1.403   3.452   8.475 -2.5731 -0.8682  1.9667
  866MOL0     H16864  -1.172   3.384   8.510 -1.1691 -0.5577  0.4199
  866MOL0     H16865  -1.283   3.265   8.587 -0.1783 -0.9307  1.1281
  866MOL0     H16866  -1.237   3.390   8.805 -0.1653 -1.8045 -0.5276
  866MOL0     H16867  -1.134   3.499   8.724 -4.3519  1.6652 -0.3373
  866MOL0     H16868  -1.092   3.199   8.719 -1.5353 -0.1380  3.9906
  866MOL0     H16869  -1.028   3.294   8.846 -1.6813 -0.7671  0.8924
  866MOL0     H16870  -0.918   3.042   8.700  0.5591 -1.6554  0.3488
  866MOL0     H16871  -0.779   2.803   8.481 -0.6852 -1.4169  1.2116
  866MOL0     H16872  -0.682   2.844   8.619  0.1025 -0.5731  1.4307
  866MOL0     H16873  -0.857   2.834   8.642  0.3000 -1.4976 -0.4514
  866MOL0     H16874  -0.698   2.663   8.172  0.7872  0.7167  2.5333
  866MOL0     H16875  -0.569   2.557   8.010 -0.4992 -1.0365  3.1260
  866MOL0     H16876  -0.216   2.764   7.788 -1.7270  1.4050  0.6780
  866MOL0     H16877  -0.158   2.735   7.948 -1.5903  1.2613 -0.0820
  866MOL0     H16878  -0.150   2.546   7.705 -3.8328  1.8743  0.8962
  866MOL0     H16879  -0.016   2.611   7.798 -1.6887  4.2296 -0.0166
  866MOL0     H16880  -0.213   2.408   7.910 -1.4332  2.6356 -1.9084
  866MOL0     H16881  -0.111   2.506   8.010  0.7401  1.7370 -0.9893
  866MOL0     H16882   0.002   2.315   7.795  1.5056  1.9986  0.2991
  866MOL0     H16883   0.090   2.380   7.932  1.4482 -0.1880 -1.6778
  866MOL0     H16884   0.083   2.156   7.966 -1.9975 -3.4542 -0.5850
  866MOL0     H16885  -0.090   2.155   7.939 -2.8271  1.8443  2.6731
  866MOL0     H16886   0.032   2.325   8.170 -1.0671  1.2782 -0.4643
  866MOL0     H16887  -0.135   2.271   8.144 -1.2698 -2.1908  1.6858
  866MOL0     H16888   0.100   2.077   8.187 -0.2712  0.7845 -0.1595
  866MOL0     H16889  -0.064   2.027   8.163  3.3795 -3.7770  1.0640
  866MOL0     H16890   0.009   2.033   8.414  1.8337  0.7090  1.3602
  866MOL0     H16891  -0.131   2.132   8.365  0.5093  2.1925 -0.6870
  866MOL0     H16892  -0.296   2.906   7.986  0.6217 -0.5647  0.7580
  866MOL0     H16893  -0.452   3.017   8.159 -1.0472  1.4325 -1.8481
  866MOL0     H16894  -0.637   3.241   8.334  1.7435  0.1877  0.9672
  866MOL0     H16895  -0.792   3.391   8.468 -0.8736 -0.9196  0.5773
  866MOL0     H16896  -0.349   4.231   8.156 -2.6030 -0.8057 -3.4421
  866MOL0     H16897  -0.175   4.342   8.008 -0.4859  0.7026  3.2944
  866MOL0     H16898   0.438   4.132   7.926  3.7043  0.8540  0.1164
  866MOL0     H16899   0.608   4.205   7.747 -0.5737 -2.4705 -2.5483
  866MOL0     H16900   0.484   4.388   7.388 -0.6105  2.5063 -0.2305
  866MOL0     H16901   0.498   4.527   7.478  0.7447 -0.7788 -0.0777
  866MOL0     H16902   0.732   4.394   7.331 -0.1312 -0.3275  0.4528
  866MOL0     H16903   0.742   4.528   7.453 -1.2010  2.5848 -0.3358
  866MOL0     H16904   0.648   4.683   7.305 -2.5911 -0.1774 -0.3867
  866MOL0     H16905   0.554   4.559   7.219  0.2528  0.9247  0.5406
  866MOL0     H16906   0.738   4.681   7.092 -0.5186 -1.1401 -1.4706
  866MOL0     H16907   0.754   4.510   7.083  2.2809  0.1925 -0.0250
  866MOL0     H16908   1.098   4.573   7.311  0.3117 -2.3504  0.1458
  866MOL0     H16909   0.309   4.434   7.550 -2.4070 -2.2731 -0.3739
  866MOL0     H16910   0.136   4.355   7.698 -0.0467 -1.1697  0.1614
  867MOL0     O16911   8.077   1.461   5.935  0.0937 -0.0240 -0.3668
  867MOL0     C16912   8.137   1.363   5.889 -0.4118  0.6671  0.7133
  867MOL0     O16913   8.274   1.336   5.903  0.0065 -0.1256 -0.0141
  867MOL0     C16914   8.362   1.400   5.991 -0.9238 -0.3454 -0.0816
  867MOL0     C16915   8.494   1.419   5.942  0.7315  0.0424  0.3921
  867MOL0     C16916   8.579   1.503   6.017 -0.5924  0.0318  0.7838
  867MOL0     C16917   8.534   1.538   6.141 -0.3828 -0.6282  1.1035
  867MOL0     O16918   8.609   1.613   6.226 -0.2656  0.0006  0.6192
  867MOL0     C16919   8.702   1.710   6.174 -0.4852  0.2869 -0.1928
  867MOL0     C16920   8.625   1.824   6.106 -0.2603 -0.1939  1.2883
  867MOL0     C16921   8.545   1.905   6.198  0.3702  0.0822  0.0887
  867MOL0     C16922   8.495   2.031   6.137  0.7543  0.5608  0.3029
  867MOL0     C16923   8.605   2.128   6.103 -0.4819  0.1983 -1.0492
  867MOL0     C16924   8.657   2.203   6.233  0.0847 -0.5836  0.4159
  867MOL0     C16925   8.759   2.309   6.182 -0.2173 -0.4741 -0.9137
  867MOL0     C16926   8.906   2.264   6.210 -0.2203 -0.3925 -0.3731
  867MOL0     N16927   8.951   2.138   6.136  0.2111  0.4910 -0.9800
  867MOL0     C16928   9.068   2.129   6.064  0.9431 -0.4402 -0.1456
  867MOL0     C16929   9.100   1.992   6.060 -0.4880 -0.7778 -0.1831
  867MOL0     C16930   9.231   1.928   6.015 -0.2020 -0.1302  0.6378
  867MOL0     C16931   9.251   1.879   5.872 -0.0598  0.6001 -0.1718
  867MOL0     C16932   9.324   1.741   5.873  0.2398 -1.0592  0.2536
  867MOL0     C16933   9.339   1.685   5.736 -0.6315 -0.0339 -0.2521
  867MOL0     O16934   9.404   1.779   5.649  0.5911  0.2712  0.6690
  867MOL0     C16935   9.411   1.757   5.510  0.4062  0.4018 -0.3664
  867MOL0     C16936   9.338   1.660   5.446 -0.1992  0.4591  0.1961
  867MOL0     C16937   9.335   1.652   5.306  0.8004 -0.3537 -1.0463
  867MOL0     C16938   9.256   1.537   5.253 -0.7502 -0.5804 -0.5229
  867MOL0     C16939   9.409   1.738   5.228  0.1651  0.5484  0.1014
  867MOL0     C16940   9.428   1.728   5.081 -0.5826 -0.1607  0.2779
  867MOL0     O16941   9.453   1.848   5.018  0.9893 -0.1239 -0.5021
  867MOL0     C16942   9.413   1.848   4.891  0.1734 -1.2967  1.2760
  867MOL0     C16943   9.306   1.924   4.858 -1.1043 -0.4351  0.7411
  867MOL0     C16944   9.265   1.924   4.726 -0.4917  0.9747 -0.5898
  867MOL0     C16945   9.337   1.853   4.626  0.0308 -0.1757 -1.4752
  867MOL0     O16946   9.286   1.836   4.501  0.9994 -0.0482  0.2830
  867MOL0     C16947   9.257   1.695   4.479 -0.2074 -0.3144  0.5740
  867MOL0     C16948   9.200   1.679   4.340  0.2678  0.6668 -0.5476
  867MOL0     C16949   9.161   1.532   4.329  0.0389 -0.4933 -0.8470
  867MOL0     C16950   9.135   1.497   4.186 -0.6984  0.3752 -0.0282
  867MOL0     C16951   9.119   1.347   4.148 -0.4034 -0.5493 -0.3157
  867MOL0     C16952   9.011   1.274   4.238 -0.0527 -0.5523  0.1433
  867MOL0     C16953   8.863   1.340   4.231  0.0760  0.8361 -1.1279
  867MOL0     C16954   8.781   1.227   4.298 -0.6968 -0.8350 -0.5468
  867MOL0    Cl16955   8.604   1.242   4.263 -0.0785 -0.4631 -0.0225
  867MOL0     C16956   9.458   1.799   4.657 -0.6555 -1.1059 -1.0398
  867MOL0     C16957   9.495   1.789   4.788  0.0444  1.1482 -0.4012
  867MOL0     O16958   9.419   1.615   5.030 -0.2391  0.0201  0.1438
  867MOL0     C16959   9.483   1.839   5.291 -0.5443 -1.0208 -0.3026
  867MOL0     C16960   9.484   1.843   5.431 -1.2816 -0.4030  0.4731
  867MOL0     N16961   8.994   1.930   6.129 -0.0353  0.2718  0.0986
  867MOL0     N16962   8.905   2.012   6.171  0.1822 -0.4874  1.2978
  867MOL0     C16963   8.402   1.515   6.186 -0.5785  0.3377  0.4008
  867MOL0     C16964   8.319   1.438   6.114 -0.0838  0.2834 -1.0730
  867MOL0     C16965   8.061   1.297   5.776  0.4702  0.6235 -0.0749
  867MOL0     C16966   7.939   1.345   5.722  0.0580  1.3184 -0.3740
  867MOL0     C16967   7.860   1.272   5.627  0.9697 -0.3442 -0.7380
  867MOL0     C16968   7.918   1.155   5.565  0.4019  0.9084 -0.5051
  867MOL0     O16969   7.866   1.076   5.470 -0.1349 -0.4833 -0.2290
  867MOL0     C16970   7.719   1.071   5.468  0.4977  0.2550  0.6571
  867MOL0     C16971   7.682   0.945   5.393 -0.3431  0.4850  0.2127
  867MOL0     C16972   7.733   0.813   5.456 -0.2592  0.5775  0.7536
  867MOL0     C16973   7.673   0.683   5.408  0.0947 -0.2411  0.1595
  867MOL0     C16974   7.716   0.639   5.274 -0.5565  0.2626  0.2843
  867MOL0     C16975   7.747   0.590   5.165  0.1229  0.1910 -0.0973
  867MOL0     C16976   8.049   1.119   5.601 -0.8462  0.1644 -0.1664
  867MOL0     C16977   8.112   1.185   5.708  0.1953  0.8871 -0.0001
  867MOL0     H16978   8.524   1.373   5.848 -0.5746 -0.9791  0.4456
  867MOL0     H16979   8.684   1.518   5.992 -0.8246 -1.5181 -1.4236
  867MOL0     H16980   8.750   1.753   6.261  1.3394 -3.2310  0.7402
  867MOL0     H16981   8.784   1.676   6.110 -1.0180  1.8781 -1.8200
  867MOL0     H16982   8.695   1.881   6.045  0.5057 -1.4671  0.9486
  867MOL0     H16983   8.559   1.774   6.035 -2.2795  1.5610  1.8083
  867MOL0     H16984   8.450   1.856   6.223 -1.1001  1.3545 -2.5915
  867MOL0     H16985   8.610   1.917   6.285  1.5865  0.2571 -0.8171
  867MOL0     H16986   8.460   2.004   6.036  2.6718 -1.0451  0.0140
  867MOL0     H16987   8.421   2.075   6.204  1.9022  1.8518  0.7736
  867MOL0     H16988   8.684   2.082   6.042 -2.2008 -4.6597 -0.0471
  867MOL0     H16989   8.554   2.203   6.042  1.7466  2.2731 -0.5191
  867MOL0     H16990   8.576   2.251   6.288 -0.7433  0.4204 -1.5773
  867MOL0     H16991   8.689   2.119   6.295 -4.1432 -3.1515 -0.5157
  867MOL0     H16992   8.749   2.355   6.083  4.3082  0.4366 -1.1634
  867MOL0     H16993   8.737   2.393   6.249 -1.4658 -0.4542 -1.3175
  867MOL0     H16994   8.916   2.259   6.319  1.6804  1.1829 -0.4152
  867MOL0     H16995   8.961   2.351   6.173  1.5116 -1.8945 -1.5171
  867MOL0     H16996   9.124   2.216   6.030 -0.5924  0.1081 -1.3522
  867MOL0     H16997   9.324   1.978   6.043 -0.0068 -1.1840  1.9999
  867MOL0     H16998   9.239   1.835   6.073 -2.3302 -0.3021  0.7281
  867MOL0     H16999   9.309   1.946   5.808  2.0596 -4.0696 -3.8010
  867MOL0     H17000   9.161   1.830   5.831  2.9920 -4.1110 -2.1272
  867MOL0     H17001   9.277   1.662   5.932  1.8916 -1.0714  1.6244
  867MOL0     H17002   9.421   1.760   5.919  1.5841  0.9704 -3.0176
  867MOL0     H17003   9.239   1.669   5.694 -0.3100 -1.9315 -0.4074
  867MOL0     H17004   9.385   1.586   5.741 -2.6386 -1.0101 -0.1345
  867MOL0     H17005   9.282   1.587   5.503 -1.9879  0.1685 -1.7910
  867MOL0     H17006   9.318   1.450   5.233 -1.7108 -0.9049 -2.2451
  867MOL0     H17007   9.180   1.510   5.328  0.7837  0.5205  1.5301
  867MOL0     H17008   9.203   1.552   5.158 -6.3149 -0.8613  2.0937
  867MOL0     H17009   9.247   1.992   4.919  2.3470  3.7050  0.0123
  867MOL0     H17010   9.169   1.970   4.704 -2.4447 -0.5638  3.6310
  867MOL0     H17011   9.352   1.642   4.468  1.7995  2.6554  1.9905
  867MOL0     H17012   9.211   1.648   4.566 -3.9896 -0.0284 -1.0759
  867MOL0     H17013   9.107   1.737   4.336 -0.9363 -1.1410 -0.0493
  867MOL0     H17014   9.274   1.710   4.266 -0.5938 -0.8347 -2.1307
  867MOL0     H17015   9.068   1.518   4.385  1.6041  0.2211  2.1687
  867MOL0     H17016   9.235   1.468   4.379 -1.7878 -2.3632 -0.4070
  867MOL0     H17017   9.037   1.539   4.160 -1.9404 -1.7212  0.9876
  867MOL0     H17018   9.210   1.543   4.122 -0.7484 -2.1740 -2.0507
  867MOL0     H17019   9.223   1.315   4.166 -0.0537  0.8701  0.3426
  867MOL0     H17020   9.111   1.328   4.041  2.0892 -1.8863 -0.3475
  867MOL0     H17021   9.011   1.165   4.222  1.6799 -0.6470  0.6191
  867MOL0     H17022   9.045   1.289   4.341  3.3561  1.1354 -1.0785
  867MOL0     H17023   8.836   1.359   4.127  1.6382  2.2323 -1.3335
  867MOL0     H17024   8.852   1.427   4.297  0.6780 -0.4158  0.7042
  867MOL0     H17025   8.793   1.240   4.406  2.4295  2.2179 -1.0476
  867MOL0     H17026   8.802   1.129   4.255 -0.1616 -0.0227 -2.2126
  867MOL0     H17027   9.507   1.759   4.569  0.5563 -1.4592 -0.2346
  867MOL0     H17028   9.571   1.715   4.812 -0.6640 -0.3998 -2.5742
  867MOL0     H17029   9.552   1.907   5.241 -2.8692  1.1052 -0.8617
  867MOL0     H17030   9.564   1.901   5.475  1.8717 -3.5025 -0.7085
  867MOL0     H17031   8.371   1.549   6.284  4.1822 -2.3152  3.2428
  867MOL0     H17032   8.219   1.416   6.150  0.6784  0.8656  1.5925
  867MOL0     H17033   7.895   1.438   5.756  0.4390  0.8917  1.3935
  867MOL0     H17034   7.766   1.322   5.605  0.9870 -0.3150 -0.7461
  867MOL0     H17035   7.691   1.085   5.573 -0.6474  4.1838  0.0072
  867MOL0     H17036   7.675   1.158   5.418 -0.4660  0.4372  1.7728
  867MOL0     H17037   7.714   0.959   5.290 -1.2641  2.4888  0.1540
  867MOL0     H17038   7.573   0.938   5.393 -0.2437 -2.2050  0.1684
  867MOL0     H17039   7.718   0.819   5.565  1.4144  0.2272  1.0348
  867MOL0     H17040   7.841   0.816   5.437 -0.5646  1.3606 -0.9987
  867MOL0     H17041   7.564   0.699   5.404  0.2427  0.8465  0.2070
  867MOL0     H17042   7.698   0.601   5.477 -0.3515 -0.7910 -0.3154
  867MOL0     H17043   7.757   0.555   5.065 -2.1510 -1.7338  0.2685
  867MOL0     H17044   8.093   1.040   5.541  0.9133 -0.6133  2.0020
  867MOL0     H17045   8.203   1.139   5.743  0.3116  0.4636 -0.8392
  868MOL0     O17046   3.942   7.608   7.752 -0.1791 -0.6063 -0.6155
  868MOL0     C17047   3.845   7.536   7.757 -1.2250 -0.0587  0.1744
  868MOL0     O17048   3.741   7.572   7.823  0.3551 -0.2594 -0.1679
  868MOL0     C17049   3.742   7.670   7.916 -0.6695  0.0288 -0.6657
  868MOL0     C17050   3.796   7.804   7.900  0.2140  0.5982 -0.6608
  868MOL0     C17051   3.782   7.900   8.011  0.4547 -0.4251  0.3285
  868MOL0     C17052   3.713   7.860   8.124  0.2183 -0.0287 -0.2421
  868MOL0     O17053   3.677   7.948   8.222 -0.4811 -0.2843 -0.2413
  868MOL0     C17054   3.792   8.007   8.274  1.0031 -0.0243 -0.8774
  868MOL0     C17055   3.742   8.097   8.393  0.0664 -0.3206  0.0844
  868MOL0     C17056   3.846   8.208   8.426  0.7017  0.7891  0.4241
  868MOL0     C17057   3.963   8.184   8.523  0.1397  0.4464  0.5165
  868MOL0     C17058   4.041   8.314   8.538  0.3240 -0.8834 -0.1544
  868MOL0     C17059   4.162   8.298   8.631 -0.7281  0.6830  0.3605
  868MOL0     C17060   4.257   8.417   8.637  0.6767 -0.4035  1.0808
  868MOL0     C17061   4.366   8.406   8.740 -0.2817 -0.1197  0.7273
  868MOL0     N17062   4.450   8.525   8.754 -0.8497 -0.8577  0.0801
  868MOL0     C17063   4.579   8.518   8.793  1.0589  0.9968 -0.2979
  868MOL0     C17064   4.619   8.637   8.820 -0.2830 -0.3580 -0.1097
  868MOL0     C17065   4.764   8.671   8.844 -1.3249  0.2225  0.4518
  868MOL0     C17066   4.802   8.607   8.984 -0.3481  1.0450  0.7396
  868MOL0     C17067   4.948   8.627   9.034 -0.2384  0.3437 -0.4187
  868MOL0     C17068   5.027   8.516   8.962 -0.7436  0.2483  0.1530
  868MOL0     O17069   5.168   8.537   9.005  0.4859  0.5097  0.2039
  868MOL0     C17070   5.255   8.436   8.970 -0.3744 -0.4823  0.7505
  868MOL0     C17071   5.237   8.331   8.883 -0.0790 -0.3297  0.1578
  868MOL0     C17072   5.348   8.257   8.836  0.9674 -0.5423 -0.4579
  868MOL0     C17073   5.325   8.167   8.711 -0.0901 -0.4619  0.0356
  868MOL0     C17074   5.479   8.282   8.892  0.5236  1.2362  0.9248
  868MOL0     C17075   5.595   8.200   8.852 -0.7572 -0.2248 -0.3749
  868MOL0     O17076   5.721   8.227   8.908  0.2960 -0.6095  0.4599
  868MOL0     C17077   5.838   8.185   8.849  0.2813 -0.1777  0.5160
  868MOL0     C17078   5.941   8.147   8.938 -0.0032  0.5457  0.3427
  868MOL0     C17079   6.051   8.090   8.885 -0.3972 -0.7509 -0.2208
  868MOL0     C17080   6.070   8.093   8.741 -0.1143 -0.6195  0.3944
  868MOL0     O17081   6.192   8.043   8.696  0.2469  0.0852 -0.5824
  868MOL0     C17082   6.252   8.129   8.597 -0.1179 -0.2202  0.5542
  868MOL0     C17083   6.400   8.079   8.578  0.4084 -0.0458  0.1870
  868MOL0     C17084   6.485   8.172   8.488 -0.5947 -0.2876  0.1094
  868MOL0     C17085   6.633   8.123   8.476  0.3768 -0.1275  0.3189
  868MOL0     C17086   6.739   8.219   8.437  0.4519  0.4778  0.4890
  868MOL0     C17087   6.871   8.147   8.428  0.5877  0.2315 -0.4001
  868MOL0     C17088   6.983   8.239   8.411 -0.7024 -0.9487  0.3150
  868MOL0     C17089   6.985   8.292   8.265 -0.3664  0.1461 -0.0413
  868MOL0    Cl17090   7.125   8.384   8.218  0.2779  0.3176 -0.4166
  868MOL0     C17091   5.975   8.143   8.653  0.0665  0.0503 -0.9348
  868MOL0     C17092   5.855   8.196   8.707 -0.1467 -0.2087  0.1755
  868MOL0     O17093   5.581   8.110   8.776  0.2320 -0.5191 -0.4678
  868MOL0     C17094   5.487   8.372   8.991  0.1584  0.0441  0.1505
  868MOL0     C17095   5.380   8.448   9.030  0.4216 -0.0831 -0.4725
  868MOL0     N17096   4.516   8.727   8.802  0.7024  0.3698 -0.7121
  868MOL0     N17097   4.414   8.656   8.770  0.0538  0.8702  0.3983
  868MOL0     C17098   3.648   7.739   8.128  0.8155  0.6068  0.0560
  868MOL0     C17099   3.662   7.643   8.025 -0.1191 -0.5140  0.0354
  868MOL0     C17100   3.841   7.400   7.689 -0.3845 -0.2430 -0.1321
  868MOL0     C17101   3.929   7.359   7.590  0.6599 -0.3580  0.3012
  868MOL0     C17102   3.912   7.243   7.518  0.3780  0.2116 -1.0132
  868MOL0     C17103   3.795   7.165   7.539 -0.7186 -0.7155 -0.9778
  868MOL0     O17104   3.774   7.060   7.459  0.1089  0.0421 -0.9262
  868MOL0     C17105   3.643   7.033   7.406 -0.6663  0.0497  0.1897
  868MOL0     C17106   3.602   7.138   7.299 -0.3610 -0.0999  1.0292
  868MOL0     C17107   3.669   7.134   7.160 -0.4474 -0.0199 -0.2997
  868MOL0     C17108   3.793   7.227   7.160 -0.8104 -0.0819 -0.6533
  868MOL0     C17109   3.847   7.213   7.024  0.0682  0.2964  0.6965
  868MOL0     C17110   3.894   7.201   6.911 -0.0821  0.6443  0.5344
  868MOL0     C17111   3.703   7.207   7.639  0.6725 -0.3795 -0.8726
  868MOL0     C17112   3.730   7.322   7.705  0.3701  0.4294  0.8228
  868MOL0     H17113   3.845   7.829   7.807  0.4849 -2.4389 -1.4583
  868MOL0     H17114   3.819   8.002   8.006 -1.2093  0.2780  1.3732
  868MOL0     H17115   3.854   7.928   8.319  0.6350  0.0974 -0.1402
  868MOL0     H17116   3.835   8.067   8.194 -0.7974  0.4511 -1.5378
  868MOL0     H17117   3.646   8.141   8.365  0.9169  0.8436 -1.0683
  868MOL0     H17118   3.736   8.024   8.475  0.1228  0.1610  0.5183
  868MOL0     H17119   3.890   8.239   8.331  0.0919  0.0364 -0.1172
  868MOL0     H17120   3.793   8.291   8.473 -0.6064 -1.9742  4.3313
  868MOL0     H17121   3.912   8.151   8.615  1.6056 -1.4131  0.7310
  868MOL0     H17122   4.023   8.104   8.478 -0.3388  0.7905 -0.7579
  868MOL0     H17123   4.074   8.342   8.437 -1.3856  1.2276 -0.1998
  868MOL0     H17124   3.971   8.389   8.575  1.1403  0.4817 -1.2627
  868MOL0     H17125   4.114   8.287   8.729 -0.2707  2.1913  0.7671
  868MOL0     H17126   4.218   8.206   8.610 -1.9518  0.2940 -1.3840
  868MOL0     H17127   4.299   8.415   8.537 -0.6250 -0.3726  0.5168
  868MOL0     H17128   4.212   8.516   8.644  1.3048  0.0376 -0.7946
  868MOL0     H17129   4.440   8.328   8.726  1.9831  1.7186  1.7617
  868MOL0     H17130   4.315   8.379   8.833 -1.5041 -4.3201 -0.9411
  868MOL0     H17131   4.649   8.436   8.804  1.5699  1.2767 -1.3278
  868MOL0     H17132   4.830   8.614   8.777 -1.6644 -1.4039  1.4364
  868MOL0     H17133   4.797   8.775   8.837 -0.9712  0.2412  2.0777
  868MOL0     H17134   4.772   8.503   8.974  1.2854  0.7137 -1.5458
  868MOL0     H17135   4.733   8.652   9.057 -0.3789  1.3115  0.5458
  868MOL0     H17136   4.933   8.614   9.142 -1.6237 -1.4505 -0.7753
  868MOL0     H17137   4.991   8.723   9.003 -0.6593  1.0970  1.1876
  868MOL0     H17138   5.016   8.507   8.854  0.1253 -2.0111  0.2092
  868MOL0     H17139   4.988   8.425   9.007 -1.4275  0.6648  0.4154
  868MOL0     H17140   5.146   8.325   8.825 -0.5617  1.1518  0.7145
  868MOL0     H17141   5.385   8.208   8.629  1.0362 -0.2851  0.9295
  868MOL0     H17142   5.351   8.065   8.740  0.8305 -0.1462  0.3596
  868MOL0     H17143   5.218   8.158   8.692  0.1778  0.0186 -1.9624
  868MOL0     H17144   5.921   8.146   9.045 -0.5050 -1.8710  0.2957
  868MOL0     H17145   6.128   8.046   8.949  1.2756  0.9311 -0.9913
  868MOL0     H17146   6.213   8.112   8.496 -1.3544  0.5478  0.8752
  868MOL0     H17147   6.249   8.235   8.621 -2.2865  0.0059 -0.4451
  868MOL0     H17148   6.448   8.078   8.676 -1.1811 -0.8391  1.0000
  868MOL0     H17149   6.400   7.979   8.535 -0.8902 -1.3306  2.8720
  868MOL0     H17150   6.497   8.274   8.525  0.5046 -0.3904  0.0580
  868MOL0     H17151   6.421   8.176   8.399 -2.7102  0.5878  1.5753
  868MOL0     H17152   6.651   8.085   8.577 -2.1576  1.3155  1.4064
  868MOL0     H17153   6.630   8.039   8.406 -1.4553  1.1268 -1.1675
  868MOL0     H17154   6.748   8.312   8.494  0.0333  0.7976  0.0420
  868MOL0     H17155   6.714   8.256   8.337 -1.3640  1.3281  1.2139
  868MOL0     H17156   6.882   8.104   8.528 -2.6928 -0.5249 -0.2556
  868MOL0     H17157   6.880   8.056   8.367  1.1106 -1.5850  2.1925
  868MOL0     H17158   7.074   8.191   8.447 -1.7831 -1.5626  2.3904
  868MOL0     H17159   6.960   8.330   8.467 -3.9109 -2.4654  1.7059
  868MOL0     H17160   6.894   8.350   8.244  0.6731  1.4656 -1.0685
  868MOL0     H17161   6.989   8.208   8.195 -1.2721  1.2843 -1.5150
  868MOL0     H17162   5.990   8.140   8.546 -1.9348 -1.6371 -1.2460
  868MOL0     H17163   5.783   8.236   8.636 -3.1070 -3.6206  0.9281
  868MOL0     H17164   5.581   8.410   9.031 -1.1713  2.4229  1.2416
  868MOL0     H17165   5.395   8.521   9.110 -1.1160 -0.4839  0.2265
  868MOL0     H17166   3.594   7.715   8.219 -3.1497  3.4112 -1.2892
  868MOL0     H17167   3.625   7.542   8.025 -2.3839  0.2200 -1.9039
  868MOL0     H17168   4.013   7.426   7.572  0.0444  1.1741  2.7217
  868MOL0     H17169   3.980   7.237   7.433  2.8212 -2.3533  0.9458
  868MOL0     H17170   3.641   6.935   7.358 -0.2099 -0.2413  0.7569
  868MOL0     H17171   3.568   7.017   7.484 -1.3239  0.3723 -0.3666
  868MOL0     H17172   3.633   7.234   7.342  2.2746 -0.6026  0.4313
  868MOL0     H17173   3.493   7.132   7.291 -0.2589 -2.2242  0.6702
  868MOL0     H17174   3.591   7.160   7.088 -2.5360 -2.5632  0.8509
  868MOL0     H17175   3.713   7.037   7.136  3.4202  1.4925 -0.0267
  868MOL0     H17176   3.862   7.188   7.234  0.8782 -1.0205 -2.6069
  868MOL0     H17177   3.769   7.330   7.187  0.9852  0.3108 -0.4281
  868MOL0     H17178   3.948   7.195   6.819  0.0600 -3.5307  0.7206
  868MOL0     H17179   3.608   7.157   7.655  1.6799 -1.9974  0.2071
  868MOL0     H17180   3.662   7.351   7.785  1.3599  1.1601  1.4201
  869MOL0     O17181   8.501   5.999   4.469 -0.2131 -0.4446  0.5327
  869MOL0     C17182   8.584   5.919   4.499  0.1627  0.2485 -0.5239
  869MOL0     O17183   8.722   5.937   4.493 -0.2506 -0.1536 -0.5032
  869MOL0     C17184   8.750   6.062   4.435 -0.3723 -0.2065  0.6220
  869MOL0     C17185   8.737   6.180   4.518  1.0476 -0.4891  0.5478
  869MOL0     C17186   8.785   6.306   4.478 -0.6026  0.4057  0.8951
  869MOL0     C17187   8.847   6.308   4.346 -0.8009  0.2643  0.5893
  869MOL0     O17188   8.892   6.429   4.298 -0.0116 -0.1222  0.2244
  869MOL0     C17189   9.036   6.439   4.269  0.7252 -0.2096 -0.1584
  869MOL0     C17190   9.075   6.589   4.254  0.4057  0.9814  0.6927
  869MOL0     C17191   9.082   6.669   4.379  0.0086  0.1389 -0.0105
  869MOL0     C17192   9.172   6.790   4.380 -0.0645  0.2843 -0.2345
  869MOL0     C17193   9.146   6.865   4.520  0.0765  0.5302  0.1275
  869MOL0     C17194   9.241   6.988   4.559  0.2567  0.5152  0.1522
  869MOL0     C17195   9.296   6.982   4.711 -0.8596 -0.3846 -0.1932
  869MOL0     C17196   9.384   7.109   4.736  0.2379 -0.1923 -0.7122
  869MOL0     N17197   9.508   7.089   4.665  0.5348  0.3356  0.2313
  869MOL0     C17198   9.619   7.020   4.705 -0.3347 -0.5380 -0.1049
  869MOL0     C17199   9.725   7.074   4.633  0.6949 -0.2774 -0.6596
  869MOL0     C17200   9.864   7.036   4.656 -0.4683  0.1672 -0.0999
  869MOL0     C17201   9.936   7.001   4.522  0.6482 -0.1166 -0.2013
  869MOL0     C17202  10.081   7.041   4.532 -0.1638 -0.1730  0.1650
  869MOL0     C17203  10.163   7.012   4.402 -0.3270  0.2286  0.5906
  869MOL0     O17204  10.283   7.091   4.404  0.3330 -0.3905  0.7886
  869MOL0     C17205  10.286   7.225   4.386  0.1666 -0.7248  0.1234
  869MOL0     C17206  10.189   7.292   4.328  0.1478  0.0786  0.1463
  869MOL0     C17207  10.200   7.424   4.298 -0.0249  0.2947  1.2376
  869MOL0     C17208  10.071   7.490   4.242  0.0119  1.1044  0.0931
  869MOL0     C17209  10.320   7.497   4.330 -0.0097  0.2919  0.5165
  869MOL0     C17210  10.339   7.652   4.312  0.5519  1.8399 -0.2035
  869MOL0     O17211  10.432   7.702   4.397 -0.5023  0.4946 -0.6721
  869MOL0     C17212  10.470   7.828   4.377 -0.4589 -0.2206 -0.3201
  869MOL0     C17213  10.603   7.872   4.362  0.3689  0.3924  0.3928
  869MOL0     C17214  10.647   7.998   4.366  1.4627 -0.7776 -0.5400
  869MOL0     C17215  10.546   8.096   4.363 -0.4232  0.3839  0.4146
  869MOL0     O17216  10.599   8.223   4.354 -0.1175  0.8932 -0.1057
  869MOL0     C17217  10.516   8.339   4.362  1.3510 -0.5196  0.6056
  869MOL0     C17218  10.585   8.465   4.328  0.1544  0.0182 -0.1132
  869MOL0     C17219  10.653   8.454   4.186 -1.4352 -0.4412 -0.4708
  869MOL0     C17220  10.663   8.588   4.108  0.3114  1.2801 -0.1657
  869MOL0     C17221  10.708   8.577   3.964 -0.9422 -0.0958 -0.7941
  869MOL0     C17222  10.699   8.701   3.880 -0.1100  0.0915  0.1229
  869MOL0     C17223  10.563   8.781   3.889  0.2996 -0.4283 -0.3767
  869MOL0     C17224  10.440   8.705   3.841 -0.1949  0.8142  0.5734
  869MOL0    Cl17225  10.456   8.697   3.663  0.5468  0.3038 -0.0131
  869MOL0     C17226  10.406   8.075   4.366  1.3164  0.2955 -0.2409
  869MOL0     C17227  10.369   7.933   4.377  0.8634 -1.1886  1.3376
  869MOL0     O17228  10.290   7.709   4.219 -0.1131 -0.8196 -0.4566
  869MOL0     C17229  10.415   7.429   4.409 -0.1957 -0.5792  0.5117
  869MOL0     C17230  10.402   7.293   4.430  1.2153 -0.1340 -0.3447
  869MOL0     N17231   9.669   7.161   4.540 -0.3663  0.5450  0.2697
  869MOL0     N17232   9.541   7.174   4.563  0.0183 -0.6646 -0.2203
  869MOL0     C17233   8.869   6.197   4.266  1.1044 -0.4376 -0.1249
  869MOL0     C17234   8.823   6.076   4.320 -0.3146  0.2035  0.2015
  869MOL0     C17235   8.536   5.794   4.570 -0.4612 -0.5919  0.6337
  869MOL0     C17236   8.395   5.765   4.578 -0.5637  1.3538 -0.1039
  869MOL0     C17237   8.356   5.646   4.643 -0.3794  0.0618 -0.6537
  869MOL0     C17238   8.452   5.562   4.693 -0.6081 -0.0694 -0.4748
  869MOL0     O17239   8.432   5.458   4.786  0.2050 -0.5580 -0.3064
  869MOL0     C17240   8.308   5.439   4.845  0.7675  0.3227  0.1040
  869MOL0     C17241   8.331   5.303   4.913  0.2423  0.4562  0.0325
  869MOL0     C17242   8.217   5.276   5.010 -0.1325 -0.4178  0.7288
  869MOL0     C17243   8.238   5.148   5.092 -0.6947  0.4053 -0.1174
  869MOL0     C17244   8.121   5.101   5.158  0.0552  0.3131  0.6149
  869MOL0     C17245   8.019   5.060   5.203  0.8910  0.3963 -1.2886
  869MOL0     C17246   8.586   5.594   4.670  0.4806 -0.4507 -0.1951
  869MOL0     C17247   8.635   5.710   4.609  0.3101  0.7031  0.2457
  869MOL0     H17248   8.683   6.170   4.612 -2.7378 -0.6960 -1.4716
  869MOL0     H17249   8.766   6.394   4.540 -0.5548  0.7620  0.4095
  869MOL0     H17250   9.091   6.401   4.356  1.1953  2.8405  1.0096
  869MOL0     H17251   9.060   6.383   4.178  0.2542 -2.1139  0.8342
  869MOL0     H17252   9.177   6.588   4.213  0.1256  1.1482 -0.0231
  869MOL0     H17253   8.993   6.628   4.193 -0.3595  2.0534  2.3438
  869MOL0     H17254   8.979   6.691   4.409  0.2676  0.9980  0.2707
  869MOL0     H17255   9.115   6.606   4.462 -1.2522  1.1589  1.3113
  869MOL0     H17256   9.278   6.766   4.367  0.2701  1.9810 -0.9192
  869MOL0     H17257   9.151   6.853   4.293 -0.3731  0.4593 -0.0348
  869MOL0     H17258   9.053   6.923   4.522  1.8505  3.6086  0.5593
  869MOL0     H17259   9.155   6.794   4.603 -2.2619 -0.3464 -0.2782
  869MOL0     H17260   9.322   6.979   4.486 -2.4059 -0.2315 -2.9321
  869MOL0     H17261   9.188   7.081   4.539 -1.4672 -0.4516  0.0413
  869MOL0     H17262   9.212   6.997   4.779 -2.0890 -1.1841 -1.4578
  869MOL0     H17263   9.346   6.899   4.762 -3.0464 -0.5775  1.8345
  869MOL0     H17264   9.397   7.120   4.844  0.7554  1.4391 -0.9116
  869MOL0     H17265   9.331   7.198   4.702 -0.9195  0.7164  2.9778
  869MOL0     H17266   9.639   6.949   4.784  1.8789  3.8247  3.7861
  869MOL0     H17267   9.918   7.120   4.700 -0.8621  0.5652 -0.3636
  869MOL0     H17268   9.882   6.958   4.730  2.3547  0.0238 -0.8293
  869MOL0     H17269   9.892   7.071   4.450  0.4110  1.8328  1.7344
  869MOL0     H17270   9.923   6.900   4.480  3.3843 -0.1641 -1.1285
  869MOL0     H17271  10.122   6.980   4.613 -0.6394 -1.6805 -0.6901
  869MOL0     H17272  10.091   7.149   4.546  3.9190 -0.2173 -1.1212
  869MOL0     H17273  10.110   7.022   4.307  0.3647 -2.6415 -0.2163
  869MOL0     H17274  10.195   6.907   4.407 -0.1682  0.3074  1.3346
  869MOL0     H17275  10.099   7.238   4.298 -0.7085  0.5061  1.8253
  869MOL0     H17276  10.019   7.546   4.320 -0.6643  0.6638 -0.0300
  869MOL0     H17277  10.096   7.551   4.154 -0.5388 -0.3830 -1.1418
  869MOL0     H17278  10.003   7.412   4.206  0.0112  1.9503 -1.8685
  869MOL0     H17279  10.687   7.802   4.361  3.5349  3.8178  1.8882
  869MOL0     H17280  10.753   8.018   4.363  1.3602  0.6723  1.9453
  869MOL0     H17281  10.438   8.335   4.285  0.3279  3.2431  1.2954
  869MOL0     H17282  10.470   8.344   4.461  0.8580  1.8375  0.3111
  869MOL0     H17283  10.501   8.535   4.325  0.0300 -0.1603 -0.9456
  869MOL0     H17284  10.651   8.489   4.412  2.6571 -4.4025 -0.4969
  869MOL0     H17285  10.599   8.386   4.119 -2.4827 -0.1010 -0.0039
  869MOL0     H17286  10.752   8.413   4.206 -2.1805 -2.3478 -0.4155
  869MOL0     H17287  10.563   8.630   4.100  0.1326  1.0258  0.6279
  869MOL0     H17288  10.731   8.650   4.167  2.1084 -0.6446 -0.1023
  869MOL0     H17289  10.641   8.500   3.926  1.6705 -2.6059 -0.6316
  869MOL0     H17290  10.808   8.533   3.970 -1.8858 -2.7268 -2.5168
  869MOL0     H17291  10.770   8.778   3.910 -0.4459  0.6563 -0.5036
  869MOL0     H17292  10.722   8.666   3.779  0.2752  2.7688 -0.8032
  869MOL0     H17293  10.557   8.873   3.831 -1.0326  0.7073  1.4774
  869MOL0     H17294  10.554   8.825   3.989  1.6659 -1.5409  0.2890
  869MOL0     H17295  10.347   8.755   3.868 -1.0227  0.8721 -2.0609
  869MOL0     H17296  10.448   8.601   3.875 -0.6669 -0.5514 -3.0278
  869MOL0     H17297  10.339   8.159   4.378 -2.7210 -2.4778 -1.4176
  869MOL0     H17298  10.263   7.910   4.382 -1.1341  5.3291 -0.8512
  869MOL0     H17299  10.510   7.471   4.441  0.4277 -1.7671  0.2611
  869MOL0     H17300  10.478   7.229   4.472 -0.2578 -0.1902  2.4561
  869MOL0     H17301   8.926   6.197   4.173  0.9025  0.2466 -0.2545
  869MOL0     H17302   8.856   5.984   4.272 -1.2826 -1.0160  1.7728
  869MOL0     H17303   8.317   5.830   4.539 -4.3833 -2.5107  0.2939
  869MOL0     H17304   8.251   5.627   4.661 -1.2181  1.0837 -3.7542
  869MOL0     H17305   8.290   5.515   4.922 -0.0176 -1.8742  2.2051
  869MOL0     H17306   8.225   5.439   4.773 -0.3528 -0.2762  1.3598
  869MOL0     H17307   8.423   5.311   4.971 -2.6281  1.4761  5.0373
  869MOL0     H17308   8.330   5.220   4.841 -6.1746 -0.8091  0.9329
  869MOL0     H17309   8.122   5.256   4.959  0.5286 -2.4762  0.1861
  869MOL0     H17310   8.207   5.356   5.083 -1.5377 -1.1465  1.3730
  869MOL0     H17311   8.311   5.164   5.172 -1.2490  0.3083  0.4152
  869MOL0     H17312   8.278   5.069   5.028  4.2905  0.1277  2.8862
  869MOL0     H17313   7.926   5.034   5.251  0.1533  1.9578 -1.7791
  869MOL0     H17314   8.653   5.523   4.716  1.3588  0.3864 -0.1491
  869MOL0     H17315   8.742   5.728   4.607  0.5794 -0.3629  2.1087
  870MOL0     O17316  11.513   3.013   2.586 -0.5174  0.3019 -0.1264
  870MOL0     C17317  11.435   3.030   2.678  0.3535 -0.7336  0.2439
  870MOL0     O17318  11.458   3.104   2.791 -1.1167  0.4255  0.4041
  870MOL0     C17319  11.577   3.168   2.801 -0.4913 -0.4747 -0.0868
  870MOL0     C17320  11.594   3.299   2.751  1.3116 -0.6291 -0.2337
  870MOL0     C17321  11.716   3.360   2.737 -0.1560 -0.1099 -0.0474
  870MOL0     C17322  11.831   3.290   2.778  0.2981 -1.1324  0.0654
  870MOL0     O17323  11.954   3.348   2.770  0.7004 -0.3817 -0.1260
  870MOL0     C17324  11.971   3.484   2.815  1.5344 -0.0528  0.7276
  870MOL0     C17325  12.109   3.528   2.773 -0.0936 -0.8119 -0.1121
  870MOL0     C17326  12.109   3.526   2.626 -1.3207  0.7717 -0.0717
  870MOL0     C17327  12.242   3.578   2.554  0.4774 -0.6180  0.8876
  870MOL0     C17328  12.220   3.616   2.408 -0.4627 -0.6571 -0.2328
  870MOL0     C17329  12.346   3.691   2.358  0.1003  0.1615  0.1071
  870MOL0     C17330  12.361   3.678   2.206 -0.1186  0.8431 -0.5353
  870MOL0     C17331  12.437   3.796   2.156  0.0855  0.5913 -0.3320
  870MOL0     N17332  12.581   3.773   2.168  0.0099 -0.0225 -0.5265
  870MOL0     C17333  12.643   3.679   2.088 -0.1307  0.6868 -1.1839
  870MOL0     C17334  12.768   3.668   2.146 -0.1571  0.2190 -0.6728
  870MOL0     C17335  12.884   3.589   2.090  1.0841  0.0522 -0.3193
  870MOL0     C17336  12.953   3.677   1.985  1.0736  0.6733 -0.6306
  870MOL0     C17337  13.087   3.626   1.944 -0.0540  0.1493 -0.8163
  870MOL0     C17338  13.192   3.633   2.054 -0.0318  0.8604  0.3471
  870MOL0     O17339  13.326   3.602   1.992  0.6711 -0.5005 -0.3432
  870MOL0     C17340  13.374   3.478   1.962 -0.4844 -0.2422  0.3526
  870MOL0     C17341  13.308   3.357   1.962  0.1773  0.0272  0.1014
  870MOL0     C17342  13.393   3.246   1.942  0.8887  0.0194 -0.0218
  870MOL0     C17343  13.335   3.111   1.956 -0.2529  0.2593 -0.6537
  870MOL0     C17344  13.530   3.248   1.908 -0.3696 -1.4855 -0.0726
  870MOL0     C17345  13.632   3.136   1.890 -0.5776 -0.2657 -0.4876
  870MOL0     O17346  13.767   3.170   1.879  0.3274 -1.1398  0.1191
  870MOL0     C17347  13.858   3.066   1.870 -0.4242 -0.9336  1.2842
  870MOL0     C17348  13.872   2.971   1.975 -0.0380  0.3345 -0.1848
  870MOL0     C17349  13.982   2.886   1.979 -0.0097  0.1244 -0.0652
  870MOL0     C17350  14.074   2.899   1.872 -0.0003  0.7036 -0.8658
  870MOL0     O17351  14.194   2.825   1.883  0.2269 -0.3394 -0.1169
  870MOL0     C17352  14.239   2.749   1.768 -0.2872  1.1899  0.4723
  870MOL0     C17353  14.289   2.617   1.819 -0.9193  0.3841  0.0943
  870MOL0     C17354  14.179   2.532   1.890 -0.6325  0.5814  0.0566
  870MOL0     C17355  14.213   2.386   1.891  0.3878 -0.9947 -0.0691
  870MOL0     C17356  14.129   2.294   1.978  0.2377  0.6116 -0.9703
  870MOL0     C17357  13.981   2.281   1.957 -0.0235 -0.6917 -0.6594
  870MOL0     C17358  13.913   2.249   2.086 -0.2843  0.5379 -0.1359
  870MOL0     C17359  13.762   2.283   2.077  0.2931  0.6979 -1.0692
  870MOL0    Cl17360  13.678   2.164   1.972  0.3312 -0.2371 -0.0444
  870MOL0     C17361  14.064   2.995   1.772  0.1969 -0.8905  0.7996
  870MOL0     C17362  13.958   3.082   1.770  0.7769  0.2437 -0.9078
  870MOL0     O17363  13.594   3.021   1.875 -0.3503 -0.2605  0.7048
  870MOL0     C17364  13.594   3.379   1.916  0.4025 -0.0111 -0.2567
  870MOL0     C17365  13.515   3.486   1.934  0.2492 -0.0859  0.5361
  870MOL0     N17366  12.776   3.763   2.248  0.1629  0.1153 -0.2145
  870MOL0     N17367  12.668   3.829   2.264  0.5832 -0.5111 -0.6216
  870MOL0     C17368  11.823   3.160   2.838 -0.3936 -0.1107 -0.0084
  870MOL0     C17369  11.696   3.100   2.853  0.8865 -0.0706  0.8201
  870MOL0     C17370  11.299   2.963   2.672  0.7061 -0.3998  0.3811
  870MOL0     C17371  11.188   3.028   2.717 -1.7013  1.0348 -0.0950
  870MOL0     C17372  11.066   2.956   2.728 -0.4992  0.3630  0.9378
  870MOL0     C17373  11.049   2.824   2.683 -0.3921  0.9127  0.6663
  870MOL0     O17374  10.947   2.739   2.702  0.0154 -0.4999 -0.3937
  870MOL0     C17375  10.871   2.755   2.816 -0.3212 -0.8519 -0.3801
  870MOL0     C17376  10.797   2.633   2.854 -1.0533  0.6487 -1.4793
  870MOL0     C17377  10.779   2.613   3.005  0.0039  0.3102 -1.0690
  870MOL0     C17378  10.686   2.731   3.054  1.4959 -0.1173 -0.0621
  870MOL0     C17379  10.549   2.674   3.073 -0.8880 -0.4951 -0.1341
  870MOL0     C17380  10.449   2.622   3.111 -0.5383 -0.5184  0.2547
  870MOL0     C17381  11.158   2.765   2.615 -0.2997  0.5662 -0.0582
  870MOL0     C17382  11.287   2.834   2.614  0.6696 -0.6520  0.0168
  870MOL0     H17383  11.499   3.341   2.718 -0.3105 -4.3511 -0.8210
  870MOL0     H17384  11.722   3.464   2.706  0.5592 -0.4226 -1.0149
  870MOL0     H17385  11.896   3.551   2.773  1.9488 -1.4888 -2.6717
  870MOL0     H17386  11.947   3.478   2.922 -0.4465 -1.5253  0.2571
  870MOL0     H17387  12.128   3.630   2.811 -1.5231 -1.1489  1.7030
  870MOL0     H17388  12.180   3.456   2.814 -0.5104 -0.1227  1.9966
  870MOL0     H17389  12.102   3.422   2.591  2.9468 -0.2181  1.4773
  870MOL0     H17390  12.029   3.595   2.596 -2.3576 -0.4322 -0.1918
  870MOL0     H17391  12.263   3.672   2.605  1.5609 -0.4693  0.1894
  870MOL0     H17392  12.320   3.504   2.573 -1.2620 -2.9940 -0.5302
  870MOL0     H17393  12.196   3.523   2.355  0.5073 -1.8081  1.2677
  870MOL0     H17394  12.130   3.678   2.399  0.1255  0.0905 -1.2410
  870MOL0     H17395  12.341   3.796   2.389 -0.0530  0.2570 -0.2399
  870MOL0     H17396  12.435   3.652   2.408 -0.6996 -0.1667  1.3170
  870MOL0     H17397  12.400   3.581   2.174 -1.1482  1.1741 -3.0193
  870MOL0     H17398  12.259   3.673   2.167  0.2643 -2.4243 -1.4417
  870MOL0     H17399  12.407   3.888   2.207  1.3333  0.0972  1.3897
  870MOL0     H17400  12.414   3.809   2.050 -0.5876 -0.4881 -0.3389
  870MOL0     H17401  12.600   3.617   2.010 -0.5241  1.0603 -1.2691
  870MOL0     H17402  12.947   3.536   2.162 -0.8057  0.2743  1.5880
  870MOL0     H17403  12.841   3.502   2.041 -3.3136  1.5274  0.4879
  870MOL0     H17404  12.966   3.778   2.024 -1.9987  1.3109 -1.0222
  870MOL0     H17405  12.884   3.677   1.900 -1.0021 -0.7539  0.9414
  870MOL0     H17406  13.133   3.678   1.859  4.9219 -3.0447 -0.4842
  870MOL0     H17407  13.081   3.522   1.912 -0.5893 -0.4661  1.1525
  870MOL0     H17408  13.171   3.558   2.131  2.4378 -2.5080 -1.9380
  870MOL0     H17409  13.194   3.730   2.105 -2.6209  0.6904  0.8847
  870MOL0     H17410  13.206   3.351   1.998  1.1356  0.2099  3.1007
  870MOL0     H17411  13.236   3.121   2.002  0.3506  1.7073  0.4337
  870MOL0     H17412  13.339   3.051   1.865 -0.4318 -2.8980  1.2807
  870MOL0     H17413  13.385   3.054   2.035 -2.4573 -0.4121  0.3293
  870MOL0     H17414  13.800   2.948   2.052  0.8731 -3.2682 -0.1931
  870MOL0     H17415  13.982   2.807   2.054 -1.1816  2.6492  2.7891
  870MOL0     H17416  14.154   2.733   1.701  0.5579 -0.3478 -0.2674
  870MOL0     H17417  14.319   2.807   1.721 -0.7447  1.3607 -0.1119
  870MOL0     H17418  14.328   2.551   1.741 -0.0069  0.6647  0.3003
  870MOL0     H17419  14.381   2.642   1.873  0.2884  0.6230 -1.9475
  870MOL0     H17420  14.081   2.534   1.841 -0.1693  0.7787 -0.8823
  870MOL0     H17421  14.167   2.578   1.988  0.8897 -0.2335  0.6572
  870MOL0     H17422  14.211   2.351   1.788  0.8691 -0.2778 -0.3290
  870MOL0     H17423  14.314   2.384   1.934 -0.0780  1.8662  1.4482
  870MOL0     H17424  14.161   2.325   2.078 -3.3609  0.8016  0.2346
  870MOL0     H17425  14.156   2.188   1.976  0.3729  0.6505 -2.4308
  870MOL0     H17426  13.942   2.379   1.927 -1.7588 -1.1525 -0.0532
  870MOL0     H17427  13.959   2.200   1.888 -0.9830 -1.4696  0.5008
  870MOL0     H17428  13.942   2.322   2.162 -2.7233 -0.8726  2.3487
  870MOL0     H17429  13.932   2.144   2.110  0.0997  0.0449 -2.4461
  870MOL0     H17430  13.742   2.379   2.028  0.2657  1.9105  1.2169
  870MOL0     H17431  13.727   2.285   2.180  2.1779  0.5409 -0.3930
  870MOL0     H17432  14.147   3.014   1.704  0.1573 -0.0015  0.9915
  870MOL0     H17433  13.959   3.171   1.707  1.2300  1.0195  0.1506
  870MOL0     H17434  13.697   3.403   1.895  0.5356 -0.3783 -0.0335
  870MOL0     H17435  13.566   3.580   1.917  1.4818 -1.1339 -1.9979
  870MOL0     H17436  11.910   3.106   2.874 -1.4437 -1.3685  0.7192
  870MOL0     H17437  11.683   3.007   2.908  0.4118  0.2520  1.2642
  870MOL0     H17438  11.202   3.118   2.776  1.5857  0.6931 -0.1902
  870MOL0     H17439  10.987   2.997   2.790 -1.2026 -0.0811  0.3515
  870MOL0     H17440  10.938   2.781   2.899 -0.7651 -0.3459 -0.1699
  870MOL0     H17441  10.805   2.841   2.804 -0.5519 -0.7635  1.3102
  870MOL0     H17442  10.836   2.543   2.805 -2.6660 -0.5648 -0.6684
  870MOL0     H17443  10.700   2.636   2.803 -1.4080 -1.8836 -1.1240
  870MOL0     H17444  10.878   2.612   3.053 -1.2042  0.9309  1.6291
  870MOL0     H17445  10.730   2.519   3.032  2.1870 -0.6057 -0.0199
  870MOL0     H17446  10.679   2.820   2.990 -1.0575 -0.1985 -0.0217
  870MOL0     H17447  10.716   2.767   3.153 -1.9493  1.6387  0.5201
  870MOL0     H17448  10.361   2.571   3.145  0.7932 -1.8730  1.8651
  870MOL0     H17449  11.150   2.662   2.585 -2.2694  1.0048 -1.2241
  870MOL0     H17450  11.371   2.773   2.582  0.7118 -0.2870 -0.5774
  871MOL0     O17451  10.181  10.234   0.757 -0.6647 -0.4406 -0.4706
  871MOL0     C17452  10.138  10.347   0.778 -0.5753  0.0853 -0.4615
  871MOL0     O17453  10.063  10.391   0.880 -0.2362  0.5699 -0.3125
  871MOL0     C17454  10.038  10.312   0.986 -0.4485 -0.1124  0.1324
  871MOL0     C17455   9.924  10.231   0.996 -1.3184  0.4377 -0.2725
  871MOL0     C17456   9.908  10.143   1.099 -0.0324  1.2031  0.2445
  871MOL0     C17457  10.014  10.124   1.196  0.1901  0.1015 -0.4211
  871MOL0     O17458   9.986  10.042   1.302 -0.7493 -0.5592  0.2744
  871MOL0     C17459  10.087  10.024   1.408 -0.7085  0.4760  0.8603
  871MOL0     C17460  10.045   9.913   1.498 -0.3461  0.8215  0.5648
  871MOL0     C17461  10.042   9.773   1.430 -0.4874  0.1666 -0.2236
  871MOL0     C17462  10.043   9.652   1.512 -0.4505  0.5691 -0.4110
  871MOL0     C17463   9.990   9.531   1.436  0.0272  0.4701  0.0522
  871MOL0     C17464  10.065   9.469   1.325  0.1923  0.3340 -0.1554
  871MOL0     C17465  10.195   9.392   1.378 -0.1282 -0.3040 -0.3083
  871MOL0     C17466  10.293   9.366   1.276 -1.0245  0.4527  0.0375
  871MOL0     N17467  10.425   9.305   1.327 -0.0981  0.2928  0.3882
  871MOL0     C17468  10.440   9.169   1.324 -0.3998  0.6245 -0.4499
  871MOL0     C17469  10.574   9.159   1.347  0.2203 -0.1161 -0.8626
  871MOL0     C17470  10.646   9.023   1.365 -0.2982 -0.0764  0.2876
  871MOL0     C17471  10.662   8.966   1.511 -0.5850 -0.5629 -0.3255
  871MOL0     C17472  10.734   9.068   1.597  0.7345 -0.4136  0.2525
  871MOL0     C17473  10.882   9.088   1.562 -0.2541  0.3565 -0.6844
  871MOL0     O17474  10.945   9.144   1.679 -0.0318  0.9979  0.3992
  871MOL0     C17475  10.966   9.274   1.685  0.0704 -0.7868 -0.9865
  871MOL0     C17476  10.904   9.369   1.605  0.1691 -0.2981  0.5998
  871MOL0     C17477  10.947   9.504   1.622  1.4554 -1.0713 -0.0459
  871MOL0     C17478  10.857   9.592   1.543  0.6632 -0.0479  0.0951
  871MOL0     C17479  11.056   9.542   1.700  0.2147  0.0830  0.0332
  871MOL0     C17480  11.105   9.681   1.707 -0.5017  0.3274  0.1499
  871MOL0     O17481  11.155   9.723   1.822  0.7383 -0.4690 -0.4076
  871MOL0     C17482  11.203   9.849   1.843 -0.7362 -0.8458 -0.6856
  871MOL0     C17483  11.264   9.935   1.742  0.7404 -0.0966 -0.0329
  871MOL0     C17484  11.305  10.063   1.780  0.1127  0.2799 -0.6615
  871MOL0     C17485  11.285  10.105   1.913  0.9110  0.2631  0.0969
  871MOL0     O17486  11.307  10.240   1.940  0.4866 -0.0803  0.3550
  871MOL0     C17487  11.362  10.277   2.068  0.8471  0.4812 -0.1505
  871MOL0     C17488  11.260  10.346   2.153  0.0625  0.0709  0.0962
  871MOL0     C17489  11.220  10.477   2.091 -0.7388  0.5243 -0.2340
  871MOL0     C17490  11.112  10.555   2.160  0.5577  0.1953 -0.6195
  871MOL0     C17491  11.154  10.611   2.298  0.3364  0.0344  0.0073
  871MOL0     C17492  11.231  10.743   2.282  0.5301 -1.1847 -0.8135
  871MOL0     C17493  11.289  10.813   2.408 -0.1704  0.2624  0.2295
  871MOL0     C17494  11.395  10.729   2.480 -0.5976 -0.1008 -0.8144
  871MOL0    Cl17495  11.370  10.736   2.655  0.4614 -0.3360 -0.1321
  871MOL0     C17496  11.219  10.022   2.000 -0.0143  0.3805 -0.3153
  871MOL0     C17497  11.174   9.897   1.969  0.2367  0.1016 -0.5515
  871MOL0     O17498  11.081   9.750   1.606  0.3336  0.7022  0.3992
  871MOL0     C17499  11.120   9.444   1.782  0.3772  0.5231 -0.0539
  871MOL0     C17500  11.070   9.312   1.770 -0.1744  0.6116 -0.1843
  871MOL0     N17501  10.628   9.282   1.371  0.7325 -0.1718  1.0214
  871MOL0     N17502  10.544   9.376   1.348 -0.5114  0.5098 -0.3825
  871MOL0     C17503  10.118  10.215   1.200 -0.4416  0.3082  0.2538
  871MOL0     C17504  10.132  10.305   1.097 -0.3163  0.1604  0.1410
  871MOL0     C17505  10.133  10.446   0.666 -0.7331  0.0294 -0.5427
  871MOL0     C17506  10.043  10.560   0.675  0.4813 -0.2178 -0.4705
  871MOL0     C17507  10.039  10.660   0.577 -0.2963 -0.3734 -1.3169
  871MOL0     C17508  10.117  10.649   0.462 -0.4230  0.6822  0.5903
  871MOL0     O17509  10.097  10.753   0.375  0.0707  0.3721  0.2965
  871MOL0     C17510  10.205  10.823   0.318 -0.3540 -0.8717 -0.4636
  871MOL0     C17511  10.214  10.950   0.416 -0.1102  0.3439 -0.2624
  871MOL0     C17512  10.316  11.062   0.383 -0.5870 -1.0455 -0.1888
  871MOL0     C17513  10.329  11.119   0.242  0.3044  0.2659  0.4663
  871MOL0     C17514  10.203  11.188   0.195 -0.5509  0.7098  0.5567
  871MOL0     C17515  10.103  11.251   0.170  0.2892  0.3665  0.5874
  871MOL0     C17516  10.220  10.550   0.457  0.2278 -0.5406 -0.1586
  871MOL0     C17517  10.222  10.445   0.549 -0.9730  0.8984 -0.0089
  871MOL0     H17518   9.839  10.231   0.928 -3.0059 -3.2562  1.5649
  871MOL0     H17519   9.817  10.086   1.114 -0.3907  2.3825  3.3555
  871MOL0     H17520  10.188  10.003   1.370  0.5198  4.5650  1.2748
  871MOL0     H17521  10.097  10.111   1.474 -2.1293  1.8293 -0.6163
  871MOL0     H17522  10.104   9.901   1.589 -1.8896 -4.0963  1.1888
  871MOL0     H17523   9.943   9.940   1.527 -0.5992 -1.5741  2.1768
  871MOL0     H17524   9.961   9.775   1.357 -0.0272 -1.2145 -0.8104
  871MOL0     H17525  10.132   9.760   1.368 -0.8148 -1.9770 -0.3095
  871MOL0     H17526  10.141   9.631   1.556 -0.5030 -0.1075 -0.6122
  871MOL0     H17527   9.987   9.659   1.606 -0.1893  0.2434 -0.2265
  871MOL0     H17528   9.980   9.463   1.522 -0.4433  2.0342  1.2877
  871MOL0     H17529   9.889   9.552   1.398  0.6277  1.2900 -1.1426
  871MOL0     H17530   9.995   9.403   1.272 -0.0151  1.7283 -1.7220
  871MOL0     H17531  10.100   9.548   1.257  1.4980  3.1800  3.5176
  871MOL0     H17532  10.239   9.447   1.462 -1.1711  0.2790 -0.1292
  871MOL0     H17533  10.166   9.296   1.420 -1.3006 -0.5676 -1.6402
  871MOL0     H17534  10.312   9.461   1.227  0.6002  0.8383  1.3433
  871MOL0     H17535  10.257   9.301   1.196 -0.4133 -0.4915  0.5121
  871MOL0     H17536  10.366   9.090   1.312  1.1208 -1.1741  1.3380
  871MOL0     H17537  10.590   8.951   1.305  0.7117 -1.2338  0.6919
  871MOL0     H17538  10.742   9.038   1.316  0.3382 -0.5703  1.3269
  871MOL0     H17539  10.720   8.874   1.499  0.2872  0.3127 -3.6903
  871MOL0     H17540  10.560   8.953   1.549  0.2664 -1.8320  1.7164
  871MOL0     H17541  10.727   9.038   1.702  2.1888  1.6147  0.9873
  871MOL0     H17542  10.686   9.166   1.596 -0.5336 -0.9945 -1.7089
  871MOL0     H17543  10.895   9.147   1.472  4.6614 -1.3037 -1.3641
  871MOL0     H17544  10.926   8.991   1.537 -1.8025 -0.0900 -1.8351
  871MOL0     H17545  10.827   9.344   1.533  0.4754 -0.3523  0.2899
  871MOL0     H17546  10.765   9.537   1.519 -1.4326  4.1588 -2.6756
  871MOL0     H17547  10.822   9.676   1.604 -0.8477 -0.5398 -0.0621
  871MOL0     H17548  10.909   9.628   1.454 -1.6708  0.1796 -1.2699
  871MOL0     H17549  11.274   9.905   1.639 -2.6946 -0.1507 -0.4854
  871MOL0     H17550  11.354  10.124   1.704 -1.8485 -2.5923 -4.6367
  871MOL0     H17551  11.409  10.187   2.111  0.5970  0.6553  0.5012
  871MOL0     H17552  11.450  10.335   2.041  2.2585 -0.6495  1.7762
  871MOL0     H17553  11.172  10.281   2.150 -0.2722  0.5134  0.2336
  871MOL0     H17554  11.297  10.351   2.255 -2.0879 -0.0251  0.9296
  871MOL0     H17555  11.175  10.449   1.995  1.5733 -0.7495 -1.0437
  871MOL0     H17556  11.303  10.540   2.057  1.7308 -1.1943  2.2090
  871MOL0     H17557  11.078  10.626   2.085  0.1076  1.1701  0.4787
  871MOL0     H17558  11.037  10.480   2.184  4.1709 -3.2668  1.0014
  871MOL0     H17559  11.207  10.532   2.352  0.0051  0.2491  0.6527
  871MOL0     H17560  11.066  10.631   2.360  0.4854 -2.7380  1.2320
  871MOL0     H17561  11.320  10.724   2.221 -0.2442 -0.1258 -2.3542
  871MOL0     H17562  11.163  10.818   2.240  1.5645 -0.5011 -1.3372
  871MOL0     H17563  11.195  10.816   2.464 -1.4209  1.3987 -1.7958
  871MOL0     H17564  11.329  10.909   2.375  3.1351 -0.2820  2.1929
  871MOL0     H17565  11.491  10.771   2.449 -1.2731  0.0518 -2.8549
  871MOL0     H17566  11.385  10.623   2.455 -2.8898 -0.3179  0.6912
  871MOL0     H17567  11.203  10.053   2.103  0.0791 -3.1379  0.8844
  871MOL0     H17568  11.126   9.835   2.043  0.0352  2.1156  1.1060
  871MOL0     H17569  11.208   9.481   1.833 -0.4492  1.8021  0.5256
  871MOL0     H17570  11.122   9.232   1.823  0.6489  1.8469  0.9398
  871MOL0     H17571  10.185  10.229   1.284 -0.0984  0.2725 -0.0119
  871MOL0     H17572  10.216  10.373   1.106 -0.1650  0.1276 -0.8561
  871MOL0     H17573   9.998  10.584   0.771 -1.0258  0.1932 -1.2512
  871MOL0     H17574   9.968  10.742   0.582 -0.1959 -0.3083 -0.8585
  871MOL0     H17575  10.295  10.761   0.312  2.8363  2.9110  2.7680
  871MOL0     H17576  10.166  10.848   0.219 -3.1214 -4.3010 -0.4579
  871MOL0     H17577  10.218  10.918   0.521 -5.6939  1.3348  0.5297
  871MOL0     H17578  10.119  11.002   0.406 -0.6277 -0.5655 -0.1014
  871MOL0     H17579  10.415  11.017   0.395  0.5572  0.4323 -3.0858
  871MOL0     H17580  10.301  11.150   0.446  1.6181  0.7897 -2.0223
  871MOL0     H17581  10.350  11.042   0.168 -3.0083  0.4685 -0.8320
  871MOL0     H17582  10.410  11.193   0.235 -1.1977  1.9562  0.3852
  871MOL0     H17583  10.024  11.320   0.148 -0.9814 -1.3863 -0.5888
  871MOL0     H17584  10.297  10.553   0.381  1.2326 -0.3685  0.8359
  871MOL0     H17585  10.299  10.369   0.537 -1.6027 -0.0630  1.6882
  872MOL0     O17586   3.198   0.866   5.615 -0.5947 -0.1799  0.1433
  872MOL0     C17587   3.171   0.939   5.711 -1.0060  0.8168 -0.4751
  872MOL0     O17588   3.231   0.922   5.832 -0.2925  0.0771 -0.1524
  872MOL0     C17589   3.362   0.883   5.849 -0.5939  0.1301 -0.4977
  872MOL0     C17590   3.475   0.921   5.768  0.3741 -0.0787 -0.6567
  872MOL0     C17591   3.605   0.871   5.800 -0.2522 -0.7023 -0.1692
  872MOL0     C17592   3.630   0.788   5.912 -0.1077  0.7550  0.0601
  872MOL0     O17593   3.749   0.731   5.931  0.0162  0.7145 -1.1418
  872MOL0     C17594   3.739   0.591   5.904  0.8955  0.4009  1.2709
  872MOL0     C17595   3.860   0.512   5.959  0.4422 -0.5235  0.3660
  872MOL0     C17596   3.867   0.478   6.105  0.5551  0.6073 -0.5628
  872MOL0     C17597   3.892   0.602   6.190  1.0156  0.1103  0.2510
  872MOL0     C17598   4.041   0.626   6.183  0.5739  1.0877 -0.3091
  872MOL0     C17599   4.114   0.603   6.313  0.4627 -1.3459 -0.5437
  872MOL0     C17600   4.083   0.729   6.409  0.4059 -0.4879  0.7548
  872MOL0     C17601   4.180   0.741   6.536  1.0149  0.4129 -0.1722
  872MOL0     N17602   4.131   0.843   6.633  0.4579  0.5468 -0.1200
  872MOL0     C17603   4.041   0.841   6.742 -0.9272  0.4320 -0.4129
  872MOL0     C17604   4.033   0.972   6.771  0.0510  0.6154 -0.6605
  872MOL0     C17605   3.952   1.041   6.887 -0.3693  0.4187 -0.2237
  872MOL0     C17606   3.807   1.033   6.852  0.4984 -0.2529  0.3171
  872MOL0     C17607   3.753   1.105   6.727  0.2020 -0.2947 -0.4655
  872MOL0     C17608   3.789   1.255   6.732  0.0180 -0.4915 -0.3746
  872MOL0     O17609   3.858   1.301   6.617 -0.7997  0.6809 -0.6353
  872MOL0     C17610   3.786   1.368   6.529 -0.0339 -0.2273  0.3913
  872MOL0     C17611   3.656   1.338   6.485 -0.0686 -1.0483 -0.4442
  872MOL0     C17612   3.586   1.412   6.398 -0.2451 -0.1855  0.8371
  872MOL0     C17613   3.441   1.368   6.366  0.4339 -0.0973 -0.4994
  872MOL0     C17614   3.644   1.518   6.330  0.5038  0.6555  0.4850
  872MOL0     C17615   3.579   1.618   6.240 -0.3345  0.4278  0.5173
  872MOL0     O17616   3.670   1.695   6.166 -0.3926  1.0273  0.8561
  872MOL0     C17617   3.624   1.802   6.101  0.1385 -0.2124  0.2418
  872MOL0     C17618   3.682   1.927   6.116 -0.3973 -0.8108 -0.0017
  872MOL0     C17619   3.629   2.032   6.047  0.3169  0.3884  0.7525
  872MOL0     C17620   3.519   2.022   5.960  0.6078  0.1172 -1.1075
  872MOL0     O17621   3.470   2.133   5.897 -0.7762  0.2271  0.3075
  872MOL0     C17622   3.330   2.129   5.900  0.3945  0.5043 -0.2004
  872MOL0     C17623   3.278   2.264   5.876  1.2374  0.3649  0.2430
  872MOL0     C17624   3.122   2.280   5.850 -0.2268  0.4425  0.1522
  872MOL0     C17625   3.056   2.196   5.742 -0.6804 -0.4114  0.1890
  872MOL0     C17626   2.906   2.229   5.729 -0.1646 -0.6520 -0.1482
  872MOL0     C17627   2.865   2.378   5.683 -0.1971  0.0938  0.2967
  872MOL0     C17628   2.927   2.399   5.546  0.9343 -0.7290 -0.3415
  872MOL0     C17629   2.845   2.494   5.470 -0.2359  0.0829  0.1109
  872MOL0    Cl17630   2.798   2.643   5.552 -0.0519 -0.2464 -0.2029
  872MOL0     C17631   3.473   1.898   5.930  0.1597 -0.9132 -0.6181
  872MOL0     C17632   3.524   1.787   5.998 -0.4160  0.6050  0.2861
  872MOL0     O17633   3.449   1.636   6.234 -0.3173 -0.3210 -0.7912
  872MOL0     C17634   3.775   1.546   6.373  0.0567  0.1432 -0.2078
  872MOL0     C17635   3.845   1.466   6.457 -0.6245 -0.4624 -0.8464
  872MOL0     N17636   4.113   1.047   6.696  0.0744 -0.2421  0.4508
  872MOL0     N17637   4.168   0.967   6.615 -0.4718  0.0341  1.0308
  872MOL0     C17638   3.524   0.777   6.004 -1.4001  0.5240  0.1638
  872MOL0     C17639   3.388   0.808   5.966  0.8821 -0.5246  0.3371
  872MOL0     C17640   3.051   1.029   5.713 -0.2369  0.1622  0.0361
  872MOL0     C17641   2.963   1.012   5.608  0.5975 -0.3189 -0.4340
  872MOL0     C17642   2.838   1.080   5.619  0.2641 -0.0138  0.0405
  872MOL0     C17643   2.811   1.168   5.723  0.0627  0.0566  0.8890
  872MOL0     O17644   2.690   1.242   5.715  0.1873 -0.2623  0.3035
  872MOL0     C17645   2.704   1.364   5.629  0.1339  0.3037 -0.4140
  872MOL0     C17646   2.660   1.479   5.722  0.3802  1.0694  0.6107
  872MOL0     C17647   2.720   1.487   5.863  0.2899 -0.4733  0.2004
  872MOL0     C17648   2.725   1.633   5.903  0.7428 -0.8561 -0.0584
  872MOL0     C17649   2.729   1.647   6.050 -1.0461  0.4120  0.8466
  872MOL0     C17650   2.750   1.661   6.170 -0.6971  0.6306 -0.0084
  872MOL0     C17651   2.907   1.180   5.823 -0.1769 -0.0799  0.1984
  872MOL0     C17652   3.024   1.110   5.817 -0.4826  0.0797  0.0808
  872MOL0     H17653   3.460   0.994   5.690 -0.3322  2.0814  1.3751
  872MOL0     H17654   3.680   0.906   5.730 -1.6744  0.5322 -1.1271
  872MOL0     H17655   3.644   0.549   5.939  0.8340 -1.1067 -0.5439
  872MOL0     H17656   3.744   0.575   5.796 -1.5588 -1.1995  1.3142
  872MOL0     H17657   3.857   0.412   5.916  1.8681 -0.9394  1.1855
  872MOL0     H17658   3.951   0.562   5.923  1.1190 -2.3415 -0.5632
  872MOL0     H17659   3.773   0.428   6.131 -0.6726  2.8719 -0.4337
  872MOL0     H17660   3.946   0.403   6.119 -2.3689 -2.1621  2.9771
  872MOL0     H17661   3.852   0.696   6.152  2.2367  0.8538  0.7339
  872MOL0     H17662   3.848   0.581   6.287 -3.3680  0.9204 -1.3387
  872MOL0     H17663   4.092   0.565   6.107  0.2301 -1.2063  1.1942
  872MOL0     H17664   4.054   0.731   6.154  2.3735  0.9707 -0.0380
  872MOL0     H17665   4.095   0.502   6.352 -2.7837  0.1438  2.3325
  872MOL0     H17666   4.220   0.606   6.287  0.6845  2.4206  0.2370
  872MOL0     H17667   4.089   0.825   6.357 -1.6699 -0.6599  0.1104
  872MOL0     H17668   3.979   0.719   6.441  0.6256  0.8624  1.9948
  872MOL0     H17669   4.282   0.767   6.508  1.4928  2.8155  3.2008
  872MOL0     H17670   4.187   0.643   6.585  0.1911  0.9671  1.1261
  872MOL0     H17671   3.985   0.765   6.795 -0.8640 -1.5180 -2.9080
  872MOL0     H17672   3.967   0.987   6.980  0.8956 -1.6537 -1.5492
  872MOL0     H17673   3.996   1.140   6.899 -1.3120  1.1256 -2.1090
  872MOL0     H17674   3.761   1.074   6.943  1.1101  0.2484  0.4090
  872MOL0     H17675   3.779   0.928   6.839 -1.8297  0.2056  1.0709
  872MOL0     H17676   3.646   1.085   6.717  0.0278  1.2472 -2.3244
  872MOL0     H17677   3.801   1.063   6.639  0.3883 -0.9499 -0.0602
  872MOL0     H17678   3.848   1.280   6.821  0.3549  2.2259 -1.2769
  872MOL0     H17679   3.699   1.312   6.757 -0.1126 -0.6289 -0.5299
  872MOL0     H17680   3.611   1.268   6.555  1.9069 -1.8294  0.1194
  872MOL0     H17681   3.358   1.429   6.404 -1.8238 -2.5445 -1.1817
  872MOL0     H17682   3.433   1.382   6.257  3.2108  0.0914 -0.7310
  872MOL0     H17683   3.431   1.263   6.394 -1.8728  0.7333  2.3113
  872MOL0     H17684   3.769   1.936   6.181 -0.5300  1.2152 -0.0632
  872MOL0     H17685   3.667   2.132   6.064 -0.2107  0.1574  3.8680
  872MOL0     H17686   3.303   2.067   5.814 -1.7328  0.6668  0.2908
  872MOL0     H17687   3.298   2.097   6.000 -0.9009  3.7328  0.5558
  872MOL0     H17688   3.297   2.316   5.970 -2.0713 -0.5217  1.5362
  872MOL0     H17689   3.326   2.312   5.790  3.0383  0.2119  1.1087
  872MOL0     H17690   3.108   2.381   5.810  0.9297 -0.8524 -4.1156
  872MOL0     H17691   3.070   2.258   5.944 -0.1107 -3.2931 -0.4760
  872MOL0     H17692   3.099   2.202   5.641 -1.6508  0.5673 -0.1896
  872MOL0     H17693   3.067   2.092   5.774  3.8078  0.1001  1.0408
  872MOL0     H17694   2.857   2.223   5.827  0.7558 -1.4802  0.2863
  872MOL0     H17695   2.856   2.159   5.662  0.9756 -3.2397  1.5166
  872MOL0     H17696   2.756   2.383   5.684 -0.2121 -0.0060  2.0257
  872MOL0     H17697   2.904   2.452   5.753 -0.0085  0.8668 -0.6122
  872MOL0     H17698   2.911   2.305   5.493 -0.0759  0.1864 -1.7147
  872MOL0     H17699   3.032   2.431   5.539  1.1116 -1.6560 -2.7899
  872MOL0     H17700   2.757   2.436   5.441 -1.5143  1.6918  0.6497
  872MOL0     H17701   2.891   2.507   5.371 -0.6541 -0.1119 -0.1122
  872MOL0     H17702   3.385   1.884   5.868  0.0312 -1.5218 -0.3115
  872MOL0     H17703   3.480   1.688   5.988  2.6926 -0.7631 -0.8473
  872MOL0     H17704   3.818   1.641   6.339  0.0837  1.2101  2.5911
  872MOL0     H17705   3.948   1.496   6.474 -0.3237 -1.4122 -0.9541
  872MOL0     H17706   3.541   0.730   6.101  0.7776  0.0853 -0.3817
  872MOL0     H17707   3.303   0.777   6.026 -0.8255  0.7220 -1.3366
  872MOL0     H17708   2.971   0.944   5.524 -0.1174 -0.2920 -0.5251
  872MOL0     H17709   2.772   1.067   5.534  3.8768 -0.4525 -2.9696
  872MOL0     H17710   2.810   1.374   5.602  0.3389 -2.0685 -0.7258
  872MOL0     H17711   2.636   1.348   5.544  2.3866 -3.1669 -1.7844
  872MOL0     H17712   2.554   1.460   5.739  0.5910 -1.1335 -0.2152
  872MOL0     H17713   2.675   1.567   5.659  0.4064  0.9943  0.5104
  872MOL0     H17714   2.821   1.446   5.865  1.2969  1.7529 -1.0280
  872MOL0     H17715   2.650   1.447   5.936 -4.8742  1.7185 -2.9501
  872MOL0     H17716   2.645   1.694   5.861  0.8260  0.1793  1.2340
  872MOL0     H17717   2.817   1.676   5.863  0.3705  0.5549  0.5340
  872MOL0     H17718   2.771   1.661   6.275  1.5503 -1.9555 -0.3476
  872MOL0     H17719   2.882   1.232   5.915  1.2444 -2.0419  1.8000
  872MOL0     H17720   3.086   1.119   5.906 -2.4980  0.0678  1.5403
  873MOL0     O17721   9.097   0.533   9.332 -0.0912  0.1973  0.5282
  873MOL0     C17722   9.093   0.412   9.350  0.4919 -0.0292 -1.0034
  873MOL0     O17723   8.975   0.350   9.368 -0.0814 -0.6729  0.6934
  873MOL0     C17724   8.855   0.423   9.376  0.7647  0.6821  0.3726
  873MOL0     C17725   8.767   0.432   9.267  0.2642 -0.3964 -0.2179
  873MOL0     C17726   8.651   0.496   9.275 -0.4064  1.1818 -0.3802
  873MOL0     C17727   8.608   0.560   9.397 -0.3156  0.4967  0.4513
  873MOL0     O17728   8.490   0.633   9.399 -0.2620 -0.1989  0.6792
  873MOL0     C17729   8.408   0.633   9.513  0.0237  0.9830  0.1983
  873MOL0     C17730   8.332   0.497   9.532 -0.2162  0.9779 -0.6440
  873MOL0     C17731   8.207   0.506   9.615  0.8318  0.8233  0.1909
  873MOL0     C17732   8.073   0.522   9.526 -0.1502 -0.2588  1.4996
  873MOL0     C17733   7.953   0.491   9.617  0.2175  0.7487 -0.1811
  873MOL0     C17734   7.834   0.486   9.517  0.0590 -0.0968 -0.1288
  873MOL0     C17735   7.690   0.458   9.554  0.1054  1.0304 -0.8575
  873MOL0     C17736   7.611   0.563   9.645  0.1383  0.0710  0.4359
  873MOL0     N17737   7.600   0.706   9.600  0.0548  0.6392  0.1066
  873MOL0     C17738   7.489   0.777   9.555 -0.3525  0.1295 -0.4521
  873MOL0     C17739   7.545   0.883   9.492 -0.0790 -1.1245  0.1361
  873MOL0     C17740   7.481   1.011   9.426 -0.5837  1.6268 -1.6764
  873MOL0     C17741   7.482   0.994   9.279 -1.1810  0.2613  0.1280
  873MOL0     C17742   7.390   1.080   9.201 -0.2323  0.1218 -1.2126
  873MOL0     C17743   7.427   1.230   9.209 -0.3537 -0.4583  0.2402
  873MOL0     O17744   7.297   1.298   9.197 -0.3916  0.4246  0.4594
  873MOL0     C17745   7.295   1.414   9.275 -0.5150  0.5657 -0.3811
  873MOL0     C17746   7.411   1.496   9.302 -0.3810  0.0226 -1.0792
  873MOL0     C17747   7.385   1.608   9.385 -0.3001  0.4650  0.5465
  873MOL0     C17748   7.512   1.661   9.437  0.4720  1.0873 -0.5145
  873MOL0     C17749   7.261   1.639   9.440  0.4374  0.1960  0.0862
  873MOL0     C17750   7.228   1.765   9.521 -0.3960 -0.7101  0.2591
  873MOL0     O17751   7.100   1.792   9.550 -0.1922 -0.7665 -0.3270
  873MOL0     C17752   7.072   1.911   9.614  0.2142  1.3137 -1.0139
  873MOL0     C17753   7.063   2.036   9.553 -0.2179  0.8907 -0.0373
  873MOL0     C17754   7.002   2.145   9.623  0.4608 -0.1762  0.3914
  873MOL0     C17755   6.991   2.136   9.765 -0.5227 -0.2482  1.0589
  873MOL0     O17756   6.935   2.249   9.821  1.2455 -0.2060 -0.2092
  873MOL0     C17757   6.998   2.303   9.936  0.6270 -0.6574  1.3552
  873MOL0     C17758   6.982   2.454   9.934 -0.3637 -0.3107 -0.2522
  873MOL0     C17759   7.104   2.513   9.865  0.1199  0.0804 -0.0396
  873MOL0     C17760   7.093   2.670   9.842 -0.0017 -0.3965 -0.1099
  873MOL0     C17761   7.221   2.725   9.782  0.0752  0.4397  0.3383
  873MOL0     C17762   7.253   2.865   9.807 -0.3094 -0.0761  0.1665
  873MOL0     C17763   7.258   2.911   9.955  0.2707 -1.0501 -0.3137
  873MOL0     C17764   7.359   2.854  10.053 -0.0240 -0.6043  0.6347
  873MOL0    Cl17765   7.339   2.934  10.215  0.4693  0.0643  0.1786
  873MOL0     C17766   7.037   2.027   9.830 -0.0386 -1.4678 -0.5212
  873MOL0     C17767   7.073   1.911   9.759 -0.8434  0.3831 -0.2346
  873MOL0     O17768   7.321   1.828   9.564  0.3152 -0.3214  0.0078
  873MOL0     C17769   7.149   1.567   9.397  0.2957 -0.0993 -0.2187
  873MOL0     C17770   7.168   1.456   9.315 -0.5481 -0.7397  0.4753
  873MOL0     N17771   7.681   0.866   9.486  0.2906 -0.5133  0.1392
  873MOL0     N17772   7.713   0.760   9.559  0.5496  0.2075  1.5715
  873MOL0     C17773   8.693   0.545   9.507 -0.0475  0.5961 -0.1274
  873MOL0     C17774   8.818   0.481   9.499  0.5294  0.0101 -0.2592
  873MOL0     C17775   9.217   0.335   9.336 -0.4641  0.0124 -0.7392
  873MOL0     C17776   9.336   0.388   9.282  0.2327 -0.2545  0.8972
  873MOL0     C17777   9.450   0.301   9.274  0.4755 -0.3268  0.0740
  873MOL0     C17778   9.437   0.163   9.316 -0.3339  0.1170 -0.1744
  873MOL0     O17779   9.536   0.070   9.318  0.4711 -0.4565  0.4211
  873MOL0     C17780   9.631   0.069   9.213  0.4387 -0.4507  0.0573
  873MOL0     C17781   9.571   0.019   9.085  0.5344  0.5312 -0.0636
  873MOL0     C17782   9.540  -0.132   9.093 -0.2241  1.2567  0.9275
  873MOL0     C17783   9.458  -0.185   8.969 -0.4889 -0.3163 -0.7936
  873MOL0     C17784   9.408  -0.327   8.983 -0.7976 -1.2284  0.4406
  873MOL0     C17785   9.368  -0.435   8.998 -1.3771 -1.6706  0.0674
  873MOL0     C17786   9.319   0.119   9.375 -1.0295  0.0940 -0.3693
  873MOL0     C17787   9.213   0.205   9.392  0.1641 -0.6734  0.9246
  873MOL0     H17788   8.804   0.388   9.174  0.4427  1.4171 -1.0459
  873MOL0     H17789   8.587   0.492   9.187  0.7135 -0.7674 -1.1588
  873MOL0     H17790   8.454   0.661   9.608  0.4113  0.9007  0.0394
  873MOL0     H17791   8.336   0.714   9.498  0.3592  1.3070  0.3171
  873MOL0     H17792   8.294   0.464   9.435  0.6873  0.9512 -0.9942
  873MOL0     H17793   8.397   0.413   9.558 -3.0096 -1.5198 -1.2141
  873MOL0     H17794   8.194   0.421   9.684  2.5454  0.9907  0.7682
  873MOL0     H17795   8.224   0.589   9.685  1.1397  1.6043 -0.7947
  873MOL0     H17796   8.071   0.617   9.473  0.2305 -0.3825  1.2605
  873MOL0     H17797   8.086   0.449   9.446  3.1274  3.7887 -2.1702
  873MOL0     H17798   7.946   0.393   9.665 -0.2580  1.7060  1.8104
  873MOL0     H17799   7.941   0.577   9.683 -2.2035 -0.5828  1.2446
  873MOL0     H17800   7.827   0.586   9.474 -4.0670  0.6836  1.9283
  873MOL0     H17801   7.867   0.410   9.445  2.6111 -1.5327  2.3404
  873MOL0     H17802   7.640   0.439   9.459  1.1586 -1.7697 -0.9463
  873MOL0     H17803   7.686   0.364   9.610 -1.5192  0.4028 -1.9781
  873MOL0     H17804   7.661   0.572   9.742  1.4563 -0.5341 -0.1538
  873MOL0     H17805   7.511   0.518   9.648  1.2010 -2.4483  2.0777
  873MOL0     H17806   7.386   0.754   9.580 -0.1707 -0.0652  0.1400
  873MOL0     H17807   7.379   1.018   9.463  0.6167 -3.3692  4.3441
  873MOL0     H17808   7.538   1.095   9.467  1.2534 -0.5519  0.5626
  873MOL0     H17809   7.447   0.892   9.259  0.5049 -0.5244  0.9454
  873MOL0     H17810   7.588   1.012   9.257 -1.3668  5.1780  1.9714
  873MOL0     H17811   7.287   1.077   9.237  0.5719  1.0185  1.4404
  873MOL0     H17812   7.401   1.053   9.096 -0.7608 -1.6920 -0.8325
  873MOL0     H17813   7.495   1.281   9.140 -4.4873  1.6311 -2.7011
  873MOL0     H17814   7.464   1.245   9.311  1.1487  2.0477 -0.5627
  873MOL0     H17815   7.509   1.464   9.267  1.3537 -1.2911  4.1625
  873MOL0     H17816   7.598   1.617   9.386  0.5699  1.7182 -0.9055
  873MOL0     H17817   7.521   1.769   9.425 -3.1207  1.7859  1.6626
  873MOL0     H17818   7.523   1.641   9.544  2.0835  0.2852 -0.7839
  873MOL0     H17819   7.085   2.049   9.447 -0.4239  2.3722  0.0860
  873MOL0     H17820   6.976   2.230   9.560 -2.8475 -1.9475 -0.8406
  873MOL0     H17821   6.944   2.271  10.025  0.4208 -1.8371  0.8308
  873MOL0     H17822   7.104   2.279   9.945  0.5068 -2.1420 -0.4286
  873MOL0     H17823   6.902   2.479   9.863  0.8061 -2.0300 -2.3056
  873MOL0     H17824   6.965   2.497  10.033 -2.4508  0.3504 -0.8405
  873MOL0     H17825   7.104   2.472   9.764 -0.0527  0.9289 -0.3954
  873MOL0     H17826   7.193   2.481   9.920 -1.9113 -1.3957  2.6542
  873MOL0     H17827   7.008   2.701   9.781 -0.5592  1.7663  1.6087
  873MOL0     H17828   7.080   2.702   9.946  1.1684 -3.1379  0.9752
  873MOL0     H17829   7.207   2.697   9.678 -0.0961 -0.9087  0.7011
  873MOL0     H17830   7.306   2.664   9.815 -0.2613 -2.0250 -2.8684
  873MOL0     H17831   7.347   2.890   9.756 -1.4651  0.9146 -1.5995
  873MOL0     H17832   7.178   2.925   9.754  1.7545  0.0831 -2.8700
  873MOL0     H17833   7.162   2.890  10.004  0.4220  1.4493  1.2515
  873MOL0     H17834   7.274   3.020   9.957 -1.1004 -0.7043 -2.9675
  873MOL0     H17835   7.462   2.873  10.022 -0.1333  2.0066  1.5768
  873MOL0     H17836   7.350   2.745  10.053  3.2745 -0.9969 -1.2637
  873MOL0     H17837   7.025   2.023   9.938  0.8709  4.1976  0.0788
  873MOL0     H17838   7.109   1.822   9.810  2.0246  0.5540 -1.7475
  873MOL0     H17839   7.050   1.592   9.433 -1.2411 -1.6105 -3.0138
  873MOL0     H17840   7.084   1.395   9.284 -0.1438 -0.8672 -0.4255
  873MOL0     H17841   8.678   0.596   9.601 -1.4066  2.4065 -1.2465
  873MOL0     H17842   8.887   0.465   9.581  0.8207 -1.3497 -0.7314
  873MOL0     H17843   9.332   0.487   9.237 -0.7844 -0.3016  0.8608
  873MOL0     H17844   9.542   0.348   9.240  0.2872  0.7047  0.9314
  873MOL0     H17845   9.664   0.173   9.203  0.6610 -0.6196 -1.0716
  873MOL0     H17846   9.710   0.001   9.245 -1.2652 -1.5712  2.1802
  873MOL0     H17847   9.650   0.032   9.011 -0.9211  1.3417 -1.5523
  873MOL0     H17848   9.483   0.078   9.058  0.2308 -1.0655 -2.9753
  873MOL0     H17849   9.478  -0.162   9.178 -0.9766 -1.0637 -0.3517
  873MOL0     H17850   9.632  -0.191   9.104 -0.4735  0.4103 -1.0478
  873MOL0     H17851   9.517  -0.190   8.877  0.1792 -4.6409 -0.3272
  873MOL0     H17852   9.380  -0.110   8.952  1.7919  1.9740 -2.0009
  873MOL0     H17853   9.318  -0.528   9.012 -1.5076 -1.6575 -0.3094
  873MOL0     H17854   9.322   0.014   9.401  2.5521  0.3974  0.9175
  873MOL0     H17855   9.117   0.162   9.420  0.2698 -1.6816 -0.1816
  874MOL0     O17856   5.503   8.856   2.244  0.2764 -0.1000  0.0343
  874MOL0     C17857   5.502   8.732   2.236 -0.0078  0.0270  0.3144
  874MOL0     O17858   5.389   8.657   2.209 -0.3043 -1.0345 -0.4513
  874MOL0     C17859   5.266   8.717   2.183 -0.8400  0.2132  0.5999
  874MOL0     C17860   5.205   8.686   2.061  0.6444 -0.6383 -0.4363
  874MOL0     C17861   5.079   8.740   2.030  0.2990  0.9894  0.9376
  874MOL0     C17862   5.017   8.830   2.116 -0.7833 -0.8155  0.1690
  874MOL0     O17863   4.892   8.874   2.102  0.2065 -0.2618 -0.2662
  874MOL0     C17864   4.859   8.895   1.963 -0.0889  0.4128 -0.5734
  874MOL0     C17865   4.741   8.991   1.959  0.3638  0.4075 -0.2173
  874MOL0     C17866   4.716   9.028   1.810 -0.2097  0.7496  0.6465
  874MOL0     C17867   4.560   9.063   1.794  0.0243 -0.6116 -0.2215
  874MOL0     C17868   4.529   9.208   1.834  0.1596  0.4747  0.9767
  874MOL0     C17869   4.588   9.313   1.747 -0.5845  0.5756  1.0536
  874MOL0     C17870   4.525   9.445   1.751 -0.5090 -0.1610 -0.1232
  874MOL0     C17871   4.600   9.549   1.663  0.4966 -0.7013  0.2420
  874MOL0     N17872   4.545   9.694   1.677  0.2377  0.2859  0.1164
  874MOL0     C17873   4.485   9.766   1.580 -0.9676  0.5947  0.1915
  874MOL0     C17874   4.460   9.886   1.641  0.7334  0.3900 -0.0611
  874MOL0     C17875   4.381   9.991   1.581  0.2371 -0.2718 -0.5804
  874MOL0     C17876   4.464  10.053   1.466 -0.8845 -0.6071 -0.1591
  874MOL0     C17877   4.522  10.191   1.486  0.4408  0.4237  0.5958
  874MOL0     C17878   4.602  10.223   1.618 -0.6610  0.2287 -0.4225
  874MOL0     O17879   4.677  10.346   1.615 -0.3357 -0.8546 -0.0454
  874MOL0     C17880   4.608  10.461   1.594 -0.2014 -0.9256  0.6493
  874MOL0     C17881   4.623  10.530   1.470  0.5501  0.4148 -0.2659
  874MOL0     C17882   4.537  10.643   1.443  0.4905  0.2427 -1.0716
  874MOL0     C17883   4.558  10.709   1.311  0.0175 -0.1462  0.0589
  874MOL0     C17884   4.448  10.684   1.548 -0.2082 -1.1494  0.0809
  874MOL0     C17885   4.365  10.811   1.550 -0.0318 -0.8676  1.0595
  874MOL0     O17886   4.356  10.892   1.443 -0.6074 -0.5630  0.0520
  874MOL0     C17887   4.280  11.016   1.445  0.3853  1.0192  0.0605
  874MOL0     C17888   4.143  11.004   1.453  0.1875  0.5116 -0.4360
  874MOL0     C17889   4.056  11.109   1.423 -0.2398  0.0901  0.3391
  874MOL0     C17890   4.112  11.234   1.404 -0.0022 -0.4208 -0.2856
  874MOL0     O17891   4.032  11.337   1.359 -0.0743  0.2422 -0.1024
  874MOL0     C17892   3.964  11.400   1.473  0.7048 -0.0338  0.4891
  874MOL0     C17893   3.833  11.468   1.409 -0.6698  0.5725  0.0363
  874MOL0     C17894   3.732  11.547   1.496  0.8299 -0.4690  0.3738
  874MOL0     C17895   3.607  11.578   1.418 -0.3919  0.7972 -0.6662
  874MOL0     C17896   3.509  11.661   1.510 -0.1431  0.0388  0.5258
  874MOL0     C17897   3.375  11.698   1.437 -0.2132 -0.2632 -0.6334
  874MOL0     C17898   3.274  11.591   1.414  0.0848 -0.0802 -0.7112
  874MOL0     C17899   3.202  11.542   1.540  0.1165  0.0131 -0.8390
  874MOL0    Cl17900   3.045  11.505   1.493  0.2307  0.6019  0.3200
  874MOL0     C17901   4.252  11.253   1.386 -0.7912 -0.0600  0.1222
  874MOL0     C17902   4.334  11.142   1.409  0.6111 -0.2161  1.1360
  874MOL0     O17903   4.305  10.821   1.657  0.3889 -0.3678  0.2312
  874MOL0     C17904   4.442  10.609   1.671  0.7100 -0.3523  0.0132
  874MOL0     C17905   4.523  10.497   1.696 -0.7794  0.3860  0.9056
  874MOL0     N17906   4.506   9.879   1.770  0.3718 -0.8263 -0.4297
  874MOL0     N17907   4.555   9.764   1.789 -0.1040 -0.8164 -0.6807
  874MOL0     C17908   5.083   8.875   2.229 -0.2457  0.4571 -0.0344
  874MOL0     C17909   5.210   8.816   2.271  0.0713 -0.5059  0.4063
  874MOL0     C17910   5.639   8.671   2.229 -0.0803  0.3933 -0.8019
  874MOL0     C17911   5.659   8.540   2.269 -0.1981  0.1530  0.5006
  874MOL0     C17912   5.777   8.475   2.239  0.1224 -0.3005  0.1192
  874MOL0     C17913   5.882   8.547   2.174  0.4355  0.1911 -0.3599
  874MOL0     O17914   5.997   8.481   2.156  0.0238  0.1113  0.6499
  874MOL0     C17915   6.109   8.527   2.081 -0.4090 -0.4532  0.0574
  874MOL0     C17916   6.227   8.440   2.099 -0.1108  0.1959  0.1620
  874MOL0     C17917   6.320   8.445   1.977 -0.2065 -1.1339 -0.7878
  874MOL0     C17918   6.448   8.370   2.004  0.1730 -0.1058  0.3985
  874MOL0     C17919   6.541   8.424   2.093 -0.7340 -0.7491 -0.3295
  874MOL0     C17920   6.626   8.464   2.175 -0.5057  0.3517  0.1189
  874MOL0     C17921   5.859   8.672   2.117  0.3958 -0.2606  0.2465
  874MOL0     C17922   5.742   8.734   2.157 -0.1490  0.2404  0.2653
  874MOL0     H17923   5.242   8.612   1.992 -2.7705 -1.5710 -1.4732
  874MOL0     H17924   5.037   8.705   1.936  0.4359  2.4880  0.2887
  874MOL0     H17925   4.947   8.939   1.915  1.7661 -1.3603  1.0111
  874MOL0     H17926   4.843   8.801   1.910  0.4635  0.4057 -0.7299
  874MOL0     H17927   4.651   8.939   1.994  0.2307 -0.4920 -1.8093
  874MOL0     H17928   4.768   9.077   2.021 -0.5058 -0.1459  0.9538
  874MOL0     H17929   4.771   9.116   1.776 -2.7640  1.8341 -0.9009
  874MOL0     H17930   4.740   8.951   1.736  0.5914 -0.4774  2.1196
  874MOL0     H17931   4.514   9.046   1.696  0.6276 -2.2025 -0.2482
  874MOL0     H17932   4.499   9.008   1.866  1.0740 -1.2717  0.1859
  874MOL0     H17933   4.420   9.210   1.826  0.2984  0.3024 -4.4899
  874MOL0     H17934   4.550   9.225   1.940  0.0384  0.3899  1.0155
  874MOL0     H17935   4.693   9.324   1.776  0.2445 -1.7620 -0.7673
  874MOL0     H17936   4.584   9.283   1.641  0.1760  2.7805  0.3415
  874MOL0     H17937   4.421   9.439   1.717 -0.9855 -2.1723  1.4924
  874MOL0     H17938   4.542   9.482   1.852  3.8337 -1.7045 -0.0439
  874MOL0     H17939   4.597   9.524   1.556  1.2536 -0.1526  0.0815
  874MOL0     H17940   4.705   9.544   1.690 -0.0444 -0.2051  2.6294
  874MOL0     H17941   4.474   9.729   1.479  2.7770 -1.7279  0.4476
  874MOL0     H17942   4.286   9.949   1.546 -0.5293  0.4839  0.5307
  874MOL0     H17943   4.347  10.063   1.657 -1.2138 -1.2825 -0.2214
  874MOL0     H17944   4.402  10.052   1.376 -0.8991 -0.8832 -0.1458
  874MOL0     H17945   4.547   9.984   1.447 -1.4477 -2.3048  2.9997
  874MOL0     H17946   4.442  10.264   1.473 -0.4409 -0.6509 -0.1963
  874MOL0     H17947   4.594  10.215   1.408 -1.6607  2.7461 -0.7575
  874MOL0     H17948   4.670  10.140   1.641 -1.6035 -0.2601  0.7194
  874MOL0     H17949   4.527  10.226   1.698  0.3502 -3.6034  0.8883
  874MOL0     H17950   4.690  10.505   1.388 -0.3825 -0.4886 -0.7852
  874MOL0     H17951   4.649  10.672   1.263  0.1760 -0.0972  0.3178
  874MOL0     H17952   4.476  10.677   1.247  0.6260 -3.1348  0.6240
  874MOL0     H17953   4.567  10.816   1.328 -0.0906  0.3228 -2.5144
  874MOL0     H17954   4.100  10.907   1.473 -2.0390  1.4799 -0.3189
  874MOL0     H17955   3.952  11.081   1.411  0.8596 -3.0856 -4.8618
  874MOL0     H17956   3.940  11.328   1.552  1.2499 -2.2754 -1.2791
  874MOL0     H17957   4.021  11.482   1.518  0.5127 -0.3132  1.2636
  874MOL0     H17958   3.874  11.536   1.334 -0.7506  0.1005 -0.4376
  874MOL0     H17959   3.771  11.392   1.362 -1.5336  1.4920 -0.3511
  874MOL0     H17960   3.776  11.640   1.534  0.8798  0.0784 -0.9748
  874MOL0     H17961   3.697  11.497   1.587 -4.4296  1.3062 -0.3083
  874MOL0     H17962   3.636  11.648   1.338  5.2814 -0.0086  0.2477
  874MOL0     H17963   3.563  11.486   1.378 -2.3750  0.7126  1.4964
  874MOL0     H17964   3.551  11.755   1.546 -0.8459  0.1779  1.0162
  874MOL0     H17965   3.480  11.606   1.600  1.8434 -3.7994 -0.9654
  874MOL0     H17966   3.321  11.772   1.497 -2.9644 -2.0977 -0.6987
  874MOL0     H17967   3.398  11.752   1.345  0.4549 -1.5915 -1.2815
  874MOL0     H17968   3.321  11.500   1.374 -1.1728 -0.8939 -0.3862
  874MOL0     H17969   3.202  11.635   1.345  0.7039  1.0779 -0.6491
  874MOL0     H17970   3.196  11.633   1.601  3.5571  0.5687 -1.1107
  874MOL0     H17971   3.261  11.468   1.595  1.4627  1.7261  0.1240
  874MOL0     H17972   4.307  11.344   1.363 -0.5219 -0.0477  0.7981
  874MOL0     H17973   4.439  11.148   1.379  0.3729  0.4645  0.4122
  874MOL0     H17974   4.391  10.653   1.756 -1.3677 -3.2940  0.4271
  874MOL0     H17975   4.529  10.440   1.788 -2.4884 -1.6606 -0.1629
  874MOL0     H17976   5.051   8.960   2.289 -1.6007 -0.5317  0.7155
  874MOL0     H17977   5.260   8.857   2.358 -2.2660 -0.0104  1.5890
  874MOL0     H17978   5.578   8.478   2.308  3.4549 -4.3753  1.8075
  874MOL0     H17979   5.786   8.371   2.271 -2.3842  0.5281  4.1830
  874MOL0     H17980   6.088   8.517   1.975  2.0787 -0.1889 -0.5247
  874MOL0     H17981   6.133   8.632   2.098 -1.0630 -0.2884 -0.0033
  874MOL0     H17982   6.184   8.344   2.129 -1.0685  1.9812  5.6460
  874MOL0     H17983   6.271   8.482   2.190 -0.2331 -2.0614  1.3428
  874MOL0     H17984   6.344   8.551   1.971 -1.5622 -0.5771  1.8094
  874MOL0     H17985   6.257   8.423   1.890 -1.2853  0.7094 -0.5257
  874MOL0     H17986   6.500   8.376   1.907 -0.9675  0.0131 -0.2204
  874MOL0     H17987   6.428   8.267   2.035 -0.1423 -0.6317 -1.4059
  874MOL0     H17988   6.698   8.508   2.241 -1.8410  0.7146  1.3811
  874MOL0     H17989   5.935   8.729   2.065  2.4547  0.0756  3.3804
  874MOL0     H17990   5.736   8.838   2.127 -1.1523  0.6440  1.7493
  875MOL0     O17991   8.119   1.958   2.926 -0.0984 -0.2126 -0.2530
  875MOL0     C17992   8.043   2.032   2.870  0.5785 -0.6834  0.3081
  875MOL0     O17993   7.966   2.003   2.761 -0.7022  0.0999 -0.2744
  875MOL0     C17994   7.949   1.872   2.730  0.3011 -0.1317  0.3418
  875MOL0     C17995   8.024   1.813   2.632 -0.0730  0.1349  0.3701
  875MOL0     C17996   7.982   1.688   2.575 -0.2984  0.7639  0.0690
  875MOL0     C17997   7.877   1.619   2.624  0.2505 -0.2876  0.0099
  875MOL0     O17998   7.845   1.499   2.568  0.3161  1.1580  0.1795
  875MOL0     C17999   7.701   1.463   2.556  0.2758 -0.1868 -0.2998
  875MOL0     C18000   7.630   1.518   2.434  0.7978 -0.2333  0.7785
  875MOL0     C18001   7.635   1.434   2.306 -0.3014 -0.0599 -0.8129
  875MOL0     C18002   7.573   1.492   2.186  0.2325  0.1483  1.1108
  875MOL0     C18003   7.571   1.391   2.068 -0.3598  0.3244 -0.0913
  875MOL0     C18004   7.505   1.456   1.938  0.0060  0.2440  0.3694
  875MOL0     C18005   7.598   1.576   1.887  0.3595 -0.1352  0.0180
  875MOL0     C18006   7.576   1.613   1.741 -0.5468 -0.3849 -0.9508
  875MOL0     N18007   7.440   1.679   1.721  0.2629 -0.3943 -0.0884
  875MOL0     C18008   7.424   1.812   1.724 -1.1030 -0.2943  0.5420
  875MOL0     C18009   7.315   1.839   1.651  0.2140  0.5749  0.4226
  875MOL0     C18010   7.251   1.972   1.623  0.1179  0.2239 -0.3694
  875MOL0     C18011   7.323   2.035   1.497  0.4367 -0.6419 -0.2071
  875MOL0     C18012   7.248   2.157   1.449  0.9565 -0.5163  0.4247
  875MOL0     C18013   7.125   2.119   1.364 -0.3563  0.2728 -0.0189
  875MOL0     O18014   7.071   2.244   1.311  0.1139  1.0500  0.2569
  875MOL0     C18015   7.092   2.285   1.178  0.0150 -0.4456  0.8822
  875MOL0     C18016   7.056   2.420   1.152 -0.5386  0.3105 -0.0645
  875MOL0     C18017   7.088   2.481   1.035 -0.7877  0.0306 -0.2678
  875MOL0     C18018   7.037   2.627   1.026 -0.0024  0.1311  1.1150
  875MOL0     C18019   7.150   2.409   0.923 -0.7206 -0.1214 -0.2958
  875MOL0     C18020   7.183   2.464   0.791 -0.7942 -0.5413 -0.0110
  875MOL0     O18021   7.223   2.592   0.780 -0.4573  0.3970 -0.8676
  875MOL0     C18022   7.257   2.633   0.654  0.0610  0.0366 -0.3049
  875MOL0     C18023   7.168   2.715   0.588  0.3721 -0.7253 -0.6386
  875MOL0     C18024   7.212   2.777   0.469  0.1450 -0.5888 -0.1302
  875MOL0     C18025   7.341   2.769   0.425  0.6030 -0.4710 -0.4734
  875MOL0     O18026   7.398   2.839   0.326  1.2401  0.0048 -0.3054
  875MOL0     C18027   7.328   2.914   0.233  0.4515 -0.3669  0.1806
  875MOL0     C18028   7.424   2.963   0.127 -0.3004  0.1404 -0.0457
  875MOL0     C18029   7.345   3.013   0.005  0.6982  0.4167 -0.0495
  875MOL0     C18030   7.308   2.899  -0.084  0.9040 -0.2924 -0.6762
  875MOL0     C18031   7.230   2.929  -0.210 -0.5300 -0.9574  0.2056
  875MOL0     C18032   7.198   2.804  -0.285  0.5250 -0.0392 -0.2709
  875MOL0     C18033   7.076   2.732  -0.221 -0.1139  0.2348  0.1248
  875MOL0     C18034   7.024   2.626  -0.312 -0.6449  1.3144  0.1920
  875MOL0    Cl18035   6.974   2.700  -0.463  0.1947 -0.5196  0.5917
  875MOL0     C18036   7.426   2.692   0.503  0.3312 -0.6001 -0.1146
  875MOL0     C18037   7.388   2.620   0.620 -0.0497  0.2620 -0.2989
  875MOL0     O18038   7.170   2.384   0.700  0.2659  0.2631  0.1682
  875MOL0     C18039   7.187   2.272   0.957  0.5419 -0.3311  0.9280
  875MOL0     C18040   7.170   2.220   1.081  0.0053 -0.0696 -0.9672
  875MOL0     N18041   7.255   1.717   1.616 -0.4518  0.4849  0.1913
  875MOL0     N18042   7.334   1.623   1.658  0.0751  0.4767  0.3064
  875MOL0     C18043   7.808   1.676   2.728 -0.1998  0.1906  1.3220
  875MOL0     C18044   7.847   1.798   2.781  0.0642 -0.4183 -0.7370
  875MOL0     C18045   8.050   2.177   2.904 -0.9367 -0.2895  0.0962
  875MOL0     C18046   8.089   2.219   3.040  0.4061 -0.2077 -0.1826
  875MOL0     C18047   8.090   2.357   3.072 -0.3938  0.6246 -0.6202
  875MOL0     C18048   8.068   2.449   2.967 -1.0239 -0.2144  0.0074
  875MOL0     O18049   8.075   2.582   2.989  0.2274  0.5237 -0.8035
  875MOL0     C18050   8.195   2.639   3.035 -0.2485  0.1347 -0.2222
  875MOL0     C18051   8.272   2.726   2.949  0.8700  0.6033 -0.0321
  875MOL0     C18052   8.187   2.837   2.881 -0.4618 -0.2278  0.1996
  875MOL0     C18053   8.177   2.806   2.726  0.7562 -1.1588  0.0312
  875MOL0     C18054   8.084   2.897   2.651  0.8088  1.0064 -0.1598
  875MOL0     C18055   7.999   2.972   2.603 -0.6912  0.2866 -0.7660
  875MOL0     C18056   8.044   2.405   2.836  0.6886 -0.5905  0.8705
  875MOL0     C18057   8.035   2.273   2.808 -0.0301  0.0361  0.5657
  875MOL0     H18058   8.104   1.872   2.589 -0.2313  2.0642  2.5494
  875MOL0     H18059   8.030   1.654   2.483 -1.6043  0.5176 -0.5556
  875MOL0     H18060   7.703   1.354   2.563  0.8179 -0.2190 -0.8277
  875MOL0     H18061   7.631   1.489   2.636 -0.9328 -0.5042 -1.2208
  875MOL0     H18062   7.524   1.522   2.461 -0.0516  1.1088 -2.3257
  875MOL0     H18063   7.657   1.617   2.396 -4.1674  0.1711 -2.6247
  875MOL0     H18064   7.739   1.408   2.285  0.5303  0.4488  2.2366
  875MOL0     H18065   7.580   1.342   2.327 -3.1135  2.2863  3.8164
  875MOL0     H18066   7.473   1.525   2.215  0.1482  0.6520  0.2836
  875MOL0     H18067   7.616   1.584   2.147  0.7760  1.7915  5.0876
  875MOL0     H18068   7.672   1.351   2.050 -0.2717 -0.4388  1.8918
  875MOL0     H18069   7.515   1.299   2.085 -0.1994  0.7176  3.0997
  875MOL0     H18070   7.510   1.377   1.862 -3.6192 -1.6660  1.9045
  875MOL0     H18071   7.401   1.488   1.939 -0.5916 -1.3274 -2.1059
  875MOL0     H18072   7.579   1.657   1.958 -1.5702 -0.7036  0.2337
  875MOL0     H18073   7.699   1.534   1.892 -0.3365 -2.6126 -3.1506
  875MOL0     H18074   7.584   1.520   1.684 -0.5337 -0.8525 -0.1936
  875MOL0     H18075   7.653   1.687   1.716  0.3637 -0.2781  1.7949
  875MOL0     H18076   7.505   1.882   1.742 -1.7022  0.9994 -1.4595
  875MOL0     H18077   7.146   1.957   1.597 -0.3463  2.0094  0.3177
  875MOL0     H18078   7.253   2.026   1.719  0.0521  1.6190 -1.1317
  875MOL0     H18079   7.335   1.969   1.411  3.7681  0.1510 -0.5278
  875MOL0     H18080   7.425   2.062   1.529  0.2450 -0.8251  0.5731
  875MOL0     H18081   7.309   2.223   1.386  0.1519  0.5022  0.6754
  875MOL0     H18082   7.203   2.214   1.531 -1.6371 -1.0504 -0.5374
  875MOL0     H18083   7.054   2.059   1.423 -1.6740  1.4574 -0.3445
  875MOL0     H18084   7.158   2.052   1.284  1.2710  0.6579  0.2939
  875MOL0     H18085   6.997   2.466   1.230  0.6467  0.5898  0.6780
  875MOL0     H18086   7.029   2.675   1.124 -1.8995  2.7742 -0.2158
  875MOL0     H18087   7.105   2.691   0.969 -1.5243  0.9800  0.1965
  875MOL0     H18088   6.936   2.635   0.985  2.1484  2.0931 -4.8786
  875MOL0     H18089   7.066   2.731   0.623  0.9388  3.6472 -0.5242
  875MOL0     H18090   7.151   2.845   0.411  4.3757  3.2669 -0.6564
  875MOL0     H18091   7.242   2.865   0.186  0.0353  2.6475 -2.5442
  875MOL0     H18092   7.278   3.001   0.278  1.1240 -1.2850  2.9215
  875MOL0     H18093   7.485   3.043   0.170 -0.9204  1.1069 -0.9077
  875MOL0     H18094   7.491   2.882   0.097 -0.1785  0.3001 -0.2030
  875MOL0     H18095   7.400   3.092  -0.047 -2.9890  1.0927 -3.3969
  875MOL0     H18096   7.251   3.061   0.035  0.4606 -0.6989  1.1086
  875MOL0     H18097   7.404   2.853  -0.108  1.7944  2.2550 -2.3976
  875MOL0     H18098   7.260   2.822  -0.022  2.2950 -0.7767 -0.1560
  875MOL0     H18099   7.286   3.000  -0.270 -1.2259 -0.8979 -0.3891
  875MOL0     H18100   7.140   2.978  -0.172  1.7036  0.9909  3.5126
  875MOL0     H18101   7.171   2.838  -0.386  1.2583  0.9172 -0.1616
  875MOL0     H18102   7.283   2.735  -0.285  0.5692 -0.0230  1.4222
  875MOL0     H18103   6.998   2.807  -0.203  0.3312  0.5611  0.7443
  875MOL0     H18104   7.096   2.694  -0.120 -0.9769  2.0428  1.0234
  875MOL0     H18105   6.947   2.569  -0.258  0.0255  0.7332  0.5663
  875MOL0     H18106   7.104   2.552  -0.327 -1.7374 -0.3280  1.9403
  875MOL0     H18107   7.525   2.684   0.459  0.2141 -1.0806 -0.2993
  875MOL0     H18108   7.460   2.568   0.682  0.3846 -1.3921 -2.0983
  875MOL0     H18109   7.218   2.228   0.862  0.2571  0.5390  0.4178
  875MOL0     H18110   7.204   2.120   1.105  0.6430  0.4607  0.4991
  875MOL0     H18111   7.735   1.613   2.778 -4.6089  1.7131 -2.4618
  875MOL0     H18112   7.792   1.842   2.864 -0.2787 -1.3744 -0.4506
  875MOL0     H18113   8.103   2.135   3.107  0.9115 -3.4194 -3.8894
  875MOL0     H18114   8.109   2.392   3.173 -0.8303 -0.9425  0.0334
  875MOL0     H18115   8.164   2.707   3.115 -1.0617 -0.8060  0.2880
  875MOL0     H18116   8.263   2.563   3.076  3.2037  3.0062 -0.0983
  875MOL0     H18117   8.309   2.661   2.868 -3.9880  0.4017 -2.4110
  875MOL0     H18118   8.359   2.775   2.993  0.5478  1.2667 -0.1357
  875MOL0     H18119   8.246   2.929   2.880 -1.6966  0.6248  1.9597
  875MOL0     H18120   8.090   2.858   2.926 -1.3405  0.6144 -1.9596
  875MOL0     H18121   8.153   2.700   2.710 -0.7549 -1.1362  1.7900
  875MOL0     H18122   8.275   2.813   2.678 -0.3279  0.6934 -2.0811
  875MOL0     H18123   7.930   3.036   2.553 -0.5349  2.0749  1.1618
  875MOL0     H18124   8.033   2.476   2.755  0.1778 -3.9401 -2.2987
  875MOL0     H18125   8.012   2.239   2.708 -1.9861 -1.3583  1.4243
  876MOL0     O18126   3.855   0.121   0.173  0.6421  0.5321 -0.2635
  876MOL0     C18127   3.795   0.228   0.191 -0.3141  0.9053  0.8087
  876MOL0     O18128   3.669   0.244   0.246 -0.2026 -0.3854 -0.0123
  876MOL0     C18129   3.582   0.145   0.293 -1.7697 -0.7663  0.2658
  876MOL0     C18130   3.447   0.157   0.285  0.7003  0.1640 -1.0120
  876MOL0     C18131   3.365   0.056   0.332 -0.3451 -0.1730  0.3685
  876MOL0     C18132   3.416  -0.055   0.395  0.2084  0.0567 -0.5375
  876MOL0     O18133   3.348  -0.170   0.437 -0.2671  0.0575 -0.2451
  876MOL0     C18134   3.307  -0.149   0.570  0.4869 -1.0336 -0.6176
  876MOL0     C18135   3.321  -0.275   0.655  0.6738 -0.5946 -0.0614
  876MOL0     C18136   3.233  -0.389   0.600 -0.0774 -0.0261  0.3951
  876MOL0     C18137   3.249  -0.506   0.691  0.0715 -1.1442  1.0173
  876MOL0     C18138   3.175  -0.628   0.632  0.4699  0.1917 -0.1646
  876MOL0     C18139   3.023  -0.610   0.598  0.1937  0.1678  0.6264
  876MOL0     C18140   2.965  -0.749   0.562  0.2975 -0.3377  0.3541
  876MOL0     C18141   2.808  -0.724   0.538  0.8022 -0.2300 -0.0074
  876MOL0     N18142   2.737  -0.853   0.504  0.1106 -0.1905  0.3657
  876MOL0     C18143   2.646  -0.925   0.581 -0.0780 -0.4815 -0.2870
  876MOL0     C18144   2.569  -1.002   0.498 -0.4561  0.0045  0.7785
  876MOL0     C18145   2.483  -1.123   0.541  0.0839  0.4680 -0.8114
  876MOL0     C18146   2.522  -1.251   0.475 -0.1453  0.0805  0.1450
  876MOL0     C18147   2.674  -1.283   0.486 -0.3184 -0.0674 -0.5097
  876MOL0     C18148   2.741  -1.245   0.624  0.1680  0.4751 -0.0251
  876MOL0     O18149   2.863  -1.315   0.670  0.5653  0.1924  0.6799
  876MOL0     C18150   2.975  -1.270   0.609  0.1969  0.6682  0.1320
  876MOL0     C18151   3.086  -1.320   0.658 -0.9893  0.0612  0.8393
  876MOL0     C18152   3.213  -1.274   0.619  0.0857 -0.2975 -0.3464
  876MOL0     C18153   3.327  -1.343   0.687  0.4043 -1.0260 -0.1589
  876MOL0     C18154   3.224  -1.176   0.530  0.3321 -1.0848  0.1594
  876MOL0     C18155   3.356  -1.108   0.503 -0.2482 -0.1302 -0.3360
  876MOL0     O18156   3.465  -1.182   0.496 -0.5636 -0.6398 -0.2698
  876MOL0     C18157   3.570  -1.131   0.434  0.5475  0.0404 -0.2382
  876MOL0     C18158   3.656  -1.045   0.496 -0.9739 -0.0676 -0.3057
  876MOL0     C18159   3.777  -1.014   0.432  0.5537 -0.3238 -0.1870
  876MOL0     C18160   3.803  -1.047   0.304  0.6793  0.8333 -0.5951
  876MOL0     O18161   3.895  -0.973   0.238  0.7439 -0.3818 -0.4164
  876MOL0     C18162   3.971  -1.056   0.153 -0.3711  0.1877  0.3561
  876MOL0     C18163   4.067  -1.139   0.239 -0.0775  0.4973  0.3431
  876MOL0     C18164   4.188  -1.186   0.149  0.4034  0.0754 -0.5006
  876MOL0     C18165   4.282  -1.275   0.241  0.1287 -0.2574  0.5340
  876MOL0     C18166   4.403  -1.327   0.157 -0.6440 -0.6262  0.0256
  876MOL0     C18167   4.477  -1.437   0.231 -0.0164  0.4818  0.4081
  876MOL0     C18168   4.560  -1.522   0.129 -0.2984 -0.6385 -0.0847
  876MOL0     C18169   4.632  -1.628   0.199  0.4305 -1.1262 -0.2880
  876MOL0    Cl18170   4.771  -1.548   0.279 -0.0342 -0.2490 -0.1244
  876MOL0     C18171   3.725  -1.151   0.243  0.1422 -0.0623 -0.3295
  876MOL0     C18172   3.609  -1.187   0.311  0.2961 -0.2367 -0.6004
  876MOL0     O18173   3.352  -0.983   0.484  1.0646 -0.2081  0.2662
  876MOL0     C18174   3.114  -1.115   0.476  0.2414 -0.3750 -0.2971
  876MOL0     C18175   2.989  -1.166   0.512  1.1693 -0.5715 -0.6812
  876MOL0     N18176   2.609  -0.971   0.367 -0.5538  1.1872 -0.5399
  876MOL0     N18177   2.698  -0.878   0.373 -0.1972  0.4162 -0.0239
  876MOL0     C18178   3.557  -0.064   0.407  0.9838 -0.1234  0.4439
  876MOL0     C18179   3.639   0.034   0.359 -0.2430  0.2961  0.1103
  876MOL0     C18180   3.865   0.350   0.142  0.0163  0.0411  0.8239
  876MOL0     C18181   3.787   0.460   0.110 -0.0953  0.2987  0.6457
  876MOL0     C18182   3.849   0.578   0.056 -0.2385 -0.2235  0.2959
  876MOL0     C18183   3.989   0.589   0.049  0.6802  0.1626 -0.1623
  876MOL0     O18184   4.065   0.686  -0.011 -0.6060  0.8458  0.7315
  876MOL0     C18185   4.003   0.783  -0.095 -0.0734  0.1849  0.4708
  876MOL0     C18186   3.950   0.715  -0.225  0.0903  1.8800  0.8760
  876MOL0     C18187   3.952   0.804  -0.343 -0.4032  0.2039  0.1912
  876MOL0     C18188   3.909   0.754  -0.480 -0.6283  0.3434  0.5044
  876MOL0     C18189   3.975   0.831  -0.589 -0.9155  0.3194  0.5552
  876MOL0     C18190   4.040   0.880  -0.675 -0.1061 -0.5377 -0.5880
  876MOL0     C18191   4.055   0.482   0.097 -0.5330 -0.9472  0.3321
  876MOL0     C18192   4.000   0.358   0.139  0.8025  0.5352 -0.0347
  876MOL0     H18193   3.413   0.248   0.238  3.8970  1.1837 -1.5146
  876MOL0     H18194   3.258   0.066   0.342 -0.9397 -4.7350  0.6885
  876MOL0     H18195   3.375  -0.078   0.618 -0.2238  0.3393 -1.5829
  876MOL0     H18196   3.209  -0.102   0.563  0.4557 -1.2307 -1.7653
  876MOL0     H18197   3.427  -0.302   0.654  0.8129 -0.4433  2.9194
  876MOL0     H18198   3.284  -0.254   0.756 -3.3828 -1.5878 -1.1463
  876MOL0     H18199   3.128  -0.359   0.590  0.1327  0.8467  0.7502
  876MOL0     H18200   3.260  -0.406   0.495 -2.2648  0.6582 -0.3306
  876MOL0     H18201   3.356  -0.525   0.705  0.4982  0.3636  0.0635
  876MOL0     H18202   3.197  -0.495   0.786 -0.4775 -1.5278  0.7694
  876MOL0     H18203   3.220  -0.668   0.541 -2.6312 -2.7844 -0.5776
  876MOL0     H18204   3.175  -0.710   0.704 -0.2759 -2.7619 -3.3037
  876MOL0     H18205   2.968  -0.573   0.685 -3.3067 -2.2057 -0.3256
  876MOL0     H18206   3.003  -0.540   0.517 -2.2559  3.4045  3.7230
  876MOL0     H18207   3.015  -0.782   0.471  1.1826 -0.4255  0.8660
  876MOL0     H18208   2.983  -0.825   0.638  2.9983 -0.9206 -0.7754
  876MOL0     H18209   2.798  -0.649   0.459 -0.1719  0.5784  0.8581
  876MOL0     H18210   2.766  -0.692   0.634  1.3686  0.2987  0.0695
  876MOL0     H18211   2.645  -0.925   0.690 -1.5131 -1.9104 -0.2548
  876MOL0     H18212   2.488  -1.134   0.650 -3.6471  1.6845 -0.3791
  876MOL0     H18213   2.376  -1.120   0.519 -0.7690 -1.8617  2.2709
  876MOL0     H18214   2.489  -1.237   0.371 -3.0845 -1.0516  0.8369
  876MOL0     H18215   2.459  -1.335   0.504  1.6704 -1.2380  0.4740
  876MOL0     H18216   2.726  -1.224   0.410 -0.0710  2.6432  1.5841
  876MOL0     H18217   2.698  -1.386   0.462  0.3322  0.0110 -0.2267
  876MOL0     H18218   2.669  -1.268   0.703  2.4257 -0.3489  1.9151
  876MOL0     H18219   2.749  -1.137   0.631 -0.6042  0.4596  1.7067
  876MOL0     H18220   3.085  -1.385   0.745  1.3472  2.6248  2.9452
  876MOL0     H18221   3.365  -1.419   0.619  0.5310  0.0078 -1.2782
  876MOL0     H18222   3.401  -1.267   0.713 -1.4894  0.7332  0.3664
  876MOL0     H18223   3.284  -1.390   0.777  0.1100  0.6213  0.6001
  876MOL0     H18224   3.642  -1.021   0.601  1.9661 -0.1542  0.1981
  876MOL0     H18225   3.850  -0.947   0.476 -0.2348  1.5261 -1.5555
  876MOL0     H18226   3.914  -1.129   0.093  0.4680 -0.7197  0.6449
  876MOL0     H18227   4.027  -0.983   0.093 -1.1734  0.4403 -0.1054
  876MOL0     H18228   4.117  -1.088   0.323  2.7293  0.0095 -0.8951
  876MOL0     H18229   4.024  -1.229   0.283 -0.1893  1.2083  1.7590
  876MOL0     H18230   4.242  -1.098   0.111 -1.0395  1.1560 -0.1314
  876MOL0     H18231   4.150  -1.241   0.063  3.0127 -2.8498  0.0557
  876MOL0     H18232   4.318  -1.215   0.325  1.0966  0.4882 -0.3933
  876MOL0     H18233   4.226  -1.357   0.287 -0.1632  0.1236  0.8554
  876MOL0     H18234   4.465  -1.239   0.137 -2.5442  0.1024 -3.3304
  876MOL0     H18235   4.361  -1.358   0.061  1.6035 -1.1115 -0.8534
  876MOL0     H18236   4.540  -1.386   0.306 -0.9151 -0.4685  1.8628
  876MOL0     H18237   4.409  -1.495   0.294 -0.7654 -1.2144 -1.8558
  876MOL0     H18238   4.628  -1.471   0.061 -0.3677 -0.3306  0.0742
  876MOL0     H18239   4.500  -1.566   0.048  1.9830 -2.7253 -0.7340
  876MOL0     H18240   4.667  -1.699   0.124  0.5441 -0.3196 -1.0094
  876MOL0     H18241   4.571  -1.683   0.271 -0.5720 -0.6412 -0.7378
  876MOL0     H18242   3.736  -1.187   0.141  1.2872 -4.9670  1.2498
  876MOL0     H18243   3.545  -1.244   0.244 -2.0341  0.8082  0.6161
  876MOL0     H18244   3.101  -1.032   0.407 -1.2169  0.8699  1.3976
  876MOL0     H18245   2.910  -1.109   0.463  1.8296  2.2598  1.2638
  876MOL0     H18246   3.601  -0.153   0.451 -0.2800 -0.9465  0.1055
  876MOL0     H18247   3.744   0.043   0.386  0.6637 -0.6383 -2.7437
  876MOL0     H18248   3.679   0.456   0.115  0.0048 -3.3075  2.6253
  876MOL0     H18249   3.779   0.648   0.012 -0.8334 -1.5630 -0.9652
  876MOL0     H18250   3.920   0.834  -0.045 -0.7010 -0.8280  0.4772
  876MOL0     H18251   4.065   0.867  -0.127 -1.2889  0.2483 -1.9827
  876MOL0     H18252   3.845   0.686  -0.217  0.1002  0.8423 -1.7562
  876MOL0     H18253   4.015   0.628  -0.238 -2.3903 -0.0844  0.8540
  876MOL0     H18254   4.042   0.866  -0.353 -1.2405  1.4226  0.0518
  876MOL0     H18255   3.878   0.877  -0.310  0.4290  0.8008  0.7748
  876MOL0     H18256   3.800   0.761  -0.487 -0.4812  2.7291 -0.4909
  876MOL0     H18257   3.942   0.651  -0.490 -1.0163  0.2345  0.2962
  876MOL0     H18258   4.102   0.935  -0.742 -0.0585  0.0652 -0.0608
  876MOL0     H18259   4.162   0.469   0.083 -0.4547  0.7276 -0.9499
  876MOL0     H18260   4.060   0.271   0.164  2.5330  1.7042 -0.0002
  877MOL0     O18261   1.309   9.127   4.663  0.6105  0.5997 -0.4042
  877MOL0     C18262   1.227   9.044   4.695  0.2414  1.3235  0.1434
  877MOL0     O18263   1.089   9.031   4.662 -0.0222 -0.1372 -0.3086
  877MOL0     C18264   1.010   9.136   4.624 -0.9837 -0.5618 -0.2704
  877MOL0     C18265   0.936   9.105   4.511 -0.3146 -0.0483  0.9465
  877MOL0     C18266   0.856   9.208   4.447 -1.1534  0.5104 -0.0739
  877MOL0     C18267   0.854   9.341   4.505  0.0981  0.7875 -0.0350
  877MOL0     O18268   0.776   9.444   4.444 -1.1095  0.2357 -0.3074
  877MOL0     C18269   0.644   9.401   4.409  0.4659 -0.4130  0.1475
  877MOL0     C18270   0.555   9.527   4.401 -0.1251 -0.1884 -0.6705
  877MOL0     C18271   0.413   9.478   4.344  0.2927 -0.4004 -0.2249
  877MOL0     C18272   0.382   9.503   4.193  0.3650  0.8900 -0.6224
  877MOL0     C18273   0.249   9.441   4.153 -0.5912 -0.2711  0.1186
  877MOL0     C18274   0.255   9.302   4.093 -0.0266  0.9223  0.2876
  877MOL0     C18275   0.114   9.242   4.044  1.0505  0.3586 -0.1802
  877MOL0     C18276   0.112   9.096   3.992  0.0363  0.1630 -0.1269
  877MOL0     N18277  -0.027   9.075   3.948  0.3631  0.7779 -0.2240
  877MOL0     C18278  -0.125   9.050   4.029 -0.8973  0.1290  1.1351
  877MOL0     C18279  -0.238   9.026   3.955  0.4997 -0.1985 -0.8453
  877MOL0     C18280  -0.366   8.972   4.017  0.1964  0.9203 -0.1940
  877MOL0     C18281  -0.496   9.057   4.001  0.2935  0.7248 -0.4882
  877MOL0     C18282  -0.619   8.983   4.059 -0.4700  0.4745 -0.8597
  877MOL0     C18283  -0.618   8.999   4.213  0.4875  0.0221 -0.1675
  877MOL0     O18284  -0.724   8.917   4.262  0.8154 -0.2307 -0.9736
  877MOL0     C18285  -0.861   8.955   4.239  1.6285 -0.8006 -0.0336
  877MOL0     C18286  -0.913   9.068   4.167  0.5622  0.1053 -1.1469
  877MOL0     C18287  -1.053   9.092   4.147  0.1196  1.0542  0.9956
  877MOL0     C18288  -1.086   9.206   4.055 -0.1384  0.0768 -0.7854
  877MOL0     C18289  -1.141   9.001   4.206  0.0527  0.2256 -0.3404
  877MOL0     C18290  -1.289   9.004   4.178 -0.4876 -1.0572 -0.0057
  877MOL0     O18291  -1.363   9.127   4.171  0.2474 -0.0896  0.4542
  877MOL0     C18292  -1.504   9.132   4.153  0.0257 -0.4207 -0.7343
  877MOL0     C18293  -1.579   9.240   4.198  0.3991  0.1818  0.6787
  877MOL0     C18294  -1.727   9.252   4.179 -0.0868  0.4918 -0.7220
  877MOL0     C18295  -1.800   9.148   4.119  0.0563 -0.4590  0.5086
  877MOL0     O18296  -1.945   9.152   4.120  1.2459 -0.1293 -0.0418
  877MOL0     C18297  -2.000   9.155   4.247 -0.1349  0.3757 -0.8273
  877MOL0     C18298  -2.074   9.280   4.285 -0.5679  0.4013 -0.2101
  877MOL0     C18299  -2.160   9.346   4.187 -0.5156  0.4957 -0.5301
  877MOL0     C18300  -2.272   9.424   4.250  0.1995 -1.1527 -0.5627
  877MOL0     C18301  -2.410   9.355   4.231 -0.2197  0.2906  0.4461
  877MOL0     C18302  -2.509   9.423   4.312  1.5016  0.8619  0.0912
  877MOL0     C18303  -2.522   9.361   4.450  0.1920  0.1572  0.1239
  877MOL0     C18304  -2.639   9.430   4.529  0.1027 -0.2655 -0.5224
  877MOL0    Cl18305  -2.786   9.435   4.424  0.0418 -0.3217 -0.3562
  877MOL0     C18306  -1.723   9.040   4.077 -0.0126  0.8213 -0.1411
  877MOL0     C18307  -1.577   9.034   4.096  0.4894  0.0034  1.5196
  877MOL0     O18308  -1.331   8.897   4.144  0.2703 -0.2481  0.7035
  877MOL0     C18309  -1.088   8.900   4.295  0.2977 -0.6895  0.1244
  877MOL0     C18310  -0.952   8.861   4.299  0.4072 -0.2928 -0.0817
  877MOL0     N18311  -0.198   9.051   3.821  0.6815  0.1931  0.0344
  877MOL0     N18312  -0.073   9.095   3.825 -0.6591  1.2332 -0.6046
  877MOL0     C18313   0.915   9.369   4.632 -0.7599 -0.1008  0.3602
  877MOL0     C18314   1.000   9.266   4.687  0.0595  0.5175 -0.4337
  877MOL0     C18315   1.298   8.928   4.760 -0.9751 -0.6555  0.0769
  877MOL0     C18316   1.440   8.929   4.808  0.5287 -0.2979 -0.4418
  877MOL0     C18317   1.500   8.811   4.863 -0.2789 -0.5325 -0.1651
  877MOL0     C18318   1.432   8.689   4.851 -0.0581  0.0970  0.5690
  877MOL0     O18319   1.502   8.570   4.880 -0.3455 -0.1851 -0.5643
  877MOL0     C18320   1.438   8.487   4.979 -0.7866 -0.6144 -0.3244
  877MOL0     C18321   1.540   8.429   5.068 -1.7617  0.1466 -0.7353
  877MOL0     C18322   1.481   8.398   5.203  0.9146  0.4467  0.4654
  877MOL0     C18323   1.594   8.356   5.291 -0.2511 -0.9951  0.6001
  877MOL0     C18324   1.554   8.300   5.421  0.1571 -0.7185 -0.1226
  877MOL0     C18325   1.528   8.250   5.524  0.4194  0.4747  0.2285
  877MOL0     C18326   1.293   8.687   4.812 -1.2556  0.2398 -0.2964
  877MOL0     C18327   1.238   8.800   4.753  0.1334 -0.1271 -0.4473
  877MOL0     H18328   0.944   9.005   4.470 -0.6484  0.7526 -1.2350
  877MOL0     H18329   0.807   9.179   4.355 -2.0220  1.4424  0.0668
  877MOL0     H18330   0.640   9.348   4.313  0.4017 -0.6780  0.2942
  877MOL0     H18331   0.602   9.343   4.492  0.7945 -0.2031  0.4608
  877MOL0     H18332   0.543   9.572   4.500 -0.3555 -0.5966 -0.5123
  877MOL0     H18333   0.598   9.605   4.337 -1.3595  0.0739 -1.1884
  877MOL0     H18334   0.383   9.378   4.377 -2.2306  0.6741  1.0082
  877MOL0     H18335   0.346   9.546   4.399  0.7899  0.1984 -0.3516
  877MOL0     H18336   0.387   9.609   4.166  1.4428  1.0718  0.2033
  877MOL0     H18337   0.469   9.469   4.135  3.7537  5.2829  1.2665
  877MOL0     H18338   0.175   9.444   4.234  0.2417 -1.2442  0.9399
  877MOL0     H18339   0.214   9.513   4.078  1.2182  2.4659  1.7072
  877MOL0     H18340   0.335   9.296   4.020  1.5031 -1.5594  1.9995
  877MOL0     H18341   0.294   9.227   4.162  1.4696 -1.5069 -2.9697
  877MOL0     H18342   0.045   9.244   4.129  0.7667  1.1905 -0.4183
  877MOL0     H18343   0.075   9.304   3.962 -1.2139 -0.1678  0.4326
  877MOL0     H18344   0.133   9.025   4.072 -0.9503  1.6867  1.5489
  877MOL0     H18345   0.178   9.076   3.906  0.3359 -0.9592  0.3371
  877MOL0     H18346  -0.112   9.049   4.137  1.9054  1.4867  0.9006
  877MOL0     H18347  -0.377   8.877   3.963  1.2561  2.7626 -3.9422
  877MOL0     H18348  -0.352   8.951   4.123 -0.6189 -4.3911 -0.8627
  877MOL0     H18349  -0.504   9.078   3.894 -0.8754 -1.4980 -0.8904
  877MOL0     H18350  -0.496   9.154   4.053 -2.2633 -0.5398  2.1812
  877MOL0     H18351  -0.614   8.875   4.040  3.1949  0.7452 -2.3899
  877MOL0     H18352  -0.708   9.013   4.002 -0.9992  0.2754 -0.1437
  877MOL0     H18353  -0.630   9.106   4.233  2.4898  0.7651 -2.5085
  877MOL0     H18354  -0.524   8.967   4.258  2.0966  0.6631 -2.8332
  877MOL0     H18355  -0.834   9.128   4.122  1.8143 -1.1797 -0.7336
  877MOL0     H18356  -1.016   9.236   3.976 -1.6828  2.5107 -1.3411
  877MOL0     H18357  -1.172   9.170   3.996  1.0026 -4.6389  0.0385
  877MOL0     H18358  -1.098   9.298   4.113  3.4183 -0.5604  1.2407
  877MOL0     H18359  -1.536   9.325   4.251 -1.7602  2.0246 -0.3543
  877MOL0     H18360  -1.791   9.328   4.221 -1.7949 -1.2428 -0.0169
  877MOL0     H18361  -2.079   9.080   4.243  1.0649 -1.0016 -0.0375
  877MOL0     H18362  -1.933   9.123   4.328 -0.1457  0.8387 -0.6332
  877MOL0     H18363  -2.127   9.243   4.373  2.7375  0.2697  1.9216
  877MOL0     H18364  -2.000   9.350   4.325  0.1568 -2.0968  3.2610
  877MOL0     H18365  -2.200   9.268   4.121 -0.3585  0.6088 -0.7624
  877MOL0     H18366  -2.099   9.414   4.127  1.2449 -1.4835 -1.1364
  877MOL0     H18367  -2.254   9.439   4.356 -2.6592  0.5030 -0.2145
  877MOL0     H18368  -2.278   9.522   4.203 -1.2780 -0.8948  0.0998
  877MOL0     H18369  -2.394   9.253   4.267  0.5086 -0.0048 -0.6371
  877MOL0     H18370  -2.444   9.348   4.127  0.8640 -2.0569  0.1879
  877MOL0     H18371  -2.488   9.530   4.322 -0.1666  1.2255 -0.0573
  877MOL0     H18372  -2.607   9.414   4.264  0.5923 -0.3691  2.0542
  877MOL0     H18373  -2.434   9.348   4.514 -0.8393 -4.4365  0.9668
  877MOL0     H18374  -2.557   9.258   4.446  0.1924  0.1703 -0.3391
  877MOL0     H18375  -2.612   9.534   4.552 -0.7890  0.5041 -2.7115
  877MOL0     H18376  -2.648   9.389   4.630  2.4020  1.6810  0.5927
  877MOL0     H18377  -1.776   8.966   4.019 -0.7368 -0.7404  2.3324
  877MOL0     H18378  -1.542   8.946   4.043  0.5453  1.4489 -1.0020
  877MOL0     H18379  -1.157   8.836   4.348  1.3643 -2.9459 -1.0435
  877MOL0     H18380  -0.906   8.784   4.361  0.4048 -1.6367 -1.6684
  877MOL0     H18381   0.909   9.464   4.684 -1.2180  1.6761 -2.6928
  877MOL0     H18382   1.058   9.289   4.776  0.1976  4.5956 -1.3648
  877MOL0     H18383   1.492   9.021   4.832  0.7217 -0.3340 -0.7062
  877MOL0     H18384   1.598   8.812   4.909  0.8408  1.1108 -2.4042
  877MOL0     H18385   1.379   8.548   5.049 -0.3390  1.8770 -1.9635
  877MOL0     H18386   1.373   8.418   4.925 -2.7320  3.5689 -4.0692
  877MOL0     H18387   1.622   8.500   5.084 -2.8553  1.0414  1.2201
  877MOL0     H18388   1.575   8.336   5.021  1.6484  0.3510  1.0449
  877MOL0     H18389   1.406   8.321   5.181 -0.0890  2.5017 -4.8091
  877MOL0     H18390   1.451   8.492   5.250  0.6964  0.9330 -0.6145
  877MOL0     H18391   1.656   8.442   5.320  0.6089 -1.3531 -0.1212
  877MOL0     H18392   1.652   8.283   5.233  2.9401  2.4186 -0.9318
  877MOL0     H18393   1.493   8.196   5.609 -0.9782  1.8834  0.5892
  877MOL0     H18394   1.237   8.595   4.801 -0.1678 -0.1459 -3.9114
  877MOL0     H18395   1.146   8.801   4.696  1.0708  2.4272 -2.0966
  878MOL0     O18396   5.244   7.397   2.413  0.9840  0.3605  0.8032
  878MOL0     C18397   5.304   7.378   2.520  0.4280  0.9875 -0.3060
  878MOL0     O18398   5.267   7.426   2.645 -0.2585 -0.7833  0.6409
  878MOL0     C18399   5.160   7.515   2.644  0.1572 -0.0287  0.2267
  878MOL0     C18400   5.036   7.480   2.686  0.6722 -0.2796 -0.0855
  878MOL0     C18401   4.934   7.572   2.693  1.0251  0.3614  0.7278
  878MOL0     C18402   4.943   7.699   2.634  0.3439 -0.5967  0.5436
  878MOL0     O18403   4.834   7.782   2.633  1.1229 -0.3414 -0.3083
  878MOL0     C18404   4.841   7.912   2.704  0.2014 -0.9042 -0.2970
  878MOL0     C18405   4.750   8.016   2.637  0.1383 -0.4912  0.4746
  878MOL0     C18406   4.767   8.158   2.707 -0.0421 -0.0569 -1.2554
  878MOL0     C18407   4.640   8.248   2.675 -0.1625 -0.3162  0.0779
  878MOL0     C18408   4.671   8.402   2.694 -1.1377  0.2833  1.1070
  878MOL0     C18409   4.544   8.489   2.671 -0.4343 -1.5051 -0.2401
  878MOL0     C18410   4.555   8.628   2.727 -0.3062 -0.3153  0.0634
  878MOL0     C18411   4.440   8.712   2.690  0.0265  0.1544 -0.4450
  878MOL0     N18412   4.471   8.843   2.762 -0.1477  0.4599 -0.4034
  878MOL0     C18413   4.453   8.865   2.897  0.2942  0.4437 -0.2955
  878MOL0     C18414   4.499   8.994   2.914 -0.5616 -0.1514 -0.6797
  878MOL0     C18415   4.524   9.087   3.034 -0.3685 -0.0944  0.2414
  878MOL0     C18416   4.671   9.113   3.061  0.3314 -0.5020 -0.5021
  878MOL0     C18417   4.734   8.985   3.107  0.0358  0.3070 -0.9158
  878MOL0     C18418   4.877   9.004   3.169 -0.7619 -0.1784 -0.8023
  878MOL0     O18419   4.854   9.037   3.309  0.1713 -0.8113  0.2962
  878MOL0     C18420   4.966   9.042   3.398  0.1331 -0.3102  0.7687
  878MOL0     C18421   5.095   9.052   3.348 -1.5947  0.2257 -0.1614
  878MOL0     C18422   5.204   9.058   3.424 -0.4232  0.2166 -0.6076
  878MOL0     C18423   5.337   9.071   3.358 -0.3636  0.2346  0.3599
  878MOL0     C18424   5.182   9.045   3.561  0.5538  0.6021 -0.0796
  878MOL0     C18425   5.284   9.021   3.658  0.3292 -0.5224 -0.2058
  878MOL0     O18426   5.286   9.099   3.763 -0.2947 -0.2776 -0.2036
  878MOL0     C18427   5.403   9.118   3.829 -0.5687 -0.8601  0.0807
  878MOL0     C18428   5.503   9.201   3.779  1.1324 -0.1332  0.5024
  878MOL0     C18429   5.628   9.200   3.843 -0.2497 -0.0587  0.2107
  878MOL0     C18430   5.654   9.126   3.963  0.3551 -0.9524  0.7869
  878MOL0     O18431   5.772   9.149   4.032 -0.0315 -0.2627  0.7416
  878MOL0     C18432   5.810   9.054   4.137 -0.5959  0.8406  0.1914
  878MOL0     C18433   5.944   9.085   4.189  0.4202 -0.5627  0.4100
  878MOL0     C18434   6.006   8.977   4.288  1.4578  0.3762  0.4476
  878MOL0     C18435   5.899   8.927   4.386  0.7068  0.7923  0.2781
  878MOL0     C18436   5.965   8.818   4.482  0.4379 -0.6496  0.0701
  878MOL0     C18437   5.960   8.878   4.625  0.2518  0.6258 -0.0549
  878MOL0     C18438   6.019   8.761   4.713  0.2187  0.3866 -0.0292
  878MOL0     C18439   5.949   8.762   4.845  0.2842  0.0432  0.3901
  878MOL0    Cl18440   5.979   8.905   4.941  0.8360  0.1415  0.0837
  878MOL0     C18441   5.547   9.059   4.022  0.5092 -0.8020  0.9991
  878MOL0     C18442   5.421   9.052   3.958  0.1477 -0.9291  0.2133
  878MOL0     O18443   5.372   8.944   3.616  0.0319 -0.3139 -0.8960
  878MOL0     C18444   5.053   9.041   3.619 -1.1625 -0.6617 -0.3703
  878MOL0     C18445   4.945   9.059   3.533  0.8151 -0.0375  0.2542
  878MOL0     N18446   4.525   9.047   2.786 -1.0127 -0.5956  0.0508
  878MOL0     N18447   4.516   8.948   2.703  0.5123  0.3966  0.1800
  878MOL0     C18448   5.068   7.733   2.584  0.5054  0.2124  0.9840
  878MOL0     C18449   5.175   7.645   2.590  1.3362  0.7361 -0.8198
  878MOL0     C18450   5.430   7.305   2.502 -0.2348 -0.1035 -0.8263
  878MOL0     C18451   5.527   7.321   2.600 -0.6887 -0.5907  0.0506
  878MOL0     C18452   5.647   7.260   2.589  0.3954 -0.1436 -0.4845
  878MOL0     C18453   5.684   7.178   2.479  0.9206  0.6783  0.6779
  878MOL0     O18454   5.803   7.110   2.444  0.1738 -0.7782 -0.0110
  878MOL0     C18455   5.894   7.081   2.552  0.3055  0.4016 -1.0321
  878MOL0     C18456   5.991   7.205   2.576  0.5590 -0.7292  0.6827
  878MOL0     C18457   6.115   7.187   2.477 -0.0278  0.4020 -0.2675
  878MOL0     C18458   6.210   7.306   2.490 -0.1047  1.0535 -0.2263
  878MOL0     C18459   6.304   7.313   2.371  1.1326  0.5906 -0.0988
  878MOL0     C18460   6.380   7.328   2.278  0.5797  0.0863  0.2580
  878MOL0     C18461   5.591   7.176   2.376  1.8893  0.4162 -0.1882
  878MOL0     C18462   5.463   7.227   2.390  0.1882 -0.5332  0.3653
  878MOL0     H18463   5.020   7.388   2.742 -0.4380 -0.0795 -0.0480
  878MOL0     H18464   4.843   7.532   2.735  1.7719 -3.9704 -1.2026
  878MOL0     H18465   4.809   7.907   2.808 -4.1124 -0.0509 -1.3760
  878MOL0     H18466   4.945   7.945   2.707 -0.0441 -0.2077  1.1838
  878MOL0     H18467   4.774   8.028   2.530  4.3106 -1.4849  1.1244
  878MOL0     H18468   4.648   7.979   2.638 -0.9211  2.2435  1.2300
  878MOL0     H18469   4.780   8.138   2.814  0.9539 -1.5506 -1.6081
  878MOL0     H18470   4.854   8.212   2.669 -1.3498  2.2789 -1.0924
  878MOL0     H18471   4.605   8.238   2.572 -2.0019 -0.0623  0.6374
  878MOL0     H18472   4.554   8.219   2.736  2.1966 -2.3404  2.7465
  878MOL0     H18473   4.709   8.407   2.797 -1.2768 -1.9594  1.3233
  878MOL0     H18474   4.748   8.418   2.619 -1.5910  0.0989  0.5977
  878MOL0     H18475   4.517   8.493   2.565 -2.7737 -2.3862  0.2542
  878MOL0     H18476   4.462   8.437   2.721 -0.4891  0.1821  1.5399
  878MOL0     H18477   4.579   8.607   2.832  3.3735 -3.0594 -1.0917
  878MOL0     H18478   4.640   8.686   2.690  0.4458 -0.1937  1.8759
  878MOL0     H18479   4.352   8.666   2.735  2.8586 -3.2868  2.2269
  878MOL0     H18480   4.430   8.739   2.585 -1.2510  2.3432  0.1822
  878MOL0     H18481   4.404   8.796   2.964 -0.5289  1.3201  0.0229
  878MOL0     H18482   4.483   9.188   3.023 -0.2358 -0.1786 -1.1106
  878MOL0     H18483   4.477   9.048   3.125  0.9535 -2.4516 -0.0008
  878MOL0     H18484   4.691   9.200   3.124  4.7876 -1.3315 -0.4746
  878MOL0     H18485   4.718   9.151   2.970 -0.5437  0.4830 -0.5598
  878MOL0     H18486   4.734   8.908   3.029 -1.5069 -1.7167  0.9432
  878MOL0     H18487   4.673   8.936   3.184  2.7762 -0.7797  0.7324
  878MOL0     H18488   4.943   9.066   3.109  2.2224 -1.3438  1.0502
  878MOL0     H18489   4.924   8.906   3.178 -2.9448 -1.1894  0.6377
  878MOL0     H18490   5.105   9.071   3.241 -2.5015  2.5881  0.1115
  878MOL0     H18491   5.326   9.136   3.270  1.7763 -0.8089 -0.7520
  878MOL0     H18492   5.409   9.107   3.431  0.2058 -0.7348  0.2963
  878MOL0     H18493   5.364   8.969   3.330 -0.4394  0.8367 -2.2603
  878MOL0     H18494   5.488   9.240   3.679 -1.3876 -3.9321 -0.8323
  878MOL0     H18495   5.712   9.261   3.811  0.3329  1.6160  4.3747
  878MOL0     H18496   5.738   9.037   4.217 -0.5274  4.0530  1.0708
  878MOL0     H18497   5.834   8.955   4.097 -1.7866 -0.0163  1.4914
  878MOL0     H18498   6.013   9.108   4.107  0.9713  0.3853  1.1176
  878MOL0     H18499   5.941   9.184   4.235  2.3938 -0.9567  1.5290
  878MOL0     H18500   6.083   9.019   4.353  0.7195  1.3984  0.6837
  878MOL0     H18501   6.032   8.895   4.219 -0.9662  1.5968 -2.0918
  878MOL0     H18502   5.850   9.008   4.441  1.2030  0.7092  0.8463
  878MOL0     H18503   5.821   8.869   4.335  0.2936 -0.5778  2.3756
  878MOL0     H18504   6.062   8.781   4.446  0.5954 -0.8098  0.6480
  878MOL0     H18505   5.897   8.733   4.474 -3.5343  2.3776 -4.0290
  878MOL0     H18506   6.019   8.969   4.622 -1.6234  1.8671 -2.6909
  878MOL0     H18507   5.858   8.899   4.658  0.9769 -1.3109  4.0421
  878MOL0     H18508   6.128   8.754   4.707  0.1772 -0.0655 -0.2696
  878MOL0     H18509   5.986   8.669   4.665  1.1732  1.9130 -4.0771
  878MOL0     H18510   5.972   8.666   4.893 -0.5292  0.3317  1.3912
  878MOL0     H18511   5.844   8.758   4.814  0.2813  1.9536  0.0743
  878MOL0     H18512   5.546   8.999   4.113 -3.6171  2.3690  3.3894
  878MOL0     H18513   5.335   8.994   3.989 -1.5758  0.6616 -1.3660
  878MOL0     H18514   5.043   9.023   3.726  3.9842 -0.4498  0.4033
  878MOL0     H18515   4.848   9.067   3.582  0.9105  1.6449  0.2130
  878MOL0     H18516   5.087   7.831   2.541  1.0082 -1.0951 -2.0549
  878MOL0     H18517   5.271   7.677   2.549  1.4798  3.1398  1.1524
  878MOL0     H18518   5.514   7.380   2.690 -1.6655 -2.0082  0.8935
  878MOL0     H18519   5.721   7.289   2.663  1.0158  2.5529 -2.0542
  878MOL0     H18520   5.834   7.071   2.643 -1.6617  1.3525 -2.1460
  878MOL0     H18521   5.945   6.987   2.533  1.1829  0.0954  2.2647
  878MOL0     H18522   6.038   7.215   2.675  0.8831 -0.9714  0.5576
  878MOL0     H18523   5.936   7.293   2.541 -0.9467 -1.8787  0.0971
  878MOL0     H18524   6.079   7.184   2.374 -0.6066  2.8494 -0.2078
  878MOL0     H18525   6.169   7.094   2.498 -0.9650 -0.1595 -0.2804
  878MOL0     H18526   6.270   7.313   2.581  1.8290  5.3734 -1.5551
  878MOL0     H18527   6.154   7.397   2.511  2.0418  2.2254  0.7401
  878MOL0     H18528   6.443   7.330   2.192 -0.8937  2.4323 -0.8820
  878MOL0     H18529   5.603   7.116   2.286 -3.5662 -3.8388  1.3806
  878MOL0     H18530   5.392   7.238   2.308  1.5163  0.3370 -0.7083
  879MOL0     O18531   3.123   9.010   5.538 -0.3423  0.8162 -0.1427
  879MOL0     C18532   3.006   9.062   5.528 -0.0122  0.7875  0.3382
  879MOL0     O18533   2.898   9.016   5.455  0.4529  0.6724  0.3930
  879MOL0     C18534   2.930   8.929   5.354  1.4140  0.5871  0.1244
  879MOL0     C18535   2.901   8.793   5.368  0.0442 -0.2616 -0.3011
  879MOL0     C18536   2.929   8.699   5.264 -0.9142  0.5074  0.0416
  879MOL0     C18537   2.988   8.745   5.143 -0.2257 -0.7799 -0.0385
  879MOL0     O18538   3.010   8.657   5.042  0.1705  0.1632  0.8090
  879MOL0     C18539   3.150   8.623   5.033  0.2923  0.1617  0.5076
  879MOL0     C18540   3.166   8.500   4.931  0.2620 -0.3087 -0.6098
  879MOL0     C18541   3.208   8.534   4.788  0.8276 -0.0700  0.0971
  879MOL0     C18542   3.352   8.589   4.778 -0.8524  1.4912 -0.1694
  879MOL0     C18543   3.359   8.676   4.656  0.6222  0.5247 -1.4087
  879MOL0     C18544   3.386   8.582   4.534  0.3876  0.1458  0.0377
  879MOL0     C18545   3.402   8.662   4.401 -0.0165  0.1154  0.0252
  879MOL0     C18546   3.412   8.574   4.277  0.6433  0.0978  0.6121
  879MOL0     N18547   3.520   8.476   4.278  0.7578  0.8517 -0.6168
  879MOL0     C18548   3.652   8.502   4.239  0.5217  0.7267 -1.4459
  879MOL0     C18549   3.715   8.381   4.239 -0.6478 -0.3754  0.6405
  879MOL0     C18550   3.859   8.358   4.203  0.0256  0.2042  1.0598
  879MOL0     C18551   3.879   8.387   4.049 -0.9338  0.5922 -1.2551
  879MOL0     C18552   3.877   8.538   4.006 -0.5986  0.4592  1.2446
  879MOL0     C18553   3.863   8.558   3.852  0.3327  0.2516  0.0247
  879MOL0     O18554   3.996   8.547   3.792 -0.1793  0.6550  0.0351
  879MOL0     C18555   3.967   8.570   3.658 -0.1249 -0.5591 -0.6736
  879MOL0     C18556   3.902   8.481   3.573  0.9835  0.1903  0.3587
  879MOL0     C18557   3.862   8.526   3.451  1.0345  0.0700  0.6999
  879MOL0     C18558   3.780   8.422   3.370 -0.1423  0.1631 -0.1690
  879MOL0     C18559   3.877   8.661   3.405 -0.0850 -0.4226  0.9022
  879MOL0     C18560   3.805   8.714   3.285 -0.0550  0.7161  0.4643
  879MOL0     O18561   3.725   8.630   3.216  0.7103 -0.1411 -0.0311
  879MOL0     C18562   3.645   8.679   3.113 -0.6966 -0.0578  0.8734
  879MOL0     C18563   3.698   8.771   3.011 -0.4617  0.2301 -0.3744
  879MOL0     C18564   3.615   8.821   2.914  0.1771  0.3111  0.1182
  879MOL0     C18565   3.477   8.771   2.902 -0.0298 -0.3053  0.1998
  879MOL0     O18566   3.395   8.822   2.798  0.6472 -0.7139  0.2913
  879MOL0     C18567   3.325   8.723   2.726  0.1805  0.0517 -0.6093
  879MOL0     C18568   3.232   8.784   2.618  0.1516  0.4377 -0.0554
  879MOL0     C18569   3.181   8.676   2.525 -0.2901  0.3504  0.8459
  879MOL0     C18570   3.281   8.641   2.422  0.3431  0.5078  0.4620
  879MOL0     C18571   3.261   8.508   2.336  1.3785 -0.9933  0.1098
  879MOL0     C18572   3.138   8.517   2.243 -0.1609  0.4278 -0.7957
  879MOL0     C18573   3.117   8.384   2.167 -0.1737 -0.5284  0.2184
  879MOL0     C18574   3.001   8.383   2.062 -0.3826 -0.4416  0.1988
  879MOL0    Cl18575   2.987   8.205   2.015 -0.2151 -0.1973 -0.0161
  879MOL0     C18576   3.430   8.666   2.993  0.5603 -0.7681 -0.4200
  879MOL0     C18577   3.514   8.623   3.095  0.4018  0.4096 -0.5935
  879MOL0     O18578   3.827   8.834   3.264  0.2500 -0.4851  0.5764
  879MOL0     C18579   3.959   8.748   3.480 -0.0325  0.4359  0.3825
  879MOL0     C18580   4.000   8.699   3.607 -0.1674 -0.2054 -0.4377
  879MOL0     N18581   3.620   8.292   4.278 -0.5249 -0.4329 -0.3704
  879MOL0     N18582   3.500   8.334   4.302 -0.0034 -0.3719  0.6388
  879MOL0     C18583   3.010   8.883   5.123 -0.0769  0.5434  0.4806
  879MOL0     C18584   2.974   8.968   5.227  0.3574  0.9843 -0.5446
  879MOL0     C18585   2.978   9.185   5.616 -0.5251 -0.8727  0.0650
  879MOL0     C18586   2.866   9.270   5.595  1.4202  0.7861 -0.3763
  879MOL0     C18587   2.856   9.386   5.671  1.0595  0.4420  0.3383
  879MOL0     C18588   2.952   9.415   5.773  0.2753  0.1652 -0.7345
  879MOL0     O18589   2.941   9.524   5.854  0.2741 -0.1591 -0.3905
  879MOL0     C18590   3.062   9.595   5.897 -0.2320  0.2524  0.1866
  879MOL0     C18591   3.014   9.720   5.946 -0.5544 -0.6222  0.2068
  879MOL0     C18592   3.128   9.798   6.027 -0.8737  0.2319 -1.3435
  879MOL0     C18593   3.092   9.946   6.036  0.1861  0.2851 -0.1053
  879MOL0     C18594   2.957   9.961   6.086 -0.3298  0.0191 -0.3562
  879MOL0     C18595   2.839   9.957   6.136 -1.2832  0.4277 -0.9957
  879MOL0     C18596   3.067   9.346   5.777 -0.6540 -0.6241 -0.6305
  879MOL0     C18597   3.078   9.234   5.699  0.0920  0.0138  0.0965
  879MOL0     H18598   2.855   8.761   5.461  0.8588  0.2780  0.3063
  879MOL0     H18599   2.911   8.594   5.284  4.4109 -1.0759 -1.7794
  879MOL0     H18600   3.214   8.711   5.025  1.4368 -0.5588  1.4667
  879MOL0     H18601   3.175   8.593   5.135  1.6764  1.7145  0.6633
  879MOL0     H18602   3.231   8.423   4.975 -2.1826 -2.4433 -0.4590
  879MOL0     H18603   3.064   8.458   4.932 -0.4424  1.2661  1.8008
  879MOL0     H18604   3.198   8.448   4.722  0.7389  0.7069 -0.9252
  879MOL0     H18605   3.133   8.598   4.740  1.2690  1.3676  1.2179
  879MOL0     H18606   3.384   8.643   4.868  2.5798  1.6292 -1.3436
  879MOL0     H18607   3.420   8.504   4.780 -2.3075  0.1625 -2.8452
  879MOL0     H18608   3.264   8.729   4.646 -0.4026 -0.9815 -0.1434
  879MOL0     H18609   3.435   8.754   4.667 -0.9927  2.1913 -1.5262
  879MOL0     H18610   3.471   8.516   4.551  2.3646  2.0440 -1.8327
  879MOL0     H18611   3.304   8.512   4.513 -0.1403  1.5236 -3.0403
  879MOL0     H18612   3.319   8.726   4.372 -0.6016 -0.8770 -0.5588
  879MOL0     H18613   3.487   8.727   4.422  0.1568 -0.5863  1.6540
  879MOL0     H18614   3.428   8.640   4.191  1.8071 -3.1877 -1.9422
  879MOL0     H18615   3.318   8.517   4.271  1.6825 -1.8822  2.0473
  879MOL0     H18616   3.694   8.599   4.215  2.4400  0.0772 -0.8901
  879MOL0     H18617   3.930   8.412   4.268  0.2268 -0.4765  1.4165
  879MOL0     H18618   3.897   8.256   4.216  2.8586  1.1771  1.1312
  879MOL0     H18619   3.794   8.342   3.998 -0.0181  0.1307 -2.4264
  879MOL0     H18620   3.973   8.339   4.019  0.8418  2.3648  1.0096
  879MOL0     H18621   3.972   8.580   4.041  1.4310 -1.9609 -1.0134
  879MOL0     H18622   3.792   8.584   4.059 -0.2693  1.2894  1.0707
  879MOL0     H18623   3.822   8.658   3.831  1.6305  0.5812 -1.1014
  879MOL0     H18624   3.788   8.488   3.813  1.6874 -1.5923  0.6086
  879MOL0     H18625   3.892   8.377   3.602  3.3994 -0.8290 -1.9838
  879MOL0     H18626   3.678   8.460   3.360 -0.4528 -1.2013 -3.5074
  879MOL0     H18627   3.815   8.401   3.268 -3.4866 -2.6269 -0.9051
  879MOL0     H18628   3.783   8.322   3.413  2.1343 -1.2650 -3.2150
  879MOL0     H18629   3.803   8.798   3.016 -0.5987  0.8209 -0.5859
  879MOL0     H18630   3.660   8.885   2.839  1.3139  0.2397  0.7114
  879MOL0     H18631   3.402   8.662   2.680  1.9853  1.7157  0.0724
  879MOL0     H18632   3.264   8.667   2.798  1.0192 -2.5131 -1.7989
  879MOL0     H18633   3.152   8.836   2.671  1.5559  0.2197  2.4533
  879MOL0     H18634   3.287   8.854   2.554  2.9081 -0.9434  0.6562
  879MOL0     H18635   3.086   8.704   2.479 -0.1291 -1.2172 -0.5161
  879MOL0     H18636   3.163   8.588   2.587  1.4903 -0.1229  0.7227
  879MOL0     H18637   3.285   8.724   2.351 -0.1983  0.7426  0.6993
  879MOL0     H18638   3.378   8.620   2.469  1.7213  2.0086 -1.5425
  879MOL0     H18639   3.260   8.432   2.415 -0.3593  0.2290  1.3714
  879MOL0     H18640   3.346   8.497   2.269 -0.2052  0.6263 -2.3749
  879MOL0     H18641   3.049   8.536   2.304 -1.0515 -0.1996 -1.8527
  879MOL0     H18642   3.158   8.591   2.165  2.3578  1.7490  0.9561
  879MOL0     H18643   3.100   8.300   2.235  2.2044 -0.1137  1.4324
  879MOL0     H18644   3.205   8.375   2.104  0.4127  2.2493  0.5160
  879MOL0     H18645   3.022   8.459   1.987  1.7131  0.6827  1.7973
  879MOL0     H18646   2.913   8.410   2.121  0.0007 -0.2118  0.6779
  879MOL0     H18647   3.337   8.616   2.968 -0.1411  0.0373  0.5020
  879MOL0     H18648   3.484   8.558   3.177  0.9267  1.5333  0.5205
  879MOL0     H18649   3.981   8.848   3.443  0.4408 -0.1395 -0.9690
  879MOL0     H18650   4.044   8.774   3.671  1.5745 -1.6372  0.1473
  879MOL0     H18651   3.033   8.917   5.023 -2.3300 -2.8736 -1.3840
  879MOL0     H18652   2.976   9.076   5.210  2.2464  1.2316  0.9585
  879MOL0     H18653   2.787   9.250   5.523 -0.1854  1.4920  1.1182
  879MOL0     H18654   2.772   9.455   5.665  0.6617 -0.0260  0.5723
  879MOL0     H18655   3.111   9.530   5.971 -1.9231  0.7141  1.7724
  879MOL0     H18656   3.140   9.607   5.821  0.3917  0.4712  0.8432
  879MOL0     H18657   2.935   9.695   6.017  0.3270 -0.0458  1.4409
  879MOL0     H18658   2.975   9.777   5.861 -0.2864  0.6225  0.8846
  879MOL0     H18659   3.224   9.797   5.976 -1.0107  0.2939 -1.6019
  879MOL0     H18660   3.129   9.753   6.127  2.4721  1.7372 -0.5608
  879MOL0     H18661   3.100   9.981   5.932 -1.7611 -3.2579 -1.6527
  879MOL0     H18662   3.163   9.991   6.105  1.3136  0.9630 -1.6316
  879MOL0     H18663   2.739   9.972   6.170 -0.3085  0.3010  2.2091
  879MOL0     H18664   3.141   9.369   5.853 -2.2528 -0.2152  0.8805
  879MOL0     H18665   3.168   9.174   5.708  1.4119  1.5896 -1.9962
  880MOL0     O18666   3.203  10.004  10.786 -0.7708 -0.2761 -0.5855
  880MOL0     C18667   3.127  10.035  10.697 -0.3152  0.5221  0.3589
  880MOL0     O18668   3.171  10.078  10.576  0.3499 -0.6665 -0.0690
  880MOL0     C18669   3.304  10.105  10.550  0.2513 -1.4288 -0.6593
  880MOL0     C18670   3.335  10.117  10.415  0.0353 -0.1286 -0.2557
  880MOL0     C18671   3.459  10.160  10.374 -0.6064  0.3111 -1.0574
  880MOL0     C18672   3.560  10.195  10.464  0.5945 -0.7476 -0.1224
  880MOL0     O18673   3.683  10.240  10.441 -0.2028  0.4443  0.7999
  880MOL0     C18674   3.747  10.168  10.330  0.9184 -0.1395 -0.1153
  880MOL0     C18675   3.886  10.230  10.296  0.7152  0.1290 -1.0472
  880MOL0     C18676   3.873  10.340  10.190 -0.4491 -0.4471 -0.1562
  880MOL0     C18677   3.854  10.484  10.226  0.3532 -0.3945 -0.5773
  880MOL0     C18678   3.905  10.584  10.118 -0.2278  0.7436 -0.5311
  880MOL0     C18679   3.822  10.566   9.984  0.4072  0.1717 -0.7001
  880MOL0     C18680   3.680  10.632  10.003  0.0587 -0.1905  0.6563
  880MOL0     C18681   3.587  10.585   9.890 -0.8420 -0.2259  0.3491
  880MOL0     N18682   3.557  10.437   9.911 -0.8867 -0.2363 -0.5689
  880MOL0     C18683   3.581  10.337   9.829 -0.3106  0.6825 -0.7467
  880MOL0     C18684   3.506  10.237   9.889 -1.0200 -0.2319  0.1234
  880MOL0     C18685   3.499  10.095   9.817 -0.3868  0.1094 -0.3970
  880MOL0     C18686   3.516   9.987   9.928 -0.5580 -0.0578 -0.3515
  880MOL0     C18687   3.396   9.911   9.986  0.4719 -0.1646  0.2901
  880MOL0     C18688   3.304   9.993  10.081  0.1442  0.9181  0.2610
  880MOL0     O18689   3.205   9.906  10.143 -0.2832 -0.7142  0.1952
  880MOL0     C18690   3.073   9.944  10.153  0.3004  0.3364  0.0772
  880MOL0     C18691   3.027  10.073  10.180  0.4269  0.7271 -0.2470
  880MOL0     C18692   2.892  10.103  10.181 -0.3227 -1.2431  0.3629
  880MOL0     C18693   2.857  10.247  10.214 -0.6172  0.1548 -0.7726
  880MOL0     C18694   2.794  10.001  10.175 -0.3992 -0.2971 -0.0829
  880MOL0     C18695   2.648  10.002  10.173  0.6016  0.9469 -0.3728
  880MOL0     O18696   2.588  10.102  10.100  0.2266  1.0706  0.0494
  880MOL0     C18697   2.462  10.146  10.119  0.7449  0.2593  0.0809
  880MOL0     C18698   2.427  10.228  10.238  0.7052  0.7957  0.2990
  880MOL0     C18699   2.294  10.282  10.248  0.1452 -0.5026  0.5989
  880MOL0     C18700   2.200  10.268  10.141  0.1251  1.1258  0.6380
  880MOL0     O18701   2.071  10.325  10.147 -0.1340 -0.1477 -0.6245
  880MOL0     C18702   2.004  10.380  10.260 -0.3834  0.0789 -0.2581
  880MOL0     C18703   1.949  10.275  10.348  0.2542 -0.2199  0.5445
  880MOL0     C18704   1.840  10.330  10.442  0.2232 -0.6360  0.5419
  880MOL0     C18705   1.763  10.212  10.489 -0.3670  0.4502 -0.5315
  880MOL0     C18706   1.642  10.249  10.574 -1.0913  0.4054 -0.6539
  880MOL0     C18707   1.681  10.313  10.706 -0.0157 -0.0497 -0.0021
  880MOL0     C18708   1.582  10.293  10.821 -0.8452  0.9307 -0.6100
  880MOL0     C18709   1.474  10.406  10.832  0.2918  0.1899 -0.1944
  880MOL0    Cl18710   1.386  10.415  10.995 -0.2379 -0.0624 -0.6061
  880MOL0     C18711   2.237  10.189  10.038 -0.1107  0.1602 -0.6442
  880MOL0     C18712   2.364  10.122  10.020 -0.4210 -0.4777 -0.0940
  880MOL0     O18713   2.582   9.922  10.239 -0.2279 -0.1462  0.0489
  880MOL0     C18714   2.848   9.865  10.161 -0.8558  0.2947  0.3297
  880MOL0     C18715   2.987   9.841  10.158  0.6171  0.2504 -0.6594
  880MOL0     N18716   3.441  10.278  10.006  0.4946  0.4152  0.5492
  880MOL0     N18717   3.470  10.403  10.009 -0.2815 -0.3080  0.7716
  880MOL0     C18718   3.529  10.170  10.602 -0.2257 -0.8817  0.0951
  880MOL0     C18719   3.401  10.127  10.645 -0.0587 -0.7323 -0.2874
  880MOL0     C18720   2.980   9.996  10.727  0.1825  0.3142  0.2951
  880MOL0     C18721   2.897   9.979  10.621 -0.1154 -0.1383 -0.2739
  880MOL0     C18722   2.772   9.940  10.644  0.9406 -0.6479 -0.7174
  880MOL0     C18723   2.719   9.920  10.774 -0.9753  1.0705 -0.7989
  880MOL0     O18724   2.594   9.854  10.773 -0.4281 -0.6990 -0.2277
  880MOL0     C18725   2.542   9.827  10.905  0.0744 -0.3736 -0.1560
  880MOL0     C18726   2.433   9.725  10.913  0.0880 -0.0021  0.8764
  880MOL0     C18727   2.315   9.770  10.820  0.6772 -1.0161 -0.2499
  880MOL0     C18728   2.171   9.778  10.893  0.3061  0.2375 -0.0387
  880MOL0     C18729   2.187   9.853  11.014 -0.5623 -1.3005 -0.4802
  880MOL0     C18730   2.203   9.902  11.119 -0.9811 -0.4451  0.7774
  880MOL0     C18731   2.801   9.944  10.884 -0.7484  0.3558  0.1399
  880MOL0     C18732   2.930   9.998  10.860  0.1055 -0.3281 -0.5206
  880MOL0     H18733   3.258  10.105  10.339 -1.1043 -2.0050  1.1204
  880MOL0     H18734   3.482  10.195  10.274 -0.5823 -0.3268 -1.2770
  880MOL0     H18735   3.775  10.066  10.360 -2.2571 -1.4555 -1.1678
  880MOL0     H18736   3.687  10.139  10.243  0.7659  0.9129 -0.3699
  880MOL0     H18737   3.930  10.255  10.393  0.7899 -0.6322 -0.8784
  880MOL0     H18738   3.944  10.148  10.253 -1.0547 -0.6747 -2.0118
  880MOL0     H18739   3.968  10.343  10.136  0.9518 -1.8154  2.1136
  880MOL0     H18740   3.802  10.322  10.108 -3.1875  2.1119  1.4083
  880MOL0     H18741   3.745  10.495  10.232  0.4161  0.8581 -1.4614
  880MOL0     H18742   3.896  10.503  10.324 -0.0918 -1.0090 -0.2582
  880MOL0     H18743   3.883  10.684  10.157 -0.8608 -0.3858  2.2577
  880MOL0     H18744   4.013  10.565  10.110 -0.2855 -1.9657  2.6743
  880MOL0     H18745   3.872  10.628   9.909  0.3345 -1.6948 -2.3639
  880MOL0     H18746   3.816  10.463   9.950 -0.8331 -1.6234  4.0642
  880MOL0     H18747   3.631  10.608  10.097 -0.4126  1.5113  0.8779
  880MOL0     H18748   3.687  10.741   9.995 -1.7668 -0.1059 -0.3082
  880MOL0     H18749   3.636  10.608   9.795  0.2234  1.9595  1.3635
  880MOL0     H18750   3.492  10.637   9.902  1.1808  3.4234  2.2904
  880MOL0     H18751   3.644  10.335   9.741  2.4499  3.5363  0.9245
  880MOL0     H18752   3.404  10.087   9.765 -0.9973 -3.6289  1.0237
  880MOL0     H18753   3.589  10.098   9.755  0.2312  1.6693  0.5081
  880MOL0     H18754   3.574  10.031  10.010 -0.4291  0.1456 -0.5531
  880MOL0     H18755   3.581   9.904   9.900 -2.7631 -2.6300  1.5301
  880MOL0     H18756   3.431   9.825  10.043 -2.1801 -0.4353  1.6622
  880MOL0     H18757   3.341   9.854   9.911  0.8189 -1.0165  0.6784
  880MOL0     H18758   3.256  10.074  10.026  2.1668  1.0205 -1.4768
  880MOL0     H18759   3.362  10.029  10.167  0.6726 -1.4729  0.9922
  880MOL0     H18760   3.109  10.143  10.164  1.0168 -0.3106 -2.0040
  880MOL0     H18761   2.816  10.251  10.316  1.6267 -0.4605  0.2193
  880MOL0     H18762   2.951  10.302  10.225  0.7790 -1.8925 -1.9182
  880MOL0     H18763   2.791  10.292  10.140  0.3379  2.1991 -0.4494
  880MOL0     H18764   2.487  10.249  10.326  0.7165 -0.3793  0.5782
  880MOL0     H18765   2.261  10.346  10.329 -2.1565 -1.2361  0.3192
  880MOL0     H18766   2.073  10.443  10.317 -1.9381 -0.1942  2.0878
  880MOL0     H18767   1.919  10.444  10.232  0.5267  1.3760 -0.1408
  880MOL0     H18768   1.908  10.206  10.274 -2.6675  1.3912  0.5164
  880MOL0     H18769   2.025  10.217  10.401 -0.3580 -1.8310 -0.2778
  880MOL0     H18770   1.785  10.405  10.384  0.0647 -2.3897 -1.6993
  880MOL0     H18771   1.885  10.379  10.529 -2.5179  0.6262  1.3939
  880MOL0     H18772   1.731  10.165  10.396 -2.6569  3.3466 -1.3763
  880MOL0     H18773   1.823  10.136  10.539  0.4516  2.0327  1.0044
  880MOL0     H18774   1.595  10.154  10.601 -1.4192  0.6753 -0.2767
  880MOL0     H18775   1.571  10.309  10.517 -2.1786  2.1310  2.3215
  880MOL0     H18776   1.770  10.260  10.743 -0.1403 -0.2647 -0.0041
  880MOL0     H18777   1.708  10.417  10.686 -1.1840  0.5900  1.5448
  880MOL0     H18778   1.646  10.292  10.909 -0.7733 -2.1296 -0.6086
  880MOL0     H18779   1.536  10.194  10.816  0.4853  0.2503  0.1207
  880MOL0     H18780   1.406  10.393  10.748  1.0663 -2.2457 -0.5357
  880MOL0     H18781   1.531  10.499  10.826  1.4114 -0.3617  1.2513
  880MOL0     H18782   2.166  10.171   9.958  1.3191 -2.3459 -1.4520
  880MOL0     H18783   2.393  10.073   9.928 -2.7032  0.1982 -1.2608
  880MOL0     H18784   2.776   9.784  10.173  0.4194 -0.6296  2.2058
  880MOL0     H18785   3.024   9.740  10.145 -2.0764 -0.5175 -3.5483
  880MOL0     H18786   3.598  10.200  10.681  3.2847 -1.8361 -2.3907
  880MOL0     H18787   3.380  10.138  10.751 -2.6183 -1.2119 -0.6664
  880MOL0     H18788   2.942   9.993  10.523  1.9407 -0.1336  0.6021
  880MOL0     H18789   2.706   9.930  10.559  2.7455 -1.3200 -2.1020
  880MOL0     H18790   2.620   9.797  10.976  0.6777  2.1919  0.3745
  880MOL0     H18791   2.491   9.919  10.934 -1.7559 -1.0432 -1.0625
  880MOL0     H18792   2.398   9.708  11.015 -0.7271 -0.1948  0.5735
  880MOL0     H18793   2.469   9.632  10.867  0.8913  2.0725 -3.1585
  880MOL0     H18794   2.299   9.703  10.735  0.3834  0.2646 -1.2345
  880MOL0     H18795   2.346   9.867  10.780 -0.0219 -0.1939  1.1342
  880MOL0     H18796   2.145   9.674  10.915  1.2622 -0.6548 -2.7427
  880MOL0     H18797   2.092   9.820  10.829  0.6801  1.3497  0.2168
  880MOL0     H18798   2.214   9.949  11.214  3.0332  0.3810  0.0535
  880MOL0     H18799   2.761   9.934  10.984 -3.8043  4.7434 -0.3607
  880MOL0     H18800   2.995  10.019  10.945  0.7324 -2.0222 -0.5490
  881MOL0     O18801  10.385   9.207   3.014 -1.0983  0.0722  0.1315
  881MOL0     C18802  10.278   9.172   2.986  0.1426 -0.2890 -0.3008
  881MOL0     O18803  10.212   9.062   3.045  0.9322 -0.5854 -0.3713
  881MOL0     C18804  10.299   8.971   3.102  0.3725  0.3137 -0.8188
  881MOL0     C18805  10.373   8.883   3.017 -1.3251  0.1522  0.1507
  881MOL0     C18806  10.481   8.807   3.071  0.6414  0.2658  0.1749
  881MOL0     C18807  10.489   8.787   3.205  0.6258 -0.4150  0.3773
  881MOL0     O18808  10.576   8.687   3.232 -1.2318  0.2383  0.7159
  881MOL0     C18809  10.656   8.712   3.349 -0.2271  0.4261  0.0567
  881MOL0     C18810  10.795   8.621   3.352 -0.8702 -0.0718  0.2738
  881MOL0     C18811  10.919   8.682   3.275  0.0867 -0.4761 -0.5328
  881MOL0     C18812  11.053   8.617   3.279 -0.6931  0.3465 -0.3899
  881MOL0     C18813  11.156   8.669   3.166  0.4355  0.4004  1.0135
  881MOL0     C18814  11.206   8.811   3.189 -0.7052 -0.1029  0.4049
  881MOL0     C18815  11.284   8.819   3.325  0.1695  0.1450  0.5954
  881MOL0     C18816  11.327   8.950   3.377 -0.0185 -0.2106  0.1516
  881MOL0     N18817  11.208   9.031   3.406  0.0474  0.0591  0.1859
  881MOL0     C18818  11.125   9.030   3.506  0.9581 -0.1595 -0.0260
  881MOL0     C18819  11.024   9.115   3.484  0.1508  0.6290 -0.9975
  881MOL0     C18820  10.905   9.130   3.575 -1.0611 -0.4012  0.2879
  881MOL0     C18821  10.782   9.061   3.517 -0.0221  0.1659  0.2535
  881MOL0     C18822  10.659   9.054   3.599  0.0047  0.2661 -0.7323
  881MOL0     C18823  10.625   9.202   3.658 -0.3112  0.2159  0.2810
  881MOL0     O18824  10.500   9.200   3.725  0.5394  0.2450  0.5882
  881MOL0     C18825  10.386   9.199   3.645  0.1783  0.7731  0.4015
  881MOL0     C18826  10.276   9.125   3.687  0.4755 -0.0017  0.6861
  881MOL0     C18827  10.153   9.119   3.614  0.0503 -0.5782  0.4684
  881MOL0     C18828  10.033   9.060   3.678  0.0353 -0.3633 -0.4549
  881MOL0     C18829  10.141   9.189   3.489 -0.5500 -0.2764 -0.2816
  881MOL0     C18830  10.014   9.211   3.412  1.1835  0.1644  0.5373
  881MOL0     O18831  10.004   9.330   3.340  1.0301  0.7835  1.0565
  881MOL0     C18832   9.897   9.367   3.268 -0.5119  0.1412  0.1843
  881MOL0     C18833   9.928   9.465   3.171  0.1550  0.5668  0.7162
  881MOL0     C18834   9.828   9.516   3.089  0.4571 -0.5668 -0.9482
  881MOL0     C18835   9.698   9.477   3.113  0.7686  0.9482  1.1468
  881MOL0     O18836   9.585   9.512   3.038  0.3890 -0.1370 -0.5276
  881MOL0     C18837   9.605   9.570   2.909  0.5547  0.2422  0.0697
  881MOL0     C18838   9.567   9.722   2.903 -0.4106  0.1362  0.1001
  881MOL0     C18839   9.623   9.797   3.021  0.0081  0.3824 -0.3491
  881MOL0     C18840   9.556   9.942   3.028  0.3676  0.0782  0.3711
  881MOL0     C18841   9.586  10.015   3.154 -1.2681 -0.3764 -0.8153
  881MOL0     C18842   9.484  10.133   3.185  0.2792  1.0347  0.5260
  881MOL0     C18843   9.539  10.233   3.296 -0.1319  0.6445  0.4094
  881MOL0     C18844   9.435  10.329   3.359 -0.1992 -0.5456 -0.7645
  881MOL0    Cl18845   9.299  10.369   3.255 -0.0627 -0.2192  0.0963
  881MOL0     C18846   9.660   9.386   3.216  0.3884 -0.0473  0.8227
  881MOL0     C18847   9.766   9.330   3.285  0.4510 -0.0269  0.3358
  881MOL0     O18848   9.941   9.111   3.403  0.4876 -0.6644 -0.0081
  881MOL0     C18849  10.255   9.271   3.451  0.0024 -0.3191  0.0108
  881MOL0     C18850  10.369   9.265   3.524  0.4867  0.3444  0.1139
  881MOL0     N18851  11.050   9.172   3.372 -0.4349 -0.0195 -0.3768
  881MOL0     N18852  11.160   9.124   3.322  0.0255 -0.4976  0.7004
  881MOL0     C18853  10.408   8.859   3.289  0.5748 -0.7866 -1.2509
  881MOL0     C18854  10.316   8.955   3.242 -0.1182  0.2588 -0.8868
  881MOL0     C18855  10.201   9.269   2.904  0.0014 -0.6133  0.3701
  881MOL0     C18856  10.063   9.271   2.920 -0.3716 -0.9098  1.0562
  881MOL0     C18857   9.981   9.357   2.837  0.3140  0.7234  0.3139
  881MOL0     C18858  10.036   9.452   2.752 -0.1424 -1.3531 -0.2635
  881MOL0     O18859   9.943   9.523   2.688 -0.1234  0.2391  0.4052
  881MOL0     C18860   9.988   9.628   2.597  0.2416  0.0510  0.3387
  881MOL0     C18861   9.864   9.701   2.554 -0.5059 -0.0208 -0.5796
  881MOL0     C18862   9.905   9.836   2.499  0.3058  0.5490  0.0430
  881MOL0     C18863   9.987   9.824   2.367  0.1157  0.2648  0.1399
  881MOL0     C18864  10.036   9.949   2.315 -0.6472 -0.2812  0.6384
  881MOL0     C18865  10.098  10.049   2.286  0.6474  0.2859  0.5261
  881MOL0     C18866  10.176   9.460   2.741  1.0394 -0.0357  0.0948
  881MOL0     C18867  10.261   9.365   2.812  0.9741  0.1141  0.4818
  881MOL0     H18868  10.361   8.889   2.910 -3.2699  1.0540  0.3795
  881MOL0     H18869  10.546   8.750   3.006 -0.3989  1.0468 -1.6356
  881MOL0     H18870  10.671   8.820   3.352  1.8485  0.1591  1.3928
  881MOL0     H18871  10.602   8.696   3.442 -1.3913 -0.7631 -0.7831
  881MOL0     H18872  10.813   8.592   3.456 -0.1220 -1.5737 -0.2415
  881MOL0     H18873  10.779   8.522   3.309  0.9274 -1.6777  2.9988
  881MOL0     H18874  10.895   8.684   3.168 -1.2134 -0.3551 -0.2560
  881MOL0     H18875  10.929   8.782   3.319 -0.5772 -1.3497  1.7527
  881MOL0     H18876  11.091   8.609   3.381 -0.8207 -0.9297 -0.4378
  881MOL0     H18877  11.031   8.514   3.252 -1.0992  0.2591  0.2541
  881MOL0     H18878  11.238   8.598   3.153 -0.5522 -0.8660  1.5159
  881MOL0     H18879  11.099   8.666   3.073  0.5345  0.6959  0.9430
  881MOL0     H18880  11.271   8.849   3.110 -1.4257 -3.5222 -2.0929
  881MOL0     H18881  11.117   8.874   3.189 -1.8442 -1.6184 -1.1632
  881MOL0     H18882  11.207   8.783   3.394 -0.3079 -0.5501 -0.2796
  881MOL0     H18883  11.363   8.744   3.330 -1.3730 -1.5568  0.5539
  881MOL0     H18884  11.378   8.997   3.293 -0.1274  4.8529  2.5548
  881MOL0     H18885  11.380   8.936   3.472 -2.0157 -0.5967  1.2729
  881MOL0     H18886  11.125   8.955   3.584 -3.7515 -0.8471 -0.4228
  881MOL0     H18887  10.936   9.083   3.669 -0.4115 -0.8538 -0.1392
  881MOL0     H18888  10.890   9.237   3.589  1.3061  0.4310 -2.5075
  881MOL0     H18889  10.799   8.955   3.496 -0.0517  0.0059  0.9931
  881MOL0     H18890  10.751   9.104   3.421  2.8486  2.2086  0.1087
  881MOL0     H18891  10.682   8.997   3.690  1.4849  0.3375 -1.0416
  881MOL0     H18892  10.569   9.006   3.560 -0.8041  0.1738  1.1495
  881MOL0     H18893  10.632   9.270   3.572 -1.2836  0.3952  0.3385
  881MOL0     H18894  10.703   9.237   3.726 -0.9279 -1.0558  1.6915
  881MOL0     H18895  10.281   9.057   3.772  2.7866  2.1818  2.4478
  881MOL0     H18896   9.941   9.114   3.650  1.3292  3.4720  1.9723
  881MOL0     H18897  10.013   8.953   3.661 -1.0373 -0.4431  1.1333
  881MOL0     H18898  10.024   9.070   3.786 -0.1287 -2.1674 -0.2606
  881MOL0     H18899  10.031   9.489   3.147  1.3052 -2.6100  1.9679
  881MOL0     H18900   9.851   9.595   3.018 -0.7001  1.8948  1.2791
  881MOL0     H18901   9.702   9.544   2.866  0.9190 -1.0399  1.5878
  881MOL0     H18902   9.528   9.525   2.847 -0.8212  4.5539 -1.7472
  881MOL0     H18903   9.619   9.762   2.815 -2.0487  0.5931 -0.6835
  881MOL0     H18904   9.459   9.727   2.891 -0.1828 -0.3874 -3.0383
  881MOL0     H18905   9.731   9.808   3.007 -0.2289  0.9114 -2.0299
  881MOL0     H18906   9.603   9.743   3.113 -1.1943  3.2679  1.2091
  881MOL0     H18907   9.583  10.001   2.940  1.5055 -0.9088  0.0230
  881MOL0     H18908   9.447   9.930   3.033  0.4844 -1.5809 -0.1842
  881MOL0     H18909   9.684  10.057   3.132 -1.4270  0.3339 -0.1945
  881MOL0     H18910   9.601   9.952   3.243  4.2605 -1.4744 -2.1443
  881MOL0     H18911   9.447  10.191   3.100  1.6089  0.9076 -0.1603
  881MOL0     H18912   9.390  10.096   3.227 -0.5568  2.6540  0.1775
  881MOL0     H18913   9.625  10.282   3.247  0.1891  1.0930  1.3965
  881MOL0     H18914   9.584  10.173   3.376  0.9967 -0.0997 -0.7334
  881MOL0     H18915   9.489  10.420   3.383  0.5382 -1.9001  3.3441
  881MOL0     H18916   9.409  10.286   3.456  2.2443 -1.7232 -0.5519
  881MOL0     H18917   9.556   9.363   3.237  0.0232 -0.2627 -1.0451
  881MOL0     H18918   9.753   9.261   3.368  2.8433  0.4033  1.1236
  881MOL0     H18919  10.259   9.341   3.369  0.3541  1.1964  1.2664
  881MOL0     H18920  10.448   9.334   3.496 -0.0359  1.4310  1.1998
  881MOL0     H18921  10.410   8.840   3.396  2.2384  1.3599 -0.8314
  881MOL0     H18922  10.249   9.006   3.310  0.4365  0.6422 -0.6209
  881MOL0     H18923  10.024   9.211   3.002  0.8490  0.6668  2.8835
  881MOL0     H18924   9.873   9.358   2.852  0.0988  1.4609 -1.1047
  881MOL0     H18925  10.068   9.694   2.634  1.7982  0.1357 -2.8177
  881MOL0     H18926  10.024   9.573   2.510 -0.3114  0.9346 -0.4686
  881MOL0     H18927   9.797   9.724   2.638 -1.6826  0.0153 -1.5103
  881MOL0     H18928   9.807   9.643   2.480 -0.1045 -1.1731 -0.0090
  881MOL0     H18929   9.957   9.895   2.575  3.1074 -0.6243 -0.8279
  881MOL0     H18930   9.809   9.882   2.478  0.6169  1.3689  0.3874
  881MOL0     H18931   9.917   9.778   2.296  0.4013 -3.7625  2.1582
  881MOL0     H18932  10.082   9.770   2.376 -0.2281 -0.3001  0.4215
  881MOL0     H18933  10.137  10.147   2.266  0.7987  0.3964  1.3362
  881MOL0     H18934  10.217   9.534   2.671  0.5394 -0.3705 -0.5641
  881MOL0     H18935  10.365   9.364   2.782  0.2115  1.2213 -2.5442
  882MOL0     O18936   1.846   9.310   5.186 -0.6326  0.7521 -1.1124
  882MOL0     C18937   1.902   9.203   5.149  0.5870 -0.0889  0.5124
  882MOL0     O18938   1.917   9.162   5.015 -0.7564 -0.5384 -0.0225
  882MOL0     C18939   1.831   9.211   4.919  0.0405  0.3010 -0.7837
  882MOL0     C18940   1.870   9.213   4.786  0.2269 -0.4601 -0.1992
  882MOL0     C18941   1.793   9.265   4.687  0.4756 -0.5234 -0.1152
  882MOL0     C18942   1.660   9.314   4.718 -1.3158  0.6416 -0.1637
  882MOL0     O18943   1.586   9.382   4.627 -0.0605  0.0737  0.3337
  882MOL0     C18944   1.640   9.508   4.585 -0.4016  0.8118 -0.2407
  882MOL0     C18945   1.722   9.502   4.459  0.2817 -0.6710  0.2041
  882MOL0     C18946   1.743   9.649   4.406 -0.0360  0.2067 -0.9316
  882MOL0     C18947   1.823   9.657   4.276 -0.0562 -0.8461  0.8126
  882MOL0     C18948   1.969   9.688   4.302 -1.3889 -0.3523  0.0791
  882MOL0     C18949   2.044   9.721   4.168 -0.2208  1.4361 -0.5909
  882MOL0     C18950   2.185   9.788   4.193 -1.1561 -0.2257 -0.0495
  882MOL0     C18951   2.276   9.711   4.297 -0.9182 -0.7572  0.4254
  882MOL0     N18952   2.305   9.582   4.241 -1.0701 -0.3330 -1.6744
  882MOL0     C18953   2.324   9.468   4.321 -0.6602  0.6507  0.2689
  882MOL0     C18954   2.389   9.395   4.233 -0.1755  0.5701  0.2884
  882MOL0     C18955   2.407   9.250   4.252 -0.6392  0.4465 -0.7017
  882MOL0     C18956   2.463   9.173   4.137  0.6632  0.1184 -0.1507
  882MOL0     C18957   2.455   9.023   4.155 -0.5782 -0.7064 -0.1479
  882MOL0     C18958   2.598   8.984   4.200 -0.1768  0.2722  0.5060
  882MOL0     O18959   2.614   9.005   4.339 -0.6502 -0.2260  0.5774
  882MOL0     C18960   2.745   9.016   4.371 -0.1059 -0.1281 -0.2075
  882MOL0     C18961   2.791   8.929   4.469 -0.5887 -0.4628  0.0679
  882MOL0     C18962   2.899   8.954   4.555 -0.7298  0.6111 -0.0264
  882MOL0     C18963   2.945   8.833   4.646  0.2981  0.2676  0.1095
  882MOL0     C18964   2.960   9.085   4.548  0.6032 -0.0761  0.2578
  882MOL0     C18965   3.059   9.135   4.654  0.3590  0.5074  1.5122
  882MOL0     O18966   3.081   9.052   4.756  0.2614 -0.0427  0.4187
  882MOL0     C18967   3.124   9.117   4.869 -0.7992 -0.4959 -0.0569
  882MOL0     C18968   3.045   9.209   4.933  0.4590 -0.1347 -0.5990
  882MOL0     C18969   3.085   9.262   5.059  0.7748 -0.1931  0.3458
  882MOL0     C18970   3.205   9.218   5.118 -0.4826  0.6697  0.5988
  882MOL0     O18971   3.280   9.268   5.226  0.9072 -0.3242 -0.0235
  882MOL0     C18972   3.222   9.282   5.352 -0.6929 -0.2290 -0.2149
  882MOL0     C18973   3.283   9.394   5.448 -0.0289  0.1156 -0.0760
  882MOL0     C18974   3.414   9.337   5.504  0.9614  0.4947 -0.4567
  882MOL0     C18975   3.441   9.422   5.636 -0.4103  0.1948  0.0640
  882MOL0     C18976   3.479   9.574   5.624 -0.7381 -0.9667 -0.6628
  882MOL0     C18977   3.517   9.627   5.764 -0.2083  0.5065 -1.1267
  882MOL0     C18978   3.533   9.780   5.772 -0.4842 -0.7968 -0.3610
  882MOL0     C18979   3.641   9.833   5.667 -0.4343 -0.5397 -0.7523
  882MOL0    Cl18980   3.578   9.866   5.504  0.2053 -0.2650 -0.4196
  882MOL0     C18981   3.278   9.117   5.043 -0.5798 -1.1598 -0.2510
  882MOL0     C18982   3.242   9.077   4.918  0.3374 -0.5852  0.0941
  882MOL0     O18983   3.083   9.257   4.658  0.9068  0.2408 -0.4628
  882MOL0     C18984   2.915   9.170   4.438  0.0300 -0.9446  0.2938
  882MOL0     C18985   2.808   9.137   4.356 -0.3853  0.6407 -0.9417
  882MOL0     N18986   2.408   9.453   4.115 -0.5236 -0.0510  0.4178
  882MOL0     N18987   2.368   9.572   4.123 -0.7119  0.6254  0.0713
  882MOL0     C18988   1.608   9.287   4.844  0.2065 -0.6143 -0.1959
  882MOL0     C18989   1.694   9.245   4.948 -0.9362 -0.1162 -0.2147
  882MOL0     C18990   1.990   9.131   5.242 -0.6800 -0.6915 -0.1277
  882MOL0     C18991   1.986   9.158   5.381 -0.5373 -0.4716  0.2579
  882MOL0     C18992   2.079   9.107   5.470 -0.1352  1.5379  0.4690
  882MOL0     C18993   2.151   8.991   5.428 -0.0725 -0.6570 -0.0404
  882MOL0     O18994   2.226   8.914   5.511 -0.4822  0.6003 -0.5763
  882MOL0     C18995   2.362   8.876   5.475  0.0809 -0.2491 -1.2075
  882MOL0     C18996   2.469   8.854   5.590 -0.4525  0.5239  0.4301
  882MOL0     C18997   2.503   8.707   5.599  0.0622  0.3134 -0.1638
  882MOL0     C18998   2.613   8.683   5.697  0.2841  1.1080 -0.1229
  882MOL0     C18999   2.654   8.543   5.685 -0.3700  0.4668  0.9387
  882MOL0     C19000   2.675   8.429   5.680  0.2235  0.0333 -0.3090
  882MOL0     C19001   2.139   8.954   5.292 -0.0144 -0.5161 -0.4455
  882MOL0     C19002   2.058   9.016   5.200 -0.5514 -0.2312  0.3017
  882MOL0     H19003   1.968   9.187   4.746  0.2269 -3.5939  1.4661
  882MOL0     H19004   1.828   9.276   4.585  1.4868  1.6330  0.4204
  882MOL0     H19005   1.562   9.584   4.582  0.0482  1.4210  1.6520
  882MOL0     H19006   1.712   9.550   4.656 -1.1461  2.0922 -0.2185
  882MOL0     H19007   1.821   9.459   4.476 -0.0004 -1.2477  0.3927
  882MOL0     H19008   1.669   9.443   4.384  0.7683  1.3288 -1.8565
  882MOL0     H19009   1.652   9.706   4.389 -0.0957 -0.3264 -2.5813
  882MOL0     H19010   1.792   9.707   4.484  0.0227 -0.6849 -0.2931
  882MOL0     H19011   1.824   9.558   4.230  1.4638 -0.6198  0.2799
  882MOL0     H19012   1.779   9.722   4.199 -0.4551 -1.5907  0.3915
  882MOL0     H19013   1.980   9.770   4.373  0.8835 -1.9785  1.7905
  882MOL0     H19014   2.018   9.599   4.344 -0.2782  0.2128  0.0212
  882MOL0     H19015   2.057   9.624   4.120 -0.0591  1.7677 -1.2335
  882MOL0     H19016   1.974   9.779   4.106  0.2379  2.6502  0.0026
  882MOL0     H19017   2.225   9.780   4.091 -0.9433 -0.0843  0.0218
  882MOL0     H19018   2.166   9.894   4.211  1.2814 -0.2139  3.5066
  882MOL0     H19019   2.238   9.701   4.399  1.6572 -2.9106  1.2932
  882MOL0     H19020   2.369   9.768   4.295  0.3568 -2.7430 -0.5241
  882MOL0     H19021   2.278   9.437   4.414 -0.0991 -0.3905  0.2165
  882MOL0     H19022   2.489   9.247   4.326  0.2112 -3.3316 -1.5977
  882MOL0     H19023   2.324   9.202   4.304  0.6178  0.1876  1.2066
  882MOL0     H19024   2.555   9.211   4.093 -0.2760  1.1862 -1.2751
  882MOL0     H19025   2.390   9.192   4.058 -0.3317 -0.5623  0.5708
  882MOL0     H19026   2.454   8.965   4.062 -1.8169 -1.6481  0.4155
  882MOL0     H19027   2.375   9.011   4.229 -0.4948  1.8732  0.4420
  882MOL0     H19028   2.669   9.043   4.141 -2.0524  2.5755  0.3695
  882MOL0     H19029   2.616   8.880   4.172  0.6143  1.4043 -3.8871
  882MOL0     H19030   2.746   8.830   4.469  1.1658 -1.3248 -1.4046
  882MOL0     H19031   2.930   8.736   4.597 -3.8644  0.6216  0.2636
  882MOL0     H19032   3.050   8.839   4.675 -0.2078 -0.0013  2.1619
  882MOL0     H19033   2.872   8.840   4.728  0.1464 -2.6323  0.3043
  882MOL0     H19034   2.950   9.250   4.901  1.2741  2.8254  0.4426
  882MOL0     H19035   3.023   9.325   5.122 -0.1862 -0.5935 -0.1604
  882MOL0     H19036   3.117   9.311   5.345 -0.2608  1.9497  1.3339
  882MOL0     H19037   3.224   9.179   5.389  1.8744 -0.6274 -1.2735
  882MOL0     H19038   3.307   9.491   5.405 -2.2137  1.6507  1.8981
  882MOL0     H19039   3.205   9.420   5.520  2.3877 -0.0193  2.7764
  882MOL0     H19040   3.495   9.343   5.430  0.7927  0.1464 -0.6727
  882MOL0     H19041   3.390   9.231   5.517 -1.5625  0.9080 -1.1191
  882MOL0     H19042   3.350   9.412   5.695  1.4153  0.0263  3.0552
  882MOL0     H19043   3.517   9.370   5.695 -1.1474 -1.5291 -0.4352
  882MOL0     H19044   3.412   9.646   5.577 -1.7622 -0.4008  1.5125
  882MOL0     H19045   3.568   9.579   5.560 -1.0021 -1.6833 -1.0965
  882MOL0     H19046   3.442   9.588   5.833  0.5140  0.6541 -0.2423
  882MOL0     H19047   3.618   9.589   5.781 -0.5050 -0.2380 -0.9918
  882MOL0     H19048   3.561   9.797   5.876  0.7063 -1.2011 -0.5996
  882MOL0     H19049   3.437   9.828   5.751  0.5757  1.0472 -1.3214
  882MOL0     H19050   3.723   9.761   5.677 -1.1544 -1.5170 -1.5927
  882MOL0     H19051   3.693   9.924   5.695 -0.2328 -1.0041  0.4395
  882MOL0     H19052   3.378   9.084   5.071 -0.5730 -1.0036 -0.0832
  882MOL0     H19053   3.285   8.989   4.872 -4.3960 -2.6329 -0.9015
  882MOL0     H19054   2.961   9.268   4.432 -1.9315 -0.0279 -0.5832
  882MOL0     H19055   2.755   9.206   4.292 -2.0492 -0.5909 -0.9733
  882MOL0     H19056   1.508   9.322   4.866  0.6364  0.2325  0.4602
  882MOL0     H19057   1.665   9.241   5.052  5.2779  1.4294  2.0017
  882MOL0     H19058   1.914   9.234   5.410 -2.2274 -0.7553 -2.8412
  882MOL0     H19059   2.098   9.154   5.565 -1.5098 -1.9829  2.6764
  882MOL0     H19060   2.355   8.780   5.422 -0.5355  0.6227 -2.7746
  882MOL0     H19061   2.399   8.942   5.396 -2.6314  1.9289 -0.8095
  882MOL0     H19062   2.420   8.890   5.680 -2.2875 -2.4661  0.7654
  882MOL0     H19063   2.559   8.911   5.567  0.2693 -0.7985 -0.0978
  882MOL0     H19064   2.526   8.672   5.498 -0.8368 -0.4529 -0.1092
  882MOL0     H19065   2.417   8.653   5.639 -1.9235  1.1160 -2.9942
  882MOL0     H19066   2.584   8.711   5.798 -0.6781  0.9159 -0.3399
  882MOL0     H19067   2.700   8.746   5.674  1.3254 -0.7057 -1.4938
  882MOL0     H19068   2.674   8.322   5.681 -0.8383  0.0269 -0.4528
  882MOL0     H19069   2.191   8.867   5.255  0.3264 -1.6022  2.3192
  882MOL0     H19070   2.070   8.992   5.095  3.6517  0.3626  0.4681
  883MOL0     O19071   2.200  10.744   2.433  0.1424  0.4012  0.6115
  883MOL0     C19072   2.121  10.800   2.513  0.9719 -1.3093 -0.2926
  883MOL0     O19073   2.032  10.894   2.473  0.7625 -0.2284 -0.3891
  883MOL0     C19074   2.039  10.942   2.343  0.2561  1.0535 -0.5729
  883MOL0     C19075   1.971  10.866   2.245 -0.6907 -0.0186 -0.3494
  883MOL0     C19076   1.968  10.920   2.111 -0.6347  0.1540  1.2913
  883MOL0     C19077   2.024  11.043   2.076  0.6737  0.9904 -0.8191
  883MOL0     O19078   2.012  11.101   1.952 -0.3645 -0.0697 -0.6162
  883MOL0     C19079   2.042  11.012   1.852 -0.2536  0.8833  0.6436
  883MOL0     C19080   2.152  11.102   1.777  0.2028  0.1153 -1.0981
  883MOL0     C19081   2.171  11.063   1.645  0.1513 -0.2946  1.1605
  883MOL0     C19082   2.276  11.149   1.573 -0.7185  1.0962 -0.2593
  883MOL0     C19083   2.326  11.066   1.448  0.4885 -0.5171 -0.4879
  883MOL0     C19084   2.446  11.145   1.386 -0.0554  0.5711  0.2871
  883MOL0     C19085   2.523  11.063   1.278  0.3121  0.6297 -1.0941
  883MOL0     C19086   2.652  11.123   1.232 -0.0775  0.0431  0.1011
  883MOL0     N19087   2.619  11.249   1.172 -0.5035  0.5229 -0.2175
  883MOL0     C19088   2.564  11.267   1.048  0.3664  0.4942 -0.8908
  883MOL0     C19089   2.544  11.409   1.040  0.1256  0.8943 -0.2976
  883MOL0     C19090   2.508  11.481   0.919  0.7436  0.8434  0.6498
  883MOL0     C19091   2.352  11.482   0.893  0.3731 -0.8944  0.2478
  883MOL0     C19092   2.294  11.355   0.833 -0.7525  1.2168  0.2224
  883MOL0     C19093   2.163  11.300   0.901  0.3012  0.8081  0.0101
  883MOL0     O19094   2.108  11.194   0.825  0.6036  0.0723  0.5122
  883MOL0     C19095   2.160  11.069   0.814 -1.0650  0.3003  0.8313
  883MOL0     C19096   2.235  11.008   0.915  1.2142 -0.2338  0.0134
  883MOL0     C19097   2.282  10.877   0.910  0.0380  0.3514  1.0397
  883MOL0     C19098   2.363  10.824   1.024 -1.0239 -0.3358  1.0197
  883MOL0     C19099   2.233  10.799   0.806  0.7030  0.8727  0.9445
  883MOL0     C19100   2.270  10.661   0.789  0.7506  0.7844  0.6086
  883MOL0     O19101   2.228  10.573   0.888 -0.7717 -0.2678 -0.4377
  883MOL0     C19102   2.248  10.449   0.855 -0.1440  0.2928  0.0564
  883MOL0     C19103   2.172  10.379   0.764  0.8145  0.9201  0.0299
  883MOL0     C19104   2.197  10.245   0.734 -0.4897 -0.7044  0.1366
  883MOL0     C19105   2.305  10.174   0.796 -0.1250  0.6772  0.7079
  883MOL0     O19106   2.343  10.043   0.772  0.9957 -0.4898 -0.0629
  883MOL0     C19107   2.231   9.951   0.762 -0.6042 -0.5649  0.8197
  883MOL0     C19108   2.254   9.862   0.634 -0.0894  0.8233  0.0493
  883MOL0     C19109   2.340   9.736   0.664  0.4352 -0.2355 -0.2477
  883MOL0     C19110   2.337   9.628   0.547  0.3795 -0.2241  0.0233
  883MOL0     C19111   2.339   9.481   0.602 -0.5129 -0.9740 -0.1617
  883MOL0     C19112   2.464   9.433   0.666 -0.1560  0.6184  0.1173
  883MOL0     C19113   2.570   9.403   0.556  0.6033  0.8582 -0.2228
  883MOL0     C19114   2.584   9.262   0.521 -1.2797  0.4678  0.1166
  883MOL0    Cl19115   2.730   9.230   0.423  0.0018  0.4117  0.7058
  883MOL0     C19116   2.383  10.242   0.886 -0.4442 -0.5738  0.7601
  883MOL0     C19117   2.349  10.374   0.920  0.1820 -0.3957  0.5585
  883MOL0     O19118   2.354  10.639   0.707  0.2388 -0.4427  0.3112
  883MOL0     C19119   2.158  10.854   0.704 -0.5701  0.9760 -0.6384
  883MOL0     C19120   2.122  10.987   0.702  0.3377 -0.2034  0.1618
  883MOL0     N19121   2.576  11.459   1.159 -0.7404  0.4335 -0.2536
  883MOL0     N19122   2.623  11.369   1.241 -0.0674 -0.0427  0.5082
  883MOL0     C19123   2.078  11.113   2.177 -0.2473  0.6180 -0.3585
  883MOL0     C19124   2.094  11.068   2.304 -0.1143  0.2536 -1.1641
  883MOL0     C19125   2.109  10.765   2.662 -0.9439  0.9142  0.6301
  883MOL0     C19126   2.173  10.659   2.718 -0.3451 -0.2917  1.0096
  883MOL0     C19127   2.184  10.640   2.859  0.4261  0.4083  0.2103
  883MOL0     C19128   2.106  10.712   2.950  0.2640 -0.3743  0.1315
  883MOL0     O19129   2.099  10.694   3.085 -0.4797 -0.4571 -0.3746
  883MOL0     C19130   2.131  10.567   3.145  0.7337 -0.0287  0.3628
  883MOL0     C19131   2.255  10.565   3.230  0.7006 -0.4154 -0.0652
  883MOL0     C19132   2.229  10.614   3.369 -0.1030 -0.2250  0.2546
  883MOL0     C19133   2.324  10.548   3.465  0.4164  0.1289 -0.1010
  883MOL0     C19134   2.466  10.566   3.435  0.2182 -0.0703 -0.4495
  883MOL0     C19135   2.589  10.570   3.416  0.4201 -0.4509 -0.1027
  883MOL0     C19136   2.030  10.814   2.897 -0.9603  0.7361 -0.5968
  883MOL0     C19137   2.029  10.845   2.754 -0.2128  1.0431 -0.4205
  883MOL0     H19138   1.918  10.778   2.277 -0.0977 -0.5850 -0.8760
  883MOL0     H19139   1.913  10.855   2.044  2.1261 -1.4332  0.3888
  883MOL0     H19140   2.090  10.916   1.876  0.6548  1.9137  3.2245
  883MOL0     H19141   1.950  10.984   1.798  1.0742 -3.0713  0.0550
  883MOL0     H19142   2.116  11.205   1.771  3.2193  1.2924 -0.5415
  883MOL0     H19143   2.239  11.107   1.843 -2.3152  1.6656  2.4521
  883MOL0     H19144   2.209  10.961   1.635  1.7785  0.4161 -0.4494
  883MOL0     H19145   2.076  11.066   1.591  0.2254 -0.0491  1.0458
  883MOL0     H19146   2.236  11.242   1.532 -0.0747  0.8658 -1.4842
  883MOL0     H19147   2.361  11.169   1.637 -0.0112  2.0237 -1.4477
  883MOL0     H19148   2.342  10.961   1.477 -2.1146 -0.5922  0.9925
  883MOL0     H19149   2.243  11.076   1.379 -0.1921  0.6890  0.4651
  883MOL0     H19150   2.406  11.238   1.345 -0.4396  1.2785  2.1588
  883MOL0     H19151   2.516  11.177   1.463 -0.3030  0.3804  0.5924
  883MOL0     H19152   2.558  10.974   1.331  1.3101  0.6168 -1.7465
  883MOL0     H19153   2.447  11.035   1.205  0.8267  1.0086 -1.8019
  883MOL0     H19154   2.679  11.051   1.154 -1.6392  0.7649 -1.1571
  883MOL0     H19155   2.723  11.143   1.313 -0.7141  1.7078  0.2955
  883MOL0     H19156   2.524  11.203   0.970 -1.0110 -0.3087  0.4059
  883MOL0     H19157   2.552  11.581   0.930 -0.7667  1.4222  1.7270
  883MOL0     H19158   2.559  11.437   0.832 -2.0756 -4.7111  1.3645
  883MOL0     H19159   2.332  11.569   0.830  2.4154  0.5040  1.4016
  883MOL0     H19160   2.303  11.495   0.990  0.2764  1.1248 -0.0322
  883MOL0     H19161   2.366  11.273   0.840 -0.9458  0.7858 -2.0590
  883MOL0     H19162   2.279  11.359   0.725  5.2542  0.0200 -1.0293
  883MOL0     H19163   2.090  11.381   0.911 -0.1959  0.2525  0.9347
  883MOL0     H19164   2.179  11.272   1.005  0.1442  1.1981  0.1376
  883MOL0     H19165   2.261  11.057   1.009  1.2264 -4.8396  2.7509
  883MOL0     H19166   2.311  10.846   1.117 -0.8566  1.5251  0.7119
  883MOL0     H19167   2.385  10.718   1.010  0.6533  0.1220 -0.1633
  883MOL0     H19168   2.459  10.876   1.035 -0.0009 -2.3848  2.3604
  883MOL0     H19169   2.094  10.427   0.705 -0.4272  1.9058  2.3081
  883MOL0     H19170   2.151  10.212   0.642  2.7698  1.3059 -2.4698
  883MOL0     H19171   2.237   9.894   0.855  0.1311  1.2622  1.9388
  883MOL0     H19172   2.130   9.987   0.744  0.7592  3.6736  0.6702
  883MOL0     H19173   2.153   9.837   0.603  0.0375  0.6782 -0.2475
  883MOL0     H19174   2.305   9.922   0.558  1.4978 -1.1477 -0.5191
  883MOL0     H19175   2.300   9.690   0.755  0.7935 -3.2664 -1.5135
  883MOL0     H19176   2.440   9.770   0.692  0.4081 -0.9409  0.7666
  883MOL0     H19177   2.244   9.633   0.490  0.4786  1.1982 -0.0451
  883MOL0     H19178   2.410   9.664   0.473  0.5926  1.1450  0.8680
  883MOL0     H19179   2.320   9.403   0.528  2.4791 -2.5151  0.5084
  883MOL0     H19180   2.250   9.467   0.663 -0.3150  1.1210  0.6929
  883MOL0     H19181   2.490   9.518   0.729  1.7777  0.1592 -0.0221
  883MOL0     H19182   2.446   9.342   0.724 -0.6464  0.4675 -0.2608
  883MOL0     H19183   2.662   9.437   0.605 -0.3703  3.2548  0.0940
  883MOL0     H19184   2.573   9.472   0.471 -0.5079  2.0517  0.6583
  883MOL0     H19185   2.501   9.226   0.459 -1.8109 -0.2788  1.2330
  883MOL0     H19186   2.610   9.210   0.613 -2.6499  0.3406  0.4579
  883MOL0     H19187   2.465  10.190   0.935 -2.1390 -3.2274  1.0189
  883MOL0     H19188   2.405  10.434   0.991 -3.0112  0.2432  2.7120
  883MOL0     H19189   2.130  10.783   0.627  0.1904 -2.7208  2.1936
  883MOL0     H19190   2.066  11.026   0.618  1.8426  2.5513  0.3142
  883MOL0     H19191   2.114  11.214   2.160 -0.6443  0.5913 -1.4085
  883MOL0     H19192   2.147  11.122   2.382  1.3397 -4.1038  1.2120
  883MOL0     H19193   2.229  10.592   2.654 -0.9132 -2.0387  2.2667
  883MOL0     H19194   2.235  10.547   2.882 -2.2297 -1.2851 -0.1679
  883MOL0     H19195   2.049  10.547   3.214  0.3115  1.3646  0.2914
  883MOL0     H19196   2.129  10.494   3.063  0.6322  1.4844 -1.0350
  883MOL0     H19197   2.328  10.635   3.187 -0.2892 -0.0488 -1.2067
  883MOL0     H19198   2.285  10.459   3.232 -1.7624 -1.2373 -1.7446
  883MOL0     H19199   2.123  10.605   3.395 -0.5809  3.1107 -0.0803
  883MOL0     H19200   2.261  10.718   3.360 -3.8182  0.9970 -1.0223
  883MOL0     H19201   2.305  10.442   3.449 -0.3054  0.0999  0.9073
  883MOL0     H19202   2.308  10.577   3.569  1.0673  2.1713 -0.5080
  883MOL0     H19203   2.687  10.603   3.385 -0.2346  1.5838 -0.2119
  883MOL0     H19204   1.978  10.889   2.955  0.6882  0.6946  0.9963
  883MOL0     H19205   1.978  10.932   2.713  1.4261  1.6954 -1.1296
  884MOL0     O19206   8.614   6.296   2.439  1.5872 -0.0100 -0.0668
  884MOL0     C19207   8.644   6.216   2.527  0.2462  0.1057  0.1643
  884MOL0     O19208   8.725   6.241   2.635 -0.9346 -0.0204  0.6481
  884MOL0     C19209   8.769   6.377   2.648  0.2445  0.2478  0.0535
  884MOL0     C19210   8.900   6.420   2.605 -0.4417  0.0424 -0.3400
  884MOL0     C19211   8.937   6.543   2.644 -0.3468 -0.5758  0.2709
  884MOL0     C19212   8.853   6.639   2.708  0.8372 -0.0332 -0.6541
  884MOL0     O19213   8.901   6.771   2.719  0.2615 -0.0963 -0.9722
  884MOL0     C19214   8.836   6.863   2.809 -0.1820 -1.2244  0.3639
  884MOL0     C19215   8.871   7.010   2.777  0.5404 -0.0981  0.0752
  884MOL0     C19216   8.812   7.046   2.627 -0.5581  0.2301 -0.0479
  884MOL0     C19217   8.865   7.178   2.590  0.5369  0.1958  0.5683
  884MOL0     C19218   8.810   7.245   2.458 -0.5518  0.8284 -0.2536
  884MOL0     C19219   8.815   7.142   2.339 -1.1400 -0.2286  0.1073
  884MOL0     C19220   8.790   7.200   2.203  1.0392  0.9504  0.2475
  884MOL0     C19221   8.824   7.109   2.089  0.2491  0.9434  0.2378
  884MOL0     N19222   8.702   7.090   2.003 -1.1155 -0.2080 -0.4964
  884MOL0     C19223   8.584   7.040   2.050  0.1155 -0.3970  0.1883
  884MOL0     C19224   8.505   7.035   1.932 -0.3129 -0.3340 -0.0058
  884MOL0     C19225   8.363   6.999   1.919 -0.2118 -1.0950  0.3962
  884MOL0     C19226   8.342   6.847   1.936 -0.6022 -0.0187  0.2584
  884MOL0     C19227   8.384   6.758   1.820 -0.5383 -0.3132 -0.3524
  884MOL0     C19228   8.386   6.607   1.844 -1.0102 -0.6582 -0.0826
  884MOL0     O19229   8.261   6.562   1.892  0.7961  0.8516  0.2557
  884MOL0     C19230   8.236   6.435   1.844  0.3018  0.1904 -0.1636
  884MOL0     C19231   8.147   6.426   1.748  0.1725 -0.0256 -1.0936
  884MOL0     C19232   8.119   6.310   1.681  0.7000  0.3884 -0.0279
  884MOL0     C19233   8.022   6.335   1.557  0.0419  0.3352 -0.2334
  884MOL0     C19234   8.184   6.190   1.723 -0.1402 -0.3663  1.1119
  884MOL0     C19235   8.161   6.066   1.651 -0.2565 -0.2850  0.1385
  884MOL0     O19236   8.042   6.047   1.592  0.5850  0.3128 -1.1094
  884MOL0     C19237   8.032   5.966   1.479  0.6906 -0.0797 -0.9478
  884MOL0     C19238   8.129   5.890   1.411  0.2359  0.7105  1.3159
  884MOL0     C19239   8.095   5.807   1.297 -0.1815 -0.5983  0.2120
  884MOL0     C19240   7.962   5.797   1.257  0.4652 -1.1366 -0.5510
  884MOL0     O19241   7.906   5.699   1.174 -0.9191  0.2298 -0.2382
  884MOL0     C19242   7.975   5.653   1.050  0.3471  0.4820 -1.1278
  884MOL0     C19243   7.989   5.757   0.941  0.1408  0.2400  0.5366
  884MOL0     C19244   8.033   5.688   0.819  1.0333  0.8990 -0.7463
  884MOL0     C19245   8.000   5.778   0.696 -0.0486 -0.5043 -0.1266
  884MOL0     C19246   8.012   5.710   0.553  0.7950 -0.1575  0.6202
  884MOL0     C19247   8.080   5.814   0.463 -0.7455 -0.9378  0.2298
  884MOL0     C19248   8.113   5.761   0.317  0.0262 -1.1533 -0.3786
  884MOL0     C19249   8.159   5.865   0.212  0.7490  0.3630  0.0529
  884MOL0    Cl19250   8.305   5.961   0.273 -0.4106  0.0244  0.0219
  884MOL0     C19251   7.862   5.873   1.320  0.0500  0.0221 -0.1640
  884MOL0     C19252   7.902   5.959   1.426 -0.6344 -0.6198 -0.5640
  884MOL0     O19253   8.256   5.988   1.652  0.7578 -0.6185 -0.1486
  884MOL0     C19254   8.278   6.203   1.823 -0.1820  0.4844  0.7863
  884MOL0     C19255   8.308   6.325   1.883  0.0953 -0.9945 -0.7279
  884MOL0     N19256   8.572   7.080   1.820 -0.6385  0.7154 -0.2302
  884MOL0     N19257   8.691   7.112   1.863 -0.8867 -0.2854  0.0315
  884MOL0     C19258   8.719   6.596   2.741 -0.7080 -0.1164 -1.3814
  884MOL0     C19259   8.693   6.458   2.730 -0.9266  0.0840 -0.7484
  884MOL0     C19260   8.569   6.088   2.518  0.2358  0.2545  0.2877
  884MOL0     C19261   8.543   6.011   2.625  0.9899 -0.0901  0.6529
  884MOL0     C19262   8.459   5.897   2.620 -0.6146 -0.7716  0.3786
  884MOL0     C19263   8.389   5.858   2.504 -0.4471  0.0761  1.0694
  884MOL0     O19264   8.312   5.735   2.512  0.6059 -0.6052 -0.3866
  884MOL0     C19265   8.213   5.729   2.418 -0.4687 -0.1569  0.2611
  884MOL0     C19266   8.148   5.589   2.420 -0.7449  0.4509  0.1808
  884MOL0     C19267   8.083   5.553   2.287 -0.0794  0.8465  0.5882
  884MOL0     C19268   8.009   5.428   2.289  0.1663  0.8635  0.3340
  884MOL0     C19269   7.893   5.429   2.206  0.4336  0.1490 -0.0552
  884MOL0     C19270   7.813   5.427   2.124 -0.0108 -0.4081 -0.5002
  884MOL0     C19271   8.415   5.938   2.386  0.4322 -0.4121 -0.8997
  884MOL0     C19272   8.501   6.049   2.402 -0.5334 -0.3796  0.4580
  884MOL0     H19273   8.959   6.364   2.534  0.9076 -1.4831  1.8466
  884MOL0     H19274   9.037   6.577   2.618 -0.6133 -1.7768 -2.7497
  884MOL0     H19275   8.729   6.845   2.807 -0.1536 -1.4396 -2.6015
  884MOL0     H19276   8.870   6.835   2.910 -1.8242 -1.0811  0.9848
  884MOL0     H19277   8.820   7.069   2.855 -0.4053  0.4092 -0.9002
  884MOL0     H19278   8.980   7.014   2.780  0.4965  1.2277  0.8353
  884MOL0     H19279   8.835   6.965   2.557 -5.3181 -0.3948 -1.2737
  884MOL0     H19280   8.703   7.051   2.614 -0.6386  1.1710  0.9227
  884MOL0     H19281   8.845   7.253   2.667  1.0450  3.2393 -2.0501
  884MOL0     H19282   8.973   7.169   2.574  0.2117 -1.9124 -0.8424
  884MOL0     H19283   8.708   7.284   2.468 -0.9202 -0.3355  0.7933
  884MOL0     H19284   8.876   7.330   2.435 -1.1377  0.8413 -1.9903
  884MOL0     H19285   8.916   7.100   2.338 -0.7965  0.5645  0.8533
  884MOL0     H19286   8.745   7.058   2.351 -1.6192 -0.2236 -2.2915
  884MOL0     H19287   8.684   7.226   2.202 -0.0563 -2.8721  0.4302
  884MOL0     H19288   8.859   7.284   2.195  1.7645  0.4401  0.9422
  884MOL0     H19289   8.857   7.010   2.123 -1.3842 -0.2017 -1.3263
  884MOL0     H19290   8.909   7.143   2.029  0.0201 -1.3717 -1.5358
  884MOL0     H19291   8.570   7.037   2.158  0.8435  0.6619  0.3320
  884MOL0     H19292   8.303   7.058   1.989  1.4272  0.9462  0.1497
  884MOL0     H19293   8.317   7.025   1.823  0.9206  3.3743  0.8450
  884MOL0     H19294   8.236   6.826   1.952 -0.8759  1.8041  1.1054
  884MOL0     H19295   8.396   6.813   2.025 -1.7768 -0.8366  0.6806
  884MOL0     H19296   8.487   6.783   1.792 -0.5545 -1.7254 -1.7995
  884MOL0     H19297   8.311   6.777   1.741 -1.9421 -1.8428  0.5120
  884MOL0     H19298   8.457   6.587   1.924 -0.7104  2.6944  0.6276
  884MOL0     H19299   8.426   6.558   1.754  1.0581  0.1530  0.3628
  884MOL0     H19300   8.091   6.512   1.712  0.1710 -0.3102 -1.7931
  884MOL0     H19301   7.917   6.322   1.586  0.2830  0.5391  0.7748
  884MOL0     H19302   8.021   6.440   1.524 -0.3912  0.1764 -0.7461
  884MOL0     H19303   8.059   6.273   1.475  2.4284  0.5481  0.5972
  884MOL0     H19304   8.233   5.882   1.441  0.5916 -0.0312 -0.0336
  884MOL0     H19305   8.179   5.747   1.263 -0.7767 -2.3843  1.7444
  884MOL0     H19306   8.064   5.595   1.075 -1.9243 -2.6368  0.3734
  884MOL0     H19307   7.919   5.569   1.009 -0.0579  0.4046 -0.4344
  884MOL0     H19308   7.893   5.808   0.929 -2.1081 -3.6506  0.1839
  884MOL0     H19309   8.059   5.840   0.955  1.1211  0.2259 -3.2417
  884MOL0     H19310   7.979   5.595   0.799  1.0506  0.7375 -0.0483
  884MOL0     H19311   8.136   5.655   0.834  0.2233 -1.0328  1.1747
  884MOL0     H19312   7.902   5.826   0.699 -0.6280 -1.6360  2.8796
  884MOL0     H19313   8.076   5.856   0.687 -0.6061 -0.2090 -4.0230
  884MOL0     H19314   7.912   5.679   0.523  0.3327  2.5717 -0.9969
  884MOL0     H19315   8.074   5.621   0.540  0.2275 -0.3963 -0.4859
  884MOL0     H19316   8.026   5.909   0.465  2.5033  1.0660  0.0956
  884MOL0     H19317   8.178   5.835   0.507  0.6720 -2.7577 -1.8285
  884MOL0     H19318   8.020   5.715   0.284 -2.9733 -0.0797  5.3297
  884MOL0     H19319   8.189   5.683   0.329  2.0738  0.4034 -2.3446
  884MOL0     H19320   8.083   5.939   0.184  0.3184 -0.5697 -1.3704
  884MOL0     H19321   8.198   5.824   0.118  1.6997  0.1986  0.5144
  884MOL0     H19322   7.766   5.856   1.271  0.0736  0.0096 -0.2057
  884MOL0     H19323   7.818   6.019   1.459 -1.1885 -1.7432  0.1244
  884MOL0     H19324   8.322   6.106   1.845 -0.2676  0.1000 -0.6144
  884MOL0     H19325   8.380   6.326   1.964 -0.9743 -2.2748  0.2834
  884MOL0     H19326   8.648   6.664   2.787  2.2930  1.2624  1.6745
  884MOL0     H19327   8.598   6.419   2.766 -0.3117 -1.0085 -0.2622
  884MOL0     H19328   8.591   6.020   2.722  0.8095 -1.6853  0.9150
  884MOL0     H19329   8.443   5.840   2.712  0.3712 -0.6914  0.6062
  884MOL0     H19330   8.148   5.816   2.433  1.7233  1.4908  0.8343
  884MOL0     H19331   8.255   5.743   2.318 -1.7038 -1.4271 -0.4595
  884MOL0     H19332   8.075   5.580   2.500 -0.8407  2.6243  0.3982
  884MOL0     H19333   8.230   5.522   2.447 -0.5764  0.4169 -0.4027
  884MOL0     H19334   8.144   5.545   2.196  0.3382 -2.3084  1.0108
  884MOL0     H19335   8.014   5.628   2.249 -1.6260 -1.8701 -2.5462
  884MOL0     H19336   7.980   5.386   2.386  0.5757 -0.3026 -0.0333
  884MOL0     H19337   8.078   5.350   2.254 -1.8271 -1.1763  0.7168
  884MOL0     H19338   7.738   5.443   2.049 -1.7092  0.6319  1.3150
  884MOL0     H19339   8.366   5.923   2.291 -1.6176  0.5445 -0.0576
  884MOL0     H19340   8.505   6.106   2.310  0.2075 -1.3311 -0.1199
  885MOL0     O19341   3.778   5.849   9.403  0.2182  0.1309  0.2042
  885MOL0     C19342   3.699   5.758   9.436 -0.5318  0.3629 -0.5280
  885MOL0     O19343   3.717   5.684   9.553 -0.3307  0.1239 -0.3175
  885MOL0     C19344   3.821   5.715   9.646 -0.6705 -0.1500  0.2178
  885MOL0     C19345   3.900   5.839   9.653 -0.2296 -0.4167 -0.4110
  885MOL0     C19346   3.981   5.853   9.766  0.0386 -0.2196 -0.3168
  885MOL0     C19347   3.993   5.763   9.871 -0.8788  0.1329  0.7557
  885MOL0     O19348   4.083   5.793   9.963 -0.2484  0.1478  0.4369
  885MOL0     C19349   4.122   5.699  10.060 -0.0847 -0.3348 -1.8790
  885MOL0     C19350   4.014   5.686  10.172  0.5401 -0.3486 -0.1806
  885MOL0     C19351   4.063   5.573  10.269 -0.2586 -0.5944 -0.4926
  885MOL0     C19352   3.968   5.551  10.384 -0.1005  0.3886  0.0899
  885MOL0     C19353   3.852   5.453  10.340  0.3906  0.1662 -0.1308
  885MOL0     C19354   3.822   5.347  10.443  1.6770  0.1291  0.2790
  885MOL0     C19355   3.920   5.230  10.441  0.1327  0.7600 -0.2154
  885MOL0     C19356   3.927   5.151  10.313  0.6035  0.5529 -0.5368
  885MOL0     N19357   4.049   5.059  10.304  0.6607  0.8547  0.3293
  885MOL0     C19358   4.058   4.937  10.370 -0.8371 -0.9481 -0.4242
  885MOL0     C19359   4.177   4.883  10.324  0.9984 -0.8114  0.8508
  885MOL0     C19360   4.230   4.746  10.356  0.4623 -0.1560  0.4372
  885MOL0     C19361   4.355   4.721  10.282  0.7349 -0.5249  0.4773
  885MOL0     C19362   4.426   4.597  10.331 -0.3729  1.0241  0.6175
  885MOL0     C19363   4.493   4.619  10.466 -0.4605 -0.3135 -0.2251
  885MOL0     O19364   4.584   4.517  10.513 -0.0649  0.9228  0.6273
  885MOL0     C19365   4.716   4.515  10.467  0.4859 -0.5490  0.3698
  885MOL0     C19366   4.775   4.607  10.382  0.5694 -0.6234  0.6923
  885MOL0     C19367   4.903   4.605  10.341 -0.7145 -0.3817  1.1141
  885MOL0     C19368   4.949   4.707  10.242 -0.0388  0.1903 -0.6026
  885MOL0     C19369   4.981   4.497  10.393  0.6283  0.5542  0.0319
  885MOL0     C19370   5.113   4.461  10.343 -0.4460  0.2478 -0.2782
  885MOL0     O19371   5.159   4.498  10.218  0.2684  0.8262  0.5778
  885MOL0     C19372   5.287   4.481  10.189 -0.5698 -0.5575  0.1109
  885MOL0     C19373   5.355   4.362  10.194 -0.4683  0.5491  0.3353
  885MOL0     C19374   5.499   4.369  10.163  0.5219 -0.1788  0.3766
  885MOL0     C19375   5.568   4.487  10.142  0.3199 -0.0397  0.5046
  885MOL0     O19376   5.702   4.481  10.131  0.5441  0.4170 -0.2518
  885MOL0     C19377   5.779   4.601  10.098  0.3450  0.2338  0.0901
  885MOL0     C19378   5.916   4.546  10.055  0.3009  0.1401  0.3865
  885MOL0     C19379   5.990   4.443  10.143  0.3726 -1.1084  0.1485
  885MOL0     C19380   6.135   4.430  10.095  1.0871  0.2460  0.5441
  885MOL0     C19381   6.218   4.546  10.155 -0.1405 -0.0976  0.0850
  885MOL0     C19382   6.364   4.530  10.121  0.9958  0.7060 -0.1567
  885MOL0     C19383   6.448   4.662  10.151  0.1309  0.4705 -0.1616
  885MOL0     C19384   6.592   4.649  10.106  0.1768  0.3854 -0.2141
  885MOL0    Cl19385   6.690   4.773  10.164 -0.1658 -0.0514 -0.1909
  885MOL0     C19386   5.494   4.603  10.127  0.3915 -0.5259  0.7193
  885MOL0     C19387   5.356   4.598  10.168  0.3266  0.1969  0.3383
  885MOL0     O19388   5.183   4.381  10.413  0.6980  0.1937 -0.0730
  885MOL0     C19389   4.916   4.402  10.477 -0.3353  0.4775  0.1776
  885MOL0     C19390   4.784   4.408  10.514 -0.2950 -0.4128 -0.2158
  885MOL0     N19391   4.216   4.963  10.220  0.1672  0.5324 -0.3150
  885MOL0     N19392   4.141   5.063  10.207 -0.2553  0.1831  0.3810
  885MOL0     C19393   3.924   5.638   9.860 -0.3262 -0.3551 -0.0754
  885MOL0     C19394   3.833   5.625   9.746 -0.6520 -0.1640 -0.1072
  885MOL0     C19395   3.600   5.716   9.338 -0.7937 -0.2420  0.3341
  885MOL0     C19396   3.632   5.750   9.210  0.0734  0.0627  0.9786
  885MOL0     C19397   3.559   5.707   9.098 -0.2629 -0.3660 -0.1211
  885MOL0     C19398   3.449   5.631   9.122  0.3997 -0.3767  0.1113
  885MOL0     O19399   3.362   5.604   9.014 -0.3527  0.6275 -0.0486
  885MOL0     C19400   3.242   5.530   9.034  0.7203 -0.7492 -0.5679
  885MOL0     C19401   3.201   5.451   8.910 -0.7051 -0.4348 -0.6997
  885MOL0     C19402   3.316   5.358   8.868 -1.0533  0.0319  0.8655
  885MOL0     C19403   3.271   5.240   8.793  0.4049 -0.2268  0.0101
  885MOL0     C19404   3.384   5.142   8.775  1.0741 -0.3074 -0.0312
  885MOL0     C19405   3.464   5.057   8.771  0.1569  0.1345 -0.1154
  885MOL0     C19406   3.415   5.593   9.257 -0.4837 -0.2798 -0.1466
  885MOL0     C19407   3.490   5.632   9.364 -0.8185 -0.0364 -0.6678
  885MOL0     H19408   3.888   5.928   9.592  2.4877  0.0871 -0.3239
  885MOL0     H19409   4.028   5.951   9.771 -0.4732  0.0238 -0.1254
  885MOL0     H19410   4.155   5.601  10.024  0.6756 -0.8108 -0.0222
  885MOL0     H19411   4.201   5.745  10.120 -0.7220 -2.3365  0.6936
  885MOL0     H19412   4.012   5.784  10.220  0.4199 -0.5799  0.2958
  885MOL0     H19413   3.907   5.678  10.152  0.7749 -0.5709 -1.4443
  885MOL0     H19414   4.082   5.483  10.210  1.4823  0.2333 -1.2805
  885MOL0     H19415   4.156   5.607  10.316 -0.9704  3.4388 -1.5999
  885MOL0     H19416   4.020   5.503  10.468  0.1987  2.0036  0.8587
  885MOL0     H19417   3.943   5.650  10.423 -1.6005 -0.8964  2.6626
  885MOL0     H19418   3.756   5.506  10.338 -0.3275 -1.1259 -1.2578
  885MOL0     H19419   3.873   5.406  10.243 -0.1366 -3.4154  1.3355
  885MOL0     H19420   3.829   5.386  10.545 -2.9674 -0.6794  1.1221
  885MOL0     H19421   3.725   5.297  10.437  0.3823  2.5396  0.0226
  885MOL0     H19422   4.019   5.261  10.473  0.6308 -1.9435  1.1600
  885MOL0     H19423   3.899   5.154  10.517  0.8825  1.5349  0.7978
  885MOL0     H19424   3.926   5.214  10.223 -5.1675  2.9711  0.7333
  885MOL0     H19425   3.838   5.089  10.319  0.1762  0.8901 -2.6123
  885MOL0     H19426   3.983   4.902  10.439  0.2950 -1.1386  0.7437
  885MOL0     H19427   4.244   4.743  10.464 -0.0217  3.4439  0.7211
  885MOL0     H19428   4.156   4.677  10.313  2.4490  0.5867 -5.1036
  885MOL0     H19429   4.432   4.799  10.285  2.6969 -2.2466 -1.3030
  885MOL0     H19430   4.338   4.700  10.176 -3.0458 -0.3392  0.9202
  885MOL0     H19431   4.507   4.563  10.267 -0.7509  0.5300  0.3998
  885MOL0     H19432   4.359   4.511  10.325  0.0276  0.7066 -5.3186
  885MOL0     H19433   4.434   4.637  10.556  1.1787 -1.9018  1.2724
  885MOL0     H19434   4.549   4.713  10.462  1.9131 -1.6114  0.1085
  885MOL0     H19435   4.707   4.681  10.341  2.8112  2.4639  2.1793
  885MOL0     H19436   4.961   4.648  10.151  0.1199 -1.7452  0.6236
  885MOL0     H19437   4.881   4.792  10.228  0.6394  0.7806 -0.3260
  885MOL0     H19438   5.040   4.754  10.280 -0.1486  0.1081 -0.2420
  885MOL0     H19439   5.313   4.265  10.218 -1.3887  0.8986  0.1830
  885MOL0     H19440   5.556   4.277  10.166  0.9706  0.0887  0.1028
  885MOL0     H19441   5.733   4.655  10.014  2.2695 -1.0985 -1.9056
  885MOL0     H19442   5.796   4.654  10.193  1.5780 -2.7986  1.6890
  885MOL0     H19443   5.894   4.508   9.955 -2.2500 -3.0263  1.9823
  885MOL0     H19444   5.980   4.635  10.050 -0.5931  0.7728 -0.1965
  885MOL0     H19445   5.938   4.347  10.138 -2.1186  0.2138 -0.4369
  885MOL0     H19446   5.971   4.480  10.244 -0.2925  0.6064 -0.5766
  885MOL0     H19447   6.184   4.338  10.128 -0.3093 -0.2799  1.2503
  885MOL0     H19448   6.128   4.441   9.986 -2.4711  2.6637  0.8524
  885MOL0     H19449   6.209   4.542  10.264 -1.3331  1.0390  0.0396
  885MOL0     H19450   6.168   4.637  10.123 -2.7191 -1.0675  1.0501
  885MOL0     H19451   6.401   4.445  10.179  0.1968 -0.8410 -1.8130
  885MOL0     H19452   6.375   4.506  10.015 -2.5346  1.5180 -0.8345
  885MOL0     H19453   6.439   4.657  10.260  4.8557 -1.3943  0.4031
  885MOL0     H19454   6.399   4.749  10.107  0.1132  1.3729  1.5589
  885MOL0     H19455   6.597   4.641   9.997 -1.2752  0.9235 -0.3362
  885MOL0     H19456   6.621   4.550  10.141  1.9802  0.8528 -0.2887
  885MOL0     H19457   5.546   4.697  10.110  0.0094 -0.9593 -4.6641
  885MOL0     H19458   5.305   4.693  10.181  0.1940 -0.0015  1.3440
  885MOL0     H19459   4.974   4.324  10.525  0.0756  0.1892 -0.7784
  885MOL0     H19460   4.753   4.324  10.575 -1.9930 -0.8553 -1.6259
  885MOL0     H19461   3.910   5.577   9.949  0.3519  0.5523  0.6714
  885MOL0     H19462   3.765   5.541   9.751  0.8878 -1.4510 -0.0257
  885MOL0     H19463   3.724   5.800   9.184  0.4798 -0.0987  2.0369
  885MOL0     H19464   3.579   5.730   8.994 -1.5499  1.7263  0.0388
  885MOL0     H19465   3.255   5.455   9.113  1.7471 -0.3487 -0.3435
  885MOL0     H19466   3.166   5.600   9.070  0.9412 -0.8715  0.1473
  885MOL0     H19467   3.179   5.528   8.836  1.9295  4.0145  2.6408
  885MOL0     H19468   3.109   5.406   8.950  0.4211  1.4813  4.8991
  885MOL0     H19469   3.362   5.325   8.962  0.2333  0.6203  0.4647
  885MOL0     H19470   3.396   5.403   8.809 -2.2380  0.0337 -0.8078
  885MOL0     H19471   3.233   5.283   8.699  0.2936  0.2562  0.2707
  885MOL0     H19472   3.186   5.196   8.846  0.5894 -2.1847 -1.2324
  885MOL0     H19473   3.526   4.969   8.768 -0.7404 -0.5875  1.2161
  885MOL0     H19474   3.332   5.539   9.302  0.1529  0.5640  2.1614
  885MOL0     H19475   3.467   5.599   9.464 -0.0390 -1.2781 -0.8699
  886MOL0     O19476   3.130   8.494   6.989 -0.4985 -0.2613  0.2389
  886MOL0     C19477   3.091   8.537   7.099  0.2354 -0.3108 -0.0716
  886MOL0     O19478   2.997   8.485   7.174  0.7229  0.0648  0.3206
  886MOL0     C19479   2.906   8.400   7.121  0.4726  0.2363  0.3329
  886MOL0     C19480   2.919   8.262   7.121 -0.2443 -0.4474 -0.1170
  886MOL0     C19481   2.804   8.191   7.070 -0.2619 -0.7615 -0.2403
  886MOL0     C19482   2.692   8.262   7.024 -0.3427  0.7225  0.2033
  886MOL0     O19483   2.590   8.178   6.978  0.6817 -0.8032 -0.7485
  886MOL0     C19484   2.505   8.221   6.870  1.0709  0.0235  0.2959
  886MOL0     C19485   2.392   8.308   6.906  0.1824 -0.2364  0.0583
  886MOL0     C19486   2.277   8.226   6.969  0.6349 -1.1407 -0.1327
  886MOL0     C19487   2.159   8.311   7.033 -0.3860  0.5295  0.3424
  886MOL0     C19488   2.091   8.424   6.956  0.7462 -0.1396  0.0079
  886MOL0     C19489   1.993   8.500   7.049 -0.3105 -0.4071 -0.6118
  886MOL0     C19490   1.926   8.619   6.983  1.2659 -0.1887 -0.0507
  886MOL0     C19491   1.852   8.597   6.850  0.5090 -0.3563  0.2578
  886MOL0     N19492   1.727   8.673   6.861 -0.0349  0.2329 -0.3590
  886MOL0     C19493   1.716   8.805   6.822 -0.6201  0.6557  0.1889
  886MOL0     C19494   1.590   8.842   6.850  0.5636 -0.1983  0.1976
  886MOL0     C19495   1.534   8.978   6.822 -0.2234 -0.1965  0.2870
  886MOL0     C19496   1.498   8.990   6.683 -0.1005  0.3357  0.0368
  886MOL0     C19497   1.351   8.968   6.658  1.2099  0.3460  0.5439
  886MOL0     C19498   1.309   8.818   6.686  0.3568 -0.0404  0.1667
  886MOL0     O19499   1.174   8.787   6.655 -0.1457  0.5103  0.4790
  886MOL0     C19500   1.139   8.766   6.520  0.0668  0.0998 -0.2723
  886MOL0     C19501   1.237   8.756   6.415  0.5631  0.3559 -0.5108
  886MOL0     C19502   1.201   8.742   6.281  0.3638 -0.5068 -0.9290
  886MOL0     C19503   1.321   8.748   6.195  0.1787 -0.0622  1.3979
  886MOL0     C19504   1.062   8.732   6.238 -0.7841 -1.0722 -1.0202
  886MOL0     C19505   1.023   8.721   6.095 -0.6321  0.0794 -0.0373
  886MOL0     O19506   1.104   8.653   6.010  0.2101  0.4913 -1.0260
  886MOL0     C19507   1.065   8.601   5.887 -1.0148  0.3900 -0.0535
  886MOL0     C19508   1.178   8.561   5.821 -0.5849  0.4805  0.7240
  886MOL0     C19509   1.171   8.482   5.704 -0.0555 -0.4072  0.5172
  886MOL0     C19510   1.049   8.450   5.643  0.2639  0.5370 -0.6138
  886MOL0     O19511   1.039   8.383   5.532  0.5342 -0.3630  0.1214
  886MOL0     C19512   1.155   8.308   5.474 -0.8498 -0.0090  0.9061
  886MOL0     C19513   1.136   8.235   5.346  0.6838 -0.9083  0.0692
  886MOL0     C19514   1.005   8.163   5.333  0.2526  1.2776  0.0982
  886MOL0     C19515   0.988   8.089   5.203 -0.5407  0.5373  0.0442
  886MOL0     C19516   0.840   8.042   5.177 -0.9451 -0.5470  0.0229
  886MOL0     C19517   0.757   8.000   5.299 -0.1227  0.0472  0.0847
  886MOL0     C19518   0.610   7.968   5.253 -0.1821 -0.0429 -0.3954
  886MOL0     C19519   0.538   7.894   5.363  0.3760  0.1396 -0.2996
  886MOL0    Cl19520   0.515   8.005   5.501  0.6055  0.0413 -0.3013
  886MOL0     C19521   0.933   8.488   5.710 -1.0734  0.2813 -0.7380
  886MOL0     C19522   0.941   8.559   5.833 -0.1583 -0.2158 -0.1504
  886MOL0     O19523   0.906   8.739   6.081 -0.4604  0.1432  1.2236
  886MOL0     C19524   0.966   8.745   6.339  0.0244  0.3849 -0.9024
  886MOL0     C19525   1.008   8.760   6.479 -0.3120 -0.8570  0.3958
  886MOL0     N19526   1.525   8.732   6.913  0.4656  0.2637  0.3999
  886MOL0     N19527   1.603   8.629   6.915 -0.1790 -0.2707  1.0152
  886MOL0     C19528   2.696   8.401   7.012 -0.0694  0.4911  0.9972
  886MOL0     C19529   2.800   8.465   7.073 -0.1007  0.2524 -0.4040
  886MOL0     C19530   3.135   8.676   7.143  0.7840 -0.3090 -0.0294
  886MOL0     C19531   3.065   8.734   7.250  0.5988 -0.1794 -0.6345
  886MOL0     C19532   3.083   8.871   7.267  0.6897 -0.0206  0.1696
  886MOL0     C19533   3.170   8.948   7.186 -0.1926  0.1584 -0.3300
  886MOL0     O19534   3.169   9.086   7.220 -0.0476  0.2642  1.2102
  886MOL0     C19535   3.280   9.165   7.172 -0.8032 -0.5603 -0.8178
  886MOL0     C19536   3.404   9.177   7.261 -0.1501 -0.7738 -1.8548
  886MOL0     C19537   3.364   9.239   7.403 -0.4686  0.0924 -1.7310
  886MOL0     C19538   3.480   9.274   7.490  0.1464 -0.1696 -0.6488
  886MOL0     C19539   3.433   9.356   7.608 -0.8064 -0.5775  0.3581
  886MOL0     C19540   3.397   9.414   7.705  0.1042 -0.0558 -0.7282
  886MOL0     C19541   3.261   8.881   7.098 -0.5748 -0.5289 -0.3759
  886MOL0     C19542   3.235   8.745   7.070 -0.0454 -1.0025 -0.1930
  886MOL0     H19543   3.009   8.209   7.149 -1.1624 -2.6591 -1.0319
  886MOL0     H19544   2.819   8.084   7.060  2.7107 -0.5086  0.5557
  886MOL0     H19545   2.550   8.274   6.786 -1.8475  1.0398 -0.7594
  886MOL0     H19546   2.465   8.133   6.818 -1.5150  1.1974  0.1397
  886MOL0     H19547   2.425   8.392   6.968  0.5519 -0.0474 -0.3946
  886MOL0     H19548   2.349   8.352   6.816  0.0052 -2.5602 -1.0700
  886MOL0     H19549   2.233   8.163   6.891 -1.3358  1.2861 -1.1532
  886MOL0     H19550   2.311   8.172   7.057 -0.6669 -2.8634 -0.6403
  886MOL0     H19551   2.079   8.244   7.067 -0.6642  0.5894 -0.1721
  886MOL0     H19552   2.225   8.358   7.106  1.1916 -1.4794  0.2791
  886MOL0     H19553   2.163   8.499   6.921  1.0006  0.3962  1.5887
  886MOL0     H19554   2.045   8.376   6.869 -0.6497  3.1349 -1.1984
  886MOL0     H19555   1.908   8.438   7.080 -0.8126  2.3243  4.3981
  886MOL0     H19556   2.049   8.526   7.139 -0.5461  1.1675 -0.8988
  886MOL0     H19557   1.855   8.667   7.051  0.0014 -1.2548 -0.5939
  886MOL0     H19558   2.011   8.687   6.968  2.6903 -1.8436  0.1575
  886MOL0     H19559   1.817   8.493   6.854 -1.9662  0.3076 -1.4536
  886MOL0     H19560   1.900   8.619   6.755 -2.0779 -2.0480 -1.5865
  886MOL0     H19561   1.790   8.865   6.770 -0.2105 -0.4388 -0.5060
  886MOL0     H19562   1.449   9.002   6.887 -1.4810  0.9374 -1.6583
  886MOL0     H19563   1.608   9.057   6.835 -0.3916  0.3212 -1.6380
  886MOL0     H19564   1.563   8.930   6.618  0.8401 -0.1890  1.4172
  886MOL0     H19565   1.520   9.092   6.651  1.0082  0.7337  1.9360
  886MOL0     H19566   1.331   8.996   6.555  1.6484 -2.4888 -0.4028
  886MOL0     H19567   1.294   9.043   6.714  0.5295  1.4406 -1.5145
  886MOL0     H19568   1.297   8.812   6.795  2.2984  1.2541  0.5100
  886MOL0     H19569   1.375   8.742   6.642 -1.2708 -0.4364 -1.7242
  886MOL0     H19570   1.342   8.760   6.439  0.8209  1.2146 -1.7086
  886MOL0     H19571   1.415   8.777   6.242  1.1592 -4.2299  2.3850
  886MOL0     H19572   1.357   8.651   6.161  2.3745  0.3609  2.3451
  886MOL0     H19573   1.304   8.806   6.103 -0.6081 -2.3674  0.0003
  886MOL0     H19574   1.273   8.598   5.856 -0.5337  0.2388  0.8469
  886MOL0     H19575   1.263   8.453   5.655  1.1591 -0.1165  2.5115
  886MOL0     H19576   1.222   8.388   5.444  0.0704 -0.5317  1.5350
  886MOL0     H19577   1.195   8.229   5.538 -0.9876 -0.7703  0.0772
  886MOL0     H19578   1.137   8.302   5.260  0.4510 -2.3680 -1.1306
  886MOL0     H19579   1.204   8.150   5.332  0.3025 -1.2094  0.0340
  886MOL0     H19580   0.936   8.247   5.345 -1.5965 -0.0890 -0.5336
  886MOL0     H19581   0.988   8.097   5.418  0.1488 -0.1157 -0.9688
  886MOL0     H19582   1.012   8.143   5.111 -1.0396  1.3623  0.3885
  886MOL0     H19583   1.043   7.995   5.207 -2.9557 -0.9443  0.0751
  886MOL0     H19584   0.820   7.966   5.101 -2.6130  0.9991 -1.1924
  886MOL0     H19585   0.778   8.125   5.139 -0.3599 -0.0295  0.1914
  886MOL0     H19586   0.788   7.901   5.333 -2.8549 -1.7161 -2.0626
  886MOL0     H19587   0.751   8.080   5.374 -1.8384  0.1290 -0.0976
  886MOL0     H19588   0.610   7.909   5.161  0.2710  0.4716 -0.7284
  886MOL0     H19589   0.560   8.058   5.218 -1.0692 -0.4441 -0.1811
  886MOL0     H19590   0.599   7.811   5.399  1.0285  0.2665 -1.0698
  886MOL0     H19591   0.442   7.865   5.319  1.4125 -0.6354 -2.1419
  886MOL0     H19592   0.831   8.475   5.674 -0.9815 -1.0430 -0.5754
  886MOL0     H19593   0.848   8.581   5.885 -0.4953  1.5969 -1.4031
  886MOL0     H19594   0.863   8.743   6.306 -0.0005  3.5355 -1.3035
  886MOL0     H19595   0.933   8.778   6.555  0.0246  0.8324  0.3806
  886MOL0     H19596   2.632   8.466   6.953  1.8936  1.1754 -0.4945
  886MOL0     H19597   2.790   8.573   7.075  0.8370  0.3608  2.4839
  886MOL0     H19598   2.995   8.685   7.317 -1.1069  0.5109 -1.8391
  886MOL0     H19599   3.022   8.923   7.339 -0.0971 -1.8042  0.8523
  886MOL0     H19600   3.311   9.139   7.070  3.0459 -0.5996  0.2319
  886MOL0     H19601   3.246   9.267   7.152 -0.4131 -0.8104 -3.0956
  886MOL0     H19602   3.483   9.242   7.223  0.6788 -0.8136 -0.2831
  886MOL0     H19603   3.436   9.075   7.285 -3.4507 -1.7467 -1.0390
  886MOL0     H19604   3.301   9.170   7.459  0.6685  0.7559  0.4572
  886MOL0     H19605   3.303   9.328   7.383  0.4045  1.1063 -0.1077
  886MOL0     H19606   3.551   9.337   7.435 -3.0004  1.3156 -3.3037
  886MOL0     H19607   3.527   9.183   7.527 -0.1014  0.5083  1.4829
  886MOL0     H19608   3.343   9.464   7.783 -0.2996  1.0527 -1.6840
  886MOL0     H19609   3.345   8.914   7.037  1.2854 -2.0372  1.1971
  886MOL0     H19610   3.286   8.688   6.993 -1.0970  0.3550 -1.9738
  887MOL0     O19611   6.501   0.190   6.786  0.2756 -0.5285  0.9309
  887MOL0     C19612   6.515   0.213   6.666 -0.0217 -0.4773  0.1948
  887MOL0     O19613   6.623   0.275   6.611 -0.3145  0.1540 -0.2556
  887MOL0     C19614   6.720   0.323   6.691  0.8848 -0.3668  0.5602
  887MOL0     C19615   6.709   0.432   6.766  0.0359 -0.7175 -0.0421
  887MOL0     C19616   6.820   0.494   6.829 -0.0787  1.0141 -0.3552
  887MOL0     C19617   6.953   0.432   6.817 -0.0902 -0.6012  0.4469
  887MOL0     O19618   7.061   0.497   6.874  0.5311 -0.7448 -0.2846
  887MOL0     C19619   7.196   0.473   6.862 -0.1693  0.1815 -0.3281
  887MOL0     C19620   7.250   0.344   6.937  0.3313 -0.4463  0.7413
  887MOL0     C19621   7.176   0.301   7.055 -0.7669  1.0448  0.1983
  887MOL0     C19622   7.186   0.148   7.067  0.4173  0.0753  0.7336
  887MOL0     C19623   7.091   0.106   7.175  0.4735  0.1635 -0.1620
  887MOL0     C19624   7.112  -0.044   7.210  0.0128 -1.0379 -1.0828
  887MOL0     C19625   7.000  -0.080   7.308 -0.0555 -0.0398 -0.0998
  887MOL0     C19626   7.013  -0.015   7.443  0.7020  0.0310  0.0073
  887MOL0     N19627   6.924  -0.077   7.550 -0.2903 -0.1068 -0.7606
  887MOL0     C19628   6.790  -0.039   7.576 -1.0980 -0.1053  0.1367
  887MOL0     C19629   6.758  -0.089   7.692 -0.0977  1.2188 -1.1162
  887MOL0     C19630   6.631  -0.085   7.764  0.2635 -0.2895 -0.1900
  887MOL0     C19631   6.595   0.064   7.796 -0.5249  0.7588 -0.4499
  887MOL0     C19632   6.468   0.078   7.881 -0.2129 -0.0532 -1.0104
  887MOL0     C19633   6.462   0.228   7.936  1.2586  0.2545  0.3214
  887MOL0     O19634   6.442   0.330   7.842 -0.1230 -0.2735  0.5556
  887MOL0     C19635   6.323   0.319   7.761  1.0373 -0.1968  0.3459
  887MOL0     C19636   6.339   0.293   7.621  0.9681  0.2723 -0.6717
  887MOL0     C19637   6.223   0.285   7.541  0.7805 -0.0910  0.5638
  887MOL0     C19638   6.251   0.245   7.396  0.6823 -1.1714 -0.3198
  887MOL0     C19639   6.096   0.300   7.593  0.6541 -0.4060  0.6315
  887MOL0     C19640   5.975   0.274   7.516  0.1216  0.5751  0.5802
  887MOL0     O19641   5.966   0.309   7.384  0.4453  0.9969  0.5592
  887MOL0     C19642   5.855   0.270   7.315 -0.0665 -0.4462 -0.2588
  887MOL0     C19643   5.874   0.187   7.205  0.0140  0.1852 -0.8249
  887MOL0     C19644   5.772   0.149   7.127  0.6111 -0.2860  1.6077
  887MOL0     C19645   5.641   0.192   7.145 -0.1575  0.2795  0.5784
  887MOL0     O19646   5.532   0.164   7.067  0.1278  0.0534  0.1781
  887MOL0     C19647   5.569   0.154   6.924 -0.6478 -0.3212 -0.1931
  887MOL0     C19648   5.455   0.167   6.826 -0.1006 -0.0722 -0.1697
  887MOL0     C19649   5.345   0.057   6.853  0.4875 -0.6075  0.5442
  887MOL0     C19650   5.228   0.058   6.763  0.4011 -0.3569 -0.1862
  887MOL0     C19651   5.112   0.144   6.817  0.6042  0.2672  0.6491
  887MOL0     C19652   4.970   0.110   6.765  0.6161 -0.9961  0.3134
  887MOL0     C19653   4.864   0.195   6.838  0.1093 -0.7452  0.1065
  887MOL0     C19654   4.895   0.349   6.839 -0.3242 -0.7570 -1.3339
  887MOL0    Cl19655   5.024   0.394   6.962 -0.2803  0.0499  0.1544
  887MOL0     C19656   5.623   0.272   7.263 -0.0585  0.4473 -0.4080
  887MOL0     C19657   5.727   0.306   7.351 -0.0482 -0.6558  1.0652
  887MOL0     O19658   5.883   0.214   7.579 -0.2445 -0.3655  0.5905
  887MOL0     C19659   6.084   0.324   7.733 -0.3916  1.0335  0.7176
  887MOL0     C19660   6.195   0.333   7.813  1.3420 -0.9325 -0.0873
  887MOL0     N19661   6.870  -0.148   7.738 -0.1398  0.4762 -0.2885
  887MOL0     N19662   6.973  -0.136   7.658 -0.1515  0.6829 -0.2421
  887MOL0     C19663   6.956   0.307   6.749 -0.0265 -0.8063  0.1546
  887MOL0     C19664   6.840   0.250   6.700 -0.4782 -0.6401  0.0474
  887MOL0     C19665   6.398   0.180   6.577 -0.0377 -1.0376 -0.3646
  887MOL0     C19666   6.295   0.084   6.604 -0.0469  0.9500 -0.4216
  887MOL0     C19667   6.206   0.038   6.508 -0.0686 -0.2716 -0.5684
  887MOL0     C19668   6.204   0.100   6.381 -0.2444 -0.5353 -0.0645
  887MOL0     O19669   6.122   0.061   6.278  0.2603 -0.2570 -0.3795
  887MOL0     C19670   6.004  -0.022   6.294  0.1714 -0.9891  0.0697
  887MOL0     C19671   5.916  -0.016   6.173 -0.2851 -0.6880  0.2368
  887MOL0     C19672   5.796  -0.109   6.178 -0.1333  0.7797  0.5841
  887MOL0     C19673   5.720  -0.126   6.047  0.2029  0.7795 -0.4421
  887MOL0     C19674   5.790  -0.187   5.934  0.4195 -0.1420 -0.5362
  887MOL0     C19675   5.858  -0.252   5.862 -0.3298 -0.1536  0.3039
  887MOL0     C19676   6.297   0.202   6.356  0.6154 -0.2220 -0.8416
  887MOL0     C19677   6.384   0.243   6.455  0.8860 -0.1353 -0.0804
  887MOL0     H19678   6.615   0.486   6.762  0.1758 -0.2089  2.1163
  887MOL0     H19679   6.816   0.596   6.866 -2.9346  0.3733  1.4599
  887MOL0     H19680   7.220   0.456   6.757  0.4851 -1.1861  0.0279
  887MOL0     H19681   7.262   0.552   6.899  2.8219 -2.3926  0.1616
  887MOL0     H19682   7.257   0.267   6.859 -0.3130 -1.3142  1.5152
  887MOL0     H19683   7.353   0.364   6.964  0.2385 -0.5163  1.1468
  887MOL0     H19684   7.213   0.342   7.149 -4.6011 -2.7826  3.8005
  887MOL0     H19685   7.070   0.320   7.033 -0.9283 -3.2333 -4.5450
  887MOL0     H19686   7.153   0.094   6.977 -2.0467  0.5051  1.2817
  887MOL0     H19687   7.290   0.143   7.099  0.5647 -0.6365  0.1592
  887MOL0     H19688   7.105   0.170   7.263 -2.4037 -0.2984  0.7437
  887MOL0     H19689   6.988   0.127   7.143  0.4426  0.5860  0.2008
  887MOL0     H19690   7.096  -0.109   7.123 -2.8638 -2.2581  0.2247
  887MOL0     H19691   7.209  -0.047   7.261 -0.2541  2.0699 -0.1952
  887MOL0     H19692   6.904  -0.044   7.269 -0.4778 -0.0124  0.9354
  887MOL0     H19693   6.993  -0.189   7.308 -3.6143 -0.1873 -5.7285
  887MOL0     H19694   6.994   0.092   7.433 -0.4331  0.1753  2.9622
  887MOL0     H19695   7.118  -0.019   7.471  0.2528  2.3052  2.3542
  887MOL0     H19696   6.725   0.023   7.516  0.9122  0.3438 -1.6799
  887MOL0     H19697   6.554  -0.125   7.698  1.5019 -0.0078 -1.8700
  887MOL0     H19698   6.636  -0.145   7.855  2.8154 -1.9735 -1.3272
  887MOL0     H19699   6.582   0.122   7.704 -2.5984 -1.0920 -1.4101
  887MOL0     H19700   6.687   0.103   7.841  0.6310 -1.3832 -0.8060
  887MOL0     H19701   6.455   0.009   7.964 -1.7571 -0.5650 -1.6346
  887MOL0     H19702   6.375   0.063   7.823  0.6538 -0.6294 -2.3072
  887MOL0     H19703   6.547   0.248   8.002  0.1590  0.3877  1.7620
  887MOL0     H19704   6.370   0.221   7.996 -0.4670  2.5383 -1.8098
  887MOL0     H19705   6.437   0.279   7.576  0.2617 -0.1200 -2.1397
  887MOL0     H19706   6.357   0.218   7.397  0.4834 -1.9776  1.4833
  887MOL0     H19707   6.196   0.152   7.378 -1.8832  0.2971 -0.6645
  887MOL0     H19708   6.236   0.310   7.309  0.0070 -0.4850  0.2921
  887MOL0     H19709   5.977   0.173   7.172  0.5448 -2.8658  1.6826
  887MOL0     H19710   5.806   0.111   7.031  0.2568  0.7103  1.0706
  887MOL0     H19711   5.637   0.230   6.885 -0.7452 -1.3770 -2.5435
  887MOL0     H19712   5.607   0.051   6.923 -0.9418 -0.4232 -1.0711
  887MOL0     H19713   5.407   0.265   6.828 -1.8153 -0.8667 -0.0069
  887MOL0     H19714   5.493   0.174   6.723  0.4282  1.9096  0.1302
  887MOL0     H19715   5.316   0.051   6.958  0.6258  2.0475  0.7968
  887MOL0     H19716   5.413  -0.026   6.828  1.4730  0.1293  0.7454
  887MOL0     H19717   5.261   0.096   6.666  2.0932  1.1635  0.9227
  887MOL0     H19718   5.211  -0.049   6.750  0.0710 -0.4276  0.7747
  887MOL0     H19719   5.138   0.244   6.780  1.4457 -0.4814 -0.8673
  887MOL0     H19720   5.122   0.135   6.926  1.7883 -1.5087  0.4315
  887MOL0     H19721   4.966   0.139   6.659  1.5667  5.6298  1.6917
  887MOL0     H19722   4.952   0.003   6.778 -2.6529 -0.7159 -0.8044
  887MOL0     H19723   4.847   0.167   6.943 -0.1257  3.2081  1.3041
  887MOL0     H19724   4.772   0.169   6.785 -0.3783 -0.4219  0.7663
  887MOL0     H19725   4.805   0.403   6.872  2.7514  1.8012  4.1713
  887MOL0     H19726   4.917   0.380   6.736  4.2403  2.0509  0.2460
  887MOL0     H19727   5.519   0.291   7.288 -0.3508  0.5550 -1.6227
  887MOL0     H19728   5.707   0.359   7.444 -1.9532  0.5641  0.0047
  887MOL0     H19729   5.984   0.342   7.771 -1.2224 -0.0844 -0.8087
  887MOL0     H19730   6.179   0.358   7.917 -0.4181 -0.1066 -0.5152
  887MOL0     H19731   7.050   0.255   6.729 -0.7707 -2.9496  1.7857
  887MOL0     H19732   6.847   0.153   6.652  1.3250  0.1153 -1.3233
  887MOL0     H19733   6.298   0.028   6.697 -0.6411 -1.1939 -1.6261
  887MOL0     H19734   6.146  -0.049   6.534 -3.2969  2.3787  1.7556
  887MOL0     H19735   6.037  -0.125   6.311 -0.4316 -1.8275 -3.1804
  887MOL0     H19736   5.949   0.017   6.380  1.1163  0.5391  0.0089
  887MOL0     H19737   5.980  -0.051   6.092 -1.1969 -2.9164  0.4159
  887MOL0     H19738   5.902   0.091   6.156  2.1613 -0.4194 -0.4412
  887MOL0     H19739   5.733  -0.075   6.260 -0.9644 -1.4640  0.9460
  887MOL0     H19740   5.837  -0.203   6.217  0.9026  0.9677 -0.0163
  887MOL0     H19741   5.673  -0.033   6.013 -2.6245  0.9759  3.3844
  887MOL0     H19742   5.637  -0.190   6.078  1.9624 -0.8487  1.1441
  887MOL0     H19743   5.933  -0.309   5.811 -0.4322 -1.5905  1.6827
  887MOL0     H19744   6.311   0.259   6.265  4.9190 -0.9547 -0.8333
  887MOL0     H19745   6.461   0.316   6.431  0.8927 -0.2320 -0.3545
  888MOL0     O19746   9.965   0.871   7.056  0.6198 -0.3551  0.3114
  888MOL0     C19747  10.015   0.842   7.160 -0.0170  0.4241  0.1413
  888MOL0     O19748   9.942   0.809   7.276 -0.1647  0.6694  0.1269
  888MOL0     C19749   9.806   0.835   7.271 -0.0565  0.2290 -0.1808
  888MOL0     C19750   9.731   0.723   7.238  1.3410 -0.7230  0.5020
  888MOL0     C19751   9.593   0.734   7.247 -0.6403 -1.1049  1.0325
  888MOL0     C19752   9.531   0.864   7.256  0.9942 -0.4390  0.1517
  888MOL0     O19753   9.395   0.891   7.240  0.2782 -0.0257 -0.3011
  888MOL0     C19754   9.303   0.804   7.302 -0.8556  0.1052 -0.3224
  888MOL0     C19755   9.156   0.852   7.270 -1.2618  0.1459  0.1644
  888MOL0     C19756   9.135   0.857   7.113  0.0912 -0.2555 -0.1851
  888MOL0     C19757   9.093   0.996   7.076  0.6540  0.7002  0.1500
  888MOL0     C19758   9.049   1.021   6.933  0.0953 -0.0843 -0.3951
  888MOL0     C19759   9.039   1.163   6.893  0.8078 -0.9656  0.3045
  888MOL0     C19760   8.930   1.245   6.953  0.1814 -0.1422 -0.7707
  888MOL0     C19761   8.891   1.364   6.868  0.2977 -0.8027 -0.0771
  888MOL0     N19762   8.789   1.445   6.935  0.7046  0.6921  0.7793
  888MOL0     C19763   8.814   1.511   7.048  0.5141  0.2669  0.3536
  888MOL0     C19764   8.693   1.532   7.098  0.6391  0.1115 -0.2227
  888MOL0     C19765   8.665   1.622   7.214 -0.0153 -0.3172  0.4558
  888MOL0     C19766   8.523   1.612   7.260  0.6741 -0.4471 -0.3299
  888MOL0     C19767   8.490   1.688   7.384  0.0193  0.5753  0.1695
  888MOL0     C19768   8.334   1.693   7.404 -0.7239  0.3842  0.8129
  888MOL0     O19769   8.298   1.775   7.521  0.6304  0.5079  0.2994
  888MOL0     C19770   8.344   1.733   7.637  0.8148  0.7824  0.3323
  888MOL0     C19771   8.435   1.807   7.700  0.0069 -0.9250  0.6152
  888MOL0     C19772   8.482   1.779   7.830 -0.6973  0.2290  0.6272
  888MOL0     C19773   8.587   1.875   7.885 -0.3635 -0.4321  0.5038
  888MOL0     C19774   8.446   1.659   7.891 -0.8107  0.5382  0.4327
  888MOL0     C19775   8.500   1.607   8.016  0.0928  0.9323 -0.1855
  888MOL0     O19776   8.416   1.532   8.102 -1.1859 -0.7644  0.0103
  888MOL0     C19777   8.471   1.522   8.226 -0.4718 -0.4035 -0.3428
  888MOL0     C19778   8.474   1.624   8.321 -0.6411  0.5731  0.2564
  888MOL0     C19779   8.520   1.606   8.454  0.1877  0.2259 -0.2815
  888MOL0     C19780   8.571   1.479   8.493 -0.2934  0.8616 -0.1586
  888MOL0     O19781   8.614   1.438   8.618  0.1406 -0.0652  0.0558
  888MOL0     C19782   8.663   1.540   8.712  0.0897 -0.6598 -1.0353
  888MOL0     C19783   8.686   1.496   8.858 -0.5003  0.4106  0.0853
  888MOL0     C19784   8.560   1.443   8.923 -0.0061  0.6215 -0.7203
  888MOL0     C19785   8.474   1.553   8.986 -1.6421  0.6436  0.7458
  888MOL0     C19786   8.347   1.489   9.047 -0.0178  0.3276 -0.5979
  888MOL0     C19787   8.241   1.592   9.079 -1.0752 -0.0520 -0.1024
  888MOL0     C19788   8.104   1.524   9.107  0.1356 -0.3362  0.4671
  888MOL0     C19789   7.974   1.613   9.110 -0.0312 -0.1125 -0.3978
  888MOL0    Cl19790   7.835   1.518   9.177 -0.0383 -0.0051 -0.2959
  888MOL0     C19791   8.575   1.377   8.396 -0.0265 -0.7232  0.8940
  888MOL0     C19792   8.516   1.391   8.270  0.2909  0.2163 -0.4913
  888MOL0     O19793   8.619   1.636   8.039  0.9058  0.2555 -0.1528
  888MOL0     C19794   8.345   1.579   7.823  0.9202  0.2005  0.0905
  888MOL0     C19795   8.298   1.620   7.699  0.6511  0.0635  0.0917
  888MOL0     N19796   8.595   1.465   7.036 -0.1098  0.5677  0.3233
  888MOL0     N19797   8.661   1.394   6.950 -0.0273 -0.1175 -0.1143
  888MOL0     C19798   9.614   0.974   7.287  0.2746 -0.1394 -0.2133
  888MOL0     C19799   9.752   0.963   7.284 -0.8020 -0.4282  0.9154
  888MOL0     C19800  10.163   0.826   7.165  0.1153 -0.2356  0.2618
  888MOL0     C19801  10.226   0.762   7.051  0.0363 -0.3310 -0.6476
  888MOL0     C19802  10.362   0.749   7.043  0.8397 -1.1566  0.1110
  888MOL0     C19803  10.440   0.805   7.142  0.2131  0.1920 -0.0194
  888MOL0     O19804  10.575   0.784   7.127  0.4193 -1.0582 -0.8906
  888MOL0     C19805  10.628   0.664   7.178  0.5173  0.5699  0.0619
  888MOL0     C19806  10.623   0.552   7.074  0.8725  0.5102 -0.7520
  888MOL0     C19807  10.698   0.572   6.943  0.7952  0.0600 -0.1774
  888MOL0     C19808  10.853   0.552   6.967 -0.1711 -0.4332 -0.8379
  888MOL0     C19809  10.929   0.539   6.841  0.2018 -0.1448 -0.0441
  888MOL0     C19810  10.971   0.534   6.727 -0.7094 -1.0082 -0.0486
  888MOL0     C19811  10.381   0.863   7.253 -1.0723  0.2592 -1.5377
  888MOL0     C19812  10.244   0.880   7.269  0.2152  0.6339  0.8665
  888MOL0     H19813   9.786   0.631   7.223 -0.5322 -2.3984  3.0519
  888MOL0     H19814   9.531   0.647   7.227 -0.1122 -0.8878 -1.9364
  888MOL0     H19815   9.298   0.704   7.257 -1.1408 -0.9487  1.9288
  888MOL0     H19816   9.327   0.799   7.408  2.7071 -0.7317 -1.0391
  888MOL0     H19817   9.088   0.778   7.313  1.6824 -2.2318  1.1117
  888MOL0     H19818   9.147   0.949   7.319  0.2468  1.8956 -2.7637
  888MOL0     H19819   9.234   0.835   7.071  1.4949 -2.5705  3.6971
  888MOL0     H19820   9.060   0.780   7.094 -0.3657  0.0324  0.4142
  888MOL0     H19821   9.003   1.012   7.137 -0.9559 -4.0721 -0.5742
  888MOL0     H19822   9.169   1.067   7.108 -0.4136  2.3010 -0.7453
  888MOL0     H19823   9.126   0.981   6.867  2.1550 -0.6416  2.1745
  888MOL0     H19824   8.948   0.984   6.913 -0.1728  1.0005 -1.1670
  888MOL0     H19825   9.132   1.217   6.912 -0.3544  1.7495 -1.0621
  888MOL0     H19826   9.020   1.159   6.785 -2.0041 -0.1427  0.6736
  888MOL0     H19827   8.842   1.182   6.966 -0.2525  0.7692  1.0025
  888MOL0     H19828   8.975   1.276   7.048  1.8100 -4.2973  0.0075
  888MOL0     H19829   8.847   1.313   6.781 -0.8176 -2.8052  1.5569
  888MOL0     H19830   8.964   1.443   6.847 -2.2814  1.9915  0.8161
  888MOL0     H19831   8.912   1.542   7.083  1.7764 -0.9393 -1.8747
  888MOL0     H19832   8.732   1.590   7.293  3.6846 -0.9403 -2.6220
  888MOL0     H19833   8.698   1.719   7.175 -2.5495 -0.5860 -2.8433
  888MOL0     H19834   8.500   1.509   7.288 -1.0849  0.9559  4.2574
  888MOL0     H19835   8.466   1.649   7.175 -0.7787 -3.2288 -0.6621
  888MOL0     H19836   8.536   1.786   7.398  1.6523  0.2639 -2.4210
  888MOL0     H19837   8.536   1.626   7.462 -1.4309  0.3655  0.8949
  888MOL0     H19838   8.283   1.596   7.405 -2.4793  1.2665  2.3996
  888MOL0     H19839   8.295   1.749   7.319 -2.0317 -2.0238 -0.2738
  888MOL0     H19840   8.463   1.882   7.627  1.4367 -3.0888 -1.1727
  888MOL0     H19841   8.685   1.832   7.907  0.4809 -0.7834 -3.2891
  888MOL0     H19842   8.589   1.963   7.820  0.5848  0.1643  1.3200
  888MOL0     H19843   8.548   1.906   7.983 -0.0936 -2.6409  1.3638
  888MOL0     H19844   8.431   1.717   8.286  4.3239  2.4616 -1.7090
  888MOL0     H19845   8.523   1.679   8.535 -0.5977  2.4065 -2.0920
  888MOL0     H19846   8.746   1.603   8.679 -0.2444 -0.2737 -1.1461
  888MOL0     H19847   8.591   1.622   8.723  1.7501  0.7842 -0.3248
  888MOL0     H19848   8.755   1.412   8.848 -1.4337 -0.1448 -2.1909
  888MOL0     H19849   8.739   1.572   8.917 -0.6951  2.1790 -1.9132
  888MOL0     H19850   8.584   1.372   9.003 -1.3969  2.0115  1.0323
  888MOL0     H19851   8.489   1.388   8.860 -3.5304 -3.9102  5.9183
  888MOL0     H19852   8.523   1.615   9.061 -2.1375 -0.4534  2.0250
  888MOL0     H19853   8.450   1.626   8.908  1.6551  0.7260 -0.3626
  888MOL0     H19854   8.375   1.430   9.135 -0.5169 -0.8418 -1.1968
  888MOL0     H19855   8.300   1.419   8.977  2.4644 -3.6902  1.4234
  888MOL0     H19856   8.271   1.643   9.171  1.6630 -2.5635  0.5484
  888MOL0     H19857   8.243   1.662   8.995  0.6038 -1.5767 -1.4066
  888MOL0     H19858   8.111   1.475   9.205 -0.7889 -0.2039  0.6054
  888MOL0     H19859   8.077   1.454   9.029 -1.5852  1.1361 -0.3227
  888MOL0     H19860   7.951   1.653   9.011 -4.0989 -0.1147  0.3898
  888MOL0     H19861   7.977   1.705   9.170 -0.4027 -0.6127  0.4082
  888MOL0     H19862   8.626   1.286   8.425  2.8878  0.6000  0.3098
  888MOL0     H19863   8.528   1.307   8.202  3.0369  1.0952 -1.1988
  888MOL0     H19864   8.307   1.483   7.856  2.6679 -0.0542  1.5045
  888MOL0     H19865   8.224   1.555   7.653 -0.7316  0.4380  1.6813
  888MOL0     H19866   9.563   1.067   7.312 -1.2687 -1.4062  1.6171
  888MOL0     H19867   9.821   1.047   7.289 -1.0154 -0.0134 -1.6067
  888MOL0     H19868  10.161   0.718   6.977 -0.0433  1.1918 -1.5279
  888MOL0     H19869  10.404   0.698   6.957  1.3159  0.7636 -0.8412
  888MOL0     H19870  10.729   0.666   7.220  1.1140  1.8749 -1.3097
  888MOL0     H19871  10.564   0.619   7.255 -2.0746  1.9729 -1.1432
  888MOL0     H19872  10.519   0.521   7.056  0.6605  0.8984 -0.1951
  888MOL0     H19873  10.662   0.461   7.122 -1.6851  0.6347  1.8242
  888MOL0     H19874  10.669   0.671   6.906 -3.1055 -0.6599  0.4728
  888MOL0     H19875  10.663   0.491   6.877  0.0511  0.2680 -0.0518
  888MOL0     H19876  10.882   0.464   7.025  1.4362  2.4099  3.1209
  888MOL0     H19877  10.876   0.640   7.028 -5.0100 -0.8656  2.1378
  888MOL0     H19878  11.014   0.549   6.630  0.0304  0.3657  0.4643
  888MOL0     H19879  10.448   0.904   7.328 -1.7214  1.4889 -1.6027
  888MOL0     H19880  10.188   0.931   7.347 -2.0598 -0.6190  0.1435
  889MOL0     O19881   4.533  11.479  10.493 -0.2932 -0.4135  0.4642
  889MOL0     C19882   4.513  11.589  10.445 -0.7463 -0.2076 -0.0356
  889MOL0     O19883   4.569  11.636  10.331 -0.4599  0.3869  0.6300
  889MOL0     C19884   4.655  11.561  10.261  0.6802 -0.5891 -0.0179
  889MOL0     C19885   4.775  11.622  10.217 -0.0592  0.5305  0.6706
  889MOL0     C19886   4.879  11.565  10.153 -0.3549 -0.6486 -0.0333
  889MOL0     C19887   4.870  11.432  10.132  0.6733  0.0244  0.5259
  889MOL0     O19888   4.975  11.370  10.060 -0.2564 -0.0824  0.2852
  889MOL0     C19889   4.938  11.319   9.935  0.3975  0.7328  0.0411
  889MOL0     C19890   5.068  11.283   9.851 -0.0799 -0.7293 -0.2079
  889MOL0     C19891   5.151  11.400   9.807  0.2089  0.4046 -0.7601
  889MOL0     C19892   5.080  11.509   9.722 -0.2607  0.0694 -0.4927
  889MOL0     C19893   5.177  11.628   9.708  0.7635  0.2989  1.1391
  889MOL0     C19894   5.277  11.603   9.602 -0.1155 -0.6490 -0.8050
  889MOL0     C19895   5.354  11.724   9.552 -0.5573 -0.2035  0.1280
  889MOL0     C19896   5.264  11.833   9.496  0.2591  0.4519  0.0095
  889MOL0     N19897   5.327  11.943   9.431 -1.3034  1.2571 -0.1791
  889MOL0     C19898   5.409  11.928   9.328  0.4227 -0.3257  0.0738
  889MOL0     C19899   5.478  12.043   9.309 -0.6026  0.3667  0.2154
  889MOL0     C19900   5.591  12.065   9.205 -0.4461 -0.1620  0.3887
  889MOL0     C19901   5.570  12.181   9.105 -0.0812  0.0805 -0.0477
  889MOL0     C19902   5.709  12.209   9.034  1.0392  0.3769  0.3437
  889MOL0     C19903   5.691  12.264   8.895  0.2139 -0.5739  0.6455
  889MOL0     O19904   5.814  12.295   8.831 -0.3212 -0.0411  0.3683
  889MOL0     C19905   5.854  12.215   8.722 -0.2829 -0.2289 -0.4338
  889MOL0     C19906   5.798  12.094   8.693 -0.0550  0.0877 -0.2388
  889MOL0     C19907   5.855  12.013   8.587  0.4830 -0.0413 -0.8149
  889MOL0     C19908   5.793  11.878   8.578  0.2749 -0.6731 -0.6960
  889MOL0     C19909   5.966  12.052   8.507 -0.3797 -0.0472 -0.9933
  889MOL0     C19910   6.037  11.971   8.399  0.1449  0.5255  0.1084
  889MOL0     O19911   6.084  12.035   8.296 -1.2934  0.2793  0.5156
  889MOL0     C19912   6.223  12.047   8.295  0.1711 -0.2902 -0.2029
  889MOL0     C19913   6.269  12.160   8.217  0.0317  0.7012 -0.2024
  889MOL0     C19914   6.397  12.160   8.176  0.6098 -0.8565 -0.0645
  889MOL0     C19915   6.502  12.062   8.216  0.0010 -1.3565 -0.4917
  889MOL0     O19916   6.640  12.089   8.202 -0.7134  0.3349  0.7162
  889MOL0     C19917   6.668  12.225   8.187 -0.5059  0.2739 -0.2101
  889MOL0     C19918   6.830  12.243   8.161 -0.0287 -0.2281 -0.1762
  889MOL0     C19919   6.903  12.194   8.277 -0.3898  0.2572 -0.7269
  889MOL0     C19920   7.050  12.222   8.253 -0.4841  0.2162 -0.3418
  889MOL0     C19921   7.134  12.146   8.351 -0.1137  0.1454 -0.4017
  889MOL0     C19922   7.270  12.095   8.306 -0.2466  0.2055 -0.0091
  889MOL0     C19923   7.352  12.213   8.259 -0.4294 -0.0057  0.3930
  889MOL0     C19924   7.469  12.163   8.177 -0.1661  0.0180 -0.4237
  889MOL0    Cl19925   7.565  12.058   8.267  0.2540 -0.0434 -0.3720
  889MOL0     C19926   6.452  11.947   8.289  0.6453 -0.2577  0.5331
  889MOL0     C19927   6.314  11.944   8.330 -0.1253  0.3335  0.5524
  889MOL0     O19928   6.048  11.849   8.420  0.2592 -0.2198 -0.2826
  889MOL0     C19929   6.008  12.174   8.534 -0.7795  0.0702  0.4457
  889MOL0     C19930   5.962  12.255   8.640 -0.9384  0.3925  0.3617
  889MOL0     N19931   5.439  12.140   9.397 -0.2425 -0.0971 -0.3994
  889MOL0     N19932   5.360  12.069   9.477  0.2415  0.4283  0.2754
  889MOL0     C19933   4.757  11.357  10.174 -1.0403 -0.1580 -0.3467
  889MOL0     C19934   4.649  11.424  10.231 -0.4209  0.0632  0.1474
  889MOL0     C19935   4.401  11.660  10.510  0.1893  0.0941  0.4414
  889MOL0     C19936   4.353  11.627  10.636 -0.1816  0.1428 -0.3856
  889MOL0     C19937   4.251  11.713  10.696  0.3457  0.0161  0.7917
  889MOL0     C19938   4.194  11.816  10.625  0.5651 -0.9051 -0.1002
  889MOL0     O19939   4.088  11.903  10.653  0.3823 -0.3096  0.5846
  889MOL0     C19940   4.037  11.900  10.789  0.4359 -0.4472 -0.6804
  889MOL0     C19941   3.921  11.809  10.805  0.0569  0.6600  0.4369
  889MOL0     C19942   3.785  11.875  10.788 -0.4417  0.3324 -0.0673
  889MOL0     C19943   3.658  11.799  10.800 -0.6502 -0.5438 -0.3243
  889MOL0     C19944   3.632  11.700  10.701 -0.5893 -0.8412  0.1988
  889MOL0     C19945   3.630  11.610  10.619  0.4048  0.5192  0.1419
  889MOL0     C19946   4.248  11.847  10.499  0.2553 -0.2575  0.1831
  889MOL0     C19947   4.346  11.769  10.441  1.0218 -0.0849 -0.4036
  889MOL0     H19948   4.794  11.726  10.241  3.0818 -0.2976  2.3444
  889MOL0     H19949   4.967  11.626  10.135  1.7716 -3.1767  1.0519
  889MOL0     H19950   4.868  11.238   9.954  2.0029 -0.5254  0.8353
  889MOL0     H19951   4.882  11.394   9.877 -0.0380  0.8783  0.6469
  889MOL0     H19952   5.129  11.208   9.903 -1.8683 -2.5691 -0.6252
  889MOL0     H19953   5.039  11.228   9.761 -2.4759  0.3217 -0.1429
  889MOL0     H19954   5.192  11.442   9.899  0.2774 -2.8837  0.8414
  889MOL0     H19955   5.237  11.360   9.753  2.3933  1.3363  1.8295
  889MOL0     H19956   5.050  11.472   9.623 -1.1188 -0.5931 -0.0000
  889MOL0     H19957   4.988  11.536   9.774 -0.1377 -1.8080  0.7934
  889MOL0     H19958   5.122  11.721   9.694  0.1276 -0.1130  0.8497
  889MOL0     H19959   5.240  11.647   9.796  2.6161 -1.2634  0.2202
  889MOL0     H19960   5.352  11.531   9.636 -0.8978 -0.1420  2.3193
  889MOL0     H19961   5.233  11.555   9.514 -1.0397 -1.7539  0.2171
  889MOL0     H19962   5.415  11.775   9.627  2.0072 -3.8279  0.7783
  889MOL0     H19963   5.422  11.680   9.478  0.7231  1.4561  0.2743
  889MOL0     H19964   5.197  11.876   9.572 -1.0620  2.8832 -2.3607
  889MOL0     H19965   5.192  11.793   9.424  0.5241 -1.2933  0.6801
  889MOL0     H19966   5.421  11.831   9.280 -0.5820 -0.4062 -0.0558
  889MOL0     H19967   5.687  12.070   9.258  1.7148 -1.1704 -3.0884
  889MOL0     H19968   5.604  11.981   9.136 -0.3103  0.7471 -0.7382
  889MOL0     H19969   5.527  12.264   9.162  0.2953 -0.2592  0.7445
  889MOL0     H19970   5.496  12.161   9.027  0.2086  0.4202 -0.4150
  889MOL0     H19971   5.760  12.112   9.024  0.7756  0.1144  1.3731
  889MOL0     H19972   5.775  12.267   9.099 -0.2755  2.9209 -0.4936
  889MOL0     H19973   5.642  12.362   8.905  0.9512 -0.2052  0.6745
  889MOL0     H19974   5.618  12.208   8.837  0.7952  0.7621 -1.4721
  889MOL0     H19975   5.719  12.051   8.753  0.6062 -0.3525  0.3337
  889MOL0     H19976   5.725  11.859   8.662  1.1477  0.1161  0.2232
  889MOL0     H19977   5.744  11.851   8.484  2.6631 -1.3094 -1.8317
  889MOL0     H19978   5.876  11.807   8.587 -0.9585 -2.1464 -0.5748
  889MOL0     H19979   6.202  12.231   8.169  0.7562  0.3913 -1.7466
  889MOL0     H19980   6.419  12.258   8.136  0.1650 -0.5518  0.4148
  889MOL0     H19981   6.625  12.269   8.097 -1.5449  0.0885  0.1893
  889MOL0     H19982   6.645  12.283   8.277  0.4923  1.8533 -0.9209
  889MOL0     H19983   6.859  12.185   8.073 -0.0911  2.5902 -2.2018
  889MOL0     H19984   6.839  12.351   8.145 -1.1277 -0.1675 -0.4957
  889MOL0     H19985   6.881  12.087   8.285 -1.6748  0.4626 -1.1881
  889MOL0     H19986   6.856  12.236   8.366 -0.0712  0.0950 -0.4837
  889MOL0     H19987   7.083  12.211   8.149 -1.7846 -1.7762 -0.5951
  889MOL0     H19988   7.077  12.324   8.279  0.4572 -0.1724  0.2900
  889MOL0     H19989   7.083  12.051   8.367 -0.7725  0.1816 -2.0845
  889MOL0     H19990   7.145  12.203   8.444 -1.0158 -0.3565  0.0218
  889MOL0     H19991   7.322  12.033   8.380  0.7189 -0.3046 -1.0826
  889MOL0     H19992   7.266  12.019   8.227  1.0599  0.9357 -0.8241
  889MOL0     H19993   7.384  12.260   8.352  0.3956  4.1830 -1.7646
  889MOL0     H19994   7.304  12.285   8.191 -0.3235  1.1941  1.5505
  889MOL0     H19995   7.537  12.246   8.155  1.0968 -1.1783 -1.2102
  889MOL0     H19996   7.437  12.106   8.089 -1.3984 -1.2686  0.8197
  889MOL0     H19997   6.525  11.871   8.316  1.1051  0.1582  0.4672
  889MOL0     H19998   6.281  11.854   8.380 -1.0075 -1.0836 -2.3761
  889MOL0     H19999   6.098  12.199   8.478  0.7070 -1.2570  2.1163
  889MOL0     H20000   6.003  12.355   8.654  0.2315  0.3506 -2.1884
  889MOL0     H20001   4.748  11.250  10.163 -0.1150 -0.3129  0.3465
  889MOL0     H20002   4.555  11.371  10.247 -2.2754  2.3108 -2.4690
  889MOL0     H20003   4.415  11.559  10.694  1.3675  2.1148  0.3952
  889MOL0     H20004   4.216  11.688  10.796 -1.0589 -1.3777  0.0004
  889MOL0     H20005   4.112  11.875  10.864  0.0534 -4.5627 -1.4394
  889MOL0     H20006   4.005  12.003  10.808 -0.5046 -0.8304 -0.0722
  889MOL0     H20007   3.927  11.765  10.905  2.5903  0.7546  0.3918
  889MOL0     H20008   3.941  11.717  10.749  0.0037 -0.7133  2.5437
  889MOL0     H20009   3.777  11.922  10.689  2.0179  4.9479  1.6246
  889MOL0     H20010   3.771  11.957  10.859 -2.9141 -0.3326  0.3275
  889MOL0     H20011   3.585  11.879  10.789 -0.4646 -0.6697 -3.5245
  889MOL0     H20012   3.663  11.758  10.902  4.7148 -2.4835 -0.9968
  889MOL0     H20013   3.618  11.515  10.571 -1.5895  2.1874 -2.9526
  889MOL0     H20014   4.222  11.948  10.470  0.5748 -0.1415  0.2974
  889MOL0     H20015   4.384  11.795  10.343 -0.3082  0.2959 -0.8293
  890MOL0     O20016  10.413   4.360   6.425 -0.1071  0.4994 -0.1146
  890MOL0     C20017  10.307   4.360   6.358  0.7840  0.2810  0.0773
  890MOL0     O20018  10.266   4.261   6.265  0.2182 -0.6784  0.0367
  890MOL0     C20019  10.343   4.154   6.231 -0.2848  0.5359 -0.4535
  890MOL0     C20020  10.362   4.124   6.098 -0.1736 -0.4163 -1.1334
  890MOL0     C20021  10.441   4.006   6.066 -1.3507 -1.1509  1.0859
  890MOL0     C20022  10.468   3.908   6.168  0.7583  0.3366  0.5367
  890MOL0     O20023  10.538   3.801   6.120 -0.8996 -0.9708  0.1721
  890MOL0     C20024  10.628   3.743   6.204 -0.1268  0.6222 -1.0845
  890MOL0     C20025  10.751   3.716   6.115  0.1451  0.3046  0.2311
  890MOL0     C20026  10.727   3.616   6.007 -0.6118  1.0275  0.6602
  890MOL0     C20027  10.857   3.547   5.963 -0.4550  0.3258  0.3675
  890MOL0     C20028  10.828   3.446   5.851 -0.2982 -0.8289  0.5089
  890MOL0     C20029  10.963   3.424   5.760 -0.1141  0.2649 -0.5049
  890MOL0     C20030  10.956   3.306   5.667  0.7506  0.6281 -0.0743
  890MOL0     C20031  11.097   3.281   5.608  0.5333 -0.8007 -1.1664
  890MOL0     N20032  11.111   3.198   5.492 -0.1111 -0.7667 -0.5831
  890MOL0     C20033  11.011   3.178   5.399 -0.4116 -0.5015  0.6432
  890MOL0     C20034  11.072   3.097   5.311  0.0344 -1.0864  0.0480
  890MOL0     C20035  11.003   3.061   5.183  0.7386 -1.1762  0.8219
  890MOL0     C20036  10.950   3.179   5.095  0.3741 -0.0164  0.3200
  890MOL0     C20037  10.862   3.129   4.974  1.7069  0.5877  0.6506
  890MOL0     C20038  10.744   3.042   5.017 -0.3506  0.2379  0.2433
  890MOL0     O20039  10.664   3.006   4.907 -0.3131 -0.0256 -0.0201
  890MOL0     C20040  10.554   2.926   4.945 -0.2392 -0.0727  0.3130
  890MOL0     C20041  10.479   2.879   4.845 -0.3635  0.2773  0.6461
  890MOL0     C20042  10.358   2.807   4.857  1.1832  0.0598  0.2099
  890MOL0     C20043  10.277   2.764   4.732 -0.3294 -0.4959  0.7830
  890MOL0     C20044  10.312   2.773   4.989 -0.8416  0.1904 -0.6256
  890MOL0     C20045  10.198   2.703   5.033  0.4537  0.1287 -0.5898
  890MOL0     O20046  10.219   2.635   5.147 -0.0947  0.0313  0.6688
  890MOL0     C20047  10.130   2.550   5.193  0.0925  0.8724 -0.3985
  890MOL0     C20048  10.012   2.599   5.247  0.9484 -0.1836 -0.1486
  890MOL0     C20049   9.910   2.503   5.288  0.5265  0.0093 -0.0698
  890MOL0     C20050   9.934   2.366   5.296  1.0169 -0.0967  0.1384
  890MOL0     O20051   9.834   2.276   5.341  0.4522 -0.5055 -0.2425
  890MOL0     C20052   9.872   2.172   5.425  0.4848 -0.1623  0.9435
  890MOL0     C20053   9.910   2.224   5.562  0.2979 -0.1959 -0.9712
  890MOL0     C20054   9.795   2.304   5.623  0.3147  0.4699 -0.1850
  890MOL0     C20055   9.834   2.360   5.767 -0.7649 -0.1709 -0.5370
  890MOL0     C20056   9.721   2.443   5.832 -0.3141 -0.1450  0.3252
  890MOL0     C20057   9.611   2.367   5.907 -0.4138  0.4303 -0.1443
  890MOL0     C20058   9.490   2.336   5.811  0.3733 -0.0128  0.2122
  890MOL0     C20059   9.448   2.190   5.812  0.4458 -0.2165  0.9919
  890MOL0    Cl20060   9.569   2.063   5.811  0.1200 -0.0030  0.7264
  890MOL0     C20061  10.053   2.321   5.245  0.5502  0.4041 -0.8200
  890MOL0     C20062  10.145   2.407   5.193 -0.0147 -0.5979  0.9008
  890MOL0     O20063  10.092   2.724   4.976  0.0526 -0.0919  1.2847
  890MOL0     C20064  10.385   2.832   5.096  0.6972  0.8467  0.6798
  890MOL0     C20065  10.504   2.906   5.070  0.7981  0.0898 -0.4743
  890MOL0     N20066  11.200   3.062   5.353  0.6467 -0.0676  0.2680
  890MOL0     N20067  11.220   3.129   5.460 -0.7973 -0.4680  0.4799
  890MOL0     C20068  10.435   3.933   6.302 -1.1280 -0.4754 -0.2116
  890MOL0     C20069  10.374   4.053   6.328 -0.3690 -0.2388  0.1379
  890MOL0     C20070  10.226   4.482   6.355 -0.0472 -0.4192 -0.6595
  890MOL0     C20071  10.197   4.542   6.230 -0.4278  0.8566 -0.2127
  890MOL0     C20072  10.135   4.662   6.222  0.4827 -0.6278  0.0165
  890MOL0     C20073  10.109   4.742   6.330  0.1210  1.1290 -0.0229
  890MOL0     O20074  10.044   4.866   6.322 -0.2512 -0.1307  0.0591
  890MOL0     C20075   9.976   4.897   6.200 -0.9299 -0.1097 -0.6368
  890MOL0     C20076  10.073   4.961   6.092 -0.1451 -0.3685  0.5164
  890MOL0     C20077   9.987   5.041   5.983 -0.5448  0.1891 -0.1331
  890MOL0     C20078  10.090   5.121   5.913  0.5939 -0.4918  0.0841
  890MOL0     C20079  10.036   5.196   5.803 -0.3386 -0.1988 -0.3892
  890MOL0     C20080   9.984   5.265   5.721 -0.9341  0.0950 -0.1187
  890MOL0     C20081  10.142   4.692   6.454 -0.0628  0.2489  0.8790
  890MOL0     C20082  10.207   4.565   6.466 -0.0478 -0.1014  0.5807
  890MOL0     H20083  10.332   4.207   6.034 -0.5021  0.4485  0.1006
  890MOL0     H20084  10.470   3.998   5.962  1.0013  2.5841  1.2562
  890MOL0     H20085  10.674   3.800   6.285  0.4296 -0.7640 -0.4137
  890MOL0     H20086  10.584   3.653   6.247 -1.2495 -0.4872 -4.2325
  890MOL0     H20087  10.794   3.806   6.071 -0.8213  0.3925 -0.5871
  890MOL0     H20088  10.829   3.683   6.184  1.7485 -3.0685 -2.8888
  890MOL0     H20089  10.651   3.541   6.030  1.2166 -0.3991  2.5038
  890MOL0     H20090  10.682   3.659   5.917  0.8824 -1.0203 -1.1691
  890MOL0     H20091  10.923   3.630   5.936  1.7630 -0.9582  1.5810
  890MOL0     H20092  10.906   3.495   6.046  1.1017  1.1052 -0.0215
  890MOL0     H20093  10.776   3.363   5.900  1.2538 -0.0684  3.6758
  890MOL0     H20094  10.755   3.496   5.786 -2.2574 -0.9069  2.5362
  890MOL0     H20095  10.978   3.521   5.711 -1.9726  0.1460 -1.4088
  890MOL0     H20096  11.055   3.414   5.818  0.9019 -1.5906 -2.2930
  890MOL0     H20097  10.919   3.212   5.710 -0.5681  0.6964 -0.9974
  890MOL0     H20098  10.886   3.338   5.589  0.6227 -2.6050 -1.4404
  890MOL0     H20099  11.140   3.232   5.696 -0.7063 -1.4252 -0.8966
  890MOL0     H20100  11.135   3.382   5.591 -2.7292  0.6866 -0.3698
  890MOL0     H20101  10.907   3.207   5.393 -0.2595  0.1433  1.0372
  890MOL0     H20102  11.082   3.008   5.130  2.2927  0.1487  1.7217
  890MOL0     H20103  10.922   2.992   5.206  1.4378 -4.0555 -4.0272
  890MOL0     H20104  11.036   3.236   5.059 -2.4717  2.7194 -2.8020
  890MOL0     H20105  10.890   3.247   5.156  0.5875  2.1425 -1.7464
  890MOL0     H20106  10.936   3.076   4.912 -0.6032 -1.6337 -0.3792
  890MOL0     H20107  10.827   3.213   4.913  0.5005 -0.0476  0.4286
  890MOL0     H20108  10.691   3.097   5.095  1.1272 -1.4145  2.5551
  890MOL0     H20109  10.777   2.949   5.063 -1.1066  1.0919  2.6898
  890MOL0     H20110  10.517   2.897   4.745 -2.9731  0.6175 -0.3688
  890MOL0     H20111  10.296   2.661   4.701 -3.4319 -0.9735  0.2123
  890MOL0     H20112  10.170   2.772   4.750 -0.3937  0.5187  0.0346
  890MOL0     H20113  10.306   2.832   4.651 -0.5293  0.4139  1.4530
  890MOL0     H20114   9.986   2.704   5.237 -0.4520 -0.5401 -0.5650
  890MOL0     H20115   9.815   2.548   5.315 -0.8483 -3.0465  0.5887
  890MOL0     H20116   9.793   2.096   5.424 -1.9446  2.1936 -1.1672
  890MOL0     H20117   9.957   2.109   5.398  1.4449  1.1913  0.7243
  890MOL0     H20118   9.937   2.129   5.609  3.2320  0.4152 -1.2138
  890MOL0     H20119   9.998   2.288   5.553 -0.5292  1.3122  0.9223
  890MOL0     H20120   9.697   2.256   5.629  0.1918  0.8875  2.2273
  890MOL0     H20121   9.790   2.388   5.554  0.2187  1.4889  1.0312
  890MOL0     H20122   9.858   2.281   5.839  1.1253 -0.0070 -0.9476
  890MOL0     H20123   9.916   2.429   5.746 -2.5335  1.8761 -1.1059
  890MOL0     H20124   9.688   2.524   5.766  1.4478 -0.4949 -1.0747
  890MOL0     H20125   9.780   2.507   5.899 -0.3431  1.5611 -1.1840
  890MOL0     H20126   9.647   2.270   5.943 -1.3908 -0.1281 -0.6116
  890MOL0     H20127   9.585   2.416   6.001  2.6231 -1.4895  1.8878
  890MOL0     H20128   9.519   2.363   5.709  2.0901 -2.7915 -0.1231
  890MOL0     H20129   9.404   2.403   5.821  0.3687  0.2156 -1.1015
  890MOL0     H20130   9.381   2.157   5.733 -1.0665  2.2181  1.1602
  890MOL0     H20131   9.376   2.180   5.894 -2.5042 -2.4854 -1.6505
  890MOL0     H20132  10.065   2.213   5.247 -0.2852  0.3101  0.5085
  890MOL0     H20133  10.233   2.374   5.138 -1.1107 -3.2732  0.6355
  890MOL0     H20134  10.344   2.833   5.197  0.3322  2.4360  0.5421
  890MOL0     H20135  10.551   2.948   5.159 -2.3898  0.9171  0.9835
  890MOL0     H20136  10.450   3.872   6.391  1.3021 -0.7998 -0.7956
  890MOL0     H20137  10.341   4.058   6.431 -1.7188 -3.6395 -0.0029
  890MOL0     H20138  10.223   4.486   6.141 -0.4162  0.3831  0.0821
  890MOL0     H20139  10.099   4.702   6.128  3.3930  1.2818 -0.4101
  890MOL0     H20140   9.928   4.805   6.166 -1.7834  0.5318 -1.2087
  890MOL0     H20141   9.893   4.960   6.232 -0.1781  0.7773 -0.3861
  890MOL0     H20142  10.132   4.883   6.043 -2.0231  0.2676 -3.0997
  890MOL0     H20143  10.136   5.038   6.138 -1.8024  0.8852  0.7975
  890MOL0     H20144   9.915   5.109   6.031 -0.4569  1.9170 -2.2701
  890MOL0     H20145   9.943   4.964   5.919  0.5379 -0.5749  0.0183
  890MOL0     H20146  10.186   5.076   5.887  0.9332  0.8920 -1.2047
  890MOL0     H20147  10.116   5.203   5.980 -0.3140  0.1506 -0.3215
  890MOL0     H20148   9.943   5.324   5.641  2.2733 -0.2201 -2.1627
  890MOL0     H20149  10.114   4.753   6.540 -0.6034 -0.5696  1.2978
  890MOL0     H20150  10.243   4.538   6.565  0.8222  0.6984  0.4970
  891MOL0     O20151  10.752   4.766   5.676 -1.2174 -0.0514  0.1470
  891MOL0     C20152  10.855   4.697   5.656  0.3025  0.6729 -1.2581
  891MOL0     O20153  10.971   4.716   5.728 -0.0461 -0.5929  0.3799
  891MOL0     C20154  10.999   4.842   5.761  0.0968 -0.2634  0.2807
  891MOL0     C20155  10.979   4.890   5.892  0.5627  0.1632 -0.0171
  891MOL0     C20156  11.026   5.018   5.932 -0.3318 -0.1256 -0.4417
  891MOL0     C20157  11.104   5.092   5.842  0.5915 -0.0480 -0.1753
  891MOL0     O20158  11.173   5.208   5.875  0.1811 -0.6244 -0.0888
  891MOL0     C20159  11.118   5.295   5.979  0.4659  0.2516 -0.5209
  891MOL0     C20160  11.183   5.431   5.982  0.0368  0.2878  0.1659
  891MOL0     C20161  11.337   5.431   5.950 -0.8233 -0.6032 -0.3380
  891MOL0     C20162  11.389   5.565   5.904  0.3374 -0.3236 -0.0828
  891MOL0     C20163  11.404   5.671   6.022  0.3926  0.2688  0.4849
  891MOL0     C20164  11.527   5.660   6.118  0.8141  0.0465  0.7391
  891MOL0     C20165  11.653   5.634   6.035  1.0168 -0.2508  0.1476
  891MOL0     C20166  11.789   5.665   6.111  0.5582 -0.4786  0.2168
  891MOL0     N20167  11.793   5.591   6.237 -0.2352  0.0196  0.2577
  891MOL0     C20168  11.895   5.498   6.263  0.1723 -0.7905 -0.2647
  891MOL0     C20169  11.869   5.468   6.395 -0.1126  0.6072 -0.6537
  891MOL0     C20170  11.939   5.359   6.470  0.3336 -0.3862 -0.6836
  891MOL0     C20171  12.037   5.394   6.580 -0.0067  0.1516  0.0512
  891MOL0     C20172  11.967   5.441   6.714 -0.0432 -0.3659  1.5486
  891MOL0     C20173  12.077   5.461   6.828  0.0074  0.2453 -1.0812
  891MOL0     O20174  12.015   5.486   6.953  0.7108  0.1585 -0.2232
  891MOL0     C20175  12.000   5.381   7.040  0.3194  0.5767 -0.6059
  891MOL0     C20176  11.895   5.291   7.042  0.5571 -0.3629 -1.2092
  891MOL0     C20177  11.879   5.194   7.140  0.4475  0.0780 -0.8923
  891MOL0     C20178  11.762   5.092   7.129 -1.2174 -0.5645  0.4681
  891MOL0     C20179  11.971   5.194   7.247  0.7969 -0.3392  0.4343
  891MOL0     C20180  11.959   5.090   7.359 -0.5306 -0.8240 -0.9054
  891MOL0     O20181  12.059   5.084   7.456  0.1165  0.9765 -0.2111
  891MOL0     C20182  12.031   5.002   7.567  0.1989  0.4712 -0.8729
  891MOL0     C20183  12.065   4.865   7.561 -0.1629  0.0616 -0.1255
  891MOL0     C20184  12.034   4.785   7.669 -0.4969  0.4136  0.8296
  891MOL0     C20185  11.986   4.839   7.789  0.1871  0.2224  0.6028
  891MOL0     O20186  11.980   4.749   7.887 -0.4069  0.1923  0.2671
  891MOL0     C20187  11.897   4.780   7.997  0.2816 -0.7069  0.5461
  891MOL0     C20188  11.865   4.671   8.094 -1.2997 -0.5574 -0.1347
  891MOL0     C20189  11.992   4.628   8.172 -0.9203  1.4732  0.1616
  891MOL0     C20190  11.953   4.586   8.312  0.8668  0.4652  0.5370
  891MOL0     C20191  11.978   4.688   8.418 -0.2101 -1.7951  0.8875
  891MOL0     C20192  11.962   4.640   8.563 -0.5435 -0.5049 -0.4130
  891MOL0     C20193  11.974   4.751   8.664  0.2499 -0.3431 -0.5651
  891MOL0     C20194  11.930   4.719   8.799  0.1558  0.2351  0.0773
  891MOL0    Cl20195  12.027   4.579   8.860  0.0363 -0.3273  0.3320
  891MOL0     C20196  11.941   4.977   7.785  0.7289 -0.3241  0.2339
  891MOL0     C20197  11.962   5.056   7.674  0.3314  0.0513 -0.4559
  891MOL0     O20198  11.855   5.032   7.371  0.1230 -0.1840  0.3233
  891MOL0     C20199  12.082   5.284   7.250  0.4768 -0.2445  0.3055
  891MOL0     C20200  12.100   5.370   7.141  0.8095 -0.2152 -1.5478
  891MOL0     N20201  11.759   5.536   6.446 -0.9530 -0.4114  0.0977
  891MOL0     N20202  11.724   5.614   6.352  0.8617  0.5761 -0.6587
  891MOL0     C20203  11.123   5.052   5.711  0.9526  0.6752  0.1452
  891MOL0     C20204  11.074   4.927   5.668 -0.4300 -0.4317 -0.5822
  891MOL0     C20205  10.847   4.583   5.561  0.2099  0.6658 -1.0569
  891MOL0     C20206  10.958   4.501   5.516  0.5111 -0.7218 -0.1557
  891MOL0     C20207  10.947   4.393   5.422 -0.1985  0.4429  0.1898
  891MOL0     C20208  10.818   4.357   5.380 -0.0554 -0.2448 -0.1001
  891MOL0     O20209  10.813   4.249   5.298  0.0140  0.0512  0.2434
  891MOL0     C20210  10.700   4.216   5.231  0.6125 -0.9669 -1.3504
  891MOL0     C20211  10.602   4.148   5.322 -0.3754  0.3865 -0.2135
  891MOL0     C20212  10.467   4.122   5.259 -0.5041 -0.1735  0.0275
  891MOL0     C20213  10.458   4.048   5.128 -0.2929 -1.2873 -0.0456
  891MOL0     C20214  10.333   3.976   5.119  0.4748 -0.0860 -0.5458
  891MOL0     C20215  10.217   3.924   5.127  0.1702 -0.2557  1.7536
  891MOL0     C20216  10.712   4.454   5.397  0.0703 -0.2338 -0.2163
  891MOL0     C20217  10.725   4.555   5.493  0.4633 -0.3250  0.0956
  891MOL0     H20218  10.904   4.843   5.955  1.4544 -0.0083  0.9563
  891MOL0     H20219  10.978   5.039   6.027 -4.7339 -3.3522 -1.6294
  891MOL0     H20220  11.010   5.296   5.966  0.4861  0.4823 -0.6780
  891MOL0     H20221  11.134   5.230   6.066 -2.7421 -1.4233 -1.0425
  891MOL0     H20222  11.128   5.486   5.906 -4.0007 -4.1566 -0.6208
  891MOL0     H20223  11.174   5.484   6.077 -1.5057 -1.1476  0.8739
  891MOL0     H20224  11.394   5.411   6.042 -1.1634 -0.8867 -0.1882
  891MOL0     H20225  11.365   5.357   5.874  0.5395  1.4844 -1.9775
  891MOL0     H20226  11.479   5.543   5.845  0.9121 -0.5612  0.8599
  891MOL0     H20227  11.327   5.601   5.822 -0.2146 -0.9996  0.0254
  891MOL0     H20228  11.405   5.770   5.974  4.7052 -0.1449 -0.6993
  891MOL0     H20229  11.310   5.669   6.079 -1.7213 -1.3926 -2.7308
  891MOL0     H20230  11.532   5.754   6.175  0.1927 -0.1768  1.1747
  891MOL0     H20231  11.526   5.570   6.181 -0.6429  0.1788  0.9463
  891MOL0     H20232  11.665   5.526   6.017  0.8620 -0.1470 -0.6098
  891MOL0     H20233  11.644   5.688   5.940  1.1683 -2.5537 -1.2650
  891MOL0     H20234  11.784   5.772   6.133 -1.6668 -0.7872  1.4731
  891MOL0     H20235  11.880   5.651   6.052  0.3838 -1.2982  0.1401
  891MOL0     H20236  11.954   5.445   6.190 -1.3462 -1.3520 -1.1215
  891MOL0     H20237  11.859   5.300   6.517 -0.2234  0.6234 -0.3276
  891MOL0     H20238  11.983   5.280   6.408 -2.9445 -0.1938 -3.5379
  891MOL0     H20239  12.111   5.461   6.534 -0.9860  1.2302  0.0183
  891MOL0     H20240  12.099   5.307   6.602  2.0334  2.0470  2.5456
  891MOL0     H20241  11.898   5.364   6.750 -1.9762  0.4522 -0.2471
  891MOL0     H20242  11.910   5.534   6.701 -0.2173 -0.6118  0.4394
  891MOL0     H20243  12.153   5.537   6.808  0.3857  0.9232  2.3361
  891MOL0     H20244  12.131   5.367   6.840 -0.4155  0.4011  3.6504
  891MOL0     H20245  11.824   5.304   6.961 -1.7005 -0.6875  0.6120
  891MOL0     H20246  11.704   5.116   7.039  2.1742  0.9638 -1.5044
  891MOL0     H20247  11.801   4.990   7.121  0.0273 -0.1460  1.0166
  891MOL0     H20248  11.696   5.097   7.215 -0.5070 -1.0966  1.0590
  891MOL0     H20249  12.115   4.820   7.475  0.5977 -1.8506  1.2613
  891MOL0     H20250  12.066   4.681   7.670  3.3544  1.4337  0.7679
  891MOL0     H20251  11.942   4.867   8.046 -1.2290  1.4999 -1.7109
  891MOL0     H20252  11.806   4.818   7.949  1.8114 -0.0035 -2.0256
  891MOL0     H20253  11.789   4.695   8.168  0.3204 -0.5364  1.6177
  891MOL0     H20254  11.835   4.589   8.028  0.4379 -0.1882 -1.4534
  891MOL0     H20255  12.065   4.708   8.185  1.9561 -0.9041 -0.3641
  891MOL0     H20256  12.039   4.544   8.121 -0.3151  1.8512  0.0886
  891MOL0     H20257  11.850   4.549   8.319  1.5439 -1.3561  1.6749
  891MOL0     H20258  12.014   4.498   8.333 -0.5668 -0.3405  1.5403
  891MOL0     H20259  11.915   4.776   8.400  2.1151 -0.4238 -1.1550
  891MOL0     H20260  12.083   4.719   8.415 -0.5786 -0.3126  1.9295
  891MOL0     H20261  11.862   4.598   8.577 -0.1579 -0.9337  1.2359
  891MOL0     H20262  12.033   4.560   8.587 -1.4674 -1.6092 -1.2051
  891MOL0     H20263  11.903   4.828   8.633  1.7482  1.5333  0.4784
  891MOL0     H20264  12.073   4.796   8.674 -0.9560  2.0691  1.4905
  891MOL0     H20265  11.823   4.697   8.809  0.6183 -1.3702  2.3519
  891MOL0     H20266  11.921   4.809   8.860  0.7621  1.9190 -2.2278
  891MOL0     H20267  11.892   5.027   7.868 -1.8266  0.7718 -1.7699
  891MOL0     H20268  11.928   5.159   7.671 -1.3346 -0.4336 -4.2676
  891MOL0     H20269  12.144   5.285   7.339  1.1787  0.2236 -0.1780
  891MOL0     H20270  12.195   5.423   7.135  0.1123  1.3261  0.1780
  891MOL0     H20271  11.176   5.121   5.646 -1.6077  3.5020  0.8525
  891MOL0     H20272  11.092   4.881   5.571 -2.9604 -7.3033  1.5611
  891MOL0     H20273  11.057   4.527   5.552  0.4655  1.6845 -1.5819
  891MOL0     H20274  11.027   4.322   5.405 -1.7204 -1.2526 -0.2537
  891MOL0     H20275  10.653   4.309   5.197  1.8320  0.2752  0.1531
  891MOL0     H20276  10.738   4.142   5.161  2.9732 -0.1306 -1.0674
  891MOL0     H20277  10.594   4.194   5.421 -0.0012 -1.2728  0.6234
  891MOL0     H20278  10.652   4.053   5.344 -0.7859 -0.4017 -2.4392
  891MOL0     H20279  10.415   4.218   5.247 -2.3930 -1.4301 -2.8073
  891MOL0     H20280  10.415   4.072   5.341 -0.2217 -0.4325  0.0464
  891MOL0     H20281  10.541   3.979   5.114 -0.5964 -1.7822  0.5213
  891MOL0     H20282  10.456   4.127   5.052  0.5786 -1.1467  0.0680
  891MOL0     H20283  10.131   3.861   5.121 -0.1205  0.2358  0.3425
  891MOL0     H20284  10.613   4.444   5.353 -0.2597 -0.3109  0.5249
  891MOL0     H20285  10.644   4.624   5.515  1.2088  0.9231 -0.9373
  892MOL0     O20286   5.388  10.497   1.603  0.3811  0.3985 -0.1592
  892MOL0     C20287   5.477  10.415   1.572 -0.8374  0.2190  0.3041
  892MOL0     O20288   5.558  10.341   1.654  0.3160 -0.7560 -0.4781
  892MOL0     C20289   5.519  10.339   1.787  0.6430  0.1035 -0.3291
  892MOL0     C20290   5.591  10.408   1.880 -0.3727 -0.6010 -0.4490
  892MOL0     C20291   5.566  10.397   2.017 -0.5498 -0.2630 -0.6090
  892MOL0     C20292   5.465  10.320   2.067 -0.3266  1.3332 -0.7812
  892MOL0     O20293   5.435  10.305   2.198  0.1575  0.3132  0.0343
  892MOL0     C20294   5.493  10.401   2.284 -0.3922  0.4628  0.1538
  892MOL0     C20295   5.442  10.378   2.429 -0.6936 -0.0355 -0.3381
  892MOL0     C20296   5.301  10.426   2.436 -0.0228 -0.0397 -0.6873
  892MOL0     C20297   5.226  10.382   2.574  0.2713 -0.3461 -0.6145
  892MOL0     C20298   5.066  10.387   2.547  0.0832 -0.6628  0.6285
  892MOL0     C20299   4.991  10.351   2.664  0.0180 -0.6904  0.3091
  892MOL0     C20300   4.849  10.402   2.642 -0.1845  0.1200  0.1097
  892MOL0     C20301   4.740  10.353   2.737 -0.1255 -0.3464 -0.5631
  892MOL0     N20302   4.752  10.411   2.867  0.7291 -0.2440 -1.0292
  892MOL0     C20303   4.836  10.376   2.970  0.2581  0.2068 -0.5982
  892MOL0     C20304   4.843  10.487   3.047 -1.1758  0.4694 -0.5674
  892MOL0     C20305   4.941  10.516   3.160  0.8944  0.0956 -0.7139
  892MOL0     C20306   5.044  10.407   3.201 -0.7214  0.0751 -0.7934
  892MOL0     C20307   5.142  10.461   3.304  0.3950 -1.0576  1.0577
  892MOL0     C20308   5.081  10.457   3.449 -0.3293 -0.4470  0.6174
  892MOL0     O20309   5.171  10.436   3.550 -0.1855 -0.1532  0.0175
  892MOL0     C20310   5.128  10.398   3.676 -0.3578  0.1446 -0.8207
  892MOL0     C20311   5.219  10.361   3.768  0.7183 -0.0781 -0.6069
  892MOL0     C20312   5.177  10.312   3.895 -0.8327 -1.0238 -0.3283
  892MOL0     C20313   5.299  10.305   3.989 -0.2052  0.3715 -0.4973
  892MOL0     C20314   5.046  10.295   3.930  0.4059 -0.4553 -1.0924
  892MOL0     C20315   5.019  10.278   4.073  0.0707  0.7432  0.0745
  892MOL0     O20316   5.088  10.349   4.160  0.2002 -0.5359  0.1164
  892MOL0     C20317   5.084  10.305   4.283  0.4716  0.1351 -0.2156
  892MOL0     C20318   5.123  10.178   4.331  0.8390  0.4870  0.3808
  892MOL0     C20319   5.113  10.148   4.464 -0.1819  1.0498  0.6823
  892MOL0     C20320   5.077  10.237   4.563  0.4865 -0.6069  0.2774
  892MOL0     O20321   5.094  10.195   4.688  0.3633  0.2201  0.2881
  892MOL0     C20322   5.003  10.267   4.784 -0.4852 -0.3566 -0.0278
  892MOL0     C20323   4.943  10.156   4.868  1.5347  0.5408 -0.7485
  892MOL0     C20324   4.877  10.045   4.784  0.6337  0.6215 -0.1766
  892MOL0     C20325   4.758   9.986   4.861  0.7017 -0.2347  0.3847
  892MOL0     C20326   4.687   9.851   4.812 -0.5411  0.0522  0.1737
  892MOL0     C20327   4.602   9.865   4.687 -0.7686 -0.1683  1.0706
  892MOL0     C20328   4.514   9.744   4.653  0.4134 -0.9697 -0.3429
  892MOL0     C20329   4.395   9.761   4.557  0.3139  0.8233  0.3065
  892MOL0    Cl20330   4.444   9.815   4.390 -0.1364 -0.4681  0.3136
  892MOL0     C20331   5.041  10.369   4.515 -0.0279  0.3758 -0.6239
  892MOL0     C20332   5.037  10.388   4.380  0.2487 -0.7396 -0.4265
  892MOL0     O20333   4.920  10.214   4.105  0.6157 -1.1272  0.5936
  892MOL0     C20334   4.952  10.332   3.839  0.2918  0.2567  0.3227
  892MOL0     C20335   4.990  10.376   3.712  0.1362  0.7896 -0.4954
  892MOL0     N20336   4.771  10.586   2.997  0.2988 -0.0206  0.2684
  892MOL0     N20337   4.708  10.539   2.891  0.8864 -1.1749  0.1595
  892MOL0     C20338   5.386  10.259   1.968 -0.0788 -0.6713 -0.2316
  892MOL0     C20339   5.404  10.270   1.830  0.1405  0.0201 -0.6407
  892MOL0     C20340   5.498  10.399   1.428  0.2651 -0.0170 -0.2928
  892MOL0     C20341   5.422  10.459   1.330 -0.1025  0.4327  0.4295
  892MOL0     C20342   5.453  10.420   1.196 -0.6263 -0.7391  0.7666
  892MOL0     C20343   5.548  10.323   1.157 -0.2600 -0.0355  0.1323
  892MOL0     O20344   5.578  10.309   1.027 -0.6384  0.5977 -0.9341
  892MOL0     C20345   5.639  10.193   0.981 -1.3909  0.7153  0.3807
  892MOL0     C20346   5.791  10.189   0.990 -1.1224  0.0542 -0.9375
  892MOL0     C20347   5.851  10.332   0.987  0.1304  0.4308  0.8903
  892MOL0     C20348   6.000  10.312   0.985 -0.2689 -0.0662  0.2064
  892MOL0     C20349   6.033  10.273   0.850 -0.3274 -0.6256 -0.1349
  892MOL0     C20350   6.053  10.234   0.737  0.0705 -0.2333  0.2637
  892MOL0     C20351   5.638  10.285   1.259  0.1160  0.5849 -0.0161
  892MOL0     C20352   5.614  10.329   1.388  0.2110  0.1781  0.4375
  892MOL0     H20353   5.681  10.458   1.847 -1.3268  1.2683 -0.3607
  892MOL0     H20354   5.642  10.451   2.072  0.9374  0.9776 -3.6399
  892MOL0     H20355   5.600  10.381   2.297  0.3012  2.0680 -2.4120
  892MOL0     H20356   5.483  10.506   2.255 -0.3038  0.6604  0.8247
  892MOL0     H20357   5.447  10.275   2.466 -1.8361 -0.5140 -1.4523
  892MOL0     H20358   5.504  10.438   2.496  0.6127 -0.7716 -0.8511
  892MOL0     H20359   5.286  10.533   2.422 -3.2065 -0.5371 -1.8502
  892MOL0     H20360   5.246  10.378   2.354 -0.3171 -1.0447  0.0804
  892MOL0     H20361   5.258  10.290   2.624  4.6767  2.0266  1.5025
  892MOL0     H20362   5.265  10.454   2.646  0.3262  1.1623 -2.0669
  892MOL0     H20363   5.040  10.486   2.509 -0.1790 -1.0697 -0.2803
  892MOL0     H20364   5.040  10.310   2.473 -0.2261  0.2064 -0.1906
  892MOL0     H20365   4.989  10.245   2.691 -1.8812 -0.4386  1.3459
  892MOL0     H20366   5.031  10.404   2.751 -0.5435  1.5673 -0.7544
  892MOL0     H20367   4.846  10.510   2.661  0.6088  0.0068  0.9687
  892MOL0     H20368   4.818  10.389   2.538  0.9554  0.3437 -0.2731
  892MOL0     H20369   4.731  10.244   2.736  4.9547 -1.1436  2.2787
  892MOL0     H20370   4.651  10.395   2.689  0.7557 -1.7165 -3.6743
  892MOL0     H20371   4.891  10.283   2.984  0.6157  0.2590 -1.6281
  892MOL0     H20372   4.994  10.606   3.129 -0.1483  0.8084 -0.4691
  892MOL0     H20373   4.877  10.546   3.244  2.8468 -0.4995  1.0987
  892MOL0     H20374   5.098  10.375   3.111 -2.4188 -0.4313 -1.6716
  892MOL0     H20375   4.991  10.324   3.250 -3.6288  1.6634 -1.0434
  892MOL0     H20376   5.177  10.560   3.273  1.7680 -1.9040 -0.3211
  892MOL0     H20377   5.233  10.399   3.306 -0.7217 -2.7389  1.2809
  892MOL0     H20378   4.994  10.390   3.450 -1.7358  1.2923  1.9774
  892MOL0     H20379   5.037  10.557   3.451  3.1932  1.6628 -4.5799
  892MOL0     H20380   5.321  10.385   3.738  1.4735 -1.2074  0.9846
  892MOL0     H20381   5.398  10.282   3.947  0.5146  1.5241  0.5253
  892MOL0     H20382   5.309  10.395   4.049  0.8881 -0.3306  0.4119
  892MOL0     H20383   5.285  10.220   4.057  0.2154 -0.6850 -1.6827
  892MOL0     H20384   5.134  10.093   4.265 -1.8181  1.6572 -1.7535
  892MOL0     H20385   5.137  10.044   4.484 -3.1965  0.0419 -0.3633
  892MOL0     H20386   5.059  10.333   4.852  0.9289 -1.4025 -0.1273
  892MOL0     H20387   4.916  10.314   4.738  0.2679 -2.7909 -4.4447
  892MOL0     H20388   5.025  10.125   4.933  0.7692 -0.6520 -0.3128
  892MOL0     H20389   4.867  10.218   4.918  2.2290  0.3856  0.5558
  892MOL0     H20390   4.959   9.975   4.763  0.2409  0.6425 -1.8966
  892MOL0     H20391   4.858  10.075   4.681  1.2664  2.6316  0.2471
  892MOL0     H20392   4.804   9.967   4.958  1.3311 -1.5542 -0.1343
  892MOL0     H20393   4.675  10.056   4.867  1.0705  0.2780 -0.3383
  892MOL0     H20394   4.615   9.837   4.893  0.4201 -1.0372  0.8603
  892MOL0     H20395   4.745   9.759   4.804  0.2549  0.7015 -3.0442
  892MOL0     H20396   4.538   9.953   4.696 -0.7882 -0.2034  1.2653
  892MOL0     H20397   4.660   9.889   4.597 -1.2480 -0.6149  0.6329
  892MOL0     H20398   4.479   9.731   4.755  2.0095  1.0017  0.5435
  892MOL0     H20399   4.592   9.669   4.637  2.9095  1.4944 -0.4460
  892MOL0     H20400   4.331   9.839   4.599 -1.8546 -1.4186  1.4703
  892MOL0     H20401   4.334   9.670   4.557  2.5268 -0.7401  0.9701
  892MOL0     H20402   5.009  10.444   4.586 -3.3532  0.4195 -1.9676
  892MOL0     H20403   4.991  10.479   4.343 -2.9555 -1.0669  2.2328
  892MOL0     H20404   4.847  10.324   3.866  0.8078  0.3790  2.4943
  892MOL0     H20405   4.909  10.420   3.654 -0.2453  0.1166 -0.4761
  892MOL0     H20406   5.303  10.196   1.996 -0.0906  0.5153  2.8882
  892MOL0     H20407   5.342  10.221   1.756 -0.6891  3.0189 -2.1275
  892MOL0     H20408   5.362  10.544   1.360  0.2137  1.4985 -1.7813
  892MOL0     H20409   5.392  10.459   1.115 -3.0664 -3.2062  1.2547
  892MOL0     H20410   5.598  10.103   1.028 -2.9710  1.4459  0.4634
  892MOL0     H20411   5.620  10.189   0.873  2.3024  0.5117 -0.3977
  892MOL0     H20412   5.840  10.131   0.911  1.1007 -0.1484  0.4903
  892MOL0     H20413   5.823  10.132   1.078  2.8888  1.6178 -1.1349
  892MOL0     H20414   5.811  10.379   1.077 -2.5492 -0.1053  0.0715
  892MOL0     H20415   5.822  10.391   0.899 -0.4715  0.6252  1.2079
  892MOL0     H20416   6.029  10.234   1.056  1.1236  0.7807  0.6019
  892MOL0     H20417   6.057  10.404   0.993  1.4477 -1.1488  0.9356
  892MOL0     H20418   6.050  10.207   0.634 -0.1901 -3.5056  1.0136
  892MOL0     H20419   5.726  10.222   1.246  0.3855 -0.1456  3.9481
  892MOL0     H20420   5.678  10.292   1.468 -0.1442 -2.0067 -0.2439
  893MOL0     O20421   2.779   5.047   4.646  0.3217 -0.6621 -0.2897
  893MOL0     C20422   2.824   5.095   4.543 -0.4205  0.7522  0.5074
  893MOL0     O20423   2.849   5.016   4.423  0.2070 -0.0679 -0.4387
  893MOL0     C20424   2.802   4.884   4.414 -0.2903 -0.4949 -0.6039
  893MOL0     C20425   2.690   4.831   4.476  0.6978  0.1357 -0.8772
  893MOL0     C20426   2.659   4.694   4.473 -0.1560  0.1142  0.5762
  893MOL0     C20427   2.759   4.609   4.411  0.3162 -0.1526  0.8157
  893MOL0     O20428   2.748   4.477   4.398  0.3482 -0.4833 -0.2595
  893MOL0     C20429   2.853   4.386   4.433  0.1502 -0.3692 -0.6128
  893MOL0     C20430   2.786   4.256   4.463 -0.1489  0.0703 -0.6764
  893MOL0     C20431   2.694   4.256   4.581 -0.9055  0.6658 -0.4198
  893MOL0     C20432   2.646   4.111   4.609  0.2238 -0.5261 -0.1134
  893MOL0     C20433   2.590   4.103   4.760  0.3497 -0.3342  1.3324
  893MOL0     C20434   2.513   3.956   4.775  0.2491  0.6653 -0.0543
  893MOL0     C20435   2.409   3.956   4.883 -0.4542 -0.4736 -0.0617
  893MOL0     C20436   2.372   3.820   4.920  0.5731 -0.2846 -1.0686
  893MOL0     N20437   2.265   3.780   4.826 -0.3620  0.3068 -0.5777
  893MOL0     C20438   2.129   3.761   4.849  0.7141 -0.1290 -0.1770
  893MOL0     C20439   2.084   3.698   4.738  0.1385  0.4997 -0.3052
  893MOL0     C20440   1.942   3.672   4.702 -0.3549 -0.4200 -1.6227
  893MOL0     C20441   1.848   3.633   4.814  0.7195 -0.0387  0.0314
  893MOL0     C20442   1.886   3.494   4.869  1.2427 -0.5559  0.1751
  893MOL0     C20443   1.840   3.368   4.792 -0.1738  0.3048  0.5658
  893MOL0     O20444   1.932   3.261   4.816 -0.2348  0.6961 -0.5295
  893MOL0     C20445   2.021   3.228   4.719  0.4605  0.0137 -0.0619
  893MOL0     C20446   2.021   3.094   4.688 -0.4619  0.3239 -0.1397
  893MOL0     C20447   2.112   3.034   4.587  0.6857 -0.9203 -1.0405
  893MOL0     C20448   2.111   2.887   4.557  0.0418  0.8610  0.7210
  893MOL0     C20449   2.204   3.128   4.523  0.6665  1.6291  0.2776
  893MOL0     C20450   2.303   3.081   4.418 -0.3206  0.7888 -0.3780
  893MOL0     O20451   2.396   3.181   4.378 -0.1556 -0.0835  0.1200
  893MOL0     C20452   2.474   3.152   4.267 -1.0864  0.9349 -0.7846
  893MOL0     C20453   2.607   3.117   4.286 -0.6811 -0.4138 -0.3962
  893MOL0     C20454   2.701   3.121   4.174 -0.4147  0.4340 -0.6290
  893MOL0     C20455   2.644   3.124   4.050 -0.0563 -0.6905  0.5420
  893MOL0     O20456   2.718   3.115   3.932 -0.3212 -0.1000  0.2939
  893MOL0     C20457   2.794   2.988   3.926 -0.3344 -0.4915 -0.3418
  893MOL0     C20458   2.865   2.988   3.790 -1.1886 -0.1262  0.1642
  893MOL0     C20459   3.002   3.060   3.787  0.1504 -0.2529 -0.4513
  893MOL0     C20460   3.041   3.110   3.648  0.5871  0.7469 -1.2409
  893MOL0     C20461   3.080   2.996   3.558  1.2029 -0.2781 -0.8191
  893MOL0     C20462   3.101   3.072   3.423 -0.6303 -0.4414  0.2349
  893MOL0     C20463   3.147   2.983   3.311 -0.1856  0.2759  0.4057
  893MOL0     C20464   3.211   3.067   3.200  0.3774 -0.4711 -0.5041
  893MOL0    Cl20465   3.246   2.959   3.067  0.2150  0.2829  0.5571
  893MOL0     C20466   2.507   3.145   4.030 -0.4090  0.5949 -0.1962
  893MOL0     C20467   2.423   3.162   4.141 -1.3156 -0.1454  0.4857
  893MOL0     O20468   2.309   2.966   4.379 -0.3917  0.4959  0.7677
  893MOL0     C20469   2.186   3.263   4.551  0.3979 -0.2329  1.0591
  893MOL0     C20470   2.097   3.313   4.651  0.5926 -0.3420 -1.0656
  893MOL0     N20471   2.186   3.676   4.654  0.3099 -0.5050  0.9450
  893MOL0     N20472   2.297   3.723   4.706 -0.6853  0.6035 -0.0615
  893MOL0     C20473   2.860   4.659   4.336 -0.9094 -0.0425  0.5467
  893MOL0     C20474   2.881   4.793   4.347  0.0254 -0.0899  0.8213
  893MOL0     C20475   2.881   5.235   4.539  0.3638  1.4219  0.2531
  893MOL0     C20476   2.898   5.312   4.421 -0.2154  0.6162  0.0571
  893MOL0     C20477   2.919   5.449   4.427 -0.5036 -0.1655  1.3121
  893MOL0     C20478   2.937   5.510   4.552  0.0353 -0.6618 -0.6551
  893MOL0     O20479   2.950   5.646   4.557 -0.4358  0.0775  0.1173
  893MOL0     C20480   2.928   5.727   4.676 -1.2692 -0.3361  0.2462
  893MOL0     C20481   3.063   5.767   4.724  0.4710  0.1075  1.2793
  893MOL0     C20482   3.052   5.824   4.858 -1.0680 -0.2186 -0.0320
  893MOL0     C20483   3.180   5.882   4.919 -0.2148 -0.8578 -1.2461
  893MOL0     C20484   3.241   5.983   4.831 -0.8100  0.0391  0.3670
  893MOL0     C20485   3.278   6.069   4.750  0.0273 -0.0446 -0.7681
  893MOL0     C20486   2.938   5.433   4.670 -0.1730  0.2680  0.0836
  893MOL0     C20487   2.912   5.298   4.663  0.4145  0.8926 -0.0105
  893MOL0     H20488   2.624   4.892   4.537  0.6924 -1.6609  1.0084
  893MOL0     H20489   2.563   4.656   4.507  0.0625  0.3122  1.4368
  893MOL0     H20490   2.922   4.388   4.348 -1.3781  2.4439 -1.9441
  893MOL0     H20491   2.911   4.419   4.519  0.5860  0.1314 -1.0940
  893MOL0     H20492   2.735   4.217   4.374 -4.0149  3.6643 -0.3654
  893MOL0     H20493   2.873   4.196   4.490  2.1368  3.6740  0.6845
  893MOL0     H20494   2.743   4.298   4.669  2.4020  0.0082 -1.8005
  893MOL0     H20495   2.611   4.318   4.546 -0.1310  0.3805 -2.9717
  893MOL0     H20496   2.567   4.078   4.541  0.7253 -2.2802  0.0942
  893MOL0     H20497   2.732   4.042   4.604  1.5771  1.1884 -3.4083
  893MOL0     H20498   2.672   4.107   4.832  1.9768  0.9711 -0.4906
  893MOL0     H20499   2.526   4.191   4.776 -0.8865 -0.2054 -2.9742
  893MOL0     H20500   2.468   3.931   4.678 -0.6024  0.3299  0.4105
  893MOL0     H20501   2.587   3.879   4.799 -2.8206 -2.0666  1.5668
  893MOL0     H20502   2.450   4.009   4.970 -1.7396  0.3166  0.0838
  893MOL0     H20503   2.320   4.011   4.853 -1.6341 -1.2905  1.7781
  893MOL0     H20504   2.324   3.842   5.016  2.1997 -0.2754 -0.2233
  893MOL0     H20505   2.444   3.739   4.931 -0.0362 -0.7215 -0.2040
  893MOL0     H20506   2.065   3.802   4.927 -1.2527  0.8401 -2.1999
  893MOL0     H20507   1.897   3.762   4.659 -3.8636 -1.2863 -0.1324
  893MOL0     H20508   1.952   3.586   4.635  1.9540  0.8682 -3.0781
  893MOL0     H20509   1.743   3.628   4.784  0.7811 -0.8641 -0.0595
  893MOL0     H20510   1.847   3.705   4.897 -1.4637  1.8837 -1.5101
  893MOL0     H20511   1.852   3.495   4.973  3.7241  1.6676  1.0886
  893MOL0     H20512   1.994   3.497   4.886  1.1928  0.4518  0.3670
  893MOL0     H20513   1.818   3.376   4.685 -2.1524 -0.7413  0.8393
  893MOL0     H20514   1.747   3.335   4.838  1.8480 -1.5480  3.6392
  893MOL0     H20515   1.979   3.020   4.756  1.4149 -0.5118  0.1857
  893MOL0     H20516   2.097   2.859   4.452 -0.9625 -3.5506  1.8337
  893MOL0     H20517   2.205   2.841   4.588 -0.2441 -0.7774 -0.6830
  893MOL0     H20518   2.035   2.823   4.603 -0.5027 -2.0398 -3.6132
  893MOL0     H20519   2.646   3.117   4.388 -1.3486 -1.9706 -0.1097
  893MOL0     H20520   2.807   3.115   4.196 -0.1009 -3.2475 -2.4282
  893MOL0     H20521   2.868   2.974   4.006  2.0021  0.1277 -2.2897
  893MOL0     H20522   2.728   2.901   3.936 -2.0943  0.6810 -1.1667
  893MOL0     H20523   2.881   2.888   3.750  2.4085  0.5196 -0.3822
  893MOL0     H20524   2.800   3.045   3.722 -0.1204  0.5682 -0.3125
  893MOL0     H20525   3.087   3.003   3.825  0.4084  0.8002  0.6124
  893MOL0     H20526   2.990   3.152   3.846  0.6242  0.0958 -0.8927
  893MOL0     H20527   2.960   3.171   3.610 -0.9971  0.6666  1.7055
  893MOL0     H20528   3.125   3.179   3.662  1.1138 -0.4080  2.5567
  893MOL0     H20529   2.996   2.926   3.554  1.9425 -1.1164 -3.6899
  893MOL0     H20530   3.166   2.943   3.600  0.8712  1.2269  2.0390
  893MOL0     H20531   3.007   3.119   3.394 -0.4598  0.2996  0.8379
  893MOL0     H20532   3.163   3.161   3.435 -1.3255  0.5566 -2.7703
  893MOL0     H20533   3.068   2.930   3.258  1.4112 -5.2516  2.8872
  893MOL0     H20534   3.213   2.902   3.344 -1.4684 -1.4888 -1.1597
  893MOL0     H20535   3.301   3.118   3.236  0.9137 -0.1469 -2.2316
  893MOL0     H20536   3.152   3.150   3.161  0.1423  0.5722  1.8840
  893MOL0     H20537   2.451   3.153   3.937  1.3946 -1.4616 -1.5452
  893MOL0     H20538   2.319   3.187   4.120 -0.9842 -0.6058 -1.9169
  893MOL0     H20539   2.251   3.329   4.495 -2.2280 -0.5985 -2.8442
  893MOL0     H20540   2.106   3.420   4.666 -1.4266  0.1350 -2.7403
  893MOL0     H20541   2.938   4.599   4.290 -0.5140  0.0090  1.1434
  893MOL0     H20542   2.980   4.825   4.316 -0.6054 -0.2937 -1.5644
  893MOL0     H20543   2.880   5.271   4.322 -1.3579 -0.4901  0.6879
  893MOL0     H20544   2.921   5.513   4.339  1.6046  3.1781  3.5517
  893MOL0     H20545   2.890   5.824   4.644  0.0082 -0.2576 -1.1801
  893MOL0     H20546   2.863   5.674   4.746 -0.0172 -1.4551  0.6122
  893MOL0     H20547   3.096   5.835   4.645  0.1855 -0.2350  0.8651
  893MOL0     H20548   3.128   5.679   4.720 -0.0221 -0.2358 -1.5072
  893MOL0     H20549   3.023   5.738   4.920 -0.4652  0.6381  1.4970
  893MOL0     H20550   2.969   5.894   4.846  0.4725  1.6088 -0.4048
  893MOL0     H20551   3.256   5.807   4.944  2.9099  2.2957 -0.5161
  893MOL0     H20552   3.157   5.932   5.013  1.0672 -0.4360 -1.1289
  893MOL0     H20553   3.298   6.139   4.672  0.9967 -0.7748 -1.2010
  893MOL0     H20554   2.948   5.472   4.770  3.2126 -0.3087  0.0894
  893MOL0     H20555   2.912   5.244   4.757 -1.9816  0.8229 -0.0014
  894MOL0     O20556   6.462   8.237   0.246 -0.4065  0.5465 -0.2148
  894MOL0     C20557   6.511   8.214   0.140 -0.0808 -0.5177 -0.2048
  894MOL0     O20558   6.628   8.278   0.094  0.2749 -0.1504 -0.9422
  894MOL0     C20559   6.687   8.377   0.172  0.0790  1.2764 -0.3531
  894MOL0     C20560   6.823   8.388   0.208 -0.2642  0.2161  0.0682
  894MOL0     C20561   6.868   8.494   0.289  0.3625 -0.3956  0.4032
  894MOL0     C20562   6.775   8.600   0.325  0.5452  0.0791  0.9118
  894MOL0     O20563   6.812   8.710   0.401 -0.8464 -0.2317  0.9089
  894MOL0     C20564   6.898   8.800   0.331  0.0624 -1.0400  0.2510
  894MOL0     C20565   6.921   8.912   0.432 -0.5031 -0.5988  0.3673
  894MOL0     C20566   6.984   9.037   0.371 -1.2119 -0.2924 -0.4720
  894MOL0     C20567   7.092   9.082   0.476  0.7541 -0.2238 -0.0276
  894MOL0     C20568   7.220   8.997   0.479  0.1450  0.4325  0.0714
  894MOL0     C20569   7.310   9.026   0.598  0.3078  0.6465 -0.5667
  894MOL0     C20570   7.366   9.166   0.586 -0.1410  0.1836  0.4143
  894MOL0     C20571   7.486   9.159   0.492  0.4287  0.7599  0.7097
  894MOL0     N20572   7.534   9.295   0.473  0.1885  0.0888 -1.3050
  894MOL0     C20573   7.495   9.372   0.366  0.3213 -0.5980  0.6566
  894MOL0     C20574   7.560   9.491   0.370 -0.4175  0.5842  0.3507
  894MOL0     C20575   7.562   9.598   0.261 -0.3082  0.3706  0.3444
  894MOL0     C20576   7.452   9.702   0.277 -0.6376 -0.2363 -0.3298
  894MOL0     C20577   7.464   9.792   0.152 -0.4383 -0.2334  0.5232
  894MOL0     C20578   7.589   9.875   0.128 -0.0394  0.4008 -0.5400
  894MOL0     O20579   7.594   9.927  -0.005  0.2316 -0.0804 -0.1605
  894MOL0     C20580   7.635   9.842  -0.110 -1.3244 -1.0812  0.1431
  894MOL0     C20581   7.637   9.897  -0.234 -0.0250 -0.4443 -0.5229
  894MOL0     C20582   7.682   9.828  -0.350  0.1309  0.0092  0.2501
  894MOL0     C20583   7.688   9.912  -0.479  0.0210  0.6667 -0.5787
  894MOL0     C20584   7.721   9.691  -0.349 -0.0811 -0.1307 -0.6937
  894MOL0     C20585   7.776   9.611  -0.461 -0.7100 -0.3558  0.3225
  894MOL0     O20586   7.868   9.522  -0.434 -0.3717  0.4192 -0.3769
  894MOL0     C20587   7.939   9.434  -0.506 -1.0129  1.0604  0.1590
  894MOL0     C20588   7.962   9.430  -0.639  0.6643 -0.1492  0.1200
  894MOL0     C20589   8.043   9.344  -0.716  0.4959 -0.4512  0.2838
  894MOL0     C20590   8.104   9.235  -0.647  0.9033  0.0886 -0.0681
  894MOL0     O20591   8.171   9.132  -0.706 -0.0182 -0.3879  0.1352
  894MOL0     C20592   8.263   9.180  -0.806 -0.0190 -0.4798  0.1173
  894MOL0     C20593   8.246   9.080  -0.919  0.1838 -0.4369  0.4545
  894MOL0     C20594   8.289   9.137  -1.052 -0.9786  1.1775 -0.0710
  894MOL0     C20595   8.281   9.035  -1.171 -0.0295  0.2493 -0.0849
  894MOL0     C20596   8.358   9.077  -1.298  0.7590  0.3910 -0.3828
  894MOL0     C20597   8.348   8.975  -1.410  0.1320 -0.9681  0.2512
  894MOL0     C20598   8.464   8.971  -1.522  0.1038 -1.3345 -1.3086
  894MOL0     C20599   8.419   8.875  -1.630  0.9437 -0.1005  0.0544
  894MOL0    Cl20600   8.283   8.934  -1.719 -0.0064 -0.0169  0.1925
  894MOL0     C20601   8.076   9.225  -0.508 -0.5167 -0.0508  0.3273
  894MOL0     C20602   7.998   9.326  -0.443  0.9577  0.1832  0.1323
  894MOL0     O20603   7.733   9.628  -0.576  0.0793 -0.6510  0.2545
  894MOL0     C20604   7.706   9.628  -0.222 -0.1054 -0.4445  0.3174
  894MOL0     C20605   7.671   9.707  -0.103 -0.3315 -0.1161 -0.5040
  894MOL0     N20606   7.626   9.486   0.491 -0.3069  0.0428 -0.9847
  894MOL0     N20607   7.605   9.373   0.560 -0.7812  0.7294  0.1741
  894MOL0     C20608   6.637   8.590   0.275 -1.3833 -0.8665  0.2549
  894MOL0     C20609   6.607   8.485   0.190  0.8791  0.2586 -0.1666
  894MOL0     C20610   6.451   8.116   0.050  0.7234 -0.6478 -0.3069
  894MOL0     C20611   6.513   8.063  -0.052  0.9159 -0.0337  0.2119
  894MOL0     C20612   6.453   7.963  -0.130  0.5228 -0.9194  0.7066
  894MOL0     C20613   6.318   7.928  -0.109 -0.2535 -0.1710 -0.4028
  894MOL0     O20614   6.249   7.831  -0.179  0.6562 -0.6011  0.1086
  894MOL0     C20615   6.308   7.750  -0.285 -0.1724 -0.0209 -0.9513
  894MOL0     C20616   6.296   7.601  -0.240  0.0253 -0.3517  0.2121
  894MOL0     C20617   6.263   7.498  -0.345  0.3839 -0.1624 -0.5176
  894MOL0     C20618   6.129   7.515  -0.413 -0.1086 -0.3959 -0.1798
  894MOL0     C20619   6.088   7.401  -0.495 -0.3418 -0.5815 -0.0087
  894MOL0     C20620   6.052   7.317  -0.572  0.0936  0.2681  0.4599
  894MOL0     C20621   6.241   7.989  -0.007 -0.6458  0.4487 -0.2612
  894MOL0     C20622   6.312   8.084   0.072  0.1531  0.0857 -0.3448
  894MOL0     H20623   6.891   8.309   0.177 -2.1903 -0.6940 -2.1132
  894MOL0     H20624   6.968   8.496   0.331  0.1739 -0.4575  0.8524
  894MOL0     H20625   6.991   8.750   0.302  1.7636  1.8557  0.2909
  894MOL0     H20626   6.847   8.846   0.247 -0.8388  1.1831  1.9003
  894MOL0     H20627   6.820   8.932   0.467 -0.6195 -0.1205 -0.2214
  894MOL0     H20628   6.979   8.877   0.518  0.6788  3.7040  1.5359
  894MOL0     H20629   7.029   8.998   0.279 -0.5221 -2.8663  0.8748
  894MOL0     H20630   6.912   9.119   0.363 -4.1420 -2.7050 -1.0283
  894MOL0     H20631   7.124   9.178   0.434 -0.5348  0.6262  0.8649
  894MOL0     H20632   7.051   9.105   0.575  0.5702 -0.4165 -0.0578
  894MOL0     H20633   7.187   8.893   0.476  3.8372 -0.8922 -2.6562
  894MOL0     H20634   7.276   9.008   0.386  0.7244 -3.0181 -0.1283
  894MOL0     H20635   7.253   9.015   0.691  1.3385  0.1401  0.0246
  894MOL0     H20636   7.386   8.948   0.609 -0.5907 -0.1602  0.0248
  894MOL0     H20637   7.289   9.238   0.559  1.2511  1.3400 -0.6466
  894MOL0     H20638   7.398   9.200   0.685  0.2895 -0.7210  0.6029
  894MOL0     H20639   7.459   9.109   0.398  1.5257  0.4105  0.5777
  894MOL0     H20640   7.567   9.110   0.545 -1.9066 -2.0213  1.9886
  894MOL0     H20641   7.431   9.350   0.281 -0.6084  1.5364  0.7539
  894MOL0     H20642   7.654   9.658   0.263  1.9035 -2.3951 -3.3528
  894MOL0     H20643   7.542   9.547   0.166 -1.9402  1.4023  0.0927
  894MOL0     H20644   7.472   9.754   0.371 -0.0238  0.7277 -0.9630
  894MOL0     H20645   7.350   9.662   0.279 -0.7425  0.0471  0.1053
  894MOL0     H20646   7.378   9.859   0.155 -2.8779 -3.1229  0.1904
  894MOL0     H20647   7.438   9.731   0.065  0.8863  2.6778 -2.1168
  894MOL0     H20648   7.688   9.830   0.140  1.3539  3.6076  1.4355
  894MOL0     H20649   7.591   9.960   0.198  0.0044  1.5622 -1.9177
  894MOL0     H20650   7.597   9.998  -0.241 -2.5628 -1.2162  1.4005
  894MOL0     H20651   7.671  10.019  -0.463 -0.9275  0.5826 -0.9504
  894MOL0     H20652   7.780   9.880  -0.529 -1.9462 -1.2450 -3.2422
  894MOL0     H20653   7.621   9.867  -0.553  2.5678 -1.9281 -1.5155
  894MOL0     H20654   7.905   9.506  -0.691  2.7071  2.8589  1.9051
  894MOL0     H20655   8.038   9.364  -0.823  1.4297 -0.7706  0.1719
  894MOL0     H20656   8.243   9.287  -0.816  0.5194 -0.4664 -0.9535
  894MOL0     H20657   8.364   9.182  -0.765 -0.3761  1.0851  0.9938
  894MOL0     H20658   8.296   8.984  -0.901  0.9132 -0.4285 -1.2744
  894MOL0     H20659   8.138   9.065  -0.924 -0.2140  2.2028 -0.6653
  894MOL0     H20660   8.395   9.163  -1.051 -1.3665  3.1591 -2.2741
  894MOL0     H20661   8.234   9.230  -1.065 -0.9875  1.8421  3.5407
  894MOL0     H20662   8.335   8.948  -1.133  2.7352  2.6787  1.9325
  894MOL0     H20663   8.175   9.018  -1.191 -0.0741  0.0030  0.3532
  894MOL0     H20664   8.465   9.090  -1.282  0.1594  0.8031  5.6854
  894MOL0     H20665   8.320   9.178  -1.320  0.5334 -0.0136 -1.9934
  894MOL0     H20666   8.310   8.879  -1.375  0.1765 -0.1616  2.6427
  894MOL0     H20667   8.259   9.010  -1.464  0.0596 -4.1390 -1.9338
  894MOL0     H20668   8.554   8.934  -1.472 -0.1210 -1.3489 -0.9183
  894MOL0     H20669   8.506   9.057  -1.575  0.3627 -1.7870 -1.8528
  894MOL0     H20670   8.387   8.778  -1.592 -1.3218  0.9446  0.9530
  894MOL0     H20671   8.506   8.867  -1.696 -0.3612  0.3465 -1.7627
  894MOL0     H20672   8.124   9.145  -0.453 -1.8527  0.5212  2.4305
  894MOL0     H20673   7.988   9.331  -0.335  0.7145  4.0308  0.0737
  894MOL0     H20674   7.717   9.521  -0.208 -0.6362 -0.8043 -1.6367
  894MOL0     H20675   7.680   9.662  -0.004 -0.4773  1.5501  0.3033
  894MOL0     H20676   6.564   8.670   0.284 -0.8570 -0.4057  0.5039
  894MOL0     H20677   6.508   8.483   0.145 -0.5889  0.9218  2.7866
  894MOL0     H20678   6.616   8.083  -0.079  1.5537 -3.6531 -0.6025
  894MOL0     H20679   6.516   7.931  -0.212 -0.0163 -1.0009  0.3275
  894MOL0     H20680   6.245   7.753  -0.374 -0.7728  0.3274 -0.5239
  894MOL0     H20681   6.410   7.782  -0.308  0.3528  0.6907  1.9899
  894MOL0     H20682   6.225   7.588  -0.158  0.3238  1.4115  0.7895
  894MOL0     H20683   6.395   7.570  -0.205  0.5671  0.6387 -0.4168
  894MOL0     H20684   6.262   7.396  -0.306 -0.5409  0.8408  2.3177
  894MOL0     H20685   6.345   7.492  -0.417 -0.3165 -1.2862 -1.2606
  894MOL0     H20686   6.144   7.605  -0.473  2.7973 -1.2242 -0.8619
  894MOL0     H20687   6.061   7.541  -0.331  2.1532  0.1514  1.6127
  894MOL0     H20688   6.017   7.237  -0.632 -0.3926 -0.0233  1.1160
  894MOL0     H20689   6.139   7.952  -0.001 -0.7683  0.5745 -1.4618
  894MOL0     H20690   6.257   8.131   0.153  2.7250 -0.5103  1.8983
  895MOL0     O20691   3.260   0.277   3.474  0.3480  0.0436 -0.1372
  895MOL0     C20692   3.251   0.273   3.602  0.8901  0.1131  0.7068
  895MOL0     O20693   3.198   0.374   3.681  0.1029  0.1218 -0.3392
  895MOL0     C20694   3.123   0.467   3.616 -1.3671  0.9796  0.7194
  895MOL0     C20695   2.985   0.452   3.616 -0.1165  0.0193 -0.2571
  895MOL0     C20696   2.904   0.556   3.580  0.6231 -0.5202  1.5271
  895MOL0     C20697   2.960   0.671   3.516  0.7135 -0.0255  0.4646
  895MOL0     O20698   2.867   0.763   3.457 -0.0204 -0.3180  0.6309
  895MOL0     C20699   2.924   0.862   3.377  0.7309 -0.3281 -0.3435
  895MOL0     C20700   2.810   0.945   3.324  0.0378 -0.4003  0.3580
  895MOL0     C20701   2.860   1.062   3.242 -0.0492 -0.7952  0.3745
  895MOL0     C20702   2.747   1.163   3.214 -0.0327  0.3565 -0.8510
  895MOL0     C20703   2.787   1.256   3.103 -0.2112 -0.8806 -0.3708
  895MOL0     C20704   2.886   1.375   3.155 -0.8195  0.7683  0.2781
  895MOL0     C20705   2.862   1.493   3.054 -0.7490 -0.0830 -0.2730
  895MOL0     C20706   2.911   1.478   2.910  0.5551 -0.1622  0.2153
  895MOL0     N20707   3.053   1.515   2.898  0.6632  0.2467  0.1047
  895MOL0     C20708   3.098   1.640   2.856 -0.0234 -0.2421  0.0662
  895MOL0     C20709   3.232   1.641   2.883 -1.2671 -0.3335  0.4390
  895MOL0     C20710   3.331   1.752   2.869  0.2401 -0.6027  0.8039
  895MOL0     C20711   3.396   1.747   2.732  0.1604  0.3389 -0.0264
  895MOL0     C20712   3.477   1.866   2.685  0.5014  0.6988 -0.1131
  895MOL0     C20713   3.538   1.846   2.542 -0.4688 -0.9259 -0.0592
  895MOL0     O20714   3.613   1.955   2.511 -0.3634 -0.4194  0.1618
  895MOL0     C20715   3.748   1.941   2.512  1.0399  0.1381 -0.8165
  895MOL0     C20716   3.827   1.876   2.418  0.2141 -0.4356  0.8388
  895MOL0     C20717   3.962   1.854   2.440  0.6588  1.4057 -0.7334
  895MOL0     C20718   4.036   1.785   2.335  0.1053  1.2781  0.1026
  895MOL0     C20719   4.014   1.895   2.566 -0.2980  0.3083 -0.6135
  895MOL0     C20720   4.162   1.870   2.601  0.2564  0.3643  0.3277
  895MOL0     O20721   4.210   1.963   2.686 -0.0527 -0.8245  0.0428
  895MOL0     C20722   4.338   1.963   2.723  0.0083  0.6843 -0.5334
  895MOL0     C20723   4.442   1.957   2.637  0.1119  0.0811 -0.7046
  895MOL0     C20724   4.579   1.963   2.679  0.8092 -0.6158  0.2915
  895MOL0     C20725   4.608   1.985   2.815 -0.2140  0.0518  0.9126
  895MOL0     O20726   4.742   2.004   2.839 -1.0896 -0.3094 -0.1059
  895MOL0     C20727   4.780   2.028   2.978 -1.0417  0.4665 -0.3825
  895MOL0     C20728   4.929   2.050   2.994  0.0052 -0.6699  0.6736
  895MOL0     C20729   4.974   2.041   3.141  0.7154  0.4780 -0.2149
  895MOL0     C20730   5.095   2.121   3.173  0.7415 -0.0624 -0.5948
  895MOL0     C20731   5.125   2.141   3.323  0.1369  1.1816 -0.5681
  895MOL0     C20732   5.221   2.238   3.372  1.0381  0.4645  0.2499
  895MOL0     C20733   5.221   2.260   3.520  0.4669  0.6160  0.1783
  895MOL0     C20734   5.341   2.337   3.566  0.7392  0.0081  0.1516
  895MOL0    Cl20735   5.495   2.247   3.552 -0.5122  0.4692 -0.0413
  895MOL0     C20736   4.495   1.990   2.906 -0.5992  0.4312  0.7938
  895MOL0     C20737   4.363   1.974   2.861  1.2616 -0.6429  0.3431
  895MOL0     O20738   4.224   1.774   2.550  0.7548  0.4123 -0.1791
  895MOL0     C20739   3.939   1.968   2.663 -0.6710 -0.3299  0.9320
  895MOL0     C20740   3.809   1.982   2.631  0.2499  0.0501 -0.3722
  895MOL0     N20741   3.259   1.516   2.938  0.4680 -0.1371 -0.7559
  895MOL0     N20742   3.151   1.441   2.959 -0.0549  0.2027  0.3624
  895MOL0     C20743   3.099   0.680   3.509 -0.8983 -0.3615 -0.1904
  895MOL0     C20744   3.183   0.582   3.559  0.4358  0.3513  0.4387
  895MOL0     C20745   3.277   0.139   3.672 -0.3075  0.6498  1.2114
  895MOL0     C20746   3.366   0.054   3.618 -0.2681  0.5331 -0.1994
  895MOL0     C20747   3.405  -0.064   3.690  0.4008 -0.6350  0.0675
  895MOL0     C20748   3.334  -0.100   3.808  0.2058 -0.3569  0.4455
  895MOL0     O20749   3.375  -0.213   3.874  0.9696 -0.4242 -0.0621
  895MOL0     C20750   3.303  -0.262   3.994  0.8607 -0.2104 -0.2596
  895MOL0     C20751   3.349  -0.398   4.034  0.4697 -0.1868  0.1228
  895MOL0     C20752   3.277  -0.488   3.931  0.4148 -0.0123  0.3293
  895MOL0     C20753   3.352  -0.612   3.898 -0.1850  0.4585 -0.1885
  895MOL0     C20754   3.290  -0.695   3.795 -0.5732  1.0904  0.1502
  895MOL0     C20755   3.245  -0.767   3.711 -0.2430  0.1206 -0.1068
  895MOL0     C20756   3.252  -0.006   3.856  0.7607 -0.0708 -0.6623
  895MOL0     C20757   3.227   0.118   3.793 -0.2848  0.2562  0.0476
  895MOL0     H20758   2.932   0.367   3.657 -0.4247  0.9099  1.2698
  895MOL0     H20759   2.798   0.546   3.603  0.5550 -0.3133  1.3009
  895MOL0     H20760   2.988   0.920   3.444  3.1324 -2.5448 -0.5523
  895MOL0     H20761   2.974   0.820   3.289  0.0253  1.8184 -1.8679
  895MOL0     H20762   2.747   0.879   3.263 -0.9216  1.0320 -0.2514
  895MOL0     H20763   2.744   0.977   3.406 -0.2930  1.3380 -0.5452
  895MOL0     H20764   2.954   1.110   3.271 -0.0557 -0.3704 -0.2845
  895MOL0     H20765   2.883   1.022   3.143  1.8080  1.2260 -0.0978
  895MOL0     H20766   2.667   1.097   3.179 -1.5747  2.0179 -0.6136
  895MOL0     H20767   2.703   1.203   3.306  0.1146 -1.9841  0.3066
  895MOL0     H20768   2.830   1.205   3.017 -1.0565 -1.2785 -0.5768
  895MOL0     H20769   2.687   1.284   3.068 -0.4617 -1.3534 -0.0566
  895MOL0     H20770   2.866   1.408   3.258 -1.7257  0.7655  0.1118
  895MOL0     H20771   2.984   1.328   3.158 -1.9705 -1.7936  3.1147
  895MOL0     H20772   2.757   1.520   3.064 -0.1798  1.9720  0.9135
  895MOL0     H20773   2.919   1.575   3.100  0.2789 -0.4311 -0.8916
  895MOL0     H20774   2.855   1.553   2.854  0.3431 -0.1312  0.4642
  895MOL0     H20775   2.889   1.386   2.856  0.7941  0.1074 -0.3475
  895MOL0     H20776   3.034   1.720   2.819 -2.2184 -0.6355  2.6550
  895MOL0     H20777   3.280   1.847   2.890  3.5150  1.9269 -1.5443
  895MOL0     H20778   3.410   1.743   2.944  1.1947 -3.0716 -0.4014
  895MOL0     H20779   3.310   1.747   2.663 -0.0157  1.6578  0.1614
  895MOL0     H20780   3.456   1.656   2.729  1.3134  1.0762  0.1195
  895MOL0     H20781   3.565   1.877   2.749 -1.2255  3.9387  1.9588
  895MOL0     H20782   3.416   1.955   2.704  1.4890  1.0899  1.3577
  895MOL0     H20783   3.458   1.843   2.468  2.9065 -0.2272 -4.1535
  895MOL0     H20784   3.599   1.755   2.544  0.5433 -0.2757 -0.2139
  895MOL0     H20785   3.780   1.847   2.325  3.6973 -3.6464 -0.1753
  895MOL0     H20786   3.981   1.802   2.242 -0.9409  0.7968  0.6147
  895MOL0     H20787   4.137   1.821   2.315  1.9418  0.1720  5.6028
  895MOL0     H20788   4.053   1.680   2.363  1.1558  1.3149 -0.3281
  895MOL0     H20789   4.411   1.971   2.534  2.5418  0.7569 -1.4133
  895MOL0     H20790   4.657   1.934   2.610 -1.7254 -1.8091 -2.2526
  895MOL0     H20791   4.736   2.117   3.025  0.6967  0.5506  1.2091
  895MOL0     H20792   4.734   1.942   3.028 -0.9308 -1.0210 -2.6936
  895MOL0     H20793   4.979   1.978   2.930  3.9748  1.7779  0.6681
  895MOL0     H20794   4.962   2.144   2.949  1.7512 -0.4478  2.2789
  895MOL0     H20795   4.999   1.936   3.161  0.8910  0.4203 -0.7285
  895MOL0     H20796   4.899   2.078   3.211 -2.5346 -3.7955 -1.0445
  895MOL0     H20797   5.179   2.092   3.109  0.8133  0.3520 -0.6931
  895MOL0     H20798   5.062   2.222   3.146  0.0717 -0.5356 -1.6383
  895MOL0     H20799   5.140   2.042   3.366  0.5500  1.7981  0.7625
  895MOL0     H20800   5.030   2.184   3.354 -0.0379 -0.5117  1.4648
  895MOL0     H20801   5.310   2.182   3.341 -1.1023 -1.8913 -2.1445
  895MOL0     H20802   5.204   2.323   3.305  2.9417  0.1523 -0.6883
  895MOL0     H20803   5.228   2.169   3.581  2.1155  1.0034  0.5990
  895MOL0     H20804   5.125   2.308   3.544  0.0813  1.3371 -2.4575
  895MOL0     H20805   5.322   2.372   3.668  2.8967 -3.2528  1.8499
  895MOL0     H20806   5.355   2.418   3.494  2.6574 -0.3427  0.0833
  895MOL0     H20807   4.510   2.011   3.011 -1.8772 -0.9767  1.2889
  895MOL0     H20808   4.276   1.983   2.925 -0.7015 -0.1907 -2.2124
  895MOL0     H20809   3.988   2.012   2.749  2.3178  0.4034 -0.9822
  895MOL0     H20810   3.737   2.026   2.699 -1.7294  0.3209 -2.5203
  895MOL0     H20811   3.138   0.768   3.460 -2.3296  1.3268  1.5258
  895MOL0     H20812   3.290   0.598   3.572  0.3966 -0.7112  2.6307
  895MOL0     H20813   3.410   0.077   3.522 -1.7730  2.5088 -0.4479
  895MOL0     H20814   3.474  -0.134   3.645  1.0986 -1.1704  1.8776
  895MOL0     H20815   3.312  -0.191   4.078  0.7796 -0.6950  0.1610
  895MOL0     H20816   3.196  -0.254   3.972  0.7305  1.8696  0.8783
  895MOL0     H20817   3.325  -0.418   4.138 -2.4716  2.6599  0.1512
  895MOL0     H20818   3.458  -0.396   4.025  0.6729 -1.8789  1.7292
  895MOL0     H20819   3.266  -0.443   3.832 -3.2808 -1.8297 -0.2684
  895MOL0     H20820   3.177  -0.517   3.963 -1.5180  3.1061 -2.3039
  895MOL0     H20821   3.356  -0.672   3.990 -1.0903 -0.5118 -0.7476
  895MOL0     H20822   3.456  -0.593   3.873  0.3131 -1.8066 -0.0678
  895MOL0     H20823   3.189  -0.825   3.640  1.9919 -3.0288  0.5045
  895MOL0     H20824   3.212  -0.032   3.953 -0.1862 -0.6209 -1.1820
  895MOL0     H20825   3.159   0.190   3.836 -0.4090  0.7990 -1.0217
  896MOL0     O20826   4.783   2.933   5.782 -0.4579  0.6573  0.6115
  896MOL0     C20827   4.825   2.944   5.894  0.6014  0.8861 -0.6480
  896MOL0     O20828   4.949   2.955   5.935  0.3229 -0.3250  0.3593
  896MOL0     C20829   5.064   2.969   5.860 -0.4761  0.0224  1.1943
  896MOL0     C20830   5.064   2.961   5.718  0.6040  0.6205  0.3723
  896MOL0     C20831   5.184   2.962   5.651 -0.3824 -0.7232 -0.1168
  896MOL0     C20832   5.308   2.971   5.724 -0.4343  0.0165 -1.4275
  896MOL0     O20833   5.430   2.964   5.659  0.0762 -0.9452 -0.8493
  896MOL0     C20834   5.559   2.967   5.719 -0.0572  0.8008  0.7515
  896MOL0     C20835   5.670   3.044   5.639  0.8205  0.1985  0.4248
  896MOL0     C20836   5.712   2.954   5.513 -0.0943  0.4802 -0.4699
  896MOL0     C20837   5.828   3.029   5.448 -1.1691  0.5464 -0.0952
  896MOL0     C20838   5.882   2.946   5.331 -0.2831 -0.5883 -0.9407
  896MOL0     C20839   5.979   3.031   5.231  0.1790 -0.2858  0.1526
  896MOL0     C20840   6.079   3.128   5.301 -0.1718 -0.2310  0.4742
  896MOL0     C20841   6.203   3.145   5.212  0.8932  0.4944  0.7108
  896MOL0     N20842   6.288   3.264   5.245  0.3124 -0.2667 -0.1384
  896MOL0     C20843   6.289   3.387   5.182  0.9784  0.0041 -0.4815
  896MOL0     C20844   6.393   3.457   5.242 -0.0817 -0.5962  0.0700
  896MOL0     C20845   6.405   3.607   5.241 -0.1533  0.1494 -0.5772
  896MOL0     C20846   6.437   3.647   5.102 -1.2131  0.2805 -0.0121
  896MOL0     C20847   6.342   3.740   5.034  0.1958  0.0196  1.0178
  896MOL0     C20848   6.379   3.803   4.891  0.1013 -0.2898  0.5439
  896MOL0     O20849   6.503   3.749   4.835  0.5880  0.4779 -0.0046
  896MOL0     C20850   6.546   3.831   4.736  0.4262  0.0371  0.1608
  896MOL0     C20851   6.467   3.917   4.655  0.7475 -0.3388 -0.8934
  896MOL0     C20852   6.525   4.008   4.566  0.2031 -0.3952  0.0911
  896MOL0     C20853   6.436   4.095   4.484  0.1605 -0.1468  0.0486
  896MOL0     C20854   6.667   4.006   4.557  0.2010  0.8427  0.4219
  896MOL0     C20855   6.744   4.085   4.463 -0.9008 -0.8136  0.1960
  896MOL0     O20856   6.729   4.221   4.472 -0.0772 -0.4570 -0.5854
  896MOL0     C20857   6.782   4.309   4.384 -0.7490 -1.3122 -0.2708
  896MOL0     C20858   6.797   4.435   4.430  0.1354 -0.0143 -0.7633
  896MOL0     C20859   6.848   4.535   4.344 -0.4506  0.2839  1.5918
  896MOL0     C20860   6.893   4.505   4.215 -0.0722  0.0851 -0.1633
  896MOL0     O20861   6.947   4.602   4.132  0.3904 -0.0799  0.0662
  896MOL0     C20862   6.922   4.595   3.988 -0.7250  2.0498  0.0611
  896MOL0     C20863   6.951   4.724   3.917  0.7676 -0.3933  0.4371
  896MOL0     C20864   7.098   4.757   3.879  0.5289 -0.4946  0.5306
  896MOL0     C20865   7.095   4.887   3.804  0.7361 -0.3227  0.2611
  896MOL0     C20866   7.233   4.929   3.769  0.2985  1.1528 -0.1557
  896MOL0     C20867   7.229   5.045   3.661 -0.6047 -0.4103 -0.1849
  896MOL0     C20868   7.372   5.093   3.632 -0.4536  0.4143  0.2024
  896MOL0     C20869   7.413   5.041   3.492 -0.6469  0.5509  0.1074
  896MOL0    Cl20870   7.387   4.855   3.461  0.4167  0.2439 -0.1769
  896MOL0     C20871   6.875   4.366   4.168 -1.2964  0.2867 -0.1516
  896MOL0     C20872   6.808   4.280   4.253 -0.0645  0.7828  0.9587
  896MOL0     O20873   6.822   4.026   4.392 -0.9283  0.1644 -0.0346
  896MOL0     C20874   6.737   3.898   4.622 -0.8806 -1.0039 -0.0041
  896MOL0     C20875   6.680   3.823   4.714  0.1282  0.0363 -0.2991
  896MOL0     N20876   6.464   3.368   5.324  0.6550  0.0099 -0.0702
  896MOL0     N20877   6.405   3.255   5.322 -0.4140  0.9507 -0.1900
  896MOL0     C20878   5.305   2.977   5.863  0.7336 -0.8368  0.8331
  896MOL0     C20879   5.187   2.978   5.932 -0.1619 -0.8529  0.2666
  896MOL0     C20880   4.718   2.952   6.002 -0.2078 -0.9188 -0.4165
  896MOL0     C20881   4.751   2.972   6.142  0.0480 -0.4340  0.1218
  896MOL0     C20882   4.646   2.987   6.237 -0.3919  0.6433 -1.1505
  896MOL0     C20883   4.508   2.980   6.196 -1.1731  1.1887 -0.0431
  896MOL0     O20884   4.399   2.991   6.286  0.6305 -0.3917  0.6813
  896MOL0     C20885   4.413   3.046   6.423  0.0329 -0.4285  0.2938
  896MOL0     C20886   4.272   3.045   6.493  0.0737 -1.2712  0.0591
  896MOL0     C20887   4.152   3.087   6.406 -0.9424  0.1106  0.0374
  896MOL0     C20888   4.031   3.130   6.483  0.1673  0.8372 -1.0671
  896MOL0     C20889   3.922   3.182   6.398 -0.6382  0.8903 -0.0872
  896MOL0     C20890   3.821   3.209   6.331 -0.0647  0.3748  0.2268
  896MOL0     C20891   4.483   2.954   6.063  0.9488 -0.0075  0.2740
  896MOL0     C20892   4.584   2.939   5.966 -0.5371  0.3211 -0.8382
  896MOL0     H20893   4.969   2.951   5.665  1.0761 -0.4087 -0.3104
  896MOL0     H20894   5.185   2.949   5.543  0.8553  0.5065 -0.2793
  896MOL0     H20895   5.561   3.030   5.809  0.0308 -0.3887  1.6072
  896MOL0     H20896   5.589   2.865   5.742  0.6806  0.8981  0.2542
  896MOL0     H20897   5.629   3.138   5.601 -0.7721  1.4122  4.5912
  896MOL0     H20898   5.747   3.067   5.712  0.7098  1.3083  0.2159
  896MOL0     H20899   5.750   2.853   5.531 -2.4892 -0.4849 -0.5166
  896MOL0     H20900   5.634   2.937   5.439 -0.6106 -1.5455  0.4969
  896MOL0     H20901   5.797   3.126   5.406 -0.1625  0.8422 -0.1669
  896MOL0     H20902   5.899   3.053   5.527 -0.4720 -1.4101 -0.0991
  896MOL0     H20903   5.944   2.871   5.380 -0.6538  0.3380  1.0420
  896MOL0     H20904   5.796   2.905   5.276 -1.9466 -0.9771  1.7795
  896MOL0     H20905   6.044   2.963   5.176  1.0090  0.6772 -0.0910
  896MOL0     H20906   5.907   3.087   5.171  0.4501 -1.0123 -0.8616
  896MOL0     H20907   6.031   3.225   5.318  0.4316  0.3326 -0.9343
  896MOL0     H20908   6.122   3.089   5.394 -0.0215  2.8902  1.8318
  896MOL0     H20909   6.169   3.156   5.108  1.5712  1.3214  0.5625
  896MOL0     H20910   6.266   3.057   5.221 -0.9711 -0.8862  0.9231
  896MOL0     H20911   6.207   3.429   5.125 -0.6670 -1.7161  0.5081
  896MOL0     H20912   6.310   3.650   5.273  0.1359  0.6310 -0.3508
  896MOL0     H20913   6.490   3.635   5.305 -1.3115 -1.5611  1.8788
  896MOL0     H20914   6.468   3.570   5.030  2.2952 -0.5488  2.1315
  896MOL0     H20915   6.530   3.705   5.102 -0.9157 -0.1310 -1.6447
  896MOL0     H20916   6.337   3.826   5.101 -0.7322  1.8006 -1.1913
  896MOL0     H20917   6.244   3.693   5.021  0.4211  0.0051 -0.9315
  896MOL0     H20918   6.390   3.909   4.914 -1.7249 -0.1473  0.9537
  896MOL0     H20919   6.293   3.794   4.823  0.0194  2.1348  0.2365
  896MOL0     H20920   6.360   3.913   4.666  0.8304  1.1182  0.8379
  896MOL0     H20921   6.379   4.156   4.556 -0.9727  1.3285 -2.0026
  896MOL0     H20922   6.474   4.177   4.423 -2.3033  1.9690  1.1695
  896MOL0     H20923   6.370   4.032   4.424  0.6477 -1.6131  0.9863
  896MOL0     H20924   6.790   4.467   4.534 -0.8031 -1.3038 -0.4113
  896MOL0     H20925   6.847   4.637   4.381 -1.5184 -0.1914  2.9511
  896MOL0     H20926   6.994   4.525   3.945 -1.8978  1.2420 -0.6589
  896MOL0     H20927   6.822   4.558   3.963  0.3653 -0.8906 -0.3442
  896MOL0     H20928   6.893   4.716   3.824  3.1375  1.6189 -1.3519
  896MOL0     H20929   6.902   4.808   3.968 -1.7210 -0.9119 -0.9452
  896MOL0     H20930   7.145   4.671   3.829 -0.9463 -2.1570  1.8557
  896MOL0     H20931   7.157   4.773   3.969  3.2257 -0.2970 -1.1793
  896MOL0     H20932   7.026   4.884   3.719 -0.6382 -1.9625  1.3595
  896MOL0     H20933   7.056   4.966   3.869  2.9944 -0.9671  2.5223
  896MOL0     H20934   7.295   4.841   3.751  1.5786  2.2462 -1.4549
  896MOL0     H20935   7.277   4.978   3.856  1.7561  2.6839 -1.6549
  896MOL0     H20936   7.181   5.005   3.571  0.4627 -3.0040  0.3109
  896MOL0     H20937   7.178   5.131   3.705 -1.3137 -2.4543  3.2692
  896MOL0     H20938   7.444   5.058   3.708 -2.3589 -1.4371  1.2751
  896MOL0     H20939   7.384   5.200   3.649 -1.5098  0.9039 -1.8910
  896MOL0     H20940   7.521   5.060   3.483 -0.3975 -0.7755  0.0638
  896MOL0     H20941   7.365   5.084   3.403 -0.4293 -1.4177 -1.0201
  896MOL0     H20942   6.906   4.326   4.072 -1.0782  1.9348 -0.8131
  896MOL0     H20943   6.786   4.186   4.202 -0.3475  1.8207 -0.9217
  896MOL0     H20944   6.843   3.885   4.604 -0.7807  0.7034 -0.8795
  896MOL0     H20945   6.746   3.760   4.773  1.4738 -0.0583 -1.8233
  896MOL0     H20946   5.395   2.988   5.922 -1.1721  0.7206  3.7114
  896MOL0     H20947   5.179   2.968   6.040  0.0654  0.1762  0.3907
  896MOL0     H20948   4.858   2.991   6.149  0.1268  0.9881 -3.0516
  896MOL0     H20949   4.678   3.012   6.337  2.2659 -0.6066 -1.6105
  896MOL0     H20950   4.483   2.993   6.488  2.3087  2.0548  0.0238
  896MOL0     H20951   4.444   3.150   6.419  0.5723 -0.4140  2.9038
  896MOL0     H20952   4.277   3.116   6.576  0.3411 -1.8947  0.5859
  896MOL0     H20953   4.275   2.946   6.540  0.5859 -0.7137  1.2440
  896MOL0     H20954   4.133   3.003   6.338 -3.8442  0.9647 -0.3418
  896MOL0     H20955   4.188   3.168   6.342  1.5055 -3.4970 -3.6528
  896MOL0     H20956   4.051   3.213   6.551  2.4669  0.5787 -1.3575
  896MOL0     H20957   3.997   3.050   6.549 -2.1098  1.9048 -0.8517
  896MOL0     H20958   3.733   3.231   6.274 -0.0330  0.9839  0.4104
  896MOL0     H20959   4.381   2.940   6.027  0.3516  2.7547  0.7113
  896MOL0     H20960   4.561   2.939   5.860 -2.5671  3.3707 -0.5254
  897MOL0     O20961   1.342  10.150   5.252  0.4515  0.1992 -0.7836
  897MOL0     C20962   1.275  10.079   5.322 -0.3866  0.5185  0.1416
  897MOL0     O20963   1.228  10.111   5.446  0.3129 -0.4350  0.0869
  897MOL0     C20964   1.223  10.252   5.475  0.5948  0.9091  0.5488
  897MOL0     C20965   1.097  10.300   5.477  0.2731 -1.1103  0.0953
  897MOL0     C20966   1.077  10.439   5.499  0.4896  0.6681 -0.2114
  897MOL0     C20967   1.187  10.531   5.494 -0.6865 -0.5896 -0.1035
  897MOL0     O20968   1.172  10.662   5.521 -0.0942  0.4344 -0.1641
  897MOL0     C20969   1.194  10.760   5.416 -0.5470  0.7551  1.3721
  897MOL0     C20970   1.071  10.777   5.327  0.4708 -0.9282 -0.7720
  897MOL0     C20971   1.106  10.803   5.181  0.3888  0.1870  0.5224
  897MOL0     C20972   1.177  10.681   5.117 -0.0121 -0.2718 -0.0254
  897MOL0     C20973   1.089  10.562   5.094 -0.0007  0.7415 -0.4613
  897MOL0     C20974   1.179  10.454   5.035 -0.0675  1.2178  0.3322
  897MOL0     C20975   1.090  10.337   4.982  0.9423 -0.1408  0.5706
  897MOL0     C20976   1.172  10.219   4.935 -0.2852  0.3142 -0.3697
  897MOL0     N20977   1.096  10.102   4.879  0.4016  0.7485  0.3430
  897MOL0     C20978   1.056   9.981   4.942 -1.2527 -0.0061  0.2869
  897MOL0     C20979   0.967   9.928   4.853  0.3645 -0.1499  0.1038
  897MOL0     C20980   0.888   9.797   4.894  0.1629 -0.1705  0.6459
  897MOL0     C20981   0.837   9.726   4.769 -0.1014  0.3320 -0.6870
  897MOL0     C20982   0.729   9.801   4.691 -0.2625 -0.3805  0.7843
  897MOL0     C20983   0.610   9.830   4.775 -0.4713 -0.5550 -0.4958
  897MOL0     O20984   0.492   9.877   4.705 -0.1082 -0.3860  0.0903
  897MOL0     C20985   0.366   9.885   4.764 -0.4267 -0.1629  0.6917
  897MOL0     C20986   0.262   9.936   4.683 -0.7583  0.2201  1.0235
  897MOL0     C20987   0.136   9.960   4.733 -0.9845  0.0063  0.9775
  897MOL0     C20988   0.040  10.001   4.619  0.5496 -0.6388  1.0082
  897MOL0     C20989   0.108   9.961   4.868  0.1031 -0.1904 -0.7396
  897MOL0     C20990  -0.007  10.009   4.927  0.8764  0.2093  0.0874
  897MOL0     O20991  -0.025   9.976   5.060  0.5314  0.8172 -0.3960
  897MOL0     C20992  -0.148   9.967   5.106  0.1173  0.5115  0.0054
  897MOL0     C20993  -0.225   9.841   5.090 -0.0534  0.0002 -1.5831
  897MOL0     C20994  -0.357   9.840   5.121 -0.2034 -0.8454  0.2395
  897MOL0     C20995  -0.419   9.955   5.173 -0.8315  0.3893 -0.3498
  897MOL0     O20996  -0.553   9.970   5.193  0.3906  0.2210 -0.2164
  897MOL0     C20997  -0.636   9.850   5.214 -0.5868 -0.0413 -0.0949
  897MOL0     C20998  -0.607   9.801   5.357 -0.3872 -0.6553  0.7451
  897MOL0     C20999  -0.633   9.887   5.478  0.0329  0.4968  0.1018
  897MOL0     C21000  -0.558   9.840   5.601 -0.3799 -0.2600  0.1856
  897MOL0     C21001  -0.565   9.930   5.732 -0.3547 -0.3322  0.3304
  897MOL0     C21002  -0.493  10.067   5.725  0.8151  0.1803  0.0448
  897MOL0     C21003  -0.558  10.178   5.819 -0.5031  0.3966  0.0896
  897MOL0     C21004  -0.517  10.317   5.803  0.0733  0.5589  0.2788
  897MOL0    Cl21005  -0.572  10.402   5.657  0.1464  0.1313 -0.5065
  897MOL0     C21006  -0.344  10.072   5.204 -0.1812  0.1031 -0.2849
  897MOL0     C21007  -0.217  10.076   5.171  0.1323 -0.5821  0.5205
  897MOL0     O21008  -0.086  10.082   4.860 -0.6927 -0.6737 -0.3950
  897MOL0     C21009   0.219   9.905   4.946  0.2787  0.6059  0.0568
  897MOL0     C21010   0.341   9.865   4.893  0.7212 -0.0865  0.4393
  897MOL0     N21011   0.965  10.010   4.740  0.1088  0.9708 -0.4034
  897MOL0     N21012   1.034  10.110   4.759 -0.6405  0.0253  0.1352
  897MOL0     C21013   1.321  10.482   5.481  0.3525 -0.4573 -0.0579
  897MOL0     C21014   1.333  10.336   5.479 -1.1187  0.5779  0.7514
  897MOL0     C21015   1.272   9.944   5.271 -0.2595 -0.7118  0.1518
  897MOL0     C21016   1.359   9.906   5.168  0.2096  0.0537  0.6303
  897MOL0     C21017   1.358   9.774   5.131 -0.0151 -0.0771 -0.7792
  897MOL0     C21018   1.272   9.681   5.178 -0.1094 -0.5130 -0.8000
  897MOL0     O21019   1.280   9.560   5.122  0.2510 -0.0042 -0.5291
  897MOL0     C21020   1.170   9.531   5.032 -0.4727  0.0584  1.0466
  897MOL0     C21021   1.183   9.585   4.887  0.1485 -0.3062 -0.4134
  897MOL0     C21022   1.279   9.504   4.800  0.0218  1.1036 -1.2342
  897MOL0     C21023   1.255   9.533   4.652 -0.0652  0.4312 -0.4878
  897MOL0     C21024   1.253   9.677   4.624 -0.7557 -0.7524  0.6057
  897MOL0     C21025   1.248   9.797   4.592 -0.6752 -0.1456 -0.3095
  897MOL0     C21026   1.185   9.724   5.285  0.0085 -0.4914  0.7515
  897MOL0     C21027   1.197   9.843   5.342 -0.2721 -1.1371 -0.3184
  897MOL0     H21028   1.012  10.233   5.480  0.4571 -1.7045 -3.5820
  897MOL0     H21029   0.976  10.461   5.533  0.3163  0.3403 -0.5189
  897MOL0     H21030   1.235  10.850   5.461  1.6790 -1.0023  3.1004
  897MOL0     H21031   1.281  10.721   5.362 -1.2629  2.1168 -0.8702
  897MOL0     H21032   1.006  10.689   5.326 -0.0416 -0.5751 -0.0829
  897MOL0     H21033   1.011  10.857   5.373 -1.0193 -2.1534 -0.4945
  897MOL0     H21034   1.009  10.824   5.134  2.2140  3.1822 -2.3038
  897MOL0     H21035   1.159  10.898   5.166  0.0159  0.3574  0.2494
  897MOL0     H21036   1.216  10.717   5.021 -2.3704 -3.5751 -2.4388
  897MOL0     H21037   1.267  10.652   5.172  0.7507 -1.7001 -1.9059
  897MOL0     H21038   1.048  10.526   5.188 -1.4073  1.5196 -0.7436
  897MOL0     H21039   1.001  10.577   5.030 -2.4736  0.1701  2.5618
  897MOL0     H21040   1.233  10.497   4.950 -0.7441 -0.6975 -1.1359
  897MOL0     H21041   1.243  10.424   5.118 -0.6409  2.9266  1.4535
  897MOL0     H21042   1.031  10.301   5.067  0.9613 -1.1350  0.1767
  897MOL0     H21043   1.020  10.367   4.904  1.7348  1.1084  0.3273
  897MOL0     H21044   1.219  10.176   5.024  0.0916  0.1681 -0.6387
  897MOL0     H21045   1.248  10.238   4.859 -0.0682 -3.2770 -1.2533
  897MOL0     H21046   1.069   9.950   5.046  3.2246  0.0596 -0.0470
  897MOL0     H21047   0.957   9.730   4.947 -0.4988 -1.6884 -0.3200
  897MOL0     H21048   0.806   9.831   4.957  0.2999  0.9779  0.2355
  897MOL0     H21049   0.801   9.626   4.791  0.6106 -0.2333 -1.9822
  897MOL0     H21050   0.925   9.725   4.704  1.3662 -0.1687  1.2199
  897MOL0     H21051   0.697   9.742   4.605  2.4484  0.5130 -0.9699
  897MOL0     H21052   0.757   9.890   4.633  0.7810 -1.1461  0.0747
  897MOL0     H21053   0.630   9.905   4.853 -1.7067 -0.6685 -0.0569
  897MOL0     H21054   0.574   9.734   4.814  1.3907 -0.0242  2.9804
  897MOL0     H21055   0.305   9.952   4.584  1.3756 -0.7279  1.7247
  897MOL0     H21056   0.017  10.107   4.606 -1.5287 -0.9316  1.8767
  897MOL0     H21057   0.080   9.985   4.518 -5.5165  1.3733 -2.2324
  897MOL0     H21058  -0.056   9.950   4.626 -0.3030  0.4392 -1.7297
  897MOL0     H21059  -0.181   9.751   5.048  2.8731  0.5108  0.1092
  897MOL0     H21060  -0.413   9.749   5.102 -1.9525 -0.1064  1.5439
  897MOL0     H21061  -0.740   9.876   5.197 -0.1019  0.4845 -2.5890
  897MOL0     H21062  -0.621   9.774   5.136 -1.7549  0.7098 -1.0814
  897MOL0     H21063  -0.666   9.709   5.362  0.0495 -0.9005  1.6736
  897MOL0     H21064  -0.500   9.778   5.350  1.0195  4.5929  0.4726
  897MOL0     H21065  -0.739   9.880   5.503  0.0764 -1.1245 -0.0351
  897MOL0     H21066  -0.609   9.993   5.468  0.0348  0.7621  2.4156
  897MOL0     H21067  -0.603   9.743   5.626  2.8047 -2.2405 -1.1359
  897MOL0     H21068  -0.454   9.809   5.587 -0.5045 -0.2812 -0.7179
  897MOL0     H21069  -0.514   9.872   5.810 -0.9634 -2.2764 -0.6798
  897MOL0     H21070  -0.667   9.943   5.769 -0.9560 -0.8164 -1.1115
  897MOL0     H21071  -0.388  10.057   5.753  0.6753  3.0232  1.8975
  897MOL0     H21072  -0.487  10.108   5.623 -0.3933 -0.1328 -0.1629
  897MOL0     H21073  -0.535  10.151   5.922 -2.6402 -1.6479  0.1155
  897MOL0     H21074  -0.666  10.191   5.813 -0.3769  1.5136 -0.0957
  897MOL0     H21075  -0.408  10.324   5.811  0.2296 -0.1675 -0.9339
  897MOL0     H21076  -0.557  10.381   5.882  2.0594 -0.1036  1.9079
  897MOL0     H21077  -0.388  10.152   5.263 -0.0932 -0.7968  1.0118
  897MOL0     H21078  -0.164  10.169   5.193  0.1882 -0.3539 -0.5148
  897MOL0     H21079   0.200   9.889   5.051  0.5273 -2.5204 -0.2817
  897MOL0     H21080   0.420   9.820   4.953  2.8842 -1.9523 -3.4102
  897MOL0     H21081   1.409  10.543   5.465 -1.0721  1.8709  0.4990
  897MOL0     H21082   1.437  10.310   5.468 -0.2201  4.5199 -2.6281
  897MOL0     H21083   1.430   9.977   5.126  0.4288 -0.5457 -0.0322
  897MOL0     H21084   1.417   9.726   5.053 -2.5263 -2.0151 -1.6254
  897MOL0     H21085   1.160   9.423   5.018 -1.8112  0.1906  0.8377
  897MOL0     H21086   1.075   9.573   5.067 -0.2684  4.7772 -2.9369
  897MOL0     H21087   1.219   9.687   4.902  1.2755 -0.6164 -0.9555
  897MOL0     H21088   1.087   9.577   4.835  2.4209 -2.1151 -4.8530
  897MOL0     H21089   1.300   9.398   4.818  2.7102  1.5797 -1.1131
  897MOL0     H21090   1.380   9.539   4.823 -0.5506  1.7299  0.4446
  897MOL0     H21091   1.164   9.485   4.615 -1.1451  0.5596  1.8146
  897MOL0     H21092   1.325   9.485   4.583 -3.2911 -2.6130 -1.9740
  897MOL0     H21093   1.236   9.900   4.565 -2.1497 -0.7033 -1.9868
  897MOL0     H21094   1.112   9.657   5.329  1.3323 -2.2542  0.3920
  897MOL0     H21095   1.145   9.877   5.431  0.1473  0.7331 -0.7364
  898MOL0     O21096   4.544   8.459   7.322  0.0380 -0.3292 -0.1010
  898MOL0     C21097   4.562   8.448   7.202  0.0401  0.6160  0.3557
  898MOL0     O21098   4.684   8.471   7.139 -0.5759  0.4984  0.1921
  898MOL0     C21099   4.778   8.553   7.200 -0.2471  0.0838  1.5085
  898MOL0     C21100   4.766   8.688   7.167  0.3842  0.5061 -0.1484
  898MOL0     C21101   4.840   8.780   7.239 -0.4590  0.6494 -0.0614
  898MOL0     C21102   4.921   8.743   7.349  0.0851 -0.5617  0.3969
  898MOL0     O21103   4.986   8.838   7.421 -0.2436 -0.0475 -0.2277
  898MOL0     C21104   4.892   8.941   7.463  0.2606  0.2880  0.7111
  898MOL0     C21105   4.945   9.015   7.592 -1.1942  0.2587 -0.2944
  898MOL0     C21106   5.060   9.118   7.566  0.4393 -0.3068 -0.2071
  898MOL0     C21107   5.079   9.208   7.693  0.3910 -0.9736  0.5709
  898MOL0     C21108   5.231   9.238   7.732 -0.2991  0.0880  0.3269
  898MOL0     C21109   5.316   9.114   7.757  0.0174  0.0449 -0.2387
  898MOL0     C21110   5.427   9.128   7.861  0.7821  0.0856  0.0953
  898MOL0     C21111   5.489   8.996   7.900 -0.7825 -0.1201  1.2797
  898MOL0     N21112   5.622   9.020   7.965  0.2141 -0.9186 -0.3768
  898MOL0     C21113   5.734   9.073   7.907 -1.7921  0.1227  0.8711
  898MOL0     C21114   5.819   9.112   8.007  0.2464  0.2451  0.3440
  898MOL0     C21115   5.953   9.176   7.983  0.5393  0.4735 -0.1370
  898MOL0     C21116   6.060   9.103   8.062  0.6256  0.6349 -0.9455
  898MOL0     C21117   6.053   8.955   8.045  0.0578 -0.6551  0.7952
  898MOL0     C21118   6.105   8.904   7.912  0.1587  0.1437  0.4437
  898MOL0     O21119   6.113   8.759   7.898 -0.3831 -0.0694  0.4765
  898MOL0     C21120   6.222   8.689   7.949  0.0987 -0.7461  0.5853
  898MOL0     C21121   6.353   8.742   7.949 -0.0819  0.3251  0.9799
  898MOL0     C21122   6.453   8.658   7.984  0.2293 -0.6722 -0.7406
  898MOL0     C21123   6.599   8.712   7.975 -0.2963 -0.8269  0.8444
  898MOL0     C21124   6.427   8.530   8.017 -0.6678  0.5820 -1.0420
  898MOL0     C21125   6.540   8.445   8.052  0.8358  0.1559 -0.7816
  898MOL0     O21126   6.604   8.383   7.941 -0.9709  0.5093 -0.6181
  898MOL0     C21127   6.687   8.280   7.962  1.1689  0.2967  0.0881
  898MOL0     C21128   6.791   8.258   7.878  0.1083  0.0277  0.5144
  898MOL0     C21129   6.883   8.157   7.907 -0.4782  0.2774 -0.0495
  898MOL0     C21130   6.866   8.063   8.018  0.0368 -0.0913  0.6969
  898MOL0     O21131   6.974   7.981   8.056  0.3830  0.3401  0.1179
  898MOL0     C21132   7.089   7.952   7.969 -0.2549  0.2823 -0.1982
  898MOL0     C21133   7.207   8.043   8.009 -0.2351 -0.1890 -0.4995
  898MOL0     C21134   7.261   8.011   8.150 -0.6460 -0.8057  0.2338
  898MOL0     C21135   7.324   7.867   8.167 -0.3321 -0.1047  0.4319
  898MOL0     C21136   7.406   7.861   8.297 -0.5978 -0.4962  0.5319
  898MOL0     C21137   7.350   7.769   8.410  0.1712 -0.4708  0.1177
  898MOL0     C21138   7.438   7.787   8.531  0.2064  0.0644  0.9569
  898MOL0     C21139   7.415   7.680   8.636 -0.5431  0.7132 -0.0561
  898MOL0    Cl21140   7.245   7.661   8.682 -0.1305 -0.0921 -0.0030
  898MOL0     C21141   6.752   8.081   8.097  1.1041  1.5257  0.1074
  898MOL0     C21142   6.662   8.181   8.068  0.3285  1.1173 -0.3006
  898MOL0     O21143   6.557   8.427   8.174  1.2512  0.1316 -0.0711
  898MOL0     C21144   6.293   8.481   8.024  0.0309  0.5465  0.5370
  898MOL0     C21145   6.192   8.563   7.987  0.4955 -0.7269  1.0905
  898MOL0     N21146   5.762   9.070   8.127 -0.3088 -0.0059  0.2192
  898MOL0     N21147   5.650   9.007   8.098  0.3694  0.0982  0.1046
  898MOL0     C21148   4.915   8.612   7.403 -0.6661 -0.6263  0.7686
  898MOL0     C21149   4.848   8.517   7.319 -0.2520  0.3697  0.2389
  898MOL0     C21150   4.447   8.409   7.120  0.5391 -0.1810 -1.0869
  898MOL0     C21151   4.315   8.433   7.169 -0.0986 -0.3892  0.1453
  898MOL0     C21152   4.200   8.390   7.096 -0.9035  0.9908  0.5254
  898MOL0     C21153   4.215   8.319   6.974  0.5633  0.4704 -0.3073
  898MOL0     O21154   4.100   8.279   6.920  1.3310 -0.3213 -0.5138
  898MOL0     C21155   4.107   8.167   6.838  0.5232  0.3281  0.8084
  898MOL0     C21156   3.970   8.099   6.868 -0.6624 -0.0564 -0.2566
  898MOL0     C21157   3.957   8.020   6.998 -0.3004 -0.1463 -0.9425
  898MOL0     C21158   4.062   7.912   7.011 -1.2268  0.0216 -1.1740
  898MOL0     C21159   4.189   7.968   7.067 -0.1021  0.0993  0.4034
  898MOL0     C21160   4.286   8.034   7.119 -0.1637 -0.1935 -0.2611
  898MOL0     C21161   4.347   8.307   6.913 -1.0364  0.5503  0.2996
  898MOL0     C21162   4.459   8.351   6.993  0.0720  0.0025  0.6123
  898MOL0     H21163   4.698   8.713   7.086 -3.1052 -2.0607  1.7009
  898MOL0     H21164   4.842   8.883   7.205  0.8609  0.5273 -0.4165
  898MOL0     H21165   4.865   9.014   7.386 -1.2196  1.9428  2.6862
  898MOL0     H21166   4.804   8.894   7.507  0.4152 -0.2900  0.4170
  898MOL0     H21167   4.865   9.073   7.637  0.0048  0.5524  1.5783
  898MOL0     H21168   4.997   8.952   7.665 -0.0877 -0.4037 -1.5961
  898MOL0     H21169   5.146   9.053   7.552  0.3536 -1.1488  2.5961
  898MOL0     H21170   5.047   9.188   7.482 -1.6919 -1.1266 -0.6203
  898MOL0     H21171   5.024   9.302   7.700 -0.1499 -1.2514  0.1072
  898MOL0     H21172   5.036   9.164   7.783 -0.1053  0.6471  1.1583
  898MOL0     H21173   5.291   9.291   7.658 -1.0530 -3.5924 -3.3457
  898MOL0     H21174   5.226   9.302   7.820 -0.7700 -0.6411  0.8521
  898MOL0     H21175   5.246   9.036   7.790 -0.6052  1.5964  2.3814
  898MOL0     H21176   5.365   9.087   7.663  1.3237 -2.1851  0.9858
  898MOL0     H21177   5.498   9.202   7.822  2.6113 -2.4382 -1.7936
  898MOL0     H21178   5.389   9.163   7.957  2.1167  2.0105 -0.0296
  898MOL0     H21179   5.511   8.933   7.813 -2.8478  1.6836 -0.6697
  898MOL0     H21180   5.420   8.939   7.963 -1.1149  0.8604  1.8241
  898MOL0     H21181   5.756   9.082   7.801 -0.7806  0.0605  1.0637
  898MOL0     H21182   5.985   9.150   7.882  1.1989 -0.8424  0.3825
  898MOL0     H21183   5.941   9.284   7.999 -2.7790  0.1924 -0.0736
  898MOL0     H21184   6.051   9.130   8.167 -0.7082 -2.1019 -0.2697
  898MOL0     H21185   6.165   9.122   8.035  0.9594  2.4286  1.2687
  898MOL0     H21186   5.957   8.908   8.067 -1.5844  1.4580 -1.3297
  898MOL0     H21187   6.131   8.921   8.114  1.8604  3.6178  1.1391
  898MOL0     H21188   6.207   8.945   7.911  1.7586 -3.3642  0.4963
  898MOL0     H21189   6.053   8.925   7.819  1.1123 -2.7298 -0.8509
  898MOL0     H21190   6.398   8.837   7.923  0.3892 -0.0531  0.3798
  898MOL0     H21191   6.611   8.754   7.875  2.8968 -0.3029  1.3134
  898MOL0     H21192   6.610   8.799   8.041 -0.0013  0.1566 -0.4628
  898MOL0     H21193   6.677   8.636   7.990  0.9036 -0.4014 -2.3615
  898MOL0     H21194   6.810   8.341   7.810  1.5872 -1.1103 -0.5344
  898MOL0     H21195   6.981   8.155   7.862 -0.1981  0.5136  0.5393
  898MOL0     H21196   7.106   7.844   7.977  0.9880  0.3238 -1.7320
  898MOL0     H21197   7.057   7.958   7.865 -0.6355 -0.3314 -0.1217
  898MOL0     H21198   7.292   8.030   7.941  0.0874 -1.9526  0.1856
  898MOL0     H21199   7.163   8.141   8.026 -0.5213 -0.2236 -1.0300
  898MOL0     H21200   7.178   8.024   8.220 -0.0522  1.3145  0.6115
  898MOL0     H21201   7.337   8.088   8.164 -2.1308  1.6489 -3.6063
  898MOL0     H21202   7.248   7.788   8.160  0.9765 -1.3537 -0.2932
  898MOL0     H21203   7.390   7.873   8.079 -2.1969  5.5550 -1.0154
  898MOL0     H21204   7.425   7.961   8.339 -1.1745  0.0264 -0.4274
  898MOL0     H21205   7.501   7.817   8.268 -1.2347 -3.3340  2.3143
  898MOL0     H21206   7.249   7.802   8.436  0.7338  0.5600  1.0136
  898MOL0     H21207   7.339   7.662   8.386 -0.5002 -0.1314 -1.1905
  898MOL0     H21208   7.408   7.879   8.582  0.4348  1.3512 -1.1117
  898MOL0     H21209   7.540   7.806   8.496 -0.8397  3.3850 -0.6549
  898MOL0     H21210   7.477   7.699   8.723  0.1563 -1.2290 -0.0987
  898MOL0     H21211   7.450   7.586   8.592 -2.4246 -0.4813  0.8544
  898MOL0     H21212   6.735   8.014   8.181 -0.6274  3.8507  1.7493
  898MOL0     H21213   6.568   8.180   8.121 -0.2311 -1.2541 -1.2292
  898MOL0     H21214   6.273   8.379   8.053  1.1475 -0.3574 -1.6667
  898MOL0     H21215   6.091   8.525   7.980  0.1934 -0.3533  3.0098
  898MOL0     H21216   4.972   8.575   7.488  4.6474  0.4019 -1.9278
  898MOL0     H21217   4.862   8.416   7.357  1.8407  0.8381  0.8417
  898MOL0     H21218   4.299   8.482   7.265 -1.6165 -1.8378  0.6969
  898MOL0     H21219   4.101   8.412   7.132 -1.5161 -0.3914 -0.2151
  898MOL0     H21220   4.121   8.213   6.740 -0.1471  0.6840  0.8657
  898MOL0     H21221   4.191   8.101   6.860  1.6548  0.6587 -2.2031
  898MOL0     H21222   3.945   8.035   6.783 -2.5381 -0.8729  0.8365
  898MOL0     H21223   3.893   8.177   6.865 -1.6074 -0.9427  0.2955
  898MOL0     H21224   3.856   7.979   6.998 -0.4989  0.2597 -2.9768
  898MOL0     H21225   3.954   8.094   7.079  0.9507 -1.5255  0.4390
  898MOL0     H21226   4.084   7.849   6.925  1.4754 -2.4363  1.0790
  898MOL0     H21227   4.031   7.832   7.079 -1.4366 -0.2584 -1.5978
  898MOL0     H21228   4.365   8.094   7.159  1.8270 -1.3158 -2.2948
  898MOL0     H21229   4.371   8.267   6.816  3.4343  2.6165  0.3416
  898MOL0     H21230   4.558   8.326   6.957  1.8394  3.0414  2.9315
  899MOL0     O21231   9.068   3.710   2.266 -0.0919 -0.6043  0.3706
  899MOL0     C21232   9.111   3.792   2.184 -0.4657  0.5927 -0.3787
  899MOL0     O21233   9.208   3.760   2.094 -0.7515 -0.5424 -0.0674
  899MOL0     C21234   9.309   3.680   2.150  0.6865 -0.7808  0.1124
  899MOL0     C21235   9.351   3.685   2.280  0.8651  0.9557  0.2520
  899MOL0     C21236   9.431   3.581   2.323 -0.8801  1.5949 -0.4218
  899MOL0     C21237   9.485   3.478   2.242  0.1140  0.1428  0.4084
  899MOL0     O21238   9.567   3.380   2.301  0.1005 -0.6283 -0.1470
  899MOL0     C21239   9.495   3.272   2.358 -0.6010  0.3706 -0.7291
  899MOL0     C21240   9.593   3.178   2.426  0.6825 -0.2478  0.1116
  899MOL0     C21241   9.669   3.252   2.543 -0.7260 -0.1761  0.4909
  899MOL0     C21242   9.782   3.161   2.593 -0.0531 -0.1573  0.5971
  899MOL0     C21243   9.827   3.186   2.737  0.1386  0.3191  0.2493
  899MOL0     C21244   9.884   3.062   2.796 -0.1320 -0.4010  0.5534
  899MOL0     C21245   9.950   3.076   2.941  0.2860 -0.8483  0.6254
  899MOL0     C21246  10.013   2.950   3.006  0.7277 -0.1155  0.0753
  899MOL0     N21247   9.966   2.933   3.145  0.5410 -0.1447  0.0494
  899MOL0     C21248   9.969   3.022   3.245 -0.6211 -0.5941  0.6180
  899MOL0     C21249   9.930   2.964   3.354 -0.5315 -0.1837 -0.4487
  899MOL0     C21250   9.941   3.032   3.494  0.7300  0.5018 -0.4784
  899MOL0     C21251   9.814   3.118   3.520 -0.1764 -0.2110  0.1303
  899MOL0     C21252   9.826   3.254   3.452  0.1585 -0.7769 -0.1605
  899MOL0     C21253   9.689   3.315   3.426 -0.1737  1.2104 -0.7497
  899MOL0     O21254   9.713   3.449   3.383  0.0714 -0.3215 -0.0528
  899MOL0     C21255   9.610   3.527   3.341 -0.5346 -0.3807 -0.9000
  899MOL0     C21256   9.641   3.641   3.279 -0.2212 -0.1221 -0.3875
  899MOL0     C21257   9.548   3.731   3.222  0.0125  0.4428 -0.6054
  899MOL0     C21258   9.604   3.857   3.162 -0.1360 -0.0567 -0.2997
  899MOL0     C21259   9.408   3.696   3.238 -0.2036 -0.1762 -0.2452
  899MOL0     C21260   9.301   3.781   3.202 -0.1257 -1.0997 -0.3280
  899MOL0     O21261   9.313   3.913   3.202 -0.9038  0.4399 -0.2860
  899MOL0     C21262   9.195   3.976   3.174  0.3539 -0.2239  0.4159
  899MOL0     C21263   9.122   4.034   3.283 -1.3162  0.2416 -0.7546
  899MOL0     C21264   9.005   4.105   3.249  0.2709  0.3532 -0.6470
  899MOL0     C21265   8.963   4.121   3.115  0.1073 -0.4985 -0.7798
  899MOL0     O21266   8.848   4.185   3.065 -0.0367 -0.7066 -0.7437
  899MOL0     C21267   8.754   4.223   3.157  1.3752 -0.8211  0.7250
  899MOL0     C21268   8.649   4.295   3.080 -0.3041 -0.1572 -0.5783
  899MOL0     C21269   8.547   4.351   3.183  0.7392  0.4223  0.2374
  899MOL0     C21270   8.421   4.395   3.100 -0.3068  0.3692  0.2865
  899MOL0     C21271   8.421   4.535   3.044  0.6194  0.6082 -0.2906
  899MOL0     C21272   8.284   4.563   2.979  0.2162 -0.3563  0.6840
  899MOL0     C21273   8.287   4.707   2.925  0.1420 -0.4494 -0.3278
  899MOL0     C21274   8.148   4.749   2.868 -1.0721  0.7413  0.0844
  899MOL0    Cl21275   8.016   4.748   2.995 -0.2393 -0.1006  0.5177
  899MOL0     C21276   9.042   4.070   3.012 -0.5545  0.3343  0.1876
  899MOL0     C21277   9.152   3.994   3.045 -0.2159 -0.4380  0.7073
  899MOL0     O21278   9.202   3.721   3.160 -0.0062  0.1384 -0.0913
  899MOL0     C21279   9.376   3.572   3.300  0.0057 -0.2273 -0.3312
  899MOL0     C21280   9.476   3.488   3.356 -0.1909  0.8818  0.4029
  899MOL0     N21281   9.906   2.831   3.329 -0.1944 -0.1041 -0.7775
  899MOL0     N21282   9.918   2.816   3.202  0.8160 -0.1742  0.0030
  899MOL0     C21283   9.448   3.478   2.116  0.7627 -0.1322  0.2688
  899MOL0     C21284   9.363   3.579   2.067  0.2389 -0.7671 -0.1982
  899MOL0     C21285   9.053   3.927   2.167 -0.2334  0.7558 -0.8615
  899MOL0     C21286   8.957   3.968   2.268 -1.6806  0.3149  0.0881
  899MOL0     C21287   8.912   4.095   2.264  0.1917 -0.3529  0.5129
  899MOL0     C21288   8.943   4.177   2.153  0.0367 -0.2351 -0.4799
  899MOL0     O21289   8.886   4.299   2.148  0.4713  0.7313 -0.3955
  899MOL0     C21290   8.810   4.334   2.027  1.2323 -1.6422 -0.7613
  899MOL0     C21291   8.702   4.427   2.060 -0.2157 -0.6188 -0.1687
  899MOL0     C21292   8.632   4.418   2.200 -0.5446  0.3113  0.3172
  899MOL0     C21293   8.540   4.532   2.225 -0.4683 -0.0914  0.4160
  899MOL0     C21294   8.419   4.503   2.141  0.7620  0.0437  0.4641
  899MOL0     C21295   8.314   4.472   2.088  0.6248 -0.6477 -0.6655
  899MOL0     C21296   9.034   4.135   2.061 -0.5870 -0.7459 -0.5873
  899MOL0     C21297   9.099   4.017   2.073  0.8724 -0.4739 -0.2684
  899MOL0     H21298   9.315   3.766   2.343 -2.9221 -1.0313  0.8920
  899MOL0     H21299   9.461   3.578   2.427  0.4402 -0.7241 -0.7882
  899MOL0     H21300   9.411   3.298   2.423  0.7831  0.8650  0.9411
  899MOL0     H21301   9.453   3.214   2.275 -1.2742 -2.2682  1.3285
  899MOL0     H21302   9.535   3.095   2.468 -2.3273  2.4346  1.7078
  899MOL0     H21303   9.661   3.133   2.354  0.2931 -0.6232 -0.0260
  899MOL0     H21304   9.714   3.349   2.520 -1.4647 -0.0524 -0.4732
  899MOL0     H21305   9.606   3.274   2.630  0.0499  3.6418  0.2666
  899MOL0     H21306   9.746   3.059   2.582  0.5485 -0.2309 -0.9493
  899MOL0     H21307   9.863   3.183   2.523 -0.7014  1.3057  0.2649
  899MOL0     H21308   9.902   3.265   2.749  1.2878 -0.7928  0.7594
  899MOL0     H21309   9.739   3.218   2.793  0.1858 -0.7943  1.0008
  899MOL0     H21310   9.806   2.985   2.794  0.9847 -1.5644 -0.8940
  899MOL0     H21311   9.964   3.026   2.730 -1.1044 -4.5823  1.3542
  899MOL0     H21312  10.038   3.140   2.925  0.5691 -1.7214 -1.6936
  899MOL0     H21313   9.889   3.121   3.020  1.4097 -0.5393  1.3562
  899MOL0     H21314  10.121   2.965   3.002  0.9007 -1.3413 -0.2236
  899MOL0     H21315   9.981   2.859   2.955  3.1125 -1.1408  0.2820
  899MOL0     H21316  10.004   3.123   3.223 -2.4130 -0.3057 -1.1848
  899MOL0     H21317   9.953   2.963   3.578  3.2721  1.4442  0.0289
  899MOL0     H21318  10.026   3.101   3.492  1.8506 -0.7789 -3.5187
  899MOL0     H21319   9.813   3.133   3.629 -3.8622 -0.1399  0.2403
  899MOL0     H21320   9.726   3.062   3.486 -3.7785  4.2145  1.2004
  899MOL0     H21321   9.866   3.231   3.353  0.5808 -4.4191  0.7285
  899MOL0     H21322   9.894   3.304   3.522  1.2826 -2.1455 -0.2211
  899MOL0     H21323   9.621   3.308   3.511  1.7558 -0.4663  0.7867
  899MOL0     H21324   9.656   3.255   3.341  3.3489  0.7408 -1.9672
  899MOL0     H21325   9.748   3.655   3.267  0.1100 -1.8584  0.2048
  899MOL0     H21326   9.595   3.944   3.229 -1.8637 -0.1524 -0.3447
  899MOL0     H21327   9.710   3.855   3.137  0.3913  1.9291  1.4344
  899MOL0     H21328   9.551   3.880   3.069  0.2761 -0.2724 -0.5900
  899MOL0     H21329   9.155   4.013   3.384 -2.1910 -0.0577 -0.5301
  899MOL0     H21330   8.954   4.144   3.336  0.4162 -2.7248  0.9687
  899MOL0     H21331   8.706   4.133   3.196 -0.8426  0.1590  0.4296
  899MOL0     H21332   8.799   4.295   3.226 -0.8451  2.7027 -1.2033
  899MOL0     H21333   8.701   4.373   3.024 -0.4044 -0.0305 -0.4965
  899MOL0     H21334   8.600   4.217   3.022  1.0245  0.3949 -2.5263
  899MOL0     H21335   8.581   4.441   3.236  2.8440  0.7429 -1.4881
  899MOL0     H21336   8.524   4.268   3.250  0.0319 -1.7785 -2.5410
  899MOL0     H21337   8.410   4.321   3.021 -1.8038  0.0080  0.8006
  899MOL0     H21338   8.330   4.381   3.159  0.7287 -5.6135  1.0188
  899MOL0     H21339   8.506   4.541   2.975 -0.3603  1.4048 -1.4536
  899MOL0     H21340   8.441   4.608   3.123  2.6133 -0.1922  0.0155
  899MOL0     H21341   8.264   4.485   2.904 -2.7435  1.4094 -0.5619
  899MOL0     H21342   8.204   4.557   3.054 -0.4428 -0.3519 -0.0019
  899MOL0     H21343   8.360   4.720   2.845 -2.0966  4.2178 -2.0113
  899MOL0     H21344   8.306   4.783   3.002  0.3273 -0.3234 -0.4986
  899MOL0     H21345   8.116   4.675   2.793 -5.6626  1.4057  1.1069
  899MOL0     H21346   8.156   4.837   2.803 -0.9401 -0.9832 -2.3963
  899MOL0     H21347   9.012   4.082   2.908  1.3873  1.9514 -0.2597
  899MOL0     H21348   9.217   3.963   2.964  0.7474  2.4592  0.2561
  899MOL0     H21349   9.273   3.540   3.315  0.4281  0.0161  4.5808
  899MOL0     H21350   9.442   3.391   3.393  1.2732 -0.1964 -0.9328
  899MOL0     H21351   9.494   3.405   2.050  1.9086  0.8338 -0.0381
  899MOL0     H21352   9.334   3.579   1.963  0.4224  1.3738 -0.2885
  899MOL0     H21353   8.933   3.913   2.359 -0.6600  2.1587  1.5598
  899MOL0     H21354   8.848   4.132   2.343  0.7145 -2.2150  1.8816
  899MOL0     H21355   8.862   4.384   1.945 -0.8124  0.7338 -0.7288
  899MOL0     H21356   8.758   4.248   1.984 -2.1110  0.2990 -1.0138
  899MOL0     H21357   8.629   4.424   1.979 -2.3109  0.3611  1.5828
  899MOL0     H21358   8.742   4.529   2.052  0.7012 -0.9260  0.3189
  899MOL0     H21359   8.714   4.431   2.272 -1.6836  0.6035  1.5948
  899MOL0     H21360   8.591   4.317   2.206 -0.2964  0.1181 -1.0566
  899MOL0     H21361   8.587   4.627   2.197 -2.6647  0.6554 -0.9029
  899MOL0     H21362   8.524   4.532   2.334 -2.3925 -1.9904  0.1969
  899MOL0     H21363   8.225   4.452   2.032  0.7935 -1.7836 -0.5598
  899MOL0     H21364   9.059   4.206   1.983 -2.1299 -0.6312 -1.0145
  899MOL0     H21365   9.162   3.982   1.991  0.3176  2.2991 -1.9901
  900MOL0     O21366  10.557   9.161   9.693  0.5108 -0.0446 -0.5761
  900MOL0     C21367  10.597   9.219   9.592  0.2102 -0.1633  0.0215
  900MOL0     O21368  10.624   9.355   9.584 -0.8851  0.2763 -0.7457
  900MOL0     C21369  10.673   9.405   9.701 -0.4290  0.6892 -1.1981
  900MOL0     C21370  10.807   9.429   9.726  0.0397  0.3424 -0.3734
  900MOL0     C21371  10.847   9.468   9.849  0.1334 -0.4074  0.5124
  900MOL0     C21372  10.762   9.489   9.960  0.1846 -0.3952 -0.1356
  900MOL0     O21373  10.811   9.484  10.086  0.2192 -0.4392  0.9164
  900MOL0     C21374  10.725   9.475  10.203 -0.0232  0.0547  0.0886
  900MOL0     C21375  10.824   9.444  10.323 -0.4434 -0.6841  0.0321
  900MOL0     C21376  10.915   9.570  10.337 -0.2242  0.0765 -0.9492
  900MOL0     C21377  11.055   9.546  10.297  0.3680 -0.3285  0.8567
  900MOL0     C21378  11.155   9.653  10.352  1.2229 -0.8855  0.1162
  900MOL0     C21379  11.184   9.652  10.506 -1.0972  0.5802 -0.8534
  900MOL0     C21380  11.289   9.735  10.564 -0.4857 -0.7843  0.8474
  900MOL0     C21381  11.259   9.887  10.556 -0.5173 -0.6712  0.2415
  900MOL0     N21382  11.146   9.929  10.628  0.3794  0.0766  0.4853
  900MOL0     C21383  11.132   9.955  10.755  0.3860 -0.6079 -0.8472
  900MOL0     C21384  11.008  10.009  10.765 -0.2246  0.1412 -0.4585
  900MOL0     C21385  10.965  10.088  10.889  0.3278 -0.8469  0.4175
  900MOL0     C21386  10.851  10.184  10.849  0.0455  0.1682  0.5898
  900MOL0     C21387  10.781  10.226  10.982  0.2462 -0.2967  0.1753
  900MOL0     C21388  10.856  10.343  11.046  0.1197  0.5878 -0.3893
  900MOL0     O21389  10.802  10.363  11.177 -0.1352  0.6611 -0.1056
  900MOL0     C21390  10.825  10.482  11.247  0.1857  0.7881  0.7632
  900MOL0     C21391  10.918  10.577  11.207 -0.0038  0.7869 -0.4581
  900MOL0     C21392  10.947  10.692  11.287  1.5208 -0.1224  0.1522
  900MOL0     C21393  11.059  10.788  11.239 -0.6384  0.4099 -0.2142
  900MOL0     C21394  10.876  10.709  11.413 -0.1828  0.5624 -0.3276
  900MOL0     C21395  10.905  10.821  11.504  0.1158 -0.3089  0.1450
  900MOL0     O21396  10.863  10.801  11.631  0.0561  0.2149 -0.2578
  900MOL0     C21397  10.880  10.901  11.719 -0.6102  0.1838  1.1124
  900MOL0     C21398  10.858  11.037  11.701  0.4726  0.3189 -1.0005
  900MOL0     C21399  10.871  11.127  11.805  0.1385  0.5936 -0.0117
  900MOL0     C21400  10.905  11.084  11.938 -0.1093  0.3854  0.7213
  900MOL0     O21401  10.913  11.186  12.032 -0.8261 -0.1251  0.0839
  900MOL0     C21402  10.857  11.157  12.158  0.8819 -0.2436 -0.1502
  900MOL0     C21403  10.708  11.160  12.146  0.2525  0.0521  1.1308
  900MOL0     C21404  10.643  11.178  12.286  0.1044  0.5480 -1.2371
  900MOL0     C21405  10.669  11.068  12.381 -0.1278  0.1475  1.0188
  900MOL0     C21406  10.630  11.114  12.519 -0.0939 -0.9665 -0.2360
  900MOL0     C21407  10.650  10.999  12.613  0.3285 -0.4804 -0.3308
  900MOL0     C21408  10.585  11.029  12.740  0.0804  0.3435 -0.6863
  900MOL0     C21409  10.664  10.958  12.864 -0.3679  1.1827 -0.1521
  900MOL0    Cl21410  10.710  10.791  12.846 -0.1029  0.3865 -0.1307
  900MOL0     C21411  10.920  10.948  11.962 -0.5155 -0.9255 -0.7770
  900MOL0     C21412  10.894  10.856  11.853  0.4915  0.4599 -0.1789
  900MOL0     O21413  10.964  10.921  11.460 -0.1152  0.2376 -1.0004
  900MOL0     C21414  10.777  10.616  11.446 -0.2026 -0.2779  1.5728
  900MOL0     C21415  10.756  10.497  11.370 -0.7668  0.4566  0.0436
  900MOL0     N21416  10.944   9.992  10.654 -1.0147  0.3915  0.4544
  900MOL0     N21417  11.027   9.956  10.560 -0.0194 -0.0519 -1.3949
  900MOL0     C21418  10.624   9.461   9.931  0.3353 -0.1738 -0.0117
  900MOL0     C21419  10.585   9.429   9.802  1.2322 -0.5728 -0.1985
  900MOL0     C21420  10.611   9.133   9.473  0.1630 -0.0307 -0.1713
  900MOL0     C21421  10.571   8.996   9.469  0.2944 -0.0324  0.3352
  900MOL0     C21422  10.572   8.919   9.349 -0.0090  0.0984  0.3901
  900MOL0     C21423  10.605   8.986   9.233  1.0354 -0.4418  0.2276
  900MOL0     O21424  10.603   8.931   9.107 -0.3522 -0.2374 -0.3001
  900MOL0     C21425  10.499   8.834   9.079 -0.4975 -0.5849 -0.3981
  900MOL0     C21426  10.520   8.802   8.931 -0.7088  0.0455  0.6481
  900MOL0     C21427  10.428   8.694   8.885 -0.2281  1.0860 -0.6172
  900MOL0     C21428  10.452   8.663   8.739  0.2962  0.8766 -1.0528
  900MOL0     C21429  10.325   8.634   8.677 -0.0989  0.0785  1.0364
  900MOL0     C21430  10.221   8.620   8.623 -0.6324 -0.8938 -0.0054
  900MOL0     C21431  10.658   9.120   9.243  0.5000  0.0002  0.0251
  900MOL0     C21432  10.672   9.199   9.362  0.4987  0.0882 -0.2240
  900MOL0     H21433  10.884   9.408   9.652  0.0854 -1.0945  0.0521
  900MOL0     H21434  10.950   9.500   9.863  0.9497 -2.5918 -0.1571
  900MOL0     H21435  10.684   9.572  10.234  1.7140  0.9670 -0.3253
  900MOL0     H21436  10.662   9.387  10.217  1.1068 -0.3507  3.9561
  900MOL0     H21437  10.771   9.422  10.416 -0.3113 -0.7477  0.0918
  900MOL0     H21438  10.880   9.356  10.290  1.4354  0.0837  1.0105
  900MOL0     H21439  10.879   9.659  10.283  1.4680 -1.3675 -4.8258
  900MOL0     H21440  10.919   9.594  10.443 -1.8222 -1.1520 -0.5782
  900MOL0     H21441  11.083   9.450  10.341  2.1854 -0.9963 -1.5339
  900MOL0     H21442  11.062   9.522  10.190 -1.0177 -1.1416  0.9335
  900MOL0     H21443  11.259   9.640  10.319  1.9342 -1.5216  2.4380
  900MOL0     H21444  11.123   9.753  10.320 -2.6340 -2.2536 -0.7888
  900MOL0     H21445  11.092   9.692  10.549 -0.3583  4.4228 -2.4327
  900MOL0     H21446  11.192   9.546  10.533 -1.2273  0.5632 -0.8837
  900MOL0     H21447  11.313   9.699  10.665  0.3799 -2.2195  0.1654
  900MOL0     H21448  11.385   9.718  10.515  1.0525  1.2222  2.9156
  900MOL0     H21449  11.249   9.916  10.451  2.1862 -2.1992 -0.5237
  900MOL0     H21450  11.347   9.936  10.599  0.6316 -1.8208 -0.7408
  900MOL0     H21451  11.206   9.955  10.834 -0.0223 -2.7043 -0.3993
  900MOL0     H21452  10.920  10.020  10.962 -0.3269 -0.2545  0.5832
  900MOL0     H21453  11.035  10.152  10.941 -1.1362  1.6150 -0.4776
  900MOL0     H21454  10.780  10.129  10.787 -0.4478  1.0749  0.3319
  900MOL0     H21455  10.879  10.276  10.797 -3.4476  1.9990  1.6438
  900MOL0     H21456  10.750  10.154  11.058 -1.7708 -1.6243 -1.7672
  900MOL0     H21457  10.687  10.273  10.948  0.6318 -1.7790 -3.3557
  900MOL0     H21458  10.859  10.434  10.985  0.3138  2.1705  1.8550
  900MOL0     H21459  10.960  10.311  11.048 -0.0386 -0.2510 -2.5504
  900MOL0     H21460  10.985  10.557  11.123 -0.3964 -0.3670 -0.5059
  900MOL0     H21461  11.134  10.818  11.312 -2.0783  2.6346  0.4560
  900MOL0     H21462  11.104  10.734  11.155 -1.6492  1.0834 -1.2199
  900MOL0     H21463  11.010  10.877  11.198  2.0949  2.1538  0.1072
  900MOL0     H21464  10.828  11.080  11.606 -0.1487 -0.4290 -1.1532
  900MOL0     H21465  10.841  11.231  11.808 -1.1053  0.3108 -1.2465
  900MOL0     H21466  10.897  11.067  12.205  1.2972  1.1043  2.2368
  900MOL0     H21467  10.889  11.240  12.221 -0.6936  0.6618 -0.5006
  900MOL0     H21468  10.679  11.248  12.088  2.4817 -0.8321 -1.5132
  900MOL0     H21469  10.671  11.069  12.099 -1.9216  1.3012  0.2438
  900MOL0     H21470  10.534  11.185  12.274 -0.1174 -0.0642  0.1494
  900MOL0     H21471  10.663  11.273  12.337 -2.4315  0.8491 -0.6593
  900MOL0     H21472  10.602  10.986  12.355 -0.2965  0.8590 -0.9705
  900MOL0     H21473  10.775  11.043  12.374 -0.0681  0.7281 -0.4354
  900MOL0     H21474  10.528  11.154  12.524  1.3159  3.1231 -0.7351
  900MOL0     H21475  10.692  11.197  12.553 -0.6553  0.3344 -2.2053
  900MOL0     H21476  10.599  10.913  12.568  2.6446 -2.6262  0.9276
  900MOL0     H21477  10.755  10.974  12.630  1.0840  2.1604 -0.5994
  900MOL0     H21478  10.485  10.985  12.742  0.2805 -0.2487  2.8030
  900MOL0     H21479  10.583  11.132  12.775  2.5677  0.6728 -1.2975
  900MOL0     H21480  10.606  10.967  12.956  0.4651  1.6651  0.3293
  900MOL0     H21481  10.755  11.011  12.892 -0.7253  0.3758  2.9584
  900MOL0     H21482  10.931  10.905  12.061 -3.4513 -0.6409 -0.2498
  900MOL0     H21483  10.879  10.751  11.877 -0.0561 -0.0467 -2.5004
  900MOL0     H21484  10.711  10.627  11.532 -1.5763 -0.0235  0.5182
  900MOL0     H21485  10.670  10.436  11.398  0.3888  0.1633  3.3060
  900MOL0     H21486  10.546   9.459  10.006 -0.2734  3.0810 -0.4129
  900MOL0     H21487  10.481   9.403   9.786  1.2301  0.4468 -2.0393
  900MOL0     H21488  10.531   8.976   9.568 -1.3864  2.8365  0.3353
  900MOL0     H21489  10.549   8.813   9.342 -2.9170  0.7303 -2.1250
  900MOL0     H21490  10.513   8.744   9.139 -2.0617  0.0491  0.9890
  900MOL0     H21491  10.398   8.871   9.097  0.2204  2.5492 -2.0642
  900MOL0     H21492  10.621   8.762   8.923 -1.5134 -1.6643 -2.3202
  900MOL0     H21493  10.499   8.895   8.877 -1.8161 -0.4708  0.1534
  900MOL0     H21494  10.325   8.719   8.912  0.1685  0.6025  1.6141
  900MOL0     H21495  10.447   8.605   8.947  0.3927  4.1244  4.0993
  900MOL0     H21496  10.517   8.576   8.733 -1.7626 -0.7137 -1.1761
  900MOL0     H21497  10.494   8.752   8.690  2.3056 -0.2634 -1.4939
  900MOL0     H21498  10.122   8.630   8.583 -0.9725  0.1523  1.0152
  900MOL0     H21499  10.691   9.169   9.152  3.0486 -1.4401  0.1014
  900MOL0     H21500  10.703   9.303   9.367  0.0917  0.1628  2.4774
  901MOL0     O21501   8.750   7.828   7.611  1.0994 -0.1777 -0.1758
  901MOL0     C21502   8.673   7.840   7.510 -0.2599 -0.1597 -0.7088
  901MOL0     O21503   8.558   7.895   7.510  0.0954 -0.0315  0.4622
  901MOL0     C21504   8.487   7.934   7.617  0.8198 -0.0672  0.2172
  901MOL0     C21505   8.437   7.843   7.717 -0.3589 -0.1145 -1.3685
  901MOL0     C21506   8.378   7.908   7.829 -0.0653  0.3994 -0.5858
  901MOL0     C21507   8.361   8.044   7.845 -0.1391  0.5559  0.3592
  901MOL0     O21508   8.314   8.094   7.961  0.4020 -0.6460 -0.1760
  901MOL0     C21509   8.262   8.229   7.962 -0.1808 -0.2235 -0.2470
  901MOL0     C21510   8.191   8.242   8.095 -0.7832 -0.3008  0.1122
  901MOL0     C21511   8.095   8.361   8.105  1.3383 -0.3065  0.4109
  901MOL0     C21512   8.144   8.495   8.038  0.4922 -0.0186  0.3113
  901MOL0     C21513   8.025   8.595   7.991  0.1752  0.3593  0.4517
  901MOL0     C21514   7.922   8.611   8.100 -0.3177 -0.1042  0.0694
  901MOL0     C21515   7.990   8.677   8.213 -0.4106  0.2461  0.5197
  901MOL0     C21516   7.888   8.705   8.317 -0.5333 -0.2244  0.3689
  901MOL0     N21517   7.950   8.773   8.433  0.1061 -0.7150  0.1963
  901MOL0     C21518   7.912   8.901   8.472  0.3577  1.0851  0.1206
  901MOL0     C21519   8.002   8.932   8.559 -1.1080 -1.1994 -0.4727
  901MOL0     C21520   7.992   9.072   8.623 -0.0985  0.1566 -0.4804
  901MOL0     C21521   7.909   9.064   8.749 -0.2172  0.3496 -0.6323
  901MOL0     C21522   7.976   8.961   8.849  0.6191 -0.2606  0.1712
  901MOL0     C21523   8.122   9.003   8.877 -0.0953  0.0179 -0.6090
  901MOL0     O21524   8.162   8.936   8.998  0.1599 -0.2399 -0.1159
  901MOL0     C21525   8.135   8.994   9.122  0.3831  0.3148  0.3446
  901MOL0     C21526   8.212   8.935   9.218  1.1350  0.3823  0.3239
  901MOL0     C21527   8.206   8.983   9.352 -0.7221 -0.3842  0.4445
  901MOL0     C21528   8.321   8.930   9.435 -0.1195 -0.4071  0.1500
  901MOL0     C21529   8.115   9.087   9.383 -0.0225  0.9070  0.2861
  901MOL0     C21530   8.113   9.159   9.513 -0.4784  0.6296  0.6402
  901MOL0     O21531   7.997   9.219   9.538 -0.7495 -0.1540 -0.0609
  901MOL0     C21532   7.948   9.228   9.660 -0.9385 -0.2990 -0.8155
  901MOL0     C21533   7.877   9.346   9.694  0.6894  1.2286  0.7148
  901MOL0     C21534   7.830   9.375   9.823 -0.3103  0.3573  0.6910
  901MOL0     C21535   7.876   9.283   9.926 -0.0885  0.3488  0.4627
  901MOL0     O21536   7.852   9.313  10.060  0.4655 -0.4036  1.0524
  901MOL0     C21537   7.964   9.351  10.136 -0.1965  0.5908 -0.8174
  901MOL0     C21538   7.922   9.376  10.280  0.4556  0.2969  0.4204
  901MOL0     C21539   7.863   9.242  10.337 -0.9979 -0.1820  0.7886
  901MOL0     C21540   7.784   9.262  10.460  0.9682  0.0303  0.4514
  901MOL0     C21541   7.793   9.118  10.526 -0.4527 -0.4324  0.2129
  901MOL0     C21542   7.699   9.106  10.657  0.1512  0.2992 -0.4269
  901MOL0     C21543   7.760   9.202  10.768  0.3246 -0.7771 -0.8489
  901MOL0     C21544   7.666   9.227  10.882  0.0907 -0.8939 -0.7599
  901MOL0    Cl21545   7.679   9.115  11.010  0.4886 -0.2149 -0.2579
  901MOL0     C21546   7.951   9.169   9.890 -0.4223 -0.8963  0.0038
  901MOL0     C21547   7.980   9.137   9.765 -0.3548 -0.0134  0.1007
  901MOL0     O21548   8.231   9.194   9.552 -0.0905 -0.9603  0.0042
  901MOL0     C21549   8.025   9.137   9.287  0.3568 -0.1234  0.6474
  901MOL0     C21550   8.037   9.091   9.157  1.1909  0.5905  0.6962
  901MOL0     N21551   8.091   8.830   8.586  0.0088 -1.2479 -0.3679
  901MOL0     N21552   8.069   8.736   8.502  0.8125  0.2647  0.1354
  901MOL0     C21553   8.414   8.121   7.745  0.6157 -1.0895  0.8211
  901MOL0     C21554   8.473   8.073   7.632 -0.9854  0.0730 -0.5155
  901MOL0     C21555   8.714   7.775   7.378 -1.5912 -0.2890 -0.6693
  901MOL0     C21556   8.649   7.796   7.259  0.3616 -1.0008  0.3142
  901MOL0     C21557   8.681   7.743   7.141 -0.6133  0.6015  0.2958
  901MOL0     C21558   8.803   7.670   7.136 -0.2032 -0.2005 -0.2269
  901MOL0     O21559   8.865   7.624   7.020 -0.3007 -0.0077 -0.6144
  901MOL0     C21560   8.822   7.633   6.887  0.0684 -0.1490 -0.5717
  901MOL0     C21561   8.735   7.507   6.856 -0.3022 -0.2572 -0.1410
  901MOL0     C21562   8.820   7.382   6.843  0.8418  0.9063  0.7877
  901MOL0     C21563   8.834   7.282   6.957 -0.8541  0.3333 -0.5212
  901MOL0     C21564   8.717   7.251   7.027  0.3241  0.3037  0.6151
  901MOL0     C21565   8.604   7.254   7.071 -0.4436  0.5591  0.3171
  901MOL0     C21566   8.876   7.647   7.253  0.5036  1.1700  0.4147
  901MOL0     C21567   8.822   7.684   7.371  0.2182  0.5333 -0.8545
  901MOL0     H21568   8.469   7.740   7.701 -2.9550 -1.1554 -0.3702
  901MOL0     H21569   8.357   7.844   7.914 -0.7953  1.0205 -0.2811
  901MOL0     H21570   8.346   8.298   7.957 -0.9702  0.6883 -1.2136
  901MOL0     H21571   8.192   8.243   7.880 -1.7738  1.1564  1.2694
  901MOL0     H21572   8.125   8.155   8.099 -3.5867  1.4755 -2.6383
  901MOL0     H21573   8.253   8.233   8.185  0.1179 -2.1623 -0.6397
  901MOL0     H21574   8.004   8.334   8.050  0.9721 -0.2069  0.9667
  901MOL0     H21575   8.071   8.376   8.210 -0.5089  0.2578 -0.0472
  901MOL0     H21576   8.223   8.553   8.087 -1.7803  3.5099  0.1501
  901MOL0     H21577   8.195   8.465   7.946 -0.9491  0.6821 -0.7518
  901MOL0     H21578   8.058   8.694   7.957  0.5778  1.4672  3.7419
  901MOL0     H21579   7.984   8.547   7.902  0.7420  0.6971  0.0050
  901MOL0     H21580   7.835   8.666   8.063  0.8740  1.8244  0.0021
  901MOL0     H21581   7.898   8.514   8.145  1.1827 -0.6545 -0.2362
  901MOL0     H21582   8.067   8.613   8.257  0.1581  0.8396  0.4046
  901MOL0     H21583   8.048   8.766   8.188  1.9744 -1.5475 -0.6435
  901MOL0     H21584   7.835   8.617   8.354 -2.2500  0.2527 -0.8120
  901MOL0     H21585   7.815   8.756   8.253  0.4341 -0.1524 -0.7227
  901MOL0     H21586   7.831   8.965   8.439  0.5847 -0.1549 -3.2217
  901MOL0     H21587   8.095   9.107   8.629  0.3944  0.3733 -5.6010
  901MOL0     H21588   7.947   9.146   8.556 -1.3385  0.0718  0.2435
  901MOL0     H21589   7.805   9.050   8.720 -0.7357  0.9975  0.8455
  901MOL0     H21590   7.904   9.164   8.792  2.7169  0.6963 -0.8467
  901MOL0     H21591   7.985   8.857   8.815 -1.0752 -0.9904  1.7601
  901MOL0     H21592   7.917   8.951   8.940  2.2389 -0.2597  1.2811
  901MOL0     H21593   8.122   9.110   8.896 -1.5867 -0.3136  1.6765
  901MOL0     H21594   8.195   8.995   8.796 -2.4869  1.3138 -3.0457
  901MOL0     H21595   8.286   8.858   9.196 -1.0845 -1.2801 -1.8031
  901MOL0     H21596   8.347   8.827   9.407  0.7306  0.4338 -2.4275
  901MOL0     H21597   8.406   8.997   9.418 -0.0620 -0.4105  0.4117
  901MOL0     H21598   8.299   8.932   9.542 -0.4297 -4.4001  0.3220
  901MOL0     H21599   7.856   9.402   9.603  2.9688 -2.0268 -2.0356
  901MOL0     H21600   7.776   9.466   9.849 -1.3849  0.8043 -2.6895
  901MOL0     H21601   8.042   9.274  10.127 -0.2528  0.3765  0.3481
  901MOL0     H21602   8.000   9.447  10.098  0.0758  1.2144  0.9220
  901MOL0     H21603   8.014   9.400  10.335  1.7039  0.1402 -1.5175
  901MOL0     H21604   7.855   9.463  10.284 -0.5883 -0.5304  1.8508
  901MOL0     H21605   7.951   9.181  10.357  0.2787  0.5193 -2.0851
  901MOL0     H21606   7.806   9.188  10.260  0.9136  0.8884 -1.5260
  901MOL0     H21607   7.827   9.345  10.517 -1.7159  2.8380 -1.3346
  901MOL0     H21608   7.682   9.281  10.428  0.7620 -3.0234 -1.0773
  901MOL0     H21609   7.897   9.110  10.557 -0.8292  1.3494  2.1590
  901MOL0     H21610   7.748   9.040  10.463  0.4288 -2.4528  1.9508
  901MOL0     H21611   7.595   9.135  10.639  0.3768  2.4346  1.2764
  901MOL0     H21612   7.701   9.006  10.700  2.3890 -0.6802 -2.6184
  901MOL0     H21613   7.779   9.299  10.721  1.5628 -0.6009 -0.0523
  901MOL0     H21614   7.852   9.153  10.803  0.5413  0.6126  0.6328
  901MOL0     H21615   7.560   9.239  10.855 -0.4420 -0.3250  1.4071
  901MOL0     H21616   7.687   9.324  10.927 -1.4109 -0.5346 -0.7638
  901MOL0     H21617   7.991   9.105   9.969 -0.7042 -1.6223 -0.4372
  901MOL0     H21618   8.043   9.051   9.745 -0.3603 -0.5242  2.0699
  901MOL0     H21619   7.944   9.201   9.321 -0.3541 -1.6520  1.9246
  901MOL0     H21620   7.973   9.130   9.078  0.5103  0.6773  1.2752
  901MOL0     H21621   8.405   8.227   7.770 -1.0562 -0.5699 -1.5805
  901MOL0     H21622   8.518   8.138   7.559  0.3492 -2.0851 -1.7086
  901MOL0     H21623   8.560   7.859   7.252  0.1699 -1.3842 -0.8961
  901MOL0     H21624   8.617   7.774   7.059  0.8392  1.9103 -0.4171
  901MOL0     H21625   8.757   7.717   6.862  1.3305  0.7488 -0.8951
  901MOL0     H21626   8.912   7.625   6.826  1.6715 -0.6672  1.7171
  901MOL0     H21627   8.687   7.529   6.760  1.4410  0.2353 -0.9461
  901MOL0     H21628   8.659   7.493   6.933  0.5010 -0.8199  0.5625
  901MOL0     H21629   8.923   7.412   6.817  0.5958  1.4234  0.3943
  901MOL0     H21630   8.780   7.328   6.757  1.9413 -2.4871  2.2454
  901MOL0     H21631   8.915   7.308   7.026 -1.5282 -2.5083  1.5484
  901MOL0     H21632   8.859   7.192   6.901  1.9961 -1.2358  2.8525
  901MOL0     H21633   8.508   7.247   7.119 -0.9078 -0.9824 -0.7701
  901MOL0     H21634   8.970   7.594   7.241  1.3370  2.9730 -1.6971
  901MOL0     H21635   8.860   7.647   7.466 -0.6075  0.8537 -0.3947
  902MOL0     O21636   4.067   3.874   9.997 -0.1710  0.3368 -0.3389
  902MOL0     C21637   3.983   3.788   9.993 -0.6587  0.2664  1.5019
  902MOL0     O21638   3.989   3.676   9.915  0.1991  0.6701  0.6078
  902MOL0     C21639   4.088   3.655   9.815 -0.1031 -0.1679  0.0795
  902MOL0     C21640   4.185   3.752   9.769  0.6989  0.9116 -0.4657
  902MOL0     C21641   4.272   3.716   9.677  0.1382  0.2968 -0.2186
  902MOL0     C21642   4.291   3.581   9.643  0.1418 -0.9401 -0.6006
  902MOL0     O21643   4.400   3.560   9.566  0.0566  0.3777  0.3194
  902MOL0     C21644   4.452   3.429   9.528  0.3140 -0.9296 -0.1685
  902MOL0     C21645   4.496   3.363   9.662  0.2033  0.7142  0.3071
  902MOL0     C21646   4.578   3.440   9.766 -0.0290 -0.2221 -0.4013
  902MOL0     C21647   4.717   3.449   9.702 -0.1883 -0.0903 -0.4825
  902MOL0     C21648   4.826   3.488   9.801 -0.1891 -0.3244  0.9078
  902MOL0     C21649   4.969   3.486   9.740 -0.2478 -0.1653 -0.0135
  902MOL0     C21650   5.071   3.509   9.860  0.0913 -0.2053 -0.7719
  902MOL0     C21651   5.210   3.442   9.848 -0.0053  0.7715 -0.4473
  902MOL0     N21652   5.319   3.509   9.781  0.3746 -0.6113  0.0360
  902MOL0     C21653   5.314   3.557   9.649  0.2021  0.0583 -0.1470
  902MOL0     C21654   5.426   3.633   9.637 -0.5963 -0.3564 -0.6035
  902MOL0     C21655   5.472   3.710   9.502  0.1065  0.2764 -0.7806
  902MOL0     C21656   5.600   3.792   9.518 -0.5994  0.1774 -0.3804
  902MOL0     C21657   5.656   3.852   9.377  0.9103  0.2765 -0.0792
  902MOL0     C21658   5.563   3.935   9.300  0.1473 -0.4629  1.1306
  902MOL0     O21659   5.542   4.061   9.371 -1.2934 -0.4907  0.4503
  902MOL0     C21660   5.521   4.179   9.297  0.6161  0.9566  0.7646
  902MOL0     C21661   5.414   4.196   9.204 -0.3986 -1.2257 -0.1304
  902MOL0     C21662   5.391   4.324   9.137  0.3917 -0.0905 -1.0048
  902MOL0     C21663   5.256   4.324   9.056 -0.5559  0.6873  0.4579
  902MOL0     C21664   5.473   4.435   9.170 -0.0645 -0.5227  0.4773
  902MOL0     C21665   5.460   4.573   9.114  0.5914 -0.0153  0.3647
  902MOL0     O21666   5.535   4.676   9.158 -0.4091  1.0002 -0.0016
  902MOL0     C21667   5.536   4.793   9.087 -0.4907 -0.0903 -0.6670
  902MOL0     C21668   5.428   4.875   9.065 -0.0268 -0.0582 -0.2417
  902MOL0     C21669   5.447   4.993   8.995 -0.1915 -0.9651 -0.2847
  902MOL0     C21670   5.580   5.032   8.949  0.3618  0.1575  0.5476
  902MOL0     O21671   5.620   5.151   8.888 -0.4570  0.3211 -0.9474
  902MOL0     C21672   5.518   5.257   8.850  0.0862  0.8179  0.4498
  902MOL0     C21673   5.603   5.382   8.805 -0.0532  0.0380 -0.1087
  902MOL0     C21674   5.529   5.506   8.759  0.0599  0.0450  0.1524
  902MOL0     C21675   5.464   5.486   8.616 -0.4954  0.6394 -0.3082
  902MOL0     C21676   5.434   5.626   8.549  0.0254  0.5938 -1.1781
  902MOL0     C21677   5.380   5.603   8.399 -0.1407 -0.7383 -0.1555
  902MOL0     C21678   5.340   5.737   8.341 -0.8127 -1.1572  0.0131
  902MOL0     C21679   5.302   5.733   8.193  0.5776 -0.7774  0.3795
  902MOL0    Cl21680   5.419   5.637   8.096  0.1969  0.3674 -0.1166
  902MOL0     C21681   5.678   4.944   8.964  0.2844  0.5485 -0.5026
  902MOL0     C21682   5.660   4.831   9.039 -0.2692 -0.0572 -0.6321
  902MOL0     O21683   5.384   4.582   9.015  0.6922 -0.0504 -0.2825
  902MOL0     C21684   5.577   4.413   9.261 -0.1515 -0.5071  0.4883
  902MOL0     C21685   5.600   4.292   9.322 -0.2062  0.2503 -0.7337
  902MOL0     N21686   5.486   3.646   9.763 -0.4152  0.0320 -0.3028
  902MOL0     N21687   5.422   3.567   9.846  0.3637  1.0103  0.8532
  902MOL0     C21688   4.201   3.484   9.691 -0.7246  0.2831 -0.6400
  902MOL0     C21689   4.090   3.522   9.766 -0.1314 -0.8068 -1.1602
  902MOL0     C21690   3.876   3.802  10.077 -0.0769  0.4383  0.5685
  902MOL0     C21691   3.795   3.691  10.108  0.4131  0.2797 -0.7268
  902MOL0     C21692   3.686   3.707  10.196  0.3471 -0.5415 -0.5425
  902MOL0     C21693   3.669   3.836  10.251 -0.7069 -0.1941 -0.3593
  902MOL0     O21694   3.569   3.846  10.353 -0.9227  0.2339  0.0051
  902MOL0     C21695   3.520   3.970  10.396  0.2887 -0.5407  0.2345
  902MOL0     C21696   3.363   3.948  10.416  0.5243  0.5175 -0.0634
  902MOL0     C21697   3.305   3.920  10.269 -1.0825  0.4741  1.0374
  902MOL0     C21698   3.164   3.863  10.244 -0.1808 -0.1971  0.2092
  902MOL0     C21699   3.064   3.971  10.265 -0.1072  0.1355 -0.8217
  902MOL0     C21700   2.988   4.056  10.266  0.4779 -0.3122 -0.3217
  902MOL0     C21701   3.765   3.941  10.237  0.0548  0.7150 -0.2419
  902MOL0     C21702   3.864   3.922  10.148 -0.9781  0.1720  1.0780
  902MOL0     H21703   4.177   3.854   9.805  5.2567  1.5731 -0.7388
  902MOL0     H21704   4.330   3.798   9.636 -1.0426  1.9683  1.3071
  902MOL0     H21705   4.391   3.370   9.460  0.6011  0.8198 -2.0549
  902MOL0     H21706   4.547   3.448   9.477  1.6230  0.1550  2.4399
  902MOL0     H21707   4.402   3.324   9.702  0.4748  0.1279  0.3686
  902MOL0     H21708   4.554   3.275   9.632  1.1954 -0.3039  4.6228
  902MOL0     H21709   4.548   3.544   9.781 -1.9086 -0.9498  1.2016
  902MOL0     H21710   4.577   3.393   9.865  0.2693  1.0377  0.2235
  902MOL0     H21711   4.753   3.355   9.660  0.6946 -1.9194  3.8788
  902MOL0     H21712   4.723   3.525   9.623  3.3344  0.2942 -0.0156
  902MOL0     H21713   4.802   3.592   9.826 -1.5462 -0.4559  0.2528
  902MOL0     H21714   4.818   3.426   9.890  1.4358  1.0954  2.1136
  902MOL0     H21715   4.984   3.398   9.678 -0.6186  0.1539 -0.5645
  902MOL0     H21716   4.983   3.570   9.672 -1.7464  1.8582  2.0195
  902MOL0     H21717   5.096   3.615   9.864 -1.5762  0.2651 -1.7850
  902MOL0     H21718   5.024   3.490   9.957 -1.0927  2.3195 -0.7777
  902MOL0     H21719   5.178   3.349   9.800  1.8247 -0.0375 -0.2025
  902MOL0     H21720   5.250   3.419   9.947  1.4006  2.2641 -0.6335
  902MOL0     H21721   5.259   3.526   9.560  1.3375 -1.3635 -0.3989
  902MOL0     H21722   5.502   3.629   9.435  1.1217 -0.7870  0.8885
  902MOL0     H21723   5.389   3.762   9.454 -0.0144  0.1442 -0.7164
  902MOL0     H21724   5.679   3.729   9.559 -2.2836  0.2583  3.2776
  902MOL0     H21725   5.591   3.876   9.588  1.4155  1.7278 -1.8233
  902MOL0     H21726   5.681   3.769   9.309  0.2979  0.4566 -0.5313
  902MOL0     H21727   5.754   3.900   9.386  0.6702  1.1239 -1.6194
  902MOL0     H21728   5.468   3.882   9.286 -1.2733  2.7188 -5.0450
  902MOL0     H21729   5.599   3.964   9.201 -3.3583  3.7688  0.7745
  902MOL0     H21730   5.351   4.111   9.180  2.6186 -3.3050 -1.2341
  902MOL0     H21731   5.287   4.363   8.959 -2.2413  1.4913  0.2093
  902MOL0     H21732   5.223   4.221   9.039  1.7531  0.3658 -2.9552
  902MOL0     H21733   5.178   4.389   9.097 -3.2666 -1.2052 -1.3345
  902MOL0     H21734   5.329   4.851   9.102 -0.5362  2.0496 -0.1053
  902MOL0     H21735   5.363   5.056   8.967 -1.7333 -3.1492 -0.7976
  902MOL0     H21736   5.453   5.228   8.767 -0.4747 -0.5672  1.3355
  902MOL0     H21737   5.453   5.266   8.938 -1.6165  0.8518 -0.7599
  902MOL0     H21738   5.663   5.424   8.886 -1.1313  0.7808  0.3273
  902MOL0     H21739   5.682   5.352   8.735  1.5659  2.3420  0.5953
  902MOL0     H21740   5.584   5.600   8.762 -1.3515  0.9232 -0.2178
  902MOL0     H21741   5.446   5.527   8.827  0.0655  0.0979  0.1437
  902MOL0     H21742   5.535   5.432   8.552 -0.1401 -0.7327  1.1819
  902MOL0     H21743   5.368   5.436   8.627 -0.6584  0.5996 -1.6935
  902MOL0     H21744   5.519   5.696   8.552  0.4378  0.0731 -0.3646
  902MOL0     H21745   5.352   5.674   8.604  1.0667 -2.5812  3.8198
  902MOL0     H21746   5.456   5.546   8.345  1.1670 -0.6416  1.5081
  902MOL0     H21747   5.288   5.545   8.390  0.5233 -1.5240 -2.5215
  902MOL0     H21748   5.428   5.800   8.340 -0.2589 -1.8577 -2.3868
  902MOL0     H21749   5.264   5.783   8.405 -0.3286  2.7489 -1.9575
  902MOL0     H21750   5.296   5.838   8.161  0.5916 -0.8516  0.1335
  902MOL0     H21751   5.200   5.701   8.172  0.1792  1.4028 -1.4234
  902MOL0     H21752   5.782   4.963   8.939  1.0643 -1.8207  0.6948
  902MOL0     H21753   5.749   4.774   9.064  0.4328  0.7474 -1.2285
  902MOL0     H21754   5.633   4.499   9.297 -0.0611  0.1426 -1.0839
  902MOL0     H21755   5.676   4.284   9.399 -1.0667  0.8361  0.1948
  902MOL0     H21756   4.200   3.382   9.653  0.6484 -0.4558  1.1163
  902MOL0     H21757   4.019   3.450   9.805 -0.6462 -1.1034 -2.5760
  902MOL0     H21758   3.802   3.590  10.069  1.0242  0.0648 -0.0807
  902MOL0     H21759   3.621   3.625  10.221 -1.3830  0.5183 -1.3557
  902MOL0     H21760   3.564   4.005  10.489 -0.8127 -0.1108  0.6136
  902MOL0     H21761   3.541   4.046  10.321  1.2273 -0.2400  0.7867
  902MOL0     H21762   3.303   4.030  10.458 -1.4365 -1.0927  0.4602
  902MOL0     H21763   3.355   3.858  10.477  0.1946 -0.1533 -1.0805
  902MOL0     H21764   3.372   3.846  10.226 -1.1062  0.6181  0.7486
  902MOL0     H21765   3.312   4.017  10.218 -3.1455  0.6682  1.0194
  902MOL0     H21766   3.149   3.774  10.306 -3.3187  0.4358  0.5609
  902MOL0     H21767   3.157   3.830  10.140  2.9139  2.2799 -0.9599
  902MOL0     H21768   2.920   4.138  10.267  1.9526  0.9936 -1.8117
  902MOL0     H21769   3.766   4.026  10.305  0.5652 -1.4054  2.5713
  902MOL0     H21770   3.931   4.007  10.142 -0.4825  0.2351  5.1135
  903MOL0     O21771  10.576   1.935   1.894 -0.8042  1.0601  0.5399
  903MOL0     C21772  10.461   1.975   1.891  0.3517  0.1219 -0.6852
  903MOL0     O21773  10.375   1.965   1.994  0.1789 -0.7615  0.2306
  903MOL0     C21774  10.404   1.892   2.107 -0.0797  0.4000 -0.5217
  903MOL0     C21775  10.371   1.954   2.231 -0.2287  0.0208  0.3078
  903MOL0     C21776  10.399   1.897   2.355  0.5381  0.8438  0.2116
  903MOL0     C21777  10.469   1.777   2.353 -0.2246 -0.3544  1.2373
  903MOL0     O21778  10.505   1.724   2.474  1.2293 -0.9554 -0.4913
  903MOL0     C21779  10.563   1.811   2.571 -1.0790 -0.5063  1.3353
  903MOL0     C21780  10.703   1.757   2.616  0.2087  0.5659 -1.3574
  903MOL0     C21781  10.794   1.734   2.492 -0.1598  0.4932 -0.8591
  903MOL0     C21782  10.831   1.868   2.433 -0.0368  0.4276 -0.9582
  903MOL0     C21783  10.930   1.854   2.321 -0.5062 -0.2511  0.8001
  903MOL0     C21784  10.851   1.839   2.189  0.7015  1.2232  0.5860
  903MOL0     C21785  10.961   1.857   2.073 -0.3827  0.8583 -0.2145
  903MOL0     C21786  11.055   1.731   2.050  0.7761 -0.1541 -0.2278
  903MOL0     N21787  10.980   1.604   2.008 -1.1328 -0.7859 -0.2407
  903MOL0     C21788  10.928   1.593   1.885 -0.2984  0.3421  0.4270
  903MOL0     C21789  10.860   1.481   1.893 -0.1114  0.8429  0.4987
  903MOL0     C21790  10.768   1.414   1.790  0.4349  0.6680 -0.2313
  903MOL0     C21791  10.808   1.279   1.731 -0.3740 -0.7255 -0.0694
  903MOL0     C21792  10.947   1.284   1.678  0.0061  1.4174  0.0373
  903MOL0     C21793  10.988   1.154   1.601 -0.1019  0.0536  0.1590
  903MOL0     O21794  10.907   1.151   1.485  0.6971  0.0627  0.5141
  903MOL0     C21795  10.955   1.137   1.360 -0.0126 -1.0526 -0.3571
  903MOL0     C21796  10.854   1.126   1.261  0.4655  1.1584 -0.5992
  903MOL0     C21797  10.881   1.084   1.126 -0.3774  0.4340  0.4221
  903MOL0     C21798  10.760   1.090   1.024 -0.6174  0.7358  0.4232
  903MOL0     C21799  11.010   1.041   1.104  0.7105 -0.0141 -0.0999
  903MOL0     C21800  11.049   0.962   0.977  0.6769 -0.9372 -0.0160
  903MOL0     O21801  11.189   0.968   0.944  0.2957 -0.3338 -0.2318
  903MOL0     C21802  11.225   0.911   0.822 -1.1790 -0.4845  0.6057
  903MOL0     C21803  11.256   0.775   0.806  0.2111  0.1351  0.4128
  903MOL0     C21804  11.317   0.739   0.680  0.1012  0.1370 -1.0241
  903MOL0     C21805  11.347   0.826   0.577  0.8683 -1.3844 -0.4892
  903MOL0     O21806  11.417   0.797   0.463  0.7094  0.1083 -0.9489
  903MOL0     C21807  11.387   0.673   0.390 -0.0189 -0.4650 -0.0009
  903MOL0     C21808  11.282   0.716   0.287  0.2072  0.8324 -0.6221
  903MOL0     C21809  11.353   0.745   0.155  0.3323  0.5664  0.7198
  903MOL0     C21810  11.245   0.782   0.058 -0.9316 -0.9519 -0.6050
  903MOL0     C21811  11.297   0.842  -0.062  0.0506  1.1770 -0.0037
  903MOL0     C21812  11.376   0.969  -0.050 -1.3558 -0.5404 -0.7844
  903MOL0     C21813  11.413   1.026  -0.189  0.0106  0.0752 -0.2875
  903MOL0     C21814  11.522   1.131  -0.174 -0.5824 -0.6386 -1.5684
  903MOL0    Cl21815  11.681   1.055  -0.156  0.4346  0.4482  0.3923
  903MOL0     C21816  11.322   0.958   0.604 -0.0720  0.7481  0.6224
  903MOL0     C21817  11.254   1.004   0.722 -0.6492 -0.5562 -0.1035
  903MOL0     O21818  10.966   0.902   0.908  0.3775  0.7618 -0.0121
  903MOL0     C21819  11.113   1.063   1.196  0.2137 -0.3935  0.3362
  903MOL0     C21820  11.090   1.109   1.323  0.2733 -1.0108 -0.2698
  903MOL0     N21821  10.887   1.413   2.008 -0.6702 -0.4555 -0.3274
  903MOL0     N21822  10.970   1.485   2.076  0.2759 -0.8955 -0.6522
  903MOL0     C21823  10.501   1.706   2.232 -0.7490  0.0654  0.1835
  903MOL0     C21824  10.471   1.776   2.112 -0.6012  0.3173 -0.2991
  903MOL0     C21825  10.425   2.059   1.783 -0.2081 -0.8914 -0.2043
  903MOL0     C21826  10.511   2.067   1.675  0.3918  0.2205  1.0227
  903MOL0     C21827  10.488   2.150   1.568  0.7207 -0.0975  0.4990
  903MOL0     C21828  10.380   2.249   1.570 -0.2194 -0.0477  0.1834
  903MOL0     O21829  10.358   2.344   1.473  0.4976  0.0571 -0.2046
  903MOL0     C21830  10.452   2.360   1.365  0.1888 -0.4557 -0.2025
  903MOL0     C21831  10.396   2.452   1.255 -1.3768  0.9018  0.1254
  903MOL0     C21832  10.367   2.580   1.310  0.9164  0.2067  0.2421
  903MOL0     C21833  10.223   2.639   1.282 -0.2446 -0.0715 -0.7470
  903MOL0     C21834  10.196   2.772   1.349 -0.9850  0.3837  0.2501
  903MOL0     C21835  10.156   2.875   1.398  0.0442  1.1922  0.8043
  903MOL0     C21836  10.294   2.238   1.679  0.2083  0.0331  0.5078
  903MOL0     C21837  10.319   2.157   1.785  0.3304  0.9759 -0.1191
  903MOL0     H21838  10.316   2.048   2.225 -0.6165 -0.1229  1.3477
  903MOL0     H21839  10.377   1.951   2.447 -1.0411 -1.2197  1.1380
  903MOL0     H21840  10.574   1.911   2.528  0.9195 -1.6363 -1.0117
  903MOL0     H21841  10.506   1.834   2.661 -2.3048 -0.5223  0.5813
  903MOL0     H21842  10.747   1.814   2.699  0.9084 -0.5082 -0.9697
  903MOL0     H21843  10.682   1.659   2.661  1.4774  0.8677 -0.0373
  903MOL0     H21844  10.886   1.678   2.512 -0.7578 -0.0565  0.5405
  903MOL0     H21845  10.750   1.658   2.426  3.8050 -4.3857  1.4177
  903MOL0     H21846  10.745   1.918   2.389 -0.8818  0.5503  0.7841
  903MOL0     H21847  10.878   1.931   2.509 -1.0204  2.0381 -1.6403
  903MOL0     H21848  10.994   1.942   2.313  1.0224 -1.4679 -1.2740
  903MOL0     H21849  10.983   1.759   2.331 -1.0168 -0.5763  0.4669
  903MOL0     H21850  10.790   1.749   2.182  0.7466  1.2324 -0.0228
  903MOL0     H21851  10.780   1.919   2.165  2.1485  2.3585 -0.1083
  903MOL0     H21852  10.907   1.854   1.978  1.1793 -1.3891 -1.1060
  903MOL0     H21853  11.007   1.953   2.098 -0.0128  0.7914 -0.6387
  903MOL0     H21854  11.090   1.695   2.147 -1.2421 -0.3708  0.4743
  903MOL0     H21855  11.142   1.749   1.987  0.9079 -0.7569 -0.2201
  903MOL0     H21856  10.935   1.673   1.811 -0.3504 -0.7653 -0.8145
  903MOL0     H21857  10.666   1.394   1.825  0.8962 -0.6338  0.4142
  903MOL0     H21858  10.770   1.494   1.716  2.3685 -0.0499 -1.0183
  903MOL0     H21859  10.738   1.258   1.649 -1.8867 -0.8387  1.2200
  903MOL0     H21860  10.783   1.203   1.805  1.1931 -0.8948  0.3286
  903MOL0     H21861  11.016   1.298   1.762 -1.1371  3.0063  0.7846
  903MOL0     H21862  10.961   1.372   1.615 -1.5778  1.6140 -0.0940
  903MOL0     H21863  10.977   1.065   1.663 -1.0459  1.8876  2.8136
  903MOL0     H21864  11.094   1.167   1.574 -0.1067  1.7391  0.7769
  903MOL0     H21865  10.757   1.160   1.295 -1.2784 -1.1823 -2.8474
  903MOL0     H21866  10.803   1.080   0.924  1.9152 -0.5675  1.5529
  903MOL0     H21867  10.688   1.009   1.040  3.0929 -2.3523  3.6765
  903MOL0     H21868  10.711   1.188   1.027  0.3627  1.3000 -0.7787
  903MOL0     H21869  11.239   0.706   0.887 -0.2427  0.5240  0.6542
  903MOL0     H21870  11.325   0.631   0.670  0.4596 -0.1310  1.3347
  903MOL0     H21871  11.476   0.638   0.337  0.0021 -0.4603  0.0314
  903MOL0     H21872  11.341   0.588   0.441 -2.0479 -1.2496 -2.8369
  903MOL0     H21873  11.223   0.629   0.260  0.2382  0.3202  0.8368
  903MOL0     H21874  11.207   0.789   0.320 -0.8332  0.7222 -2.5760
  903MOL0     H21875  11.399   0.654   0.115  0.5209  1.4280 -1.0936
  903MOL0     H21876  11.430   0.814   0.190  1.2169 -1.0077  1.9968
  903MOL0     H21877  11.186   0.693   0.032 -0.8870 -1.1651  0.0010
  903MOL0     H21878  11.174   0.853   0.100 -0.2310 -0.4534 -0.2465
  903MOL0     H21879  11.213   0.857  -0.129  1.5142 -0.0005 -2.2531
  903MOL0     H21880  11.360   0.768  -0.114  2.3568  1.7617  1.7765
  903MOL0     H21881  11.310   1.036   0.005 -0.1296 -1.1741  1.5984
  903MOL0     H21882  11.462   0.943   0.013 -0.2393 -1.7188 -2.6724
  903MOL0     H21883  11.327   1.077  -0.234  1.4560  0.6237 -2.5883
  903MOL0     H21884  11.453   0.956  -0.262 -3.1210 -0.3112 -1.8158
  903MOL0     H21885  11.514   1.199  -0.089 -0.0707 -2.0584 -0.3263
  903MOL0     H21886  11.519   1.193  -0.264 -1.2136 -0.6691 -1.5711
  903MOL0     H21887  11.355   1.036   0.535  0.0845 -0.5572 -0.8395
  903MOL0     H21888  11.256   1.109   0.749  1.8163 -0.2286 -1.2811
  903MOL0     H21889  11.216   1.036   1.178  1.4375  5.2110 -3.6132
  903MOL0     H21890  11.170   1.105   1.395 -0.2979 -1.5876  0.3508
  903MOL0     H21891  10.546   1.608   2.226 -1.5208 -0.4303  1.8310
  903MOL0     H21892  10.493   1.734   2.014 -1.3768  0.3696 -0.5034
  903MOL0     H21893  10.607   2.016   1.674  2.7348  3.7091  5.4623
  903MOL0     H21894  10.554   2.159   1.483  0.8467 -1.3102  0.4526
  903MOL0     H21895  10.547   2.395   1.407  1.0300 -2.5620 -0.2412
  903MOL0     H21896  10.469   2.262   1.319  1.3020 -1.5036  2.2712
  903MOL0     H21897  10.318   2.391   1.209  1.6592 -4.0915  0.8104
  903MOL0     H21898  10.470   2.468   1.177 -1.7790  0.0349 -0.4494
  903MOL0     H21899  10.437   2.648   1.261 -1.7151  2.2427 -0.9052
  903MOL0     H21900  10.395   2.586   1.416  0.1276  2.2792  0.3823
  903MOL0     H21901  10.163   2.564   1.334  1.7080 -1.7593 -0.7939
  903MOL0     H21902  10.206   2.655   1.175 -0.7178  3.0967 -0.3142
  903MOL0     H21903  10.111   2.961   1.444 -4.6865  0.0716 -1.1905
  903MOL0     H21904  10.210   2.307   1.673 -0.1807 -0.4435  0.3952
  903MOL0     H21905  10.247   2.156   1.866 -1.2140 -4.1979 -1.1911
  904MOL0     O21906   9.969  11.262  10.309 -0.2990  0.6581 -0.3091
  904MOL0     C21907   9.863  11.322  10.292 -1.6753 -0.4445 -1.0671
  904MOL0     O21908   9.749  11.297  10.372 -1.9657  0.6195  0.2769
  904MOL0     C21909   9.724  11.166  10.409  0.0849  0.6320  0.3835
  904MOL0     C21910   9.659  11.155  10.535  0.4143 -0.1655  0.3684
  904MOL0     C21911   9.620  11.032  10.588 -0.0155 -0.6406 -0.5218
  904MOL0     C21912   9.654  10.917  10.514 -0.0986  0.4902  0.7202
  904MOL0     O21913   9.635  10.798  10.561 -0.1493  0.3528  0.0068
  904MOL0     C21914   9.535  10.771  10.665  0.1519  0.6184  0.3597
  904MOL0     C21915   9.606  10.775  10.799  0.6402 -0.3363 -0.1218
  904MOL0     C21916   9.506  10.749  10.915 -0.3518 -0.9831  0.4961
  904MOL0     C21917   9.428  10.866  10.970 -0.2403 -0.0984 -0.1498
  904MOL0     C21918   9.325  10.846  11.077 -0.0202 -0.3923 -0.8417
  904MOL0     C21919   9.282  10.984  11.142 -0.0529  0.1277  0.3457
  904MOL0     C21920   9.150  10.963  11.227  0.1975  0.1793  0.4043
  904MOL0     C21921   9.085  11.094  11.272 -0.7437 -0.2086  0.1954
  904MOL0     N21922   8.991  11.137  11.165 -0.0369 -0.6511 -0.1685
  904MOL0     C21923   9.001  11.254  11.089  0.0388 -0.1172  0.1377
  904MOL0     C21924   8.875  11.278  11.049  0.8755  0.2496  0.1926
  904MOL0     C21925   8.822  11.398  10.982 -0.6943  1.0543 -0.1898
  904MOL0     C21926   8.676  11.429  10.998 -0.5086 -0.3137 -0.2794
  904MOL0     C21927   8.643  11.440  11.148  0.4721 -1.0710 -0.2275
  904MOL0     C21928   8.497  11.465  11.165  0.5372  0.2343 -0.3034
  904MOL0     O21929   8.408  11.365  11.107 -1.1550  0.5250  0.0005
  904MOL0     C21930   8.402  11.255  11.189  0.8855 -0.6647  0.4168
  904MOL0     C21931   8.313  11.259  11.294 -0.5552 -0.3818 -0.6950
  904MOL0     C21932   8.290  11.137  11.371  0.8101  0.8231 -0.0012
  904MOL0     C21933   8.179  11.142  11.465 -0.9109  0.0690  0.7014
  904MOL0     C21934   8.372  11.022  11.344 -0.5203 -0.0589 -0.7202
  904MOL0     C21935   8.362  10.897  11.413  0.5978 -0.5743 -0.4490
  904MOL0     O21936   8.283  10.814  11.354  0.0478 -0.3524 -0.1547
  904MOL0     C21937   8.232  10.707  11.413  0.2422  0.5698 -0.0479
  904MOL0     C21938   8.108  10.723  11.486 -0.0541 -0.9223 -0.6745
  904MOL0     C21939   8.058  10.620  11.562 -0.1872 -0.9896 -0.1986
  904MOL0     C21940   8.126  10.497  11.564  0.1125  0.5795  0.2438
  904MOL0     O21941   8.063  10.400  11.633  0.6381  0.0986 -0.7814
  904MOL0     C21942   8.128  10.279  11.660 -0.7910 -0.8152  0.5214
  904MOL0     C21943   8.049  10.172  11.729 -0.6206 -0.0176  0.4328
  904MOL0     C21944   8.140  10.045  11.741 -0.1642 -0.4418  0.1619
  904MOL0     C21945   8.050   9.937  11.803 -0.4024  0.2716  0.4260
  904MOL0     C21946   8.028   9.956  11.948 -0.0242  0.5199 -0.3781
  904MOL0     C21947   7.953   9.826  12.006 -0.5689 -0.2707 -0.0631
  904MOL0     C21948   7.888   9.850  12.137 -0.6059 -0.0406  0.2661
  904MOL0     C21949   7.740   9.892  12.136 -0.2636 -0.4082  0.4184
  904MOL0    Cl21950   7.704  10.047  12.067  0.3946  0.1301 -0.0476
  904MOL0     C21951   8.245  10.482  11.484 -0.0481  0.2248  0.9119
  904MOL0     C21952   8.304  10.586  11.410  0.0324 -0.2373 -0.7615
  904MOL0     O21953   8.444  10.873  11.504  0.3716 -0.0147 -0.1858
  904MOL0     C21954   8.473  11.032  11.240  0.3164  0.3956  1.0817
  904MOL0     C21955   8.490  11.141  11.154 -0.4873 -0.0100 -0.2482
  904MOL0     N21956   8.816  11.163  11.073 -0.0079  1.1279 -0.4536
  904MOL0     N21957   8.886  11.075  11.137 -0.3857  0.7531  0.2594
  904MOL0     C21958   9.720  10.925  10.390 -0.9683 -0.4161 -0.2750
  904MOL0     C21959   9.764  11.048  10.345 -1.0515 -0.4054  0.1445
  904MOL0     C21960   9.875  11.433  10.196 -0.3460 -0.4819  0.6474
  904MOL0     C21961   9.997  11.491  10.145  0.9293  0.5992  0.7792
  904MOL0     C21962   9.977  11.582  10.046  0.1175 -0.4898 -0.6763
  904MOL0     C21963   9.856  11.616   9.989 -0.2993 -0.7456  0.5896
  904MOL0     O21964   9.847  11.703   9.884 -0.1147  0.1928 -0.1627
  904MOL0     C21965   9.956  11.731   9.799  0.2206 -0.4968 -0.2274
  904MOL0     C21966   9.975  11.625   9.694  0.2938 -1.1457  0.6380
  904MOL0     C21967  10.075  11.664   9.575 -0.1790  0.7317  0.2202
  904MOL0     C21968  10.009  11.698   9.445 -0.2557  0.5531 -0.4702
  904MOL0     C21969  10.101  11.784   9.377  0.1780  0.0831 -0.2972
  904MOL0     C21970  10.192  11.859   9.321  0.5085 -0.1729 -0.7226
  904MOL0     C21971   9.740  11.562  10.040 -0.8064  0.5746 -0.5500
  904MOL0     C21972   9.756  11.469  10.141  0.8839  0.1612  0.3190
  904MOL0     H21973   9.644  11.247  10.590  0.6093 -1.6664  3.0731
  904MOL0     H21974   9.570  11.028  10.685 -3.3025 -4.7334 -2.0811
  904MOL0     H21975   9.444  10.831  10.650  0.8560  1.1928 -2.0531
  904MOL0     H21976   9.495  10.671  10.646  2.5772 -0.5768  1.2474
  904MOL0     H21977   9.683  10.698  10.807 -0.8235 -2.1157 -2.2898
  904MOL0     H21978   9.653  10.872  10.823 -1.8711  0.3521  2.5723
  904MOL0     H21979   9.438  10.676  10.870  1.3189 -0.2500 -3.6408
  904MOL0     H21980   9.561  10.706  10.999  2.0125 -0.3201 -0.6406
  904MOL0     H21981   9.503  10.930  11.016  0.1714 -1.1388  0.6752
  904MOL0     H21982   9.374  10.913  10.887  0.2067  0.9449  0.1300
  904MOL0     H21983   9.242  10.789  11.034  1.8057 -0.4270 -4.7792
  904MOL0     H21984   9.362  10.785  11.160 -1.8785  1.7756  1.7352
  904MOL0     H21985   9.360  11.033  11.201 -0.5385  1.8871 -0.4231
  904MOL0     H21986   9.267  11.048  11.055 -1.0392 -1.5266 -0.7533
  904MOL0     H21987   9.080  10.903  11.168  1.2029  0.2329 -0.9017
  904MOL0     H21988   9.190  10.912  11.315  2.8903  0.6754 -0.4309
  904MOL0     H21989   9.159  11.173  11.291 -0.1725 -0.9109  0.9463
  904MOL0     H21990   9.029  11.071  11.363  0.8649  0.4579  1.4237
  904MOL0     H21991   9.087  11.319  11.074 -0.7967  0.4070 -3.4868
  904MOL0     H21992   8.887  11.479  11.016 -0.8766  1.0673  0.1370
  904MOL0     H21993   8.843  11.382  10.876  1.2021 -1.5854  0.4735
  904MOL0     H21994   8.613  11.350  10.955  0.6696 -0.2353 -2.2782
  904MOL0     H21995   8.661  11.530  10.958 -0.7258  0.0165  0.5937
  904MOL0     H21996   8.699  11.521  11.194  0.8000 -0.9705 -0.7941
  904MOL0     H21997   8.659  11.351  11.209 -0.2951 -1.3173 -0.3695
  904MOL0     H21998   8.475  11.562  11.119  0.4246  0.3177 -0.0787
  904MOL0     H21999   8.478  11.467  11.273 -1.5122 -1.2771 -0.5621
  904MOL0     H22000   8.262  11.351  11.319 -0.0147 -0.2825  0.1049
  904MOL0     H22001   8.093  11.194  11.422  2.0725  5.1052 -0.0739
  904MOL0     H22002   8.162  11.038  11.493  0.7616 -0.2682  0.6018
  904MOL0     H22003   8.208  11.197  11.555 -1.3452 -1.5348  1.8541
  904MOL0     H22004   8.045  10.811  11.476  1.3615 -0.0815 -3.0940
  904MOL0     H22005   7.978  10.632  11.635  0.7284  0.0147  0.6629
  904MOL0     H22006   8.160  10.252  11.559 -2.0657 -0.1565 -0.0805
  904MOL0     H22007   8.206  10.309  11.731  0.8162 -3.9608  0.2552
  904MOL0     H22008   8.007  10.217  11.820 -4.2321  0.9608 -1.5107
  904MOL0     H22009   7.969  10.147  11.659  1.4495 -0.8432 -1.7493
  904MOL0     H22010   8.228  10.074  11.799  2.1993  1.9236 -4.1510
  904MOL0     H22011   8.184  10.014  11.646  0.1226 -1.8062  0.7227
  904MOL0     H22012   7.957   9.932  11.746  0.1440  0.3093 -0.4901
  904MOL0     H22013   8.110   9.848  11.783 -2.0532 -0.0873 -4.0489
  904MOL0     H22014   7.967  10.044  11.970 -0.3293  0.7019 -1.8215
  904MOL0     H22015   8.126   9.957  11.996 -1.2666  1.7895  2.3620
  904MOL0     H22016   7.877   9.792  11.936  1.0802 -1.9101 -1.1500
  904MOL0     H22017   8.016   9.737  11.999  1.1748  1.0488 -2.4929
  904MOL0     H22018   7.939   9.926  12.197 -0.7714  1.3489 -1.2839
  904MOL0     H22019   7.895   9.754  12.188  1.4903  0.1746  0.4347
  904MOL0     H22020   7.697   9.897  12.236 -2.2388 -1.5393 -0.3066
  904MOL0     H22021   7.686   9.811  12.086 -2.3820 -0.0986  2.0826
  904MOL0     H22022   8.298  10.388  11.474  0.4730  0.4657  1.3420
  904MOL0     H22023   8.388  10.581  11.342  1.1921 -4.1808  0.7071
  904MOL0     H22024   8.544  10.951  11.222 -0.0800  0.7314 -2.7964
  904MOL0     H22025   8.567  11.144  11.078  0.4452 -0.8495  0.6235
  904MOL0     H22026   9.741  10.833  10.337  1.0691 -0.8084  1.1424
  904MOL0     H22027   9.829  11.047  10.259 -0.4347 -4.0172  0.4851
  904MOL0     H22028  10.099  11.471  10.176  0.5065 -0.9557  1.2208
  904MOL0     H22029  10.069  11.624  10.007  0.2658 -2.1963 -2.2662
  904MOL0     H22030   9.937  11.830   9.755 -1.9241 -0.8822 -0.2954
  904MOL0     H22031  10.047  11.742   9.858 -0.5627  0.1979  0.9031
  904MOL0     H22032   9.874  11.600   9.662 -1.1524  0.2932  3.7125
  904MOL0     H22033  10.015  11.549   9.762 -1.5529 -1.3939  1.4972
  904MOL0     H22034  10.129  11.575   9.540 -2.1735 -1.1978  1.7394
  904MOL0     H22035  10.156  11.722   9.620  1.0473 -0.1657 -0.7487
  904MOL0     H22036   9.916  11.751   9.469 -1.5004 -2.1640  1.1361
  904MOL0     H22037   9.995  11.604   9.391  0.3727 -0.1092  0.4912
  904MOL0     H22038  10.273  11.917   9.280  0.9060 -0.7583 -0.7685
  904MOL0     H22039   9.642  11.596  10.008 -2.2168 -2.6423 -0.0000
  904MOL0     H22040   9.666  11.426  10.185 -0.6992  0.4261 -2.4862
  905MOL0     O22041   3.496   6.475   9.693 -0.2871  0.2177  0.6144
  905MOL0     C22042   3.415   6.461   9.601 -0.0235 -0.1407 -0.7330
  905MOL0     O22043   3.291   6.412   9.618 -0.6205 -0.7869 -0.1861
  905MOL0     C22044   3.253   6.358   9.742 -0.2296  0.0166  0.1680
  905MOL0     C22045   3.336   6.297   9.840 -0.6235 -0.2273  0.3668
  905MOL0     C22046   3.304   6.259   9.977 -0.0164 -0.0727 -0.1341
  905MOL0     C22047   3.172   6.277  10.018  0.3322  0.2884  0.1096
  905MOL0     O22048   3.112   6.259  10.143 -1.0056 -0.2777  0.8323
  905MOL0     C22049   3.182   6.292  10.267  0.5396 -0.1354 -0.3988
  905MOL0     C22050   3.163   6.448  10.270 -0.2756 -1.1636  0.9305
  905MOL0     C22051   3.158   6.500  10.405  0.8045  0.0734 -0.1582
  905MOL0     C22052   3.133   6.653  10.406 -0.9043  0.5178  0.2698
  905MOL0     C22053   3.118   6.717  10.541 -0.0722  0.6958 -0.1145
  905MOL0     C22054   2.993   6.675  10.629 -0.6843 -0.3776  0.0599
  905MOL0     C22055   2.855   6.736  10.599 -0.3734 -0.5584 -0.2753
  905MOL0     C22056   2.801   6.672  10.468 -1.0145  0.1918 -0.1560
  905MOL0     N22057   2.655   6.682  10.462 -0.1538  0.0624  0.0113
  905MOL0     C22058   2.569   6.631  10.553 -0.5835 -0.7787 -0.6154
  905MOL0     C22059   2.450   6.665  10.514  0.8542 -0.7867 -0.7259
  905MOL0     C22060   2.311   6.635  10.569  0.7281 -0.9831 -0.1890
  905MOL0     C22061   2.261   6.491  10.579 -0.2692 -0.2046  0.8213
  905MOL0     C22062   2.132   6.492  10.675  0.2249  0.0813 -0.2546
  905MOL0     C22063   2.097   6.349  10.721 -0.8241 -0.3148 -0.5732
  905MOL0     O22064   1.996   6.366  10.814  0.4733  0.0842  0.3740
  905MOL0     C22065   1.928   6.253  10.849 -0.6025  0.5793  0.0667
  905MOL0     C22066   1.979   6.123  10.847  0.4690  0.0511  1.2531
  905MOL0     C22067   1.895   6.010  10.887  1.1564 -0.8482 -0.1150
  905MOL0     C22068   1.964   5.881  10.925 -0.1084 -0.2392 -0.4406
  905MOL0     C22069   1.757   6.027  10.922  0.2929 -0.2332 -0.5728
  905MOL0     C22070   1.670   5.913  10.973  0.2652 -0.7463  0.7048
  905MOL0     O22071   1.568   5.938  11.054  0.0218  1.0151  0.1294
  905MOL0     C22072   1.505   5.834  11.104 -0.9523 -0.0322 -0.3796
  905MOL0     C22073   1.383   5.799  11.051 -0.8954  0.1517  0.0211
  905MOL0     C22074   1.325   5.681  11.100  0.1519  0.2541  0.1339
  905MOL0     C22075   1.386   5.608  11.191 -0.4329  0.4719 -0.2966
  905MOL0     O22076   1.328   5.491  11.236  0.1546 -0.2159  0.2966
  905MOL0     C22077   1.365   5.432  11.367 -0.3253  0.1025 -0.1222
  905MOL0     C22078   1.251   5.349  11.425  0.4444 -0.3912 -0.5116
  905MOL0     C22079   1.260   5.306  11.574  0.8193 -0.1538 -0.0289
  905MOL0     C22080   1.154   5.200  11.615 -0.9313 -0.9662 -0.2057
  905MOL0     C22081   1.131   5.201  11.771 -1.2518  0.1539 -0.2112
  905MOL0     C22082   1.258   5.176  11.850 -0.4474 -0.0709 -0.2843
  905MOL0     C22083   1.243   5.189  11.997 -0.1025  0.1863 -0.0246
  905MOL0     C22084   1.386   5.203  12.062  0.1238 -0.0378  0.0912
  905MOL0    Cl22085   1.497   5.325  11.989  0.0599  0.0769 -0.1381
  905MOL0     C22086   1.504   5.649  11.251  0.4938 -0.4931 -0.8904
  905MOL0     C22087   1.564   5.764  11.204  0.2271 -0.7128  0.0657
  905MOL0     O22088   1.690   5.807  10.919 -0.0360 -0.0688  0.0891
  905MOL0     C22089   1.709   6.162  10.911  1.5430  0.1145 -0.5318
  905MOL0     C22090   1.788   6.269  10.871 -0.3945 -0.1287 -0.2981
  905MOL0     N22091   2.467   6.741  10.402 -0.4514  0.0351 -0.3577
  905MOL0     N22092   2.585   6.730  10.371  0.2783 -0.3026  0.8020
  905MOL0     C22093   3.080   6.325   9.920 -0.9174 -0.1546 -0.0524
  905MOL0     C22094   3.122   6.371   9.790 -0.0728  0.6623  1.1016
  905MOL0     C22095   3.464   6.500   9.460  0.0424  0.7861 -0.6775
  905MOL0     C22096   3.368   6.536   9.370  0.0154  0.3569 -0.4516
  905MOL0     C22097   3.416   6.573   9.247 -0.0335  1.5416  0.2011
  905MOL0     C22098   3.549   6.586   9.221 -1.1164 -1.0465  0.7920
  905MOL0     O22099   3.587   6.613   9.106 -0.7843 -0.4307  0.2859
  905MOL0     C22100   3.632   6.747   9.080  0.1555  0.6559 -0.3317
  905MOL0     C22101   3.761   6.724   9.011 -0.3443 -0.8320  1.2086
  905MOL0     C22102   3.823   6.867   8.992 -0.0459  0.5242 -0.0421
  905MOL0     C22103   3.960   6.865   8.921 -0.0236 -0.2584  0.1899
  905MOL0     C22104   4.064   6.784   8.982  0.2547 -0.2325 -2.0222
  905MOL0     C22105   4.135   6.699   9.039 -0.0529 -0.1563 -0.4889
  905MOL0     C22106   3.651   6.563   9.318  0.1075  0.2575  0.6199
  905MOL0     C22107   3.607   6.519   9.444 -0.5334  0.9760  0.4848
  905MOL0     H22108   3.443   6.306   9.829 -0.8124  1.0827 -0.5412
  905MOL0     H22109   3.386   6.241  10.045 -2.4900  0.5242  3.2641
  905MOL0     H22110   3.145   6.247  10.359  1.7837  3.8632  2.3087
  905MOL0     H22111   3.283   6.251  10.253 -0.1822 -1.3820 -2.2670
  905MOL0     H22112   3.239   6.485  10.201  0.6181 -0.6437  2.1593
  905MOL0     H22113   3.067   6.477  10.228 -0.9668 -2.1949  1.7405
  905MOL0     H22114   3.076   6.444  10.451  1.9864 -0.9881  0.7262
  905MOL0     H22115   3.248   6.477  10.461 -0.4151 -0.6608  1.5806
  905MOL0     H22116   3.218   6.706  10.363 -1.5187  2.0258  0.8211
  905MOL0     H22117   3.045   6.667  10.342  1.3421  0.2897 -3.0608
  905MOL0     H22118   3.209   6.699  10.598  0.0550  0.2261 -0.4557
  905MOL0     H22119   3.111   6.822  10.511 -0.7187  0.3462 -1.2462
  905MOL0     H22120   2.990   6.567  10.646 -1.1051 -0.6299 -1.4542
  905MOL0     H22121   3.004   6.727  10.725 -2.2512  1.1610 -0.5249
  905MOL0     H22122   2.788   6.711  10.682 -2.3487 -2.9558 -2.4387
  905MOL0     H22123   2.874   6.844  10.591  3.1939 -1.1449 -2.0241
  905MOL0     H22124   2.828   6.566  10.464 -0.2343  0.4101 -2.6042
  905MOL0     H22125   2.842   6.723  10.380  0.0182 -2.1429 -1.1415
  905MOL0     H22126   2.597   6.570  10.639 -2.3869  0.6280  1.0708
  905MOL0     H22127   2.331   6.686  10.664  1.1918 -2.4254  0.5125
  905MOL0     H22128   2.232   6.694  10.521 -1.0256 -2.1477  1.1422
  905MOL0     H22129   2.334   6.423  10.623  1.0471  0.7111  0.1049
  905MOL0     H22130   2.233   6.443  10.484 -2.1769 -2.2094  2.2937
  905MOL0     H22131   2.048   6.530  10.617  0.7592  0.8980 -0.5160
  905MOL0     H22132   2.137   6.556  10.764 -2.2821  0.3553 -0.2325
  905MOL0     H22133   2.178   6.285  10.755 -1.4809 -2.3206 -2.5742
  905MOL0     H22134   2.054   6.289  10.640 -1.6413 -1.2496  0.5226
  905MOL0     H22135   2.082   6.099  10.820 -0.0848 -3.3711  1.7243
  905MOL0     H22136   1.983   5.825  10.833 -2.8790 -1.7053 -0.2594
  905MOL0     H22137   2.060   5.899  10.972  1.1908 -2.8484 -1.8949
  905MOL0     H22138   1.915   5.811  10.994  1.8376 -0.7252  0.5147
  905MOL0     H22139   1.334   5.855  10.972 -0.6861 -2.7943 -2.3451
  905MOL0     H22140   1.224   5.658  11.068  0.5863 -1.3049 -0.2375
  905MOL0     H22141   1.464   5.385  11.374 -0.9806 -1.4479 -0.9036
  905MOL0     H22142   1.356   5.511  11.441 -2.6391 -1.3230  1.2320
  905MOL0     H22143   1.158   5.406  11.423  1.1364  0.7745 -0.2455
  905MOL0     H22144   1.241   5.260  11.362  1.3541 -1.7705  1.2000
  905MOL0     H22145   1.238   5.396  11.633 -0.4514 -0.1199 -0.5055
  905MOL0     H22146   1.359   5.262  11.582  0.3831 -2.0227 -3.1720
  905MOL0     H22147   1.064   5.222  11.558  1.0867  2.0306 -2.5809
  905MOL0     H22148   1.179   5.096  11.592  0.1435 -0.5064 -1.2380
  905MOL0     H22149   1.063   5.120  11.799  0.5051 -2.3772 -2.7056
  905MOL0     H22150   1.074   5.292  11.790  1.4639  2.5634 -2.6500
  905MOL0     H22151   1.305   5.083  11.819  2.9617  1.5593 -0.4693
  905MOL0     H22152   1.328   5.254  11.818 -0.4706  0.4952  0.9778
  905MOL0     H22153   1.196   5.094  12.022 -1.0153 -0.7972 -4.5316
  905MOL0     H22154   1.180   5.274  12.024 -1.6634 -1.5716  2.2265
  905MOL0     H22155   1.441   5.109  12.049  1.3741  0.5436  0.8962
  905MOL0     H22156   1.364   5.228  12.166 -4.0003 -2.4818  0.0130
  905MOL0     H22157   1.553   5.598  11.333  1.6392  4.5425  1.9873
  905MOL0     H22158   1.657   5.802  11.246  0.2791  1.3045 -1.7648
  905MOL0     H22159   1.603   6.178  10.925  0.6459 -3.8327 -1.6417
  905MOL0     H22160   1.733   6.363  10.866  1.8130  1.2447  0.0480
  905MOL0     H22161   2.973   6.318   9.938 -0.9286  1.0854  0.4498
  905MOL0     H22162   3.048   6.394   9.714 -0.3164 -2.9197  0.0907
  905MOL0     H22163   3.263   6.521   9.393  0.5124 -1.5120  0.7920
  905MOL0     H22164   3.344   6.596   9.169 -2.5942  0.5808  2.1110
  905MOL0     H22165   3.550   6.789   9.021 -1.6022 -2.3152 -0.2116
  905MOL0     H22166   3.642   6.804   9.172  0.5977  4.3652 -2.4813
  905MOL0     H22167   3.737   6.674   8.917  1.6414 -0.5503  0.4985
  905MOL0     H22168   3.835   6.674   9.074  1.4329 -0.1854 -0.2737
  905MOL0     H22169   3.833   6.902   9.095  0.5990 -2.4493  1.0151
  905MOL0     H22170   3.758   6.935   8.936  0.8501  1.1659 -0.3311
  905MOL0     H22171   3.990   6.969   8.934  0.4995 -0.2599 -0.8723
  905MOL0     H22172   3.952   6.844   8.813  2.0706 -0.9101  0.1217
  905MOL0     H22173   4.192   6.628   9.097  3.9209 -0.7060 -4.5084
  905MOL0     H22174   3.751   6.596   9.293 -0.1097  1.3028  1.1056
  905MOL0     H22175   3.666   6.496   9.532 -2.1155 -2.4955  0.7959
  906MOL0     O22176   0.084   8.678   0.067  0.2040  0.1968 -0.4210
  906MOL0     C22177   0.139   8.792   0.081 -0.4434  0.7615  0.0441
  906MOL0     O22178   0.112   8.896   0.163 -0.2552  0.5850 -0.1761
  906MOL0     C22179   0.010   8.881   0.249  0.6445 -0.9213 -0.3979
  906MOL0     C22180  -0.124   8.899   0.216  0.1433 -0.0956  1.0754
  906MOL0     C22181  -0.229   8.867   0.301  0.0394  0.1027 -0.5675
  906MOL0     C22182  -0.192   8.810   0.424  0.5981  0.0684 -0.7181
  906MOL0     O22183  -0.283   8.772   0.519  0.3102  0.1207 -1.1215
  906MOL0     C22184  -0.416   8.752   0.480  0.8459 -0.3673  0.0039
  906MOL0     C22185  -0.426   8.634   0.375 -0.5558 -0.1229 -0.4043
  906MOL0     C22186  -0.569   8.578   0.361 -0.2845 -1.1473  0.1819
  906MOL0     C22187  -0.619   8.493   0.484 -0.3877 -0.3485  1.0776
  906MOL0     C22188  -0.758   8.445   0.439 -0.4753 -0.1785  0.2063
  906MOL0     C22189  -0.814   8.372   0.554 -0.1550 -0.9310 -1.0970
  906MOL0     C22190  -0.954   8.295   0.530 -0.3658 -1.2795  0.0948
  906MOL0     C22191  -1.004   8.227   0.655 -0.4386 -0.8233 -0.3708
  906MOL0     N22192  -1.060   8.091   0.629 -0.1825 -0.2809  0.0856
  906MOL0     C22193  -1.102   7.995   0.726  0.1813 -0.6275 -0.2627
  906MOL0     C22194  -1.174   7.909   0.649 -0.4446  0.8934  0.2198
  906MOL0     C22195  -1.259   7.788   0.686 -1.0462  0.0773 -0.6172
  906MOL0     C22196  -1.410   7.831   0.698 -0.3040  0.5124 -0.9119
  906MOL0     C22197  -1.487   7.833   0.567 -1.0148  0.7377 -0.0194
  906MOL0     C22198  -1.630   7.868   0.582 -0.9249 -0.1077  0.2170
  906MOL0     O22199  -1.662   7.992   0.653  0.5973  0.4101 -0.2929
  906MOL0     C22200  -1.600   8.111   0.631 -0.6261  0.0333  0.6232
  906MOL0     C22201  -1.552   8.154   0.502  0.1962 -0.1879 -0.4202
  906MOL0     C22202  -1.458   8.257   0.488 -0.0505 -0.3542 -0.8227
  906MOL0     C22203  -1.424   8.287   0.346 -0.0002  0.6998 -0.0720
  906MOL0     C22204  -1.436   8.346   0.594  0.1468 -0.5860 -0.7426
  906MOL0     C22205  -1.371   8.483   0.583  0.8606 -0.5883  0.3791
  906MOL0     O22206  -1.269   8.502   0.495 -0.1406 -0.1631 -0.3104
  906MOL0     C22207  -1.223   8.628   0.461  0.0064 -0.4488  0.0551
  906MOL0     C22208  -1.097   8.672   0.492 -0.6098  0.4135  0.4781
  906MOL0     C22209  -1.052   8.797   0.476 -0.0376 -0.2636 -0.4141
  906MOL0     C22210  -1.135   8.899   0.412  0.0491  0.1458  0.2730
  906MOL0     O22211  -1.082   9.023   0.384  0.9453  0.5855  0.5590
  906MOL0     C22212  -1.155   9.112   0.300  0.0915  0.2571  0.1164
  906MOL0     C22213  -1.054   9.227   0.275  0.0513  0.0123 -0.4948
  906MOL0     C22214  -1.016   9.303   0.407 -0.2934  0.7061  0.8815
  906MOL0     C22215  -0.919   9.416   0.366  0.7013 -0.0662 -0.0609
  906MOL0     C22216  -0.864   9.486   0.490 -0.2992  0.3880  0.4808
  906MOL0     C22217  -0.750   9.398   0.543 -0.0786  0.6706  0.6513
  906MOL0     C22218  -0.652   9.335   0.435 -0.1435 -0.2750  0.1928
  906MOL0     C22219  -0.511   9.306   0.492 -0.4564  0.7859  0.9061
  906MOL0    Cl22220  -0.423   9.196   0.377  0.0463 -0.2133  0.0624
  906MOL0     C22221  -1.259   8.848   0.364  0.1458  0.3054  0.2979
  906MOL0     C22222  -1.314   8.716   0.394  0.2332  0.1390  0.5430
  906MOL0     O22223  -1.407   8.572   0.663 -0.0096  0.7569  0.2923
  906MOL0     C22224  -1.491   8.304   0.724  0.5779  0.2394 -0.8741
  906MOL0     C22225  -1.566   8.190   0.743 -0.0560 -0.1079  0.3578
  906MOL0     N22226  -1.180   7.954   0.517  0.1213  0.0691  0.5994
  906MOL0     N22227  -1.103   8.062   0.505 -0.3138 -0.1831  0.1193
  906MOL0     C22228  -0.056   8.792   0.466  0.5234  0.1942 -0.5283
  906MOL0     C22229   0.050   8.827   0.374 -0.0604  0.1835 -0.0223
  906MOL0     C22230   0.254   8.810  -0.003  0.0590  0.4399  0.0895
  906MOL0     C22231   0.262   8.740  -0.125  0.3478  0.0244  0.0472
  906MOL0     C22232   0.382   8.762  -0.197  0.5583  0.6069  0.6219
  906MOL0     C22233   0.485   8.846  -0.158 -0.0536  0.1515  0.9550
  906MOL0     O22234   0.592   8.826  -0.234  0.2784  0.5986  0.0571
  906MOL0     C22235   0.718   8.901  -0.222  0.0913  1.1369  0.3977
  906MOL0     C22236   0.753   8.969  -0.356 -0.5615 -0.1242 -1.0438
  906MOL0     C22237   0.820   8.875  -0.450  0.2867  0.1803 -0.0892
  906MOL0     C22238   0.965   8.852  -0.413  0.1916  0.8128 -0.2673
  906MOL0     C22239   1.053   8.920  -0.505  0.5099 -0.8347 -0.0001
  906MOL0     C22240   1.119   8.967  -0.589 -0.3015 -1.0603  0.2710
  906MOL0     C22241   0.466   8.920  -0.039  0.3817 -0.3610  0.1926
  906MOL0     C22242   0.353   8.900   0.034 -1.1717 -1.0886  0.1352
  906MOL0     H22243  -0.145   8.934   0.115  1.1422 -0.4256  0.7383
  906MOL0     H22244  -0.333   8.886   0.277  0.2509  1.8232 -0.2433
  906MOL0     H22245  -0.471   8.735   0.573 -2.3176  0.7389 -1.5095
  906MOL0     H22246  -0.471   8.840   0.446 -0.6760 -1.8493 -1.6361
  906MOL0     H22247  -0.386   8.654   0.276 -0.5507 -1.0893 -0.6105
  906MOL0     H22248  -0.369   8.550   0.416 -0.9597 -0.8994 -1.3943
  906MOL0     H22249  -0.643   8.659   0.355 -1.3771 -1.6040  4.4028
  906MOL0     H22250  -0.568   8.533   0.262  1.2418  1.4969 -1.1120
  906MOL0     H22251  -0.550   8.410   0.504  0.4271  0.4305  1.5868
  906MOL0     H22252  -0.629   8.553   0.575 -2.7232  2.9699 -1.1466
  906MOL0     H22253  -0.819   8.534   0.425 -0.4734  0.2619  2.6004
  906MOL0     H22254  -0.765   8.389   0.345 -1.1777  0.3606 -0.0619
  906MOL0     H22255  -0.754   8.285   0.582 -0.9281 -0.5731  2.0153
  906MOL0     H22256  -0.836   8.447   0.630  2.6312 -0.8943 -0.2142
  906MOL0     H22257  -1.024   8.361   0.478  0.8069  0.0735  0.1727
  906MOL0     H22258  -0.915   8.216   0.465  1.1296  0.9541 -1.8897
  906MOL0     H22259  -1.071   8.296   0.708  2.0362  1.9352 -0.5787
  906MOL0     H22260  -0.924   8.211   0.729 -1.8154 -2.4548  0.8323
  906MOL0     H22261  -1.092   7.989   0.834 -0.3187  1.0328 -0.1029
  906MOL0     H22262  -1.244   7.695   0.630 -1.9489 -1.4198  1.5411
  906MOL0     H22263  -1.229   7.747   0.783  1.0087 -1.5301 -1.8393
  906MOL0     H22264  -1.425   7.918   0.763  0.7420 -0.7056  1.0590
  906MOL0     H22265  -1.456   7.754   0.760  1.0844  2.1576  2.4076
  906MOL0     H22266  -1.481   7.733   0.524  1.3676  2.1339 -3.3617
  906MOL0     H22267  -1.439   7.907   0.502 -0.4433  0.3889 -0.0002
  906MOL0     H22268  -1.678   7.790   0.643  0.2151 -1.2924 -0.3431
  906MOL0     H22269  -1.679   7.860   0.484 -1.5657 -1.2919  0.6028
  906MOL0     H22270  -1.570   8.092   0.415  0.5668  0.6336 -1.0965
  906MOL0     H22271  -1.471   8.383   0.324 -1.6776  1.0786  4.1387
  906MOL0     H22272  -1.314   8.292   0.342 -0.0388  1.8893 -0.0157
  906MOL0     H22273  -1.464   8.213   0.276 -2.1411 -0.0283  1.8141
  906MOL0     H22274  -1.030   8.593   0.522  0.6801  1.2624 -0.0544
  906MOL0     H22275  -0.951   8.829   0.501 -0.1120  1.0007 -1.6464
  906MOL0     H22276  -1.168   9.063   0.203  0.8839 -0.6126  0.4210
  906MOL0     H22277  -1.255   9.137   0.336  0.0813 -0.9833  1.0398
  906MOL0     H22278  -0.964   9.177   0.237  2.8579  3.1624  1.4381
  906MOL0     H22279  -1.099   9.287   0.196 -1.5214 -1.1978 -0.5635
  906MOL0     H22280  -0.971   9.233   0.478 -3.6118 -0.6112  1.9091
  906MOL0     H22281  -1.103   9.341   0.462 -0.6157 -0.6100  1.3249
  906MOL0     H22282  -0.848   9.373   0.295 -0.4028 -4.1338  1.0169
  906MOL0     H22283  -0.981   9.494   0.320 -1.2904  1.2244  4.2593
  906MOL0     H22284  -0.933   9.516   0.569 -1.3105 -0.1729 -0.1705
  906MOL0     H22285  -0.833   9.585   0.457 -1.8521 -0.2351 -3.4595
  906MOL0     H22286  -0.694   9.467   0.607  1.7101  0.4092 -0.5544
  906MOL0     H22287  -0.790   9.315   0.602 -0.0959  0.8133  0.8418
  906MOL0     H22288  -0.638   9.410   0.356  0.1363 -0.3094  0.2089
  906MOL0     H22289  -0.708   9.253   0.387  0.1626 -1.8507  2.3716
  906MOL0     H22290  -0.516   9.259   0.591 -0.8902 -1.9931 -0.3439
  906MOL0     H22291  -0.455   9.399   0.508  1.1581 -0.3795  2.4591
  906MOL0     H22292  -1.321   8.911   0.301 -1.0694 -1.0999  0.0171
  906MOL0     H22293  -1.417   8.689   0.376 -0.9009  1.7180  3.8455
  906MOL0     H22294  -1.503   8.371   0.809 -0.7368  1.8344 -2.2424
  906MOL0     H22295  -1.607   8.162   0.840 -0.3521  0.6607  0.4603
  906MOL0     H22296  -0.028   8.763   0.567  0.7565 -1.7304 -1.1083
  906MOL0     H22297   0.156   8.822   0.400  0.0012 -3.3610 -0.5904
  906MOL0     H22298   0.191   8.662  -0.152  0.1935  0.4755 -0.9025
  906MOL0     H22299   0.395   8.709  -0.291  1.9471 -0.9985  1.6686
  906MOL0     H22300   0.701   8.972  -0.140  2.5222 -0.7467  2.7050
  906MOL0     H22301   0.810   8.847  -0.196 -1.2370 -1.0326  0.8224
  906MOL0     H22302   0.817   9.054  -0.331 -0.6656  0.0654 -1.4098
  906MOL0     H22303   0.660   9.009  -0.398 -1.6291  0.2017  1.4348
  906MOL0     H22304   0.808   8.914  -0.551 -2.0743  0.2360  0.1425
  906MOL0     H22305   0.773   8.776  -0.446 -1.2829  0.8538  3.7596
  906MOL0     H22306   0.978   8.743  -0.411 -1.8456  0.5566  1.1819
  906MOL0     H22307   0.985   8.881  -0.310 -1.9573  0.0796  0.3927
  906MOL0     H22308   1.173   9.006  -0.673  0.7109  0.7115  1.6873
  906MOL0     H22309   0.544   8.991  -0.014 -1.7656  1.2970  2.7738
  906MOL0     H22310   0.352   8.946   0.132  2.5280 -0.2267 -0.0804
  907MOL0     O22311   6.166   8.398  11.507 -0.0376  0.3463 -0.2685
  907MOL0     C22312   6.064   8.465  11.500 -0.1987 -0.6330  0.0026
  907MOL0     O22313   5.938   8.413  11.473  1.1028 -1.0032  0.0100
  907MOL0     C22314   5.922   8.290  11.410 -0.2378  0.7269 -0.1271
  907MOL0     C22315   6.031   8.222  11.340  0.9108 -0.3114 -0.2760
  907MOL0     C22316   6.013   8.094  11.286 -0.3173 -0.9724  0.4914
  907MOL0     C22317   5.883   8.037  11.286  0.1509 -0.2839 -0.0433
  907MOL0     O22318   5.859   7.910  11.233 -0.0393 -0.4850  0.0264
  907MOL0     C22319   5.901   7.879  11.103  0.4000  0.0068 -0.8539
  907MOL0     C22320   5.781   7.813  11.034 -0.5667  0.0533  0.3779
  907MOL0     C22321   5.795   7.669  11.070  0.2140  0.3243  0.4405
  907MOL0     C22322   5.679   7.591  11.018 -0.0848 -0.2591 -1.0224
  907MOL0     C22323   5.692   7.444  11.055  0.3060 -0.6615  0.1740
  907MOL0     C22324   5.599   7.358  10.971  0.3560  0.2325  0.3556
  907MOL0     C22325   5.608   7.212  11.005 -0.4893  0.3529  0.4917
  907MOL0     C22326   5.573   7.115  10.901 -0.7942 -0.3998 -0.6716
  907MOL0     N22327   5.456   7.154  10.826  0.8530 -0.2211 -0.4998
  907MOL0     C22328   5.444   7.169  10.692  0.1139  0.1095 -0.5408
  907MOL0     C22329   5.313   7.195  10.671 -0.2582 -0.6570  0.2819
  907MOL0     C22330   5.241   7.230  10.540 -1.3711 -0.1059 -0.5056
  907MOL0     C22331   5.145   7.113  10.513 -0.6767 -1.1087  0.1048
  907MOL0     C22332   5.033   7.149  10.415 -0.5114  0.6532 -0.3329
  907MOL0     C22333   4.965   7.016  10.370 -0.4275  1.0457  0.2970
  907MOL0     O22334   4.904   6.948  10.479  0.3810  0.1907 -0.2151
  907MOL0     C22335   4.794   7.004  10.540 -0.4887 -0.4272 -0.0056
  907MOL0     C22336   4.700   7.092  10.485 -0.3317 -0.5748  0.0843
  907MOL0     C22337   4.601   7.162  10.555 -1.1399 -0.4975 -0.2793
  907MOL0     C22338   4.532   7.267  10.475  0.0021  0.2998  0.2293
  907MOL0     C22339   4.589   7.135  10.691  0.0728  0.3889  0.2546
  907MOL0     C22340   4.481   7.185  10.780  0.6898  0.2185  0.0080
  907MOL0     O22341   4.441   7.315  10.770  0.0140  0.1299  0.0500
  907MOL0     C22342   4.374   7.383  10.858 -1.0923  0.2785 -0.2770
  907MOL0     C22343   4.300   7.489  10.814 -0.4138  0.1167 -0.2838
  907MOL0     C22344   4.215   7.562  10.905 -0.8736  0.2842  0.8543
  907MOL0     C22345   4.202   7.530  11.043 -0.0687 -0.2487  0.2024
  907MOL0     O22346   4.133   7.620  11.116 -0.0852  0.5994 -0.2117
  907MOL0     C22347   4.075   7.586  11.247 -0.6009 -0.2200 -0.5473
  907MOL0     C22348   3.984   7.689  11.293  0.2331  0.0562  0.4438
  907MOL0     C22349   3.855   7.700  11.196 -0.2669 -0.2556  0.4566
  907MOL0     C22350   3.787   7.820  11.259 -0.0807 -0.2256 -0.5189
  907MOL0     C22351   3.658   7.853  11.189  0.1064 -0.2501  0.0801
  907MOL0     C22352   3.597   7.979  11.254 -0.2782  0.6190 -0.2028
  907MOL0     C22353   3.640   8.112  11.190  0.3289 -0.5230  0.3519
  907MOL0     C22354   3.565   8.241  11.230 -0.3639  0.1653  0.9494
  907MOL0    Cl22355   3.598   8.285  11.398 -0.4562 -0.0957  0.4547
  907MOL0     C22356   4.276   7.421  11.092  0.2053  0.4025 -0.0970
  907MOL0     C22357   4.357   7.349  10.997 -0.4260  0.2831 -0.0308
  907MOL0     O22358   4.435   7.105  10.862 -0.0694  0.6463 -0.0703
  907MOL0     C22359   4.669   7.031  10.749 -0.4854 -0.1627 -0.0268
  907MOL0     C22360   4.770   6.965  10.676  0.1285 -0.4602  0.1224
  907MOL0     N22361   5.249   7.193  10.796  0.1695  0.1990 -0.4197
  907MOL0     N22362   5.329   7.154  10.890 -0.0582 -0.1977  0.1961
  907MOL0     C22363   5.781   8.102  11.356  0.3475 -0.2590  0.0148
  907MOL0     C22364   5.806   8.222  11.421 -0.1221 -0.3751 -0.6975
  907MOL0     C22365   6.083   8.606  11.556  0.3879 -0.0124  0.1891
  907MOL0     C22366   6.207   8.628  11.620  0.0725  0.0541  0.4314
  907MOL0     C22367   6.236   8.753  11.671 -0.4638  0.5486  0.5894
  907MOL0     C22368   6.130   8.854  11.661 -0.3999  0.6887  0.2079
  907MOL0     O22369   6.179   8.977  11.707  0.2535  0.6385  0.3421
  907MOL0     C22370   6.109   9.099  11.714  0.2386  0.6947  0.2492
  907MOL0     C22371   6.013   9.112  11.828  0.7364 -0.7877  0.4399
  907MOL0     C22372   6.082   9.088  11.959  0.4021  0.0805  0.3662
  907MOL0     C22373   5.990   9.100  12.076  0.0096  0.2748 -0.4325
  907MOL0     C22374   5.918   9.224  12.087  0.2960 -0.5598 -0.7096
  907MOL0     C22375   5.867   9.338  12.094  0.2072 -1.0745 -0.8145
  907MOL0     C22376   6.010   8.827  11.604 -0.4025 -0.8866 -0.6469
  907MOL0     C22377   5.982   8.701  11.551  0.3823 -0.0348 -0.6624
  907MOL0     H22378   6.132   8.259  11.323  1.5884 -1.0941  1.7499
  907MOL0     H22379   6.107   8.054  11.250  0.8410 -0.3665  2.6305
  907MOL0     H22380   5.910   7.974  11.050 -0.9580  0.9715  0.5595
  907MOL0     H22381   5.989   7.814  11.094  1.6102  1.5530 -0.5866
  907MOL0     H22382   5.685   7.850  11.069 -0.3327 -3.2238  5.4832
  907MOL0     H22383   5.787   7.814  10.924  1.7253  1.3379  0.4414
  907MOL0     H22384   5.894   7.639  11.033  1.2135  0.3907  2.8251
  907MOL0     H22385   5.793   7.668  11.180 -3.1709  1.8428  0.5213
  907MOL0     H22386   5.581   7.618  11.060 -0.2527  0.0175 -1.5778
  907MOL0     H22387   5.660   7.606  10.911 -2.7943 -1.5470 -0.8330
  907MOL0     H22388   5.795   7.407  11.047  0.5988  0.0391  0.6483
  907MOL0     H22389   5.679   7.420  11.161 -0.0858  0.3280  0.3600
  907MOL0     H22390   5.491   7.377  10.977  0.4804  1.0982  0.0836
  907MOL0     H22391   5.621   7.363  10.864 -1.7147  0.1989 -0.1160
  907MOL0     H22392   5.710   7.190  11.039 -0.3707  0.4685  0.2212
  907MOL0     H22393   5.562   7.180  11.099  5.0688 -0.0591  3.4790
  907MOL0     H22394   5.564   7.017  10.950 -2.2717  0.6100  1.2062
  907MOL0     H22395   5.655   7.127  10.829 -1.0990  2.5873 -0.6116
  907MOL0     H22396   5.526   7.170  10.621  1.3728 -0.5056  0.8360
  907MOL0     H22397   5.195   7.328  10.553  1.7975  1.7451 -2.1212
  907MOL0     H22398   5.308   7.255  10.458  1.1306  3.5137  2.3115
  907MOL0     H22399   5.099   7.096  10.611  1.2204 -3.4391  0.7063
  907MOL0     H22400   5.199   7.026  10.473  0.5153  1.0646 -3.4859
  907MOL0     H22401   5.084   7.205  10.336  0.7486 -1.2480 -0.9195
  907MOL0     H22402   4.961   7.220  10.457 -0.4322  1.6173 -1.7574
  907MOL0     H22403   5.039   6.960  10.312 -2.4837  1.5164 -3.0180
  907MOL0     H22404   4.890   7.041  10.295 -1.4983 -1.2497  0.5466
  907MOL0     H22405   4.711   7.110  10.378 -1.9074  2.2688  0.3027
  907MOL0     H22406   4.506   7.355  10.535  1.8985  0.6970  0.5244
  907MOL0     H22407   4.595   7.286  10.388 -0.0458 -0.7432 -0.0460
  907MOL0     H22408   4.451   7.211  10.427  0.2761 -0.7612  0.9533
  907MOL0     H22409   4.306   7.528  10.713 -2.8609  0.1577 -0.4722
  907MOL0     H22410   4.167   7.654  10.872 -0.8110  0.5876  1.5917
  907MOL0     H22411   4.017   7.493  11.241  0.1654 -0.7828  0.3809
  907MOL0     H22412   4.151   7.590  11.325 -1.3578 -0.8623  0.2449
  907MOL0     H22413   3.955   7.647  11.390  0.7156 -1.2518  0.0442
  907MOL0     H22414   4.040   7.783  11.292  0.8912 -0.3362 -0.6579
  907MOL0     H22415   3.788   7.615  11.183 -0.2891  0.0991 -2.4270
  907MOL0     H22416   3.884   7.735  11.096  0.2283  0.9121  0.9929
  907MOL0     H22417   3.758   7.804  11.363  0.0216 -3.4823 -0.8903
  907MOL0     H22418   3.846   7.912  11.249 -2.9727  1.6889 -1.2692
  907MOL0     H22419   3.599   7.762  11.181  2.0383 -1.5214 -0.4872
  907MOL0     H22420   3.687   7.876  11.086 -0.5063 -3.6865 -0.9735
  907MOL0     H22421   3.488   7.969  11.247 -0.3092 -0.9086  1.6800
  907MOL0     H22422   3.608   7.977  11.363  0.7722  0.2888 -0.3011
  907MOL0     H22423   3.642   8.095  11.082  1.8693 -1.7607  0.5302
  907MOL0     H22424   3.745   8.125  11.217  0.3802 -0.8728  0.3226
  907MOL0     H22425   3.457   8.235  11.213 -0.2091  0.2486 -0.1296
  907MOL0     H22426   3.596   8.319  11.159 -0.6147  0.1040  0.7746
  907MOL0     H22427   4.248   7.375  11.186 -2.2664  0.4125 -0.7419
  907MOL0     H22428   4.402   7.257  11.033 -0.9530 -0.0344 -0.1715
  907MOL0     H22429   4.645   6.997  10.849 -0.7569  2.5572  0.9030
  907MOL0     H22430   4.827   6.895  10.736 -2.4641 -0.8270  2.3985
  907MOL0     H22431   5.676   8.074  11.351  0.1741  0.4670 -0.6635
  907MOL0     H22432   5.728   8.283  11.465  0.0529  1.1318 -2.3737
  907MOL0     H22433   6.288   8.557  11.637 -0.2828 -0.1623  1.3283
  907MOL0     H22434   6.333   8.780  11.712  0.1648  0.6709 -0.9238
  907MOL0     H22435   6.182   9.180  11.719  0.4283  0.4841  1.1892
  907MOL0     H22436   6.046   9.124  11.628 -3.4154  0.7312  2.7132
  907MOL0     H22437   5.930   9.041  11.821  1.0651 -1.4727  2.7086
  907MOL0     H22438   5.975   9.214  11.824  0.8907 -0.7062 -4.0421
  907MOL0     H22439   6.166   9.156  11.972 -1.0708  2.0256  0.2533
  907MOL0     H22440   6.122   8.987  11.951 -1.5254 -0.6090 -4.8403
  907MOL0     H22441   6.043   9.088  12.171 -1.8172 -2.7263  0.3627
  907MOL0     H22442   5.930   9.008  12.074  0.2592  0.1194 -2.2921
  907MOL0     H22443   5.847   9.442  12.111  2.1413 -0.9370  0.9281
  907MOL0     H22444   5.940   8.909  11.597  0.4730 -0.0974 -0.3786
  907MOL0     H22445   5.888   8.680  11.501  0.8784  0.2429 -1.7467
  908MOL0     O22446   5.006   1.813  11.171 -0.2320  0.2508 -0.0679
  908MOL0     C22447   4.969   1.700  11.146 -0.0928  0.6561  0.0086
  908MOL0     O22448   5.036   1.602  11.071 -0.7061 -0.3798  0.0078
  908MOL0     C22449   5.161   1.646  11.028 -0.6031  0.1010  0.0045
  908MOL0     C22450   5.184   1.646  10.897  0.4365  0.4050  0.5231
  908MOL0     C22451   5.310   1.669  10.849 -0.0725 -0.4430  0.9022
  908MOL0     C22452   5.416   1.702  10.930 -0.2487 -0.2865 -0.6843
  908MOL0     O22453   5.535   1.744  10.868 -0.0582  0.0635 -0.3679
  908MOL0     C22454   5.582   1.873  10.925 -0.6006 -0.0672 -1.2341
  908MOL0     C22455   5.738   1.867  10.934 -0.4157 -0.3717  0.3868
  908MOL0     C22456   5.790   2.000  10.883 -0.1333  0.4688 -0.2237
  908MOL0     C22457   5.935   2.011  10.934 -0.2723  1.0871 -0.5903
  908MOL0     C22458   6.014   2.115  10.862  0.1824 -0.2757 -0.5555
  908MOL0     C22459   5.954   2.251  10.906 -0.9206 -0.5732  0.3404
  908MOL0     C22460   6.039   2.380  10.870  0.1667  0.7774 -0.0410
  908MOL0     C22461   6.020   2.446  10.725 -0.3460 -0.1362  0.1798
  908MOL0     N22462   5.886   2.421  10.673 -0.4208  0.8126  0.6060
  908MOL0     C22463   5.860   2.371  10.547  0.2685  0.2317  0.2449
  908MOL0     C22464   5.727   2.371  10.524 -0.5476  0.1168 -0.6936
  908MOL0     C22465   5.660   2.323  10.398 -0.6342 -0.5320 -0.3791
  908MOL0     C22466   5.504   2.334  10.391 -0.4204 -0.3583  0.2070
  908MOL0     C22467   5.423   2.291  10.515  0.0151 -0.1181  0.8478
  908MOL0     C22468   5.466   2.158  10.567 -0.6205 -0.0744  0.5711
  908MOL0     O22469   5.457   2.072  10.455  0.5959  0.7243 -0.1095
  908MOL0     C22470   5.486   1.939  10.481  0.0153  0.3619  0.7616
  908MOL0     C22471   5.396   1.841  10.439 -0.4764 -0.1324  0.4012
  908MOL0     C22472   5.420   1.706  10.456  0.5076  0.1180  0.2858
  908MOL0     C22473   5.311   1.626  10.387 -0.9232 -0.1963 -0.1337
  908MOL0     C22474   5.526   1.659  10.524 -1.4609 -0.0429  0.2519
  908MOL0     C22475   5.558   1.515  10.538  0.4281  0.3554 -0.1833
  908MOL0     O22476   5.455   1.422  10.542 -0.3807 -0.4093 -0.6729
  908MOL0     C22477   5.492   1.291  10.527  0.4735 -0.5012 -1.3066
  908MOL0     C22478   5.463   1.203  10.635 -0.0088 -0.0286  0.5441
  908MOL0     C22479   5.498   1.066  10.631  0.8639  1.0113  0.2829
  908MOL0     C22480   5.542   1.003  10.515 -0.9395 -0.5487  0.1113
  908MOL0     O22481   5.574   0.874  10.510  0.9919  0.6254 -0.8038
  908MOL0     C22482   5.493   0.777  10.577  0.8798  0.3285 -0.0805
  908MOL0     C22483   5.571   0.651  10.574 -0.5569 -0.5058 -0.7921
  908MOL0     C22484   5.681   0.658  10.671 -0.7345 -0.1230 -0.4600
  908MOL0     C22485   5.649   0.629  10.819 -0.0896  0.6660 -0.8597
  908MOL0     C22486   5.670   0.478  10.843  0.3804  0.4430 -0.5081
  908MOL0     C22487   5.818   0.426  10.816  0.6261 -0.1529  0.0183
  908MOL0     C22488   5.823   0.286  10.860 -0.6255  0.4742 -0.4216
  908MOL0     C22489   5.951   0.222  10.912 -0.2186  0.1828  0.1537
  908MOL0    Cl22490   5.905   0.044  10.948 -0.0177 -0.2770  0.1321
  908MOL0     C22491   5.564   1.093  10.408 -1.0722  0.7986  0.8577
  908MOL0     C22492   5.542   1.229  10.416 -0.0815  0.0977  0.8200
  908MOL0     O22493   5.675   1.492  10.550  0.2434  0.2672 -0.0557
  908MOL0     C22494   5.609   1.751  10.581  0.4397 -0.0093  0.3737
  908MOL0     C22495   5.601   1.890  10.551 -0.6495 -0.1803 -0.0909
  908MOL0     N22496   5.672   2.414  10.643  0.4219 -0.1353  0.3778
  908MOL0     N22497   5.764   2.443  10.730 -0.3014  0.2654 -0.4254
  908MOL0     C22498   5.388   1.700  11.067  0.0104  0.7537 -0.1489
  908MOL0     C22499   5.263   1.669  11.121  0.1861  0.5754 -0.8237
  908MOL0     C22500   4.849   1.661  11.218 -0.6567 -0.0342 -0.0597
  908MOL0     C22501   4.823   1.529  11.250 -0.3154 -0.3961 -1.3557
  908MOL0     C22502   4.705   1.498  11.324 -0.6917 -0.1222 -0.5532
  908MOL0     C22503   4.612   1.594  11.362  1.2971 -0.8646  0.9108
  908MOL0     O22504   4.488   1.573  11.427  0.4702 -0.1094 -0.3104
  908MOL0     C22505   4.433   1.437  11.416 -0.4871  0.4173  0.8219
  908MOL0     C22506   4.271   1.447  11.421  0.6567  0.1165 -0.2727
  908MOL0     C22507   4.219   1.526  11.303  0.3231  0.1393  1.2320
  908MOL0     C22508   4.247   1.469  11.166 -0.0799  0.4503  0.4308
  908MOL0     C22509   4.222   1.326  11.143  0.4152 -1.1355 -0.1475
  908MOL0     C22510   4.201   1.207  11.124 -0.1116  0.9877  0.3247
  908MOL0     C22511   4.637   1.727  11.325 -0.7635 -0.7208  1.0442
  908MOL0     C22512   4.752   1.761  11.254 -0.3015 -0.1360  0.2606
  908MOL0     H22513   5.105   1.625  10.825 -0.4919  0.4183  1.5020
  908MOL0     H22514   5.328   1.673  10.742  0.6536  4.1761  1.0154
  908MOL0     H22515   5.564   1.958  10.859  2.2350  0.8447 -0.9698
  908MOL0     H22516   5.545   1.894  11.026  1.7486 -2.6748  0.3375
  908MOL0     H22517   5.776   1.845  11.034 -0.9085 -1.1237  0.4151
  908MOL0     H22518   5.757   1.784  10.865 -1.1776 -1.1183  1.0527
  908MOL0     H22519   5.784   1.990  10.774  0.4324 -1.0671 -0.1374
  908MOL0     H22520   5.728   2.081  10.922 -0.2842 -0.9451  2.7102
  908MOL0     H22521   5.911   2.031  11.039 -0.4069 -1.3448 -0.0913
  908MOL0     H22522   5.991   1.917  10.935 -0.3387  1.0077  1.7943
  908MOL0     H22523   6.120   2.103  10.885 -0.1077 -1.7476  0.1551
  908MOL0     H22524   6.002   2.114  10.753 -1.0677  1.2597 -0.4677
  908MOL0     H22525   5.856   2.261  10.858 -0.3132 -0.5806 -0.9280
  908MOL0     H22526   5.937   2.253  11.014 -1.1102  2.8865  0.3857
  908MOL0     H22527   6.021   2.457  10.945 -1.3417  0.1558  0.2723
  908MOL0     H22528   6.147   2.373  10.887 -0.1223 -0.6284  1.4413
  908MOL0     H22529   6.084   2.397  10.651  0.4801 -1.1380  1.5227
  908MOL0     H22530   6.044   2.553  10.722  0.2135 -0.2805 -1.6178
  908MOL0     H22531   5.943   2.331  10.489 -1.2035 -1.7450 -0.6317
  908MOL0     H22532   5.708   2.368  10.311  2.3688 -3.7025 -0.6005
  908MOL0     H22533   5.688   2.219  10.377  2.1419  0.2679 -1.0676
  908MOL0     H22534   5.475   2.267  10.309  2.0394  0.0255 -1.0723
  908MOL0     H22535   5.465   2.433  10.366 -0.7407 -0.6613 -0.5435
  908MOL0     H22536   5.318   2.286  10.485  0.0554  2.0268  0.1674
  908MOL0     H22537   5.433   2.372  10.587  0.7980  1.6840 -1.1612
  908MOL0     H22538   5.392   2.133  10.644 -1.1205  0.9623  0.4457
  908MOL0     H22539   5.563   2.164  10.617 -1.0089 -3.2271  1.9956
  908MOL0     H22540   5.313   1.880  10.379  2.3381  2.2532 -2.3023
  908MOL0     H22541   5.279   1.669  10.292 -0.9038 -1.6015 -0.8009
  908MOL0     H22542   5.339   1.523  10.365  1.1374  0.7471 -2.3033
  908MOL0     H22543   5.220   1.631  10.449 -0.3337  0.4141  0.7133
  908MOL0     H22544   5.413   1.242  10.723 -3.0355  0.0765 -1.0846
  908MOL0     H22545   5.486   1.001  10.717  1.3946 -0.1952 -0.5255
  908MOL0     H22546   5.476   0.803  10.681 -0.5820  0.6236 -0.3658
  908MOL0     H22547   5.391   0.762  10.539  0.3373 -1.1639  1.8229
  908MOL0     H22548   5.502   0.570  10.600 -0.9763  0.0367 -0.1800
  908MOL0     H22549   5.624   0.640  10.479  1.4462  2.3951 -0.1443
  908MOL0     H22550   5.721   0.758  10.686  2.3692 -1.3554  0.3821
  908MOL0     H22551   5.770   0.601  10.640  0.7034 -0.3790  3.5197
  908MOL0     H22552   5.713   0.677  10.894  0.8813  0.1641 -1.3438
  908MOL0     H22553   5.547   0.664  10.837 -0.8655 -0.6330 -2.4381
  908MOL0     H22554   5.599   0.412  10.793 -0.3006 -0.5312  1.6336
  908MOL0     H22555   5.648   0.460  10.948  0.0449 -0.1383 -0.6739
  908MOL0     H22556   5.852   0.428  10.712 -2.4481  0.3414 -1.0808
  908MOL0     H22557   5.877   0.485  10.886  1.0440 -1.9961  1.2969
  908MOL0     H22558   5.775   0.221  10.787  0.9900 -1.9180  0.5081
  908MOL0     H22559   5.760   0.275  10.949 -0.4383  0.4152 -0.2964
  908MOL0     H22560   5.996   0.271  10.999  3.0985 -0.1176 -1.2148
  908MOL0     H22561   6.030   0.217  10.836  1.2443 -2.3407  1.7146
  908MOL0     H22562   5.617   1.051  10.323 -0.4273  1.5800  0.8769
  908MOL0     H22563   5.544   1.286  10.324  1.0459 -1.6353 -0.3074
  908MOL0     H22564   5.686   1.711  10.645  1.4121  0.0209 -0.7353
  908MOL0     H22565   5.673   1.964  10.586 -0.5335  0.2000 -1.1122
  908MOL0     H22566   5.468   1.727  11.135 -0.7954  1.9594  0.3400
  908MOL0     H22567   5.247   1.648  11.226 -0.8271 -0.3997 -1.1577
  908MOL0     H22568   4.901   1.458  11.224  0.2639 -0.3485  0.1725
  908MOL0     H22569   4.680   1.392  11.322  1.9681 -0.9212  2.2185
  908MOL0     H22570   4.466   1.376  11.331  0.8495  0.9702  0.9254
  908MOL0     H22571   4.462   1.379  11.504  0.6771 -0.0151  0.1872
  908MOL0     H22572   4.231   1.482  11.516 -0.7984  0.1245 -0.8518
  908MOL0     H22573   4.235   1.344  11.409 -0.1647  0.4522 -0.7789
  908MOL0     H22574   4.271   1.622  11.291  0.6635 -0.2353 -0.4525
  908MOL0     H22575   4.115   1.557  11.317 -0.1657 -0.8522 -0.0531
  908MOL0     H22576   4.348   1.481  11.128 -0.3998  1.4926 -0.1108
  908MOL0     H22577   4.185   1.529  11.099  0.5479  1.1378  0.4682
  908MOL0     H22578   4.187   1.102  11.112  0.2923  1.0657 -0.9746
  908MOL0     H22579   4.573   1.812  11.345 -0.5582 -0.6315  1.3371
  908MOL0     H22580   4.738   1.861  11.213 -5.4956 -0.3912  0.6450
  909MOL0     O22581   7.398   9.131   7.664  0.5494  0.4519 -0.4180
  909MOL0     C22582   7.308   9.054   7.672  0.4983  0.4435  1.2547
  909MOL0     O22583   7.297   8.928   7.614 -0.2149 -0.0861  0.7240
  909MOL0     C22584   7.390   8.863   7.538 -0.0064 -0.5250  0.4866
  909MOL0     C22585   7.524   8.904   7.526 -0.1594  0.3701  0.9454
  909MOL0     C22586   7.610   8.823   7.436  0.2932 -0.2347  0.0695
  909MOL0     C22587   7.564   8.711   7.373 -0.6503 -0.6480 -0.0529
  909MOL0     O22588   7.643   8.634   7.292  0.6650 -0.5330 -0.9914
  909MOL0     C22589   7.639   8.494   7.316 -0.5840  0.0957  1.0388
  909MOL0     C22590   7.692   8.444   7.180 -0.9582  0.0605 -0.5664
  909MOL0     C22591   7.676   8.284   7.154  0.8094 -0.3539  0.2695
  909MOL0     C22592   7.818   8.211   7.169  0.5238 -0.3710 -0.3477
  909MOL0     C22593   7.813   8.059   7.151  0.4058  0.2278 -1.0155
  909MOL0     C22594   7.771   7.968   7.276 -0.5245 -0.3270 -0.0883
  909MOL0     C22595   7.751   7.824   7.239 -0.1102 -0.3432  0.1794
  909MOL0     C22596   7.705   7.746   7.366  0.1593  0.4190 -0.0036
  909MOL0     N22597   7.813   7.705   7.457  0.8411  1.0043 -0.6493
  909MOL0     C22598   7.860   7.782   7.560 -0.5029 -0.7596  0.1110
  909MOL0     C22599   7.936   7.692   7.630 -0.2610 -0.5940 -1.2405
  909MOL0     C22600   7.986   7.731   7.764  0.5396 -0.0731 -0.1662
  909MOL0     C22601   7.896   7.665   7.882  0.1400  0.4572  0.1859
  909MOL0     C22602   7.937   7.733   8.009  0.1047  0.3258 -0.9870
  909MOL0     C22603   7.858   7.861   8.035 -0.2407  0.4201  0.5467
  909MOL0     O22604   7.935   7.940   8.141 -1.0895 -0.0789  0.3016
  909MOL0     C22605   7.946   7.919   8.268  1.0584  0.4934 -1.1359
  909MOL0     C22606   7.870   7.822   8.337  0.1513  0.5102  0.1681
  909MOL0     C22607   7.897   7.779   8.473  0.1337  0.4017  0.5786
  909MOL0     C22608   7.848   7.642   8.511  0.0701 -0.1205 -0.7581
  909MOL0     C22609   7.985   7.863   8.547  0.6473 -0.2515 -0.0291
  909MOL0     C22610   8.003   7.851   8.694  0.4303  0.7919  0.2169
  909MOL0     O22611   8.069   7.951   8.753  0.3825 -0.1697 -0.4596
  909MOL0     C22612   8.025   7.978   8.888 -0.0649 -0.3516 -0.2268
  909MOL0     C22613   7.902   7.968   8.946  0.5522  0.2867  0.3901
  909MOL0     C22614   7.874   8.014   9.073 -0.1860 -0.2861 -0.6018
  909MOL0     C22615   7.976   8.080   9.148 -0.4370  0.4735  0.3322
  909MOL0     O22616   7.962   8.127   9.275 -0.6291 -0.4006 -0.6543
  909MOL0     C22617   7.832   8.153   9.319  0.1089 -0.0532 -0.1115
  909MOL0     C22618   7.858   8.185   9.459  0.2511 -0.7014 -0.4196
  909MOL0     C22619   7.731   8.244   9.520 -1.4507  0.5707  1.3359
  909MOL0     C22620   7.760   8.325   9.655 -0.0310  0.2100  0.1783
  909MOL0     C22621   7.633   8.372   9.719 -0.1481  0.1164  0.4932
  909MOL0     C22622   7.559   8.468   9.634  0.1689  0.0837 -0.6008
  909MOL0     C22623   7.454   8.525   9.728 -0.0496 -0.7311 -0.5516
  909MOL0     C22624   7.350   8.619   9.662 -1.0876 -0.1564 -0.4247
  909MOL0    Cl22625   7.212   8.675   9.764 -0.6693  0.1078 -0.1441
  909MOL0     C22626   8.105   8.094   9.098 -0.8004 -1.0330  0.4328
  909MOL0     C22627   8.119   8.046   8.965 -0.3851  1.0284 -0.4074
  909MOL0     O22628   7.964   7.749   8.755 -0.1637 -0.6667 -0.2392
  909MOL0     C22629   8.059   7.958   8.483 -1.1280  1.0652  0.0335
  909MOL0     C22630   8.047   7.987   8.343  1.0440  0.2026  0.1284
  909MOL0     N22631   7.935   7.568   7.565  0.3492  0.2167 -0.4024
  909MOL0     N22632   7.871   7.578   7.456 -0.1785 -0.1874  0.0440
  909MOL0     C22633   7.429   8.675   7.406 -1.1102  0.8337  0.3375
  909MOL0     C22634   7.350   8.739   7.484  0.5096  0.6335  0.6066
  909MOL0     C22635   7.193   9.098   7.749 -0.2675 -0.1261 -0.7568
  909MOL0     C22636   7.218   9.221   7.828 -0.3138  0.1569 -0.0842
  909MOL0     C22637   7.112   9.260   7.915  0.9600 -0.4685  0.3662
  909MOL0     C22638   6.988   9.197   7.930 -0.1161 -0.5056  0.5693
  909MOL0     O22639   6.894   9.216   8.026  0.0009 -0.2153  0.2195
  909MOL0     C22640   6.911   9.342   8.096  0.5149  0.8673 -0.7639
  909MOL0     C22641   6.777   9.379   8.155 -0.7999  0.0864  0.0308
  909MOL0     C22642   6.680   9.444   8.066 -0.0822 -0.6728  0.2356
  909MOL0     C22643   6.535   9.389   8.078  0.3843  0.0259 -0.0911
  909MOL0     C22644   6.544   9.251   8.030  0.2712 -0.3319  0.0045
  909MOL0     C22645   6.551   9.137   7.985  0.0680  0.0006  0.8521
  909MOL0     C22646   6.974   9.090   7.848  0.3617  1.1786 -0.1748
  909MOL0     C22647   7.066   9.039   7.752  0.5346 -0.0896  0.9839
  909MOL0     H22648   7.559   8.984   7.591  0.7385  0.4150  0.4302
  909MOL0     H22649   7.713   8.854   7.419  0.8490 -1.6551  0.6793
  909MOL0     H22650   7.700   8.462   7.401  2.5981  1.0163 -0.7275
  909MOL0     H22651   7.540   8.452   7.332 -1.9232  2.5589 -0.0874
  909MOL0     H22652   7.639   8.498   7.101  0.0094  2.0700  0.0920
  909MOL0     H22653   7.792   8.488   7.179 -1.4167  1.1454  0.0837
  909MOL0     H22654   7.592   8.248   7.214 -1.8568 -1.1745 -3.5613
  909MOL0     H22655   7.649   8.271   7.049 -0.0480  0.6657  0.3465
  909MOL0     H22656   7.896   8.259   7.109  0.1179  0.8668  0.0906
  909MOL0     H22657   7.856   8.221   7.271  4.2397 -0.6946 -1.5361
  909MOL0     H22658   7.747   8.045   7.065 -2.1476  3.9255  0.0958
  909MOL0     H22659   7.917   8.027   7.141  0.1189 -2.5173  2.6473
  909MOL0     H22660   7.843   7.984   7.357 -0.7693 -0.9359  0.2554
  909MOL0     H22661   7.676   7.999   7.321  0.6149 -0.2113  2.4388
  909MOL0     H22662   7.685   7.830   7.152  2.4606  3.0013 -1.7869
  909MOL0     H22663   7.842   7.775   7.201  0.4573  1.4983 -0.9824
  909MOL0     H22664   7.664   7.650   7.335 -0.1022 -0.6394  3.2260
  909MOL0     H22665   7.621   7.795   7.417 -1.2451  0.2672 -2.0551
  909MOL0     H22666   7.842   7.888   7.577  0.9513 -0.3058 -0.9723
  909MOL0     H22667   8.085   7.689   7.784 -0.5572 -1.7100  2.2191
  909MOL0     H22668   7.980   7.839   7.781 -0.7811 -0.1444 -0.0699
  909MOL0     H22669   7.918   7.557   7.882  1.3894  0.6898 -0.0556
  909MOL0     H22670   7.790   7.684   7.863  0.8733  1.4930 -3.9542
  909MOL0     H22671   8.044   7.754   8.002  0.4626 -0.7632  0.6934
  909MOL0     H22672   7.922   7.662   8.090 -0.5518 -0.6545 -1.9376
  909MOL0     H22673   7.754   7.843   8.063 -0.7593  1.7536 -0.4225
  909MOL0     H22674   7.877   7.919   7.944  3.8432 -0.5114  0.5878
  909MOL0     H22675   7.801   7.768   8.273 -1.2403  1.9337  0.4129
  909MOL0     H22676   7.800   7.589   8.428 -0.9039 -0.5225  0.0348
  909MOL0     H22677   7.931   7.579   8.547  0.5994  1.5716  1.1749
  909MOL0     H22678   7.787   7.642   8.602 -0.1613 -0.3392 -0.9120
  909MOL0     H22679   7.822   7.927   8.885  0.1218  0.7323  0.6494
  909MOL0     H22680   7.772   7.995   9.106 -0.3868  3.5701  1.5221
  909MOL0     H22681   7.781   8.229   9.258 -1.6347 -0.2047  1.1021
  909MOL0     H22682   7.763   8.068   9.324 -1.3905  1.0272 -1.3887
  909MOL0     H22683   7.886   8.100   9.522 -2.3382  0.1187  2.0521
  909MOL0     H22684   7.936   8.261   9.449 -1.4468  0.8937 -2.4984
  909MOL0     H22685   7.661   8.160   9.526 -0.3260 -0.6699 -1.3338
  909MOL0     H22686   7.695   8.313   9.443  0.4607  0.8396  0.6327
  909MOL0     H22687   7.815   8.271   9.732  0.2060  0.5683  0.2615
  909MOL0     H22688   7.813   8.412   9.615 -0.6252  0.2452 -0.5580
  909MOL0     H22689   7.671   8.415   9.813 -0.0962 -1.8743  1.4369
  909MOL0     H22690   7.572   8.288   9.750 -1.0298 -1.2737 -4.2774
  909MOL0     H22691   7.621   8.551   9.600  0.0316  0.3895 -0.1089
  909MOL0     H22692   7.530   8.411   9.545  2.0159 -1.4497 -0.2814
  909MOL0     H22693   7.510   8.583   9.802  1.1918 -4.1151  1.3726
  909MOL0     H22694   7.401   8.446   9.782 -1.0117 -0.5322 -1.1669
  909MOL0     H22695   7.311   8.570   9.573  0.2957 -1.2698 -0.4524
  909MOL0     H22696   7.419   8.701   9.640  0.1809 -1.0535  0.0813
  909MOL0     H22697   8.176   8.136   9.167 -0.9776  2.0687 -1.1356
  909MOL0     H22698   8.218   8.042   8.922 -0.0271 -0.6722  0.5059
  909MOL0     H22699   8.119   8.023   8.545 -2.5097  0.7131  1.8101
  909MOL0     H22700   8.112   8.056   8.291  1.0041 -0.1584 -0.4019
  909MOL0     H22701   7.397   8.583   7.359  0.0470  1.9593 -2.9824
  909MOL0     H22702   7.248   8.712   7.506 -0.0576  1.4567 -0.8761
  909MOL0     H22703   7.316   9.266   7.820  0.5190 -1.8373 -2.2456
  909MOL0     H22704   7.134   9.346   7.977 -3.8874  1.6144 -0.3314
  909MOL0     H22705   6.985   9.335   8.176  1.6192  0.3729 -1.8136
  909MOL0     H22706   6.950   9.424   8.036  2.6288  0.0447 -0.6123
  909MOL0     H22707   6.790   9.457   8.230  0.5771  3.7449 -3.6608
  909MOL0     H22708   6.730   9.291   8.201 -2.3889  1.7412  1.7315
  909MOL0     H22709   6.716   9.421   7.965  0.5052  0.9539  0.0387
  909MOL0     H22710   6.665   9.550   8.091  0.3125 -0.8940  1.4583
  909MOL0     H22711   6.475   9.458   8.019  1.4144  2.0338  1.0785
  909MOL0     H22712   6.497   9.397   8.180  1.9533  1.3906  0.4222
  909MOL0     H22713   6.568   9.041   7.941  2.2501 -0.3366  2.2765
  909MOL0     H22714   6.879   9.038   7.856  0.4327  0.9669 -0.6778
  909MOL0     H22715   7.038   8.950   7.697 -2.7267  1.4126 -0.1233
  910MOL0     O22716   4.663   6.120   5.729 -0.0501 -0.7251 -0.1264
  910MOL0     C22717   4.567   6.133   5.651 -0.7322 -0.3057 -0.0720
  910MOL0     O22718   4.447   6.074   5.663  0.5864  0.0785 -0.5877
  910MOL0     C22719   4.441   5.954   5.719  0.0342  0.6319 -0.7850
  910MOL0     C22720   4.443   5.839   5.643 -0.1439  0.4708 -0.5393
  910MOL0     C22721   4.425   5.711   5.705 -0.5374  0.6146  0.0622
  910MOL0     C22722   4.387   5.695   5.832 -0.0881 -1.0079  0.8980
  910MOL0     O22723   4.353   5.575   5.877 -0.1475  0.0705  0.1699
  910MOL0     C22724   4.342   5.556   6.024 -0.8661  0.3776  0.1426
  910MOL0     C22725   4.336   5.409   6.071  0.8297 -0.2578 -0.1059
  910MOL0     C22726   4.194   5.354   6.023  0.2557  0.3236  0.1045
  910MOL0     C22727   4.170   5.207   6.026 -0.8494 -0.0618 -0.2278
  910MOL0     C22728   4.261   5.128   5.922 -0.4002 -1.3128  0.2050
  910MOL0     C22729   4.303   4.987   5.988 -0.1389  0.2465  1.5721
  910MOL0     C22730   4.169   4.918   6.040 -0.2491 -0.6919  0.2805
  910MOL0     C22731   4.196   4.777   6.087  0.2206  0.6711 -0.1734
  910MOL0     N22732   4.263   4.762   6.208 -0.8572  0.3976  0.3923
  910MOL0     C22733   4.204   4.744   6.331 -1.5443  0.4403 -1.1191
  910MOL0     C22734   4.307   4.702   6.411 -1.0474 -0.6826 -0.9695
  910MOL0     C22735   4.290   4.663   6.551 -0.1648  0.4413 -0.7819
  910MOL0     C22736   4.259   4.775   6.648  0.2961  0.3365  1.3141
  910MOL0     C22737   4.289   4.743   6.801  0.3378 -1.1028 -0.7418
  910MOL0     C22738   4.161   4.675   6.857 -0.3186  0.6210  0.0636
  910MOL0     O22739   4.207   4.618   6.989 -0.0434 -0.2931  0.9069
  910MOL0     C22740   4.103   4.561   7.060 -0.6114  0.8689 -0.2127
  910MOL0     C22741   4.126   4.529   7.195 -0.5929 -0.2693  0.0588
  910MOL0     C22742   4.026   4.495   7.285 -0.0048 -0.4283 -0.8590
  910MOL0     C22743   4.071   4.467   7.421  0.5350  0.4182 -0.5439
  910MOL0     C22744   3.894   4.474   7.234 -0.0335  0.4179 -0.5326
  910MOL0     C22745   3.776   4.417   7.323  0.3701 -0.8622 -0.2614
  910MOL0     O22746   3.658   4.367   7.263 -1.2421  0.5308  0.0946
  910MOL0     C22747   3.547   4.381   7.338  0.7209 -0.2851 -0.2218
  910MOL0     C22748   3.440   4.447   7.276 -0.1690  0.6287  0.0059
  910MOL0     C22749   3.325   4.443   7.344  0.5698  0.1403 -0.1505
  910MOL0     C22750   3.301   4.398   7.477 -0.6377  0.2439 -0.0224
  910MOL0     O22751   3.188   4.425   7.535  0.4860 -1.5406 -0.3718
  910MOL0     C22752   3.217   4.465   7.674 -0.3335  0.7724  1.2169
  910MOL0     C22753   3.110   4.552   7.718  0.7211 -1.5346 -0.6804
  910MOL0     C22754   3.116   4.567   7.873 -0.2198 -0.0296  0.1074
  910MOL0     C22755   2.974   4.621   7.917 -0.5710 -0.1617 -0.3682
  910MOL0     C22756   2.982   4.676   8.069  0.8431  0.2632 -0.1094
  910MOL0     C22757   3.014   4.565   8.166 -0.8162 -0.0607  0.2329
  910MOL0     C22758   3.039   4.618   8.307 -0.8614 -0.7434 -0.0817
  910MOL0     C22759   3.050   4.500   8.407 -0.4209  0.6847 -0.3681
  910MOL0    Cl22760   2.891   4.460   8.477 -0.0912 -0.3728  0.0806
  910MOL0     C22761   3.414   4.333   7.540  0.1942  0.3042 -0.0293
  910MOL0     C22762   3.533   4.320   7.469 -0.0134 -0.5699  0.5220
  910MOL0     O22763   3.792   4.441   7.449 -0.1088  0.3271  1.2829
  910MOL0     C22764   3.867   4.505   7.092  0.2064 -0.4777  0.0729
  910MOL0     C22765   3.973   4.543   7.009 -0.1305 -0.1549 -0.5856
  910MOL0     N22766   4.429   4.712   6.331 -0.2078 -0.1931 -0.2762
  910MOL0     N22767   4.396   4.755   6.216 -0.2558 -0.3685 -0.3149
  910MOL0     C22768   4.375   5.820   5.904 -0.3431  1.0008 -0.3824
  910MOL0     C22769   4.400   5.944   5.852 -0.0064 -0.7321 -0.0949
  910MOL0     C22770   4.567   6.237   5.544 -0.4080  0.1587 -0.6641
  910MOL0     C22771   4.645   6.354   5.562 -0.6977 -0.1417  0.3872
  910MOL0     C22772   4.638   6.455   5.462 -0.0933  0.3471  0.3644
  910MOL0     C22773   4.562   6.433   5.352  0.1709 -0.7468 -0.1601
  910MOL0     O22774   4.529   6.533   5.261  0.3745  0.5769 -0.1611
  910MOL0     C22775   4.395   6.583   5.270  0.1000  1.3665 -0.3744
  910MOL0     C22776   4.381   6.709   5.178  0.4890  0.2847  0.1713
  910MOL0     C22777   4.390   6.666   5.030 -0.2868 -1.1127 -0.2374
  910MOL0     C22778   4.292   6.572   4.979  0.3336  0.6939 -0.3807
  910MOL0     C22779   4.153   6.641   4.973 -0.5727  0.2719  0.1456
  910MOL0     C22780   4.046   6.695   4.952  0.0841  0.3548  0.1373
  910MOL0     C22781   4.492   6.313   5.343 -0.3253  0.0615  0.8217
  910MOL0     C22782   4.496   6.214   5.433 -0.1654 -0.0239 -0.7261
  910MOL0     H22783   4.472   5.845   5.539  0.6552  3.1750 -0.2468
  910MOL0     H22784   4.415   5.616   5.652 -1.0639 -1.5883  3.7791
  910MOL0     H22785   4.422   5.614   6.072  0.0106 -1.3091  0.8149
  910MOL0     H22786   4.247   5.607   6.040  0.9950  4.0828  0.4206
  910MOL0     H22787   4.424   5.357   6.031  0.7547 -0.0297 -0.5723
  910MOL0     H22788   4.350   5.389   6.178 -0.6089 -1.8547 -0.1681
  910MOL0     H22789   4.124   5.401   6.093  1.6659  2.9170 -0.1125
  910MOL0     H22790   4.165   5.388   5.923 -1.5421 -1.8024 -0.1644
  910MOL0     H22791   4.211   5.187   6.126 -0.8787  2.5000  0.3880
  910MOL0     H22792   4.065   5.179   6.012 -0.1443 -1.5742 -3.2220
  910MOL0     H22793   4.222   5.133   5.820  1.5606  0.2207 -0.5451
  910MOL0     H22794   4.356   5.182   5.912 -0.1734 -1.9271 -1.3599
  910MOL0     H22795   4.340   4.913   5.917 -1.4602  0.0421  1.0644
  910MOL0     H22796   4.372   4.993   6.073  3.0796 -1.7552 -0.6677
  910MOL0     H22797   4.103   4.977   6.105 -1.7075 -1.6577 -0.2656
  910MOL0     H22798   4.108   4.906   5.950 -1.1110  3.1101  0.1714
  910MOL0     H22799   4.262   4.739   6.008 -1.9696 -0.1292 -1.7118
  910MOL0     H22800   4.101   4.723   6.092  0.6142 -0.2353 -1.7625
  910MOL0     H22801   4.104   4.760   6.368 -1.3200  0.3169 -0.4393
  910MOL0     H22802   4.210   4.589   6.548 -2.7021  2.9568  0.1651
  910MOL0     H22803   4.381   4.612   6.585 -1.0590  1.3953  3.6390
  910MOL0     H22804   4.163   4.824   6.632  1.3523  1.2322 -5.1762
  910MOL0     H22805   4.333   4.847   6.611 -1.1109  0.8075 -0.7299
  910MOL0     H22806   4.303   4.842   6.845 -0.9548  0.3791 -3.3926
  910MOL0     H22807   4.380   4.687   6.820  1.8639  1.5400  0.3048
  910MOL0     H22808   4.146   4.598   6.782 -0.4889  1.2430 -0.5535
  910MOL0     H22809   4.071   4.737   6.863 -2.4290 -2.2201 -0.3586
  910MOL0     H22810   4.229   4.534   7.228 -0.2805  0.5805 -1.0220
  910MOL0     H22811   4.180   4.471   7.432  0.6123  0.6703 -1.3941
  910MOL0     H22812   4.029   4.545   7.485  0.1532  2.1105 -2.7796
  910MOL0     H22813   4.032   4.376   7.469  0.9661  1.8024  2.7432
  910MOL0     H22814   3.447   4.475   7.171 -0.2732  4.0491  0.7731
  910MOL0     H22815   3.235   4.485   7.298  0.7632  0.3567 -0.3325
  910MOL0     H22816   3.221   4.375   7.736  0.6899 -2.7874 -3.4733
  910MOL0     H22817   3.306   4.528   7.679 -0.5916  1.1456  1.1667
  910MOL0     H22818   3.114   4.653   7.674  0.7705  0.3184  3.1596
  910MOL0     H22819   3.011   4.514   7.690 -0.6922  1.4055 -0.0974
  910MOL0     H22820   3.192   4.639   7.903 -2.3703  1.9590  1.0364
  910MOL0     H22821   3.131   4.470   7.922  2.0953 -0.9242 -2.1575
  910MOL0     H22822   2.936   4.704   7.856 -0.5808 -0.3785 -0.6562
  910MOL0     H22823   2.894   4.547   7.905  0.4711 -1.1334 -1.5638
  910MOL0     H22824   2.883   4.718   8.088  0.9971  0.6626 -0.1603
  910MOL0     H22825   3.053   4.759   8.072  0.3040  0.7398 -0.3700
  910MOL0     H22826   2.928   4.498   8.169 -1.3245  0.5962  3.3215
  910MOL0     H22827   3.106   4.514   8.135 -0.2071  1.1290  0.0367
  910MOL0     H22828   2.953   4.682   8.331 -2.3403 -1.4048 -3.0754
  910MOL0     H22829   3.121   4.690   8.294 -2.1780  0.7903 -0.2595
  910MOL0     H22830   3.111   4.538   8.489 -1.6361  3.6004 -0.7121
  910MOL0     H22831   3.089   4.407   8.365 -1.1927  0.5279 -0.7503
  910MOL0     H22832   3.396   4.290   7.637 -3.3290 -2.5222 -1.6854
  910MOL0     H22833   3.618   4.263   7.506  0.1430  0.4761  1.8366
  910MOL0     H22834   3.769   4.478   7.053 -1.8411  1.9964  3.0251
  910MOL0     H22835   3.936   4.533   6.908 -3.6517  1.4033  0.4186
  910MOL0     H22836   4.334   5.820   6.005  2.9026  3.9860  1.1544
  910MOL0     H22837   4.378   6.034   5.908 -0.4653 -0.8088 -0.1473
  910MOL0     H22838   4.719   6.363   5.641 -0.1177 -0.4089 -0.1200
  910MOL0     H22839   4.717   6.529   5.469  0.1965 -0.1154  2.8088
  910MOL0     H22840   4.330   6.499   5.242  0.2973  1.8693 -2.5566
  910MOL0     H22841   4.385   6.618   5.373  0.3101 -2.7640  1.2628
  910MOL0     H22842   4.461   6.781   5.199  0.7866 -0.5115  1.9934
  910MOL0     H22843   4.283   6.756   5.191 -0.4637 -1.6938  0.6092
  910MOL0     H22844   4.490   6.631   5.003  1.1966  1.8778  0.9284
  910MOL0     H22845   4.375   6.764   4.983 -0.6235  0.2935  2.5509
  910MOL0     H22846   4.286   6.484   5.044 -2.7605  1.4144  0.5124
  910MOL0     H22847   4.319   6.552   4.875 -1.7543  3.3457 -1.5423
  910MOL0     H22848   3.952   6.742   4.932 -0.9233 -2.0759 -1.2412
  910MOL0     H22849   4.422   6.296   5.262 -1.4066  0.6608  1.6008
  910MOL0     H22850   4.438   6.122   5.438  0.2454 -0.2812  3.2632
  911MOL0     O22851   2.463   3.157   2.450 -0.6677 -0.8518  0.0027
  911MOL0     C22852   2.465   3.179   2.323  0.0133  0.1925 -1.2323
  911MOL0     O22853   2.376   3.247   2.256 -0.3693  0.3294  0.4626
  911MOL0     C22854   2.268   3.308   2.324  0.3758  0.0579  1.1848
  911MOL0     C22855   2.146   3.278   2.267 -0.4655 -0.7707  0.0500
  911MOL0     C22856   2.022   3.312   2.345 -0.7156 -0.1568  0.2245
  911MOL0     C22857   2.029   3.392   2.461 -0.4896 -0.2089  0.0144
  911MOL0     O22858   1.916   3.429   2.524  0.0488  0.9054 -0.5344
  911MOL0     C22859   1.909   3.577   2.550 -0.0367  0.3310 -0.1126
  911MOL0     C22860   1.785   3.602   2.634 -0.2467 -0.4783 -0.8548
  911MOL0     C22861   1.666   3.600   2.539  0.9967  0.0419 -1.0339
  911MOL0     C22862   1.528   3.638   2.607 -1.1840  0.1620  1.2007
  911MOL0     C22863   1.423   3.582   2.498  0.4690  0.0917 -0.3494
  911MOL0     C22864   1.276   3.570   2.563  0.2524  0.6139 -0.8734
  911MOL0     C22865   1.238   3.678   2.667 -0.6721  0.4808  0.0191
  911MOL0     C22866   1.086   3.686   2.701 -0.4044 -0.0123  0.0842
  911MOL0     N22867   1.067   3.780   2.810  0.3442  0.2431  0.0498
  911MOL0     C22868   0.943   3.801   2.852  0.1008 -0.1493  0.5234
  911MOL0     C22869   0.948   3.861   2.978 -0.5566 -0.8851  0.8166
  911MOL0     C22870   0.830   3.902   3.064  0.1301  0.4346  0.2509
  911MOL0     C22871   0.856   4.021   3.164  0.7310 -0.0608  0.1329
  911MOL0     C22872   0.789   4.155   3.130 -0.3777  0.6407  0.3429
  911MOL0     C22873   0.876   4.273   3.167  0.4101 -0.1200 -0.2522
  911MOL0     O22874   0.789   4.366   3.246 -0.7856  0.3600  0.0682
  911MOL0     C22875   0.752   4.481   3.178 -0.6963  0.4262  0.2693
  911MOL0     C22876   0.791   4.600   3.228 -0.9745 -0.0205  0.0201
  911MOL0     C22877   0.772   4.726   3.168 -0.6135 -0.0630 -0.5577
  911MOL0     C22878   0.817   4.849   3.245 -0.3255 -0.6457 -0.2770
  911MOL0     C22879   0.686   4.734   3.056 -0.5778  0.3929  0.5981
  911MOL0     C22880   0.668   4.865   2.992 -0.1649  1.0110 -0.4958
  911MOL0     O22881   0.603   4.954   3.070 -0.2221 -0.1287  0.1845
  911MOL0     C22882   0.580   5.077   3.004  0.1429  0.2455 -0.4320
  911MOL0     C22883   0.447   5.133   3.021 -0.6419  0.2429 -0.1380
  911MOL0     C22884   0.405   5.253   2.955  0.6816 -0.3066 -1.0270
  911MOL0     C22885   0.504   5.340   2.899 -0.6597 -0.0560 -0.5777
  911MOL0     O22886   0.493   5.464   2.850  0.2524  0.1065 -0.4164
  911MOL0     C22887   0.477   5.565   2.961  0.2436  0.9729 -0.3721
  911MOL0     C22888   0.515   5.698   2.915 -0.5773 -0.1252  0.6336
  911MOL0     C22889   0.520   5.792   3.036 -0.0899 -0.2728 -0.3060
  911MOL0     C22890   0.574   5.930   3.006  0.2853 -0.5310  0.4142
  911MOL0     C22891   0.590   6.010   3.143 -0.4111  0.0183 -0.1817
  911MOL0     C22892   0.628   6.157   3.127 -0.1384  0.0970  0.0766
  911MOL0     C22893   0.516   6.239   3.063 -0.6158 -0.4047 -0.9356
  911MOL0     C22894   0.565   6.387   3.060  0.5032  0.8757 -0.2973
  911MOL0    Cl22895   0.463   6.490   2.963 -0.0606 -0.1271  0.0009
  911MOL0     C22896   0.635   5.281   2.882 -0.3541 -0.0706  0.5015
  911MOL0     C22897   0.669   5.160   2.940 -0.0227  0.0056  0.1853
  911MOL0     O22898   0.688   4.875   2.867  0.0950 -0.1773  0.1892
  911MOL0     C22899   0.655   4.613   2.993  0.2773 -0.1333 -0.5189
  911MOL0     C22900   0.688   4.485   3.052 -0.1914  0.5277 -0.4298
  911MOL0     N22901   1.086   3.870   3.004  0.1445  0.0700  0.2532
  911MOL0     N22902   1.154   3.820   2.907 -0.3365  0.1754 -0.7160
  911MOL0     C22903   2.160   3.426   2.512  0.4667 -0.5943 -0.9889
  911MOL0     C22904   2.269   3.374   2.444 -0.4248  0.1527  0.6002
  911MOL0     C22905   2.580   3.120   2.249  1.0363 -0.2326 -0.1660
  911MOL0     C22906   2.676   3.032   2.306  0.0899  0.0884 -0.5753
  911MOL0     C22907   2.787   3.006   2.234  0.5335  0.3512  1.1088
  911MOL0     C22908   2.816   3.064   2.112 -0.5498  0.7014 -0.4145
  911MOL0     O22909   2.942   3.024   2.057 -0.2870 -0.3731 -0.2963
  911MOL0     C22910   2.999   3.106   1.947 -0.6330  0.0875  0.5721
  911MOL0     C22911   3.107   3.020   1.878  0.1603 -0.9496 -0.6434
  911MOL0     C22912   3.040   2.907   1.810  0.0882  0.4116 -0.7527
  911MOL0     C22913   3.135   2.797   1.755 -0.5308 -0.4219 -0.4889
  911MOL0     C22914   3.202   2.853   1.641 -0.8845  0.0940  0.2126
  911MOL0     C22915   3.251   2.892   1.532  0.4110 -0.4582 -0.5579
  911MOL0     C22916   2.718   3.149   2.057 -0.0682  0.7809 -0.5805
  911MOL0     C22917   2.598   3.169   2.122  0.6608 -0.5628 -0.6153
  911MOL0     H22918   2.136   3.219   2.177 -0.6129 -3.2566  1.5790
  911MOL0     H22919   1.930   3.295   2.290  0.1627  0.4020 -1.4941
  911MOL0     H22920   1.994   3.616   2.606  0.0512  0.4270 -0.3107
  911MOL0     H22921   1.893   3.642   2.463 -0.4188  0.6191  0.1652
  911MOL0     H22922   1.773   3.536   2.720 -1.6645  0.1093 -0.5602
  911MOL0     H22923   1.806   3.706   2.662 -0.2503 -1.4699  3.4171
  911MOL0     H22924   1.680   3.675   2.460 -0.2533  1.0271 -0.3548
  911MOL0     H22925   1.652   3.497   2.505 -2.9490 -0.7867  2.2738
  911MOL0     H22926   1.515   3.572   2.693  0.7424 -0.7018  0.8703
  911MOL0     H22927   1.522   3.745   2.630 -2.1494  0.5458 -0.6282
  911MOL0     H22928   1.404   3.666   2.431  0.0717  0.6764  0.4850
  911MOL0     H22929   1.460   3.505   2.429 -1.3823 -0.2130 -1.0670
  911MOL0     H22930   1.203   3.572   2.481  1.0720 -3.6366 -1.9009
  911MOL0     H22931   1.264   3.475   2.615 -1.0649  1.3149  0.1748
  911MOL0     H22932   1.297   3.655   2.756  4.0904  1.8139 -2.4582
  911MOL0     H22933   1.280   3.774   2.635  0.7883  0.0400  0.5454
  911MOL0     H22934   1.050   3.584   2.719 -0.9415 -0.9727 -4.9783
  911MOL0     H22935   1.033   3.720   2.612  1.0026  2.0434 -0.0247
  911MOL0     H22936   0.847   3.774   2.809 -0.6766 -1.4762  2.8743
  911MOL0     H22937   0.744   3.925   3.000  2.6581  2.8957 -2.6359
  911MOL0     H22938   0.806   3.807   3.113  1.1262 -0.0835 -0.2288
  911MOL0     H22939   0.962   4.040   3.184  0.2778  1.1130  1.5094
  911MOL0     H22940   0.820   3.990   3.262  1.9826  0.7711  0.8771
  911MOL0     H22941   0.688   4.152   3.172 -1.4766 -0.6331 -2.1959
  911MOL0     H22942   0.770   4.160   3.023  1.7339 -0.5952 -0.1325
  911MOL0     H22943   0.911   4.327   3.079 -0.4424  0.3340 -0.3232
  911MOL0     H22944   0.965   4.246   3.224  0.5551 -0.5951 -0.6995
  911MOL0     H22945   0.835   4.596   3.328 -3.4185 -1.5570  1.1188
  911MOL0     H22946   0.740   4.922   3.273  2.3960  1.7287  1.7158
  911MOL0     H22947   0.866   4.819   3.339 -2.0438  1.2073  1.2963
  911MOL0     H22948   0.901   4.889   3.187 -3.3626  1.1211 -3.8457
  911MOL0     H22949   0.380   5.070   3.078 -0.2094  1.3908  1.7266
  911MOL0     H22950   0.304   5.292   2.959  0.3256 -1.0890  3.2805
  911MOL0     H22951   0.379   5.576   3.009  1.8671  1.9410  3.0321
  911MOL0     H22952   0.547   5.545   3.043  1.4450  0.9540 -1.3791
  911MOL0     H22953   0.606   5.687   2.856  0.1743 -0.0376  1.7499
  911MOL0     H22954   0.442   5.745   2.849 -1.2555  0.4755  1.7852
  911MOL0     H22955   0.586   5.759   3.117 -1.5043  2.0468  1.9656
  911MOL0     H22956   0.417   5.803   3.072 -0.0292 -2.6662  0.7874
  911MOL0     H22957   0.670   5.921   2.955  0.3246 -1.0335  0.5709
  911MOL0     H22958   0.500   5.974   2.939  2.2451 -2.4998 -3.3783
  911MOL0     H22959   0.666   5.961   3.205 -1.5455  1.2252  2.3209
  911MOL0     H22960   0.497   6.003   3.199 -0.6203 -0.5987 -0.5926
  911MOL0     H22961   0.660   6.200   3.222  0.9776  0.4336 -0.4273
  911MOL0     H22962   0.722   6.166   3.072  1.0915 -1.4928  1.7940
  911MOL0     H22963   0.429   6.234   3.129 -0.1966  0.9091 -0.2439
  911MOL0     H22964   0.501   6.205   2.960  2.2035 -1.2091 -1.1605
  911MOL0     H22965   0.656   6.390   2.999 -0.3026  1.5512 -1.5130
  911MOL0     H22966   0.583   6.431   3.158  0.3982  1.9554 -0.7523
  911MOL0     H22967   0.713   5.335   2.829  0.8144  0.1149  2.3223
  911MOL0     H22968   0.770   5.122   2.928  0.4101  0.8161  1.1476
  911MOL0     H22969   0.599   4.614   2.900  1.9994 -4.2160 -1.8194
  911MOL0     H22970   0.662   4.396   2.995  5.3025  0.3826 -3.3367
  911MOL0     H22971   2.174   3.490   2.598  0.7242 -1.7493 -0.1506
  911MOL0     H22972   2.364   3.374   2.496  1.0736  1.5145 -1.9174
  911MOL0     H22973   2.661   3.003   2.410 -0.1631 -0.2794 -0.7137
  911MOL0     H22974   2.863   2.946   2.284  1.1005  1.0319  1.0828
  911MOL0     H22975   2.926   3.132   1.870  3.1364  1.9897 -2.7399
  911MOL0     H22976   3.055   3.192   1.985  2.9713 -1.5275 -0.6381
  911MOL0     H22977   3.177   2.972   1.947  0.6214 -1.1333 -1.2326
  911MOL0     H22978   3.162   3.074   1.800  0.9053  0.0423  0.5466
  911MOL0     H22979   2.972   2.940   1.731 -1.4754 -0.1290  0.3077
  911MOL0     H22980   2.975   2.856   1.882  2.4132 -0.1922  1.0406
  911MOL0     H22981   3.079   2.712   1.715 -0.3030 -0.7248 -0.1738
  911MOL0     H22982   3.196   2.751   1.834 -0.2525 -2.0966 -1.6250
  911MOL0     H22983   3.284   2.938   1.441 -1.6663  0.4420 -0.9232
  911MOL0     H22984   2.733   3.194   1.959  1.4775 -0.6142 -1.0296
  911MOL0     H22985   2.522   3.232   2.078  1.2325  4.4977  4.4178
  912MOL0     O22986   2.560   3.652   5.243  0.6285 -0.4542  0.2511
  912MOL0     C22987   2.555   3.559   5.166 -0.2467 -1.1115  0.1063
  912MOL0     O22988   2.665   3.521   5.089  0.1357  0.6824  0.6439
  912MOL0     C22989   2.758   3.615   5.067  0.8462  1.0516  1.5668
  912MOL0     C22990   2.742   3.721   4.966 -0.1536  0.6379 -0.6813
  912MOL0     C22991   2.833   3.822   4.959  0.1428  0.1138  0.0178
  912MOL0     C22992   2.939   3.820   5.046 -0.0290  0.7892 -0.4308
  912MOL0     O22993   3.019   3.933   5.066 -0.6722  1.2868  0.1660
  912MOL0     C22994   2.947   4.064   5.056  0.5244 -0.3758 -0.0662
  912MOL0     C22995   2.853   4.094   5.167  0.5540 -0.5741 -0.8967
  912MOL0     C22996   2.909   4.094   5.306  0.1991  0.0817 -0.3984
  912MOL0     C22997   2.800   4.034   5.398  0.7661  0.2395 -0.3849
  912MOL0     C22998   2.866   4.017   5.535  0.3145 -0.7039 -0.3381
  912MOL0     C22999   2.765   3.940   5.618  0.0769 -0.2743 -0.1650
  912MOL0     C23000   2.771   3.790   5.591  0.1700 -0.2412  0.9929
  912MOL0     C23001   2.652   3.701   5.640 -0.1200  0.4771 -0.0197
  912MOL0     N23002   2.657   3.695   5.791  0.3351  0.1369  0.2063
  912MOL0     C23003   2.725   3.607   5.864 -1.2071 -0.0875 -0.0206
  912MOL0     C23004   2.733   3.653   5.994  0.0440 -1.3856 -0.8179
  912MOL0     C23005   2.837   3.603   6.102  0.4244 -0.2813  0.3418
  912MOL0     C23006   2.828   3.450   6.113 -0.7328 -0.7735  0.1996
  912MOL0     C23007   2.885   3.383   6.236 -0.2490 -0.5677 -0.0691
  912MOL0     C23008   3.012   3.444   6.291  0.8983  0.6714  0.1498
  912MOL0     O23009   3.128   3.398   6.222  0.2667 -0.0891 -0.4277
  912MOL0     C23010   3.240   3.469   6.252 -0.3166  0.0545  0.6782
  912MOL0     C23011   3.327   3.491   6.136 -1.0483 -0.7522 -0.7653
  912MOL0     C23012   3.456   3.549   6.151  0.7504  0.0218  0.6386
  912MOL0     C23013   3.540   3.546   6.027  0.0746 -0.4762 -0.0288
  912MOL0     C23014   3.500   3.599   6.275 -0.1022  1.3061 -0.5995
  912MOL0     C23015   3.637   3.650   6.293 -0.2357 -0.6691 -0.3431
  912MOL0     O23016   3.666   3.786   6.327 -0.2805 -0.2289 -0.6938
  912MOL0     C23017   3.792   3.829   6.327 -0.7385  0.3672  0.5483
  912MOL0     C23018   3.887   3.800   6.233 -1.6297 -0.4928  1.4235
  912MOL0     C23019   4.022   3.842   6.245  0.2552 -0.1351 -0.1324
  912MOL0     C23020   4.051   3.917   6.354  0.3744  0.1182 -0.7279
  912MOL0     O23021   4.172   3.973   6.357  0.0118 -0.8019 -0.0360
  912MOL0     C23022   4.295   3.900   6.403  0.7762 -0.0360  0.3106
  912MOL0     C23023   4.397   3.868   6.297  0.3558  0.6519  0.0482
  912MOL0     C23024   4.474   4.000   6.265 -0.5720 -0.1933 -0.6220
  912MOL0     C23025   4.522   4.008   6.118  0.4670 -0.7635 -0.7806
  912MOL0     C23026   4.557   4.154   6.074  0.0871  0.4060 -0.7580
  912MOL0     C23027   4.594   4.162   5.935  0.4687  0.5799 -0.0889
  912MOL0     C23028   4.741   4.133   5.911  1.4606 -0.2266  0.1002
  912MOL0     C23029   4.799   4.164   5.773 -0.5580 -0.0356 -1.2381
  912MOL0    Cl23030   4.722   4.085   5.649 -0.4589  0.0366 -0.1708
  912MOL0     C23031   3.954   3.951   6.459 -0.5833 -0.0662  0.1595
  912MOL0     C23032   3.824   3.901   6.447 -0.2659 -0.8422  0.1957
  912MOL0     O23033   3.710   3.553   6.305 -0.8224  0.0535 -0.2525
  912MOL0     C23034   3.408   3.593   6.386  0.6108  1.7688 -0.8872
  912MOL0     C23035   3.282   3.527   6.376  0.3495 -0.0642 -0.7285
  912MOL0     N23036   2.656   3.770   6.002  0.4908  0.4880 -0.2036
  912MOL0     N23037   2.617   3.794   5.879  0.1883  0.8440 -0.5255
  912MOL0     C23038   2.956   3.716   5.141 -0.2464  0.2129 -1.0003
  912MOL0     C23039   2.871   3.610   5.148  0.8035  0.0370  0.2369
  912MOL0     C23040   2.429   3.477   5.158 -0.0503  1.1093  0.0731
  912MOL0     C23041   2.331   3.524   5.244 -0.1187  0.0878 -0.6978
  912MOL0     C23042   2.216   3.446   5.264  0.4220 -0.6181  0.5235
  912MOL0     C23043   2.205   3.329   5.183  1.0823  0.5026  0.1405
  912MOL0     O23044   2.100   3.238   5.202 -0.1227  0.2025  0.2881
  912MOL0     C23045   2.104   3.112   5.128  0.4798  0.9052 -0.8149
  912MOL0     C23046   1.968   3.032   5.143 -0.6208  0.2360 -0.1742
  912MOL0     C23047   1.941   2.949   5.017  0.2896 -0.5694 -0.1009
  912MOL0     C23048   1.887   2.811   5.068 -0.2661  0.0051  0.1311
  912MOL0     C23049   1.866   2.732   4.951  0.5559  0.8013 -0.0407
  912MOL0     C23050   1.862   2.673   4.844  0.1927 -0.4418 -0.4457
  912MOL0     C23051   2.300   3.295   5.085  0.1038  0.5202 -0.0778
  912MOL0     C23052   2.421   3.359   5.076  0.4306 -0.2478 -0.3879
  912MOL0     H23053   2.664   3.703   4.893  0.1474 -0.9701 -0.6352
  912MOL0     H23054   2.816   3.906   4.892  1.2852 -0.0764 -0.5398
  912MOL0     H23055   3.027   4.138   5.066  0.6421 -0.5548  0.3779
  912MOL0     H23056   2.893   4.074   4.962  1.6701  0.1129 -0.6955
  912MOL0     H23057   2.800   4.187   5.143 -0.0184 -1.4361 -3.2021
  912MOL0     H23058   2.778   4.015   5.159 -1.1580  1.0111 -1.2382
  912MOL0     H23059   3.004   4.039   5.314 -1.6033 -3.3523 -0.9013
  912MOL0     H23060   2.932   4.196   5.338  0.4833 -0.2864  0.6108
  912MOL0     H23061   2.711   4.097   5.398 -0.4207 -1.3422 -1.7916
  912MOL0     H23062   2.770   3.936   5.359 -1.9246 -1.2219  4.4707
  912MOL0     H23063   2.959   3.960   5.529  0.3677 -0.5518 -1.1059
  912MOL0     H23064   2.893   4.112   5.582 -0.4522 -1.3925  1.6135
  912MOL0     H23065   2.797   3.951   5.722 -0.0657 -1.1372 -0.0235
  912MOL0     H23066   2.665   3.981   5.607  0.3047  0.3834  0.1339
  912MOL0     H23067   2.757   3.776   5.483  0.5986 -3.1873  1.2306
  912MOL0     H23068   2.863   3.741   5.623  0.6223 -2.4852 -3.0982
  912MOL0     H23069   2.639   3.595   5.616 -6.1034  0.6461  0.8979
  912MOL0     H23070   2.562   3.747   5.598 -1.3434 -0.5814  1.3103
  912MOL0     H23071   2.777   3.519   5.825 -3.1092  0.6839 -4.9881
  912MOL0     H23072   2.941   3.633   6.082  0.0448 -0.3414 -2.0031
  912MOL0     H23073   2.799   3.637   6.198  1.2143 -0.8890  0.8851
  912MOL0     H23074   2.883   3.419   6.023  0.0818  2.8763 -0.7576
  912MOL0     H23075   2.724   3.417   6.104 -1.2834  1.0229 -0.5379
  912MOL0     H23076   2.908   3.279   6.213  2.7726  0.2754 -1.2935
  912MOL0     H23077   2.812   3.383   6.318  2.4465 -1.1906  2.5238
  912MOL0     H23078   3.028   3.420   6.396  1.9736  3.5960  0.7549
  912MOL0     H23079   2.991   3.551   6.276 -1.1172  0.0198 -2.6421
  912MOL0     H23080   3.308   3.441   6.041  1.9094 -1.4721 -1.0812
  912MOL0     H23081   3.624   3.477   6.037  3.8720  3.3851 -1.7930
  912MOL0     H23082   3.484   3.536   5.933 -0.9037 -2.2292  0.6899
  912MOL0     H23083   3.577   3.648   6.016  0.8642 -0.6264  1.1300
  912MOL0     H23084   3.850   3.746   6.146 -1.3372 -0.8699  1.5309
  912MOL0     H23085   4.094   3.813   6.169  1.1027 -2.5099  1.4814
  912MOL0     H23086   4.345   3.967   6.474  2.0751  0.6918 -1.2282
  912MOL0     H23087   4.263   3.807   6.452 -0.9816  0.2223 -0.2909
  912MOL0     H23088   4.468   3.793   6.333 -0.1081 -0.4531 -1.2827
  912MOL0     H23089   4.337   3.821   6.218 -0.1645 -0.4493  1.0659
  912MOL0     H23090   4.553   4.015   6.338 -1.5907  2.3198  0.0856
  912MOL0     H23091   4.412   4.089   6.281 -0.0121 -0.0416  0.8513
  912MOL0     H23092   4.605   3.937   6.108  0.5139 -0.8719  0.2644
  912MOL0     H23093   4.443   3.968   6.053 -0.6878  1.5872 -0.9155
  912MOL0     H23094   4.640   4.196   6.132  0.6487  1.5803 -2.3347
  912MOL0     H23095   4.471   4.220   6.092 -0.6341 -1.0010  1.3323
  912MOL0     H23096   4.524   4.094   5.885  0.9742 -0.3119  0.3986
  912MOL0     H23097   4.577   4.266   5.905  0.9127  0.7749  0.3156
  912MOL0     H23098   4.758   4.028   5.935 -2.9607 -1.3128 -0.5515
  912MOL0     H23099   4.801   4.188   5.984  0.8281 -1.8331  1.9162
  912MOL0     H23100   4.907   4.148   5.762 -0.5446  1.3594 -3.9189
  912MOL0     H23101   4.778   4.271   5.769  0.0400  0.0850 -1.2996
  912MOL0     H23102   3.983   4.012   6.544 -0.9147  0.6376 -0.2230
  912MOL0     H23103   3.750   3.919   6.524 -1.3717 -2.6582 -0.3848
  912MOL0     H23104   3.433   3.616   6.490  1.0250 -0.7913 -0.3599
  912MOL0     H23105   3.221   3.504   6.463 -2.1954  2.5459 -1.6321
  912MOL0     H23106   3.040   3.729   5.209  1.3004 -3.8694 -1.8519
  912MOL0     H23107   2.871   3.529   5.220  3.0457  0.1695  0.4760
  912MOL0     H23108   2.335   3.619   5.296 -0.9578 -0.9652  1.3924
  912MOL0     H23109   2.151   3.491   5.338  3.4596  0.7486  2.5815
  912MOL0     H23110   2.109   3.125   5.019  0.1416  2.7411 -0.6530
  912MOL0     H23111   2.182   3.047   5.167 -0.4555  0.7312  0.8679
  912MOL0     H23112   1.891   3.103   5.172 -2.5102 -1.0653 -1.7102
  912MOL0     H23113   1.983   2.958   5.223 -0.3265  0.9351  0.4267
  912MOL0     H23114   2.030   2.946   4.955  0.7029  0.3400  0.4345
  912MOL0     H23115   1.857   3.001   4.970  0.7556  0.6041  0.3376
  912MOL0     H23116   1.804   2.831   5.137  2.6511  2.4708  3.2735
  912MOL0     H23117   1.957   2.741   5.114 -1.8220 -0.2785  2.2057
  912MOL0     H23118   1.856   2.624   4.749  1.8254 -2.7958  0.5865
  912MOL0     H23119   2.293   3.212   5.015 -1.2127  0.3254  0.2600
  912MOL0     H23120   2.499   3.311   5.017  0.1261  1.1447 -1.9978
  913MOL0     O23121   5.220   1.024   8.635  0.2235  0.2400  0.0801
  913MOL0     C23122   5.184   1.035   8.515  0.3844  0.8571  0.1017
  913MOL0     O23123   5.084   1.124   8.463 -0.3424  0.5780  0.5241
  913MOL0     C23124   5.020   1.215   8.548 -0.5832 -0.5349 -0.3046
  913MOL0     C23125   5.075   1.284   8.668  0.3821 -0.0507  1.0932
  913MOL0     C23126   5.022   1.393   8.729  0.6938  0.3303 -0.1104
  913MOL0     C23127   4.889   1.422   8.690  0.3249  0.0984 -0.0974
  913MOL0     O23128   4.814   1.524   8.733 -1.1624  0.0327  0.3046
  913MOL0     C23129   4.877   1.638   8.797 -1.0677 -0.0559  0.2634
  913MOL0     C23130   4.953   1.739   8.706 -1.0515  0.2917  0.7351
  913MOL0     C23131   4.870   1.839   8.615  0.5764  0.1212 -0.3454
  913MOL0     C23132   4.767   1.895   8.712  0.5625 -0.9211 -0.1431
  913MOL0     C23133   4.682   2.003   8.634  0.1806  0.1644  0.2855
  913MOL0     C23134   4.563   2.077   8.717  0.1560 -0.1563  0.7135
  913MOL0     C23135   4.508   2.196   8.631  1.5311 -0.1736 -0.1492
  913MOL0     C23136   4.395   2.260   8.708 -0.1532  0.0908  0.6359
  913MOL0     N23137   4.322   2.349   8.626 -0.6748 -0.0787 -0.6533
  913MOL0     C23138   4.357   2.484   8.615 -0.4852  0.4058  0.5481
  913MOL0     C23139   4.266   2.537   8.541 -0.0297 -0.5234  0.4116
  913MOL0     C23140   4.274   2.655   8.459 -0.1294  0.1967 -0.2781
  913MOL0     C23141   4.399   2.682   8.378 -0.9417 -0.4419 -0.1756
  913MOL0     C23142   4.521   2.708   8.463 -0.1936 -0.4201  0.2228
  913MOL0     C23143   4.607   2.817   8.391 -0.3653  0.2825 -1.4606
  913MOL0     O23144   4.661   2.767   8.271  0.1988 -1.2346 -0.3723
  913MOL0     C23145   4.743   2.661   8.288 -0.4742  0.6272  0.2922
  913MOL0     C23146   4.869   2.665   8.359  0.4455  0.1390  0.1581
  913MOL0     C23147   4.957   2.552   8.363  0.0845  0.4687 -0.1231
  913MOL0     C23148   5.084   2.561   8.454  0.7102 -0.1142  0.6137
  913MOL0     C23149   4.925   2.438   8.292  0.6730 -0.1113 -1.0605
  913MOL0     C23150   5.014   2.325   8.287 -0.5443  0.6542 -0.2955
  913MOL0     O23151   4.951   2.203   8.291 -0.3954  0.6409  0.0561
  913MOL0     C23152   5.017   2.081   8.309  0.8220 -0.0104  0.6667
  913MOL0     C23153   5.119   2.072   8.405  0.8590 -0.9855 -0.3790
  913MOL0     C23154   5.176   1.953   8.424 -0.3043  0.2251 -0.2055
  913MOL0     C23155   5.139   1.838   8.346 -0.0144  0.0297 -0.1615
  913MOL0     O23156   5.173   1.704   8.371  0.2111 -0.1620  0.2709
  913MOL0     C23157   5.289   1.678   8.453 -0.5632  0.3659 -0.3857
  913MOL0     C23158   5.293   1.530   8.452  0.9936  0.9105  0.2778
  913MOL0     C23159   5.438   1.479   8.474 -0.5158  0.2189 -0.0744
  913MOL0     C23160   5.448   1.332   8.534  1.2130 -0.9201  0.0089
  913MOL0     C23161   5.580   1.265   8.502 -0.3188 -0.0700 -0.1637
  913MOL0     C23162   5.610   1.144   8.600  0.1456 -0.0940 -0.8888
  913MOL0     C23163   5.712   1.171   8.712  0.0101 -0.7379 -0.4821
  913MOL0     C23164   5.860   1.141   8.680 -0.5339 -0.5572 -0.0447
  913MOL0    Cl23165   5.931   1.288   8.595  0.1334 -0.3787 -0.2068
  913MOL0     C23166   5.027   1.855   8.262  0.5561  0.4676  0.0726
  913MOL0     C23167   4.976   1.976   8.235 -0.2915  0.2137 -0.1801
  913MOL0     O23168   5.137   2.341   8.277 -0.1243  0.1802  0.1539
  913MOL0     C23169   4.797   2.428   8.233  0.0992 -0.5193 -0.0383
  913MOL0     C23170   4.713   2.540   8.223  0.6345  0.1914 -0.1135
  913MOL0     N23171   4.176   2.443   8.501 -0.0390 -0.3394 -0.3307
  913MOL0     N23172   4.212   2.335   8.559  0.3720  0.5479  0.8903
  913MOL0     C23173   4.822   1.347   8.589 -0.8096 -0.6407 -0.5119
  913MOL0     C23174   4.886   1.250   8.523 -1.3865  1.0409 -0.3539
  913MOL0     C23175   5.245   0.936   8.415  0.3768  0.9043  0.0101
  913MOL0     C23176   5.369   0.885   8.436 -1.2993  0.3286  1.3445
  913MOL0     C23177   5.425   0.807   8.326  0.0337 -0.4480  0.0221
  913MOL0     C23178   5.354   0.770   8.215  1.3553  0.9352  0.3097
  913MOL0     O23179   5.425   0.690   8.115  0.2028 -0.6756 -0.6932
  913MOL0     C23180   5.368   0.657   7.988 -0.2017  0.0846 -0.1188
  913MOL0     C23181   5.386   0.766   7.884 -0.5067  0.0664 -0.2162
  913MOL0     C23182   5.297   0.762   7.763 -0.7497  0.4898  0.0717
  913MOL0     C23183   5.223   0.627   7.732  0.0191  0.4315 -0.4311
  913MOL0     C23184   5.079   0.612   7.784  0.4744  0.2259  0.1955
  913MOL0     C23185   4.968   0.604   7.828 -0.4874  0.2041  0.5457
  913MOL0     C23186   5.227   0.820   8.201  0.5846  0.5464 -0.2219
  913MOL0     C23187   5.167   0.904   8.300  0.5242  0.2140  0.5996
  913MOL0     H23188   5.173   1.251   8.701  1.1671  2.4323  1.4612
  913MOL0     H23189   5.091   1.438   8.800  0.6429 -2.4151  1.8307
  913MOL0     H23190   4.800   1.693   8.850 -0.8159  0.2721  0.2873
  913MOL0     H23191   4.949   1.602   8.871  3.4463  4.6362 -1.2400
  913MOL0     H23192   5.021   1.798   8.768  1.5007 -0.2135 -1.3521
  913MOL0     H23193   5.015   1.688   8.632  0.0001  1.2084  0.9533
  913MOL0     H23194   4.941   1.916   8.583 -1.4520  2.2257 -0.0209
  913MOL0     H23195   4.827   1.781   8.533  0.9986 -0.2308 -0.3220
  913MOL0     H23196   4.694   1.817   8.733 -0.1491 -0.7436 -1.8111
  913MOL0     H23197   4.806   1.946   8.801  2.2433 -0.5264 -1.0472
  913MOL0     H23198   4.749   2.078   8.591 -1.1687  0.5515 -1.2697
  913MOL0     H23199   4.639   1.943   8.553  0.0196 -1.1771  1.3199
  913MOL0     H23200   4.492   1.999   8.749  2.3972 -1.8365  1.8773
  913MOL0     H23201   4.610   2.121   8.805  0.0311  0.1154  0.6452
  913MOL0     H23202   4.587   2.268   8.609 -0.7156  2.5952  0.2422
  913MOL0     H23203   4.484   2.155   8.532  2.8584  0.1304 -0.6202
  913MOL0     H23204   4.435   2.321   8.789  2.0969  2.3207 -1.9555
  913MOL0     H23205   4.329   2.180   8.743 -0.1701 -0.9246 -1.5447
  913MOL0     H23206   4.447   2.538   8.643  1.8443 -2.7135 -0.3570
  913MOL0     H23207   4.197   2.649   8.381  0.9577 -1.6891 -1.2621
  913MOL0     H23208   4.258   2.740   8.526 -0.5695  1.0210 -1.3931
  913MOL0     H23209   4.378   2.756   8.300  1.4607 -0.5177 -0.9802
  913MOL0     H23210   4.417   2.590   8.321  0.8890  1.2668 -2.5471
  913MOL0     H23211   4.579   2.616   8.473 -2.4057 -2.4955 -3.5342
  913MOL0     H23212   4.495   2.729   8.567  2.5681  0.2843  0.8473
  913MOL0     H23213   4.683   2.852   8.462 -0.5500 -1.2645 -0.4566
  913MOL0     H23214   4.540   2.900   8.365 -0.1332  0.4083 -1.6655
  913MOL0     H23215   4.906   2.757   8.402 -1.2377  0.3389  1.2865
  913MOL0     H23216   5.104   2.470   8.512 -1.8566  0.4969  2.6712
  913MOL0     H23217   5.166   2.597   8.391 -0.1418 -0.9050 -1.0085
  913MOL0     H23218   5.066   2.640   8.527  3.1134  3.1273 -1.9954
  913MOL0     H23219   5.133   2.155   8.474 -3.7822  1.7507 -2.2954
  913MOL0     H23220   5.260   1.961   8.493 -1.3390  0.3984  1.0806
  913MOL0     H23221   5.378   1.716   8.400 -2.9472  0.3862 -4.8577
  913MOL0     H23222   5.290   1.713   8.556  1.3838 -3.1281  0.9607
  913MOL0     H23223   5.228   1.485   8.527  2.4916  2.6316  2.7773
  913MOL0     H23224   5.255   1.496   8.355  3.0297 -2.0418  0.3968
  913MOL0     H23225   5.504   1.538   8.538  2.4727 -1.4175 -1.4181
  913MOL0     H23226   5.500   1.479   8.383  3.4439  0.0189  2.3601
  913MOL0     H23227   5.443   1.339   8.643  0.7554  1.2601 -0.1244
  913MOL0     H23228   5.360   1.276   8.499  0.5674 -2.1269  3.2607
  913MOL0     H23229   5.666   1.333   8.503  0.0987 -0.5926 -0.1331
  913MOL0     H23230   5.578   1.230   8.398 -3.5867 -0.5972 -0.0417
  913MOL0     H23231   5.519   1.113   8.652  0.6803  0.0492  0.1538
  913MOL0     H23232   5.655   1.064   8.540  5.1094  1.3771  0.4201
  913MOL0     H23233   5.688   1.107   8.798 -0.7548  0.5656  0.3010
  913MOL0     H23234   5.699   1.272   8.752  1.8682 -0.7530  0.3000
  913MOL0     H23235   5.884   1.058   8.614 -1.4745  0.3867 -1.6649
  913MOL0     H23236   5.909   1.134   8.777 -1.6198  1.5246  0.7251
  913MOL0     H23237   4.967   1.777   8.216  0.5373 -2.4434  4.3809
  913MOL0     H23238   4.898   1.982   8.160  1.6195  1.5688 -2.2025
  913MOL0     H23239   4.774   2.346   8.167  0.3691 -1.0107  0.4739
  913MOL0     H23240   4.617   2.548   8.173 -0.1603  3.0465  1.6030
  913MOL0     H23241   4.730   1.383   8.544  2.1167  5.0918 -2.9552
  913MOL0     H23242   4.843   1.195   8.439 -0.0138  1.7495 -1.5614
  913MOL0     H23243   5.425   0.901   8.528 -3.4701  0.8974  2.6420
  913MOL0     H23244   5.516   0.754   8.352  2.5376  2.7565 -1.5563
  913MOL0     H23245   5.420   0.572   7.942  0.5815  1.6874 -2.3837
  913MOL0     H23246   5.266   0.621   8.000 -0.1268 -0.0477  0.1312
  913MOL0     H23247   5.487   0.745   7.849 -1.8094 -2.0937 -3.0886
  913MOL0     H23248   5.401   0.868   7.920 -0.5314  0.8211 -2.2533
  913MOL0     H23249   5.360   0.800   7.682  1.1315 -0.0208  1.2430
  913MOL0     H23250   5.234   0.850   7.782 -1.8552 -0.3001  0.1770
  913MOL0     H23251   5.290   0.546   7.764  0.9227  0.9082 -1.0810
  913MOL0     H23252   5.214   0.618   7.624 -3.4658 -1.1628 -0.1521
  913MOL0     H23253   4.873   0.589   7.874  0.4948 -0.1926  2.5814
  913MOL0     H23254   5.168   0.794   8.114 -0.8363  2.8753 -0.0259
  913MOL0     H23255   5.071   0.954   8.288 -0.0891 -0.9748  0.4074
  914MOL0     O23256   7.200   8.433  10.104 -0.5882  0.7431  0.7452
  914MOL0     C23257   7.301   8.359  10.075  0.0939 -0.4262  0.5253
  914MOL0     O23258   7.430   8.380  10.120  0.1819  0.1129 -0.6582
  914MOL0     C23259   7.445   8.462  10.225  0.0585 -0.8673  0.5996
  914MOL0     C23260   7.364   8.479  10.335  0.9795 -0.1293 -0.5158
  914MOL0     C23261   7.401   8.555  10.441  0.1482 -0.2635 -0.0915
  914MOL0     C23262   7.531   8.605  10.445 -0.5025  0.5786  0.5823
  914MOL0     O23263   7.592   8.657  10.556  0.0863  0.0791  0.0294
  914MOL0     C23264   7.512   8.647  10.678 -1.1768  0.0629  0.8532
  914MOL0     C23265   7.596   8.697  10.789 -1.2627 -0.2408 -0.9827
  914MOL0     C23266   7.708   8.591  10.823  0.1662  0.1862 -0.2838
  914MOL0     C23267   7.814   8.639  10.924  0.3823  0.0562  0.5527
  914MOL0     C23268   7.903   8.529  10.962 -0.3127 -0.4290 -0.2922
  914MOL0     C23269   8.021   8.500  10.880 -0.1573 -0.3497 -0.7891
  914MOL0     C23270   8.101   8.381  10.942 -0.8056  0.4910  0.4791
  914MOL0     C23271   8.240   8.375  10.873 -0.7140  0.8718  0.0226
  914MOL0     N23272   8.222   8.348  10.727  0.4091 -0.4046  0.4700
  914MOL0     C23273   8.183   8.224  10.666 -0.0273 -0.1343 -1.4645
  914MOL0     C23274   8.238   8.228  10.542 -0.5439 -0.2603 -0.1448
  914MOL0     C23275   8.217   8.114  10.452  0.4882  1.2495  0.0321
  914MOL0     C23276   8.343   8.031  10.432  1.5016 -1.0742 -0.3060
  914MOL0     C23277   8.317   7.899  10.360 -0.8199  0.7641 -0.3878
  914MOL0     C23278   8.239   7.910  10.228 -0.1562  0.5108  0.0874
  914MOL0     O23279   8.096   7.920  10.242  0.9024 -0.4005  0.6684
  914MOL0     C23280   8.040   7.797  10.229  0.4308  0.5758 -0.2060
  914MOL0     C23281   8.010   7.718  10.346 -0.3725 -1.3273 -0.6241
  914MOL0     C23282   7.955   7.593  10.336 -0.2577  0.2442  0.4159
  914MOL0     C23283   7.919   7.531  10.461 -0.0601 -0.0369  0.7075
  914MOL0     C23284   7.944   7.541  10.202  0.2615 -0.7281 -0.9271
  914MOL0     C23285   7.907   7.397  10.180 -0.2837 -0.7612 -0.4474
  914MOL0     O23286   7.850   7.327  10.292  0.2893  0.3330  0.0884
  914MOL0     C23287   7.785   7.218  10.253 -0.5911  0.9054  0.0823
  914MOL0     C23288   7.855   7.092  10.264  0.0484 -0.0921 -0.5860
  914MOL0     C23289   7.783   6.978  10.237 -0.2881  0.5445  0.1762
  914MOL0     C23290   7.655   6.991  10.178 -0.6383 -0.1221  0.6383
  914MOL0     O23291   7.573   6.890  10.144 -0.7985  0.4622  0.2377
  914MOL0     C23292   7.617   6.758  10.132 -0.1721 -0.5280 -0.6250
  914MOL0     C23293   7.524   6.651  10.079  0.1266  0.0129 -0.7812
  914MOL0     C23294   7.539   6.647   9.931 -0.3874  0.6284  0.3487
  914MOL0     C23295   7.412   6.687   9.859  0.3353 -0.7167 -0.4458
  914MOL0     C23296   7.425   6.645   9.705  1.2529  0.3028  1.5376
  914MOL0     C23297   7.498   6.753   9.622  0.4302 -1.2790  1.4364
  914MOL0     C23298   7.496   6.705   9.480  0.6366  0.4397  0.2921
  914MOL0     C23299   7.575   6.803   9.398 -0.3744  0.2447  0.8257
  914MOL0    Cl23300   7.477   6.962   9.367  0.0284  0.4619  0.0391
  914MOL0     C23301   7.604   7.112  10.140  1.2890 -0.0138  0.3079
  914MOL0     C23302   7.671   7.231  10.178 -0.1594  0.5097  0.4451
  914MOL0     O23303   7.919   7.344  10.065 -0.1991  1.1859 -0.2807
  914MOL0     C23304   7.974   7.624  10.088  0.3232 -0.2157 -0.0182
  914MOL0     C23305   8.026   7.744  10.101  0.7486  0.4600  0.4795
  914MOL0     N23306   8.308   8.351  10.521 -0.0411 -0.2211 -0.8609
  914MOL0     N23307   8.292   8.417  10.625 -0.2888 -0.0001 -1.1995
  914MOL0     C23308   7.617   8.586  10.334 -0.7627 -0.8161 -0.8728
  914MOL0     C23309   7.576   8.518  10.227 -0.7263  0.3291  0.1010
  914MOL0     C23310   7.297   8.262   9.968  0.4257 -0.0461 -0.6651
  914MOL0     C23311   7.396   8.164   9.936  0.2562 -0.2621  0.2327
  914MOL0     C23312   7.379   8.078   9.832  0.0622 -0.6454 -0.7213
  914MOL0     C23313   7.266   8.089   9.750 -0.2726  0.2834  0.3956
  914MOL0     O23314   7.232   8.014   9.638  0.6580  0.0549 -0.4204
  914MOL0     C23315   7.315   7.903   9.602 -0.1034 -0.0678  0.0937
  914MOL0     C23316   7.457   7.955   9.536  0.5106 -0.6084 -0.0937
  914MOL0     C23317   7.453   7.939   9.383 -0.2428 -0.0548 -0.5678
  914MOL0     C23318   7.385   8.051   9.310 -0.8363  0.4794 -0.2464
  914MOL0     C23319   7.386   8.016   9.162  0.3039 -0.3905  0.6629
  914MOL0     C23320   7.414   7.961   9.052 -0.2214  0.3107 -1.2159
  914MOL0     C23321   7.162   8.179   9.783 -1.0637 -0.2752  0.1789
  914MOL0     C23322   7.185   8.268   9.889 -0.0287 -0.6073 -0.1122
  914MOL0     H23323   7.261   8.444  10.335 -0.1309  2.7983  0.7447
  914MOL0     H23324   7.344   8.562  10.533  2.2940  0.5756  1.2415
  914MOL0     H23325   7.415   8.697  10.668 -1.2624 -0.5092 -1.5214
  914MOL0     H23326   7.496   8.544  10.709 -2.7083  0.7899  2.7322
  914MOL0     H23327   7.640   8.793  10.761  0.1469 -1.0533 -1.6800
  914MOL0     H23328   7.535   8.718  10.877 -1.1562  0.5996 -1.1067
  914MOL0     H23329   7.648   8.508  10.861 -3.6183  1.4958 -2.8140
  914MOL0     H23330   7.762   8.570  10.730  2.5566  1.5911  0.6916
  914MOL0     H23331   7.867   8.712  10.862  0.0787 -0.3564 -0.2128
  914MOL0     H23332   7.774   8.679  11.018  0.6484  0.3261  0.5514
  914MOL0     H23333   7.935   8.561  11.061 -1.0781  1.8908 -0.7271
  914MOL0     H23334   7.843   8.438  10.963 -0.8533 -0.1023 -1.2621
  914MOL0     H23335   7.988   8.470  10.780 -2.4434  1.4387 -0.6572
  914MOL0     H23336   8.066   8.599  10.897 -1.4853 -0.0586  1.4003
  914MOL0     H23337   8.117   8.384  11.050  1.6694  1.1204  0.1651
  914MOL0     H23338   8.048   8.286  10.934  0.8712 -0.3832 -1.3752
  914MOL0     H23339   8.306   8.301  10.919  2.0254  1.2908 -2.8416
  914MOL0     H23340   8.279   8.476  10.893 -1.2977  1.3124 -0.9669
  914MOL0     H23341   8.141   8.138  10.717  2.5019 -1.0114 -0.7068
  914MOL0     H23342   8.140   8.048  10.493  3.4566 -1.4300  1.6891
  914MOL0     H23343   8.185   8.143  10.351  1.9304 -1.8818 -1.4430
  914MOL0     H23344   8.380   8.025  10.535 -0.2998  0.1835  0.4735
  914MOL0     H23345   8.409   8.101  10.380 -0.6899 -0.2406 -2.1157
  914MOL0     H23346   8.275   7.827  10.431 -1.8519  2.1076  0.4158
  914MOL0     H23347   8.410   7.849  10.331 -0.3449  2.0874 -1.2285
  914MOL0     H23348   8.274   7.832  10.160 -0.9351  1.3764 -1.3622
  914MOL0     H23349   8.283   7.999  10.181  1.9442  0.5907  2.0493
  914MOL0     H23350   8.011   7.775  10.439 -3.0677 -1.3634 -0.5116
  914MOL0     H23351   7.812   7.508  10.450  0.1723 -0.4723 -0.8309
  914MOL0     H23352   7.982   7.444  10.478 -0.0563 -0.3857 -0.9871
  914MOL0     H23353   7.934   7.585  10.555 -0.8594  0.5314  0.5195
  914MOL0     H23354   7.955   7.090  10.305  0.1455  0.5952 -0.7680
  914MOL0     H23355   7.819   6.881  10.269  0.8688 -0.2777 -3.2082
  914MOL0     H23356   7.713   6.768  10.081 -0.2761  5.1310 -0.2512
  914MOL0     H23357   7.645   6.716  10.229  1.9834 -1.1335 -1.4470
  914MOL0     H23358   7.564   6.554  10.108  2.5771  0.9461 -0.7948
  914MOL0     H23359   7.422   6.656  10.119  0.2351 -2.4904 -0.0414
  914MOL0     H23360   7.568   6.545   9.905  2.3333  1.6685 -1.0362
  914MOL0     H23361   7.621   6.711   9.898 -0.1360 -0.4024 -1.1216
  914MOL0     H23362   7.334   6.620   9.897  0.6531 -2.6192 -2.9308
  914MOL0     H23363   7.393   6.792   9.886  1.8261 -0.6536  0.4797
  914MOL0     H23364   7.330   6.645   9.651  1.3802  3.3267  1.1172
  914MOL0     H23365   7.481   6.552   9.696  1.4928  0.5391  0.3789
  914MOL0     H23366   7.447   6.849   9.628  1.9544  0.3241 -4.6075
  914MOL0     H23367   7.605   6.761   9.642  1.1248 -2.5492 -1.2526
  914MOL0     H23368   7.392   6.682   9.451  0.0110  0.4910  2.3585
  914MOL0     H23369   7.544   6.607   9.477 -0.2533 -0.0839  1.7443
  914MOL0     H23370   7.608   6.767   9.300 -2.5703  0.8068 -0.1686
  914MOL0     H23371   7.661   6.834   9.458  0.1259  0.1031  0.1937
  914MOL0     H23372   7.515   7.117  10.078  1.6265  2.7915 -0.0773
  914MOL0     H23373   7.621   7.322  10.145 -0.8132  0.0429  0.1322
  914MOL0     H23374   7.945   7.586   9.990 -1.1186  0.0654  0.2835
  914MOL0     H23375   8.057   7.804  10.016  2.3947 -2.4901 -1.1714
  914MOL0     H23376   7.719   8.623  10.339 -0.8604 -0.4864 -1.3352
  914MOL0     H23377   7.630   8.514  10.133  0.5303  2.0528  0.6939
  914MOL0     H23378   7.486   8.147   9.995 -0.7025 -2.8684  1.0894
  914MOL0     H23379   7.447   7.997   9.807 -1.7984 -2.8233  0.8857
  914MOL0     H23380   7.340   7.843   9.689  1.9358 -0.7425 -0.8886
  914MOL0     H23381   7.269   7.835   9.530 -1.8649  2.3742 -1.2639
  914MOL0     H23382   7.531   7.889   9.582 -1.4726 -2.1032  1.0866
  914MOL0     H23383   7.483   8.059   9.560 -0.7122  0.1357 -1.8237
  914MOL0     H23384   7.415   7.839   9.363  1.8503 -0.9015 -0.5608
  914MOL0     H23385   7.559   7.931   9.356  0.5150 -1.6843  2.4271
  914MOL0     H23386   7.470   8.116   9.334 -0.1567 -0.5668  0.2925
  914MOL0     H23387   7.287   8.076   9.351 -0.8711  0.0071 -0.0318
  914MOL0     H23388   7.424   7.911   8.958 -1.7660 -2.9669  0.2035
  914MOL0     H23389   7.080   8.173   9.712 -0.7658 -2.3756 -0.0369
  914MOL0     H23390   7.112   8.349   9.898  1.2326  1.0913 -3.4624
  915MOL0     O23391  10.180  11.355   1.915 -0.4866 -0.1174 -0.0347
  915MOL0     C23392  10.097  11.275   1.877  0.6662  0.4609 -0.6506
  915MOL0     O23393  10.057  11.175   1.958  0.0350 -0.6266 -0.4545
  915MOL0     C23394  10.045  11.182   2.097  0.7424 -0.2978 -0.2082
  915MOL0     C23395  10.013  11.306   2.169 -0.0606 -0.3228 -0.7994
  915MOL0     C23396   9.999  11.308   2.316 -0.3675 -0.1067 -0.6363
  915MOL0     C23397  10.050  11.199   2.389  0.2444  0.0925  1.2578
  915MOL0     O23398  10.061  11.221   2.525 -0.0364 -0.2430  0.0335
  915MOL0     C23399  10.055  11.112   2.614 -0.1141  0.0388  0.0674
  915MOL0     C23400  10.000  11.137   2.755 -0.2910  0.0133  0.3505
  915MOL0     C23401  10.073  11.244   2.837  0.6404 -0.3159 -0.2408
  915MOL0     C23402  10.057  11.264   2.989  0.6222 -0.1348  0.3657
  915MOL0     C23403  10.180  11.338   3.044  0.4055 -0.2794  0.5944
  915MOL0     C23404  10.190  11.357   3.207  0.1241 -0.2259  0.0432
  915MOL0     C23405  10.091  11.461   3.253  0.3266 -0.2701  0.5797
  915MOL0     C23406  10.128  11.531   3.388  0.5049  0.4760 -0.1298
  915MOL0     N23407  10.053  11.476   3.501 -0.8006  0.1915 -0.1849
  915MOL0     C23408  10.098  11.465   3.628  0.1803 -0.1857 -0.0248
  915MOL0     C23409   9.990  11.424   3.692 -0.2850 -0.1349 -0.5893
  915MOL0     C23410   9.990  11.406   3.845 -0.5472  0.8490  0.0361
  915MOL0     C23411   9.972  11.542   3.914 -0.2203  0.5443 -0.1236
  915MOL0     C23412  10.008  11.527   4.067  1.0067 -0.0465  0.1908
  915MOL0     C23413  10.152  11.505   4.099  0.0566 -0.0973 -0.8675
  915MOL0     O23414  10.163  11.478   4.247  0.6250 -0.0730  0.2963
  915MOL0     C23415  10.279  11.420   4.279 -0.3585  0.0450 -0.4004
  915MOL0     C23416  10.399  11.468   4.237 -0.8733 -0.1881  0.8946
  915MOL0     C23417  10.525  11.405   4.267  0.3360  0.9048  0.3044
  915MOL0     C23418  10.651  11.481   4.233 -0.8090 -0.1301  0.6858
  915MOL0     C23419  10.522  11.276   4.324 -0.0515 -1.0190 -0.7953
  915MOL0     C23420  10.638  11.217   4.384  0.6571  0.1932  0.2884
  915MOL0     O23421  10.732  11.300   4.447 -0.0812  0.6306 -0.5091
  915MOL0     C23422  10.851  11.239   4.482 -0.1056  0.7768  0.6784
  915MOL0     C23423  10.937  11.179   4.387  0.0406  0.1019  0.5015
  915MOL0     C23424  11.054  11.116   4.430 -0.0305  0.4717 -0.1566
  915MOL0     C23425  11.096  11.117   4.568 -0.7804  0.0904  0.6852
  915MOL0     O23426  11.217  11.076   4.629 -0.4053 -0.1073 -0.1648
  915MOL0     C23427  11.340  11.112   4.569 -0.6904 -0.0287  0.8288
  915MOL0     C23428  11.358  11.270   4.549  0.0667  0.5156 -0.4925
  915MOL0     C23429  11.443  11.320   4.439 -0.8545  0.3878  0.2403
  915MOL0     C23430  11.388  11.298   4.295 -0.4863 -0.2792  0.3046
  915MOL0     C23431  11.266  11.395   4.292 -0.0654  0.6174 -0.5746
  915MOL0     C23432  11.206  11.374   4.154  0.4414 -0.0005  0.1327
  915MOL0     C23433  11.121  11.490   4.110  0.4354 -0.1511 -0.1870
  915MOL0     C23434  11.064  11.464   3.966 -0.2686  0.4746 -0.6702
  915MOL0    Cl23435  11.174  11.509   3.833 -0.1972  0.1196 -0.1845
  915MOL0     C23436  10.995  11.153   4.656  1.2569 -0.1198 -0.0061
  915MOL0     C23437  10.879  11.229   4.615 -0.0711 -0.5142 -0.2275
  915MOL0     O23438  10.645  11.094   4.382  0.5705 -0.0594  0.1688
  915MOL0     C23439  10.402  11.239   4.378 -0.0094  0.1083 -0.1003
  915MOL0     C23440  10.278  11.303   4.354  0.0329  0.4166  0.2434
  915MOL0     N23441   9.880  11.423   3.610 -0.5797  0.0327  0.5106
  915MOL0     N23442   9.912  11.460   3.496 -0.1683 -0.6876 -0.4494
  915MOL0     C23443  10.088  11.080   2.322  0.4547  1.0077 -0.1479
  915MOL0     C23444  10.075  11.068   2.177 -0.2018 -0.8111  0.1410
  915MOL0     C23445  10.031  11.288   1.746  0.5079 -0.8015  0.5190
  915MOL0     C23446  10.057  11.397   1.655 -0.0814 -0.2382  0.1654
  915MOL0     C23447   9.990  11.409   1.533 -0.4793  0.0336 -0.3016
  915MOL0     C23448   9.894  11.320   1.493 -0.7181 -1.2942 -0.4150
  915MOL0     O23449   9.847  11.340   1.363 -0.3224 -0.6257  0.3034
  915MOL0     C23450   9.726  11.280   1.323  0.2814  0.2957 -0.0825
  915MOL0     C23451   9.751  11.154   1.236 -0.4132  0.7595  0.2325
  915MOL0     C23452   9.625  11.073   1.184 -0.6118  0.1110  0.1466
  915MOL0     C23453   9.623  11.049   1.038  0.3834 -1.0735  0.5724
  915MOL0     C23454   9.733  10.961   1.005  0.1405  0.4041  0.8122
  915MOL0     C23455   9.803  10.873   0.974 -0.2357 -0.6488 -0.4557
  915MOL0     C23456   9.861  11.218   1.582  0.2287  0.1740  0.7037
  915MOL0     C23457   9.927  11.210   1.707 -0.3306 -0.1223  0.1779
  915MOL0     H23458   9.992  11.388   2.101  0.0510 -1.7719 -2.6720
  915MOL0     H23459   9.974  11.404   2.359 -2.6678  0.8235 -3.6569
  915MOL0     H23460   9.993  11.028   2.581  1.4478 -1.9867  1.9689
  915MOL0     H23461  10.155  11.071   2.627 -0.7793 -0.7137  3.9688
  915MOL0     H23462   9.894  11.160   2.771 -0.0899 -0.7196  3.5080
  915MOL0     H23463  10.012  11.040   2.806 -1.5709  0.1172  0.9011
  915MOL0     H23464  10.179  11.215   2.833  1.6284  2.8012  0.4931
  915MOL0     H23465  10.050  11.336   2.782  1.2283 -0.4927 -0.8030
  915MOL0     H23466   9.960  11.314   2.998  0.1760 -0.4375 -2.1815
  915MOL0     H23467  10.053  11.163   3.031  0.7551 -0.6304 -0.7833
  915MOL0     H23468  10.268  11.285   3.008  1.7599  0.5830  2.4786
  915MOL0     H23469  10.185  11.441   3.007  1.7506 -0.2456  0.8222
  915MOL0     H23470  10.161  11.265   3.258 -0.2788  0.4884  1.1262
  915MOL0     H23471  10.291  11.383   3.237 -0.4567 -1.3264  3.3201
  915MOL0     H23472  10.085  11.539   3.177  0.8632 -1.0416 -0.2835
  915MOL0     H23473   9.994  11.412   3.239  0.7378 -0.2262 -3.8076
  915MOL0     H23474  10.103  11.636   3.374 -0.9925  0.4404  1.8053
  915MOL0     H23475  10.236  11.526   3.405  0.1290  0.3603  2.9738
  915MOL0     H23476  10.195  11.468   3.676 -1.6572 -0.2554  4.1356
  915MOL0     H23477   9.919  11.334   3.886 -0.6620  2.1187  2.2506
  915MOL0     H23478  10.086  11.365   3.879 -0.7703 -2.2382 -2.5585
  915MOL0     H23479   9.870  11.579   3.908 -0.0599  0.9786 -0.1803
  915MOL0     H23480  10.044  11.613   3.872 -3.0405  2.4876 -2.0236
  915MOL0     H23481   9.961  11.441   4.116  3.5874 -0.9686  1.2169
  915MOL0     H23482   9.965  11.611   4.122  0.4823 -0.4309  0.3792
  915MOL0     H23483  10.227  11.576   4.064  1.3799  0.2589  2.3966
  915MOL0     H23484  10.173  11.409   4.051 -2.2574  0.2077 -2.7025
  915MOL0     H23485  10.409  11.566   4.191  0.9365  1.5063  4.5043
  915MOL0     H23486  10.677  11.541   4.321 -3.5202  0.2069  1.3270
  915MOL0     H23487  10.737  11.414   4.221 -1.6030 -1.2788  1.1870
  915MOL0     H23488  10.647  11.549   4.148  2.4903  1.4614  1.6420
  915MOL0     H23489  10.904  11.188   4.284  1.6385  1.7816  0.0860
  915MOL0     H23490  11.128  11.075   4.362  2.4700  4.1852  0.0330
  915MOL0     H23491  11.427  11.072   4.621  0.8009  2.1932  0.1776
  915MOL0     H23492  11.340  11.070   4.468 -0.6043 -0.7287  1.1130
  915MOL0     H23493  11.258  11.313   4.547 -0.9029 -1.4833  0.9929
  915MOL0     H23494  11.405  11.302   4.643  2.1377  0.7984 -1.5725
  915MOL0     H23495  11.530  11.255   4.438 -1.2029 -0.1218 -1.4976
  915MOL0     H23496  11.471  11.424   4.458  1.8443 -0.6763  2.7499
  915MOL0     H23497  11.460  11.330   4.219 -0.8673  0.9165  0.4270
  915MOL0     H23498  11.374  11.192   4.273  1.4835 -0.6885  0.8068
  915MOL0     H23499  11.310  11.495   4.300  1.1933 -0.0029  0.7486
  915MOL0     H23500  11.185  11.388   4.365 -1.5090  1.5533 -2.0114
  915MOL0     H23501  11.292  11.373   4.086  3.1793 -0.3461  3.3517
  915MOL0     H23502  11.154  11.278   4.150  4.1978 -2.3434  2.1386
  915MOL0     H23503  11.179  11.583   4.108 -1.1332  0.8792 -2.2455
  915MOL0     H23504  11.049  11.496   4.192  1.3798  1.6215  0.5579
  915MOL0     H23505  10.972  11.523   3.965 -0.2156  0.7918  2.4433
  915MOL0     H23506  11.038  11.358   3.959 -0.5461  0.1349  3.1772
  915MOL0     H23507  11.020  11.165   4.761  2.7084 -0.5834 -0.2872
  915MOL0     H23508  10.801  11.266   4.681  0.1090  0.1900 -0.3971
  915MOL0     H23509  10.399  11.152   4.442 -2.1109 -2.2585 -3.0614
  915MOL0     H23510  10.180  11.283   4.397 -0.9983 -0.5473 -2.3865
  915MOL0     H23511  10.121  10.988   2.370  2.6934  0.6897 -2.1194
  915MOL0     H23512  10.083  10.985   2.107  0.4073  1.0059 -2.0549
  915MOL0     H23513  10.127  11.478   1.671  0.0155  0.0677 -1.6584
  915MOL0     H23514  10.012  11.486   1.459 -1.0267 -0.1884 -0.7051
  915MOL0     H23515   9.664  11.255   1.410  1.7736 -0.3242  0.8434
  915MOL0     H23516   9.681  11.364   1.269  3.3777  2.8689  1.0350
  915MOL0     H23517   9.816  11.077   1.281 -0.1453  1.1104  0.4530
  915MOL0     H23518   9.816  11.188   1.155  3.7157 -3.4246  1.3381
  915MOL0     H23519   9.532  11.127   1.203 -1.1810  0.3843 -2.8329
  915MOL0     H23520   9.617  10.977   1.235  2.2271  0.6059  1.7228
  915MOL0     H23521   9.618  11.140   0.978  2.9462  1.1206  3.3796
  915MOL0     H23522   9.530  10.996   1.015 -1.4271  3.1242 -3.5014
  915MOL0     H23523   9.863  10.792   0.941  0.1441  0.4390 -2.5843
  915MOL0     H23524   9.780  11.149   1.562  0.1771 -1.0825  4.5087
  915MOL0     H23525   9.907  11.125   1.771  0.6318  0.1179  0.8172
  916MOL0     O23526   1.025   0.180   9.548  0.0382  0.5013 -0.0987
  916MOL0     C23527   1.019   0.265   9.634  0.3484 -0.2208 -0.0047
  916MOL0     O23528   0.930   0.371   9.634 -0.4298  0.0106 -0.2249
  916MOL0     C23529   0.869   0.409   9.521  0.7389 -0.7666  0.6340
  916MOL0     C23530   0.924   0.417   9.397 -0.9790 -0.9898 -0.5539
  916MOL0     C23531   0.854   0.466   9.291  0.6350 -0.4688 -0.5132
  916MOL0     C23532   0.713   0.511   9.300 -0.1781 -0.2137 -0.9413
  916MOL0     O23533   0.643   0.545   9.193  0.7328 -0.2903 -0.8656
  916MOL0     C23534   0.694   0.625   9.091  0.0221 -0.5843 -0.7761
  916MOL0     C23535   0.603   0.607   8.966  0.9771  0.2043 -0.5304
  916MOL0     C23536   0.624   0.699   8.851 -1.0199 -0.1407 -0.1175
  916MOL0     C23537   0.589   0.842   8.901  0.0334 -0.7290  0.3486
  916MOL0     C23538   0.638   0.938   8.789 -0.0016 -0.3649 -0.3284
  916MOL0     C23539   0.576   1.070   8.812 -0.9770  0.1331  0.0565
  916MOL0     C23540   0.608   1.155   8.689 -0.0594  0.1477 -0.0072
  916MOL0     C23541   0.543   1.290   8.708  0.3763  0.1640 -0.1314
  916MOL0     N23542   0.423   1.288   8.627 -0.0883 -0.5351  0.2561
  916MOL0     C23543   0.412   1.368   8.520  0.8996  0.0446  0.2177
  916MOL0     C23544   0.290   1.330   8.484  0.2430 -0.6907  0.0072
  916MOL0     C23545   0.212   1.395   8.365  1.2136  0.1188  0.9716
  916MOL0     C23546   0.175   1.298   8.244 -0.1059  0.0542  0.6692
  916MOL0     C23547   0.255   1.174   8.229  0.1326 -0.5870  0.4167
  916MOL0     C23548   0.215   1.049   8.306 -0.2698 -0.2523  0.5678
  916MOL0     O23549   0.279   0.933   8.257 -0.3043 -0.1422  0.5423
  916MOL0     C23550   0.275   0.819   8.331  0.5729  0.1426  0.2144
  916MOL0     C23551   0.347   0.723   8.268 -0.3944 -1.3833 -0.3247
  916MOL0     C23552   0.358   0.591   8.310  0.0261  0.3256  0.1929
  916MOL0     C23553   0.431   0.493   8.221  0.8160 -0.4150 -0.5843
  916MOL0     C23554   0.286   0.552   8.429 -0.2398 -0.5906  0.0752
  916MOL0     C23555   0.295   0.416   8.479 -0.7352 -0.0331 -0.0451
  916MOL0     O23556   0.188   0.366   8.537 -0.4402 -0.1622  0.2728
  916MOL0     C23557   0.205   0.261   8.635  0.2647  0.2328 -0.0908
  916MOL0     C23558   0.226   0.295   8.775 -0.1391 -0.8619  0.8635
  916MOL0     C23559   0.230   0.192   8.865 -0.4069  0.2371 -0.4436
  916MOL0     C23560   0.233   0.051   8.828 -0.0197  0.0535  0.6120
  916MOL0     O23561   0.238  -0.046   8.926 -0.1390  0.4779 -0.2841
  916MOL0     C23562   0.267  -0.184   8.886  0.3368 -0.6727  0.2589
  916MOL0     C23563   0.270  -0.248   9.020 -0.4787 -0.5318 -0.1116
  916MOL0     C23564   0.135  -0.242   9.097 -0.8664 -0.4742 -0.5271
  916MOL0     C23565   0.031  -0.331   9.039 -0.0934  0.5016  0.5745
  916MOL0     C23566  -0.103  -0.311   9.097  0.4980  0.0863  0.1316
  916MOL0     C23567  -0.100  -0.320   9.252 -0.4988 -0.3145 -0.1474
  916MOL0     C23568  -0.245  -0.306   9.311 -0.3757 -0.3321 -0.0407
  916MOL0     C23569  -0.231  -0.248   9.459 -0.6482 -0.5174 -0.5622
  916MOL0    Cl23570  -0.123  -0.343   9.559  0.1255 -0.2122 -0.1326
  916MOL0     C23571   0.234   0.018   8.681 -0.3241 -0.3113 -0.7402
  916MOL0     C23572   0.217   0.126   8.595 -0.7262 -0.6602  0.0006
  916MOL0     O23573   0.399   0.352   8.483  0.0560 -0.2444 -0.9574
  916MOL0     C23574   0.209   0.656   8.496 -1.1896 -0.5457 -0.7115
  916MOL0     C23575   0.212   0.790   8.450  0.1163  0.2500 -0.4841
  916MOL0     N23576   0.221   1.246   8.580 -0.1529  0.1514  0.2893
  916MOL0     N23577   0.306   1.227   8.665  0.8573  0.1165 -0.4132
  916MOL0     C23578   0.656   0.503   9.431 -0.0435  0.0184  0.2005
  916MOL0     C23579   0.737   0.460   9.534 -0.5894  1.6375  0.2255
  916MOL0     C23580   1.110   0.249   9.754 -0.2787  0.2043  0.6823
  916MOL0     C23581   1.130   0.354   9.840 -0.6560  0.1732  0.1839
  916MOL0     C23582   1.221   0.344   9.948  0.0129  0.9109 -0.3712
  916MOL0     C23583   1.273   0.218   9.983  0.0324 -0.1016 -0.9049
  916MOL0     O23584   1.379   0.206  10.079 -0.1108 -0.5800 -0.2559
  916MOL0     C23585   1.358   0.117  10.188  0.7582 -0.0709 -0.8221
  916MOL0     C23586   1.423   0.165  10.326 -0.3498  0.0495 -0.5986
  916MOL0     C23587   1.316   0.216  10.421 -0.4618  0.3213 -1.2818
  916MOL0     C23588   1.235   0.336  10.378  0.5863 -0.3297 -0.2062
  916MOL0     C23589   1.313   0.453  10.343  0.0732  0.0492  0.9718
  916MOL0     C23590   1.390   0.524  10.284 -0.0518 -0.5718  0.4327
  916MOL0     C23591   1.228   0.112   9.912 -0.4059  0.8379 -1.2740
  916MOL0     C23592   1.155   0.126   9.792 -0.0465  0.4650 -0.5186
  916MOL0     H23593   1.029   0.389   9.393 -0.5015  0.4329  0.8938
  916MOL0     H23594   0.911   0.469   9.199 -0.9779 -0.6335 -1.5709
  916MOL0     H23595   0.703   0.721   9.143  2.2000 -1.3080  0.2654
  916MOL0     H23596   0.793   0.589   9.062  0.7759  0.8256 -0.0267
  916MOL0     H23597   0.615   0.506   8.926  1.8750  1.2328 -3.0801
  916MOL0     H23598   0.499   0.620   9.000  0.2252 -0.4351 -2.4434
  916MOL0     H23599   0.729   0.701   8.819 -0.1927  4.1441  2.1364
  916MOL0     H23600   0.555   0.661   8.775 -0.0742  1.0003 -1.6104
  916MOL0     H23601   0.480   0.839   8.908  0.1346 -3.7942  3.0657
  916MOL0     H23602   0.618   0.852   9.006 -1.5906 -2.2464  0.9878
  916MOL0     H23603   0.747   0.949   8.794 -0.1051  1.6352 -1.4132
  916MOL0     H23604   0.617   0.903   8.688 -0.1241 -0.9926 -0.0879
  916MOL0     H23605   0.468   1.056   8.823 -0.4815 -4.0986  1.1824
  916MOL0     H23606   0.608   1.117   8.905 -1.2581  1.2877 -0.4122
  916MOL0     H23607   0.715   1.174   8.678 -0.6888  3.3026 -1.7906
  916MOL0     H23608   0.565   1.092   8.611  0.4019 -1.8938  1.2856
  916MOL0     H23609   0.605   1.372   8.671 -1.2618  0.8699 -1.3957
  916MOL0     H23610   0.523   1.309   8.814 -1.5556 -3.2468  0.2501
  916MOL0     H23611   0.480   1.438   8.474  0.0824  0.4441 -0.3887
  916MOL0     H23612   0.117   1.431   8.406 -2.9457 -2.0235 -5.2057
  916MOL0     H23613   0.273   1.475   8.321 -1.2398  2.7627  2.0690
  916MOL0     H23614   0.195   1.340   8.145  2.2651 -0.1797  0.9918
  916MOL0     H23615   0.072   1.259   8.242  0.7937 -2.4672  0.1653
  916MOL0     H23616   0.359   1.201   8.247 -0.2784 -0.0374  2.2015
  916MOL0     H23617   0.249   1.141   8.125  0.7582  2.4172 -0.6699
  916MOL0     H23618   0.107   1.032   8.298 -0.1800 -0.3009 -0.8516
  916MOL0     H23619   0.244   1.076   8.408  0.3225  1.6561 -0.0679
  916MOL0     H23620   0.377   0.754   8.168 -2.3029  2.7894  0.2037
  916MOL0     H23621   0.377   0.400   8.198 -1.6488  1.2772 -2.0720
  916MOL0     H23622   0.460   0.547   8.131 -0.6835  0.8096 -0.3694
  916MOL0     H23623   0.527   0.482   8.271 -0.5211  0.8534  2.5354
  916MOL0     H23624   0.229   0.397   8.810  2.7444 -1.1553  1.7256
  916MOL0     H23625   0.229   0.218   8.971 -2.5490 -0.1986 -0.3242
  916MOL0     H23626   0.201  -0.228   8.809  1.7382 -0.3863 -1.1518
  916MOL0     H23627   0.366  -0.189   8.840 -0.4158 -0.0631 -1.5099
  916MOL0     H23628   0.298  -0.350   8.994  3.0973  0.3060 -0.1260
  916MOL0     H23629   0.354  -0.201   9.073 -2.0177  4.3923 -1.4518
  916MOL0     H23630   0.102  -0.139   9.113  0.3612 -0.4460  2.6621
  916MOL0     H23631   0.164  -0.281   9.195  1.8664 -1.2891 -1.5683
  916MOL0     H23632   0.022  -0.310   8.932 -2.3692 -0.7625  0.4604
  916MOL0     H23633   0.048  -0.439   9.045 -3.6571 -0.2020  0.2292
  916MOL0     H23634  -0.171  -0.380   9.047  1.7776  1.1513 -3.3889
  916MOL0     H23635  -0.138  -0.213   9.062 -0.1227 -0.0526  0.3495
  916MOL0     H23636  -0.042  -0.409   9.276  4.1274  1.5252 -3.0810
  916MOL0     H23637  -0.034  -0.244   9.296  4.8397 -2.4031 -3.4981
  916MOL0     H23638  -0.309  -0.395   9.316  0.2375 -0.7712  4.8265
  916MOL0     H23639  -0.304  -0.239   9.247 -1.4658 -3.8346 -3.0905
  916MOL0     H23640  -0.329  -0.238   9.506 -0.3682 -3.3029  0.8361
  916MOL0     H23641  -0.176  -0.154   9.455  1.7749 -1.8277 -0.4070
  916MOL0     H23642   0.218  -0.083   8.645 -2.1262 -1.1679  2.0811
  916MOL0     H23643   0.215   0.098   8.490 -0.0948 -2.6083  0.4655
  916MOL0     H23644   0.166   0.637   8.593  0.8738  1.1475  0.6279
  916MOL0     H23645   0.157   0.867   8.502  1.4047  0.1354  1.1114
  916MOL0     H23646   0.551   0.528   9.444 -0.6146 -3.0812  3.6224
  916MOL0     H23647   0.694   0.464   9.633 -0.0804  1.5588  0.4501
  916MOL0     H23648   1.093   0.453   9.815  0.5892  0.5314 -0.2731
  916MOL0     H23649   1.246   0.437   9.998  1.4859  0.0493  0.5718
  916MOL0     H23650   1.250   0.106  10.202  0.4885  0.7418 -2.1018
  916MOL0     H23651   1.393   0.015  10.168  1.5267 -0.1040  0.5318
  916MOL0     H23652   1.488   0.250  10.306 -0.4133  0.0020 -1.0113
  916MOL0     H23653   1.500   0.096  10.362  2.0691  2.2994 -1.1894
  916MOL0     H23654   1.367   0.256  10.509 -2.1642 -0.4823  0.1508
  916MOL0     H23655   1.261   0.136  10.473  0.5586  0.8691  0.7581
  916MOL0     H23656   1.161   0.354  10.457  0.4393 -2.4681  0.2208
  916MOL0     H23657   1.184   0.296  10.289  1.0384 -2.2909  0.3567
  916MOL0     H23658   1.449   0.590  10.224 -2.9089  0.7558 -1.1116
  916MOL0     H23659   1.267   0.012   9.933 -0.4572  1.3635  1.7091
  916MOL0     H23660   1.131   0.034   9.740 -0.0406  0.3301 -0.2836
  917MOL0     O23661   3.496   4.546   3.549 -0.5149  0.3565  0.7361
  917MOL0     C23662   3.433   4.560   3.443  0.5079  1.2932 -0.0227
  917MOL0     O23663   3.456   4.650   3.349  0.1692 -0.1320  0.0559
  917MOL0     C23664   3.536   4.761   3.361 -0.4319 -0.4667  0.0743
  917MOL0     C23665   3.597   4.813   3.482 -0.4800  0.3277  0.3335
  917MOL0     C23666   3.659   4.939   3.481 -0.2751  0.3897 -0.2845
  917MOL0     C23667   3.669   5.012   3.370  0.1832 -0.0001  0.8917
  917MOL0     O23668   3.728   5.137   3.368 -0.1451  0.6459 -0.4408
  917MOL0     C23669   3.840   5.167   3.455 -0.2042  0.4854 -0.3265
  917MOL0     C23670   3.894   5.307   3.429  0.5902  0.9711 -0.3745
  917MOL0     C23671   3.781   5.405   3.386 -0.0915 -0.6009 -0.0223
  917MOL0     C23672   3.837   5.543   3.401 -0.3977 -0.4717  0.1446
  917MOL0     C23673   3.759   5.655   3.320 -0.1776 -1.0548 -0.2152
  917MOL0     C23674   3.801   5.656   3.176 -0.6393 -0.0768  1.1095
  917MOL0     C23675   3.708   5.738   3.084  0.4480  0.7393 -0.2379
  917MOL0     C23676   3.766   5.743   2.938 -0.1318  0.5452  0.9143
  917MOL0     N23677   3.903   5.795   2.923 -0.7764 -0.7147 -0.4113
  917MOL0     C23678   3.930   5.929   2.925  0.8925  0.4392 -0.2505
  917MOL0     C23679   4.057   5.948   2.868  1.3569 -0.5944  0.1991
  917MOL0     C23680   4.125   6.086   2.847 -0.8133 -0.5863 -0.0537
  917MOL0     C23681   4.041   6.205   2.834  0.5065  0.9562 -0.0925
  917MOL0     C23682   3.977   6.222   2.697  0.5876 -0.3090 -0.3034
  917MOL0     C23683   3.921   6.355   2.675 -0.6272 -0.4012 -0.9008
  917MOL0     O23684   3.830   6.398   2.786  0.1059  0.0340  0.3250
  917MOL0     C23685   3.727   6.493   2.760  0.2277 -0.1642 -0.0638
  917MOL0     C23686   3.631   6.515   2.858  0.2676 -0.1352 -0.1038
  917MOL0     C23687   3.514   6.603   2.846  0.0859  0.1316 -0.3115
  917MOL0     C23688   3.422   6.628   2.969 -0.0324 -0.3864 -0.2229
  917MOL0     C23689   3.502   6.663   2.719  0.5933 -0.0371  0.2880
  917MOL0     C23690   3.394   6.764   2.689  0.5552  1.1782  0.4113
  917MOL0     O23691   3.422   6.852   2.596  0.1560  0.0674  0.5041
  917MOL0     C23692   3.331   6.951   2.568  0.6559  0.1754 -0.8790
  917MOL0     C23693   3.233   6.940   2.467  0.4669  0.4809 -0.3271
  917MOL0     C23694   3.141   7.043   2.431 -0.3939 -0.5114  0.9871
  917MOL0     C23695   3.138   7.166   2.506 -0.1817  1.1866  0.0405
  917MOL0     O23696   3.051   7.259   2.462 -0.1178  0.1938 -0.5617
  917MOL0     C23697   3.006   7.374   2.546  0.0549  0.1802 -0.1850
  917MOL0     C23698   2.865   7.345   2.581  0.2161  0.4413 -0.1791
  917MOL0     C23699   2.858   7.232   2.689  1.6994  0.4556  0.3275
  917MOL0     C23700   2.878   7.296   2.830 -0.0342  0.8038  0.2969
  917MOL0     C23701   2.841   7.207   2.946  0.2735 -0.6695 -0.3575
  917MOL0     C23702   2.901   7.069   2.934 -1.6423 -0.0409 -0.8532
  917MOL0     C23703   3.060   7.088   2.920  0.0755 -0.1463  0.2355
  917MOL0     C23704   3.122   6.955   2.942 -0.0961  0.5383 -1.0619
  917MOL0    Cl23705   3.121   6.937   3.116 -0.0445 -0.2465  0.1453
  917MOL0     C23706   3.232   7.180   2.612 -0.6948  0.2557  0.3952
  917MOL0     C23707   3.335   7.077   2.640 -0.1397 -0.3531  0.3488
  917MOL0     O23708   3.295   6.771   2.760  0.0904  0.4408  0.4182
  917MOL0     C23709   3.586   6.628   2.611  0.5149  0.9010 -0.2956
  917MOL0     C23710   3.702   6.558   2.639 -0.7887 -0.1496  0.1225
  917MOL0     N23711   4.099   5.818   2.818 -0.3291  0.3134 -0.2282
  917MOL0     N23712   4.004   5.732   2.850  0.5023  0.6439  0.3032
  917MOL0     C23713   3.614   4.959   3.248 -0.3228 -0.4455 -0.8024
  917MOL0     C23714   3.550   4.836   3.247  0.5206 -0.2835 -0.5409
  917MOL0     C23715   3.338   4.450   3.420  0.9120  0.4744 -0.4151
  917MOL0     C23716   3.309   4.357   3.519 -0.3550  0.3918 -0.1250
  917MOL0     C23717   3.243   4.233   3.501  0.2226 -0.2835  0.7198
  917MOL0     C23718   3.190   4.201   3.370 -0.0404 -0.1676  0.0477
  917MOL0     O23719   3.133   4.079   3.341  0.7342  0.2765  0.0064
  917MOL0     C23720   3.218   3.971   3.307  0.8306 -0.2814 -0.5027
  917MOL0     C23721   3.137   3.862   3.241 -0.9765 -0.1144  0.5895
  917MOL0     C23722   3.083   3.750   3.328  0.5555 -0.4979 -0.0611
  917MOL0     C23723   3.152   3.727   3.455  0.3365 -0.0056 -0.7073
  917MOL0     C23724   3.086   3.631   3.540 -0.4428 -0.1109 -1.2001
  917MOL0     C23725   3.029   3.549   3.607 -0.9233 -0.5113 -0.2157
  917MOL0     C23726   3.207   4.299   3.273  0.2406 -0.5269  0.1734
  917MOL0     C23727   3.274   4.421   3.302 -0.2161  0.0063  0.0114
  917MOL0     H23728   3.581   4.753   3.571 -4.5158  1.6662  0.7323
  917MOL0     H23729   3.703   4.967   3.576 -0.8201 -0.1201  0.1243
  917MOL0     H23730   3.794   5.162   3.554  0.6327  0.7796  0.0885
  917MOL0     H23731   3.913   5.085   3.450 -3.5404 -3.0096  2.4034
  917MOL0     H23732   3.944   5.347   3.518  1.8477  3.0636 -1.9147
  917MOL0     H23733   3.962   5.290   3.345  0.5406  1.3938 -0.5050
  917MOL0     H23734   3.749   5.377   3.285 -0.8495 -1.2674  0.3904
  917MOL0     H23735   3.695   5.385   3.450  0.6677  1.8740  1.9111
  917MOL0     H23736   3.820   5.567   3.507  1.4980  0.8498  0.2026
  917MOL0     H23737   3.944   5.537   3.382 -0.2824  0.0023  0.6150
  917MOL0     H23738   3.652   5.631   3.319 -0.5630  0.5470 -0.2013
  917MOL0     H23739   3.766   5.759   3.354 -3.0464 -0.8597  0.0186
  917MOL0     H23740   3.894   5.713   3.183  0.0843 -1.1803  0.5236
  917MOL0     H23741   3.821   5.555   3.142  1.8525  0.4860  0.7290
  917MOL0     H23742   3.611   5.688   3.083  0.7613  0.0410 -2.3550
  917MOL0     H23743   3.673   5.835   3.118 -0.6258  1.5461 -3.3571
  917MOL0     H23744   3.701   5.803   2.872  1.6989  0.8392 -0.7175
  917MOL0     H23745   3.781   5.647   2.887  0.4608  0.4111  1.3372
  917MOL0     H23746   3.859   6.004   2.958 -1.6738 -1.9184 -0.0038
  917MOL0     H23747   4.189   6.109   2.933 -2.6729 -1.9739  1.7958
  917MOL0     H23748   4.198   6.084   2.766 -0.1829  1.9775  0.3338
  917MOL0     H23749   4.106   6.291   2.848  1.5366  0.4839 -1.7414
  917MOL0     H23750   3.967   6.219   2.914 -1.4367  1.2424 -1.8493
  917MOL0     H23751   3.885   6.165   2.686 -0.9584  1.9691  0.0510
  917MOL0     H23752   4.049   6.202   2.617 -1.4809  3.0404 -3.3550
  917MOL0     H23753   3.879   6.355   2.574  1.8038  1.4518 -1.9893
  917MOL0     H23754   4.008   6.421   2.680  0.4557 -1.8868  1.8283
  917MOL0     H23755   3.656   6.482   2.958 -1.3583  1.2747  0.8387
  917MOL0     H23756   3.464   6.577   3.056  1.2318  1.1198  0.1146
  917MOL0     H23757   3.422   6.735   2.994  0.1172 -0.7391  1.3929
  917MOL0     H23758   3.320   6.591   2.963  0.6412 -2.3686 -0.0473
  917MOL0     H23759   3.222   6.843   2.420  1.6194 -0.9734  2.1711
  917MOL0     H23760   3.070   7.020   2.353  0.0040 -2.4257  1.1579
  917MOL0     H23761   3.059   7.404   2.637  0.8069  2.2896 -1.2426
  917MOL0     H23762   3.007   7.461   2.480 -0.1481  0.3347  0.0174
  917MOL0     H23763   2.811   7.430   2.624  1.2493  0.1636  1.8072
  917MOL0     H23764   2.818   7.316   2.487 -0.6139 -2.9298  1.1338
  917MOL0     H23765   2.920   7.142   2.679  1.1630  0.0779  0.3641
  917MOL0     H23766   2.754   7.200   2.694  1.4763  1.2996  1.9616
  917MOL0     H23767   2.985   7.316   2.845  0.3684 -1.5444  0.8943
  917MOL0     H23768   2.836   7.397   2.834  2.1943  1.7743  1.5427
  917MOL0     H23769   2.736   7.176   2.946  0.9470 -3.2487  1.5746
  917MOL0     H23770   2.884   7.251   3.036  2.3245  0.5133 -1.8260
  917MOL0     H23771   2.876   7.039   3.036 -0.1777 -0.2852 -0.5410
  917MOL0     H23772   2.861   7.000   2.859  0.0377 -0.0272 -1.8257
  917MOL0     H23773   3.086   7.158   3.000 -0.5429  1.6931 -1.0908
  917MOL0     H23774   3.075   7.130   2.820 -1.5246  0.8659  0.3768
  917MOL0     H23775   3.227   6.951   2.910  1.0572 -0.0615  2.3702
  917MOL0     H23776   3.075   6.871   2.891 -0.5956 -0.4528  0.9252
  917MOL0     H23777   3.237   7.279   2.657  0.4614  0.4183 -0.0452
  917MOL0     H23778   3.413   7.095   2.714  2.7871 -0.5612 -2.4434
  917MOL0     H23779   3.563   6.661   2.511 -2.3295 -0.9990 -0.3819
  917MOL0     H23780   3.775   6.547   2.560 -1.0022 -2.3051  0.1700
  917MOL0     H23781   3.641   5.021   3.164 -1.2757 -0.7509 -1.3560
  917MOL0     H23782   3.499   4.794   3.160 -0.0595  3.3845 -2.1298
  917MOL0     H23783   3.346   4.377   3.619  0.5471  1.5308 -0.6700
  917MOL0     H23784   3.209   4.158   3.572 -3.7105 -0.0775 -0.7178
  917MOL0     H23785   3.305   4.003   3.249  0.6321 -1.7067 -1.6555
  917MOL0     H23786   3.274   3.944   3.396  2.7071  5.5571  0.5470
  917MOL0     H23787   3.201   3.811   3.169 -0.4982 -0.4185  1.2263
  917MOL0     H23788   3.058   3.917   3.188  0.1183  2.2879  1.3501
  917MOL0     H23789   3.072   3.656   3.273  2.6511  0.2198 -1.8351
  917MOL0     H23790   2.979   3.780   3.348  0.9817  0.8272  0.2204
  917MOL0     H23791   3.145   3.818   3.516 -0.1267 -2.3947  3.1676
  917MOL0     H23792   3.259   3.702   3.457  0.4989  0.5178  2.0218
  917MOL0     H23793   2.976   3.479   3.668 -2.9461  1.5208  0.4808
  917MOL0     H23794   3.156   4.277   3.180 -0.9680 -0.3791  0.7798
  917MOL0     H23795   3.265   4.495   3.223 -1.5315 -0.4674 -0.3144
  918MOL0     O23796   4.352   6.289   7.470 -0.9283  0.0746  0.1096
  918MOL0     C23797   4.443   6.280   7.554  1.1732  0.0634 -0.2538
  918MOL0     O23798   4.464   6.359   7.664  0.5069 -0.2431  0.2904
  918MOL0     C23799   4.373   6.457   7.674  0.7174  0.3756 -0.6494
  918MOL0     C23800   4.384   6.562   7.587  0.3461 -1.0326  0.4764
  918MOL0     C23801   4.290   6.659   7.594  0.9926  0.2275  0.1492
  918MOL0     C23802   4.186   6.653   7.698 -0.6616 -0.7959  0.2335
  918MOL0     O23803   4.083   6.729   7.700  0.3941  0.0484 -0.5660
  918MOL0     C23804   4.061   6.834   7.607 -0.1043  0.1339  0.5933
  918MOL0     C23805   4.143   6.954   7.635  0.2068  0.9058 -0.0369
  918MOL0     C23806   4.101   7.004   7.770 -0.1808 -0.7647  0.1341
  918MOL0     C23807   4.150   7.150   7.798 -0.2801  0.1606 -0.4776
  918MOL0     C23808   4.110   7.209   7.941  0.9304  0.5744 -0.1844
  918MOL0     C23809   4.172   7.348   7.962  0.0878 -0.7919  0.2817
  918MOL0     C23810   4.187   7.393   8.107  0.1969  0.3754 -0.2682
  918MOL0     C23811   4.049   7.449   8.163  0.5301  0.1424 -0.5385
  918MOL0     N23812   4.069   7.518   8.286 -0.7831 -0.0993 -0.9079
  918MOL0     C23813   4.124   7.460   8.397  0.0240 -0.2028  0.0616
  918MOL0     C23814   4.165   7.565   8.479  0.1457  0.4421  0.1180
  918MOL0     C23815   4.227   7.564   8.625  1.7460  0.7187  0.8189
  918MOL0     C23816   4.372   7.503   8.623 -0.4348  0.1948  1.3355
  918MOL0     C23817   4.469   7.606   8.570  0.8881  0.3664 -0.4449
  918MOL0     C23818   4.607   7.560   8.534  0.6672  0.1187 -0.5754
  918MOL0     O23819   4.655   7.485   8.652  0.1552  0.4533 -0.1258
  918MOL0     C23820   4.778   7.427   8.642  1.1754  0.6857  0.9555
  918MOL0     C23821   4.837   7.381   8.761  0.1691 -0.2705  0.5648
  918MOL0     C23822   4.968   7.328   8.764 -0.0860  0.1687 -0.2888
  918MOL0     C23823   5.030   7.303   8.898 -0.4849  0.3241  0.1502
  918MOL0     C23824   5.047   7.324   8.639  0.6349  1.0122 -0.5662
  918MOL0     C23825   5.152   7.220   8.623  0.8755 -0.6746 -0.2364
  918MOL0     O23826   5.236   7.236   8.528 -0.2250  0.0680 -0.8789
  918MOL0     C23827   5.326   7.140   8.484  0.0202  0.3375  0.0631
  918MOL0     C23828   5.312   7.004   8.501 -0.0872  0.1772 -0.3215
  918MOL0     C23829   5.391   6.926   8.410  1.0861  0.2283  0.1230
  918MOL0     C23830   5.489   6.984   8.324 -0.6484  0.0084  1.2493
  918MOL0     O23831   5.562   6.897   8.244 -0.6001 -0.2680  0.2692
  918MOL0     C23832   5.702   6.882   8.272  0.0238 -1.1346 -0.0388
  918MOL0     C23833   5.734   6.771   8.373  0.0421 -0.5679  0.2112
  918MOL0     C23834   5.865   6.697   8.346 -0.8426  0.4103  1.2547
  918MOL0     C23835   5.856   6.575   8.427 -0.1982  0.1274  0.0153
  918MOL0     C23836   5.972   6.463   8.418 -0.2794 -1.0841  0.1883
  918MOL0     C23837   6.106   6.492   8.491 -0.7706 -0.5858 -0.0668
  918MOL0     C23838   6.187   6.363   8.519  0.2800 -0.8341  0.7344
  918MOL0     C23839   6.294   6.367   8.630 -0.0717 -0.0696  0.0182
  918MOL0    Cl23840   6.441   6.432   8.560  0.1468  0.0539 -0.6467
  918MOL0     C23841   5.515   7.119   8.337 -0.0755 -0.2848  0.1709
  918MOL0     C23842   5.428   7.203   8.410  0.0189  0.7096  0.2290
  918MOL0     O23843   5.146   7.124   8.701 -0.2176  0.8660 -0.8506
  918MOL0     C23844   4.984   7.381   8.528 -1.1049  0.2619 -0.1031
  918MOL0     C23845   4.855   7.431   8.534 -0.8056  0.1730  0.4284
  918MOL0     N23846   4.123   7.688   8.427 -0.1185 -0.3688  0.6093
  918MOL0     N23847   4.067   7.659   8.309 -0.0503  0.9235  0.5689
  918MOL0     C23848   4.172   6.550   7.782  0.5850  0.0718  1.2093
  918MOL0     C23849   4.275   6.449   7.770  0.0818 -0.1465  0.2669
  918MOL0     C23850   4.542   6.172   7.543 -0.7543 -0.4128 -0.4847
  918MOL0     C23851   4.548   6.093   7.425  0.4234 -0.1098  1.2594
  918MOL0     C23852   4.648   6.006   7.405  0.7427  0.1842  0.7580
  918MOL0     C23853   4.748   5.995   7.502 -0.9471 -0.4543 -0.7005
  918MOL0     O23854   4.855   5.907   7.479 -0.5171  0.3568 -0.1464
  918MOL0     C23855   4.962   5.872   7.580  0.7000 -0.1053 -0.4918
  918MOL0     C23856   5.077   5.967   7.565 -0.1942  0.1360  0.1245
  918MOL0     C23857   5.179   5.937   7.455  0.5568  0.3973  0.3377
  918MOL0     C23858   5.258   5.805   7.491  1.1080 -0.4779  0.7594
  918MOL0     C23859   5.359   5.806   7.602 -0.2323  0.0477  0.5454
  918MOL0     C23860   5.442   5.769   7.685  0.1402 -0.0400 -0.3478
  918MOL0     C23861   4.750   6.071   7.622  0.3496 -0.1622  0.0673
  918MOL0     C23862   4.640   6.153   7.643 -0.1500  0.7232  0.9197
  918MOL0     H23863   4.455   6.573   7.506 -0.5595  2.3307 -0.0276
  918MOL0     H23864   4.292   6.738   7.520  6.0232  0.6176  0.3737
  918MOL0     H23865   4.082   6.794   7.507  2.4233  0.3660  0.9679
  918MOL0     H23866   3.964   6.884   7.607  0.6549  1.6748 -0.3695
  918MOL0     H23867   4.250   6.931   7.643 -0.4854 -2.4783  1.1804
  918MOL0     H23868   4.120   7.023   7.554 -4.5766  0.2556  0.4841
  918MOL0     H23869   3.992   6.996   7.770 -0.3331  0.0287 -2.7798
  918MOL0     H23870   4.138   6.948   7.856 -3.4567 -0.3640  1.9467
  918MOL0     H23871   4.257   7.168   7.788 -0.4561  2.2391  0.7267
  918MOL0     H23872   4.119   7.219   7.719  1.6800  0.3183 -1.1501
  918MOL0     H23873   4.003   7.207   7.960  0.9519  1.1682  0.0388
  918MOL0     H23874   4.156   7.137   8.009  0.6622 -1.2618 -1.8766
  918MOL0     H23875   4.273   7.344   7.920  0.2504  2.3433  0.1972
  918MOL0     H23876   4.123   7.430   7.910  2.8062  1.3505  0.9119
  918MOL0     H23877   4.227   7.316   8.173 -2.6374  0.8482  2.1787
  918MOL0     H23878   4.268   7.467   8.100  0.5284  0.0276 -0.1408
  918MOL0     H23879   3.974   7.371   8.179  0.3933  0.6451  1.4771
  918MOL0     H23880   4.004   7.523   8.095 -3.3387 -0.3991  1.1438
  918MOL0     H23881   4.143   7.356   8.422 -0.6673  0.0595  1.8451
  918MOL0     H23882   4.224   7.662   8.676 -1.4824  0.6795  0.9209
  918MOL0     H23883   4.165   7.499   8.687 -0.7960  2.3852  0.1740
  918MOL0     H23884   4.357   7.421   8.552 -1.1911  1.2242  0.2507
  918MOL0     H23885   4.411   7.479   8.722  3.8604  0.9991  0.0454
  918MOL0     H23886   4.491   7.682   8.647  3.8261  0.7367 -1.5649
  918MOL0     H23887   4.415   7.658   8.491  2.5111  2.7666 -0.0938
  918MOL0     H23888   4.665   7.652   8.523 -3.1612  2.7024 -1.2121
  918MOL0     H23889   4.597   7.501   8.442 -0.2049  0.7985 -0.9337
  918MOL0     H23890   4.783   7.401   8.853  1.3454  1.5163  0.9303
  918MOL0     H23891   5.010   7.393   8.957  1.5896  0.7924  0.2039
  918MOL0     H23892   4.977   7.231   8.961 -0.6277  0.7141  0.4861
  918MOL0     H23893   5.137   7.283   8.900 -0.5651 -0.0503  0.8057
  918MOL0     H23894   5.241   6.952   8.563 -1.8084  0.1214 -2.2320
  918MOL0     H23895   5.377   6.818   8.410 -3.0609  0.5222 -3.0864
  918MOL0     H23896   5.749   6.854   8.178 -1.5188 -2.2600 -0.5151
  918MOL0     H23897   5.733   6.981   8.307 -1.2239 -0.1330 -1.6572
  918MOL0     H23898   5.743   6.810   8.475  6.0407 -1.7086  0.4982
  918MOL0     H23899   5.648   6.704   8.370 -1.4918  1.2671  0.6050
  918MOL0     H23900   5.959   6.751   8.363 -0.5377 -1.0435  5.2813
  918MOL0     H23901   5.860   6.664   8.241 -1.5826  0.5876  1.2339
  918MOL0     H23902   5.845   6.611   8.530 -1.3324  1.5455 -0.5625
  918MOL0     H23903   5.768   6.522   8.390  2.6461 -4.0619 -1.4562
  918MOL0     H23904   6.003   6.449   8.314 -2.3661 -2.8343 -0.2901
  918MOL0     H23905   5.935   6.367   8.455  1.4513 -1.3144  1.4429
  918MOL0     H23906   6.148   6.558   8.415 -2.9058 -0.2225 -0.9990
  918MOL0     H23907   6.088   6.546   8.584 -0.3278  2.4691 -1.6469
  918MOL0     H23908   6.247   6.338   8.430  1.0908  2.0623  0.3805
  918MOL0     H23909   6.133   6.271   8.544  1.1570 -1.3212  0.9000
  918MOL0     H23910   6.312   6.264   8.661  1.0981  0.4966  1.3599
  918MOL0     H23911   6.259   6.434   8.710 -1.2976  2.0945 -2.1732
  918MOL0     H23912   5.596   7.167   8.284  0.9339 -1.2531  0.7979
  918MOL0     H23913   5.439   7.311   8.413 -1.6477  0.8957  2.5275
  918MOL0     H23914   5.032   7.365   8.432 -2.2243  0.3814 -0.7029
  918MOL0     H23915   4.816   7.463   8.438 -0.1864  0.0867  0.1420
  918MOL0     H23916   4.096   6.527   7.856 -1.6396  1.6887 -0.4441
  918MOL0     H23917   4.287   6.360   7.831  2.8197 -1.4255 -1.8747
  918MOL0     H23918   4.475   6.112   7.348  0.3265  0.6276  1.5295
  918MOL0     H23919   4.647   5.947   7.314 -0.7796 -3.2670  2.8060
  918MOL0     H23920   4.926   5.888   7.682  1.6015  3.5258 -0.6230
  918MOL0     H23921   4.999   5.770   7.569  1.4787  0.1247 -0.0899
  918MOL0     H23922   5.138   5.977   7.656  1.0913 -0.1118 -0.6897
  918MOL0     H23923   5.023   6.060   7.542 -2.4317 -0.9625  0.7078
  918MOL0     H23924   5.247   6.023   7.459 -0.6034  1.2702  2.7002
  918MOL0     H23925   5.139   5.930   7.353  1.6494 -5.6018 -0.0898
  918MOL0     H23926   5.315   5.772   7.404 -0.1859 -1.2346  0.1581
  918MOL0     H23927   5.187   5.722   7.506 -0.6528  0.9832  0.8964
  918MOL0     H23928   5.522   5.730   7.745  0.8830 -1.4213 -2.1333
  918MOL0     H23929   4.832   6.082   7.692  1.6490 -0.0702 -1.4156
  918MOL0     H23930   4.634   6.215   7.732  1.3118 -0.0736  1.6136
  919MOL0     O23931  10.583   5.995   0.366 -0.1591  0.0120 -0.2498
  919MOL0     C23932  10.538   5.919   0.279  0.1617  0.0970  0.1759
  919MOL0     O23933  10.611   5.875   0.178  0.6007  0.3258 -0.1369
  919MOL0     C23934  10.747   5.898   0.158 -1.0256  0.7618  0.3895
  919MOL0     C23935  10.844   5.938   0.259  1.4299 -0.0855 -0.2333
  919MOL0     C23936  10.977   5.945   0.219  0.4320 -0.5322 -0.0114
  919MOL0     C23937  11.025   5.919   0.096  0.1719  0.3066  1.1057
  919MOL0     O23938  11.164   5.917   0.079 -0.3270  0.1018 -0.0660
  919MOL0     C23939  11.206   5.795   0.015 -0.6651 -0.2102  0.3094
  919MOL0     C23940  11.362   5.808   0.038  0.4683 -0.5098 -1.0512
  919MOL0     C23941  11.431   5.706   0.134 -0.8200 -0.5058  1.3245
  919MOL0     C23942  11.506   5.787   0.236  0.5215  0.1821  0.9201
  919MOL0     C23943  11.628   5.720   0.300  0.9181 -0.3437 -0.1985
  919MOL0     C23944  11.569   5.615   0.397  0.0117  0.4357  0.6467
  919MOL0     C23945  11.673   5.502   0.432  0.9648  0.5842 -1.2671
  919MOL0     C23946  11.682   5.382   0.325  1.0217 -1.1282 -0.7466
  919MOL0     N23947  11.790   5.290   0.361  0.5878 -0.4168  0.8643
  919MOL0     C23948  11.844   5.191   0.280 -0.1725 -0.4275  0.1656
  919MOL0     C23949  11.933   5.137   0.360 -0.3994 -0.3824 -0.6241
  919MOL0     C23950  12.020   5.016   0.337  1.2176 -0.7819  0.7547
  919MOL0     C23951  12.142   5.049   0.265  0.4459  0.5373  0.5232
  919MOL0     C23952  12.206   4.922   0.217 -0.4163  0.9794  0.3834
  919MOL0     C23953  12.293   4.862   0.337 -0.4219  0.5031  0.2955
  919MOL0     O23954  12.291   4.713   0.330 -1.0024 -0.0790 -0.0574
  919MOL0     C23955  12.358   4.651   0.229 -0.1205 -0.0521 -0.8557
  919MOL0     C23956  12.377   4.522   0.260  0.4954  0.3425  0.6696
  919MOL0     C23957  12.451   4.432   0.175 -0.0687  0.3256  0.1781
  919MOL0     C23958  12.467   4.287   0.221 -0.3092 -0.9836 -0.0094
  919MOL0     C23959  12.506   4.492   0.061  0.5331  0.6539 -0.6568
  919MOL0     C23960  12.590   4.416  -0.031  0.0701  0.3591  0.3455
  919MOL0     O23961  12.562   4.409  -0.168 -0.6205  0.5113  0.2514
  919MOL0     C23962  12.659   4.375  -0.264 -0.9905 -0.2215 -1.7032
  919MOL0     C23963  12.655   4.260  -0.341 -0.2015  0.2023 -0.7745
  919MOL0     C23964  12.730   4.241  -0.451 -0.4858  0.8080  0.4556
  919MOL0     C23965  12.817   4.336  -0.501  0.0413  0.4801  0.4649
  919MOL0     O23966  12.891   4.306  -0.616  0.0389  0.6024 -0.3119
  919MOL0     C23967  12.986   4.392  -0.673 -0.6241 -0.2843 -0.3242
  919MOL0     C23968  13.114   4.375  -0.589  0.1175  0.4398  0.0777
  919MOL0     C23969  13.202   4.487  -0.634  0.2990  0.4548  0.2579
  919MOL0     C23970  13.310   4.519  -0.525 -0.2418  0.5560  0.2045
  919MOL0     C23971  13.423   4.413  -0.486  0.7284  0.1000  0.5347
  919MOL0     C23972  13.539   4.468  -0.402  0.8656 -0.6004  0.2806
  919MOL0     C23973  13.495   4.533  -0.282  0.6553  0.7156 -0.8796
  919MOL0     C23974  13.602   4.586  -0.184  0.2807  0.5991  0.8099
  919MOL0    Cl23975  13.634   4.446  -0.093  0.0907  0.0038 -0.4024
  919MOL0     C23976  12.819   4.463  -0.424  0.2305 -1.1986 -0.1406
  919MOL0     C23977  12.743   4.485  -0.308 -0.3077 -0.0998 -0.0068
  919MOL0     O23978  12.692   4.374   0.016  0.1446  0.4021 -0.2907
  919MOL0     C23979  12.477   4.622   0.022  0.8048  0.5695 -0.4548
  919MOL0     C23980  12.403   4.703   0.108 -0.2815  0.4101 -0.8101
  919MOL0     N23981  11.944   5.210   0.482  0.7621  0.2356 -0.5428
  919MOL0     N23982  11.861   5.299   0.473 -0.1173 -0.3739 -0.3779
  919MOL0     C23983  10.935   5.882  -0.001 -0.0869 -1.1819  0.6322
  919MOL0     C23984  10.800   5.876   0.026 -0.2930  0.6797 -0.0899
  919MOL0     C23985  10.392   5.879   0.296  0.3800  0.1551  0.1134
  919MOL0     C23986  10.305   5.915   0.398 -0.3518  0.0886 -0.2957
  919MOL0     C23987  10.172   5.893   0.396  0.0715  0.2783  1.7536
  919MOL0     C23988  10.116   5.811   0.293 -0.8774 -0.3797 -1.1003
  919MOL0     O23989   9.990   5.758   0.282  0.6015 -0.5098  0.4287
  919MOL0     C23990   9.883   5.805   0.365  0.7923  0.1326 -0.1137
  919MOL0     C23991   9.747   5.794   0.281 -1.2424  0.5440 -1.1484
  919MOL0     C23992   9.633   5.833   0.371  0.9464  1.1442 -0.2123
  919MOL0     C23993   9.500   5.835   0.300  1.2268 -0.1428  0.5053
  919MOL0     C23994   9.390   5.838   0.395  0.8613 -0.1250 -0.8733
  919MOL0     C23995   9.285   5.848   0.456 -0.2241  0.0392  0.0978
  919MOL0     C23996  10.200   5.756   0.201 -0.5678  0.1764 -0.6325
  919MOL0     C23997  10.340   5.790   0.198  0.1420 -0.3236 -0.3795
  919MOL0     H23998  10.823   5.983   0.355  4.1473  0.1654  0.3227
  919MOL0     H23999  11.041   5.979   0.299  4.4914 -0.9023 -2.8337
  919MOL0     H24000  11.168   5.697   0.044 -1.5850  0.8243  2.8212
  919MOL0     H24001  11.182   5.808  -0.091  1.7439  0.5448 -0.2176
  919MOL0     H24002  11.401   5.795  -0.063  0.7789  0.7190 -1.1042
  919MOL0     H24003  11.383   5.912   0.062  0.9703 -0.5950 -1.1114
  919MOL0     H24004  11.350   5.651   0.183 -1.0715 -1.0503  0.3317
  919MOL0     H24005  11.498   5.644   0.074  0.3207  1.6718  0.1819
  919MOL0     H24006  11.553   5.873   0.188  3.7910 -2.9212 -2.1408
  919MOL0     H24007  11.432   5.810   0.312  1.0561  1.5342  1.0512
  919MOL0     H24008  11.679   5.667   0.220 -0.3081 -1.0214 -0.5512
  919MOL0     H24009  11.684   5.795   0.357  1.4029  0.3808 -1.5937
  919MOL0     H24010  11.542   5.670   0.488 -4.3976 -1.1014  0.4717
  919MOL0     H24011  11.476   5.566   0.368  0.2057 -0.3263  1.2942
  919MOL0     H24012  11.776   5.539   0.441  1.2052 -0.0603 -1.2972
  919MOL0     H24013  11.662   5.468   0.535  1.6035  3.5751 -0.1166
  919MOL0     H24014  11.697   5.423   0.225 -0.0484 -1.3996 -1.0358
  919MOL0     H24015  11.577   5.352   0.327  0.4640  0.6119 -1.4211
  919MOL0     H24016  11.823   5.164   0.177 -0.5906 -0.3024  0.2132
  919MOL0     H24017  12.041   4.956   0.426  0.4304  0.0663  1.5465
  919MOL0     H24018  11.958   4.953   0.273  0.5036 -0.0765  0.7365
  919MOL0     H24019  12.209   5.116   0.321  0.3532  0.6073  0.5505
  919MOL0     H24020  12.108   5.108   0.180 -0.2419  1.4572  1.4171
  919MOL0     H24021  12.266   4.959   0.134 -1.0464  2.5359  0.5949
  919MOL0     H24022  12.130   4.849   0.189  0.7723 -1.0069  1.9854
  919MOL0     H24023  12.235   4.886   0.426 -3.4819 -0.0185 -1.4318
  919MOL0     H24024  12.395   4.898   0.355 -0.2927 -0.2388  1.1396
  919MOL0     H24025  12.343   4.490   0.358 -1.6684  1.7362  0.4443
  919MOL0     H24026  12.376   4.243   0.263 -1.5884  2.9353  1.6895
  919MOL0     H24027  12.491   4.236   0.127  0.3922  1.3533 -1.1707
  919MOL0     H24028  12.554   4.280   0.287 -0.1820 -1.4200 -0.2106
  919MOL0     H24029  12.578   4.188  -0.319 -0.2914  0.3730 -0.5233
  919MOL0     H24030  12.730   4.147  -0.505  1.3669  1.0742 -0.0731
  919MOL0     H24031  13.015   4.364  -0.775  1.5747 -0.8319  0.4082
  919MOL0     H24032  12.951   4.495  -0.684 -2.0057 -0.9344 -3.1072
  919MOL0     H24033  13.092   4.391  -0.483  3.8934  3.2674  0.6813
  919MOL0     H24034  13.163   4.278  -0.593 -2.7907 -1.4037  3.3627
  919MOL0     H24035  13.136   4.574  -0.637  1.7007  1.5295 -0.8578
  919MOL0     H24036  13.235   4.478  -0.738 -2.8487 -0.8022 -0.7444
  919MOL0     H24037  13.356   4.607  -0.572  2.2911 -0.9308 -0.2770
  919MOL0     H24038  13.248   4.537  -0.436  0.3010  1.3305  0.4354
  919MOL0     H24039  13.465   4.383  -0.582 -0.6499  1.9086 -0.7285
  919MOL0     H24040  13.389   4.319  -0.441  0.5409  0.2956  0.8116
  919MOL0     H24041  13.598   4.381  -0.370  2.2400  0.2647  0.2019
  919MOL0     H24042  13.588   4.545  -0.462 -1.0503  0.4565  0.0205
  919MOL0     H24043  13.415   4.482  -0.229 -1.0001  2.9176 -1.1400
  919MOL0     H24044  13.447   4.627  -0.311 -3.1533  0.3233  3.1588
  919MOL0     H24045  13.563   4.661  -0.115  0.6262  1.0301  0.5429
  919MOL0     H24046  13.689   4.617  -0.242 -1.1191  0.0861 -1.7044
  919MOL0     H24047  12.885   4.544  -0.453 -0.2632 -0.7030  0.1045
  919MOL0     H24048  12.742   4.587  -0.270 -1.0451  0.2107 -0.8189
  919MOL0     H24049  12.506   4.660  -0.075 -1.0911 -0.4050 -1.4547
  919MOL0     H24050  12.384   4.807   0.084  0.5118  0.5313 -0.9259
  919MOL0     H24051  10.977   5.857  -0.098 -2.0504  4.2056 -1.9862
  919MOL0     H24052  10.726   5.845  -0.048 -0.3010 -0.9060  0.5484
  919MOL0     H24053  10.349   5.971   0.481  1.3559 -1.5830 -0.0151
  919MOL0     H24054  10.107   5.927   0.475 -1.4731  3.5956 -0.6983
  919MOL0     H24055   9.881   5.746   0.457 -1.2526  0.0562 -0.1639
  919MOL0     H24056   9.894   5.910   0.396  0.3743 -0.3421  1.7700
  919MOL0     H24057   9.743   5.689   0.252  0.8643  0.5140 -1.4909
  919MOL0     H24058   9.756   5.859   0.193  2.1314  0.9893 -0.6137
  919MOL0     H24059   9.650   5.928   0.421 -1.8513  2.3820 -1.3767
  919MOL0     H24060   9.626   5.748   0.441  0.9446  0.9060 -0.4981
  919MOL0     H24061   9.491   5.752   0.230 -3.1900  1.4275 -1.1012
  919MOL0     H24062   9.501   5.926   0.238  2.5700 -1.0521 -0.8834
  919MOL0     H24063   9.196   5.850   0.515  1.1255 -0.9270  2.2803
  919MOL0     H24064  10.153   5.684   0.135  0.9066 -0.4481 -1.0461
  919MOL0     H24065  10.411   5.738   0.134  0.3413 -2.4291  1.4716
  920MOL0     O24066   2.889   9.229   7.049 -0.4939 -0.0572  0.5411
  920MOL0     C24067   2.947   9.326   7.009 -0.1166  0.3208  0.0921
  920MOL0     O24068   2.931   9.385   6.881  0.8631  0.4975 -0.0801
  920MOL0     C24069   2.843   9.310   6.798 -0.0194 -1.3869  0.0116
  920MOL0     C24070   2.711   9.326   6.820  0.6611  0.4771  0.3241
  920MOL0     C24071   2.612   9.239   6.766 -0.7105 -0.6192  0.8015
  920MOL0     C24072   2.647   9.149   6.663 -0.4001  0.2275  0.1257
  920MOL0     O24073   2.562   9.084   6.586 -0.4277 -0.9401  0.1877
  920MOL0     C24074   2.426   9.066   6.631 -0.8322 -0.2391  0.1448
  920MOL0     C24075   2.345   9.027   6.509 -0.5739  0.7110 -0.0718
  920MOL0     C24076   2.339   9.156   6.420 -0.1471  0.2288 -0.8811
  920MOL0     C24077   2.269   9.124   6.290  0.7331 -0.0968  0.3178
  920MOL0     C24078   2.300   9.230   6.174 -0.2774  0.6230  0.2438
  920MOL0     C24079   2.262   9.178   6.040  0.7150 -0.2516 -0.4876
  920MOL0     C24080   2.324   9.273   5.939  0.0801  0.6123 -0.1421
  920MOL0     C24081   2.274   9.230   5.802 -0.0735 -0.0739 -0.2229
  920MOL0     N24082   2.382   9.279   5.716 -0.4694  0.0652  1.1550
  920MOL0     C24083   2.389   9.399   5.640  0.2201 -0.1127 -0.6569
  920MOL0     C24084   2.492   9.378   5.551 -0.1623 -0.4899 -0.2323
  920MOL0     C24085   2.513   9.489   5.456  0.9589  1.1869  0.0613
  920MOL0     C24086   2.545   9.439   5.317  0.5911  0.1447 -0.5236
  920MOL0     C24087   2.429   9.353   5.254 -0.0853 -1.0865  0.1608
  920MOL0     C24088   2.291   9.417   5.228 -0.1448 -0.7910 -1.1721
  920MOL0     O24089   2.294   9.455   5.099  0.0413  0.0617 -0.5469
  920MOL0     C24090   2.182   9.515   5.035 -0.3517 -0.0702 -0.1712
  920MOL0     C24091   2.174   9.508   4.895  0.5102  0.3625  0.8020
  920MOL0     C24092   2.071   9.568   4.821 -0.2488  0.7472  0.2229
  920MOL0     C24093   2.080   9.547   4.668  0.7491 -0.1789  0.3485
  920MOL0     C24094   1.955   9.629   4.892 -0.2350  0.9008 -0.0447
  920MOL0     C24095   1.839   9.702   4.827 -1.1518  0.2475 -1.4025
  920MOL0     O24096   1.731   9.722   4.900  0.9542 -1.3477 -0.6445
  920MOL0     C24097   1.665   9.838   4.870 -0.3317  0.0298 -0.1447
  920MOL0     C24098   1.692   9.957   4.944  0.1885 -0.4910  0.2476
  920MOL0     C24099   1.629  10.079   4.911  0.3606 -0.4333  0.3180
  920MOL0     C24100   1.537  10.074   4.809 -0.1243 -0.0551 -0.9512
  920MOL0     O24101   1.453  10.174   4.766 -0.5763 -0.3918  0.1132
  920MOL0     C24102   1.519  10.303   4.762  0.8383 -0.0308  0.1124
  920MOL0     C24103   1.425  10.402   4.685 -0.1496  0.2710  0.3218
  920MOL0     C24104   1.359  10.329   4.559  0.4060 -0.2917  0.7599
  920MOL0     C24105   1.297  10.428   4.458  0.3495 -0.2040 -0.4872
  920MOL0     C24106   1.172  10.497   4.521 -0.4843  0.0781 -0.7628
  920MOL0     C24107   1.191  10.627   4.593 -1.1029 -0.2255 -0.2794
  920MOL0     C24108   1.066  10.663   4.669  0.7491  0.2995  1.3102
  920MOL0     C24109   1.085  10.803   4.718 -0.1619 -0.1884  0.3031
  920MOL0    Cl24110   0.971  10.839   4.842 -0.0834 -0.0343 -0.6146
  920MOL0     C24111   1.510   9.956   4.745 -0.7379 -0.3827  0.1250
  920MOL0     C24112   1.567   9.836   4.786  0.1200 -0.3745  1.1729
  920MOL0     O24113   1.870   9.773   4.728  0.0919  0.1033 -1.1212
  920MOL0     C24114   1.955   9.606   5.036 -1.1174 -0.6092  0.6981
  920MOL0     C24115   2.067   9.564   5.104 -0.5584 -0.2125  0.3108
  920MOL0     N24116   2.547   9.255   5.570  0.5628 -0.1947 -0.1569
  920MOL0     N24117   2.476   9.192   5.665 -0.2574  0.2292  0.3057
  920MOL0     C24118   2.785   9.141   6.632 -0.0363  0.2214 -0.1117
  920MOL0     C24119   2.889   9.215   6.707  0.1810 -0.1622  0.9372
  920MOL0     C24120   3.022   9.403   7.110  0.7056 -0.5442 -0.4791
  920MOL0     C24121   2.987   9.401   7.248 -0.4512 -0.0191  1.1769
  920MOL0     C24122   3.060   9.481   7.339 -0.5837 -0.3553 -0.3875
  920MOL0     C24123   3.161   9.570   7.288  0.5650 -0.0617 -0.2620
  920MOL0     O24124   3.231   9.650   7.368  0.0399  0.0813  0.1626
  920MOL0     C24125   3.236   9.639   7.516  0.2316  0.2144 -0.4621
  920MOL0     C24126   3.147   9.741   7.577  0.5211 -0.2436  0.7455
  920MOL0     C24127   3.166   9.761   7.724  0.3519 -0.0757 -1.4024
  920MOL0     C24128   3.078   9.872   7.796 -0.5650  0.4249  0.1883
  920MOL0     C24129   2.947   9.882   7.744 -0.0030  0.3982  0.3105
  920MOL0     C24130   2.832   9.894   7.711  0.7002 -0.0126 -0.9227
  920MOL0     C24131   3.181   9.584   7.152  0.4758 -0.7026  0.0073
  920MOL0     C24132   3.109   9.503   7.059 -0.2529  0.8454 -0.8594
  920MOL0     H24133   2.679   9.398   6.894 -3.0374 -0.6075 -0.0182
  920MOL0     H24134   2.515   9.266   6.804 -0.6274  1.6568 -0.4181
  920MOL0     H24135   2.433   8.993   6.712  0.5817  0.6495  0.8660
  920MOL0     H24136   2.386   9.162   6.664  2.5721  1.6699 -0.7757
  920MOL0     H24137   2.393   8.938   6.465  2.0526 -0.1048  3.8521
  920MOL0     H24138   2.245   8.983   6.515  0.4323 -1.6176  1.4713
  920MOL0     H24139   2.284   9.240   6.463 -3.1566 -2.1322  0.2947
  920MOL0     H24140   2.439   9.198   6.407  0.2835 -0.0504  1.1666
  920MOL0     H24141   2.306   9.025   6.263 -0.3486 -0.8912  1.6509
  920MOL0     H24142   2.164   9.107   6.314  0.5032  2.1011  1.1123
  920MOL0     H24143   2.233   9.313   6.199  0.2937 -0.0339  4.7080
  920MOL0     H24144   2.405   9.259   6.188  0.0310 -1.6471  3.7778
  920MOL0     H24145   2.297   9.078   6.012  3.0132  0.8167 -1.6252
  920MOL0     H24146   2.154   9.168   6.024  0.3234  1.1025  1.0517
  920MOL0     H24147   2.289   9.376   5.946  0.4779  1.0154 -2.8052
  920MOL0     H24148   2.433   9.263   5.939  0.2017  1.3547 -2.2603
  920MOL0     H24149   2.181   9.281   5.777 -0.0055  3.0094  4.5181
  920MOL0     H24150   2.265   9.121   5.791  1.0216  0.0801 -3.5941
  920MOL0     H24151   2.322   9.484   5.652  1.2635  0.4527  1.7400
  920MOL0     H24152   2.424   9.554   5.452 -0.1547 -0.1431  1.9164
  920MOL0     H24153   2.602   9.544   5.488  1.4720  1.1058 -1.1678
  920MOL0     H24154   2.639   9.385   5.328  0.1756 -0.1051  2.5340
  920MOL0     H24155   2.566   9.521   5.247 -1.4422  0.8141 -0.4209
  920MOL0     H24156   2.419   9.266   5.320 -0.9679  0.1531  1.7381
  920MOL0     H24157   2.466   9.311   5.161  0.2362 -0.5834  0.0585
  920MOL0     H24158   2.290   9.511   5.284  2.2920 -1.7172  0.6099
  920MOL0     H24159   2.215   9.352   5.273  1.4943 -0.8333  1.7583
  920MOL0     H24160   2.265   9.487   4.839 -0.0180 -0.5818  0.2650
  920MOL0     H24161   2.115   9.643   4.630 -0.7128  0.2222 -0.0651
  920MOL0     H24162   2.151   9.468   4.641  1.7282  0.9181 -0.3555
  920MOL0     H24163   1.983   9.537   4.618  1.0644 -2.2355  0.0518
  920MOL0     H24164   1.764   9.954   5.025 -1.4627  2.8642  2.0634
  920MOL0     H24165   1.660  10.178   4.944 -0.7550  0.0044  0.0862
  920MOL0     H24166   1.549  10.340   4.861 -2.2452  1.1967  0.7139
  920MOL0     H24167   1.606  10.300   4.696  0.2626  2.2711 -0.8436
  920MOL0     H24168   1.347  10.417   4.760  0.9543 -1.9645  2.0571
  920MOL0     H24169   1.480  10.488   4.646  2.4596 -1.4458 -0.0124
  920MOL0     H24170   1.276  10.269   4.597 -0.7820 -0.7452 -2.2835
  920MOL0     H24171   1.427  10.265   4.502  0.9999  1.0553 -0.1067
  920MOL0     H24172   1.365  10.509   4.427  0.5768  0.3411  1.2821
  920MOL0     H24173   1.295  10.370   4.366  3.9779  0.3235 -1.0738
  920MOL0     H24174   1.122  10.422   4.583 -0.9711 -0.3073 -1.6043
  920MOL0     H24175   1.095  10.514   4.446 -2.8810 -0.5324  1.4206
  920MOL0     H24176   1.269  10.631   4.670 -1.0695  0.7618 -0.3622
  920MOL0     H24177   1.217  10.702   4.518  1.9672  0.0410  0.8931
  920MOL0     H24178   1.050  10.595   4.753  0.4527  1.1364  1.9568
  920MOL0     H24179   0.980  10.667   4.601  0.2925  3.4703  1.9086
  920MOL0     H24180   1.076  10.879   4.640  2.2311 -1.2364 -1.0946
  920MOL0     H24181   1.189  10.808   4.752 -0.1471 -4.4760  1.4317
  920MOL0     H24182   1.430   9.961   4.672 -0.2674  0.3539 -0.3440
  920MOL0     H24183   1.541   9.748   4.728  1.4166 -2.6452  3.7923
  920MOL0     H24184   1.873   9.620   5.105 -0.3633 -0.6330  1.6242
  920MOL0     H24185   2.050   9.547   5.210  1.7313 -0.0831  0.7411
  920MOL0     H24186   2.807   9.067   6.556  0.3831  0.6771 -0.4353
  920MOL0     H24187   2.994   9.217   6.679  0.3712  1.4506  1.6718
  920MOL0     H24188   2.902   9.340   7.276  0.6783 -1.4729  1.5717
  920MOL0     H24189   3.030   9.475   7.443  0.1347 -0.2848 -0.1701
  920MOL0     H24190   3.205   9.543   7.558 -1.2242  0.4318 -0.9827
  920MOL0     H24191   3.335   9.650   7.561 -1.2972 -1.4198  3.7887
  920MOL0     H24192   3.042   9.731   7.547 -0.2606  3.3972  1.7339
  920MOL0     H24193   3.173   9.839   7.536 -0.7095 -0.6564 -1.1298
  920MOL0     H24194   3.272   9.783   7.740  0.0381  1.3195 -1.1172
  920MOL0     H24195   3.139   9.676   7.787  0.4297  1.9905  1.6282
  920MOL0     H24196   3.121   9.969   7.771  2.1309 -0.1214  2.2370
  920MOL0     H24197   3.071   9.866   7.905  0.1640 -0.8607  0.1753
  920MOL0     H24198   2.732   9.919   7.683  0.6078 -0.3583 -0.9016
  920MOL0     H24199   3.237   9.669   7.114 -1.3872  0.3150 -0.5475
  920MOL0     H24200   3.121   9.515   6.952 -0.7219  0.9176 -0.9043
  921MOL0     O24201   4.481   1.297   7.681 -0.1903 -0.1810  0.4077
  921MOL0     C24202   4.450   1.185   7.725 -0.6789 -0.5473  0.3160
  921MOL0     O24203   4.388   1.164   7.842  0.4981  0.1068 -0.2635
  921MOL0     C24204   4.368   1.277   7.922  0.6146  0.2672 -0.8147
  921MOL0     C24205   4.250   1.331   7.976  0.2598  0.7478 -0.4514
  921MOL0     C24206   4.240   1.424   8.079 -0.4212  0.0970 -0.6585
  921MOL0     C24207   4.357   1.486   8.123 -0.5154  0.3849 -0.4771
  921MOL0     O24208   4.346   1.594   8.209  0.4498  0.2421  0.2250
  921MOL0     C24209   4.445   1.630   8.307 -0.2928  0.2009 -0.4868
  921MOL0     C24210   4.518   1.767   8.276 -0.5418  0.5494 -0.9243
  921MOL0     C24211   4.433   1.887   8.235  0.2826 -0.1886  1.1612
  921MOL0     C24212   4.531   1.995   8.183  0.0307  0.5484 -0.2729
  921MOL0     C24213   4.469   2.119   8.127 -0.3327  0.1146 -0.8925
  921MOL0     C24214   4.411   2.216   8.230 -0.8713  0.0927  0.5503
  921MOL0     C24215   4.267   2.187   8.256  0.1313  0.8293 -0.2165
  921MOL0     C24216   4.172   2.286   8.190  0.2205 -0.3856 -0.3051
  921MOL0     N24217   4.166   2.304   8.040 -0.4469 -0.0835  0.8532
  921MOL0     C24218   4.088   2.402   7.983  1.0855  0.6900  0.5796
  921MOL0     C24219   4.083   2.368   7.848 -0.1536  0.8689 -0.7790
  921MOL0     C24220   4.002   2.442   7.734  0.4803 -0.2837  0.1436
  921MOL0     C24221   3.893   2.532   7.786  0.0725  0.7749  0.0470
  921MOL0     C24222   3.795   2.588   7.687 -0.1286 -0.5861  0.3143
  921MOL0     C24223   3.864   2.700   7.604  0.4143  1.2299  0.2647
  921MOL0     O24224   3.765   2.729   7.512  0.2906  0.7031  0.1765
  921MOL0     C24225   3.768   2.834   7.424 -0.0759 -0.3591  0.0102
  921MOL0     C24226   3.669   2.835   7.323  0.8684  0.4486  0.9847
  921MOL0     C24227   3.649   2.942   7.232 -0.3052 -0.6135  0.1037
  921MOL0     C24228   3.568   2.919   7.111  0.3878 -0.5696  0.3529
  921MOL0     C24229   3.719   3.067   7.257  0.9933 -1.6153  0.5906
  921MOL0     C24230   3.704   3.192   7.176  1.1620 -0.5368 -0.3758
  921MOL0     O24231   3.785   3.282   7.224 -0.2959 -0.7741  0.5813
  921MOL0     C24232   3.737   3.409   7.245  0.7917 -0.3417  0.6432
  921MOL0     C24233   3.623   3.428   7.319 -0.4504 -1.1958  1.3271
  921MOL0     C24234   3.559   3.560   7.325 -0.8374 -1.4293 -0.2891
  921MOL0     C24235   3.638   3.675   7.289  0.6447 -0.4556  0.3670
  921MOL0     O24236   3.591   3.797   7.323  0.2961 -0.0335  1.0986
  921MOL0     C24237   3.648   3.915   7.248 -0.5454  0.2180 -1.1950
  921MOL0     C24238   3.567   4.041   7.279 -0.6822  0.1247 -0.3391
  921MOL0     C24239   3.419   4.034   7.230 -0.0927  0.2781  0.9085
  921MOL0     C24240   3.389   4.026   7.072  0.1223  0.1328  0.5824
  921MOL0     C24241   3.257   4.081   7.012  0.2646 -0.3745 -0.1064
  921MOL0     C24242   3.252   4.233   7.011  0.1715  0.0778 -0.7664
  921MOL0     C24243   3.140   4.301   6.927 -0.1343 -0.1173  0.0599
  921MOL0     C24244   3.160   4.452   6.921 -0.1472  0.0391  0.4531
  921MOL0    Cl24245   3.099   4.515   6.771  0.7320  0.0405 -0.9407
  921MOL0     C24246   3.755   3.654   7.210  0.1526 -0.3507 -0.5813
  921MOL0     C24247   3.799   3.522   7.188  0.1342 -0.6680  0.0062
  921MOL0     O24248   3.612   3.210   7.102  0.0697 -0.1718  0.2823
  921MOL0     C24249   3.808   3.071   7.372 -0.2996 -0.0548  0.4328
  921MOL0     C24250   3.839   2.954   7.446  0.1499  0.7779 -0.2750
  921MOL0     N24251   4.161   2.254   7.828  0.1757 -0.8237 -0.2505
  921MOL0     N24252   4.216   2.221   7.941  0.9301  0.4528  0.6014
  921MOL0     C24253   4.477   1.449   8.070 -0.5519  0.2410  0.2401
  921MOL0     C24254   4.486   1.346   7.979  1.3336 -0.1588 -0.3082
  921MOL0     C24255   4.482   1.059   7.650 -0.3971 -0.2643  0.0703
  921MOL0     C24256   4.519   0.939   7.728 -0.4425 -0.8763 -0.4324
  921MOL0     C24257   4.569   0.824   7.664  1.4165  0.2179 -0.1520
  921MOL0     C24258   4.585   0.820   7.524  0.5629  0.4419 -0.7151
  921MOL0     O24259   4.627   0.694   7.474 -0.0842  0.0976 -0.8528
  921MOL0     C24260   4.746   0.707   7.390 -0.0941  0.3396  0.0872
  921MOL0     C24261   4.724   0.715   7.237 -0.0997  0.1850  0.3617
  921MOL0     C24262   4.652   0.584   7.185 -0.1021  0.6119 -0.6032
  921MOL0     C24263   4.752   0.479   7.147  0.5201  0.0419  0.0201
  921MOL0     C24264   4.663   0.367   7.104  0.2348  0.0872 -0.2784
  921MOL0     C24265   4.593   0.265   7.089 -0.2140 -0.7262 -0.3769
  921MOL0     C24266   4.561   0.940   7.452  0.5273 -0.1201  0.2404
  921MOL0     C24267   4.510   1.063   7.506  0.2294 -0.0799 -1.0345
  921MOL0     H24268   4.159   1.277   7.951  0.4218 -0.0233  0.5274
  921MOL0     H24269   4.142   1.440   8.124 -0.6079 -0.6985 -0.7570
  921MOL0     H24270   4.406   1.627   8.410 -1.6293  0.8928 -0.9385
  921MOL0     H24271   4.519   1.550   8.306  1.2363  1.5491 -1.5786
  921MOL0     H24272   4.559   1.790   8.375  1.6221  2.8340 -2.2152
  921MOL0     H24273   4.596   1.752   8.201 -3.6085 -3.1243 -3.8015
  921MOL0     H24274   4.367   1.857   8.153  2.5187  3.0791 -2.1664
  921MOL0     H24275   4.376   1.909   8.326  0.8552 -1.8505  1.9531
  921MOL0     H24276   4.610   2.021   8.254 -1.2629 -3.0200  2.8120
  921MOL0     H24277   4.596   1.948   8.109  2.9805  0.7482  1.9950
  921MOL0     H24278   4.560   2.164   8.086  1.0696 -0.0864  1.7971
  921MOL0     H24279   4.389   2.083   8.061 -1.3932  0.9854 -0.1289
  921MOL0     H24280   4.459   2.204   8.328 -0.5096  2.1338  0.6577
  921MOL0     H24281   4.413   2.323   8.207 -3.2599  0.5097  1.9665
  921MOL0     H24282   4.244   2.091   8.208  2.2734  1.3602 -2.4949
  921MOL0     H24283   4.251   2.190   8.364  3.1484 -0.7364  0.3790
  921MOL0     H24284   4.193   2.386   8.228  3.0808 -0.5089 -1.3513
  921MOL0     H24285   4.070   2.260   8.221  0.1026  2.5362  2.2446
  921MOL0     H24286   4.040   2.483   8.036  0.6550  0.0640  1.1662
  921MOL0     H24287   4.074   2.497   7.673 -0.5825 -1.3036 -2.1107
  921MOL0     H24288   3.940   2.372   7.678 -1.4056  0.6874  0.9523
  921MOL0     H24289   3.949   2.602   7.849  2.3462  1.2787 -2.3579
  921MOL0     H24290   3.838   2.469   7.858  3.9493 -0.7917  1.9110
  921MOL0     H24291   3.713   2.645   7.732  2.0942  1.2632  2.3176
  921MOL0     H24292   3.763   2.509   7.618  0.4588  0.6865 -1.5040
  921MOL0     H24293   3.950   2.666   7.546 -1.0195  1.8069 -2.3318
  921MOL0     H24294   3.881   2.794   7.659  2.4850  2.0608 -1.6429
  921MOL0     H24295   3.608   2.746   7.308  0.5739  0.5330  1.6564
  921MOL0     H24296   3.498   3.001   7.097  0.4211 -0.8561 -1.7092
  921MOL0     H24297   3.627   2.894   7.022  1.4524  0.7300  0.6622
  921MOL0     H24298   3.501   2.833   7.113 -1.4424  0.6810 -1.8912
  921MOL0     H24299   3.561   3.346   7.353 -2.1817 -1.2163 -1.5256
  921MOL0     H24300   3.460   3.585   7.360 -0.4018  1.4696 -0.8536
  921MOL0     H24301   3.749   3.940   7.284 -1.7747  2.0411  1.2878
  921MOL0     H24302   3.668   3.896   7.142 -1.7177 -0.7593 -1.2638
  921MOL0     H24303   3.571   4.049   7.388  2.7314  0.1301 -0.3674
  921MOL0     H24304   3.625   4.123   7.235  1.7923 -2.1833 -1.6774
  921MOL0     H24305   3.359   4.113   7.276 -1.8000 -0.9218  0.8606
  921MOL0     H24306   3.384   3.940   7.274  0.5809 -0.8351 -0.8390
  921MOL0     H24307   3.472   4.083   7.031  2.6293 -2.3316  1.9377
  921MOL0     H24308   3.385   3.922   7.039  0.8868  0.3885 -0.3490
  921MOL0     H24309   3.181   4.035   7.075 -0.0987 -0.7275 -0.7896
  921MOL0     H24310   3.241   4.037   6.913  1.6036 -0.6414 -0.2213
  921MOL0     H24311   3.244   4.280   7.109  2.6841  0.6562 -0.7760
  921MOL0     H24312   3.348   4.266   6.971  0.9056 -1.5256 -0.4296
  921MOL0     H24313   3.043   4.281   6.973  0.0786 -0.3859  0.3935
  921MOL0     H24314   3.133   4.266   6.823  0.9747 -3.4668  0.9993
  921MOL0     H24315   3.265   4.483   6.915 -0.6735  1.5646 -3.8638
  921MOL0     H24316   3.102   4.501   6.999  0.2718  1.2674  0.0208
  921MOL0     H24317   3.812   3.731   7.160  2.4867 -1.1571  0.6788
  921MOL0     H24318   3.883   3.512   7.121 -1.0092  2.4606 -2.1418
  921MOL0     H24319   3.871   3.156   7.395  1.9123 -1.5018  0.0944
  921MOL0     H24320   3.909   2.958   7.529 -0.5132  2.1600  0.2509
  921MOL0     H24321   4.565   1.505   8.101  0.1535 -2.4088  3.5380
  921MOL0     H24322   4.583   1.312   7.943  1.0520 -2.1199  0.6318
  921MOL0     H24323   4.496   0.931   7.834 -1.4867  0.3907 -0.5377
  921MOL0     H24324   4.589   0.732   7.719 -0.4418 -0.6696 -0.8802
  921MOL0     H24325   4.802   0.795   7.423 -1.0813  1.9596 -2.2978
  921MOL0     H24326   4.807   0.618   7.412 -3.2001 -2.1134 -0.4678
  921MOL0     H24327   4.816   0.736   7.182 -1.3675  1.0723 -1.5645
  921MOL0     H24328   4.664   0.803   7.213 -0.0111  0.5526  1.4334
  921MOL0     H24329   4.592   0.619   7.100 -1.4456  0.0291  0.0838
  921MOL0     H24330   4.584   0.542   7.259 -1.6383  2.1497 -1.0755
  921MOL0     H24331   4.821   0.464   7.230 -0.8610 -3.0433  0.7409
  921MOL0     H24332   4.803   0.522   7.060 -0.8949 -0.5139 -1.1200
  921MOL0     H24333   4.548   0.170   7.108  0.8609 -1.7671 -2.6125
  921MOL0     H24334   4.591   0.949   7.348  2.3575  2.0756  0.8591
  921MOL0     H24335   4.513   1.149   7.440 -3.0213  1.5892  0.7554
  922MOL0     O24336   7.085   1.546   2.160 -0.2157  1.1426 -0.6453
  922MOL0     C24337   7.011   1.531   2.068 -0.1646  0.7437 -0.1029
  922MOL0     O24338   6.977   1.627   1.970 -0.1360 -1.3067 -0.2555
  922MOL0     C24339   7.014   1.756   2.003  0.1469 -0.2107  0.0852
  922MOL0     C24340   7.142   1.802   1.982 -0.4983  0.4993 -0.4590
  922MOL0     C24341   7.179   1.923   2.022 -1.2227 -0.2464  0.1013
  922MOL0     C24342   7.091   2.026   2.057 -0.7097  0.9544 -0.9893
  922MOL0     O24343   7.143   2.154   2.084  0.9910  0.5757 -0.6728
  922MOL0     C24344   7.041   2.254   2.090 -0.6332  0.2695 -0.5806
  922MOL0     C24345   7.102   2.387   2.147  0.5506  0.3268 -0.1766
  922MOL0     C24346   7.006   2.491   2.106  0.0946 -0.7156  0.4388
  922MOL0     C24347   7.088   2.620   2.095 -0.3290  0.7186  0.3611
  922MOL0     C24348   7.000   2.745   2.071 -0.6411  0.1301  0.2099
  922MOL0     C24349   7.085   2.874   2.106 -0.3841 -0.3205 -0.9242
  922MOL0     C24350   7.212   2.889   2.017  0.2528  0.3294 -0.3635
  922MOL0     C24351   7.268   3.030   2.041  0.5228 -0.3157  0.3010
  922MOL0     N24352   7.404   3.032   1.985 -0.3479 -0.2436  0.0794
  922MOL0     C24353   7.433   3.052   1.856  0.0565  0.4273  0.1015
  922MOL0     C24354   7.556   3.028   1.840  0.0126 -0.0534  0.0037
  922MOL0     C24355   7.631   3.025   1.710 -0.2832  0.1607 -0.2962
  922MOL0     C24356   7.785   3.046   1.725 -1.1212 -0.2238 -0.0743
  922MOL0     C24357   7.798   3.193   1.768 -0.6453 -0.3712  0.0170
  922MOL0     C24358   7.932   3.217   1.832 -0.6695 -0.0949  0.4277
  922MOL0     O24359   7.933   3.334   1.905 -0.3100  0.1057  0.0933
  922MOL0     C24360   7.877   3.343   2.029  0.1485 -0.7626  0.4360
  922MOL0     C24361   7.901   3.457   2.092  0.6536 -0.8120 -0.1043
  922MOL0     C24362   7.851   3.480   2.226 -0.8107  0.4975  0.3596
  922MOL0     C24363   7.860   3.620   2.280  0.2189  0.5860  0.2304
  922MOL0     C24364   7.777   3.378   2.288 -0.1699  0.5884 -0.3814
  922MOL0     C24365   7.713   3.393   2.422  0.3305  0.6271 -0.1699
  922MOL0     O24366   7.603   3.307   2.431 -0.0045 -0.2577 -0.3331
  922MOL0     C24367   7.567   3.250   2.550  0.6348  0.7142 -0.1139
  922MOL0     C24368   7.437   3.201   2.544 -0.1033  0.7303 -0.1575
  922MOL0     C24369   7.385   3.133   2.656 -0.1272 -0.2828  0.1918
  922MOL0     C24370   7.452   3.130   2.781 -0.5273  0.5414  0.1349
  922MOL0     O24371   7.398   3.071   2.894 -0.3577  0.1545 -0.0553
  922MOL0     C24372   7.491   3.036   3.006  0.7940 -0.3858  0.1729
  922MOL0     C24373   7.419   2.927   3.089 -0.3309  0.3796 -0.0371
  922MOL0     C24374   7.469   2.917   3.232  0.6815  0.7431  0.4847
  922MOL0     C24375   7.447   2.773   3.283 -0.0810 -0.3624  0.1744
  922MOL0     C24376   7.495   2.755   3.429 -0.3079  0.2546  0.1846
  922MOL0     C24377   7.482   2.608   3.472  0.4088 -0.4126  0.0364
  922MOL0     C24378   7.528   2.610   3.627  1.0929  0.0024  0.8905
  922MOL0     C24379   7.494   2.484   3.704  0.1100  0.4631 -0.6449
  922MOL0    Cl24380   7.548   2.498   3.876  0.2449 -0.5765  0.0709
  922MOL0     C24381   7.583   3.190   2.787 -0.3623 -0.8607  0.4735
  922MOL0     C24382   7.639   3.238   2.667 -1.0534 -0.4064 -0.3813
  922MOL0     O24383   7.757   3.466   2.508 -0.0063 -0.9679  0.0110
  922MOL0     C24384   7.754   3.251   2.229  0.3912  0.1392  0.6427
  922MOL0     C24385   7.805   3.245   2.102 -0.1584  0.5617 -0.1406
  922MOL0     N24386   7.608   2.979   1.956  0.1908  0.2816 -0.6688
  922MOL0     N24387   7.513   2.982   2.051 -1.6368 -0.5143  0.5325
  922MOL0     C24388   6.955   1.979   2.068 -0.0847 -0.2189 -0.0569
  922MOL0     C24389   6.926   1.845   2.049 -0.7780  0.6553  0.4022
  922MOL0     C24390   6.931   1.408   2.067  0.6765 -0.2527 -0.4523
  922MOL0     C24391   6.951   1.296   2.154  0.5787 -0.3227 -0.5121
  922MOL0     C24392   6.870   1.177   2.146 -1.2222 -0.3650  0.0405
  922MOL0     C24393   6.763   1.170   2.060  0.4017  0.2165  0.0492
  922MOL0     O24394   6.681   1.063   2.042 -0.5373  0.0628  0.1711
  922MOL0     C24395   6.708   0.934   2.101  0.0652  0.1639  0.4874
  922MOL0     C24396   6.615   0.830   2.048 -0.1507  0.8920  0.2271
  922MOL0     C24397   6.475   0.884   2.058  0.1456  0.0998  0.0835
  922MOL0     C24398   6.376   0.774   2.027 -0.5393 -0.9129  0.4004
  922MOL0     C24399   6.283   0.816   1.921 -0.3232  0.3889  0.4954
  922MOL0     C24400   6.208   0.822   1.830 -0.2397  0.2427  0.5536
  922MOL0     C24401   6.747   1.281   1.971  0.2455 -0.6314 -0.2365
  922MOL0     C24402   6.830   1.395   1.978  0.6410  0.5206  0.2362
  922MOL0     H24403   7.209   1.725   1.944  1.3800  2.7928 -2.1385
  922MOL0     H24404   7.287   1.934   2.015 -1.2220  0.6653  1.2607
  922MOL0     H24405   7.002   2.275   1.990 -2.6816  0.6371  0.2480
  922MOL0     H24406   6.960   2.218   2.155  0.0016 -1.4273 -0.6695
  922MOL0     H24407   7.120   2.385   2.255 -3.9871  0.0379  0.7605
  922MOL0     H24408   7.200   2.401   2.100  0.5936  1.9179  0.3083
  922MOL0     H24409   6.959   2.476   2.008 -0.4520  1.6688  0.2644
  922MOL0     H24410   6.933   2.515   2.185  1.2788  2.6253  0.6874
  922MOL0     H24411   7.148   2.632   2.186  1.4535 -1.8711 -0.3594
  922MOL0     H24412   7.162   2.614   2.015 -1.8656  0.8951 -1.1412
  922MOL0     H24413   6.981   2.726   1.965  0.1937 -2.4297  0.4375
  922MOL0     H24414   6.906   2.750   2.127  0.4019  0.0357  2.0319
  922MOL0     H24415   7.032   2.970   2.099  0.0611  0.0726  0.7383
  922MOL0     H24416   7.116   2.872   2.211 -1.6188  2.7787 -0.3973
  922MOL0     H24417   7.278   2.807   2.048 -1.5362 -0.8705  0.5009
  922MOL0     H24418   7.187   2.872   1.912  0.9303  3.1499 -1.0566
  922MOL0     H24419   7.267   3.047   2.150  0.9610  2.0519 -0.0011
  922MOL0     H24420   7.218   3.109   1.985  2.9120 -0.4157 -2.1452
  922MOL0     H24421   7.362   3.070   1.776 -0.4740  0.7806  0.6426
  922MOL0     H24422   7.610   2.932   1.656  0.3069  0.3606 -0.8944
  922MOL0     H24423   7.581   3.098   1.646 -2.9715 -1.3166 -0.0049
  922MOL0     H24424   7.843   3.017   1.637 -0.6860  0.2538  0.0500
  922MOL0     H24425   7.822   2.974   1.798 -1.0790  1.6201  1.8407
  922MOL0     H24426   7.721   3.224   1.840  0.3402  3.6097 -0.4303
  922MOL0     H24427   7.790   3.263   1.685 -0.2463  1.2736  1.3092
  922MOL0     H24428   8.016   3.222   1.762  0.0528 -0.8041  1.2075
  922MOL0     H24429   7.957   3.131   1.896 -2.3439 -1.8138 -1.1024
  922MOL0     H24430   7.944   3.535   2.029  0.1488 -0.5720 -0.1615
  922MOL0     H24431   7.766   3.655   2.324  1.1848  1.9887  1.2619
  922MOL0     H24432   7.927   3.610   2.366  1.0216 -0.9488 -0.5260
  922MOL0     H24433   7.882   3.693   2.202  0.0986  1.0986  0.6740
  922MOL0     H24434   7.380   3.225   2.454 -2.8330  2.2837  1.8496
  922MOL0     H24435   7.281   3.105   2.670  0.6408 -3.5596  0.0088
  922MOL0     H24436   7.583   2.992   2.964  1.4868  1.2978 -0.1625
  922MOL0     H24437   7.513   3.117   3.076 -0.6306  0.4275 -0.2803
  922MOL0     H24438   7.311   2.943   3.095 -0.2326  0.6799  1.0935
  922MOL0     H24439   7.414   2.839   3.023  0.6920  2.5181 -3.1888
  922MOL0     H24440   7.433   2.995   3.300  0.0721 -0.1450  1.2070
  922MOL0     H24441   7.575   2.941   3.228  0.6263  0.9338  0.0121
  922MOL0     H24442   7.340   2.753   3.278  0.0987 -1.0568 -2.4192
  922MOL0     H24443   7.490   2.702   3.211 -1.0304 -1.8281  0.9954
  922MOL0     H24444   7.432   2.822   3.488  2.0581  0.6801  2.4465
  922MOL0     H24445   7.598   2.790   3.442 -0.8294  3.3823 -2.7016
  922MOL0     H24446   7.376   2.581   3.467 -0.1289  1.5365  0.1919
  922MOL0     H24447   7.538   2.539   3.408 -3.0778 -3.8781  0.3307
  922MOL0     H24448   7.483   2.697   3.674  0.9547  0.0483  0.6773
  922MOL0     H24449   7.635   2.632   3.626  0.9107  1.4906 -2.9519
  922MOL0     H24450   7.542   2.400   3.653 -1.0934  0.8439 -2.5398
  922MOL0     H24451   7.387   2.468   3.694  0.2099 -1.5241  0.8335
  922MOL0     H24452   7.628   3.203   2.885  1.9036 -2.5000 -0.2392
  922MOL0     H24453   7.742   3.271   2.677 -1.5972  1.1492  0.6060
  922MOL0     H24454   7.708   3.163   2.273  1.4115  0.0954  1.6937
  922MOL0     H24455   7.777   3.149   2.061  3.5358 -1.2345  1.0370
  922MOL0     H24456   6.873   2.037   2.110  2.2571  3.4582 -0.0612
  922MOL0     H24457   6.826   1.809   2.070 -2.0527  1.9010 -2.8745
  922MOL0     H24458   7.030   1.304   2.228  0.5988 -0.5552 -0.5079
  922MOL0     H24459   6.888   1.105   2.224  4.6493 -0.1321 -0.6553
  922MOL0     H24460   6.816   0.920   2.088  0.1097  2.0923 -1.9725
  922MOL0     H24461   6.697   0.947   2.209 -0.3418 -1.9270  0.7474
  922MOL0     H24462   6.621   0.740   2.110 -0.8136  0.8896  0.2962
  922MOL0     H24463   6.633   0.813   1.942  2.1253 -2.1129  0.9552
  922MOL0     H24464   6.457   0.972   1.995 -0.6068  1.9409  2.7160
  922MOL0     H24465   6.470   0.903   2.165 -1.4230 -0.3169  0.1101
  922MOL0     H24466   6.311   0.759   2.113 -0.3728 -0.2148  0.6556
  922MOL0     H24467   6.432   0.686   1.995 -0.4896 -0.7709  0.0932
  922MOL0     H24468   6.135   0.817   1.753  0.3884  2.0195 -0.1988
  922MOL0     H24469   6.676   1.285   1.890  0.3275 -1.7233 -0.3809
  922MOL0     H24470   6.809   1.480   1.914  3.3480  1.4304  0.4070
  923MOL0     O24471   6.641   3.152   0.053  0.3580 -0.5718 -0.2111
  923MOL0     C24472   6.517   3.150   0.062 -0.3007  0.4433  0.2127
  923MOL0     O24473   6.434   3.202  -0.025  0.4150 -0.1571  0.2590
  923MOL0     C24474   6.493   3.272  -0.132  0.2654  0.8614  0.6865
  923MOL0     C24475   6.480   3.406  -0.130  0.6811  0.5120  0.4779
  923MOL0     C24476   6.522   3.472  -0.241  0.2207  0.4907  0.7764
  923MOL0     C24477   6.581   3.409  -0.346 -0.2190  0.2563 -0.0798
  923MOL0     O24478   6.623   3.480  -0.454 -0.2608 -0.0568  0.3230
  923MOL0     C24479   6.570   3.613  -0.492 -0.4295  0.0410  0.3773
  923MOL0     C24480   6.640   3.667  -0.619 -0.0345  0.2452  0.0915
  923MOL0     C24481   6.784   3.725  -0.593  0.3517 -0.0088  0.1465
  923MOL0     C24482   6.800   3.834  -0.482  0.4261 -0.2603 -0.9288
  923MOL0     C24483   6.936   3.898  -0.478 -0.7746 -0.7652  0.7314
  923MOL0     C24484   6.943   4.009  -0.367  0.4839  0.5998 -0.0906
  923MOL0     C24485   6.847   4.115  -0.400  0.3964 -0.0340  0.2346
  923MOL0     C24486   6.857   4.236  -0.310  0.3933 -0.9103 -0.0708
  923MOL0     N24487   6.806   4.207  -0.174  0.6228  0.1444 -0.9523
  923MOL0     C24488   6.671   4.208  -0.136  0.1354  0.5389  0.3327
  923MOL0     C24489   6.675   4.189   0.002  0.7446  0.1474  0.3430
  923MOL0     C24490   6.546   4.188   0.084  0.3382 -0.3256 -1.0883
  923MOL0     C24491   6.554   4.246   0.223 -0.9260 -0.7132 -0.0480
  923MOL0     C24492   6.422   4.267   0.281 -0.0731 -0.1492 -0.0028
  923MOL0     C24493   6.354   4.133   0.309 -0.6251  0.2678 -0.5423
  923MOL0     O24494   6.423   4.068   0.415  0.7848 -0.0516  0.7479
  923MOL0     C24495   6.353   3.994   0.502 -0.1918 -1.0067  0.7807
  923MOL0     C24496   6.221   3.943   0.478 -0.9136 -0.7300  0.1642
  923MOL0     C24497   6.157   3.862   0.559 -0.0185 -0.0620  0.8568
  923MOL0     C24498   6.030   3.801   0.508 -0.0578  0.0889 -0.2948
  923MOL0     C24499   6.219   3.828   0.686  0.4126  0.1946  0.0041
  923MOL0     C24500   6.149   3.744   0.790  0.0476  0.8522 -0.6425
  923MOL0     O24501   6.021   3.721   0.779 -0.6986 -0.5358  0.0364
  923MOL0     C24502   5.968   3.624   0.861 -0.1824 -0.1382  0.5851
  923MOL0     C24503   5.962   3.638   1.005 -0.8395  0.1221 -0.6099
  923MOL0     C24504   5.889   3.544   1.075 -0.4055  0.1032  0.4923
  923MOL0     C24505   5.837   3.432   1.004 -0.1130  0.1160 -0.2190
  923MOL0     O24506   5.760   3.344   1.068 -0.2256  0.3903  0.9631
  923MOL0     C24507   5.784   3.293   1.197  0.1453 -0.5236  0.2969
  923MOL0     C24508   5.930   3.246   1.215 -1.1218 -0.2697  0.8984
  923MOL0     C24509   5.931   3.203   1.362  0.8202 -0.3543  0.0328
  923MOL0     C24510   6.084   3.192   1.401 -0.1933  0.6489  0.7743
  923MOL0     C24511   6.097   3.164   1.547  0.5513 -0.4412 -0.1312
  923MOL0     C24512   6.025   3.042   1.611 -0.5507  0.3740 -0.0078
  923MOL0     C24513   6.096   3.009   1.745  0.4676 -0.3047 -0.3263
  923MOL0     C24514   6.055   2.874   1.808 -0.2271 -1.6558  1.3167
  923MOL0    Cl24515   6.159   2.849   1.961  0.1344  0.4636  0.4913
  923MOL0     C24516   5.857   3.410   0.870  0.3062  0.5674  0.8406
  923MOL0     C24517   5.916   3.510   0.798 -0.0001  0.5121 -0.1135
  923MOL0     O24518   6.227   3.699   0.879 -0.0241 -0.1246 -0.9255
  923MOL0     C24519   6.344   3.891   0.714  0.4541  0.5032 -0.5768
  923MOL0     C24520   6.405   3.973   0.626 -1.0256 -0.3117 -0.1696
  923MOL0     N24521   6.802   4.174   0.043  0.9511 -0.2644  0.3464
  923MOL0     N24522   6.885   4.181  -0.062  0.5285 -1.6654  0.2353
  923MOL0     C24523   6.599   3.266  -0.345  0.0763  0.6527 -0.4086
  923MOL0     C24524   6.552   3.190  -0.238 -1.1006  1.0081  0.6625
  923MOL0     C24525   6.470   3.098   0.191  0.1285 -0.5006  0.7493
  923MOL0     C24526   6.332   3.067   0.217 -0.8168  0.2841  0.7282
  923MOL0     C24527   6.301   3.025   0.353 -0.3320 -0.5395  0.1193
  923MOL0     C24528   6.392   3.013   0.457 -0.9078  0.7474  0.4468
  923MOL0     O24529   6.351   2.964   0.575  0.3011  0.2517  0.4231
  923MOL0     C24530   6.432   3.003   0.689  1.2595 -0.2854  0.1166
  923MOL0     C24531   6.346   3.016   0.812  0.1246  0.3583  0.6195
  923MOL0     C24532   6.292   3.161   0.832  0.3260 -0.2349 -0.1079
  923MOL0     C24533   6.204   3.170   0.957  0.9325 -0.4726  0.6430
  923MOL0     C24534   6.271   3.112   1.074 -0.1626 -1.0056  1.0265
  923MOL0     C24535   6.324   3.055   1.164 -0.6807 -0.2285  0.3277
  923MOL0     C24536   6.522   3.049   0.422  0.5774 -0.8361  0.5373
  923MOL0     C24537   6.557   3.100   0.298 -0.6022  0.1327  1.0401
  923MOL0     H24538   6.433   3.465  -0.052 -2.0109 -1.2746  0.3375
  923MOL0     H24539   6.497   3.578  -0.241 -0.2668  0.3776  0.4331
  923MOL0     H24540   6.461   3.612  -0.505 -0.5231  1.5527  0.8134
  923MOL0     H24541   6.590   3.673  -0.402 -2.5767 -1.1403  1.7494
  923MOL0     H24542   6.646   3.582  -0.688 -0.2429 -0.9059  1.4355
  923MOL0     H24543   6.580   3.747  -0.663 -1.5500 -0.2159  1.2406
  923MOL0     H24544   6.847   3.637  -0.579 -0.4789 -0.9487 -1.6971
  923MOL0     H24545   6.827   3.763  -0.686 -1.5125  0.6407 -0.5042
  923MOL0     H24546   6.718   3.906  -0.492 -0.0245 -0.4389  1.0244
  923MOL0     H24547   6.789   3.793  -0.381  3.2955  1.8254  0.3880
  923MOL0     H24548   7.010   3.825  -0.444 -1.1305 -0.1624  3.0053
  923MOL0     H24549   6.964   3.942  -0.574  2.1292 -1.5340  1.1350
  923MOL0     H24550   6.928   3.948  -0.278 -1.1085  0.6040 -0.3376
  923MOL0     H24551   7.045   4.049  -0.362  1.2259 -1.2910  2.6597
  923MOL0     H24552   6.852   4.160  -0.500  2.5195  2.6402  1.4102
  923MOL0     H24553   6.745   4.076  -0.399  0.9414 -1.8046 -2.4561
  923MOL0     H24554   6.809   4.323  -0.357  1.4617 -0.9907 -1.3791
  923MOL0     H24555   6.961   4.272  -0.314  0.3354 -0.6671  0.4952
  923MOL0     H24556   6.584   4.217  -0.201 -0.3935  0.9154  1.0626
  923MOL0     H24557   6.470   4.241   0.027 -0.5466  2.1486  2.1119
  923MOL0     H24558   6.506   4.087   0.088 -0.6690  0.0960  1.8679
  923MOL0     H24559   6.606   4.340   0.208  1.5161 -2.1256 -1.0056
  923MOL0     H24560   6.608   4.171   0.281 -2.1855 -0.2877  1.7855
  923MOL0     H24561   6.367   4.323   0.205 -0.1018 -4.3041 -3.4319
  923MOL0     H24562   6.435   4.327   0.372  1.7976  1.6883 -1.3911
  923MOL0     H24563   6.351   4.065   0.223  2.9526 -2.8199  1.5067
  923MOL0     H24564   6.259   4.172   0.347  0.4738  2.6173  0.0380
  923MOL0     H24565   6.198   3.963   0.373  2.8575  1.9335 -0.3906
  923MOL0     H24566   5.940   3.849   0.549  0.1024 -0.7443  1.0622
  923MOL0     H24567   6.036   3.809   0.399  0.5236  1.3668 -0.1871
  923MOL0     H24568   6.026   3.695   0.535 -2.3982  0.6269  1.8671
  923MOL0     H24569   6.007   3.717   1.065  0.2240 -0.5084 -0.5657
  923MOL0     H24570   5.873   3.564   1.181 -0.5202  1.6184  0.2190
  923MOL0     H24571   5.755   3.364   1.275  3.6366 -0.1387  1.4377
  923MOL0     H24572   5.719   3.205   1.202  0.4523 -0.7659  0.0917
  923MOL0     H24573   5.963   3.169   1.145  1.7716  0.4497  1.3426
  923MOL0     H24574   6.001   3.329   1.208 -0.9846 -0.4296  0.3713
  923MOL0     H24575   5.878   3.110   1.386  4.8894 -2.3926  2.1701
  923MOL0     H24576   5.892   3.279   1.431  0.9889 -0.5047  0.2940
  923MOL0     H24577   6.125   3.107   1.345 -1.0250  0.3726  0.5738
  923MOL0     H24578   6.129   3.285   1.368 -0.7519  0.0280 -1.9437
  923MOL0     H24579   6.074   3.255   1.604  3.7755  0.3881  0.0058
  923MOL0     H24580   6.204   3.153   1.563  1.0243 -1.4506 -3.3355
  923MOL0     H24581   5.919   3.067   1.617 -0.6829  0.0797 -0.9671
  923MOL0     H24582   6.051   2.957   1.548 -0.7043  1.7616 -2.0596
  923MOL0     H24583   6.069   3.084   1.820 -2.6694 -2.3716  0.7906
  923MOL0     H24584   6.204   3.007   1.727  0.4261 -0.6880 -0.5346
  923MOL0     H24585   6.064   2.794   1.734  1.0297 -0.2344 -0.1476
  923MOL0     H24586   5.951   2.871   1.842  0.4853 -2.5351  3.5527
  923MOL0     H24587   5.831   3.322   0.811 -1.3556  0.4090  1.7578
  923MOL0     H24588   5.929   3.508   0.690 -1.2172  1.5272 -0.3028
  923MOL0     H24589   6.392   3.872   0.810  0.0703 -1.8947 -0.8064
  923MOL0     H24590   6.497   4.023   0.654 -1.2868  1.4946 -2.3022
  923MOL0     H24591   6.647   3.225  -0.434 -0.5410  2.3724 -1.6054
  923MOL0     H24592   6.576   3.085  -0.228  1.4069  1.5946  1.6493
  923MOL0     H24593   6.259   3.081   0.139 -0.5698  1.0727  0.6358
  923MOL0     H24594   6.197   2.998   0.369  0.1960 -1.2775  2.6674
  923MOL0     H24595   6.519   2.944   0.717  3.3010  3.7678  3.5614
  923MOL0     H24596   6.478   3.100   0.669  1.2134  0.2691  2.4159
  923MOL0     H24597   6.407   2.994   0.900 -0.9100  0.3628  1.3651
  923MOL0     H24598   6.262   2.947   0.812  1.4489 -1.3110  0.8743
  923MOL0     H24599   6.248   3.199   0.739 -0.4712 -4.1608 -1.5362
  923MOL0     H24600   6.381   3.224   0.844 -1.1396  1.4691  3.0038
  923MOL0     H24601   6.113   3.116   0.928  0.7192 -1.0856  2.3594
  923MOL0     H24602   6.185   3.276   0.972 -0.6139 -0.7377  0.7166
  923MOL0     H24603   6.366   3.004   1.250 -0.5881  0.1222  0.4918
  923MOL0     H24604   6.595   3.041   0.503  0.2835  0.0677  0.9064
  923MOL0     H24605   6.660   3.136   0.293 -0.1631 -0.6521  3.1795
  924MOL0     O24606   5.748   6.728   4.827  0.6878 -0.7320 -0.2428
  924MOL0     C24607   5.795   6.620   4.835  0.8564  0.0381 -0.1391
  924MOL0     O24608   5.865   6.553   4.744  1.3373 -1.1558 -0.5632
  924MOL0     C24609   5.878   6.620   4.625  0.4561  0.1695  0.7094
  924MOL0     C24610   5.866   6.540   4.516  0.2713 -0.4345  0.2470
  924MOL0     C24611   5.879   6.580   4.380 -0.3356  0.6349 -0.0748
  924MOL0     C24612   5.901   6.712   4.355 -0.4296  0.1126 -0.8495
  924MOL0     O24613   5.926   6.763   4.230 -1.2280  0.1743  0.1525
  924MOL0     C24614   5.832   6.870   4.197  0.3563 -1.2971  0.0914
  924MOL0     C24615   5.828   6.903   4.052  0.3281  1.1124 -0.3328
  924MOL0     C24616   5.720   7.002   4.015  0.7495  0.7030 -1.6977
  924MOL0     C24617   5.581   6.940   4.042  0.4626  0.0282 -0.2302
  924MOL0     C24618   5.460   7.008   3.963 -0.3186  0.0779 -0.2108
  924MOL0     C24619   5.325   6.959   4.016  0.2969  0.2941 -0.5569
  924MOL0     C24620   5.213   6.993   3.916  1.0457 -0.1538 -0.6848
  924MOL0     C24621   5.071   6.955   3.979  0.4804  0.3487 -0.2867
  924MOL0     N24622   4.967   6.961   3.871  0.2034  0.1623 -0.1431
  924MOL0     C24623   4.914   6.864   3.797  0.0887  0.1483  0.5758
  924MOL0     C24624   4.814   6.915   3.719 -0.9523 -1.2972 -0.1332
  924MOL0     C24625   4.726   6.818   3.631  0.8481  0.0246 -0.1299
  924MOL0     C24626   4.578   6.856   3.648 -0.0519 -0.1413  0.1386
  924MOL0     C24627   4.493   6.747   3.581 -0.6970 -0.2937 -0.3208
  924MOL0     C24628   4.349   6.797   3.590  0.0912 -0.3405 -0.4424
  924MOL0     O24629   4.262   6.685   3.550  0.3007  0.0060  0.2932
  924MOL0     C24630   4.127   6.702   3.550  1.2389 -0.3915 -0.2481
  924MOL0     C24631   4.058   6.823   3.590  0.4813 -0.2074 -0.0561
  924MOL0     C24632   3.917   6.837   3.577  1.1429 -0.3362  0.2855
  924MOL0     C24633   3.863   6.970   3.638 -0.5080  0.2465  0.2062
  924MOL0     C24634   3.840   6.735   3.521  0.1484  0.9104  0.5999
  924MOL0     C24635   3.688   6.737   3.488 -0.4245  0.3255 -0.4338
  924MOL0     O24636   3.638   6.851   3.430  0.3351  0.2277 -0.3253
  924MOL0     C24637   3.499   6.846   3.438  0.3904 -0.9651 -0.1287
  924MOL0     C24638   3.410   6.776   3.341 -0.0086 -0.8876  0.7718
  924MOL0     C24639   3.272   6.782   3.361  0.8605  0.0302  0.4642
  924MOL0     C24640   3.223   6.851   3.479 -0.9779  0.3197 -0.1795
  924MOL0     O24641   3.096   6.884   3.500  0.2288  0.1327  0.3856
  924MOL0     C24642   2.994   6.820   3.421  0.8310  0.1107  0.0150
  924MOL0     C24643   2.855   6.867   3.456  0.1430 -0.0755  1.0557
  924MOL0     C24644   2.750   6.754   3.438  0.1708 -0.2093  0.7224
  924MOL0     C24645   2.642   6.788   3.533  0.5486  0.7801  0.1767
  924MOL0     C24646   2.498   6.729   3.507  0.0634 -0.0720  0.7153
  924MOL0     C24647   2.495   6.573   3.477  0.5678 -0.2798 -0.9553
  924MOL0     C24648   2.350   6.523   3.455 -0.5960  0.2977  0.0216
  924MOL0     C24649   2.357   6.371   3.436  1.2419  0.3848 -0.7366
  924MOL0    Cl24650   2.217   6.295   3.355 -0.7025 -0.3183 -0.0992
  924MOL0     C24651   3.300   6.901   3.572 -0.2983 -0.5951  0.1929
  924MOL0     C24652   3.441   6.903   3.549  0.2566 -0.0300 -0.3961
  924MOL0     O24653   3.623   6.635   3.510  0.1914 -0.0989  0.6306
  924MOL0     C24654   3.914   6.611   3.477  0.1270 -0.2118 -0.5497
  924MOL0     C24655   4.052   6.597   3.500 -0.4982  0.5460 -0.9953
  924MOL0     N24656   4.819   7.048   3.742  0.1754 -0.7381 -0.6599
  924MOL0     N24657   4.895   7.074   3.844  0.0006  0.5925 -0.5185
  924MOL0     C24658   5.923   6.790   4.462 -0.6462 -0.1169  0.2758
  924MOL0     C24659   5.917   6.749   4.600  0.1906 -0.1399 -0.3559
  924MOL0     C24660   5.790   6.552   4.968  1.0180 -0.0760 -0.8001
  924MOL0     C24661   5.780   6.630   5.088  1.0884  0.3304 -0.2522
  924MOL0     C24662   5.767   6.573   5.223  0.9656  1.1306 -0.3733
  924MOL0     C24663   5.765   6.435   5.233 -0.4095  0.2869  0.0466
  924MOL0     O24664   5.760   6.359   5.343  0.7817  0.1705 -0.1155
  924MOL0     C24665   5.691   6.410   5.460  0.3320 -0.4731  0.9644
  924MOL0     C24666   5.665   6.324   5.579  0.0647 -0.2348 -0.6768
  924MOL0     C24667   5.800   6.273   5.639  0.2665 -0.7816 -0.4185
  924MOL0     C24668   5.814   6.118   5.624  0.4705 -0.1486 -0.9088
  924MOL0     C24669   5.740   6.055   5.731  0.7900  1.4654 -0.7951
  924MOL0     C24670   5.697   5.998   5.833 -0.1107  1.3176 -0.1314
  924MOL0     C24671   5.792   6.366   5.120 -0.0974  0.1253 -1.1809
  924MOL0     C24672   5.811   6.421   4.994 -0.4887 -0.3708 -0.3012
  924MOL0     H24673   5.833   6.436   4.522 -1.5907 -0.0117 -1.4388
  924MOL0     H24674   5.873   6.523   4.288 -1.0710  0.8806 -0.1909
  924MOL0     H24675   5.736   6.834   4.234  1.4898 -1.5701  3.0944
  924MOL0     H24676   5.880   6.955   4.247  2.5804 -0.6958 -2.7891
  924MOL0     H24677   5.923   6.931   4.005  0.9655 -0.1353  0.1541
  924MOL0     H24678   5.801   6.811   3.999 -0.9633  0.6951  0.9996
  924MOL0     H24679   5.733   7.089   4.080  1.1446  0.7032 -1.7798
  924MOL0     H24680   5.721   7.047   3.915 -1.4633  1.4169 -1.4593
  924MOL0     H24681   5.595   6.840   3.999 -1.6320  0.5847 -2.3865
  924MOL0     H24682   5.549   6.919   4.145 -3.5652 -0.3474 -1.4127
  924MOL0     H24683   5.467   7.117   3.973 -2.1348  0.3771 -1.6859
  924MOL0     H24684   5.461   6.977   3.858  1.6432 -0.2021 -0.1485
  924MOL0     H24685   5.307   6.852   4.030  0.2451  0.2425 -0.9932
  924MOL0     H24686   5.318   7.000   4.117  3.7417  1.5169 -0.6736
  924MOL0     H24687   5.216   7.101   3.896 -1.0666  0.2753  0.9630
  924MOL0     H24688   5.216   6.934   3.824  0.6040 -1.6136  0.2136
  924MOL0     H24689   5.049   7.025   4.060  2.4107 -1.2537  1.7696
  924MOL0     H24690   5.072   6.851   4.014  2.8869 -0.1827 -1.7400
  924MOL0     H24691   4.945   6.761   3.813  0.3761  0.0919 -0.3047
  924MOL0     H24692   4.748   6.810   3.524  1.0658 -1.2359 -0.0081
  924MOL0     H24693   4.749   6.721   3.675 -0.6638  0.0185  0.7021
  924MOL0     H24694   4.553   6.952   3.600  1.3837 -0.6789 -1.8172
  924MOL0     H24695   4.561   6.865   3.756  0.7894 -0.0885  0.2773
  924MOL0     H24696   4.512   6.656   3.639 -1.4346  0.9647  2.0263
  924MOL0     H24697   4.520   6.731   3.476  2.4655  3.9665 -0.4481
  924MOL0     H24698   4.338   6.884   3.525  0.0573 -0.3972 -0.5126
  924MOL0     H24699   4.336   6.828   3.694  2.4049 -1.5704  0.2795
  924MOL0     H24700   4.120   6.902   3.630 -0.0097  0.0152  0.2714
  924MOL0     H24701   3.767   6.991   3.590 -0.2363  0.3980 -0.2688
  924MOL0     H24702   3.847   6.966   3.747  0.2289  4.0251  0.5896
  924MOL0     H24703   3.930   7.054   3.618  3.1248 -2.4572  0.0583
  924MOL0     H24704   3.441   6.717   3.255 -2.4181  2.4797 -2.7755
  924MOL0     H24705   3.210   6.721   3.296  0.7706 -0.6072  1.1321
  924MOL0     H24706   3.007   6.842   3.314 -1.1066 -1.7150 -0.6585
  924MOL0     H24707   2.998   6.711   3.433 -1.4426 -0.0752 -0.5686
  924MOL0     H24708   2.865   6.902   3.559  1.1108  1.2828  0.5401
  924MOL0     H24709   2.831   6.949   3.387  1.7534  0.5266  1.1767
  924MOL0     H24710   2.792   6.655   3.459 -1.1597 -0.7795  0.8032
  924MOL0     H24711   2.719   6.760   3.333  0.0202  0.1095  0.7839
  924MOL0     H24712   2.681   6.758   3.630 -2.5383  0.2981  1.3942
  924MOL0     H24713   2.638   6.896   3.548  0.1632  1.1330 -2.1102
  924MOL0     H24714   2.463   6.787   3.422 -1.3160  0.3773  1.5481
  924MOL0     H24715   2.437   6.759   3.593 -3.0840  1.0355 -1.7395
  924MOL0     H24716   2.559   6.560   3.389  1.0366 -1.2097 -0.4881
  924MOL0     H24717   2.533   6.518   3.564  0.5242  0.2177 -0.6230
  924MOL0     H24718   2.318   6.570   3.361  1.8884  1.4360 -0.3230
  924MOL0     H24719   2.289   6.558   3.539 -0.7055  0.7809 -0.2546
  924MOL0     H24720   2.386   6.320   3.528  1.2207  2.0701  0.2456
  924MOL0     H24721   2.443   6.356   3.370  3.1657 -0.2817  1.7324
  924MOL0     H24722   3.265   6.958   3.657 -0.6054 -1.2358  0.5057
  924MOL0     H24723   3.504   6.957   3.619 -1.1478 -0.8289  1.5769
  924MOL0     H24724   3.856   6.531   3.433  1.9414 -0.4620 -2.6596
  924MOL0     H24725   4.102   6.509   3.461  1.2456  1.0098  0.1224
  924MOL0     H24726   5.961   6.891   4.450  0.2788 -0.4033  0.6393
  924MOL0     H24727   5.932   6.825   4.675  0.7876  1.5720 -2.1341
  924MOL0     H24728   5.774   6.739   5.083  0.9803  0.3506  0.2557
  924MOL0     H24729   5.758   6.633   5.313  1.3377 -1.8532  1.8011
  924MOL0     H24730   5.734   6.501   5.502 -2.0113  1.0180  0.3135
  924MOL0     H24731   5.593   6.445   5.427  1.4516 -0.2204 -2.4937
  924MOL0     H24732   5.596   6.244   5.553 -0.1350 -0.5867  0.8044
  924MOL0     H24733   5.609   6.380   5.655 -0.3770  1.9686 -2.5182
  924MOL0     H24734   5.798   6.300   5.746 -0.9362 -3.0846  0.1977
  924MOL0     H24735   5.875   6.331   5.585  0.5931 -2.1501 -1.4725
  924MOL0     H24736   5.920   6.093   5.621  0.3075 -0.8896 -4.6055
  924MOL0     H24737   5.775   6.081   5.529 -0.5891 -2.3868  0.3031
  924MOL0     H24738   5.656   5.955   5.922  0.7907 -0.8557 -0.7153
  924MOL0     H24739   5.791   6.257   5.122  2.1544  0.0432  1.4119
  924MOL0     H24740   5.823   6.363   4.903  0.5509  0.1952 -0.5428
  925MOL0     O24741  11.110   0.673   5.937  0.8596 -0.0334 -0.2413
  925MOL0     C24742  11.121   0.621   5.829 -1.6965 -0.6624  0.7121
  925MOL0     O24743  11.019   0.580   5.754  0.2183 -0.3021  0.7455
  925MOL0     C24744  10.883   0.599   5.793 -0.5030  0.2202 -0.1858
  925MOL0     C24745  10.800   0.500   5.762 -0.1351 -0.0638 -0.0202
  925MOL0     C24746  10.669   0.494   5.814  0.1343 -0.6070 -1.0477
  925MOL0     C24747  10.618   0.609   5.870  0.5857  0.0909 -0.5262
  925MOL0     O24748  10.485   0.607   5.904 -0.7273 -0.3212  0.3375
  925MOL0     C24749  10.408   0.721   5.864  0.1803 -0.4533  0.2225
  925MOL0     C24750  10.252   0.702   5.875  0.1529 -1.0478  0.0405
  925MOL0     C24751  10.180   0.836   5.858 -0.5464 -0.1383 -0.1701
  925MOL0     C24752  10.034   0.808   5.879  0.3823 -0.4900 -0.5191
  925MOL0     C24753   9.950   0.938   5.868 -0.6989 -0.0307  0.7859
  925MOL0     C24754   9.799   0.914   5.855 -0.5179 -0.8376 -0.7745
  925MOL0     C24755   9.705   1.045   5.852  0.1215 -0.6305 -0.4118
  925MOL0     C24756   9.562   1.019   5.813 -0.1471  0.1445 -1.0159
  925MOL0     N24757   9.483   0.950   5.917  0.2307  0.0340  0.1923
  925MOL0     C24758   9.462   0.819   5.935 -0.1658 -0.0866 -0.5450
  925MOL0     C24759   9.411   0.799   6.064  0.2219 -1.0109 -0.4747
  925MOL0     C24760   9.390   0.666   6.133 -0.9848 -0.1307 -0.5388
  925MOL0     C24761   9.445   0.662   6.284 -0.8183  0.2282 -0.0120
  925MOL0     C24762   9.586   0.614   6.306  0.6574  0.5447  0.1174
  925MOL0     C24763   9.695   0.703   6.244  0.0096 -0.1202  0.1905
  925MOL0     O24764   9.831   0.669   6.263  0.4365 -0.4472 -0.4516
  925MOL0     C24765   9.886   0.641   6.382 -0.2534  0.4682 -0.8290
  925MOL0     C24766   9.907   0.733   6.478  0.3038  0.1913  0.5483
  925MOL0     C24767   9.959   0.708   6.606  0.0423 -0.1841  0.2852
  925MOL0     C24768   9.970   0.824   6.698  0.3500  0.1423 -0.0396
  925MOL0     C24769  10.002   0.574   6.630 -1.0119  0.0105 -0.1557
  925MOL0     C24770  10.062   0.527   6.745  0.0095  0.0885 -0.7282
  925MOL0     O24771   9.977   0.470   6.842  0.0565 -0.6057  0.3984
  925MOL0     C24772   9.842   0.469   6.835  0.5369 -0.9169  0.0357
  925MOL0     C24773   9.765   0.359   6.803  0.0978  0.7714  1.1691
  925MOL0     C24774   9.623   0.367   6.810 -0.1492  0.0777  0.4794
  925MOL0     C24775   9.560   0.487   6.850  0.6815  0.2757 -0.5220
  925MOL0     O24776   9.414   0.479   6.849 -0.4869 -0.0977 -0.1100
  925MOL0     C24777   9.329   0.584   6.908  0.3623 -0.3889  0.7168
  925MOL0     C24778   9.180   0.533   6.902  0.2660  0.5774  0.0462
  925MOL0     C24779   9.154   0.460   7.035 -0.8920 -0.1307  0.3307
  925MOL0     C24780   9.013   0.385   7.041  0.1722 -0.5945  0.2278
  925MOL0     C24781   8.974   0.316   7.164  0.0034  0.6239 -0.6249
  925MOL0     C24782   8.950   0.406   7.291 -0.1028  0.7939 -0.1762
  925MOL0     C24783   8.835   0.500   7.272  0.3570  0.4057  0.2285
  925MOL0     C24784   8.777   0.536   7.410 -0.8868  0.2829 -0.4725
  925MOL0    Cl24785   8.891   0.655   7.494  0.0482 -0.1450 -0.0011
  925MOL0     C24786   9.642   0.593   6.909 -0.8186 -1.2512 -0.8284
  925MOL0     C24787   9.785   0.588   6.897 -0.0759 -0.0571 -0.3941
  925MOL0     O24788  10.183   0.538   6.758 -0.3779 -1.2696 -0.0709
  925MOL0     C24789   9.986   0.476   6.524  0.3472 -0.6783  0.2230
  925MOL0     C24790   9.929   0.508   6.400  0.0582 -0.0129  0.2507
  925MOL0     N24791   9.378   0.926   6.110 -0.3575  0.3823 -0.0159
  925MOL0     N24792   9.430   1.015   6.029 -0.1537  0.3030  0.3736
  925MOL0     C24793  10.691   0.721   5.887 -0.7542 -0.3409  0.5927
  925MOL0     C24794  10.827   0.720   5.845  0.7248 -0.3948 -0.3974
  925MOL0     C24795  11.262   0.595   5.780 -0.1486  0.3524  0.1523
  925MOL0     C24796  11.372   0.602   5.871 -0.3052  0.3042  0.1206
  925MOL0     C24797  11.512   0.578   5.841  1.1629 -0.1322  0.2889
  925MOL0     C24798  11.543   0.537   5.714  0.6426  0.0041  0.6730
  925MOL0     O24799  11.670   0.536   5.667  0.3441  0.3477 -0.3595
  925MOL0     C24800  11.748   0.422   5.717 -0.2846  0.0233 -0.8820
  925MOL0     C24801  11.696   0.287   5.678 -0.4746 -0.1021  0.6498
  925MOL0     C24802  11.769   0.173   5.741 -0.4397 -1.0510  1.1980
  925MOL0     C24803  11.761   0.154   5.897 -0.6751  0.2323 -0.6105
  925MOL0     C24804  11.629   0.173   5.956 -0.5905 -0.9421 -0.3722
  925MOL0     C24805  11.513   0.187   5.981  0.3961 -0.5996  0.6611
  925MOL0     C24806  11.432   0.524   5.625 -0.9182  0.5017 -0.2506
  925MOL0     C24807  11.301   0.558   5.655 -0.4568 -0.5073 -0.2148
  925MOL0     H24808  10.830   0.415   5.702 -0.0000  0.6681 -1.0067
  925MOL0     H24809  10.597   0.413   5.815 -2.5120  1.6197 -0.2778
  925MOL0     H24810  10.417   0.803   5.936 -3.5427 -1.3510  1.9443
  925MOL0     H24811  10.433   0.741   5.760  0.7419 -0.6769  0.3112
  925MOL0     H24812  10.214   0.641   5.792 -2.9051  0.3012  0.3255
  925MOL0     H24813  10.230   0.645   5.965 -2.6936  0.3959  0.3676
  925MOL0     H24814  10.225   0.917   5.917 -0.2816 -0.6130  0.2835
  925MOL0     H24815  10.191   0.856   5.751 -0.9526 -2.0057 -0.5923
  925MOL0     H24816   9.982   0.747   5.804  0.1476  0.1697 -0.9001
  925MOL0     H24817  10.011   0.767   5.978 -0.9643  5.9281  2.3828
  925MOL0     H24818   9.967   0.992   5.961  0.2738  0.0926  0.5476
  925MOL0     H24819   9.990   1.006   5.793 -0.3696 -0.6539  0.3881
  925MOL0     H24820   9.785   0.845   5.772  3.9978 -1.5999 -1.1516
  925MOL0     H24821   9.760   0.857   5.940  0.4821 -0.4113 -0.0134
  925MOL0     H24822   9.703   1.094   5.950 -1.0309 -0.1486 -0.6591
  925MOL0     H24823   9.737   1.115   5.774 -1.1368 -0.8488 -1.1478
  925MOL0     H24824   9.568   0.974   5.714  2.8800  0.6600 -1.1646
  925MOL0     H24825   9.527   1.122   5.809  1.6007  0.9152  1.1957
  925MOL0     H24826   9.504   0.745   5.867  0.2616  0.6746 -1.1400
  925MOL0     H24827   9.285   0.637   6.127 -0.1536 -3.6187 -0.2088
  925MOL0     H24828   9.441   0.591   6.073  1.1764  2.3030 -1.9250
  925MOL0     H24829   9.384   0.591   6.341 -2.5609  2.0605  0.5471
  925MOL0     H24830   9.431   0.765   6.320  0.8619  0.3251  0.4497
  925MOL0     H24831   9.589   0.508   6.277 -2.1037 -0.7090  3.6038
  925MOL0     H24832   9.608   0.613   6.413  1.7903 -1.4140 -0.0811
  925MOL0     H24833   9.666   0.802   6.279 -2.2601 -1.0317  1.0710
  925MOL0     H24834   9.680   0.688   6.137 -0.8062 -0.1950  0.3075
  925MOL0     H24835   9.881   0.835   6.451 -0.1082 -0.4034 -1.4648
  925MOL0     H24836  10.051   0.892   6.670 -1.5218  1.4234 -2.8932
  925MOL0     H24837   9.875   0.879   6.693  1.3347  1.9848  0.3702
  925MOL0     H24838   9.977   0.778   6.796  0.6739 -1.9409 -0.9857
  925MOL0     H24839   9.820   0.268   6.777 -1.0343  0.2575  0.4906
  925MOL0     H24840   9.552   0.288   6.784 -0.2424 -0.0327  1.0407
  925MOL0     H24841   9.363   0.625   7.004 -0.1187 -1.3560  1.3240
  925MOL0     H24842   9.336   0.667   6.838 -0.7065 -2.8918 -2.6206
  925MOL0     H24843   9.114   0.620   6.895  0.0116  0.4784  1.0386
  925MOL0     H24844   9.156   0.463   6.821  2.4602  0.4546 -0.5407
  925MOL0     H24845   9.141   0.532   7.116 -1.3663  0.7443 -0.5039
  925MOL0     H24846   9.233   0.386   7.046  0.0588  0.8222  0.0372
  925MOL0     H24847   8.938   0.463   7.029  2.9189  2.5406  1.8881
  925MOL0     H24848   8.994   0.309   6.964  0.3223  0.5585 -0.9750
  925MOL0     H24849   9.048   0.238   7.184 -0.9396  0.2062  1.5204
  925MOL0     H24850   8.878   0.267   7.148  1.4036 -2.5522  0.0849
  925MOL0     H24851   8.933   0.347   7.382  1.8694  1.1973  0.5116
  925MOL0     H24852   9.029   0.481   7.306  0.2898  0.3396  0.0323
  925MOL0     H24853   8.770   0.461   7.193  0.1681  2.3149 -0.6231
  925MOL0     H24854   8.866   0.597   7.233 -1.5601  0.5609 -1.0778
  925MOL0     H24855   8.762   0.449   7.475  2.6262 -1.8437 -2.2219
  925MOL0     H24856   8.683   0.592   7.402  0.1469  2.3460  0.7492
  925MOL0     H24857   9.591   0.672   6.963 -3.0188  0.7845 -5.3371
  925MOL0     H24858   9.834   0.679   6.932  1.5605 -0.7256 -0.8293
  925MOL0     H24859  10.016   0.372   6.537 -2.0375 -1.2797  1.5038
  925MOL0     H24860   9.896   0.431   6.332  0.8864  0.6038 -0.8756
  925MOL0     H24861  10.659   0.811   5.937 -2.0430 -1.1423  1.2364
  925MOL0     H24862  10.875   0.818   5.848 -3.4960  1.9889 -1.6409
  925MOL0     H24863  11.352   0.627   5.975  3.8982 -2.3109  1.8649
  925MOL0     H24864  11.587   0.598   5.917  0.1757 -1.2074  1.5915
  925MOL0     H24865  11.850   0.438   5.681 -0.6445  0.3359 -1.7916
  925MOL0     H24866  11.737   0.417   5.826 -0.6594 -1.1503 -0.9498
  925MOL0     H24867  11.687   0.287   5.569 -0.4941  0.1901  0.6504
  925MOL0     H24868  11.591   0.279   5.709 -2.4321  2.9253 -4.0685
  925MOL0     H24869  11.877   0.179   5.723 -0.8395 -0.7006 -1.3761
  925MOL0     H24870  11.731   0.082   5.694 -1.7980 -1.5731  3.1608
  925MOL0     H24871  11.845   0.201   5.950 -0.2418  0.1953 -1.2550
  925MOL0     H24872  11.790   0.049   5.911  3.1466  1.3187  0.9703
  925MOL0     H24873  11.406   0.192   5.993  0.1968  2.3300 -1.2413
  925MOL0     H24874  11.449   0.499   5.521 -1.7523  2.2978 -0.8613
  925MOL0     H24875  11.220   0.556   5.583 -0.2736  0.4732 -0.4672
  926MOL0     O24876   2.989   6.004   9.668  0.4971 -0.3484 -0.3529
  926MOL0     C24877   3.085   5.964   9.728 -0.4969  0.4233 -0.0083
  926MOL0     O24878   3.211   5.963   9.672 -0.2666  0.5150  0.2931
  926MOL0     C24879   3.238   5.973   9.537  0.8350 -0.3676 -0.2796
  926MOL0     C24880   3.276   6.097   9.494  0.0298  0.7357  0.1709
  926MOL0     C24881   3.313   6.120   9.358 -0.2170  0.0355 -0.1850
  926MOL0     C24882   3.305   6.003   9.268  0.3114 -0.1751 -0.8399
  926MOL0     O24883   3.340   5.995   9.136 -0.4367 -0.5379  0.0445
  926MOL0     C24884   3.387   6.116   9.063 -0.9947 -0.4591 -0.1062
  926MOL0     C24885   3.265   6.218   9.034 -0.0386  0.3946  0.2371
  926MOL0     C24886   3.305   6.330   8.945 -0.3041 -0.4270 -0.0727
  926MOL0     C24887   3.368   6.303   8.810 -0.4188 -0.1733  0.6019
  926MOL0     C24888   3.395   6.423   8.713  0.4738 -0.4255 -0.1647
  926MOL0     C24889   3.262   6.480   8.641  0.2879  0.7812 -0.9481
  926MOL0     C24890   3.290   6.572   8.524 -0.0618 -0.3193  0.4944
  926MOL0     C24891   3.163   6.621   8.449 -0.3219 -0.5208 -0.3341
  926MOL0     N24892   3.180   6.750   8.366 -0.0539  0.6931 -0.6485
  926MOL0     C24893   3.244   6.861   8.411 -0.0235 -0.0182  0.2572
  926MOL0     C24894   3.264   6.948   8.305  0.0058 -0.2718 -0.7100
  926MOL0     C24895   3.322   7.086   8.290 -0.4066  0.3655  0.4630
  926MOL0     C24896   3.433   7.065   8.178 -0.1096 -0.0640 -0.0741
  926MOL0     C24897   3.505   7.195   8.140  0.7250 -0.2315  0.4733
  926MOL0     C24898   3.649   7.206   8.185 -0.5617  0.1363 -0.1401
  926MOL0     O24899   3.657   7.171   8.324  0.0272  0.2670  0.0295
  926MOL0     C24900   3.776   7.140   8.374 -0.0516  0.3364 -0.4037
  926MOL0     C24901   3.817   7.188   8.494  0.3487 -0.0927 -0.3195
  926MOL0     C24902   3.940   7.148   8.546 -0.0389 -0.1518 -0.2031
  926MOL0     C24903   3.988   7.240   8.655 -0.1474 -0.3921 -0.1673
  926MOL0     C24904   4.019   7.041   8.488  0.6151 -0.1301  0.5644
  926MOL0     C24905   4.155   6.985   8.543  0.9822 -0.0996  0.2541
  926MOL0     O24906   4.195   7.032   8.660  0.1917  0.6214  0.0833
  926MOL0     C24907   4.327   6.996   8.681 -0.8764  0.5261  0.1493
  926MOL0     C24908   4.428   7.089   8.655 -0.4834  0.8061 -0.0168
  926MOL0     C24909   4.561   7.061   8.709  0.8342 -1.5131 -0.5573
  926MOL0     C24910   4.586   6.938   8.762  0.3910  0.0007  0.0253
  926MOL0     O24911   4.705   6.891   8.802  0.4808  0.0506 -0.1355
  926MOL0     C24912   4.825   6.967   8.785 -0.3116 -0.1171 -0.2857
  926MOL0     C24913   4.937   6.869   8.826 -0.0113 -0.6669 -0.0660
  926MOL0     C24914   4.957   6.835   8.981  0.6627  0.6205  0.0522
  926MOL0     C24915   4.896   6.693   9.004 -0.3305 -0.2435  1.0800
  926MOL0     C24916   4.845   6.663   9.140 -0.2614  0.3558 -1.2170
  926MOL0     C24917   4.954   6.641   9.252 -0.1110 -0.3242 -0.0088
  926MOL0     C24918   4.895   6.564   9.374  0.7480  0.6374  0.2146
  926MOL0     C24919   4.980   6.592   9.500  1.2961  0.8979  0.1942
  926MOL0    Cl24920   4.933   6.491   9.638 -0.2976  0.5052 -0.0418
  926MOL0     C24921   4.485   6.850   8.779  0.6923 -0.0526  0.3366
  926MOL0     C24922   4.356   6.881   8.745 -1.0403  0.8973 -0.1588
  926MOL0     O24923   4.211   6.919   8.462 -0.2451  1.1963 -0.1752
  926MOL0     C24924   3.962   6.979   8.378  0.0502  0.4056  0.0298
  926MOL0     C24925   3.846   7.028   8.323 -0.6723 -0.1079  0.1266
  926MOL0     N24926   3.225   6.874   8.201  0.4977  0.6186  0.8914
  926MOL0     N24927   3.176   6.761   8.234  0.1111  0.5264  0.8980
  926MOL0     C24928   3.260   5.884   9.316  0.0162 -0.5034 -0.1048
  926MOL0     C24929   3.223   5.871   9.449  0.5659  0.1266  0.3455
  926MOL0     C24930   3.070   5.871   9.838  0.4826  0.8881 -0.3795
  926MOL0     C24931   2.948   5.891   9.915 -0.3176  0.2198  0.6251
  926MOL0     C24932   2.925   5.802  10.021 -0.3855  0.7877 -0.5351
  926MOL0     C24933   3.006   5.688  10.049  0.9382 -0.4701  0.9225
  926MOL0     O24934   2.956   5.612  10.148 -0.0528 -0.3491  0.5498
  926MOL0     C24935   2.911   5.480  10.129  0.4651 -0.7708  0.3157
  926MOL0     C24936   2.826   5.440  10.243  0.0696 -0.3772  0.2620
  926MOL0     C24937   2.703   5.524  10.248  1.1803 -0.1632  0.8016
  926MOL0     C24938   2.575   5.439  10.275 -0.0589  0.6457 -0.3521
  926MOL0     C24939   2.461   5.529  10.292 -0.7234  0.1038 -0.9573
  926MOL0     C24940   2.378   5.611  10.307  0.6636  0.1005  0.3245
  926MOL0     C24941   3.123   5.671   9.980  0.0748  0.0113  0.2655
  926MOL0     C24942   3.149   5.758   9.873 -0.4095 -0.7408  0.1259
  926MOL0     H24943   3.289   6.178   9.565  1.4389  0.8571 -0.1937
  926MOL0     H24944   3.366   6.209   9.327 -0.9165  0.8213  0.8089
  926MOL0     H24945   3.467   6.173   9.112 -0.3202  0.8103 -2.5136
  926MOL0     H24946   3.425   6.089   8.965 -1.5588  0.5392 -0.6165
  926MOL0     H24947   3.175   6.177   8.987 -3.1032  2.7507  3.5204
  926MOL0     H24948   3.217   6.247   9.128 -4.5306 -2.1172 -0.9515
  926MOL0     H24949   3.215   6.391   8.939 -0.0878 -0.2558 -3.6024
  926MOL0     H24950   3.385   6.389   8.993 -0.7348  0.4229 -0.3829
  926MOL0     H24951   3.469   6.262   8.824 -0.1441  0.5525  0.8139
  926MOL0     H24952   3.312   6.231   8.750 -0.8918 -0.0828  0.9317
  926MOL0     H24953   3.448   6.497   8.773 -1.7554  3.0814 -2.2202
  926MOL0     H24954   3.468   6.397   8.635  2.6379  0.1945  1.5392
  926MOL0     H24955   3.203   6.394   8.608 -1.5262  2.1830 -1.5240
  926MOL0     H24956   3.197   6.538   8.708 -3.1121 -0.9637 -2.4465
  926MOL0     H24957   3.342   6.664   8.550 -1.0895  1.0433 -1.9757
  926MOL0     H24958   3.345   6.527   8.441 -1.7828 -1.9761  0.1751
  926MOL0     H24959   3.081   6.638   8.520 -0.5316 -3.3016  0.2257
  926MOL0     H24960   3.122   6.541   8.386  1.7512 -1.2727 -0.7903
  926MOL0     H24961   3.272   6.881   8.514  3.1147 -2.4036  0.0113
  926MOL0     H24962   3.238   7.146   8.253 -1.6771 -0.7396  1.4365
  926MOL0     H24963   3.368   7.122   8.383  0.7504  1.3247 -0.4387
  926MOL0     H24964   3.380   7.031   8.088 -0.4726 -2.5291  0.9993
  926MOL0     H24965   3.509   6.993   8.208  1.9839  0.5442 -3.4158
  926MOL0     H24966   3.447   7.280   8.178  1.1804  0.8338 -1.1286
  926MOL0     H24967   3.486   7.211   8.034 -2.0378  2.5617  1.2585
  926MOL0     H24968   3.697   7.303   8.167  1.9805 -0.7155  1.5057
  926MOL0     H24969   3.693   7.130   8.121 -0.1051 -0.5811  0.9949
  926MOL0     H24970   3.753   7.253   8.554 -1.0692 -2.5104  0.9459
  926MOL0     H24971   4.081   7.285   8.620  0.9560 -4.3047 -3.0070
  926MOL0     H24972   3.925   7.327   8.676  3.4883  2.9251 -1.8110
  926MOL0     H24973   4.007   7.180   8.745  2.3164  0.6407  0.0750
  926MOL0     H24974   4.414   7.192   8.623 -3.0070  0.2214 -1.0233
  926MOL0     H24975   4.636   7.138   8.700 -0.4259  0.0008  1.2196
  926MOL0     H24976   4.848   6.986   8.680  3.7079  0.3591  0.5156
  926MOL0     H24977   4.819   7.059   8.843 -0.7019 -0.4077  0.1348
  926MOL0     H24978   4.928   6.775   8.770  1.5553 -0.8303 -0.0913
  926MOL0     H24979   5.033   6.903   8.787  0.2668 -0.1652  1.0328
  926MOL0     H24980   4.908   6.902   9.052 -1.7693 -1.3376  0.3517
  926MOL0     H24981   5.062   6.827   9.009  1.0528  0.4094 -1.3695
  926MOL0     H24982   4.815   6.671   8.933  0.5877 -0.0724 -0.0522
  926MOL0     H24983   4.967   6.613   8.983 -2.7267 -2.1929 -0.0924
  926MOL0     H24984   4.776   6.578   9.130  2.0800 -1.6218 -1.4155
  926MOL0     H24985   4.779   6.739   9.183  0.1415  0.5404 -0.9158
  926MOL0     H24986   5.035   6.574   9.222  0.3358 -0.0872  0.6458
  926MOL0     H24987   4.989   6.741   9.277  0.0580 -1.3217  4.9151
  926MOL0     H24988   4.896   6.456   9.358  0.8251  0.9857 -2.6650
  926MOL0     H24989   4.793   6.595   9.399  0.8385  0.3938  0.9059
  926MOL0     H24990   4.967   6.696   9.530 -2.1025  1.3995 -2.3453
  926MOL0     H24991   5.085   6.574   9.476  1.0401  1.1602 -1.2125
  926MOL0     H24992   4.507   6.761   8.837  2.5002 -0.6125 -1.1047
  926MOL0     H24993   4.275   6.820   8.783 -0.2812  1.2987  2.2535
  926MOL0     H24994   4.002   6.892   8.328  0.0774  0.0215  0.7040
  926MOL0     H24995   3.801   6.974   8.240  3.7515  0.8253 -3.2506
  926MOL0     H24996   3.238   5.803   9.247  0.4854 -1.2417  0.5911
  926MOL0     H24997   3.183   5.773   9.471  1.0502 -1.0212 -3.1699
  926MOL0     H24998   2.882   5.977   9.906  4.3711  4.1646 -0.6002
  926MOL0     H24999   2.837   5.814  10.084  1.0307 -1.9145  2.2680
  926MOL0     H25000   2.862   5.481  10.031  1.5630  1.7853 -0.3235
  926MOL0     H25001   2.995   5.411  10.117  1.2755  0.2283  0.0150
  926MOL0     H25002   2.877   5.467  10.336 -1.9893 -1.0986  1.6747
  926MOL0     H25003   2.821   5.331  10.247 -1.8626 -0.3115  4.2202
  926MOL0     H25004   2.684   5.582  10.157  3.0332 -2.2300 -1.0047
  926MOL0     H25005   2.710   5.597  10.329 -1.6039 -0.7739  1.7055
  926MOL0     H25006   2.587   5.388  10.371 -4.0424 -0.4867 -0.2597
  926MOL0     H25007   2.545   5.356  10.211  2.8701 -1.3952  0.7318
  926MOL0     H25008   2.303   5.685  10.323  1.1455  0.6613  0.0462
  926MOL0     H25009   3.186   5.586  10.003 -0.8448 -0.1965  2.3255
  926MOL0     H25010   3.247   5.729   9.835  0.1429 -0.2454  1.1314
  927MOL0     O25011   4.671   2.969  10.834  0.4354 -0.1323  0.2946
  927MOL0     C25012   4.632   2.895  10.927  1.7325 -0.5947 -0.2027
  927MOL0     O25013   4.684   2.892  11.056  0.3577 -0.1845  0.2850
  927MOL0     C25014   4.767   2.990  11.094 -0.9663 -0.4890  0.9865
  927MOL0     C25015   4.729   3.124  11.078 -0.1749 -0.5174 -0.3100
  927MOL0     C25016   4.825   3.219  11.104 -0.2053 -1.2027  0.5220
  927MOL0     C25017   4.953   3.195  11.171 -0.0844  0.2585 -0.7666
  927MOL0     O25018   5.054   3.291  11.169  0.0067 -0.4286  0.0185
  927MOL0     C25019   5.043   3.425  11.141  1.2068 -0.4916  0.2785
  927MOL0     C25020   5.178   3.509  11.167  1.2032 -0.9191  0.6621
  927MOL0     C25021   5.155   3.660  11.144 -0.3354 -0.3024 -0.4078
  927MOL0     C25022   5.103   3.707  11.004 -0.3763 -0.2928 -0.2414
  927MOL0     C25023   5.065   3.862  10.977 -1.0884 -0.5290 -0.5272
  927MOL0     C25024   4.932   3.889  11.043  0.0970  0.5698  0.1214
  927MOL0     C25025   4.912   4.045  11.051  0.0353  0.5186  0.3695
  927MOL0     C25026   4.768   4.087  11.082  0.6290  0.0799  2.0348
  927MOL0     N25027   4.687   4.103  10.959 -0.4997 -0.0491  0.5982
  927MOL0     C25028   4.613   4.009  10.892  0.6149  0.0189 -0.7154
  927MOL0     C25029   4.547   4.082  10.799 -0.5113  0.6011  0.0551
  927MOL0     C25030   4.447   4.032  10.702 -0.4028  0.1101  0.1589
  927MOL0     C25031   4.304   3.995  10.756 -0.0368  0.2518  0.0672
  927MOL0     C25032   4.315   3.849  10.810  0.2979 -0.5975  0.1531
  927MOL0     C25033   4.177   3.788  10.847 -0.2331  0.5075 -0.0608
  927MOL0     O25034   4.137   3.844  10.967  0.3706  0.1608  0.4144
  927MOL0     C25035   4.012   3.814  11.021 -0.0562 -0.6351 -0.1800
  927MOL0     C25036   3.976   3.889  11.129  0.1657  0.7082  0.7438
  927MOL0     C25037   3.867   3.860  11.205  0.3413  0.2606 -0.3347
  927MOL0     C25038   3.873   3.917  11.340  0.3303 -0.2098 -0.6651
  927MOL0     C25039   3.761   3.768  11.161 -0.7570  0.3580 -0.6222
  927MOL0     C25040   3.637   3.729  11.237 -0.0508 -0.0841  0.1021
  927MOL0     O25041   3.557   3.635  11.184  0.0785 -0.6405 -0.5312
  927MOL0     C25042   3.445   3.612  11.256 -0.4988  0.2498  0.4497
  927MOL0     C25043   3.337   3.693  11.248  0.5406 -0.0802 -0.7188
  927MOL0     C25044   3.221   3.666  11.321  0.2595 -0.4672 -0.6640
  927MOL0     C25045   3.207   3.551  11.396 -0.1523  0.2481  0.0116
  927MOL0     O25046   3.085   3.512  11.453 -0.0367 -0.2031 -0.3022
  927MOL0     C25047   3.070   3.548  11.596  0.2876 -0.0225  0.5600
  927MOL0     C25048   2.934   3.611  11.619  0.3609  0.0283  0.3403
  927MOL0     C25049   2.925   3.735  11.532 -0.0401  1.1173  0.0269
  927MOL0     C25050   2.802   3.821  11.557  0.9584 -0.2125 -0.5968
  927MOL0     C25051   2.668   3.749  11.535 -0.7510 -0.8710  1.2259
  927MOL0     C25052   2.558   3.826  11.610 -0.3346  0.5634  0.0997
  927MOL0     C25053   2.544   3.972  11.564 -0.0180 -0.1062  0.1579
  927MOL0     C25054   2.414   4.031  11.612  0.3174  0.3364 -0.7572
  927MOL0    Cl25055   2.343   4.170  11.511  0.1486  0.1939  0.2038
  927MOL0     C25056   3.315   3.464  11.399  0.2090  0.3619 -0.6125
  927MOL0     C25057   3.434   3.491  11.333  0.6264 -0.4779  0.0620
  927MOL0     O25058   3.613   3.787  11.340  0.5397 -0.1140  0.1271
  927MOL0     C25059   3.790   3.704  11.040  0.1674 -0.7139 -0.1055
  927MOL0     C25060   3.913   3.729  10.972 -0.1304  0.5842  0.3471
  927MOL0     N25061   4.575   4.214  10.811  0.4101 -0.2216 -0.0234
  927MOL0     N25062   4.646   4.224  10.921  0.2203  1.1199 -0.6496
  927MOL0     C25063   4.984   3.050  11.193  0.6228 -0.6424 -0.9837
  927MOL0     C25064   4.894   2.958  11.142 -0.6996  1.5331  0.1353
  927MOL0     C25065   4.523   2.799  10.898 -0.2061  0.4817  0.4274
  927MOL0     C25066   4.486   2.755  10.772  0.8886  0.8648  0.0880
  927MOL0     C25067   4.376   2.659  10.760 -0.3267  0.4129  0.0813
  927MOL0     C25068   4.305   2.615  10.872 -0.4695  0.1072 -0.2440
  927MOL0     O25069   4.204   2.533  10.847  0.5660  0.2523  0.2879
  927MOL0     C25070   4.217   2.403  10.906 -0.1943  0.4728 -0.3019
  927MOL0     C25071   4.100   2.308  10.855  0.0122  0.3318  0.1060
  927MOL0     C25072   3.968   2.283  10.933 -0.0478 -0.4598 -0.1765
  927MOL0     C25073   3.849   2.381  10.886 -0.7732  0.6229  0.4336
  927MOL0     C25074   3.793   2.345  10.758  0.6967  0.3867  0.0634
  927MOL0     C25075   3.745   2.293  10.665  0.6907 -0.0296 -0.4573
  927MOL0     C25076   4.335   2.668  10.998 -0.3603  0.1975  0.8331
  927MOL0     C25077   4.448   2.748  11.009 -0.6008 -0.5432 -0.3040
  927MOL0     H25078   4.633   3.139  11.029 -1.9850 -0.4980  2.9294
  927MOL0     H25079   4.810   3.319  11.064  1.0168 -0.0152  2.8382
  927MOL0     H25080   5.018   3.419  11.034 -1.2761  0.5275  0.7507
  927MOL0     H25081   4.958   3.465  11.195  1.7804 -2.6881  3.0202
  927MOL0     H25082   5.214   3.486  11.267 -3.5745  0.3308  2.9806
  927MOL0     H25083   5.250   3.476  11.092 -0.3190 -1.6929 -0.5260
  927MOL0     H25084   5.090   3.689  11.226  0.7312 -0.6680  0.5925
  927MOL0     H25085   5.246   3.717  11.167  0.0665 -1.3472  0.7306
  927MOL0     H25086   5.188   3.675  10.943  0.8219 -0.6839  1.5610
  927MOL0     H25087   5.020   3.644  10.971 -1.5097  0.8044  0.4110
  927MOL0     H25088   5.141   3.927  11.022  0.6585 -3.1164  0.5364
  927MOL0     H25089   5.055   3.883  10.871 -1.3635  2.2576 -0.0171
  927MOL0     H25090   4.855   3.834  10.988  0.0493  3.5727 -3.1438
  927MOL0     H25091   4.944   3.854  11.146 -1.3424  2.3147  0.9344
  927MOL0     H25092   4.962   4.091  11.137 -3.0206  2.2408  1.3878
  927MOL0     H25093   4.938   4.097  10.959 -1.5460  4.8217  2.0885
  927MOL0     H25094   4.780   4.179  11.139  1.4734  2.4090 -1.6191
  927MOL0     H25095   4.726   4.027  11.164 -2.6074 -0.6704 -0.0122
  927MOL0     H25096   4.608   3.902  10.913  0.3465  0.5074  2.2073
  927MOL0     H25097   4.435   4.107  10.624 -3.7510  0.6647  1.0371
  927MOL0     H25098   4.488   3.954  10.637  0.2897  3.3571 -3.6777
  927MOL0     H25099   4.237   4.012  10.672  2.6330  2.7035 -1.7762
  927MOL0     H25100   4.278   4.054  10.844 -1.2777 -0.1013 -0.0518
  927MOL0     H25101   4.381   3.844  10.897  2.1046 -2.6770 -1.2379
  927MOL0     H25102   4.344   3.772  10.738 -1.6848 -0.4907 -0.8289
  927MOL0     H25103   4.185   3.682  10.876 -0.1513  0.3051 -0.8044
  927MOL0     H25104   4.104   3.796  10.767 -0.0879 -1.3936 -0.4358
  927MOL0     H25105   4.049   3.961  11.162  2.9647 -0.6662 -1.9248
  927MOL0     H25106   3.896   3.836  11.411  3.6878 -0.5196 -1.9181
  927MOL0     H25107   3.953   3.992  11.345  2.8428 -2.7884  2.0565
  927MOL0     H25108   3.773   3.959  11.347  0.3307 -0.3777  0.6125
  927MOL0     H25109   3.350   3.785  11.194  1.8068  1.6725  2.3058
  927MOL0     H25110   3.144   3.741  11.329 -0.1289 -1.0765  2.8345
  927MOL0     H25111   3.087   3.455  11.651 -1.7417 -2.8993 -3.2247
  927MOL0     H25112   3.148   3.621  11.622  0.5574  0.4234 -1.3217
  927MOL0     H25113   2.870   3.529  11.584  1.3917 -0.1730 -1.1587
  927MOL0     H25114   2.914   3.638  11.723 -0.7489 -0.0452  0.1572
  927MOL0     H25115   2.920   3.704  11.427  2.7286 -2.2598  0.7115
  927MOL0     H25116   3.014   3.795  11.554  1.0734 -0.3743 -0.2549
  927MOL0     H25117   2.804   3.862  11.658 -1.6372  1.2035 -1.0401
  927MOL0     H25118   2.798   3.907  11.491 -3.1503 -0.3033 -0.6903
  927MOL0     H25119   2.668   3.648  11.579  1.6309 -0.8205  1.4508
  927MOL0     H25120   2.651   3.739  11.427  4.2255  3.7213 -0.4108
  927MOL0     H25121   2.468   3.773  11.579 -0.8239  1.4194  0.0231
  927MOL0     H25122   2.572   3.800  11.715 -2.8528 -4.8585 -0.5699
  927MOL0     H25123   2.560   3.989  11.457  2.8625  1.5728  0.7510
  927MOL0     H25124   2.617   4.042  11.606 -0.0517 -0.0131  0.0659
  927MOL0     H25125   2.432   4.058  11.717  1.4694 -1.2400 -0.5247
  927MOL0     H25126   2.336   3.954  11.607 -0.6404  1.2817 -0.8067
  927MOL0     H25127   3.321   3.375  11.461 -0.0609  0.5857 -0.2630
  927MOL0     H25128   3.515   3.419  11.328  1.4957  0.5622 -2.5313
  927MOL0     H25129   3.720   3.630  11.002 -0.0099 -0.4106 -0.3862
  927MOL0     H25130   3.938   3.694  10.872 -0.1440  1.6423 -0.0393
  927MOL0     H25131   5.080   3.025  11.236  1.1953 -1.0114 -2.4333
  927MOL0     H25132   4.932   2.857  11.143 -1.6673  1.1583  1.5544
  927MOL0     H25133   4.554   2.782  10.691 -0.2568  1.1150 -0.8043
  927MOL0     H25134   4.341   2.627  10.662  1.7249  0.0151 -0.5588
  927MOL0     H25135   4.307   2.347  10.879 -0.5873 -0.8876  1.0651
  927MOL0     H25136   4.230   2.408  11.015 -0.4608  2.2078 -0.3172
  927MOL0     H25137   4.140   2.207  10.848 -1.8305 -0.5080  1.0264
  927MOL0     H25138   4.074   2.339  10.753 -0.3033 -1.9830 -0.5652
  927MOL0     H25139   3.986   2.301  11.039  0.1970  0.2498 -0.3289
  927MOL0     H25140   3.956   2.176  10.915  3.0954 -0.5388 -2.9605
  927MOL0     H25141   3.885   2.484  10.882  0.3981  0.2695  1.5660
  927MOL0     H25142   3.768   2.372  10.959 -0.1590 -0.1756  1.0385
  927MOL0     H25143   3.692   2.237  10.591 -0.7223  0.2770  0.2880
  927MOL0     H25144   4.270   2.626  11.073 -1.8184 -2.8698 -1.9138
  927MOL0     H25145   4.481   2.777  11.108  1.3698  0.3820 -1.1830
  928MOL0     O25146   5.631   1.794   2.461 -0.2888  0.2291  0.1319
  928MOL0     C25147   5.747   1.786   2.498  0.6882  0.8787  0.6327
  928MOL0     O25148   5.791   1.722   2.609  0.5189 -0.1279  0.5232
  928MOL0     C25149   5.693   1.663   2.689  0.5522 -0.1801  0.7817
  928MOL0     C25150   5.724   1.538   2.738 -0.1521 -0.1242  0.2782
  928MOL0     C25151   5.645   1.475   2.830 -0.3016  0.3755  0.4957
  928MOL0     C25152   5.531   1.535   2.876  0.6328  0.2028 -0.4313
  928MOL0     O25153   5.452   1.485   2.981 -0.1363 -0.3843  0.4150
  928MOL0     C25154   5.441   1.559   3.105 -0.1676  0.9692 -0.3579
  928MOL0     C25155   5.311   1.503   3.178 -0.6323  0.5207  0.7575
  928MOL0     C25156   5.298   1.349   3.209 -0.1172  0.0369  1.0563
  928MOL0     C25157   5.243   1.277   3.091  0.5386 -0.8085 -0.3261
  928MOL0     C25158   5.248   1.122   3.120 -0.9168 -0.2743 -0.1563
  928MOL0     C25159   5.271   1.035   2.997  0.0136 -0.5265  0.6136
  928MOL0     C25160   5.319   0.897   3.048 -0.1668  0.0565 -0.7602
  928MOL0     C25161   5.282   0.793   2.941  0.5679  0.3859  0.1237
  928MOL0     N25162   5.153   0.730   2.986  0.2387 -0.2525  0.8470
  928MOL0     C25163   5.029   0.790   2.965  0.1420  0.5050  1.2979
  928MOL0     C25164   4.935   0.707   3.016  0.0335 -0.5722 -0.0326
  928MOL0     C25165   4.789   0.728   3.007  0.1984  1.0014 -0.7157
  928MOL0     C25166   4.716   0.667   3.137  0.4232  0.2653  0.2675
  928MOL0     C25167   4.568   0.706   3.128  0.1471 -0.1180  0.5472
  928MOL0     C25168   4.489   0.642   3.015 -0.2172 -0.3736  0.6912
  928MOL0     O25169   4.487   0.509   3.048  0.2572 -0.3647  0.3912
  928MOL0     C25170   4.384   0.429   3.011  0.8093  0.1452 -1.4275
  928MOL0     C25171   4.273   0.475   2.935 -0.8934  0.0757 -0.0839
  928MOL0     C25172   4.177   0.383   2.879  0.3119 -0.1861 -0.2996
  928MOL0     C25173   4.067   0.433   2.791  0.2789  0.3264  0.4494
  928MOL0     C25174   4.182   0.242   2.914  1.0121 -0.0187  0.7058
  928MOL0     C25175   4.081   0.140   2.874  0.0829 -0.2813 -0.3046
  928MOL0     O25176   4.028   0.071   2.974  0.6560  0.1976 -0.3112
  928MOL0     C25177   3.919  -0.012   2.956 -1.0317  0.1048 -0.3690
  928MOL0     C25178   3.819  -0.001   3.051  0.1467 -0.7571 -0.9383
  928MOL0     C25179   3.709  -0.092   3.042  0.5060 -1.4739 -0.6331
  928MOL0     C25180   3.703  -0.198   2.958  0.5930  0.6352  0.8542
  928MOL0     O25181   3.592  -0.284   2.969 -0.5833 -0.2962  0.3305
  928MOL0     C25182   3.548  -0.368   2.853  0.1436 -0.0855 -0.5980
  928MOL0     C25183   3.399  -0.388   2.871  0.2991 -0.6526 -0.6666
  928MOL0     C25184   3.370  -0.498   2.969 -1.2891  1.4061 -0.2678
  928MOL0     C25185   3.248  -0.474   3.049  0.3221  0.1202  0.0933
  928MOL0     C25186   3.242  -0.544   3.189 -0.6325  0.7076  0.5781
  928MOL0     C25187   3.270  -0.697   3.175 -0.0426  1.4990  0.8443
  928MOL0     C25188   3.209  -0.775   3.302  0.0889  0.2910  0.5449
  928MOL0     C25189   3.209  -0.928   3.278 -1.0958 -0.0534  0.8180
  928MOL0    Cl25190   3.094  -1.001   3.151 -0.2219 -0.8440  0.3519
  928MOL0     C25191   3.796  -0.205   2.853 -0.3650 -0.4439  0.3364
  928MOL0     C25192   3.908  -0.114   2.866 -0.0442  0.9538  1.2580
  928MOL0     O25193   4.052   0.129   2.757  0.1714  0.4001  1.1352
  928MOL0     C25194   4.283   0.206   3.000  0.6888  0.4052  0.5974
  928MOL0     C25195   4.384   0.294   3.049 -0.4995  0.2861  0.8126
  928MOL0     N25196   5.002   0.592   3.064  1.2633  0.1319 -0.0870
  928MOL0     N25197   5.132   0.607   3.039 -0.0284  0.4208  0.3754
  928MOL0     C25198   5.487   1.657   2.820 -0.5448 -0.4516  0.9019
  928MOL0     C25199   5.571   1.721   2.725  0.9467 -0.2390 -0.0105
  928MOL0     C25200   5.859   1.853   2.418 -0.3646  0.8179 -1.0133
  928MOL0     C25201   5.982   1.857   2.480 -0.6001 -0.3505 -0.5168
  928MOL0     C25202   6.096   1.907   2.402  0.5344 -0.5626  0.4208
  928MOL0     C25203   6.087   1.945   2.267  1.1558  1.3996 -0.1876
  928MOL0     O25204   6.196   1.980   2.197  0.4323 -0.4186 -0.2064
  928MOL0     C25205   6.182   2.041   2.063  0.2100  0.0474 -0.3260
  928MOL0     C25206   6.326   2.074   2.010 -0.1383  0.7314 -0.5261
  928MOL0     C25207   6.354   2.054   1.865 -0.6201 -0.0826 -0.1942
  928MOL0     C25208   6.338   1.908   1.818  0.7486  0.3996  0.8011
  928MOL0     C25209   6.464   1.837   1.840 -1.4426  0.9366 -1.4248
  928MOL0     C25210   6.565   1.769   1.857 -0.0168  0.2342  0.2221
  928MOL0     C25211   5.960   1.927   2.202  0.7226 -0.7425 -0.7840
  928MOL0     C25212   5.848   1.885   2.278 -0.6669 -0.2340  0.1191
  928MOL0     H25213   5.821   1.496   2.714  1.4730  2.8196  1.2765
  928MOL0     H25214   5.675   1.376   2.861  0.7531  0.7197  0.6280
  928MOL0     H25215   5.527   1.525   3.164  0.4874 -0.0194 -1.8051
  928MOL0     H25216   5.428   1.666   3.088 -0.6542  1.2817  1.6758
  928MOL0     H25217   5.302   1.552   3.275  0.3466  0.0477  1.1057
  928MOL0     H25218   5.226   1.533   3.117 -1.0969  0.7836  1.5164
  928MOL0     H25219   5.400   1.320   3.233  1.0519  0.7090 -2.5391
  928MOL0     H25220   5.251   1.322   3.304  1.8010 -0.6650  1.8449
  928MOL0     H25221   5.146   1.314   3.056 -0.9771 -2.7727  1.5488
  928MOL0     H25222   5.312   1.308   3.011  0.9179  3.6001  1.4322
  928MOL0     H25223   5.323   1.092   3.194 -1.5451  0.8279  0.9526
  928MOL0     H25224   5.153   1.095   3.169 -2.7759  0.9803 -2.8239
  928MOL0     H25225   5.176   1.041   2.944  0.4140  0.1674 -0.0341
  928MOL0     H25226   5.341   1.081   2.927 -1.2941  0.0900 -0.3280
  928MOL0     H25227   5.428   0.898   3.061 -0.0694 -1.1520 -1.3230
  928MOL0     H25228   5.279   0.869   3.146  2.7704  0.5683  0.7103
  928MOL0     H25229   5.361   0.717   2.939  1.7708  1.5198  2.1417
  928MOL0     H25230   5.269   0.841   2.843 -0.8586 -0.9970 -0.4181
  928MOL0     H25231   5.015   0.871   2.895  3.1043  3.0800  3.4250
  928MOL0     H25232   4.772   0.836   3.005 -1.1119  0.9112  1.8124
  928MOL0     H25233   4.742   0.693   2.914 -0.8139 -0.2492  0.2289
  928MOL0     H25234   4.751   0.713   3.229 -2.1930  0.6866  1.1370
  928MOL0     H25235   4.731   0.559   3.140 -0.3014  0.0133 -2.2854
  928MOL0     H25236   4.565   0.815   3.121 -2.8394  0.1728  3.6944
  928MOL0     H25237   4.522   0.684   3.225 -0.3347 -2.0963 -0.0705
  928MOL0     H25238   4.529   0.657   2.914 -1.1961 -3.2629 -0.2210
  928MOL0     H25239   4.388   0.683   3.031 -1.8980 -4.2279  1.2054
  928MOL0     H25240   4.263   0.579   2.905 -1.0686 -0.0087 -0.3207
  928MOL0     H25241   3.976   0.403   2.843  0.4483 -1.0111  0.0278
  928MOL0     H25242   4.088   0.539   2.778 -0.7996  0.6496  1.2483
  928MOL0     H25243   4.073   0.388   2.691 -0.6596 -0.5170  0.7562
  928MOL0     H25244   3.809   0.082   3.121  1.6287 -0.7327 -0.7224
  928MOL0     H25245   3.632  -0.073   3.116  1.4804  2.5107 -0.4432
  928MOL0     H25246   3.560  -0.321   2.755 -1.2777  3.4827  0.7720
  928MOL0     H25247   3.592  -0.468   2.861  0.6145 -0.0149 -2.0117
  928MOL0     H25248   3.365  -0.295   2.917  2.4554 -0.2540  0.2788
  928MOL0     H25249   3.356  -0.422   2.776  0.5798 -1.5528 -0.4735
  928MOL0     H25250   3.436  -0.495   3.057 -0.7375  1.5582 -0.6838
  928MOL0     H25251   3.379  -0.602   2.937  2.2622  1.6819 -0.6262
  928MOL0     H25252   3.244  -0.368   3.072  3.0192  0.1532  0.7222
  928MOL0     H25253   3.162  -0.513   2.993 -0.6366 -0.7445  2.0575
  928MOL0     H25254   3.142  -0.533   3.233 -1.2967 -2.9879  0.2964
  928MOL0     H25255   3.324  -0.512   3.254 -0.7972 -3.2930  3.1414
  928MOL0     H25256   3.234  -0.741   3.081 -0.9774  2.2893  0.8184
  928MOL0     H25257   3.378  -0.714   3.178 -0.3091 -1.1345 -0.9141
  928MOL0     H25258   3.105  -0.745   3.309 -0.9538 -2.6931 -0.5733
  928MOL0     H25259   3.265  -0.750   3.392  0.4291 -1.6816  0.9396
  928MOL0     H25260   3.184  -0.970   3.376 -0.1906 -3.2127 -0.1779
  928MOL0     H25261   3.305  -0.974   3.253 -0.9160  0.0730  1.2692
  928MOL0     H25262   3.779  -0.277   2.773 -2.4228 -0.9296  1.1650
  928MOL0     H25263   3.991  -0.144   2.803  0.2778 -2.1347  2.9398
  928MOL0     H25264   4.291   0.100   3.023  0.8643  0.5061  0.9962
  928MOL0     H25265   4.472   0.254   3.099 -0.8162  0.4962  1.5527
  928MOL0     H25266   5.386   1.696   2.834 -2.0884 -2.6992 -2.6039
  928MOL0     H25267   5.553   1.821   2.687 -0.9104 -0.1388  1.0432
  928MOL0     H25268   5.990   1.848   2.588  2.7038 -1.0867 -0.7278
  928MOL0     H25269   6.187   1.936   2.454  0.8644 -0.4192 -0.2222
  928MOL0     H25270   6.124   1.980   1.994 -2.3554  0.1144  1.6109
  928MOL0     H25271   6.129   2.137   2.062  1.7113  1.0168 -3.8513
  928MOL0     H25272   6.405   2.016   2.058 -0.7335  0.7916  0.5862
  928MOL0     H25273   6.352   2.175   2.041  1.8296 -0.1167  0.8072
  928MOL0     H25274   6.457   2.081   1.841 -0.1924 -0.6381  0.9533
  928MOL0     H25275   6.287   2.121   1.809 -0.3857 -1.1175 -1.7754
  928MOL0     H25276   6.292   1.898   1.719 -1.3344 -3.4501  1.9596
  928MOL0     H25277   6.257   1.860   1.873  0.8281  0.1281  0.6847
  928MOL0     H25278   6.651   1.707   1.872 -0.7499 -1.9484 -3.2471
  928MOL0     H25279   5.948   1.941   2.095  2.2039 -1.8321 -1.1309
  928MOL0     H25280   5.746   1.888   2.240 -1.3540 -2.7728  1.5699
  929MOL0     O25281   5.087   9.481   9.076 -0.0841  0.3478  0.4469
  929MOL0     C25282   5.184   9.464   9.151  0.0138 -0.2466  0.4550
  929MOL0     O25283   5.319   9.439   9.115  1.4521  0.1703 -0.0775
  929MOL0     C25284   5.359   9.427   8.989 -1.0170  0.6444  0.0404
  929MOL0     C25285   5.475   9.343   8.967  0.5326 -0.2365  0.1704
  929MOL0     C25286   5.532   9.334   8.850 -0.7841  0.1428  1.0362
  929MOL0     C25287   5.488   9.405   8.741  0.2617 -0.2171  1.1863
  929MOL0     O25288   5.552   9.372   8.626 -0.0785  0.6178  0.5073
  929MOL0     C25289   5.498   9.441   8.507 -0.2206  0.1330  0.0033
  929MOL0     C25290   5.559   9.384   8.380  0.8765  0.5129 -0.4975
  929MOL0     C25291   5.538   9.480   8.267  0.0569 -0.1966  0.1214
  929MOL0     C25292   5.577   9.431   8.128 -0.5372 -0.0170  0.2797
  929MOL0     C25293   5.560   9.545   8.028 -0.1319 -0.8539 -0.0490
  929MOL0     C25294   5.651   9.534   7.896  0.2065 -1.0029  0.2024
  929MOL0     C25295   5.784   9.608   7.919  0.1071 -0.2966  0.7968
  929MOL0     C25296   5.896   9.601   7.808  0.7134  0.0676 -0.1642
  929MOL0     N25297   5.862   9.658   7.678 -0.0919 -0.4478  0.1924
  929MOL0     C25298   5.864   9.789   7.639 -0.0331 -0.1021 -0.8049
  929MOL0     C25299   5.816   9.788   7.512  0.0857  0.4902 -0.1085
  929MOL0     C25300   5.796   9.904   7.420  0.6994  0.5332 -0.1046
  929MOL0     C25301   5.648   9.955   7.437  0.9201 -0.5222  0.7474
  929MOL0     C25302   5.634  10.106   7.434  0.1273 -1.5902  0.0511
  929MOL0     C25303   5.492  10.151   7.434 -0.7667 -0.4322  0.7274
  929MOL0     O25304   5.474  10.280   7.392 -0.1056 -0.9810  0.3996
  929MOL0     C25305   5.508  10.385   7.480  0.3750  1.4601 -0.8640
  929MOL0     C25306   5.496  10.367   7.623  0.1221  0.0917  0.5986
  929MOL0     C25307   5.527  10.472   7.712  1.2310  0.1506  0.0562
  929MOL0     C25308   5.535  10.444   7.855 -0.3035 -0.4748 -0.3826
  929MOL0     C25309   5.569  10.595   7.656 -0.5052  0.3671  0.1361
  929MOL0     C25310   5.584  10.710   7.747 -0.6158 -1.2031 -0.8370
  929MOL0     O25311   5.660  10.804   7.689  0.3991  0.0999  0.6778
  929MOL0     C25312   5.652  10.925   7.737 -0.0511 -1.1321 -0.7023
  929MOL0     C25313   5.571  11.024   7.662 -0.1521 -0.0793 -0.0680
  929MOL0     C25314   5.563  11.161   7.691  0.0790  0.4836  0.5656
  929MOL0     C25315   5.641  11.213   7.795 -0.1720 -1.4146  1.1885
  929MOL0     O25316   5.644  11.351   7.819  0.7873 -0.9809 -0.3139
  929MOL0     C25317   5.770  11.412   7.846 -0.0739  0.6978 -0.2637
  929MOL0     C25318   5.753  11.537   7.929  1.1420 -1.0572  0.0756
  929MOL0     C25319   5.892  11.624   7.928 -1.2239  0.2380 -0.5947
  929MOL0     C25320   5.906  11.723   8.051 -0.5290  1.2477  0.1122
  929MOL0     C25321   5.955  11.629   8.173  0.1420 -0.6418 -0.2803
  929MOL0     C25322   6.110  11.601   8.175  1.1423  0.7967  0.2654
  929MOL0     C25323   6.148  11.524   8.310 -0.5445  0.2483  0.6616
  929MOL0     C25324   6.288  11.481   8.319 -0.8379  0.7183 -0.0961
  929MOL0    Cl25325   6.418  11.608   8.283 -0.3438  0.3384 -0.0283
  929MOL0     C25326   5.726  11.122   7.866 -0.2968 -0.7805  0.3128
  929MOL0     C25327   5.736  10.980   7.833 -0.1622 -0.4241  0.4539
  929MOL0     O25328   5.504  10.730   7.841  0.1158 -0.2513  0.5812
  929MOL0     C25329   5.587  10.601   7.515  0.2442 -1.1071 -0.9537
  929MOL0     C25330   5.557  10.502   7.432  0.6080  0.4160  0.5174
  929MOL0     N25331   5.787   9.653   7.482 -0.0724  0.0835  0.9485
  929MOL0     N25332   5.818   9.580   7.573 -0.2690  1.2153 -0.4048
  929MOL0     C25333   5.384   9.495   8.757 -1.2426  0.5942 -0.2055
  929MOL0     C25334   5.326   9.512   8.882  0.6224  0.0526 -0.2566
  929MOL0     C25335   5.152   9.448   9.292 -0.5206 -0.1090  0.9382
  929MOL0     C25336   5.261   9.415   9.382 -0.3949  0.2193  0.4439
  929MOL0     C25337   5.230   9.408   9.519  0.3568 -0.5370 -0.4042
  929MOL0     C25338   5.095   9.407   9.566 -0.0781  0.5955 -0.5776
  929MOL0     O25339   5.075   9.373   9.699  0.7422 -0.1125 -0.2498
  929MOL0     C25340   4.988   9.259   9.714  0.0363  0.2178  0.6886
  929MOL0     C25341   4.968   9.236   9.858  0.6185 -0.0792  0.4607
  929MOL0     C25342   5.088   9.192   9.934 -0.4784 -0.2350 -0.7570
  929MOL0     C25343   5.131   9.049   9.908  0.6589  0.4008  0.0122
  929MOL0     C25344   5.266   9.022   9.959  0.6814 -0.4225 -0.5913
  929MOL0     C25345   5.380   9.001  10.000 -0.2149  0.2722 -0.0479
  929MOL0     C25346   4.996   9.449   9.475 -0.3392 -0.1025  0.2949
  929MOL0     C25347   5.022   9.460   9.341 -0.5695  0.0193 -0.5727
  929MOL0     H25348   5.519   9.293   9.053  0.6448  2.8986  2.1025
  929MOL0     H25349   5.623   9.277   8.835 -1.9005 -1.0557 -1.8455
  929MOL0     H25350   5.390   9.419   8.500 -0.5345  0.5266  2.6837
  929MOL0     H25351   5.508   9.550   8.509  0.7653  0.0561 -0.3253
  929MOL0     H25352   5.666   9.365   8.387  0.2475 -4.0688 -0.3541
  929MOL0     H25353   5.511   9.290   8.351  2.6784 -0.6126  0.0624
  929MOL0     H25354   5.431   9.501   8.253 -0.1987 -0.3228  1.6818
  929MOL0     H25355   5.592   9.573   8.286  1.1114 -0.0804 -2.8538
  929MOL0     H25356   5.681   9.396   8.136 -0.9305 -0.8737  1.8183
  929MOL0     H25357   5.529   9.337   8.101  0.4897 -0.4264 -0.1645
  929MOL0     H25358   5.453   9.549   8.002 -0.2239 -3.1989 -0.2351
  929MOL0     H25359   5.588   9.644   8.066  0.1613 -0.6429 -0.7798
  929MOL0     H25360   5.664   9.430   7.867 -3.5977 -1.3150 -0.9745
  929MOL0     H25361   5.592   9.580   7.815 -0.8015 -2.5145  0.0322
  929MOL0     H25362   5.788   9.712   7.951 -1.5507 -0.3119  1.1198
  929MOL0     H25363   5.827   9.570   8.012  1.6863 -0.6230 -0.0232
  929MOL0     H25364   5.928   9.497   7.798  2.4287  0.4321  1.0877
  929MOL0     H25365   5.994   9.647   7.823  1.1683  0.3486 -3.2393
  929MOL0     H25366   5.905   9.868   7.701 -0.5549 -1.5146  1.4500
  929MOL0     H25367   5.866   9.984   7.447  2.5104 -1.2199  0.6549
  929MOL0     H25368   5.819   9.861   7.322  0.1392  0.6729 -0.3022
  929MOL0     H25369   5.588   9.929   7.524 -2.8720 -0.2664 -1.6028
  929MOL0     H25370   5.596   9.919   7.349  0.2900  4.1617 -1.0607
  929MOL0     H25371   5.693  10.148   7.352 -0.8924 -0.9883 -0.3931
  929MOL0     H25372   5.670  10.137   7.533 -0.1701  1.4041 -0.6895
  929MOL0     H25373   5.433  10.123   7.521  0.1651 -0.8842  1.2240
  929MOL0     H25374   5.451  10.102   7.345  2.8155 -1.1821 -0.6830
  929MOL0     H25375   5.457  10.277   7.670 -2.4741  0.5521 -0.4566
  929MOL0     H25376   5.639  10.450   7.889 -1.5891  0.7138  4.0129
  929MOL0     H25377   5.472  10.516   7.909 -2.8417 -1.6041 -1.6723
  929MOL0     H25378   5.500  10.350   7.899  0.1427 -1.7346 -2.5851
  929MOL0     H25379   5.497  10.984   7.594  0.2410  0.8726 -1.0954
  929MOL0     H25380   5.512  11.233   7.628 -0.5303 -0.5511 -0.1493
  929MOL0     H25381   5.836  11.343   7.900  1.3051 -0.9932 -3.7961
  929MOL0     H25382   5.813  11.430   7.747 -3.3277  0.8748 -1.7580
  929MOL0     H25383   5.687  11.608   7.877  2.7238  0.8787  0.5826
  929MOL0     H25384   5.703  11.509   8.022 -0.4985  2.2815  0.3324
  929MOL0     H25385   5.895  11.683   7.836  1.5652 -1.4655 -1.7181
  929MOL0     H25386   5.971  11.548   7.931 -0.9222  0.5715  0.1322
  929MOL0     H25387   5.971  11.809   8.035 -0.9998  1.1765 -2.6447
  929MOL0     H25388   5.806  11.765   8.068 -0.0921  2.3168  0.0862
  929MOL0     H25389   5.904  11.532   8.173 -1.8620  0.3621 -0.2701
  929MOL0     H25390   5.929  11.672   8.271 -2.1699 -1.1524 -0.6225
  929MOL0     H25391   6.144  11.541   8.090  0.1053 -2.6198  2.0607
  929MOL0     H25392   6.158  11.699   8.177 -1.7570  2.2925  0.1800
  929MOL0     H25393   6.082  11.442   8.340 -1.3817  1.0228  0.9848
  929MOL0     H25394   6.141  11.592   8.395  2.2843  1.2879  0.1952
  929MOL0     H25395   6.301  11.402   8.244 -0.7846  3.0267 -2.6760
  929MOL0     H25396   6.297  11.438   8.419  0.0706  0.2102 -0.3817
  929MOL0     H25397   5.780  11.156   7.954 -1.9821 -1.9313  1.8737
  929MOL0     H25398   5.790  10.918   7.903 -0.0531 -1.2815 -0.3730
  929MOL0     H25399   5.648  10.680   7.473  2.6347 -2.4766 -0.2429
  929MOL0     H25400   5.575  10.507   7.325  1.6719 -0.6464  0.6273
  929MOL0     H25401   5.357   9.561   8.675  0.5381  0.8280 -0.6499
  929MOL0     H25402   5.247   9.586   8.895  0.2865 -0.4358  0.6212
  929MOL0     H25403   5.363   9.406   9.344 -0.2069 -0.7530  1.1264
  929MOL0     H25404   5.320   9.398   9.579  0.0475  3.4639  1.0263
  929MOL0     H25405   4.900   9.278   9.653  0.1562  0.5572  0.6192
  929MOL0     H25406   5.051   9.175   9.681 -0.1070 -0.7851  2.8204
  929MOL0     H25407   4.898   9.152   9.865 -0.8190  1.1115  0.8637
  929MOL0     H25408   4.917   9.324   9.901  2.5112  1.7972 -0.9559
  929MOL0     H25409   5.070   9.206  10.041 -0.6824  2.1649 -1.0570
  929MOL0     H25410   5.162   9.271   9.920  1.9398 -1.7003  2.3183
  929MOL0     H25411   5.154   9.037   9.802  1.0424  2.1790 -0.1452
  929MOL0     H25412   5.054   8.983   9.949 -1.8066  1.5155 -2.4690
  929MOL0     H25413   5.482   8.977  10.024 -0.5163  1.2699  2.5483
  929MOL0     H25414   4.892   9.458   9.503 -0.5695 -0.8583 -0.3073
  929MOL0     H25415   4.936   9.479   9.278 -1.0650  3.4165  0.8923
  930MOL0     O25416   7.925   0.080   7.288  0.1655  0.0902  0.6763
  930MOL0     C25417   7.927  -0.005   7.203  0.0801  0.5219  0.4146
  930MOL0     O25418   8.036  -0.029   7.122  0.5306 -0.2510 -0.8773
  930MOL0     C25419   8.139   0.057   7.150  0.8195  0.5391  0.3612
  930MOL0     C25420   8.133   0.182   7.096 -0.0113 -0.3115  0.4810
  930MOL0     C25421   8.241   0.274   7.116 -0.2558 -0.4429 -0.1971
  930MOL0     C25422   8.346   0.236   7.208  0.7299 -1.3552 -0.8257
  930MOL0     O25423   8.430   0.329   7.265 -0.3656 -0.5610 -0.2457
  930MOL0     C25424   8.370   0.420   7.366 -0.2638 -0.4170  0.6713
  930MOL0     C25425   8.370   0.563   7.314  0.9290  0.1310 -0.5087
  930MOL0     C25426   8.277   0.646   7.410 -0.1850  0.3390 -0.4135
  930MOL0     C25427   8.308   0.797   7.384 -0.6283 -0.1130  0.0103
  930MOL0     C25428   8.199   0.889   7.439  0.5618  0.4215 -0.4134
  930MOL0     C25429   8.056   0.868   7.375  0.1722  0.0952 -0.3475
  930MOL0     C25430   7.947   0.941   7.447 -0.1110 -0.5822 -0.5255
  930MOL0     C25431   7.811   0.936   7.382 -0.1101  0.0933 -0.8095
  930MOL0     N25432   7.709   0.999   7.461  0.5107 -0.7911  0.0940
  930MOL0     C25433   7.699   1.030   7.596  0.3229 -0.8620 -0.4977
  930MOL0     C25434   7.608   1.128   7.626 -0.5757  0.5159  0.1066
  930MOL0     C25435   7.555   1.169   7.754 -0.4701 -0.2449  0.3525
  930MOL0     C25436   7.662   1.262   7.821 -0.2561  0.7261 -0.8566
  930MOL0     C25437   7.770   1.188   7.904  0.1437  0.0342 -0.0211
  930MOL0     C25438   7.832   1.289   8.003  0.0357 -0.6615  0.0748
  930MOL0     O25439   7.745   1.359   8.097  0.9466 -0.1226  1.1267
  930MOL0     C25440   7.807   1.448   8.187 -0.4858 -0.6361 -0.2335
  930MOL0     C25441   7.925   1.513   8.156 -0.1703 -0.9598  0.7001
  930MOL0     C25442   7.994   1.599   8.235 -0.0638 -0.2236 -0.6359
  930MOL0     C25443   8.129   1.652   8.197 -0.1054  0.2601 -0.0262
  930MOL0     C25444   7.931   1.633   8.356  0.7940 -1.5807 -0.4266
  930MOL0     C25445   7.981   1.742   8.452 -0.3418  0.4651 -0.1272
  930MOL0     O25446   7.954   1.719   8.583  0.1940 -0.5810 -1.1128
  930MOL0     C25447   7.994   1.814   8.680 -0.3020  0.7078  0.6423
  930MOL0     C25448   8.109   1.794   8.760  0.2570 -0.6313 -0.6282
  930MOL0     C25449   8.149   1.891   8.843 -0.5197 -0.5746  0.9584
  930MOL0     C25450   8.092   2.021   8.858 -0.3913  0.2617  0.1235
  930MOL0     O25451   8.147   2.120   8.939 -0.9450 -0.3705  0.1999
  930MOL0     C25452   8.099   2.253   8.951 -0.3716 -0.1634 -0.6047
  930MOL0     C25453   8.088   2.276   9.099  0.2481 -0.5622 -0.0453
  930MOL0     C25454   7.960   2.206   9.152 -0.5248  0.6166  0.0857
  930MOL0     C25455   7.968   2.178   9.305  0.6625 -0.6450 -0.4957
  930MOL0     C25456   7.850   2.096   9.354 -0.3266  0.4455 -0.0673
  930MOL0     C25457   7.728   2.185   9.349  0.5612 -0.7674  0.5776
  930MOL0     C25458   7.619   2.116   9.421  0.2751  0.1494  0.8201
  930MOL0     C25459   7.499   2.209   9.454  1.1358 -0.4690 -1.4206
  930MOL0    Cl25460   7.513   2.269   9.632  0.0772  0.4529 -0.3947
  930MOL0     C25461   7.961   2.034   8.795  0.6202 -0.0862 -0.2185
  930MOL0     C25462   7.920   1.934   8.699 -0.2454 -0.1603  0.0880
  930MOL0     O25463   8.051   1.834   8.404 -0.5395  0.0879 -0.3957
  930MOL0     C25464   7.805   1.577   8.390 -0.3558 -0.0541 -0.3319
  930MOL0     C25465   7.741   1.488   8.300  0.3606  0.8044  0.2770
  930MOL0     N25466   7.559   1.152   7.501 -0.4038 -0.2739  0.9190
  930MOL0     N25467   7.625   1.091   7.410  1.0133  0.4600  0.0619
  930MOL0     C25468   8.342   0.110   7.279 -0.3990 -0.0597  0.1986
  930MOL0     C25469   8.238   0.022   7.240 -0.1283 -0.1869 -0.0871
  930MOL0     C25470   7.808  -0.091   7.196 -0.6775  0.4556  0.2418
  930MOL0     C25471   7.819  -0.220   7.140  0.4285 -0.0126  0.5604
  930MOL0     C25472   7.716  -0.309   7.155  0.3094 -0.2498  0.0557
  930MOL0     C25473   7.596  -0.270   7.217  0.6296 -0.4042 -0.4252
  930MOL0     O25474   7.500  -0.363   7.210  0.4115  0.6027  0.5044
  930MOL0     C25475   7.366  -0.319   7.240 -0.2919 -0.3472  0.7531
  930MOL0     C25476   7.264  -0.432   7.198 -0.8052 -1.3316  0.0456
  930MOL0     C25477   7.288  -0.559   7.277 -0.5195  0.5593 -0.1366
  930MOL0     C25478   7.290  -0.533   7.429 -0.5712  0.2149 -0.2592
  930MOL0     C25479   7.173  -0.474   7.488 -0.5069 -0.4575 -0.7662
  930MOL0     C25480   7.077  -0.429   7.546  0.5378  0.2794 -0.9496
  930MOL0     C25481   7.584  -0.136   7.266 -0.5399 -0.2827 -0.5838
  930MOL0     C25482   7.696  -0.053   7.264 -0.2101 -1.1701  0.1290
  930MOL0     H25483   8.042   0.196   7.038 -1.4618 -4.0019  1.5664
  930MOL0     H25484   8.223   0.379   7.094 -4.8900 -0.9870 -0.0809
  930MOL0     H25485   8.267   0.384   7.374  0.5200 -2.6795  1.3609
  930MOL0     H25486   8.416   0.406   7.464  0.3342  0.4244  0.5215
  930MOL0     H25487   8.464   0.617   7.304 -0.5970  3.2504  0.6949
  930MOL0     H25488   8.323   0.575   7.216 -1.8885 -0.3469  0.6659
  930MOL0     H25489   8.171   0.625   7.394 -1.1887  5.7192 -2.9875
  930MOL0     H25490   8.311   0.626   7.512  1.3094 -0.0487 -0.9655
  930MOL0     H25491   8.397   0.829   7.440 -1.0798 -1.5732  1.6386
  930MOL0     H25492   8.313   0.813   7.276 -1.7385 -2.5267 -0.4500
  930MOL0     H25493   8.179   0.876   7.546 -2.5820  0.2986 -0.9210
  930MOL0     H25494   8.227   0.995   7.437 -1.0707  0.8956 -0.1590
  930MOL0     H25495   8.058   0.900   7.270  2.7705  1.7179  0.1099
  930MOL0     H25496   8.044   0.759   7.378  2.3292 -0.1580  1.1193
  930MOL0     H25497   7.950   0.910   7.552 -0.7687  0.4805 -0.1684
  930MOL0     H25498   7.982   1.044   7.455  1.9163 -1.3464  1.4123
  930MOL0     H25499   7.785   0.830   7.379  1.1102 -0.2095 -1.7577
  930MOL0     H25500   7.805   0.971   7.279 -1.2326 -0.0094 -0.7827
  930MOL0     H25501   7.749   0.961   7.663  0.1817 -1.6241 -1.1698
  930MOL0     H25502   7.469   1.235   7.738  1.2174  2.3838  1.4249
  930MOL0     H25503   7.523   1.094   7.827 -1.9698 -3.0418 -2.8945
  930MOL0     H25504   7.600   1.324   7.887 -1.4050 -0.2610 -0.9797
  930MOL0     H25505   7.711   1.327   7.748  1.5549  1.3633  0.8208
  930MOL0     H25506   7.839   1.151   7.828 -0.0080 -1.3163  0.4706
  930MOL0     H25507   7.728   1.105   7.962 -1.0870  1.8766  1.9143
  930MOL0     H25508   7.874   1.364   7.935 -1.4425 -1.4342 -1.7846
  930MOL0     H25509   7.920   1.255   8.058 -0.9295 -0.5567  1.7654
  930MOL0     H25510   7.986   1.481   8.072  2.1326 -1.7207  2.5545
  930MOL0     H25511   8.135   1.742   8.134  0.5750  1.2868  1.4387
  930MOL0     H25512   8.178   1.677   8.291 -2.6159  0.3808  1.3452
  930MOL0     H25513   8.183   1.566   8.157  0.6476 -1.6598  4.5908
  930MOL0     H25514   8.175   1.708   8.746  1.1007 -0.0139 -0.5129
  930MOL0     H25515   8.234   1.874   8.908  1.2031  3.0235 -0.1177
  930MOL0     H25516   8.179   2.310   8.902 -0.2107  1.9323  1.8998
  930MOL0     H25517   8.004   2.278   8.904 -2.2827  0.3160  3.1319
  930MOL0     H25518   8.174   2.244   9.158 -1.5649  1.9208  4.4163
  930MOL0     H25519   8.064   2.381   9.116 -2.6849 -1.2025  0.3812
  930MOL0     H25520   7.931   2.110   9.109 -0.2041 -0.2396  1.7260
  930MOL0     H25521   7.872   2.264   9.122 -2.1114 -4.0392 -6.5670
  930MOL0     H25522   8.050   2.115   9.337  2.2683  0.9716 -1.2420
  930MOL0     H25523   7.987   2.272   9.358  1.9189 -0.8063 -0.6292
  930MOL0     H25524   7.863   2.051   9.453  0.0468  0.6905  0.0004
  930MOL0     H25525   7.827   2.018   9.281 -2.4568  0.0436  0.9675
  930MOL0     H25526   7.745   2.284   9.394  1.0771 -0.9685  0.8190
  930MOL0     H25527   7.696   2.200   9.245  0.9917  1.7643  0.7267
  930MOL0     H25528   7.656   2.073   9.515 -1.7719 -3.5019  0.1270
  930MOL0     H25529   7.592   2.031   9.359  2.2056  0.2379 -0.2281
  930MOL0     H25530   7.407   2.154   9.433  0.8404 -0.3278 -0.4959
  930MOL0     H25531   7.504   2.299   9.391 -0.5213  2.0852  1.8175
  930MOL0     H25532   7.892   2.117   8.805  0.2899 -0.5311  1.5033
  930MOL0     H25533   7.827   1.953   8.647  1.0378  0.6498 -2.0697
  930MOL0     H25534   7.758   1.602   8.485  0.4269  0.9482 -0.1962
  930MOL0     H25535   7.645   1.445   8.324 -0.4298  2.0590 -0.5117
  930MOL0     H25536   8.408   0.093   7.363 -2.5461 -0.6268  1.8590
  930MOL0     H25537   8.241  -0.077   7.285  2.8709 -1.6074 -3.0055
  930MOL0     H25538   7.912  -0.255   7.096 -0.0842 -2.5729  1.3323
  930MOL0     H25539   7.723  -0.405   7.103  1.5785  0.3140 -0.8656
  930MOL0     H25540   7.359  -0.297   7.347  0.5957  0.8249  0.5781
  930MOL0     H25541   7.339  -0.231   7.182  0.6058 -0.3912  0.2629
  930MOL0     H25542   7.281  -0.448   7.091 -1.9443  1.0271 -0.5371
  930MOL0     H25543   7.168  -0.381   7.210  0.3278  1.1443 -0.7480
  930MOL0     H25544   7.380  -0.610   7.248 -0.4814  1.1280 -1.0398
  930MOL0     H25545   7.213  -0.638   7.260  1.1754 -1.9563  2.8786
  930MOL0     H25546   7.381  -0.476   7.452 -0.7366  1.7460 -2.9730
  930MOL0     H25547   7.301  -0.627   7.483  0.9840  0.5568  0.0742
  930MOL0     H25548   6.997  -0.379   7.595  1.4425  1.5093 -0.6852
  930MOL0     H25549   7.492  -0.098   7.308 -0.6641  0.4503 -1.4900
  930MOL0     H25550   7.687   0.046   7.307  0.6551 -0.1505 -1.8701
  931MOL0     O25551   2.385   4.159   2.042  0.3672  0.0544 -0.1608
  931MOL0     C25552   2.391   4.283   2.060  0.3645 -0.6419  0.0357
  931MOL0     O25553   2.484   4.369   2.003  0.3711 -0.1533  0.4128
  931MOL0     C25554   2.556   4.328   1.901  0.6759  0.4229  1.0144
  931MOL0     C25555   2.530   4.223   1.806  0.4057  0.1768  0.0210
  931MOL0     C25556   2.616   4.195   1.707 -0.0665  1.2368  0.1812
  931MOL0     C25557   2.744   4.251   1.702  0.1502  0.7305 -0.2452
  931MOL0     O25558   2.838   4.201   1.621 -0.8749 -0.7400  0.2242
  931MOL0     C25559   2.823   4.113   1.509  0.1117 -0.1562 -1.1299
  931MOL0     C25560   2.967   4.070   1.466  0.3385 -0.3953  0.2249
  931MOL0     C25561   3.053   4.183   1.399 -0.0520  0.0707 -0.4280
  931MOL0     C25562   3.199   4.149   1.389 -1.5544 -0.3257 -1.2977
  931MOL0     C25563   3.255   4.272   1.322 -0.0697  0.0213  0.1355
  931MOL0     C25564   3.379   4.238   1.241  0.3634 -0.0688  0.8687
  931MOL0     C25565   3.373   4.147   1.119  0.0171  0.2622 -0.1560
  931MOL0     C25566   3.502   4.138   1.042 -0.1408  0.0319 -0.4120
  931MOL0     N25567   3.600   4.050   1.112  0.3803 -0.4415  0.3622
  931MOL0     C25568   3.609   3.914   1.141 -0.4680 -0.6988 -0.6339
  931MOL0     C25569   3.733   3.900   1.196  0.8920  0.6872  0.1590
  931MOL0     C25570   3.779   3.780   1.278  0.1371  0.3670  0.2536
  931MOL0     C25571   3.789   3.800   1.431 -1.3256  0.9385 -0.6152
  931MOL0     C25572   3.651   3.839   1.511  0.0389 -0.0079 -0.5092
  931MOL0     C25573   3.551   3.723   1.522  0.6207 -0.8048 -0.4876
  931MOL0     O25574   3.500   3.706   1.393  0.6981  0.0910  0.2062
  931MOL0     C25575   3.409   3.611   1.361  0.1169 -0.2678 -0.2063
  931MOL0     C25576   3.375   3.510   1.446  0.8622 -0.4415  1.0548
  931MOL0     C25577   3.301   3.400   1.402  1.0068  0.5078  0.3649
  931MOL0     C25578   3.265   3.305   1.510  0.3839 -0.2011 -0.5857
  931MOL0     C25579   3.239   3.390   1.279 -0.1287 -0.6126  0.3063
  931MOL0     C25580   3.149   3.283   1.242  0.9514  0.1842 -0.0141
  931MOL0     O25581   3.155   3.165   1.307  0.0196 -0.7985 -0.0924
  931MOL0     C25582   3.062   3.071   1.284 -0.3388  0.2127 -0.1944
  931MOL0     C25583   2.984   3.037   1.390 -0.6203  1.1278  0.2559
  931MOL0     C25584   2.895   2.939   1.382  0.3198 -0.7508 -0.1745
  931MOL0     C25585   2.861   2.879   1.260  0.1896  0.1082  0.4248
  931MOL0     O25586   2.758   2.791   1.273  0.7960  0.0693  0.3553
  931MOL0     C25587   2.719   2.730   1.148  0.2743  1.1617  0.3144
  931MOL0     C25588   2.642   2.604   1.177 -0.2873 -0.2308 -0.7598
  931MOL0     C25589   2.744   2.497   1.220  0.3695 -0.3864  1.0555
  931MOL0     C25590   2.786   2.444   1.076 -0.3760 -0.2941 -0.5951
  931MOL0     C25591   2.859   2.304   1.085  0.0151  0.2666 -0.1381
  931MOL0     C25592   2.862   2.226   0.953 -0.6853 -0.6880  0.6152
  931MOL0     C25593   2.963   2.102   0.938 -1.0656 -0.5722 -0.0162
  931MOL0     C25594   2.951   2.048   0.806  0.2312 -0.1058  0.9060
  931MOL0    Cl25595   3.059   1.891   0.805  0.0887  0.4887 -0.5267
  931MOL0     C25596   2.936   2.916   1.144 -0.2814  0.1920 -0.1426
  931MOL0     C25597   3.037   3.010   1.161  0.0977 -0.6506  0.6263
  931MOL0     O25598   3.066   3.318   1.160 -0.1741 -0.2022  0.9503
  931MOL0     C25599   3.270   3.492   1.193 -1.5119 -0.2636  0.7732
  931MOL0     C25600   3.357   3.604   1.233  0.5031 -0.2046  0.0040
  931MOL0     N25601   3.798   4.021   1.192  0.2680  0.3946 -1.0016
  931MOL0     N25602   3.722   4.108   1.141 -0.3372 -0.8204 -0.4232
  931MOL0     C25603   2.788   4.352   1.801  0.9197 -0.0692  0.5462
  931MOL0     C25604   2.684   4.387   1.900 -0.3096  0.8718  0.4747
  931MOL0     C25605   2.284   4.353   2.141  0.1571  0.5105  0.0066
  931MOL0     C25606   2.293   4.490   2.164  0.3727  1.1381  0.5385
  931MOL0     C25607   2.188   4.565   2.224 -0.2519  0.0354  0.4417
  931MOL0     C25608   2.072   4.490   2.269  0.1329  0.3828 -0.8446
  931MOL0     O25609   1.971   4.540   2.338 -0.1699 -0.5328  0.1615
  931MOL0     C25610   1.993   4.659   2.418 -0.5294 -0.4637  0.3196
  931MOL0     C25611   1.922   4.651   2.553 -0.2492  0.3024 -0.8158
  931MOL0     C25612   1.941   4.515   2.621 -0.3313 -0.6590 -0.4711
  931MOL0     C25613   2.081   4.476   2.660 -0.7580 -0.3346 -0.0623
  931MOL0     C25614   2.087   4.367   2.757  0.8321  0.2124 -0.0187
  931MOL0     C25615   2.082   4.280   2.839 -0.9097 -0.9986 -0.5817
  931MOL0     C25616   2.072   4.343   2.256 -0.7391  0.0729 -0.4898
  931MOL0     C25617   2.174   4.278   2.179  0.7449  0.0018 -0.4020
  931MOL0     H25618   2.443   4.158   1.806  2.0473 -2.2066  2.0587
  931MOL0     H25619   2.591   4.117   1.635 -1.1198 -0.5292  2.3302
  931MOL0     H25620   2.788   4.017   1.548  1.8741 -0.3544  0.0537
  931MOL0     H25621   2.750   4.150   1.437 -2.5351  0.5886  1.7392
  931MOL0     H25622   3.031   4.049   1.552  0.4989  2.5525  0.9146
  931MOL0     H25623   2.962   3.982   1.401  0.1570 -2.9423  3.3979
  931MOL0     H25624   3.005   4.207   1.303  1.2918 -1.7765 -1.6386
  931MOL0     H25625   3.037   4.272   1.460 -2.5433 -0.9160  0.4950
  931MOL0     H25626   3.241   4.131   1.488 -1.1105  2.4461 -0.9017
  931MOL0     H25627   3.207   4.059   1.327  0.4968  0.1081 -1.7298
  931MOL0     H25628   3.190   4.316   1.246  3.6664  2.0741 -2.1618
  931MOL0     H25629   3.284   4.346   1.398  0.8664  1.1394 -1.2623
  931MOL0     H25630   3.413   4.333   1.200 -3.1294 -0.4959 -3.9641
  931MOL0     H25631   3.447   4.184   1.308 -1.3139 -0.3804  2.4178
  931MOL0     H25632   3.345   4.045   1.148 -1.0426  0.3726 -0.7510
  931MOL0     H25633   3.306   4.174   1.037 -1.9264 -2.9580  0.1699
  931MOL0     H25634   3.542   4.232   1.002 -0.6402 -0.8614 -3.2556
  931MOL0     H25635   3.482   4.094   0.944  2.0115  0.4658 -1.0855
  931MOL0     H25636   3.531   3.839   1.152 -2.1511  1.2593  1.7486
  931MOL0     H25637   3.716   3.695   1.250 -0.7664  0.3269  2.1838
  931MOL0     H25638   3.878   3.752   1.240 -1.0883 -0.8909 -2.2206
  931MOL0     H25639   3.853   3.887   1.452 -1.1193  0.4604  0.8574
  931MOL0     H25640   3.850   3.722   1.476  0.7705  2.3388 -0.8467
  931MOL0     H25641   3.612   3.922   1.452 -0.4528  0.9766  1.1458
  931MOL0     H25642   3.684   3.877   1.608  1.9780 -2.1992 -0.2059
  931MOL0     H25643   3.475   3.765   1.588 -0.8438 -2.2611 -1.1937
  931MOL0     H25644   3.607   3.637   1.561 -2.6869 -3.1859 -0.6152
  931MOL0     H25645   3.402   3.518   1.551 -3.6040 -5.0819  2.9488
  931MOL0     H25646   3.310   3.326   1.608  1.7248  0.7582 -1.3694
  931MOL0     H25647   3.156   3.302   1.513  0.3505 -1.7892 -1.7984
  931MOL0     H25648   3.302   3.205   1.486 -2.5671 -2.2221  2.3567
  931MOL0     H25649   2.988   3.085   1.487  0.4162 -1.1539  1.3953
  931MOL0     H25650   2.841   2.920   1.475 -2.6839  0.0180 -1.6281
  931MOL0     H25651   2.654   2.797   1.090 -2.2049 -0.9292  0.5073
  931MOL0     H25652   2.805   2.699   1.087  1.4657 -1.0697  2.9083
  931MOL0     H25653   2.578   2.624   1.263  0.7989 -1.1764  0.2905
  931MOL0     H25654   2.582   2.587   1.087  0.0471 -2.8047 -0.5488
  931MOL0     H25655   2.705   2.407   1.269 -0.9198 -0.6310 -0.3280
  931MOL0     H25656   2.824   2.534   1.284  1.6296 -3.1153  1.1763
  931MOL0     H25657   2.698   2.426   1.013 -1.1838  4.7560 -1.2855
  931MOL0     H25658   2.856   2.507   1.020 -0.5412 -1.6103 -2.3684
  931MOL0     H25659   2.813   2.233   1.155  2.0294 -0.6578  0.3162
  931MOL0     H25660   2.965   2.317   1.109  0.2747 -0.1013 -1.0103
  931MOL0     H25661   2.760   2.195   0.929 -0.4329 -0.0435 -1.4572
  931MOL0     H25662   2.890   2.297   0.875  3.7978 -1.5447  1.1893
  931MOL0     H25663   2.926   2.027   1.007 -0.7518 -1.8985 -1.2425
  931MOL0     H25664   3.066   2.123   0.968 -1.2558  2.1682 -1.0039
  931MOL0     H25665   2.981   2.128   0.739  0.0562  2.0714  3.2983
  931MOL0     H25666   2.847   2.018   0.786  0.5320  0.4312 -1.7786
  931MOL0     H25667   2.927   2.871   1.046  3.0375  1.7071 -1.2652
  931MOL0     H25668   3.100   3.043   1.079  2.5382 -1.1482  2.1880
  931MOL0     H25669   3.223   3.499   1.095 -2.7363 -0.3328  1.3365
  931MOL0     H25670   3.382   3.688   1.171 -0.5023  0.4121  0.4070
  931MOL0     H25671   2.889   4.392   1.797  0.2301  1.6895 -3.0628
  931MOL0     H25672   2.706   4.464   1.973  1.0403  1.9155 -0.9600
  931MOL0     H25673   2.370   4.556   2.125 -1.5419  3.6206  0.6919
  931MOL0     H25674   2.168   4.672   2.230  1.3793  0.3421  1.0234
  931MOL0     H25675   2.099   4.668   2.442 -0.4374 -0.8763  0.0654
  931MOL0     H25676   1.968   4.753   2.367 -1.8169  0.0610  1.8332
  931MOL0     H25677   1.815   4.674   2.548 -0.0837  1.1195 -0.7159
  931MOL0     H25678   1.955   4.726   2.625  0.8830 -1.7198  0.8648
  931MOL0     H25679   1.906   4.439   2.551  1.3749 -0.4089 -1.6810
  931MOL0     H25680   1.879   4.514   2.711  1.9476 -1.9546  1.1847
  931MOL0     H25681   2.134   4.565   2.696 -2.4557  1.8989 -2.6406
  931MOL0     H25682   2.138   4.446   2.572  0.8080 -0.9560  1.1121
  931MOL0     H25683   2.084   4.202   2.912  0.1240 -1.6693 -1.2790
  931MOL0     H25684   1.991   4.286   2.300 -1.6032  3.0131  2.0881
  931MOL0     H25685   2.172   4.171   2.161  1.6860 -0.1506  0.2990
  932MOL0     O25686   9.095   7.821   4.291  0.2012  0.4274  0.1002
  932MOL0     C25687   9.001   7.882   4.245  0.0654  0.8877 -1.2366
  932MOL0     O25688   9.002   7.981   4.148  0.8402  0.1314 -0.0661
  932MOL0     C25689   9.117   8.002   4.089  0.2554 -0.4008 -0.1510
  932MOL0     C25690   9.159   7.904   3.995 -0.5250 -0.0976 -0.9277
  932MOL0     C25691   9.282   7.923   3.921  1.4879  0.4029 -0.2556
  932MOL0     C25692   9.365   8.033   3.938 -0.1217  0.2941  1.0420
  932MOL0     O25693   9.483   8.044   3.865  0.0935 -0.3389  0.4080
  932MOL0     C25694   9.513   8.182   3.831 -0.2646  0.4666 -0.0669
  932MOL0     C25695   9.610   8.194   3.711 -0.2070  0.3554 -0.1184
  932MOL0     C25696   9.563   8.111   3.586  0.1551  0.7083  0.8247
  932MOL0     C25697   9.629   8.131   3.449  0.8369 -0.6620 -0.2454
  932MOL0     C25698   9.784   8.138   3.456  0.1476  0.2177  0.2034
  932MOL0     C25699   9.848   8.152   3.321  0.6145  0.1939  1.2808
  932MOL0     C25700   9.835   8.038   3.213 -0.8232  0.6947 -0.0676
  932MOL0     C25701   9.877   8.064   3.065  0.2287 -0.2388 -0.0736
  932MOL0     N25702   9.988   8.160   3.044  0.1612  0.1322 -0.7167
  932MOL0     C25703   9.962   8.295   3.023  0.2850 -0.8126 -0.2678
  932MOL0     C25704  10.082   8.343   2.985  0.3977  0.1406 -0.3815
  932MOL0     C25705  10.134   8.485   2.976 -0.8518 -0.1006  0.4949
  932MOL0     C25706  10.174   8.536   2.835 -0.1105  0.1753  0.4903
  932MOL0     C25707  10.064   8.532   2.727  0.0010  0.0630  0.3385
  932MOL0     C25708   9.958   8.641   2.742  0.1340 -0.3671 -0.6508
  932MOL0     O25709   9.898   8.677   2.616 -0.0029 -0.0976  0.9590
  932MOL0     C25710   9.788   8.754   2.625 -0.0181 -0.5774 -0.0960
  932MOL0     C25711   9.680   8.718   2.706 -0.3937 -0.2395  0.9269
  932MOL0     C25712   9.555   8.777   2.695  0.1066  0.0241  0.1931
  932MOL0     C25713   9.448   8.720   2.774 -0.0775 -0.6252 -0.4545
  932MOL0     C25714   9.543   8.894   2.605  0.0421  0.1979 -0.2741
  932MOL0     C25715   9.423   8.970   2.591  0.0490  0.0719 -0.5142
  932MOL0     O25716   9.437   9.059   2.488  0.8910 -0.3079  0.0259
  932MOL0     C25717   9.430   9.194   2.522  0.4792  0.2773 -0.0668
  932MOL0     C25718   9.540   9.265   2.562  0.7723  0.5714 -0.0840
  932MOL0     C25719   9.531   9.402   2.584  0.0572 -0.1233 -0.8397
  932MOL0     C25720   9.405   9.468   2.590  0.6914 -0.2275  0.2356
  932MOL0     O25721   9.400   9.596   2.620 -0.2753 -1.0097 -0.3740
  932MOL0     C25722   9.437   9.673   2.502  0.1190 -0.1070 -0.2839
  932MOL0     C25723   9.425   9.817   2.537 -0.6018 -0.1063  0.2886
  932MOL0     C25724   9.276   9.857   2.528 -0.3557 -0.1465 -0.6304
  932MOL0     C25725   9.267  10.015   2.547  0.2964  1.0307  0.2979
  932MOL0     C25726   9.122  10.081   2.576 -0.4733  0.2330 -0.8820
  932MOL0     C25727   9.018  10.062   2.459 -0.0525  0.4800 -0.1239
  932MOL0     C25728   8.881  10.134   2.477  0.0782  0.0772 -0.1331
  932MOL0     C25729   8.894  10.281   2.466 -0.9750 -0.2648  0.0315
  932MOL0    Cl25730   8.940  10.319   2.303  0.1567 -0.2090  0.2087
  932MOL0     C25731   9.292   9.391   2.563 -0.6038 -0.9077 -0.0266
  932MOL0     C25732   9.305   9.253   2.528 -0.0358  0.3772 -0.2565
  932MOL0     O25733   9.318   8.956   2.655 -0.1088  0.4538 -0.6835
  932MOL0     C25734   9.660   8.919   2.527 -0.3617 -0.3921  0.2665
  932MOL0     C25735   9.774   8.846   2.531  0.0479 -0.0197  1.2771
  932MOL0     N25736  10.163   8.236   2.974 -0.3841 -0.6578  0.8148
  932MOL0     N25737  10.115   8.129   3.002  0.3381  0.8021  0.5099
  932MOL0     C25738   9.326   8.124   4.036  0.2104 -0.7255  0.4332
  932MOL0     C25739   9.205   8.118   4.103 -0.7420  0.5368 -0.0302
  932MOL0     C25740   8.860   7.832   4.278 -0.6596 -0.3049 -0.0724
  932MOL0     C25741   8.754   7.908   4.227  0.0844 -1.4605 -0.4624
  932MOL0     C25742   8.622   7.875   4.268  0.9376  0.6924  0.0315
  932MOL0     C25743   8.598   7.762   4.340 -0.8284  0.3449  0.2888
  932MOL0     O25744   8.466   7.720   4.360  0.5463  0.4531  0.4119
  932MOL0     C25745   8.443   7.577   4.331 -0.5516 -1.0485 -0.2721
  932MOL0     C25746   8.335   7.531   4.232  0.6722 -0.2917  0.7067
  932MOL0     C25747   8.380   7.575   4.092 -0.8598 -0.5623  0.0754
  932MOL0     C25748   8.505   7.497   4.037  0.9612  0.7641  0.8752
  932MOL0     C25749   8.481   7.354   4.010  0.2143 -0.3094  0.5409
  932MOL0     C25750   8.461   7.236   3.994 -0.0597  1.2731 -0.3907
  932MOL0     C25751   8.704   7.686   4.394 -0.2286  0.0356  0.0538
  932MOL0     C25752   8.835   7.721   4.368  0.1727 -0.5823  0.2932
  932MOL0     H25753   9.115   7.804   3.995  0.9423 -0.7717 -0.5864
  932MOL0     H25754   9.322   7.842   3.861 -2.8139 -1.6631 -0.7472
  932MOL0     H25755   9.426   8.238   3.796  0.5562 -0.1927 -3.5253
  932MOL0     H25756   9.563   8.241   3.909  0.7780 -2.7325  1.9061
  932MOL0     H25757   9.620   8.298   3.681  0.9084  0.0760 -0.8101
  932MOL0     H25758   9.708   8.168   3.753 -1.0353 -0.8758  1.1344
  932MOL0     H25759   9.568   8.006   3.618 -1.2964  0.9669  2.0066
  932MOL0     H25760   9.459   8.140   3.572  0.5183  1.2099 -1.1672
  932MOL0     H25761   9.588   8.056   3.381  2.1212 -2.2041  0.6235
  932MOL0     H25762   9.595   8.228   3.412  2.4719  0.2115  0.4382
  932MOL0     H25763   9.812   8.229   3.510 -2.8060  1.2292  0.1691
  932MOL0     H25764   9.824   8.052   3.512  1.8454 -1.5514 -3.4160
  932MOL0     H25765   9.807   8.245   3.280 -0.8229 -1.2030 -0.5897
  932MOL0     H25766   9.956   8.163   3.337  0.7162  1.3591  0.0026
  932MOL0     H25767   9.908   7.960   3.239  0.8585 -0.1283 -5.7493
  932MOL0     H25768   9.734   8.003   3.192  0.1002 -1.5672 -1.0746
  932MOL0     H25769   9.790   8.098   3.008  0.8057 -0.7191 -1.2638
  932MOL0     H25770   9.908   7.971   3.016 -3.0904 -0.5622 -1.8544
  932MOL0     H25771   9.870   8.346   3.050  1.0620  0.3423  0.2779
  932MOL0     H25772  10.053   8.545   3.020 -2.2429 -0.1006 -1.9180
  932MOL0     H25773  10.214   8.496   3.050 -1.6040  0.1775  1.2891
  932MOL0     H25774  10.252   8.473   2.792 -1.6765  0.1627 -2.5696
  932MOL0     H25775  10.222   8.633   2.850  1.2154 -0.5221  0.9172
  932MOL0     H25776  10.017   8.433   2.730 -1.0683  0.5742  1.0768
  932MOL0     H25777  10.118   8.553   2.634  0.7239 -2.9091  0.0045
  932MOL0     H25778  10.001   8.727   2.794 -3.3970  0.6820  0.8559
  932MOL0     H25779   9.897   8.593   2.820  1.0539 -0.6398 -0.0801
  932MOL0     H25780   9.692   8.630   2.770  1.7719 -1.3413 -0.8855
  932MOL0     H25781   9.415   8.767   2.867 -0.4958 -0.3593 -0.7353
  932MOL0     H25782   9.356   8.713   2.714  0.4448 -1.2754 -1.2104
  932MOL0     H25783   9.480   8.620   2.806 -0.0040  0.2713  2.5614
  932MOL0     H25784   9.639   9.225   2.582 -0.2403 -2.3688 -0.3859
  932MOL0     H25785   9.622   9.456   2.610  1.4752 -3.3591  1.7496
  932MOL0     H25786   9.541   9.645   2.484 -0.5107 -2.8032 -0.1779
  932MOL0     H25787   9.373   9.650   2.416 -0.3015  1.1378 -0.3123
  932MOL0     H25788   9.452   9.842   2.641  0.7852  0.5415 -0.2003
  932MOL0     H25789   9.475   9.883   2.465 -0.0827  1.1884  1.7696
  932MOL0     H25790   9.231   9.797   2.607 -0.0370  1.9240  1.2064
  932MOL0     H25791   9.233   9.825   2.432  1.5290 -0.4066 -1.4283
  932MOL0     H25792   9.344  10.050   2.617 -0.5748  1.4870  1.0611
  932MOL0     H25793   9.312  10.052   2.454 -0.6664  1.0423 -0.1692
  932MOL0     H25794   9.151  10.180   2.612  0.4904 -0.3014 -0.1233
  932MOL0     H25795   9.074  10.021   2.654 -1.0339 -0.7700 -1.9636
  932MOL0     H25796   9.061  10.100   2.366 -1.2876  0.8118 -0.5869
  932MOL0     H25797   8.994   9.959   2.431 -0.5163  0.1124  1.5200
  932MOL0     H25798   8.845  10.101   2.574 -0.2335 -0.3898 -0.4034
  932MOL0     H25799   8.816  10.091   2.401 -2.1191  0.7311  1.2951
  932MOL0     H25800   8.973  10.331   2.522  0.0897  0.4572 -2.0222
  932MOL0     H25801   8.801  10.336   2.487 -0.2837 -0.0331  3.0411
  932MOL0     H25802   9.198   9.441   2.585  0.5120  1.8830 -1.1502
  932MOL0     H25803   9.223   9.183   2.513  0.0899 -0.4680  2.4032
  932MOL0     H25804   9.662   9.002   2.458 -0.8348 -1.4321 -1.0533
  932MOL0     H25805   9.869   8.856   2.479  0.5951  0.6519  2.3767
  932MOL0     H25806   9.391   8.211   4.041  0.7383 -0.9910 -1.0450
  932MOL0     H25807   9.184   8.197   4.173 -0.4996 -0.4838  1.2426
  932MOL0     H25808   8.759   7.994   4.160 -1.2999 -0.1083  1.0736
  932MOL0     H25809   8.532   7.926   4.236 -0.4950 -0.7455  1.5297
  932MOL0     H25810   8.536   7.524   4.305  0.0779 -2.2191  3.7481
  932MOL0     H25811   8.405   7.532   4.423  1.5376 -0.1423  1.1207
  932MOL0     H25812   8.232   7.567   4.241  0.5716  0.5723 -2.5098
  932MOL0     H25813   8.331   7.422   4.236 -1.8033 -0.2951 -0.0808
  932MOL0     H25814   8.401   7.682   4.088 -2.2402 -0.3019 -1.4294
  932MOL0     H25815   8.302   7.561   4.016 -0.4806  1.5658 -0.7634
  932MOL0     H25816   8.594   7.502   4.101 -0.3730 -1.2469  3.0309
  932MOL0     H25817   8.516   7.537   3.936 -2.7290  0.9101  0.4109
  932MOL0     H25818   8.456   7.131   3.974  0.6591  1.2340 -0.3883
  932MOL0     H25819   8.684   7.606   4.465 -1.3006  0.8583  0.7131
  932MOL0     H25820   8.914   7.667   4.419  0.9973 -0.6264 -0.9721
  933MOL0     O25821   6.840   7.049   5.976 -0.1248 -0.2426 -0.3344
  933MOL0     C25822   6.908   7.148   5.957  0.2516 -0.3345 -0.9737
  933MOL0     O25823   6.942   7.203   5.828  0.2412 -0.0325  0.4668
  933MOL0     C25824   6.921   7.119   5.726  0.6214  0.3695  1.4689
  933MOL0     C25825   6.983   6.993   5.723  0.3916 -0.2491  0.7281
  933MOL0     C25826   6.955   6.907   5.616 -0.5283  0.5886  0.2882
  933MOL0     C25827   6.875   6.939   5.509 -0.4801 -0.5812  0.0318
  933MOL0     O25828   6.856   6.859   5.393  1.0221  0.4488 -0.4560
  933MOL0     C25829   6.876   6.718   5.415 -0.1267 -0.2931  0.3795
  933MOL0     C25830   6.811   6.639   5.301 -0.4117 -0.0741  0.5119
  933MOL0     C25831   6.667   6.690   5.293  0.6625 -1.0250  0.4560
  933MOL0     C25832   6.592   6.654   5.169 -0.7720 -0.1902  0.6914
  933MOL0     C25833   6.652   6.713   5.042 -0.1590 -0.2980  0.2250
  933MOL0     C25834   6.655   6.865   5.042 -0.4890 -1.1280 -0.1536
  933MOL0     C25835   6.670   6.929   4.899 -0.0900  0.4607 -0.4509
  933MOL0     C25836   6.717   7.073   4.878 -1.2117 -0.1193  0.0242
  933MOL0     N25837   6.693   7.103   4.737  0.2113 -0.6245 -0.2965
  933MOL0     C25838   6.751   7.043   4.625 -0.2214 -0.7343 -0.6273
  933MOL0     C25839   6.687   7.103   4.520 -0.5639  1.0010 -0.0723
  933MOL0     C25840   6.736   7.075   4.377 -0.1958  0.1982  0.3059
  933MOL0     C25841   6.861   7.145   4.338 -0.1232 -0.2691 -0.2648
  933MOL0     C25842   6.830   7.296   4.314  0.3133 -0.4034 -0.9244
  933MOL0     C25843   6.923   7.393   4.251 -0.5506  0.1576  0.3018
  933MOL0     O25844   6.954   7.362   4.111 -0.1328 -0.1273  0.6398
  933MOL0     C25845   6.963   7.480   4.039 -0.3709  0.0311 -0.8564
  933MOL0     C25846   6.868   7.511   3.938  0.0778  0.4618 -0.8144
  933MOL0     C25847   6.858   7.633   3.877 -0.0378 -1.0752 -1.0978
  933MOL0     C25848   6.747   7.660   3.782 -0.8288  0.5997  0.3560
  933MOL0     C25849   6.956   7.730   3.910 -0.0668 -0.6397  0.0544
  933MOL0     C25850   6.965   7.866   3.854 -0.4887  0.0253  0.8054
  933MOL0     O25851   7.059   7.956   3.911 -0.1546 -0.2749  0.5505
  933MOL0     C25852   7.061   8.081   3.845 -0.2277 -0.6328 -0.3793
  933MOL0     C25853   7.159   8.107   3.747  0.3608 -0.5161  0.5511
  933MOL0     C25854   7.168   8.230   3.688  0.1927  0.3921 -0.5677
  933MOL0     C25855   7.087   8.332   3.737  0.1859 -0.2075  0.5179
  933MOL0     O25856   7.113   8.457   3.682  0.2026 -0.1727 -0.0691
  933MOL0     C25857   7.025   8.559   3.709  0.1557  0.2000 -0.3273
  933MOL0     C25858   7.082   8.681   3.646  0.3425 -0.3313  0.6625
  933MOL0     C25859   7.136   8.777   3.741 -0.2079  0.0071  0.0016
  933MOL0     C25860   7.018   8.844   3.841 -0.3518 -0.4053  0.8773
  933MOL0     C25861   7.074   8.960   3.927 -0.1325  0.1508 -0.2340
  933MOL0     C25862   7.131   9.065   3.838  0.1892  0.1014  0.9367
  933MOL0     C25863   7.130   9.191   3.928  0.1403  0.6243 -0.1877
  933MOL0     C25864   7.210   9.303   3.863  0.9679 -0.7208 -0.9316
  933MOL0    Cl25865   7.159   9.479   3.898  0.4288 -0.8480 -0.3486
  933MOL0     C25866   6.986   8.305   3.827 -0.1630 -0.4466 -0.8945
  933MOL0     C25867   6.977   8.182   3.883  0.0459 -0.0767  0.5892
  933MOL0     O25868   6.894   7.900   3.760  0.2079  0.0053  1.9456
  933MOL0     C25869   7.058   7.689   3.995  0.0970  0.2288  0.4418
  933MOL0     C25870   7.065   7.575   4.061  1.3547  0.2322 -1.2443
  933MOL0     N25871   6.589   7.195   4.568 -0.3233  0.1622  1.2647
  933MOL0     N25872   6.597   7.197   4.693  0.0921 -0.0987 -0.1902
  933MOL0     C25873   6.826   7.073   5.504  0.0066  0.7181  1.1504
  933MOL0     C25874   6.843   7.153   5.609 -0.7660 -1.1031 -0.1766
  933MOL0     C25875   6.935   7.230   6.074 -0.0999 -0.0651  0.5370
  933MOL0     C25876   6.965   7.373   6.062 -0.5995  0.1269 -0.2961
  933MOL0     C25877   6.977   7.444   6.181 -0.0972 -0.4748  0.2511
  933MOL0     C25878   6.978   7.391   6.310  0.0963  0.8733 -1.1961
  933MOL0     O25879   6.983   7.470   6.423 -0.3835 -0.4095  0.1309
  933MOL0     C25880   6.929   7.434   6.553 -0.7428  0.0837  0.3422
  933MOL0     C25881   6.917   7.560   6.638 -0.0975  0.2040  0.3448
  933MOL0     C25882   7.058   7.590   6.689  1.3757  0.0260  1.6294
  933MOL0     C25883   7.075   7.569   6.832  0.0866  0.6922 -0.5221
  933MOL0     C25884   7.010   7.682   6.896 -0.0995 -0.1866  0.4599
  933MOL0     C25885   6.963   7.762   6.970  0.2135 -0.0605 -0.7281
  933MOL0     C25886   6.954   7.257   6.324 -0.2692  1.4027 -0.6838
  933MOL0     C25887   6.937   7.175   6.203 -1.2850  0.9410 -1.3790
  933MOL0     H25888   7.061   6.972   5.795  2.4954  1.1165 -1.0259
  933MOL0     H25889   7.017   6.818   5.627 -1.0340  0.2625  0.5829
  933MOL0     H25890   6.984   6.705   5.405 -0.2679 -0.8825 -0.6786
  933MOL0     H25891   6.840   6.686   5.513 -1.2851  1.4156  0.5489
  933MOL0     H25892   6.866   6.657   5.208 -0.2612  0.0309  0.6203
  933MOL0     H25893   6.824   6.532   5.322  1.1427 -0.2918 -1.2910
  933MOL0     H25894   6.630   6.628   5.375 -0.0542 -1.3604 -0.1179
  933MOL0     H25895   6.652   6.794   5.322  4.1445  0.5422 -2.5300
  933MOL0     H25896   6.598   6.546   5.156 -1.4738 -0.1323 -0.2398
  933MOL0     H25897   6.488   6.689   5.171 -0.2184  2.0957 -2.3109
  933MOL0     H25898   6.756   6.681   5.027 -0.0640 -0.0171  0.2890
  933MOL0     H25899   6.598   6.687   4.951 -2.1003  1.2584  0.8655
  933MOL0     H25900   6.568   6.910   5.091  1.9407  0.6705  2.9006
  933MOL0     H25901   6.743   6.905   5.094 -0.7462  1.3957 -1.5030
  933MOL0     H25902   6.744   6.872   4.842 -1.9374 -0.3033 -2.2063
  933MOL0     H25903   6.578   6.906   4.845  0.9610 -0.2837 -1.9750
  933MOL0     H25904   6.821   7.100   4.899 -2.2696  3.7707  1.1853
  933MOL0     H25905   6.655   7.146   4.931 -0.3649  0.8364 -0.2589
  933MOL0     H25906   6.828   6.967   4.619 -1.2483 -1.7889 -0.7638
  933MOL0     H25907   6.761   6.969   4.367  0.8033  0.5305 -1.0227
  933MOL0     H25908   6.654   7.079   4.304  0.7661 -0.6346 -0.8648
  933MOL0     H25909   6.896   7.112   4.240  0.7665  0.4102 -0.1835
  933MOL0     H25910   6.938   7.126   4.414  0.2933 -0.0066 -0.6192
  933MOL0     H25911   6.800   7.349   4.404  1.5913  1.7906 -1.7206
  933MOL0     H25912   6.742   7.293   4.249 -1.8111 -0.3596  1.7739
  933MOL0     H25913   7.015   7.392   4.310 -0.0716 -1.3792 -0.3999
  933MOL0     H25914   6.886   7.495   4.260  1.4797  0.8637  1.4930
  933MOL0     H25915   6.786   7.442   3.919  0.4064 -0.2251  0.1775
  933MOL0     H25916   6.798   7.668   3.685  1.4280 -0.0194  1.4218
  933MOL0     H25917   6.683   7.572   3.768  4.5120 -3.7069 -1.0006
  933MOL0     H25918   6.687   7.745   3.813 -2.3970 -1.7405  4.5863
  933MOL0     H25919   7.230   8.031   3.714  1.5142  0.8864 -0.3802
  933MOL0     H25920   7.237   8.246   3.606  2.2785 -1.5935  0.6879
  933MOL0     H25921   6.925   8.542   3.667  0.9906 -1.8914 -1.6076
  933MOL0     H25922   7.017   8.572   3.817  2.0838 -1.3315  0.0537
  933MOL0     H25923   7.161   8.657   3.574  1.3430 -1.6550  2.1472
  933MOL0     H25924   7.001   8.732   3.593 -0.9638 -2.9702 -0.0420
  933MOL0     H25925   7.197   8.846   3.683  0.2518 -0.5818 -0.2295
  933MOL0     H25926   7.199   8.716   3.806 -1.4800 -0.4046  0.9105
  933MOL0     H25927   6.933   8.877   3.781  0.5770 -3.6020 -2.5584
  933MOL0     H25928   6.977   8.772   3.911 -0.4838  1.3982  2.7549
  933MOL0     H25929   7.158   8.914   3.980  0.0348 -0.3234 -0.8947
  933MOL0     H25930   6.999   8.990   4.001 -2.2693  0.4041 -2.3727
  933MOL0     H25931   7.229   9.042   3.795  0.0095  1.8157 -0.4938
  933MOL0     H25932   7.059   9.078   3.756  1.7038  2.9167 -0.0747
  933MOL0     H25933   7.177   9.163   4.023 -2.1178  0.2887  0.8894
  933MOL0     H25934   7.022   9.204   3.940 -0.2929 -2.6311  0.3700
  933MOL0     H25935   7.230   9.285   3.757  3.8974  2.5671 -1.1134
  933MOL0     H25936   7.307   9.286   3.909  0.4562  1.3490  1.1233
  933MOL0     H25937   6.912   8.374   3.866 -0.5715 -1.4183  0.0953
  933MOL0     H25938   6.889   8.179   3.946  0.5896  1.5247  1.4629
  933MOL0     H25939   7.146   7.751   4.007 -1.5327  2.7791 -0.0029
  933MOL0     H25940   7.143   7.544   4.130 -1.9184 -1.6411  1.9957
  933MOL0     H25941   6.771   7.107   5.416  0.5814 -2.2424 -0.4930
  933MOL0     H25942   6.791   7.247   5.621 -1.1419 -0.9175 -2.6994
  933MOL0     H25943   6.962   7.420   5.964  0.8315  0.6102 -0.1237
  933MOL0     H25944   6.999   7.548   6.155  2.0197 -1.3429 -1.8929
  933MOL0     H25945   6.829   7.391   6.555 -0.2899 -1.0440  0.1506
  933MOL0     H25946   6.993   7.355   6.594  1.3217  1.2384 -0.4722
  933MOL0     H25947   6.842   7.552   6.717 -0.9843 -0.6946 -0.5522
  933MOL0     H25948   6.886   7.639   6.569 -1.1052 -0.9706 -0.6105
  933MOL0     H25949   7.092   7.692   6.673  3.3593 -0.8130  0.0921
  933MOL0     H25950   7.125   7.527   6.629 -0.7701 -1.2475  0.4530
  933MOL0     H25951   7.179   7.578   6.864 -0.1294  0.9005  0.1461
  933MOL0     H25952   7.020   7.477   6.854  0.7374  0.2119 -0.8914
  933MOL0     H25953   6.928   7.834   7.042 -2.2495  1.6164 -3.4088
  933MOL0     H25954   6.938   7.213   6.422 -3.5340 -0.7528 -2.0065
  933MOL0     H25955   6.931   7.067   6.205  5.4135  0.0077  3.2067
  934MOL0     O25956  11.292   3.581   7.659  0.7454 -0.2093 -0.3223
  934MOL0     C25957  11.412   3.565   7.631 -0.5813  0.0610 -0.1740
  934MOL0     O25958  11.467   3.576   7.510 -0.2243 -0.7426  0.4299
  934MOL0     C25959  11.384   3.614   7.402 -0.0606 -0.6619 -0.2153
  934MOL0     C25960  11.406   3.551   7.277  0.8250  0.2700  0.2765
  934MOL0     C25961  11.336   3.589   7.161  0.6422  0.4010 -0.5355
  934MOL0     C25962  11.242   3.694   7.174 -0.5695 -0.7747  0.9892
  934MOL0     O25963  11.156   3.713   7.074  1.1009  0.1322 -0.1731
  934MOL0     C25964  11.195   3.832   6.995 -0.1647  0.4091  0.0145
  934MOL0     C25965  11.075   3.918   6.971 -0.2999  0.9570 -0.5104
  934MOL0     C25966  10.976   3.853   6.879  0.5520  0.0500 -0.8728
  934MOL0     C25967  10.836   3.877   6.929  0.8187  0.2558  0.5341
  934MOL0     C25968  10.782   4.016   6.888  0.6587  0.3486  0.1349
  934MOL0     C25969  10.640   4.022   6.840  0.1667  0.4501  0.6589
  934MOL0     C25970  10.543   3.984   6.947  0.5254 -0.0685  0.4739
  934MOL0     C25971  10.435   3.881   6.887  1.3666  0.5157  0.4805
  934MOL0     N25972  10.326   3.955   6.814 -0.3089  0.9011 -0.1310
  934MOL0     C25973  10.234   4.027   6.875 -0.6841  0.2378 -0.1229
  934MOL0     C25974  10.145   4.065   6.781 -0.0399  0.4802 -0.8537
  934MOL0     C25975  10.019   4.146   6.806  0.6037  0.1128 -0.1517
  934MOL0     C25976  10.018   4.233   6.937 -0.0222  0.2587  0.1442
  934MOL0     C25977  10.106   4.361   6.935  0.9059  0.5247 -0.7958
  934MOL0     C25978  10.254   4.339   6.929 -0.4713 -0.0739 -0.1322
  934MOL0     O25979  10.328   4.460   6.948 -0.2087 -0.4970  0.5181
  934MOL0     C25980  10.466   4.442   6.931 -0.0955  1.2007 -0.7533
  934MOL0     C25981  10.549   4.525   7.015  0.5399  1.1683 -0.0430
  934MOL0     C25982  10.692   4.529   6.990  0.8254  0.2135  0.5272
  934MOL0     C25983  10.762   4.621   7.086 -0.7276 -0.0809  0.0381
  934MOL0     C25984  10.744   4.474   6.874 -0.3383  0.4107 -0.4783
  934MOL0     C25985  10.890   4.487   6.820 -0.7116  0.6356  0.7079
  934MOL0     O25986  10.924   4.388   6.736 -0.4303 -0.7041 -0.3820
  934MOL0     C25987  11.047   4.391   6.667  0.0093  0.1775  0.1596
  934MOL0     C25988  11.082   4.503   6.590  0.1300 -0.4650  0.7333
  934MOL0     C25989  11.206   4.494   6.524  0.4883 -0.7920 -0.8619
  934MOL0     C25990  11.262   4.373   6.492  0.3501  0.1269 -0.1488
  934MOL0     O25991  11.376   4.397   6.429 -0.1399  0.1518  0.9381
  934MOL0     C25992  11.460   4.291   6.389  0.1902  0.2637 -0.5165
  934MOL0     C25993  11.541   4.332   6.266 -0.9360 -0.0888 -0.4006
  934MOL0     C25994  11.614   4.472   6.268  0.0255  0.6737  0.0875
  934MOL0     C25995  11.664   4.509   6.136  0.0676  1.0547 -0.8715
  934MOL0     C25996  11.563   4.570   6.044 -1.3241  0.1810  0.2926
  934MOL0     C25997  11.625   4.687   5.967 -0.6214  0.0225  1.1970
  934MOL0     C25998  11.531   4.733   5.856 -0.7145  0.1124 -0.4027
  934MOL0     C25999  11.587   4.863   5.803  1.0947  0.2853 -0.0576
  934MOL0    Cl26000  11.456   4.969   5.731  0.0857  0.0774 -0.1586
  934MOL0     C26001  11.194   4.258   6.529 -0.0827 -0.1795 -0.4672
  934MOL0     C26002  11.094   4.266   6.629  0.3091 -0.0307 -0.8863
  934MOL0     O26003  10.945   4.590   6.827 -0.3933  0.2124 -0.1856
  934MOL0     C26004  10.654   4.393   6.799  0.3533  0.7828  0.8798
  934MOL0     C26005  10.524   4.372   6.828  0.3217  1.0323  0.6523
  934MOL0     N26006  10.193   4.029   6.660 -0.0523 -0.0399  0.3766
  934MOL0     N26007  10.294   3.949   6.675  0.2516  0.0298  0.1325
  934MOL0     C26008  11.218   3.763   7.299  0.2203  0.7079 -0.2643
  934MOL0     C26009  11.299   3.728   7.403 -0.0600  0.0745  1.3625
  934MOL0     C26010  11.499   3.528   7.741 -0.0509  0.2561 -0.5102
  934MOL0     C26011  11.642   3.541   7.713  0.2348 -0.7923 -0.9167
  934MOL0     C26012  11.735   3.517   7.808 -0.2720  0.0473  1.2925
  934MOL0     C26013  11.706   3.477   7.938 -0.2985 -0.3929 -0.0882
  934MOL0     O26014  11.806   3.438   8.023 -0.4630 -0.3518 -0.1248
  934MOL0     C26015  11.794   3.435   8.160 -0.3930  0.5151  0.0547
  934MOL0     C26016  11.928   3.485   8.208 -0.6953 -0.5897 -0.8623
  934MOL0     C26017  12.048   3.386   8.213  0.5104  0.4974 -0.3221
  934MOL0     C26018  12.018   3.271   8.327  0.4135  0.0018  0.6574
  934MOL0     C26019  12.138   3.196   8.365 -0.0909 -0.3546  0.0704
  934MOL0     C26020  12.231   3.141   8.414 -0.8141 -0.4218  0.4876
  934MOL0     C26021  11.569   3.460   7.967 -0.6522 -0.3460  0.1207
  934MOL0     C26022  11.473   3.488   7.882  0.3744 -0.1084 -0.0815
  934MOL0     H26023  11.465   3.461   7.277  4.7206  2.5515  2.1665
  934MOL0     H26024  11.349   3.532   7.070  1.4096  0.4817 -0.4827
  934MOL0     H26025  11.280   3.889   7.035 -0.1862 -1.2502  2.6681
  934MOL0     H26026  11.223   3.789   6.899 -3.0079 -0.3591 -0.5607
  934MOL0     H26027  11.028   3.937   7.068 -3.1162 -3.3047 -0.7679
  934MOL0     H26028  11.099   4.011   6.919  1.0276  1.1404  0.3810
  934MOL0     H26029  10.972   3.890   6.776 -0.7764  1.2238 -0.4409
  934MOL0     H26030  10.990   3.745   6.889  1.6690  0.3147  0.7443
  934MOL0     H26031  10.780   3.797   6.881  2.0029 -0.8023  0.8552
  934MOL0     H26032  10.833   3.852   7.035 -0.1854 -2.1910 -0.0031
  934MOL0     H26033  10.793   4.082   6.975 -1.6833  0.4934  0.3874
  934MOL0     H26034  10.843   4.062   6.810 -1.0504  4.1463  0.8097
  934MOL0     H26035  10.622   4.122   6.798  2.7946  1.0831  0.8635
  934MOL0     H26036  10.619   3.955   6.756  0.1780 -1.2013  1.9310
  934MOL0     H26037  10.590   3.932   7.031  1.4371 -0.5886 -0.3460
  934MOL0     H26038  10.493   4.067   6.999  0.0885 -0.0356  0.0068
  934MOL0     H26039  10.397   3.820   6.968  2.6199 -0.9766 -0.0229
  934MOL0     H26040  10.472   3.815   6.808 -0.9964  1.5275 -1.6488
  934MOL0     H26041  10.218   4.030   6.983 -1.5227  1.3074 -0.2549
  934MOL0     H26042  10.010   4.215   6.722  1.9616  4.3953  2.8895
  934MOL0     H26043   9.926   4.088   6.808  2.2245 -2.6642  0.1834
  934MOL0     H26044  10.035   4.170   7.025  0.3549 -1.2293 -0.9499
  934MOL0     H26045   9.921   4.282   6.941  0.9866  2.4795 -0.8134
  934MOL0     H26046  10.088   4.414   7.029  2.9487  0.6652 -0.4520
  934MOL0     H26047  10.078   4.428   6.852 -0.7988  1.8837  0.7877
  934MOL0     H26048  10.267   4.290   6.832  2.8993 -0.8552  0.6003
  934MOL0     H26049  10.269   4.280   7.020 -3.3819 -0.4480  0.1923
  934MOL0     H26050  10.508   4.590   7.092 -0.4676 -1.2769  1.6141
  934MOL0     H26051  10.804   4.702   7.025  0.3563 -0.9009 -0.3354
  934MOL0     H26052  10.709   4.682   7.159  0.4513  0.7653  0.2184
  934MOL0     H26053  10.853   4.575   7.126 -0.5143 -1.2188 -1.6609
  934MOL0     H26054  11.041   4.603   6.598  0.5017 -0.3086  0.6957
  934MOL0     H26055  11.243   4.590   6.490  0.3599 -0.6890 -0.7124
  934MOL0     H26056  11.533   4.259   6.464 -0.2982 -2.9547 -1.2685
  934MOL0     H26057  11.400   4.203   6.364  0.1801 -1.2140  3.8416
  934MOL0     H26058  11.620   4.259   6.248  1.4216  2.5569 -1.7296
  934MOL0     H26059  11.463   4.324   6.190 -1.2080 -2.5904  0.0595
  934MOL0     H26060  11.695   4.459   6.340  0.6668  4.2768  0.1696
  934MOL0     H26061  11.538   4.545   6.295 -0.0409  0.5168  0.3237
  934MOL0     H26062  11.745   4.579   6.162 -0.9318  0.6758  4.4095
  934MOL0     H26063  11.717   4.426   6.088  1.8737  0.4523  1.9029
  934MOL0     H26064  11.479   4.606   6.103 -0.7665 -1.9677  2.5994
  934MOL0     H26065  11.526   4.489   5.981  0.6064 -1.3107  0.9579
  934MOL0     H26066  11.654   4.769   6.033  1.5850 -0.2074  0.5958
  934MOL0     H26067  11.714   4.654   5.913 -1.4864 -1.5594  0.6647
  934MOL0     H26068  11.440   4.757   5.912  0.5849 -0.4779  2.0608
  934MOL0     H26069  11.513   4.654   5.783  3.0638  1.1935 -2.7816
  934MOL0     H26070  11.673   4.866   5.735  1.0606 -0.0609 -0.1165
  934MOL0     H26071  11.610   4.926   5.890  0.7448 -0.5396  0.6496
  934MOL0     H26072  11.219   4.158   6.494 -5.0416  0.1914 -6.8257
  934MOL0     H26073  11.047   4.183   6.679  0.0848  1.5757  1.7657
  934MOL0     H26074  10.694   4.352   6.707  0.2684 -1.0654  1.6247
  934MOL0     H26075  10.459   4.329   6.752  1.7292  1.5924 -0.9495
  934MOL0     H26076  11.147   3.845   7.308 -2.6548 -1.6766  0.3380
  934MOL0     H26077  11.284   3.788   7.492  2.4090  0.7423  1.4017
  934MOL0     H26078  11.667   3.559   7.609 -2.8426  0.1323 -1.5889
  934MOL0     H26079  11.840   3.527   7.782 -1.0567  1.8553 -1.7988
  934MOL0     H26080  11.718   3.508   8.191 -1.8299 -0.5300 -0.8676
  934MOL0     H26081  11.760   3.339   8.199 -0.7043  0.7167  0.2949
  934MOL0     H26082  11.916   3.516   8.312  1.7485 -2.9044  0.2259
  934MOL0     H26083  11.950   3.582   8.162  1.3619 -0.3336  0.5587
  934MOL0     H26084  12.142   3.440   8.232 -0.6189  2.6004 -0.5026
  934MOL0     H26085  12.064   3.340   8.114  0.8843 -0.2909  0.0911
  934MOL0     H26086  11.942   3.196   8.304  0.2718  0.2022  0.4713
  934MOL0     H26087  11.993   3.324   8.419  2.8241  0.7186  0.9843
  934MOL0     H26088  12.305   3.075   8.455 -0.3188  0.0671  0.4062
  934MOL0     H26089  11.544   3.427   8.067 -1.3182  2.1036  0.8288
  934MOL0     H26090  11.372   3.496   7.920  0.6244  0.3986  0.4947
  935MOL0     O26091   4.167  11.497   9.623  0.0651 -0.4624 -0.2709
  935MOL0     C26092   4.120  11.529   9.738 -1.1364  0.3712  0.2822
  935MOL0     O26093   4.173  11.492   9.855 -0.7661  0.4441  0.2072
  935MOL0     C26094   4.281  11.404   9.844  0.4489  0.2175  0.6676
  935MOL0     C26095   4.253  11.263   9.832 -1.0613  0.3884 -0.8248
  935MOL0     C26096   4.361  11.163   9.821 -0.2142 -0.2310 -0.4775
  935MOL0     C26097   4.490  11.210   9.815 -0.3436  0.7924  1.2178
  935MOL0     O26098   4.605  11.141   9.792  0.0421  0.2800  0.3403
  935MOL0     C26099   4.601  11.027   9.695 -0.1084  0.7937  0.1766
  935MOL0     C26100   4.571  10.876   9.746 -0.1755 -0.7244  0.4729
  935MOL0     C26101   4.669  10.822   9.851 -0.1668 -0.3338  0.0853
  935MOL0     C26102   4.623  10.687   9.900  0.3899  0.1330 -1.3094
  935MOL0     C26103   4.700  10.651  10.026 -0.5920  0.1114 -0.2245
  935MOL0     C26104   4.645  10.521  10.087 -0.5628  0.1853  0.0476
  935MOL0     C26105   4.695  10.507  10.235  0.0769 -0.3419 -0.2614
  935MOL0     C26106   4.653  10.367  10.295 -0.0915 -0.3502 -0.1769
  935MOL0     N26107   4.519  10.359  10.349 -0.6494 -0.2834 -0.3952
  935MOL0     C26108   4.492  10.398  10.478 -0.2109 -0.0554 -0.5368
  935MOL0     C26109   4.356  10.398  10.477  0.5278  0.1331 -0.2514
  935MOL0     C26110   4.262  10.446  10.592 -0.1099 -0.0515 -0.8291
  935MOL0     C26111   4.310  10.552  10.685 -1.1058 -0.0630  0.5973
  935MOL0     C26112   4.203  10.598  10.789  0.4378  0.2295 -0.7664
  935MOL0     C26113   4.264  10.703  10.883  0.2958  0.8804 -0.9290
  935MOL0     O26114   4.180  10.713  11.002  0.0972  0.1796 -0.2420
  935MOL0     C26115   4.120  10.836  11.027  1.4180 -0.1635 -0.2854
  935MOL0     C26116   3.976  10.833  11.059 -0.6910 -0.2130  0.9303
  935MOL0     C26117   3.906  10.948  11.100 -1.1916  1.0837 -0.5822
  935MOL0     C26118   3.760  10.939  11.131  0.8399  0.3691  0.7677
  935MOL0     C26119   3.975  11.070  11.129 -0.2373  0.7761  0.3877
  935MOL0     C26120   3.905  11.192  11.184 -0.4375  0.9356  1.0687
  935MOL0     O26121   3.788  11.225  11.125 -0.3014  0.4353 -0.6172
  935MOL0     C26122   3.688  11.309  11.172 -0.6271 -0.3064 -0.2957
  935MOL0     C26123   3.664  11.321  11.309  0.1754  0.5872  0.1203
  935MOL0     C26124   3.562  11.407  11.353 -0.3510 -0.5539 -0.2074
  935MOL0     C26125   3.495  11.492  11.268  0.1157  0.8799  0.3808
  935MOL0     O26126   3.396  11.573  11.307 -1.0265 -0.3648  0.4279
  935MOL0     C26127   3.405  11.625  11.439 -0.0292  0.0160 -0.9321
  935MOL0     C26128   3.295  11.729  11.450  0.3458  0.2943 -0.3730
  935MOL0     C26129   3.148  11.667  11.440  0.6397 -0.0142  0.0391
  935MOL0     C26130   3.124  11.607  11.578 -0.2250 -0.3012 -0.2592
  935MOL0     C26131   2.979  11.559  11.594  0.4139  0.4080  0.0242
  935MOL0     C26132   2.972  11.447  11.695  0.5373  0.2758 -0.1168
  935MOL0     C26133   2.828  11.387  11.690 -0.2466  0.0324  0.2124
  935MOL0     C26134   2.823  11.253  11.775 -0.5080  0.1556  0.0488
  935MOL0    Cl26135   2.654  11.177  11.785  0.1817 -0.2896  0.6361
  935MOL0     C26136   3.519  11.477  11.123 -0.1363  0.0619 -1.1037
  935MOL0     C26137   3.615  11.388  11.080  0.2225  0.8733  0.4724
  935MOL0     O26138   3.967  11.271  11.255  0.0140  0.2469  0.4921
  935MOL0     C26139   4.119  11.062  11.116 -0.3175  1.2385  0.2095
  935MOL0     C26140   4.185  10.949  11.073  0.3397  0.4068 -0.1791
  935MOL0     N26141   4.297  10.365  10.353 -0.9176  0.2187 -0.1245
  935MOL0     N26142   4.396  10.348  10.276  0.2103  0.4418 -0.0379
  935MOL0     C26143   4.518  11.350   9.831  0.7419  0.0589  0.8516
  935MOL0     C26144   4.416  11.444   9.856 -0.3100  1.4140  0.0417
  935MOL0     C26145   4.003  11.620   9.728  0.3392  0.6829 -1.5698
  935MOL0     C26146   3.960  11.666   9.855 -0.2848  0.1962  0.5685
  935MOL0     C26147   3.869  11.766   9.854  0.4301  0.2508  0.0276
  935MOL0     C26148   3.799  11.804   9.735 -0.2907  0.3529  0.4602
  935MOL0     O26149   3.697  11.901   9.735  0.0209 -0.5224  0.1645
  935MOL0     C26150   3.647  11.963   9.862  0.2776  0.3872 -0.2241
  935MOL0     C26151   3.548  11.861   9.912  0.4770 -0.3797 -0.9203
  935MOL0     C26152   3.426  11.837   9.822  0.4343 -0.7287  0.0195
  935MOL0     C26153   3.308  11.782   9.914  0.4610  0.5237 -0.5362
  935MOL0     C26154   3.178  11.756   9.836 -0.9359  1.4489  0.4913
  935MOL0     C26155   3.092  11.694   9.767  0.2134 -0.7587  0.4205
  935MOL0     C26156   3.832  11.742   9.610  0.0889 -0.4803  0.0781
  935MOL0     C26157   3.933  11.648   9.609  0.4441  0.1178  0.5311
  935MOL0     H26158   4.148  11.237   9.837 -0.5280 -2.3846 -2.0776
  935MOL0     H26159   4.333  11.059   9.807  2.3969 -0.9423 -1.0491
  935MOL0     H26160   4.547  11.052   9.603  3.5679 -0.2793 -2.5092
  935MOL0     H26161   4.703  11.014   9.657  0.7251 -2.9585  3.0039
  935MOL0     H26162   4.474  10.878   9.796 -0.4970  2.6202 -0.0245
  935MOL0     H26163   4.559  10.807   9.662  1.4388 -0.4214 -0.0470
  935MOL0     H26164   4.768  10.830   9.805 -0.5717  3.4074 -0.5113
  935MOL0     H26165   4.675  10.889   9.937 -0.4010 -1.1681  0.7575
  935MOL0     H26166   4.516  10.680   9.921  0.6869 -2.7964 -0.2665
  935MOL0     H26167   4.661  10.612   9.829  2.3006  0.6096 -0.8602
  935MOL0     H26168   4.803  10.648   9.992  0.0802  3.7213  1.0321
  935MOL0     H26169   4.695  10.725  10.107  0.0152  0.0575 -0.1371
  935MOL0     H26170   4.535  10.522  10.090 -0.6719  1.4179 -2.4466
  935MOL0     H26171   4.666  10.433  10.027 -1.6601  0.8687 -1.3991
  935MOL0     H26172   4.804  10.510  10.237  0.2827 -2.3490 -2.8716
  935MOL0     H26173   4.662  10.595  10.290 -1.5066 -0.3117 -1.1946
  935MOL0     H26174   4.724  10.339  10.374  0.6971  2.6772  0.3193
  935MOL0     H26175   4.655  10.288  10.219  0.6019 -1.2940  0.7913
  935MOL0     H26176   4.559  10.422  10.559 -2.3677  0.6594  1.1290
  935MOL0     H26177   4.173  10.488  10.543 -2.6992 -0.0540  3.3488
  935MOL0     H26178   4.233  10.359  10.651  2.4329 -1.0670 -0.9524
  935MOL0     H26179   4.337  10.640  10.626 -1.5447 -0.8512 -0.8120
  935MOL0     H26180   4.396  10.508  10.737 -1.5452 -0.1550  1.2593
  935MOL0     H26181   4.177  10.511  10.850  1.3296  0.8969  0.6228
  935MOL0     H26182   4.117  10.652  10.747 -1.0505 -0.1546  1.5862
  935MOL0     H26183   4.280  10.799  10.834  0.0578  2.7949  2.4980
  935MOL0     H26184   4.367  10.669  10.900 -0.4100 -0.6907  0.4340
  935MOL0     H26185   3.928  10.736  11.046 -1.6722  0.4101 -0.2210
  935MOL0     H26186   3.720  10.934  11.232 -4.5822  0.6075 -1.0594
  935MOL0     H26187   3.703  11.014  11.075 -0.4680 -0.6836  0.6413
  935MOL0     H26188   3.716  10.858  11.072  2.1795  0.9218 -1.0768
  935MOL0     H26189   3.717  11.251  11.373  3.0770  1.3562 -1.2614
  935MOL0     H26190   3.538  11.395  11.458  0.6516 -0.4198  0.0464
  935MOL0     H26191   3.411  11.546  11.514  2.4569  0.1588 -0.9099
  935MOL0     H26192   3.505  11.667  11.430  0.2230 -0.4522 -0.3924
  935MOL0     H26193   3.311  11.798  11.534 -2.9912  0.2272  0.4815
  935MOL0     H26194   3.305  11.794  11.362  3.9662 -1.1320 -1.1528
  935MOL0     H26195   3.121  11.602  11.356  0.8321 -0.1534  0.0858
  935MOL0     H26196   3.084  11.756  11.435  0.9070  0.2149  0.6124
  935MOL0     H26197   3.193  11.524  11.595  2.3369  1.9536  1.1045
  935MOL0     H26198   3.145  11.676  11.660 -0.3398  1.2176 -1.4668
  935MOL0     H26199   2.937  11.524  11.500 -1.1389  1.7231  0.1972
  935MOL0     H26200   2.915  11.642  11.625 -0.2554  0.1918 -0.7446
  935MOL0     H26201   3.042  11.367  11.669 -0.4920 -1.2033  1.3913
  935MOL0     H26202   2.988  11.477  11.799  0.0225 -0.9769  0.3505
  935MOL0     H26203   2.794  11.384  11.586 -1.2457  1.2115  0.4793
  935MOL0     H26204   2.756  11.451  11.742  1.2816  1.1958  0.9614
  935MOL0     H26205   2.845  11.278  11.878 -1.6772  1.1900  0.0696
  935MOL0     H26206   2.905  11.186  11.747 -1.0545 -0.0768 -1.0869
  935MOL0     H26207   3.461  11.533  11.050 -0.9767 -0.4628 -0.8497
  935MOL0     H26208   3.641  11.383  10.975 -0.2995 -1.6570  0.4030
  935MOL0     H26209   4.184  11.146  11.135 -1.8047  2.2549  1.0078
  935MOL0     H26210   4.293  10.951  11.074  0.3590 -0.3938  0.1055
  935MOL0     H26211   4.618  11.386   9.805 -0.2185  0.3400 -3.1686
  935MOL0     H26212   4.431  11.549   9.879 -3.9339  1.8782  0.8967
  935MOL0     H26213   4.004  11.646   9.953 -3.1461 -0.6434  1.7901
  935MOL0     H26214   3.849  11.797   9.956  0.3444 -2.2535  0.8515
  935MOL0     H26215   3.721  11.979   9.941  1.1143 -3.2639 -0.0579
  935MOL0     H26216   3.596  12.056   9.835  3.3082  2.0160 -0.8085
  935MOL0     H26217   3.511  11.905  10.005  0.3093 -0.6976 -0.8329
  935MOL0     H26218   3.593  11.769   9.951 -1.0455 -1.1581 -0.9387
  935MOL0     H26219   3.457  11.763   9.748 -0.0831  1.3753 -2.4253
  935MOL0     H26220   3.398  11.929   9.772 -0.3820 -0.5381  0.8030
  935MOL0     H26221   3.283  11.844  10.000  1.1161 -1.7043  1.3507
  935MOL0     H26222   3.349  11.695   9.966 -0.8008 -0.5190 -1.2155
  935MOL0     H26223   2.996  11.659   9.737 -1.5035  1.7995  2.4203
  935MOL0     H26224   3.780  11.764   9.517 -0.4430 -0.1332  0.4524
  935MOL0     H26225   3.979  11.617   9.515  1.9273  1.9596  0.5780
  936MOL0     O26226   0.497   4.386   4.984 -1.0552  0.0956 -0.7671
  936MOL0     C26227   0.591   4.322   4.939 -0.1787  0.9561  0.3534
  936MOL0     O26228   0.586   4.242   4.824  0.4716 -0.4015  0.5065
  936MOL0     C26229   0.479   4.222   4.745 -0.8333  0.2848  0.4357
  936MOL0     C26230   0.501   4.173   4.617  0.5064  0.3047  0.0751
  936MOL0     C26231   0.399   4.133   4.531  0.4751  0.5830  0.1369
  936MOL0     C26232   0.260   4.137   4.585 -0.2489  0.8149  0.7290
  936MOL0     O26233   0.147   4.086   4.521  0.0826  0.4957  0.3585
  936MOL0     C26234   0.175   4.020   4.394  0.8903 -0.7352  0.0844
  936MOL0     C26235   0.069   3.913   4.369 -0.5186 -0.0449 -1.0907
  936MOL0     C26236  -0.065   3.976   4.349  0.6671 -0.0708 -0.0971
  936MOL0     C26237  -0.076   4.062   4.222  0.5296  0.3304  1.0018
  936MOL0     C26238  -0.091   3.968   4.108 -0.2182 -0.1175  0.5723
  936MOL0     C26239  -0.126   4.071   3.983 -0.2588  1.4549 -0.5035
  936MOL0     C26240  -0.218   4.014   3.872 -0.6148  0.2734  0.8747
  936MOL0     C26241  -0.135   3.914   3.787  0.9129 -0.5144 -0.7062
  936MOL0     N26242  -0.205   3.866   3.665  0.4436 -0.3329  0.0775
  936MOL0     C26243  -0.328   3.928   3.626  0.5962  0.5285  0.6011
  936MOL0     C26244  -0.354   3.875   3.503  0.2675  0.0822 -0.8421
  936MOL0     C26245  -0.475   3.898   3.418 -1.0405 -0.6832 -0.7312
  936MOL0     C26246  -0.470   4.043   3.364 -0.0994  0.0073 -0.0389
  936MOL0     C26247  -0.590   4.071   3.270  1.0823  0.4421 -0.1870
  936MOL0     C26248  -0.624   4.219   3.264  0.4160 -0.1603 -0.5458
  936MOL0     O26249  -0.693   4.264   3.379  0.5534  0.9063  0.6855
  936MOL0     C26250  -0.744   4.386   3.356  0.0534 -0.3402  0.1533
  936MOL0     C26251  -0.698   4.500   3.441 -0.9901  1.1026  0.7947
  936MOL0     C26252  -0.772   4.613   3.444  0.1176 -0.6679 -0.8240
  936MOL0     C26253  -0.719   4.722   3.542  0.2846 -0.8165  0.7971
  936MOL0     C26254  -0.884   4.629   3.360  1.0872 -0.5058 -1.2475
  936MOL0     C26255  -0.973   4.749   3.354 -0.7318 -0.4433 -0.0258
  936MOL0     O26256  -0.967   4.828   3.464 -0.6561  0.0490  0.6418
  936MOL0     C26257  -1.058   4.929   3.480 -0.4040 -0.1685  0.6364
  936MOL0     C26258  -1.132   4.946   3.597  0.3748  0.5000  0.7305
  936MOL0     C26259  -1.202   5.059   3.626 -0.7151 -1.1047  0.0173
  936MOL0     C26260  -1.201   5.167   3.526 -0.8708 -0.4693 -0.3595
  936MOL0     O26261  -1.279   5.277   3.556 -0.1670 -0.1521  0.3803
  936MOL0     C26262  -1.299   5.385   3.462  0.6237 -1.0447  0.0094
  936MOL0     C26263  -1.224   5.505   3.523 -0.3698 -0.0262 -0.0828
  936MOL0     C26264  -1.231   5.634   3.428 -0.4657  0.1154  0.2188
  936MOL0     C26265  -1.142   5.601   3.305  0.7358  0.0926  1.0706
  936MOL0     C26266  -1.135   5.714   3.202 -0.5828  0.0366 -0.0296
  936MOL0     C26267  -1.107   5.849   3.267 -1.0790  0.4255  0.5785
  936MOL0     C26268  -1.030   5.950   3.165  0.2401 -0.5487 -0.7723
  936MOL0     C26269  -1.117   5.992   3.053 -0.5579  0.9395  0.1531
  936MOL0    Cl26270  -1.238   6.095   3.107 -0.1055  0.1626  0.0330
  936MOL0     C26271  -1.124   5.151   3.410 -0.1685  0.2214 -0.2365
  936MOL0     C26272  -1.059   5.034   3.388 -0.0401  0.4253 -0.7058
  936MOL0     O26273  -1.039   4.764   3.252 -0.2322 -0.9244  0.0023
  936MOL0     C26274  -0.912   4.523   3.270  0.3292 -0.5489 -0.7753
  936MOL0     C26275  -0.851   4.406   3.265 -0.2421 -0.5606 -1.1001
  936MOL0     N26276  -0.256   3.782   3.484 -0.0448 -0.7739 -0.0661
  936MOL0     N26277  -0.161   3.776   3.571  0.2719 -1.1193  0.1123
  936MOL0     C26278   0.236   4.172   4.712  0.3041  0.5055  0.3231
  936MOL0     C26279   0.340   4.225   4.790  0.1787  1.0680  0.3727
  936MOL0     C26280   0.726   4.322   5.009 -0.1317 -1.5043  0.3596
  936MOL0     C26281   0.838   4.253   4.964  0.1707 -0.3531  0.4328
  936MOL0     C26282   0.964   4.264   5.021  0.4386 -1.0273  0.0698
  936MOL0     C26283   0.978   4.342   5.136  0.0673  1.0549  0.6510
  936MOL0     O26284   1.099   4.325   5.208 -0.0957 -0.6438  0.4726
  936MOL0     C26285   1.149   4.421   5.304  0.7450  0.5675 -0.1723
  936MOL0     C26286   1.250   4.521   5.240  0.5138 -0.5947  0.4297
  936MOL0     C26287   1.189   4.659   5.217 -0.1571 -0.6345 -0.5620
  936MOL0     C26288   1.164   4.728   5.356  0.2592 -0.0167 -0.2659
  936MOL0     C26289   1.281   4.807   5.398 -0.8430  0.0541  0.2736
  936MOL0     C26290   1.383   4.854   5.447 -0.7048 -0.5469  0.5094
  936MOL0     C26291   0.866   4.412   5.185  0.0821  0.4357  0.0064
  936MOL0     C26292   0.740   4.408   5.111 -0.7665  0.5615  0.8825
  936MOL0     H26293   0.606   4.167   4.590  1.1758  0.9861  2.2752
  936MOL0     H26294   0.429   4.092   4.435 -1.1222 -0.0790 -0.1223
  936MOL0     H26295   0.188   4.090   4.311  0.4518  1.1620  1.5528
  936MOL0     H26296   0.265   3.958   4.405  0.8506 -0.9578 -0.7598
  936MOL0     H26297   0.099   3.876   4.271 -2.7964  0.4477 -2.0289
  936MOL0     H26298   0.069   3.840   4.451 -1.3464  2.0756  0.9291
  936MOL0     H26299  -0.134   3.892   4.340  1.9056 -1.0459 -0.7548
  936MOL0     H26300  -0.101   4.032   4.437 -1.5277  1.4871 -1.8520
  936MOL0     H26301  -0.171   4.115   4.225 -0.3820 -1.1483 -0.2018
  936MOL0     H26302  -0.002   4.142   4.212  0.1183  0.6222  0.1656
  936MOL0     H26303  -0.000   3.913   4.079  0.4402  0.8734  0.7157
  936MOL0     H26304  -0.172   3.897   4.128 -0.3356 -0.1749 -0.0671
  936MOL0     H26305  -0.181   4.161   4.010  0.9837  2.2815 -0.6569
  936MOL0     H26306  -0.034   4.103   3.934  0.6106  1.0744  0.8135
  936MOL0     H26307  -0.312   3.973   3.912 -0.2631  0.7624  2.2401
  936MOL0     H26308  -0.239   4.098   3.805  0.6093  0.0687  0.2189
  936MOL0     H26309  -0.112   3.830   3.854 -3.5477  0.2963  2.2943
  936MOL0     H26310  -0.039   3.948   3.747  0.3707 -1.3849 -2.8965
  936MOL0     H26311  -0.384   4.004   3.681  3.6364  2.9840  0.6139
  936MOL0     H26312  -0.478   3.827   3.335 -1.6322 -1.1260 -0.3362
  936MOL0     H26313  -0.559   3.891   3.488  0.3675 -1.8982  0.9231
  936MOL0     H26314  -0.373   4.058   3.315  0.1053  0.1557  0.3963
  936MOL0     H26315  -0.473   4.105   3.454 -2.2139  0.1247 -0.1396
  936MOL0     H26316  -0.679   4.014   3.299  1.5518  0.7618  2.1378
  936MOL0     H26317  -0.552   4.027   3.178  0.1117 -0.9159  0.0347
  936MOL0     H26318  -0.686   4.235   3.175 -0.6498 -1.0527  0.0086
  936MOL0     H26319  -0.536   4.283   3.253 -0.7282  1.8031  0.9944
  936MOL0     H26320  -0.615   4.479   3.507  0.0321 -0.2846 -0.8639
  936MOL0     H26321  -0.629   4.691   3.595  0.5028 -2.1472 -0.2950
  936MOL0     H26322  -0.688   4.809   3.484  1.4915 -0.8583  1.3515
  936MOL0     H26323  -0.791   4.743   3.622  0.0267 -3.5086  1.3586
  936MOL0     H26324  -1.143   4.864   3.668  1.5963  0.6532  1.1213
  936MOL0     H26325  -1.266   5.054   3.714  0.0363  0.4066  0.6862
  936MOL0     H26326  -1.279   5.359   3.357 -0.0324 -0.4819 -0.2714
  936MOL0     H26327  -1.405   5.413   3.465  0.7333 -0.6660  0.4151
  936MOL0     H26328  -1.261   5.527   3.623 -0.9935 -2.3101  0.2603
  936MOL0     H26329  -1.119   5.478   3.535 -0.0373  1.2220 -0.0762
  936MOL0     H26330  -1.200   5.722   3.486  0.5848  0.4214 -0.7731
  936MOL0     H26331  -1.331   5.664   3.394  0.6387 -0.2191 -3.7938
  936MOL0     H26332  -1.037   5.582   3.330  1.5401  2.7900  0.1723
  936MOL0     H26333  -1.189   5.517   3.254  0.3765  0.9052  0.0161
  936MOL0     H26334  -1.226   5.728   3.142 -0.1350 -0.6542 -0.9027
  936MOL0     H26335  -1.057   5.694   3.128 -1.4105  0.2467 -0.9872
  936MOL0     H26336  -1.204   5.893   3.295 -2.1401  1.9301 -4.4536
  936MOL0     H26337  -1.042   5.832   3.353  0.6839  0.9310 -0.6052
  936MOL0     H26338  -0.944   5.896   3.124  1.3995 -1.1226  2.1111
  936MOL0     H26339  -1.001   6.040   3.220 -0.2020 -0.6409 -0.3745
  936MOL0     H26340  -1.161   5.906   3.001 -0.2257  2.0113 -2.0266
  936MOL0     H26341  -1.055   6.048   2.982 -1.1740  2.1588  0.5571
  936MOL0     H26342  -1.112   5.222   3.329 -0.6924 -1.1084 -1.5175
  936MOL0     H26343  -1.002   5.016   3.297 -0.1321 -0.7589 -0.5394
  936MOL0     H26344  -0.993   4.546   3.201  1.4576  1.8498 -1.4020
  936MOL0     H26345  -0.889   4.321   3.209 -3.0030  1.5567 -2.6932
  936MOL0     H26346   0.137   4.166   4.757  0.5151  1.7188  0.9979
  936MOL0     H26347   0.321   4.257   4.892  4.3795  2.1504  1.0020
  936MOL0     H26348   0.830   4.191   4.875  0.0562  1.3632 -0.7988
  936MOL0     H26349   1.056   4.213   4.995  0.8279 -1.6604  2.4604
  936MOL0     H26350   1.069   4.478   5.352 -2.0238 -1.5409 -2.0399
  936MOL0     H26351   1.195   4.362   5.384  0.8383  2.7114  1.4631
  936MOL0     H26352   1.300   4.504   5.144 -2.0015 -0.8683 -0.9170
  936MOL0     H26353   1.323   4.535   5.320  1.2434  1.7355 -0.5771
  936MOL0     H26354   1.094   4.652   5.165 -2.0065 -1.8510  2.6502
  936MOL0     H26355   1.258   4.729   5.169 -1.2676  1.5014  0.7853
  936MOL0     H26356   1.143   4.658   5.437  2.7225 -1.4894 -0.7786
  936MOL0     H26357   1.083   4.798   5.332 -0.3802 -1.2447 -1.8687
  936MOL0     H26358   1.463   4.908   5.494 -2.0871  0.1200  2.1782
  936MOL0     H26359   0.871   4.483   5.267 -2.0124 -0.7537  1.2427
  936MOL0     H26360   0.648   4.457   5.144 -2.8160 -1.6967 -1.0915
  937MOL0     O26361   7.388   7.574   9.439 -0.1129 -0.0647 -0.8607
  937MOL0     C26362   7.404   7.465   9.494  0.4016  0.1085  0.8553
  937MOL0     O26363   7.314   7.404   9.571 -0.7404 -0.8705 -0.2437
  937MOL0     C26364   7.200   7.468   9.617 -0.3190 -0.5188 -0.0285
  937MOL0     C26365   7.124   7.564   9.558  0.8197  0.2762 -0.7286
  937MOL0     C26366   7.014   7.625   9.633 -0.3301  0.3127  0.0626
  937MOL0     C26367   6.982   7.580   9.762 -0.2942 -0.4409 -0.7222
  937MOL0     O26368   6.867   7.612   9.838  0.0460 -0.1943 -0.0811
  937MOL0     C26369   6.792   7.730   9.807  0.0327  0.2191  1.0119
  937MOL0     C26370   6.685   7.737   9.906  0.3165  0.5280 -0.4208
  937MOL0     C26371   6.606   7.872   9.885  0.1676  0.9191  0.0303
  937MOL0     C26372   6.500   7.890   9.987  0.0126  0.6233 -0.2062
  937MOL0     C26373   6.426   8.020   9.973  1.0471  0.1597 -0.2881
  937MOL0     C26374   6.350   8.063  10.098  0.6542  0.7444 -0.3318
  937MOL0     C26375   6.256   8.183  10.085 -0.0795  0.1933 -1.1387
  937MOL0     C26376   6.188   8.199  10.217 -0.2279 -0.3490 -1.1116
  937MOL0     N26377   6.119   8.325  10.227  0.4595  0.3989 -0.2625
  937MOL0     C26378   6.021   8.365  10.141  0.2875 -0.2931  0.0768
  937MOL0     C26379   5.973   8.480  10.195 -0.4724 -0.5813 -0.4933
  937MOL0     C26380   5.871   8.567  10.129  0.4069 -0.3337  0.2640
  937MOL0     C26381   5.802   8.658  10.226 -0.3839  0.0678  0.6895
  937MOL0     C26382   5.677   8.720  10.170  0.1260 -0.4846  0.0744
  937MOL0     C26383   5.567   8.608  10.148 -0.8824  0.3357  0.1874
  937MOL0     O26384   5.552   8.515  10.258  0.8014  0.5597  0.4047
  937MOL0     C26385   5.521   8.392  10.210  0.7621  0.0575 -0.3290
  937MOL0     C26386   5.626   8.296  10.218  0.3787  0.0167 -0.6279
  937MOL0     C26387   5.602   8.161  10.199 -0.2748  0.1267 -0.4415
  937MOL0     C26388   5.718   8.073  10.200 -0.2889 -0.4290  0.5041
  937MOL0     C26389   5.467   8.112  10.186  0.4657  0.3552  1.0034
  937MOL0     C26390   5.431   7.965  10.165 -0.9279 -0.8241 -0.4367
  937MOL0     O26391   5.291   7.950  10.137  0.1957  0.2372  0.1892
  937MOL0     C26392   5.206   7.851  10.186  0.1377 -1.1048  0.1120
  937MOL0     C26393   5.247   7.750  10.270 -0.5188 -0.1071  0.6301
  937MOL0     C26394   5.162   7.641  10.286  0.1329 -0.4535  0.5026
  937MOL0     C26395   5.035   7.636  10.232 -0.6566  0.3141  0.1605
  937MOL0     O26396   4.966   7.532  10.284  0.0399 -0.0388 -0.3792
  937MOL0     C26397   4.825   7.550  10.312 -0.0251  0.5474  1.4200
  937MOL0     C26398   4.797   7.629  10.436  0.2903 -0.6506  0.0153
  937MOL0     C26399   4.832   7.556  10.566 -0.1625  0.9058 -0.4260
  937MOL0     C26400   4.959   7.596  10.633 -0.5323 -0.1402 -0.2157
  937MOL0     C26401   4.998   7.519  10.758  0.3039  0.2589 -1.3693
  937MOL0     C26402   5.145   7.531  10.801  0.4856 -0.1858 -0.2282
  937MOL0     C26403   5.185   7.667  10.849  0.1992 -0.6994  0.0047
  937MOL0     C26404   5.333   7.695  10.825  0.0333 -0.4995  0.1656
  937MOL0    Cl26405   5.363   7.714  10.646  0.1805  0.0834  0.0991
  937MOL0     C26406   5.004   7.737  10.139  0.5768 -0.3583  0.7338
  937MOL0     C26407   5.091   7.841  10.113  0.2944 -0.1597  0.2575
  937MOL0     O26408   5.516   7.877  10.183 -0.0998 -0.2448 -0.2558
  937MOL0     C26409   5.374   8.217  10.169 -0.2569  0.7559  0.0213
  937MOL0     C26410   5.392   8.350  10.181 -0.6318 -0.3491 -0.7428
  937MOL0     N26411   6.058   8.504  10.308  1.1844  0.7684  0.0458
  937MOL0     N26412   6.134   8.410  10.326 -0.8767 -0.2783  0.8637
  937MOL0     C26413   7.053   7.468   9.813  0.5805 -0.2706  0.0619
  937MOL0     C26414   7.155   7.411   9.738 -0.5377  0.1363 -0.5356
  937MOL0     C26415   7.531   7.394   9.467  0.4308 -0.9199 -0.9920
  937MOL0     C26416   7.564   7.277   9.528 -0.8562  0.3988 -0.4796
  937MOL0     C26417   7.693   7.222   9.507  0.2962  0.1937  0.2646
  937MOL0     C26418   7.787   7.288   9.427 -0.3316  0.6157 -0.2755
  937MOL0     O26419   7.901   7.209   9.419 -0.4620  0.0513 -0.2569
  937MOL0     C26420   8.007   7.257   9.327  0.2721  0.3788 -0.3815
  937MOL0     C26421   8.138   7.228   9.393 -0.3719 -0.0102  0.1198
  937MOL0     C26422   8.182   7.075   9.402  0.5864 -0.1076 -0.0808
  937MOL0     C26423   8.181   7.004   9.267 -1.5679 -0.3195  0.5698
  937MOL0     C26424   8.215   6.863   9.294  0.1414 -0.1241 -0.0238
  937MOL0     C26425   8.229   6.744   9.304 -0.0175  0.0657 -0.1269
  937MOL0     C26426   7.748   7.408   9.363 -0.0734  0.2308  0.8718
  937MOL0     C26427   7.624   7.449   9.378  0.3836 -0.4146 -0.2583
  937MOL0     H26428   7.138   7.609   9.460 -0.8774  1.7776 -0.3196
  937MOL0     H26429   6.966   7.711   9.587  4.9952  4.2181  0.9296
  937MOL0     H26430   6.851   7.822   9.816 -1.6347  1.1322  4.1100
  937MOL0     H26431   6.757   7.717   9.704  5.2911  1.4020 -1.2417
  937MOL0     H26432   6.618   7.651   9.902 -0.0988  0.8992 -2.4455
  937MOL0     H26433   6.733   7.727  10.004  2.4323  0.9867 -1.3653
  937MOL0     H26434   6.677   7.954   9.892  0.7809  0.3475  0.6731
  937MOL0     H26435   6.574   7.874   9.780 -1.5813  1.6212  0.5599
  937MOL0     H26436   6.435   7.802   9.992 -1.1154  1.2693 -2.2117
  937MOL0     H26437   6.548   7.896  10.085 -0.9449 -0.5086  0.3666
  937MOL0     H26438   6.504   8.093   9.947 -0.3710  1.9382  0.2628
  937MOL0     H26439   6.358   8.016   9.887  0.5314  0.4063  0.1039
  937MOL0     H26440   6.286   7.978  10.121 -0.3933  2.1126  2.1846
  937MOL0     H26441   6.418   8.080  10.182 -0.3434  0.5117  0.5402
  937MOL0     H26442   6.304   8.280  10.066 -1.9300  1.0142 -1.9369
  937MOL0     H26443   6.200   8.171   9.991  0.3257 -1.9835 -1.1387
  937MOL0     H26444   6.267   8.203  10.292 -1.6501 -2.0643  0.6089
  937MOL0     H26445   6.117   8.118  10.237 -1.1666  1.0659  1.8579
  937MOL0     H26446   5.981   8.304  10.061 -1.0547 -2.8994  2.5274
  937MOL0     H26447   5.929   8.626  10.058 -2.2567  1.8996 -0.2163
  937MOL0     H26448   5.808   8.499  10.071  0.0983 -0.4627  0.7383
  937MOL0     H26449   5.875   8.736  10.245 -0.3802  0.0317  0.8242
  937MOL0     H26450   5.774   8.608  10.319 -0.8955 -0.5562  0.2204
  937MOL0     H26451   5.703   8.772  10.077 -3.4551 -1.2868 -1.5201
  937MOL0     H26452   5.624   8.796  10.228 -1.8987 -1.6242 -0.1930
  937MOL0     H26453   5.601   8.560  10.057 -0.8495  1.9858 -0.7072
  937MOL0     H26454   5.469   8.653  10.128 -1.1547  0.2015  1.1688
  937MOL0     H26455   5.713   8.351  10.252  0.0468  0.5277 -0.5932
  937MOL0     H26456   5.706   7.995  10.276 -2.5203 -0.2412  0.4087
  937MOL0     H26457   5.726   8.030  10.100  0.3556  1.0860 -0.1176
  937MOL0     H26458   5.810   8.128  10.223  0.2485  0.2229 -2.8132
  937MOL0     H26459   5.349   7.758  10.306 -1.1330  0.5882  2.3463
  937MOL0     H26460   5.196   7.570  10.360 -2.3770 -0.0571  2.1613
  937MOL0     H26461   4.771   7.581  10.222  0.1506 -2.5490  0.1058
  937MOL0     H26462   4.785   7.451  10.336  1.7846 -0.9460 -1.1456
  937MOL0     H26463   4.854   7.722  10.427 -0.0443 -0.3604  0.7976
  937MOL0     H26464   4.692   7.662  10.432  0.5790  0.3099 -0.0130
  937MOL0     H26465   4.832   7.452  10.535  0.3369  0.9503 -0.5837
  937MOL0     H26466   4.753   7.558  10.642  0.4306 -0.0414  0.2378
  937MOL0     H26467   5.039   7.583  10.560  0.1198  2.2605  0.0110
  937MOL0     H26468   4.948   7.702  10.656 -0.4603  0.2208 -1.7326
  937MOL0     H26469   4.971   7.414  10.741 -2.9821  0.4478  1.6098
  937MOL0     H26470   4.928   7.552  10.835 -0.7597 -3.0428 -0.7481
  937MOL0     H26471   5.174   7.457  10.877 -1.1637 -1.7627 -1.0565
  937MOL0     H26472   5.197   7.500  10.710  1.5334  0.3079  0.1914
  937MOL0     H26473   5.179   7.670  10.958 -2.4732  0.4554 -0.0718
  937MOL0     H26474   5.119   7.744  10.808 -2.3622 -2.2375  0.9832
  937MOL0     H26475   5.398   7.609  10.846  0.3412  0.6368  4.7783
  937MOL0     H26476   5.376   7.777  10.883  1.2188 -0.1347 -1.1422
  937MOL0     H26477   4.900   7.744  10.109 -0.5058 -3.2474  3.3542
  937MOL0     H26478   5.064   7.912  10.035  3.9532  2.1986  0.8875
  937MOL0     H26479   5.269   8.192  10.155  0.4515 -0.9759 -3.1462
  937MOL0     H26480   5.310   8.421  10.182 -0.5644 -0.2668 -0.9320
  937MOL0     H26481   7.027   7.417   9.905 -0.1790  1.5444  0.9070
  937MOL0     H26482   7.202   7.324   9.783 -0.7262  0.8823  1.1605
  937MOL0     H26483   7.494   7.217   9.586 -0.9996 -0.3280 -1.3837
  937MOL0     H26484   7.729   7.132   9.557 -0.9387 -0.4804 -0.0066
  937MOL0     H26485   7.988   7.211   9.229 -1.1344  0.6292 -0.2458
  937MOL0     H26486   8.001   7.366   9.322 -1.2789  0.3852  0.8262
  937MOL0     H26487   8.131   7.273   9.492  0.1280  0.6193 -0.1261
  937MOL0     H26488   8.219   7.281   9.342  1.5221 -2.2843  0.6238
  937MOL0     H26489   8.123   7.028   9.481 -1.3417 -2.0402 -2.5160
  937MOL0     H26490   8.287   7.068   9.433  0.2114 -1.4554  0.9843
  937MOL0     H26491   8.259   7.053   9.208 -0.0349 -0.5745  2.3286
  937MOL0     H26492   8.081   6.998   9.223 -1.0945  0.2437 -0.6320
  937MOL0     H26493   8.243   6.638   9.299 -0.5013 -0.0696  0.9873
  937MOL0     H26494   7.831   7.456   9.311 -0.4413  1.6448  1.5321
  937MOL0     H26495   7.608   7.544   9.329  5.0418  1.3929  1.2279
  938MOL0     O26496   6.136   8.812   9.330 -0.3552 -0.0314 -0.8439
  938MOL0     C26497   6.231   8.804   9.404 -0.0138  0.8586  0.3053
  938MOL0     O26498   6.222   8.826   9.544 -1.0014  0.0465 -1.1624
  938MOL0     C26499   6.110   8.791   9.609  0.6004  0.8432  0.0408
  938MOL0     C26500   6.030   8.880   9.672  0.9293  0.0382  0.1402
  938MOL0     C26501   5.917   8.845   9.734 -0.1764 -0.0712  0.6032
  938MOL0     C26502   5.876   8.710   9.738 -0.6996  0.4976 -0.0218
  938MOL0     O26503   5.753   8.673   9.779  0.0687 -0.6643 -0.5096
  938MOL0     C26504   5.646   8.690   9.692 -0.2621 -0.1095  0.5011
  938MOL0     C26505   5.538   8.772   9.774 -0.2431  0.7305  1.3436
  938MOL0     C26506   5.401   8.777   9.698  0.3835  1.0821 -0.3837
  938MOL0     C26507   5.412   8.828   9.555  0.5989 -0.0779  1.0058
  938MOL0     C26508   5.437   8.976   9.530 -0.2086 -0.1352 -0.0193
  938MOL0     C26509   5.500   8.990   9.379 -0.8299  0.1054  0.0816
  938MOL0     C26510   5.526   9.139   9.333 -0.4563 -0.5989  0.9960
  938MOL0     C26511   5.628   9.212   9.416 -0.0358 -0.2183  0.3551
  938MOL0     N26512   5.645   9.355   9.399 -0.2864 -0.5382 -0.5148
  938MOL0     C26513   5.707   9.421   9.297  0.4502  0.2874 -0.4650
  938MOL0     C26514   5.684   9.554   9.329 -0.5925 -0.6316 -1.0737
  938MOL0     C26515   5.730   9.671   9.250  0.1404  0.2155 -0.1613
  938MOL0     C26516   5.857   9.641   9.168  0.4872  0.2034 -0.2784
  938MOL0     C26517   5.919   9.758   9.101  0.6032 -0.2508  0.3390
  938MOL0     C26518   5.984   9.856   9.191  0.1157 -0.0420  0.7373
  938MOL0     O26519   5.983   9.990   9.128 -0.5596 -0.2557  0.4435
  938MOL0     C26520   6.033  10.092   9.204  0.0763 -1.1357 -0.1230
  938MOL0     C26521   5.940  10.193   9.236  0.5021  0.4498 -0.2776
  938MOL0     C26522   5.976  10.300   9.315  0.0245 -0.2887  0.3731
  938MOL0     C26523   5.871  10.398   9.350 -0.0479  1.0209 -0.5429
  938MOL0     C26524   6.105  10.300   9.380 -0.1505  0.9767 -0.3254
  938MOL0     C26525   6.153  10.407   9.471  0.1019  0.3461 -0.5016
  938MOL0     O26526   6.269  10.371   9.536  0.4135 -0.1559 -0.1090
  938MOL0     C26527   6.307  10.458   9.638  0.2244  0.6343 -0.6230
  938MOL0     C26528   6.436  10.501   9.638  0.1146  0.0668  0.2027
  938MOL0     C26529   6.476  10.596   9.739 -0.4620  0.3888  0.0260
  938MOL0     C26530   6.401  10.651   9.841  0.2962  0.4156  0.9915
  938MOL0     O26531   6.456  10.746   9.921 -0.6945 -0.4449 -0.1518
  938MOL0     C26532   6.392  10.753  10.051 -0.4964 -0.1973 -0.3039
  938MOL0     C26533   6.476  10.817  10.163  0.1704 -1.4080  0.7082
  938MOL0     C26534   6.529  10.716  10.265 -0.1978  0.1376  0.5477
  938MOL0     C26535   6.611  10.797  10.365  0.7113  0.5921 -0.7107
  938MOL0     C26536   6.620  10.704  10.485  0.0087  0.6658  0.0337
  938MOL0     C26537   6.555  10.780  10.605 -0.2070 -0.4576  0.2462
  938MOL0     C26538   6.460  10.691  10.682 -0.8032  0.0684  0.1355
  938MOL0     C26539   6.455  10.761  10.814  0.3309  0.5517  0.4553
  938MOL0    Cl26540   6.327  10.699  10.913  0.4030  0.0322 -0.2955
  938MOL0     C26541   6.275  10.602   9.842 -0.7012  0.9026  0.6692
  938MOL0     C26542   6.228  10.503   9.745 -0.6407 -0.3508  0.1826
  938MOL0     O26543   6.100  10.513   9.477  0.2888 -1.2388 -0.5835
  938MOL0     C26544   6.196  10.196   9.346  0.3960  0.0114  0.2092
  938MOL0     C26545   6.159  10.092   9.256 -0.0233 -1.1548 -0.8310
  938MOL0     N26546   5.607   9.562   9.445 -1.2243  0.0050  0.1057
  938MOL0     N26547   5.596   9.444   9.489 -0.3964 -0.3278 -0.1922
  938MOL0     C26548   5.961   8.623   9.665 -0.1539 -0.1347 -0.3730
  938MOL0     C26549   6.079   8.659   9.595 -0.4142  0.7492 -0.3486
  938MOL0     C26550   6.349   8.748   9.352 -0.4826  1.1145 -0.0531
  938MOL0     C26551   6.443   8.707   9.452 -0.6139 -0.0942  0.1372
  938MOL0     C26552   6.544   8.626   9.409 -0.6672 -1.3208 -0.9234
  938MOL0     C26553   6.578   8.585   9.276  0.4790  0.0756  0.2284
  938MOL0     O26554   6.689   8.527   9.231 -0.3598 -0.3080 -0.6784
  938MOL0     C26555   6.788   8.481   9.331  0.7160 -0.3509  0.5159
  938MOL0     C26556   6.891   8.594   9.385  0.2998  0.1757  0.0645
  938MOL0     C26557   6.978   8.652   9.271  0.5904  0.7101 -0.1467
  938MOL0     C26558   7.066   8.756   9.332 -0.3134  0.0181  0.0733
  938MOL0     C26559   7.150   8.799   9.226  0.2873 -0.2898 -0.3497
  938MOL0     C26560   7.229   8.839   9.145  0.2249 -1.0015  0.1743
  938MOL0     C26561   6.474   8.618   9.181 -0.6437  0.4374  1.4231
  938MOL0     C26562   6.363   8.699   9.219 -0.9190  0.2674  0.0403
  938MOL0     H26563   6.048   8.987   9.680 -0.0865  0.2187  0.1031
  938MOL0     H26564   5.851   8.908   9.793  0.0096 -0.6926  1.4903
  938MOL0     H26565   5.672   8.756   9.609 -0.8686 -0.9482 -0.3849
  938MOL0     H26566   5.615   8.593   9.650 -0.0440 -1.3051  2.9071
  938MOL0     H26567   5.523   8.723   9.871  1.4711 -5.1436 -0.9195
  938MOL0     H26568   5.592   8.866   9.786 -0.2635  0.8149  0.8055
  938MOL0     H26569   5.356   8.678   9.690 -1.0222  1.5773  0.9676
  938MOL0     H26570   5.334   8.848   9.747  2.3120  3.5369 -1.0763
  938MOL0     H26571   5.496   8.775   9.509 -0.1130 -0.1152 -0.3154
  938MOL0     H26572   5.323   8.808   9.495  2.8696  0.1619 -2.8364
  938MOL0     H26573   5.345   9.035   9.521  0.8828  1.7469  0.6056
  938MOL0     H26574   5.509   9.016   9.601 -3.0757  0.6629  2.6926
  938MOL0     H26575   5.593   8.933   9.375 -1.1781 -0.4647  0.0058
  938MOL0     H26576   5.432   8.948   9.305  2.1569 -1.8397 -1.7666
  938MOL0     H26577   5.550   9.137   9.227 -1.1617 -2.6650  0.8329
  938MOL0     H26578   5.439   9.205   9.334  0.5666  0.9658 -1.6263
  938MOL0     H26579   5.716   9.153   9.391 -0.8484 -0.7266 -1.4481
  938MOL0     H26580   5.596   9.203   9.520 -0.8068  1.7978  0.3368
  938MOL0     H26581   5.766   9.368   9.222  0.2456  0.4304 -0.7284
  938MOL0     H26582   5.654   9.694   9.174  1.4326 -0.6472 -1.7803
  938MOL0     H26583   5.756   9.750   9.320  2.1651 -2.4087  2.2503
  938MOL0     H26584   5.842   9.570   9.086  0.6760 -1.1674  0.8229
  938MOL0     H26585   5.925   9.594   9.239 -0.3190  0.2373  0.5426
  938MOL0     H26586   5.839   9.804   9.042  1.7559  1.3549 -0.0484
  938MOL0     H26587   5.998   9.718   9.036 -0.6160 -0.6534 -0.9396
  938MOL0     H26588   6.083   9.826   9.226 -0.2358 -1.2373  0.7510
  938MOL0     H26589   5.919   9.865   9.278 -1.0975  2.9578 -0.3286
  938MOL0     H26590   5.839  10.178   9.199  0.7015  0.7415 -0.9465
  938MOL0     H26591   5.853  10.393   9.457  0.2248  1.3377 -0.4789
  938MOL0     H26592   5.896  10.503   9.331 -1.2524  1.8148  1.8368
  938MOL0     H26593   5.774  10.379   9.303 -1.8514  4.9068  1.1440
  938MOL0     H26594   6.506  10.482   9.557  1.6119  1.8847  0.9995
  938MOL0     H26595   6.571  10.648   9.729  0.9420 -2.1503 -0.5390
  938MOL0     H26596   6.304  10.814  10.026  0.2016  2.0339  2.2422
  938MOL0     H26597   6.350  10.659  10.089 -0.1681 -0.6200 -0.9714
  938MOL0     H26598   6.562  10.867  10.117 -1.3111  2.2142  1.6177
  938MOL0     H26599   6.422  10.889  10.224  2.7047  0.1710  1.2429
  938MOL0     H26600   6.588  10.642  10.212 -0.2046 -0.5072  1.4169
  938MOL0     H26601   6.448  10.672  10.325 -1.4074 -1.1353 -1.8552
  938MOL0     H26602   6.704  10.822  10.313  1.3996 -1.6533 -0.6467
  938MOL0     H26603   6.562  10.893  10.384  1.3838  0.5088  1.7792
  938MOL0     H26604   6.726  10.684  10.504 -0.1410  0.5319  0.7462
  938MOL0     H26605   6.572  10.606  10.473  1.0570  0.2260 -0.7239
  938MOL0     H26606   6.638  10.805  10.672 -1.2771  0.5203  1.2585
  938MOL0     H26607   6.506  10.871  10.569 -0.9143 -0.8292  0.2412
  938MOL0     H26608   6.512  10.596  10.698 -0.5119  0.2800  0.4667
  938MOL0     H26609   6.368  10.686  10.624  0.6631 -0.4043 -2.2794
  938MOL0     H26610   6.438  10.867  10.794  0.5126  0.3390 -0.9837
  938MOL0     H26611   6.546  10.756  10.875 -0.3854 -3.7098  1.4817
  938MOL0     H26612   6.203  10.654   9.904 -1.4712  3.0918 -1.9012
  938MOL0     H26613   6.127  10.465   9.737  0.0995 -2.8023  1.4346
  938MOL0     H26614   6.294  10.185   9.391  1.2267 -1.7749 -1.8482
  938MOL0     H26615   6.240  10.025   9.230  2.2404  1.7866 -1.8367
  938MOL0     H26616   5.933   8.519   9.656 -4.3898  0.8435 -0.5644
  938MOL0     H26617   6.137   8.585   9.540 -2.6042 -0.6326 -0.9371
  938MOL0     H26618   6.441   8.734   9.557 -1.8806  2.4909 -0.4415
  938MOL0     H26619   6.617   8.601   9.485  1.0185 -1.2887 -2.4792
  938MOL0     H26620   6.741   8.427   9.413 -1.9834  2.4316  1.0232
  938MOL0     H26621   6.839   8.403   9.274 -1.7445 -0.8587 -1.1749
  938MOL0     H26622   6.960   8.557   9.462  0.0837 -1.1271 -0.3393
  938MOL0     H26623   6.831   8.674   9.429 -1.4176 -0.3920 -1.1304
  938MOL0     H26624   6.900   8.692   9.206 -0.9008 -3.0390 -0.9482
  938MOL0     H26625   7.028   8.571   9.218  0.0395  0.5133 -0.3690
  938MOL0     H26626   7.130   8.704   9.404 -0.2734  0.1040  0.0997
  938MOL0     H26627   7.011   8.840   9.374 -0.2070 -0.6706  1.6803
  938MOL0     H26628   7.296   8.870   9.068 -1.4466  0.0381 -0.9171
  938MOL0     H26629   6.481   8.583   9.079 -1.8847 -0.2263  1.5522
  938MOL0     H26630   6.281   8.721   9.153 -2.6714 -1.2631  1.5953
  939MOL0     O26631   3.561   6.455   7.425 -0.1900 -0.6803  0.1337
  939MOL0     C26632   3.659   6.387   7.444 -1.6369 -0.9160  0.0647
  939MOL0     O26633   3.794   6.427   7.424 -0.6905  0.1423 -0.1694
  939MOL0     C26634   3.823   6.546   7.353 -0.2701 -0.0940  0.2064
  939MOL0     C26635   3.738   6.616   7.267 -0.3898 -1.5237  0.3748
  939MOL0     C26636   3.784   6.727   7.190  0.0746  0.2424  0.7692
  939MOL0     C26637   3.923   6.760   7.191  0.3118 -0.6199  0.4011
  939MOL0     O26638   3.964   6.873   7.116  0.9307 -0.0882  0.4769
  939MOL0     C26639   3.945   6.848   6.976 -0.6414 -1.2046  1.1060
  939MOL0     C26640   4.040   6.751   6.903 -0.5784  0.1941  0.0620
  939MOL0     C26641   4.190   6.801   6.898 -0.3477  0.7406 -0.7563
  939MOL0     C26642   4.264   6.764   7.028 -0.4481 -0.4279 -0.6321
  939MOL0     C26643   4.413   6.789   7.023 -0.0620 -0.5750  0.5994
  939MOL0     C26644   4.490   6.710   6.927 -0.1270 -0.5258  0.2634
  939MOL0     C26645   4.623   6.779   6.913  0.6556 -0.7847  0.4421
  939MOL0     C26646   4.704   6.738   6.790 -0.2952  0.5113 -0.4954
  939MOL0     N26647   4.835   6.811   6.789  0.0078  0.5090  0.8665
  939MOL0     C26648   4.851   6.925   6.721 -0.5898  0.5645 -0.2751
  939MOL0     C26649   4.980   6.961   6.757 -0.1796  0.5817 -1.5039
  939MOL0     C26650   5.046   7.075   6.701  0.2894 -0.0345  0.3246
  939MOL0     C26651   5.066   7.048   6.549 -0.3398 -0.0235  0.6616
  939MOL0     C26652   5.198   7.104   6.504 -0.1369  1.3790 -0.8411
  939MOL0     C26653   5.225   7.086   6.362 -0.1066 -0.5063  0.0130
  939MOL0     O26654   5.352   7.143   6.324  0.9621  0.2934  0.3781
  939MOL0     C26655   5.392   7.125   6.193 -0.2357  0.4745 -0.5758
  939MOL0     C26656   5.515   7.184   6.171  0.5061  0.1489 -0.1679
  939MOL0     C26657   5.578   7.174   6.036  1.2959 -0.7549  0.5600
  939MOL0     C26658   5.716   7.237   6.025 -0.0555 -0.0876  0.7034
  939MOL0     C26659   5.496   7.115   5.934 -0.1811 -0.7618  0.5316
  939MOL0     C26660   5.554   7.114   5.803  0.1269 -0.2710 -0.1362
  939MOL0     O26661   5.546   6.992   5.731 -0.4224  0.0210  0.0187
  939MOL0     C26662   5.602   6.984   5.600  0.3686 -0.3734 -0.0834
  939MOL0     C26663   5.708   7.067   5.554 -0.7948  0.2456 -0.3173
  939MOL0     C26664   5.751   7.063   5.423 -0.8420  0.2012  0.4032
  939MOL0     C26665   5.699   6.969   5.331  0.6932  0.0210 -0.0968
  939MOL0     O26666   5.733   6.946   5.197  0.5821  0.3290  0.1171
  939MOL0     C26667   5.803   7.052   5.128 -1.4474 -0.5609 -0.1333
  939MOL0     C26668   5.801   7.026   4.977  0.2745 -0.4470  0.5488
  939MOL0     C26669   5.813   7.150   4.890  0.0528  1.1737  1.0520
  939MOL0     C26670   5.883   7.107   4.757 -0.0188 -0.3870  0.5962
  939MOL0     C26671   5.930   7.230   4.677  0.3360 -0.0208 -0.4089
  939MOL0     C26672   6.037   7.189   4.584 -0.0427 -0.4084  0.0005
  939MOL0     C26673   6.104   7.319   4.523 -0.2754 -0.3937  0.3179
  939MOL0     C26674   6.243   7.281   4.447  0.5427  0.0328  0.1138
  939MOL0    Cl26675   6.197   7.172   4.311 -0.6130 -0.7408 -0.0857
  939MOL0     C26676   5.591   6.896   5.381 -0.0103 -0.1786 -1.0145
  939MOL0     C26677   5.544   6.897   5.511  0.2820  1.3853  0.0889
  939MOL0     O26678   5.585   7.222   5.755  1.0106 -0.9604  0.6793
  939MOL0     C26679   5.377   7.054   5.963  1.3445  0.0780  0.1480
  939MOL0     C26680   5.325   7.059   6.092 -0.0532  1.2830  0.2398
  939MOL0     N26681   5.041   6.863   6.822  0.4078 -0.8683 -0.8286
  939MOL0     N26682   4.948   6.774   6.844 -0.3345 -0.1658 -0.5124
  939MOL0     C26683   4.009   6.690   7.282 -0.7480 -0.1551  0.4782
  939MOL0     C26684   3.957   6.586   7.356  0.0110  0.0957 -0.3464
  939MOL0     C26685   3.631   6.253   7.484 -0.0575  0.5977 -0.2260
  939MOL0     C26686   3.500   6.190   7.483  0.0999 -0.1169  0.0997
  939MOL0     C26687   3.485   6.054   7.516 -0.4855  0.2476  0.1283
  939MOL0     C26688   3.599   5.973   7.546 -0.5546 -0.1109  0.6249
  939MOL0     O26689   3.577   5.840   7.567 -0.1745  0.1665  0.0639
  939MOL0     C26690   3.694   5.778   7.633 -0.8215 -1.0951 -0.1681
  939MOL0     C26691   3.679   5.627   7.666  0.0042  0.1320 -0.8175
  939MOL0     C26692   3.806   5.570   7.719 -0.3257 -1.6740 -0.6038
  939MOL0     C26693   3.798   5.430   7.760  0.6190  0.8564 -0.2186
  939MOL0     C26694   3.768   5.327   7.661  1.1931 -0.3616 -0.4620
  939MOL0     C26695   3.727   5.238   7.592 -0.0515 -0.0849 -0.1138
  939MOL0     C26696   3.731   6.030   7.532  1.0568 -0.2281  0.4337
  939MOL0     C26697   3.741   6.172   7.506 -0.4230 -0.1230  0.1669
  939MOL0     H26698   3.635   6.581   7.269 -1.9009  2.2316  4.2457
  939MOL0     H26699   3.707   6.780   7.136 -1.0808 -0.2333  1.8831
  939MOL0     H26700   3.841   6.822   6.957 -1.2482  0.1395  2.3494
  939MOL0     H26701   3.957   6.948   6.934  1.7701 -2.2877 -1.0408
  939MOL0     H26702   4.043   6.649   6.941  0.5869  0.2540  0.1604
  939MOL0     H26703   4.009   6.742   6.799  2.8327 -1.6741 -0.9252
  939MOL0     H26704   4.237   6.744   6.817  2.0371  0.9357  0.4006
  939MOL0     H26705   4.206   6.903   6.862 -2.8743  0.6849 -2.2509
  939MOL0     H26706   4.221   6.832   7.102 -4.4576 -2.6349 -0.6719
  939MOL0     H26707   4.253   6.658   7.054  2.5263 -0.9139 -0.9685
  939MOL0     H26708   4.419   6.897   7.013 -1.8115 -0.5537 -0.7884
  939MOL0     H26709   4.454   6.759   7.120  1.1485 -0.5411  0.1148
  939MOL0     H26710   4.506   6.610   6.969 -0.1995  0.9626  4.2484
  939MOL0     H26711   4.448   6.706   6.826  1.8425 -2.4289 -0.5549
  939MOL0     H26712   4.608   6.888   6.910  2.6974 -0.4413  0.8437
  939MOL0     H26713   4.669   6.742   7.005  0.5002  0.9453  1.2648
  939MOL0     H26714   4.640   6.756   6.703 -0.7897  0.3537 -0.1690
  939MOL0     H26715   4.741   6.636   6.799  1.9696  1.2010 -1.3853
  939MOL0     H26716   4.779   6.982   6.664 -2.7031  0.5064  2.1336
  939MOL0     H26717   4.986   7.166   6.696  1.3173  0.5912 -1.5664
  939MOL0     H26718   5.143   7.098   6.747  0.1506  0.9505  0.1431
  939MOL0     H26719   4.984   7.103   6.503 -0.5037 -1.1901 -0.5240
  939MOL0     H26720   5.040   6.944   6.527 -0.3803 -0.1296  1.1933
  939MOL0     H26721   5.286   7.068   6.559 -0.1243  4.5234  1.5046
  939MOL0     H26722   5.207   7.213   6.517  4.7201  1.2568 -1.3890
  939MOL0     H26723   5.150   7.141   6.303 -1.6434 -2.7179 -0.2021
  939MOL0     H26724   5.214   6.981   6.333 -1.5866 -2.0206  5.0299
  939MOL0     H26725   5.571   7.238   6.247  0.7103  0.7838 -0.7554
  939MOL0     H26726   5.710   7.346   6.014  0.2635 -0.1428 -0.1135
  939MOL0     H26727   5.770   7.215   6.118  0.1662 -2.1103  0.1388
  939MOL0     H26728   5.777   7.200   5.942  2.3472  0.3726  2.1541
  939MOL0     H26729   5.761   7.133   5.622 -1.0981  2.6236 -2.2498
  939MOL0     H26730   5.849   7.108   5.408  0.1801 -1.1896  2.3450
  939MOL0     H26731   5.756   7.150   5.144 -1.0893 -0.7924  2.7574
  939MOL0     H26732   5.909   7.067   5.150 -1.9340 -0.1193  2.1241
  939MOL0     H26733   5.875   6.951   4.946 -0.2566 -0.4464 -0.8237
  939MOL0     H26734   5.700   6.992   4.955  0.6273 -0.3917 -1.3379
  939MOL0     H26735   5.881   7.223   4.934  0.7556  1.8809 -1.0858
  939MOL0     H26736   5.717   7.195   4.863 -0.1512 -0.0116 -0.2981
  939MOL0     H26737   5.973   7.046   4.767  1.8710  2.0424 -0.6258
  939MOL0     H26738   5.811   7.055   4.693  0.4635 -1.5987  1.0043
  939MOL0     H26739   5.979   7.289   4.754  0.1579 -0.0188 -0.2979
  939MOL0     H26740   5.846   7.279   4.628  1.2572  0.6731 -1.3471
  939MOL0     H26741   6.116   7.132   4.634 -1.3882 -2.1509  0.2635
  939MOL0     H26742   5.996   7.120   4.509 -1.1176 -0.4596  0.6073
  939MOL0     H26743   6.125   7.392   4.602 -0.4538  0.2362 -0.2124
  939MOL0     H26744   6.030   7.361   4.454  0.5245 -0.9786 -0.9298
  939MOL0     H26745   6.315   7.229   4.511 -0.0632 -1.4528 -0.3688
  939MOL0     H26746   6.297   7.370   4.413 -2.1186  2.4733  1.8359
  939MOL0     H26747   5.544   6.840   5.301 -0.7514 -0.4723 -0.3899
  939MOL0     H26748   5.452   6.848   5.538  1.4391 -0.6380  0.5659
  939MOL0     H26749   5.312   6.995   5.899  0.0596  0.8930  0.6747
  939MOL0     H26750   5.240   7.005   6.131 -0.6871  2.2292  0.1958
  939MOL0     H26751   4.113   6.722   7.283  0.5827 -4.0202  1.7440
  939MOL0     H26752   4.011   6.517   7.419 -4.1440 -1.8481  1.4377
  939MOL0     H26753   3.405   6.241   7.474 -0.9824 -1.1583  3.7241
  939MOL0     H26754   3.387   6.008   7.518 -1.0139  1.2549  3.7502
  939MOL0     H26755   3.784   5.782   7.571 -0.0157 -0.2857  1.0148
  939MOL0     H26756   3.705   5.843   7.720 -3.6404  1.2727 -1.4002
  939MOL0     H26757   3.654   5.561   7.583  0.4313  0.3374 -1.1142
  939MOL0     H26758   3.600   5.609   7.740  1.0508  4.0099  1.5344
  939MOL0     H26759   3.842   5.639   7.797  0.7513 -1.8291 -0.9415
  939MOL0     H26760   3.873   5.567   7.632 -1.9437  0.3258 -2.0108
  939MOL0     H26761   3.723   5.434   7.839 -0.6658  1.4054 -1.4125
  939MOL0     H26762   3.894   5.394   7.799  1.1907 -0.4902 -2.6245
  939MOL0     H26763   3.687   5.166   7.523 -0.0075  2.6840 -3.2941
  939MOL0     H26764   3.826   5.979   7.544  0.6520 -1.0287  0.2689
  939MOL0     H26765   3.846   6.194   7.486 -0.2446 -3.3449 -3.9827
  940MOL0     O26766   7.593   3.763  10.282  0.3531  0.3288 -1.0182
  940MOL0     C26767   7.538   3.874  10.244  0.1792  0.8204 -0.4358
  940MOL0     O26768   7.490   3.898  10.117 -0.5898 -0.6420  0.3629
  940MOL0     C26769   7.501   3.813  10.009 -0.1578  0.3482 -0.5401
  940MOL0     C26770   7.596   3.709  10.004  0.5579  0.5831  0.2387
  940MOL0     C26771   7.602   3.624   9.891 -0.0044  0.3943  0.5401
  940MOL0     C26772   7.512   3.643   9.788 -0.1245  0.5091 -0.2351
  940MOL0     O26773   7.533   3.566   9.675 -0.2758 -0.9775 -0.2333
  940MOL0     C26774   7.483   3.607   9.547 -0.0725  0.8840 -0.0892
  940MOL0     C26775   7.574   3.698   9.458  0.2805  0.4098 -0.4981
  940MOL0     C26776   7.510   3.729   9.323 -0.9823  0.7287  1.1592
  940MOL0     C26777   7.608   3.834   9.254  0.9809  0.4744  0.2251
  940MOL0     C26778   7.558   3.861   9.112  0.1533  0.4364 -0.0315
  940MOL0     C26779   7.585   3.737   9.024  0.0658 -0.4345  1.2183
  940MOL0     C26780   7.540   3.728   8.873  0.1417  0.1355  0.6993
  940MOL0     C26781   7.449   3.848   8.828 -0.0459 -0.4460 -0.7281
  940MOL0     N26782   7.405   3.850   8.682 -0.5714 -0.1006 -1.5592
  940MOL0     C26783   7.418   3.952   8.600  0.1237  0.5552  0.1519
  940MOL0     C26784   7.392   3.899   8.471  0.4472  0.6550 -0.6253
  940MOL0     C26785   7.411   3.958   8.338  0.5172  0.8294 -0.5347
  940MOL0     C26786   7.438   4.111   8.343 -0.4406  0.1564  0.0561
  940MOL0     C26787   7.438   4.171   8.199 -0.5229  0.6188 -0.4750
  940MOL0     C26788   7.575   4.142   8.129 -0.5061  0.3469 -0.3790
  940MOL0     O26789   7.695   4.211   8.183  0.2880  0.2718  0.4266
  940MOL0     C26790   7.704   4.349   8.163  1.3097  0.4286 -1.2548
  940MOL0     C26791   7.626   4.425   8.076  1.2454  0.0409 -0.5708
  940MOL0     C26792   7.662   4.560   8.045  0.7469  0.2792  0.0706
  940MOL0     C26793   7.586   4.643   7.947 -0.1832 -1.2366  0.6488
  940MOL0     C26794   7.771   4.616   8.106 -0.2934 -1.3205  0.0372
  940MOL0     C26795   7.800   4.756   8.071  1.0074 -0.7074 -0.1464
  940MOL0     O26796   7.777   4.853   8.171  0.4232  0.0521 -0.1134
  940MOL0     C26797   7.830   4.978   8.158  0.3256 -0.3602  1.1863
  940MOL0     C26798   7.779   5.064   8.059  0.2150 -1.3202  0.1561
  940MOL0     C26799   7.844   5.190   8.035  1.1987  0.6227 -0.1011
  940MOL0     C26800   7.944   5.235   8.121  0.2274 -0.0294  1.1117
  940MOL0     O26801   7.997   5.358   8.105 -0.2809 -0.2469  0.0738
  940MOL0     C26802   7.965   5.428   7.981 -1.1681  0.0751  0.8183
  940MOL0     C26803   8.055   5.553   7.957 -0.1534  0.0283  0.3209
  940MOL0     C26804   8.036   5.653   8.071 -0.1174  0.8012 -0.0661
  940MOL0     C26805   8.138   5.768   8.035  0.8359  0.4887  0.0467
  940MOL0     C26806   8.109   5.859   7.913 -0.9522 -0.0267 -0.1836
  940MOL0     C26807   8.233   5.946   7.862  0.4640  0.3992 -0.1152
  940MOL0     C26808   8.291   6.025   7.985  0.6844  0.4030 -0.3036
  940MOL0     C26809   8.430   6.073   7.942  0.0309 -0.1551  0.3732
  940MOL0    Cl26810   8.518   6.183   8.055  0.0240 -0.1476  0.2862
  940MOL0     C26811   7.983   5.152   8.231  0.2223 -0.5283 -0.0035
  940MOL0     C26812   7.926   5.025   8.250 -0.6354  0.3079  0.0452
  940MOL0     O26813   7.842   4.773   7.955  0.3435 -0.1311 -0.3286
  940MOL0     C26814   7.843   4.550   8.203  0.3105 -0.1670 -0.0125
  940MOL0     C26815   7.817   4.411   8.228  1.3163  0.5519  1.0046
  940MOL0     N26816   7.373   3.765   8.488  0.5322  0.0649  0.0987
  940MOL0     N26817   7.381   3.736   8.615  0.1505  0.4813 -0.2583
  940MOL0     C26818   7.419   3.748   9.799  0.3416  0.4184 -0.2487
  940MOL0     C26819   7.408   3.832   9.909  0.3639  0.6371  0.4961
  940MOL0     C26820   7.494   3.967  10.354  0.4782  0.0709  0.6007
  940MOL0     C26821   7.366   4.018  10.353 -0.3770  0.0966 -1.0457
  940MOL0     C26822   7.324   4.112  10.453  0.3349 -0.0892  0.4502
  940MOL0     C26823   7.417   4.154  10.552 -0.2487  0.0874 -0.3048
  940MOL0     O26824   7.380   4.233  10.666 -0.6278  0.8368 -0.4028
  940MOL0     C26825   7.309   4.350  10.634  0.7944 -0.3866  0.2097
  940MOL0     C26826   7.276   4.421  10.769 -0.4143  0.4526 -0.0101
  940MOL0     C26827   7.185   4.326  10.846  0.1422 -0.8117  1.0450
  940MOL0     C26828   7.131   4.386  10.976 -0.7097 -0.9375  0.1031
  940MOL0     C26829   7.009   4.456  10.948 -0.1379 -0.4900  0.2673
  940MOL0     C26830   6.912   4.523  10.911 -0.1707 -0.5779 -0.2476
  940MOL0     C26831   7.544   4.101  10.549 -0.2071 -0.1087 -0.8155
  940MOL0     C26832   7.582   4.007  10.457  0.4105 -0.2671  0.5679
  940MOL0     H26833   7.682   3.709  10.070  0.6381  0.8275  0.1371
  940MOL0     H26834   7.688   3.558   9.893 -0.9904 -1.0201 -1.0316
  940MOL0     H26835   7.469   3.514   9.490  0.0878  0.6102  0.3080
  940MOL0     H26836   7.387   3.656   9.562  0.5566  1.4682  2.5512
  940MOL0     H26837   7.581   3.793   9.513 -2.8755  0.1650  0.5003
  940MOL0     H26838   7.671   3.650   9.446 -0.0426 -0.2646 -0.4404
  940MOL0     H26839   7.508   3.637   9.264  0.0788  2.5503 -1.9647
  940MOL0     H26840   7.412   3.776   9.317 -0.9183  0.8541  1.0667
  940MOL0     H26841   7.607   3.922   9.319 -2.1612  1.1161 -0.5246
  940MOL0     H26842   7.710   3.793   9.248 -0.4707 -3.3964 -1.1855
  940MOL0     H26843   7.452   3.887   9.107 -0.0297  0.0773  1.4016
  940MOL0     H26844   7.609   3.936   9.050 -0.3664 -0.7567 -1.9873
  940MOL0     H26845   7.691   3.710   9.030  0.0493 -0.5533  0.9945
  940MOL0     H26846   7.532   3.651   9.067  1.0961 -0.3256  2.7911
  940MOL0     H26847   7.635   3.723   8.819 -0.4998 -1.4449 -0.3468
  940MOL0     H26848   7.489   3.634   8.850 -1.4632  0.3981  2.8455
  940MOL0     H26849   7.504   3.943   8.841  2.2346 -1.9348  1.6495
  940MOL0     H26850   7.369   3.860   8.901 -0.8566 -0.4975 -1.5891
  940MOL0     H26851   7.438   4.056   8.621  0.1106  0.4973  0.4494
  940MOL0     H26852   7.499   3.913   8.292  0.6371 -0.3086  0.7361
  940MOL0     H26853   7.321   3.953   8.277  2.2173  2.0985 -3.3218
  940MOL0     H26854   7.530   4.136   8.396 -0.4526 -0.4869  0.3986
  940MOL0     H26855   7.361   4.168   8.396 -0.0208  2.5962 -1.8194
  940MOL0     H26856   7.414   4.277   8.207 -1.3114  0.3234  1.7231
  940MOL0     H26857   7.362   4.125   8.135  0.3385  0.4509 -1.4035
  940MOL0     H26858   7.582   4.176   8.026  2.1525  0.3664 -0.2616
  940MOL0     H26859   7.606   4.037   8.135  2.0676  1.0491 -0.4584
  940MOL0     H26860   7.545   4.376   8.024  0.3149  0.9010  0.0291
  940MOL0     H26861   7.481   4.617   7.932  0.0769 -2.3272  0.6214
  940MOL0     H26862   7.588   4.745   7.987  0.3564 -0.9524 -0.0834
  940MOL0     H26863   7.634   4.641   7.849  1.6240  0.5299  1.4292
  940MOL0     H26864   7.697   5.037   7.994  1.8213 -0.9784 -2.1342
  940MOL0     H26865   7.803   5.239   7.947 -0.4270 -1.8949 -0.8396
  940MOL0     H26866   7.972   5.357   7.898 -1.5974  0.8041  0.1490
  940MOL0     H26867   7.860   5.456   7.989 -1.2554  1.0449 -2.3881
  940MOL0     H26868   8.159   5.521   7.951 -0.8244 -2.0781 -0.7937
  940MOL0     H26869   8.020   5.601   7.865 -3.7046 -0.3894  1.3131
  940MOL0     H26870   8.044   5.603   8.168 -0.7987 -0.3937 -0.5978
  940MOL0     H26871   7.931   5.680   8.060 -0.5903 -1.2849 -1.2687
  940MOL0     H26872   8.123   5.842   8.114 -0.2182  0.1225  0.2076
  940MOL0     H26873   8.239   5.726   8.041  0.3066 -1.3269 -2.3155
  940MOL0     H26874   8.031   5.931   7.940  0.5387  1.3174  0.7464
  940MOL0     H26875   8.078   5.811   7.820 -0.7068  2.1829 -1.4787
  940MOL0     H26876   8.312   5.884   7.817  0.1601 -0.7605  0.9121
  940MOL0     H26877   8.198   6.023   7.792 -4.4125  1.3408  2.9117
  940MOL0     H26878   8.302   5.951   8.065  0.8577  1.0277  0.2586
  940MOL0     H26879   8.227   6.109   8.015 -0.1106  0.7170 -2.6091
  940MOL0     H26880   8.414   6.114   7.843  3.0751  1.9660  0.6453
  940MOL0     H26881   8.482   5.977   7.947 -2.8956 -1.8389  2.8532
  940MOL0     H26882   8.058   5.192   8.298  1.6480 -1.5782 -0.9230
  940MOL0     H26883   7.972   4.969   8.331 -0.1793 -1.1509 -1.1663
  940MOL0     H26884   7.924   4.598   8.257 -1.1219 -0.1281  2.2298
  940MOL0     H26885   7.887   4.354   8.287 -0.5586 -1.9241  1.0011
  940MOL0     H26886   7.333   3.769   9.736 -0.4780 -0.1523  0.6491
  940MOL0     H26887   7.334   3.911   9.905 -0.4139 -0.1090 -0.6655
  940MOL0     H26888   7.294   3.987  10.277  0.4604 -1.5531 -1.1977
  940MOL0     H26889   7.219   4.136  10.463 -0.2948 -2.8736  1.2696
  940MOL0     H26890   7.374   4.408  10.569 -0.1658 -0.3990 -0.7880
  940MOL0     H26891   7.219   4.329  10.577  1.5472  0.8983 -1.5324
  940MOL0     H26892   7.224   4.510  10.733 -0.5718 -0.5517 -2.5098
  940MOL0     H26893   7.371   4.436  10.821  0.1535  0.9304 -1.1362
  940MOL0     H26894   7.251   4.242  10.870  0.7831 -0.3488  0.9267
  940MOL0     H26895   7.096   4.297  10.788 -0.6411 -1.7114  2.6409
  940MOL0     H26896   7.197   4.464  11.016  1.0260 -2.1535 -0.2432
  940MOL0     H26897   7.117   4.295  11.035 -0.6024 -2.7701 -2.5101
  940MOL0     H26898   6.831   4.588  10.886  1.6290  1.6449 -0.6369
  940MOL0     H26899   7.613   4.144  10.621 -0.4956  3.4292 -2.4488
  940MOL0     H26900   7.683   3.968  10.453  0.6579  0.4600 -0.9542
  941MOL0     O26901   4.394   6.121   8.803 -0.0527 -0.3217 -0.3555
  941MOL0     C26902   4.417   6.204   8.716 -0.9813  0.8530  0.0173
  941MOL0     O26903   4.515   6.180   8.620 -0.8172 -0.8124  0.7609
  941MOL0     C26904   4.603   6.075   8.636  0.1589 -0.1311  0.2201
  941MOL0     C26905   4.584   5.955   8.567 -0.3504  0.2197 -0.2964
  941MOL0     C26906   4.686   5.866   8.563 -0.3197  1.2398  0.7179
  941MOL0     C26907   4.807   5.876   8.626 -0.0507  0.5127  0.7725
  941MOL0     O26908   4.881   5.763   8.633 -0.2995  0.9500  1.0856
  941MOL0     C26909   4.996   5.755   8.717  0.6649  0.7028  0.4187
  941MOL0     C26910   5.055   5.616   8.712  0.6251  0.4540  0.3984
  941MOL0     C26911   4.966   5.521   8.803  0.2744  0.2209  0.0907
  941MOL0     C26912   5.051   5.401   8.856 -0.3517  0.0054 -0.4489
  941MOL0     C26913   5.000   5.319   8.974 -0.0010 -0.4914  0.5834
  941MOL0     C26914   5.060   5.193   9.019  0.2337  0.1595 -0.0787
  941MOL0     C26915   5.038   5.080   8.917  0.4999 -0.8891 -0.0327
  941MOL0     C26916   5.047   4.940   8.977  0.7484 -0.4328 -0.4765
  941MOL0     N26917   5.007   4.833   8.884 -0.3373  0.4388 -0.8476
  941MOL0     C26918   5.089   4.736   8.817  0.3346 -0.4514 -0.1394
  941MOL0     C26919   4.995   4.656   8.766  0.2207 -0.1047 -0.7100
  941MOL0     C26920   5.037   4.539   8.697  0.2218  0.1779 -0.5497
  941MOL0     C26921   5.030   4.549   8.544  0.2389  0.4124 -0.1755
  941MOL0     C26922   4.887   4.550   8.484 -0.6900  0.1519  0.6605
  941MOL0     C26923   4.874   4.584   8.346 -0.8137 -0.0967 -0.3920
  941MOL0     O26924   4.736   4.604   8.325  0.3304  0.3597 -0.3334
  941MOL0     C26925   4.686   4.572   8.200  0.2603 -0.6814 -0.4539
  941MOL0     C26926   4.546   4.572   8.188  1.1746 -0.5270  0.8804
  941MOL0     C26927   4.483   4.555   8.059  0.4472 -0.2109 -0.0303
  941MOL0     C26928   4.329   4.543   8.066 -0.1072  1.0788  0.1680
  941MOL0     C26929   4.566   4.530   7.947 -0.2215 -0.1484 -0.3899
  941MOL0     C26930   4.525   4.503   7.810  0.6421 -0.4258  0.5701
  941MOL0     O26931   4.618   4.451   7.725  0.0507 -0.0686 -0.4963
  941MOL0     C26932   4.580   4.434   7.595  0.1678  1.2560 -0.6610
  941MOL0     C26933   4.523   4.318   7.551  1.5803  0.0099  0.3987
  941MOL0     C26934   4.478   4.301   7.426  0.5104  0.4779  0.4174
  941MOL0     C26935   4.503   4.407   7.333 -0.0392 -0.6073 -0.0073
  941MOL0     O26936   4.470   4.399   7.195  0.2665  0.4606  0.0829
  941MOL0     C26937   4.576   4.433   7.098  0.2342  0.8537 -0.3643
  941MOL0     C26938   4.562   4.342   6.976  0.3271 -0.0679 -0.0506
  941MOL0     C26939   4.420   4.311   6.936 -1.1024  0.0860 -0.1726
  941MOL0     C26940   4.414   4.229   6.800 -0.0628  0.5212  0.1421
  941MOL0     C26941   4.482   4.307   6.682  0.2524  0.7194  0.3468
  941MOL0     C26942   4.458   4.235   6.544 -0.1019  0.5146  1.1313
  941MOL0     C26943   4.467   4.329   6.432 -0.1990  0.1949 -0.0703
  941MOL0     C26944   4.588   4.411   6.401 -0.6302 -0.2286 -0.5385
  941MOL0    Cl26945   4.720   4.282   6.430 -0.1379 -0.1287 -0.1698
  941MOL0     C26946   4.537   4.529   7.385  1.0338 -0.1729  0.0281
  941MOL0     C26947   4.577   4.547   7.513  0.3951  0.3775  0.3628
  941MOL0     O26948   4.408   4.545   7.779 -0.1487  1.0496  0.0567
  941MOL0     C26949   4.707   4.538   7.963  1.0165  0.5838  0.7441
  941MOL0     C26950   4.769   4.568   8.086  0.3297  1.2122 -0.8779
  941MOL0     N26951   4.864   4.694   8.800 -0.1295  0.4109 -1.0627
  941MOL0     N26952   4.877   4.799   8.874 -0.5593  0.4483 -0.0254
  941MOL0     C26953   4.821   5.989   8.704  1.0551  0.0034  0.4798
  941MOL0     C26954   4.730   6.095   8.699 -0.2454  0.7035 -0.0140
  941MOL0     C26955   4.343   6.332   8.705 -0.0068 -0.3304  0.7593
  941MOL0     C26956   4.234   6.359   8.793 -1.3886 -0.0460  1.0104
  941MOL0     C26957   4.151   6.467   8.765 -0.4979  0.5410 -0.6380
  941MOL0     C26958   4.168   6.545   8.655  0.2543 -0.0587  1.4130
  941MOL0     O26959   4.069   6.638   8.632 -0.5433  0.5531  0.6278
  941MOL0     C26960   4.003   6.632   8.507  0.1715 -0.7094 -0.2317
  941MOL0     C26961   3.865   6.673   8.545  0.8638  0.0702  0.9246
  941MOL0     C26962   3.753   6.650   8.436 -0.5034  0.4939  0.8534
  941MOL0     C26963   3.615   6.669   8.486  0.2338 -0.4255 -0.5746
  941MOL0     C26964   3.580   6.811   8.507 -0.1170 -0.4648 -0.7488
  941MOL0     C26965   3.579   6.930   8.520  0.5669 -0.3188  1.0015
  941MOL0     C26966   4.279   6.523   8.565  0.7688 -0.5433 -1.4049
  941MOL0     C26967   4.356   6.413   8.589  0.4350 -0.0221 -0.0486
  941MOL0     H26968   4.492   5.939   8.512 -1.6742  0.9244  1.5867
  941MOL0     H26969   4.651   5.775   8.515  0.6976  2.2022 -2.0267
  941MOL0     H26970   5.080   5.815   8.679  0.5405 -0.0204 -1.0999
  941MOL0     H26971   4.971   5.789   8.818  0.4739  0.7529  0.3539
  941MOL0     H26972   5.080   5.576   8.613  1.1916 -0.1774  0.7823
  941MOL0     H26973   5.154   5.616   8.759  1.7409 -1.6358 -1.7283
  941MOL0     H26974   4.942   5.583   8.889 -1.9384 -0.7208  0.2166
  941MOL0     H26975   4.877   5.487   8.748  0.1506 -2.5432  1.8260
  941MOL0     H26976   5.071   5.339   8.768  1.1508  0.9029 -0.7744
  941MOL0     H26977   5.144   5.450   8.884 -1.7451  2.0848  0.8767
  941MOL0     H26978   4.990   5.393   9.054 -2.6378 -1.3063  1.1195
  941MOL0     H26979   4.897   5.294   8.947  0.5069 -1.0659 -0.9165
  941MOL0     H26980   5.166   5.218   9.026  0.0124  1.5890 -1.2998
  941MOL0     H26981   5.020   5.157   9.115  0.4499  1.1623  0.4031
  941MOL0     H26982   4.940   5.089   8.869  0.1631 -0.4783  0.6990
  941MOL0     H26983   5.119   5.092   8.845 -0.2039 -0.8799 -0.8446
  941MOL0     H26984   4.981   4.942   9.064  2.4119  1.9979  0.8671
  941MOL0     H26985   5.150   4.930   9.013  0.4287 -0.3753  0.4611
  941MOL0     H26986   5.195   4.718   8.825  0.0807 -2.0232  0.0495
  941MOL0     H26987   5.141   4.519   8.725  0.4302  2.1395  0.3031
  941MOL0     H26988   4.976   4.455   8.732 -2.8612  1.7430 -1.7523
  941MOL0     H26989   5.079   4.459   8.506  0.9966  0.4303  0.7280
  941MOL0     H26990   5.093   4.631   8.508 -1.6913  3.1190  2.1985
  941MOL0     H26991   4.837   4.638   8.526  0.4589  0.3288  1.7032
  941MOL0     H26992   4.828   4.463   8.515 -0.4191 -0.2122  0.1587
  941MOL0     H26993   4.917   4.501   8.289 -0.8193 -1.5860  1.6657
  941MOL0     H26994   4.944   4.668   8.333 -2.2920  1.2324 -0.0426
  941MOL0     H26995   4.476   4.597   8.267 -3.3489 -0.5925 -2.6774
  941MOL0     H26996   4.284   4.641   8.086 -0.1761  0.5476  2.9309
  941MOL0     H26997   4.284   4.491   7.981  0.6546  1.4885 -0.5068
  941MOL0     H26998   4.302   4.478   8.149  1.4780  0.2554  0.0801
  941MOL0     H26999   4.520   4.228   7.612  0.0088  0.5972  1.2479
  941MOL0     H27000   4.441   4.210   7.379 -0.1755  2.0255 -2.3008
  941MOL0     H27001   4.557   4.535   7.064 -5.1577  0.3438  0.2225
  941MOL0     H27002   4.672   4.410   7.146  0.2277 -3.2008 -1.9031
  941MOL0     H27003   4.630   4.375   6.896  1.2979  0.5867  1.0033
  941MOL0     H27004   4.605   4.244   6.997 -0.3607 -0.7753 -1.7862
  941MOL0     H27005   4.358   4.400   6.921 -2.2010 -0.4907  0.8372
  941MOL0     H27006   4.378   4.249   7.016 -0.8800 -0.7649 -0.6977
  941MOL0     H27007   4.462   4.132   6.818  0.3945  0.5910 -0.6435
  941MOL0     H27008   4.310   4.203   6.780  1.0723 -3.1343 -1.9564
  941MOL0     H27009   4.588   4.323   6.702 -0.1314 -0.7182  4.6587
  941MOL0     H27010   4.432   4.404   6.685 -0.3375  0.4261  0.1952
  941MOL0     H27011   4.510   4.140   6.530 -2.6359 -1.1136  2.0362
  941MOL0     H27012   4.353   4.206   6.530  0.2182  0.4239 -1.5737
  941MOL0     H27013   4.388   4.401   6.454 -1.5578 -2.0941  3.3837
  941MOL0     H27014   4.456   4.268   6.341  0.9642  1.8525 -1.3953
  941MOL0     H27015   4.584   4.500   6.464  0.0226  0.2817 -1.1992
  941MOL0     H27016   4.594   4.450   6.299  3.2120  0.4681 -0.1807
  941MOL0     H27017   4.527   4.617   7.322 -4.1006  0.4338  1.2896
  941MOL0     H27018   4.605   4.644   7.551  0.7563  0.4458 -0.0578
  941MOL0     H27019   4.770   4.521   7.877  2.5146  4.2926  0.9422
  941MOL0     H27020   4.876   4.584   8.092  0.2933  1.1020  0.5103
  941MOL0     H27021   4.911   6.004   8.763  1.5764 -0.5988 -0.1329
  941MOL0     H27022   4.746   6.192   8.745 -0.4965  0.0032  1.6315
  941MOL0     H27023   4.219   6.298   8.882 -2.7193 -1.4766 -0.1514
  941MOL0     H27024   4.066   6.482   8.831  0.9903  0.1034  1.4689
  941MOL0     H27025   4.061   6.693   8.436 -1.8419  0.2019 -1.1861
  941MOL0     H27026   3.997   6.528   8.473  1.2824 -0.8554 -0.0100
  941MOL0     H27027   3.875   6.780   8.569  0.7828  0.7690 -1.8469
  941MOL0     H27028   3.841   6.601   8.624  3.3974 -4.5214 -2.0217
  941MOL0     H27029   3.749   6.548   8.395 -0.1138 -0.0420  2.0827
  941MOL0     H27030   3.764   6.724   8.357 -2.3497 -0.0158  0.0640
  941MOL0     H27031   3.595   6.626   8.584 -1.1767 -3.3579 -1.9941
  941MOL0     H27032   3.543   6.628   8.414 -1.2843  1.0414  0.0510
  941MOL0     H27033   3.566   7.036   8.513  1.9166 -0.2556 -2.1254
  941MOL0     H27034   4.302   6.603   8.495  1.0703  1.0172  0.4029
  941MOL0     H27035   4.444   6.397   8.527  0.1420  2.9490 -1.3780
  942MOL0     O27036   8.953   9.940   1.985 -0.7916  0.2282 -0.4225
  942MOL0     C27037   8.903  10.048   1.988  0.5549  0.3105 -0.6106
  942MOL0     O27038   8.771  10.070   2.018 -0.5121 -0.5239 -0.2212
  942MOL0     C27039   8.696   9.955   2.040 -0.3842 -0.3990 -0.5283
  942MOL0     C27040   8.708   9.883   2.157  0.1142 -0.1591 -0.0312
  942MOL0     C27041   8.632   9.765   2.181 -0.4428  0.6530 -0.7544
  942MOL0     C27042   8.548   9.717   2.081 -0.7275 -0.0894  0.1718
  942MOL0     O27043   8.478   9.598   2.096 -0.2093  0.3013  0.1820
  942MOL0     C27044   8.547   9.479   2.123  0.6532 -0.5886 -0.2942
  942MOL0     C27045   8.484   9.425   2.248  0.1720 -0.9648 -0.5828
  942MOL0     C27046   8.324   9.403   2.262 -0.2379  0.0173  0.4815
  942MOL0     C27047   8.271   9.307   2.158  0.9512 -0.4930  0.1261
  942MOL0     C27048   8.126   9.302   2.150  0.1114 -0.6952 -1.0252
  942MOL0     C27049   8.074   9.274   1.998 -0.5311  0.1405 -0.6809
  942MOL0     C27050   7.937   9.216   1.990  0.1687  0.5507 -0.4609
  942MOL0     C27051   7.889   9.212   1.847 -0.2440 -0.1481 -0.1775
  942MOL0     N27052   7.748   9.156   1.835 -0.3179 -0.3835 -0.1901
  942MOL0     C27053   7.710   9.049   1.756 -0.3951  0.0914 -0.1924
  942MOL0     C27054   7.577   9.028   1.773  0.1626  0.6765 -0.2996
  942MOL0     C27055   7.490   8.909   1.726  0.5706  0.1587  0.1801
  942MOL0     C27056   7.386   8.938   1.617 -0.6419  0.3909 -0.9651
  942MOL0     C27057   7.265   9.013   1.677  1.4298  0.1657 -1.2687
  942MOL0     C27058   7.153   9.041   1.575 -0.0455  0.7004 -0.3180
  942MOL0     O27059   7.079   8.924   1.556  0.2327 -0.1095  0.1107
  942MOL0     C27060   6.970   8.931   1.473  1.6112  0.9642 -0.0762
  942MOL0     C27061   6.914   9.045   1.413 -0.3987  0.6340 -0.1816
  942MOL0     C27062   6.795   9.030   1.346  0.0642 -0.8493 -0.3174
  942MOL0     C27063   6.747   9.162   1.283 -0.1404 -0.2357 -0.3073
  942MOL0     C27064   6.728   8.905   1.325 -0.0218 -0.1988  0.6267
  942MOL0     C27065   6.593   8.882   1.259 -0.7249 -0.0193 -0.4925
  942MOL0     O27066   6.552   8.754   1.234  0.7027 -0.7552  0.2337
  942MOL0     C27067   6.426   8.725   1.187 -0.2612 -1.0185  1.2468
  942MOL0     C27068   6.399   8.705   1.051 -0.9596  1.0813  0.3267
  942MOL0     C27069   6.272   8.670   1.003 -0.3911 -0.2498 -0.0288
  942MOL0     C27070   6.162   8.641   1.093 -0.5061 -0.8938 -0.2684
  942MOL0     O27071   6.039   8.599   1.049  0.1622 -0.7477 -0.7052
  942MOL0     C27072   6.004   8.627   0.915 -0.9722 -0.4706  0.1300
  942MOL0     C27073   5.857   8.620   0.897  0.3846 -0.6556  0.9594
  942MOL0     C27074   5.815   8.614   0.749 -0.5030  0.2807 -0.1037
  942MOL0     C27075   5.829   8.745   0.690 -0.3097  0.3638  0.6685
  942MOL0     C27076   5.767   8.751   0.545  0.0253  0.5025  0.1081
  942MOL0     C27077   5.752   8.610   0.475  0.6895 -0.0300 -0.0110
  942MOL0     C27078   5.677   8.616   0.341  1.3633 -0.4623 -0.4553
  942MOL0     C27079   5.645   8.479   0.286 -0.3530 -0.4614  0.8178
  942MOL0    Cl27080   5.516   8.411   0.393 -0.1284 -0.0091  0.0354
  942MOL0     C27081   6.196   8.650   1.227 -0.1705 -0.5165 -0.6302
  942MOL0     C27082   6.325   8.695   1.277  0.4353 -0.6081  0.1723
  942MOL0     O27083   6.534   8.982   1.220  0.0311 -0.2803  0.2819
  942MOL0     C27084   6.793   8.792   1.371  1.3330 -0.1261 -0.1446
  942MOL0     C27085   6.910   8.809   1.445  0.4893  0.7524 -0.8851
  942MOL0     N27086   7.535   9.132   1.861  0.3157  0.3977  0.5579
  942MOL0     N27087   7.632   9.208   1.888 -0.2754 -0.5389  0.0057
  942MOL0     C27088   8.536   9.796   1.963 -0.0542 -0.5039  0.3540
  942MOL0     C27089   8.608   9.917   1.949 -0.4831  0.2724  0.5897
  942MOL0     C27090   8.993  10.160   1.959  0.3319 -0.3235 -0.5767
  942MOL0     C27091   8.948  10.277   1.895 -0.2975  0.5441 -0.7917
  942MOL0     C27092   9.035  10.376   1.857 -0.4097  0.1276 -0.2103
  942MOL0     C27093   9.173  10.361   1.864  0.1793 -0.4100  0.4738
  942MOL0     O27094   9.250  10.453   1.797  0.3090  0.4295  0.4874
  942MOL0     C27095   9.299  10.397   1.671  0.8131 -0.4796  0.6740
  942MOL0     C27096   9.184  10.361   1.570 -0.2357 -0.4593  0.2229
  942MOL0     C27097   9.095  10.480   1.517  0.1182 -0.0576  0.8886
  942MOL0     C27098   8.952  10.426   1.484  0.2187 -0.2353  0.3849
  942MOL0     C27099   8.869  10.540   1.439 -0.3225 -0.1705  0.7533
  942MOL0     C27100   8.811  10.634   1.396 -0.3680 -0.0181  0.4211
  942MOL0     C27101   9.222  10.244   1.912  0.1939  0.3596 -0.7017
  942MOL0     C27102   9.133  10.150   1.965 -0.9239  0.1732  0.4398
  942MOL0     H27103   8.776   9.900   2.240 -0.6234 -0.8401  0.7285
  942MOL0     H27104   8.647   9.710   2.273 -1.4165  1.2836 -0.2187
  942MOL0     H27105   8.530   9.406   2.043  1.3749 -1.9982  0.7944
  942MOL0     H27106   8.651   9.506   2.140  0.1584  1.6032 -0.4428
  942MOL0     H27107   8.539   9.334   2.272  1.3682 -0.4764 -1.3890
  942MOL0     H27108   8.507   9.487   2.335 -1.0069  0.4647 -1.2443
  942MOL0     H27109   8.290   9.368   2.360 -4.0702 -0.1351 -0.7222
  942MOL0     H27110   8.276   9.502   2.260 -2.5863 -1.0318  0.7877
  942MOL0     H27111   8.313   9.337   2.062 -1.5515  2.1921 -0.2728
  942MOL0     H27112   8.310   9.208   2.180  1.1256 -0.6063 -0.6866
  942MOL0     H27113   8.095   9.220   2.216  3.6555  0.9845  3.1406
  942MOL0     H27114   8.081   9.394   2.189 -1.8839 -2.8773  2.3268
  942MOL0     H27115   8.063   9.366   1.939  0.1645  1.2272  0.8063
  942MOL0     H27116   8.149   9.213   1.949 -0.4119 -0.8750  0.7228
  942MOL0     H27117   7.946   9.118   2.037  2.3489  0.6940 -0.4701
  942MOL0     H27118   7.872   9.278   2.053 -1.0776 -0.4086 -0.7654
  942MOL0     H27119   7.962   9.152   1.793  1.5399  1.3463  0.4761
  942MOL0     H27120   7.883   9.315   1.813 -2.6208 -0.4292 -0.7580
  942MOL0     H27121   7.777   8.986   1.699  0.9540  3.3554 -2.5527
  942MOL0     H27122   7.569   8.843   1.689  0.1393  1.4790 -3.5097
  942MOL0     H27123   7.430   8.865   1.806 -0.7971 -0.6521 -1.2488
  942MOL0     H27124   7.361   8.847   1.562 -2.6557  0.1315  0.2795
  942MOL0     H27125   7.422   9.005   1.538 -0.9823  0.1943 -1.2915
  942MOL0     H27126   7.296   9.109   1.717 -0.4488  0.3815 -0.1988
  942MOL0     H27127   7.209   8.945   1.742 -2.1063  2.3061 -1.7953
  942MOL0     H27128   7.210   9.065   1.485 -1.5122  4.8453 -0.3909
  942MOL0     H27129   7.102   9.131   1.611 -0.4773  0.0747  0.6868
  942MOL0     H27130   6.966   9.139   1.430 -1.3773  1.3352 -0.9530
  942MOL0     H27131   6.789   9.257   1.318 -0.9352  0.6934 -1.7712
  942MOL0     H27132   6.771   9.160   1.177 -3.8970  2.1221 -1.3895
  942MOL0     H27133   6.639   9.181   1.284 -0.2227 -0.4296  2.1288
  942MOL0     H27134   6.481   8.724   0.983 -1.9745  3.3089 -0.3818
  942MOL0     H27135   6.260   8.639   0.899 -3.6356 -0.1043  0.1938
  942MOL0     H27136   6.046   8.713   0.861  0.9218 -2.2252 -1.3378
  942MOL0     H27137   6.039   8.538   0.862  0.4225 -0.8733  1.6249
  942MOL0     H27138   5.816   8.538   0.956  2.3489 -1.9184  0.6588
  942MOL0     H27139   5.812   8.708   0.944 -1.4729 -1.8908  1.6226
  942MOL0     H27140   5.707   8.597   0.741 -0.4785  0.3552 -0.6339
  942MOL0     H27141   5.860   8.525   0.705 -0.5765 -0.3134  0.9673
  942MOL0     H27142   5.789   8.821   0.758  0.8360 -0.2317  2.0715
  942MOL0     H27143   5.931   8.785   0.684  0.1318 -0.6841  1.0795
  942MOL0     H27144   5.817   8.815   0.471 -0.5214  2.2320  1.1691
  942MOL0     H27145   5.664   8.788   0.539 -1.2153 -2.8011 -1.3957
  942MOL0     H27146   5.841   8.548   0.462  1.0794  0.9078 -2.4580
  942MOL0     H27147   5.687   8.545   0.533 -0.2382  0.2592 -0.7091
  942MOL0     H27148   5.741   8.656   0.261 -2.6875  1.9912 -2.8287
  942MOL0     H27149   5.584   8.669   0.364 -0.6366 -3.2706 -1.5589
  942MOL0     H27150   5.737   8.422   0.272 -1.4368 -1.9478 -0.7637
  942MOL0     H27151   5.604   8.493   0.185  2.5195  2.2077 -0.1362
  942MOL0     H27152   6.123   8.633   1.306 -0.1249  2.6790  0.2276
  942MOL0     H27153   6.340   8.714   1.383 -1.6267 -0.8167  0.5333
  942MOL0     H27154   6.750   8.695   1.352  0.3948 -0.1869  1.9643
  942MOL0     H27155   6.961   8.725   1.491 -0.8533 -0.4646 -1.5318
  942MOL0     H27156   8.468   9.762   1.885  1.8028 -2.0010 -0.7222
  942MOL0     H27157   8.603   9.963   1.850  1.0596 -1.5296 -0.3887
  942MOL0     H27158   8.841  10.289   1.895 -0.4285  1.6811  4.3338
  942MOL0     H27159   9.000  10.464   1.804  1.1448  2.3045  2.1252
  942MOL0     H27160   9.364  10.470   1.622  1.4625 -2.3052 -1.3083
  942MOL0     H27161   9.358  10.306   1.684 -1.6746 -2.1464  0.9756
  942MOL0     H27162   9.108  10.294   1.610 -2.6466 -0.0114 -3.1708
  942MOL0     H27163   9.226  10.306   1.485  0.5627 -1.7704  1.4187
  942MOL0     H27164   9.152  10.524   1.434  1.9225  1.4745  2.8183
  942MOL0     H27165   9.094  10.549   1.602 -1.7395  0.5491  0.4131
  942MOL0     H27166   8.909  10.376   1.572 -5.6768  4.1934  0.6624
  942MOL0     H27167   8.954  10.355   1.401  2.1422  0.2563 -0.0326
  942MOL0     H27168   8.759  10.725   1.372 -2.2340 -0.8958  0.9267
  942MOL0     H27169   9.329  10.245   1.927  0.0293  2.7517  0.8335
  942MOL0     H27170   9.181  10.059   2.001  0.4046  0.2714 -0.9804
  943MOL0     O27171  11.057   3.203   3.755 -0.6352  1.1428 -0.8519
  943MOL0     C27172  11.180   3.213   3.739 -0.0875  0.4647  0.8838
  943MOL0     O27173  11.239   3.298   3.648  0.4153 -0.5920  0.5513
  943MOL0     C27174  11.145   3.388   3.599  0.4067 -0.2965 -0.2064
  943MOL0     C27175  11.083   3.349   3.481 -0.1792 -0.2688  1.0630
  943MOL0     C27176  10.976   3.409   3.424 -0.8066 -0.1778 -0.9137
  943MOL0     C27177  10.918   3.518   3.494  0.0739 -0.1061 -1.0183
  943MOL0     O27178  10.811   3.596   3.464 -0.7187  0.5032  0.2149
  943MOL0     C27179  10.774   3.595   3.325  0.6166  0.0285 -0.7412
  943MOL0     C27180  10.684   3.714   3.286  0.5611 -0.4418 -0.4870
  943MOL0     C27181  10.710   3.763   3.146 -0.1469 -0.4565 -0.6268
  943MOL0     C27182  10.612   3.873   3.103 -0.9353 -0.5880 -0.2036
  943MOL0     C27183  10.649   3.919   2.953  0.1942 -0.2597 -1.0536
  943MOL0     C27184  10.643   3.805   2.846 -0.5560  0.2094 -0.6666
  943MOL0     C27185  10.615   3.862   2.708 -1.2470 -0.6284 -0.9910
  943MOL0     C27186  10.471   3.837   2.651 -0.3552 -0.1694  0.3303
  943MOL0     N27187  10.359   3.917   2.709 -0.1946 -0.3172 -0.3820
  943MOL0     C27188  10.321   3.889   2.839 -0.1885 -0.0451  0.1040
  943MOL0     C27189  10.208   3.969   2.856 -0.7110  0.4790  0.6615
  943MOL0     C27190  10.127   4.017   2.978 -0.1483  0.2150 -1.3781
  943MOL0     C27191  10.168   4.157   3.009  0.1886  0.2673 -0.9399
  943MOL0     C27192  10.066   4.210   3.114 -0.3561  0.0541 -0.6499
  943MOL0     C27193  10.107   4.363   3.128 -0.6897 -0.3815 -0.6550
  943MOL0     O27194  10.248   4.379   3.151  1.4969 -0.1613  0.5257
  943MOL0     C27195  10.282   4.405   3.280  1.4391 -0.1626 -0.2745
  943MOL0     C27196  10.331   4.312   3.364  0.9715  0.5931  0.1129
  943MOL0     C27197  10.369   4.339   3.497 -1.0245 -0.0982  0.3002
  943MOL0     C27198  10.440   4.233   3.573 -0.1350  0.7545 -0.7624
  943MOL0     C27199  10.347   4.461   3.553 -0.0279 -1.5149  0.1520
  943MOL0     C27200  10.392   4.501   3.688  0.8139 -0.5219  0.1447
  943MOL0     O27201  10.455   4.414   3.764 -0.1139 -0.3046  0.4651
  943MOL0     C27202  10.553   4.445   3.865 -0.1800 -0.0632 -0.1273
  943MOL0     C27203  10.609   4.568   3.901  0.0483 -0.2333 -0.0611
  943MOL0     C27204  10.712   4.584   3.994  0.1173 -0.6034  0.1400
  943MOL0     C27205  10.757   4.468   4.057 -0.2764  0.5974  0.1409
  943MOL0     O27206  10.861   4.488   4.141  0.5182 -0.6990  1.2197
  943MOL0     C27207  10.903   4.384   4.218 -1.0763 -0.3473 -1.5777
  943MOL0     C27208  10.978   4.448   4.326  0.6702 -0.5175  0.0783
  943MOL0     C27209  11.098   4.541   4.283 -1.3736  0.5574  1.1392
  943MOL0     C27210  11.175   4.588   4.402  0.5241 -0.7023  0.4414
  943MOL0     C27211  11.283   4.684   4.353 -0.6202 -0.2767 -0.5462
  943MOL0     C27212  11.411   4.623   4.295  0.4873 -0.2354 -0.2152
  943MOL0     C27213  11.431   4.473   4.319 -0.8598  0.8196  0.4691
  943MOL0     C27214  11.489   4.443   4.461  0.9471  0.8081 -0.9212
  943MOL0    Cl27215  11.411   4.302   4.522 -0.6048  0.0729  0.4708
  943MOL0     C27216  10.703   4.345   4.034 -0.4728  0.5249 -0.9014
  943MOL0     C27217  10.600   4.337   3.953  0.0205 -0.5735  0.1292
  943MOL0     O27218  10.366   4.619   3.722  0.3876  0.9261  0.7152
  943MOL0     C27219  10.283   4.561   3.468 -0.0773  0.9127 -0.4523
  943MOL0     C27220  10.256   4.530   3.338  0.3342  0.0718  0.5876
  943MOL0     N27221  10.195   4.033   2.734  0.3366 -0.2340 -0.9662
  943MOL0     N27222  10.285   4.009   2.645 -0.3213  0.3411  0.0404
  943MOL0     C27223  10.972   3.562   3.620 -0.1439 -0.5755 -0.0804
  943MOL0     C27224  11.085   3.493   3.667 -0.3175 -0.2018  0.4124
  943MOL0     C27225  11.266   3.133   3.818 -0.1287  0.1208  0.0406
  943MOL0     C27226  11.222   3.021   3.891  0.7296  0.2785  0.5399
  943MOL0     C27227  11.306   2.932   3.958 -0.4608 -0.4450  0.0764
  943MOL0     C27228  11.444   2.953   3.934  0.3231 -0.1851 -0.6752
  943MOL0     O27229  11.541   2.860   3.978  0.3158  0.8559  0.9359
  943MOL0     C27230  11.508   2.742   4.041 -0.2890 -0.1341 -0.6151
  943MOL0     C27231  11.494   2.619   3.953 -0.1902  0.0749  0.1529
  943MOL0     C27232  11.619   2.588   3.862  0.1458  1.0055  0.1798
  943MOL0     C27233  11.734   2.574   3.960 -1.0574 -0.1281 -0.5234
  943MOL0     C27234  11.843   2.485   3.898  0.4851  0.4343  0.9850
  943MOL0     C27235  11.919   2.404   3.844  0.6446 -0.0229  0.3808
  943MOL0     C27236  11.492   3.059   3.869 -0.9306  0.4838 -1.1242
  943MOL0     C27237  11.404   3.142   3.810  0.5475  1.7402  0.2611
  943MOL0     H27238  11.122   3.271   3.416 -1.0276  1.7603 -2.1362
  943MOL0     H27239  10.947   3.358   3.333  1.0351 -1.7796 -0.6640
  943MOL0     H27240  10.864   3.598   3.265  1.1702  1.5946  0.1285
  943MOL0     H27241  10.729   3.498   3.300 -1.4697  0.3797  1.2602
  943MOL0     H27242  10.579   3.693   3.306  1.0136 -3.3480 -0.7909
  943MOL0     H27243  10.717   3.798   3.348 -0.3996 -1.5050  1.5726
  943MOL0     H27244  10.806   3.813   3.129 -0.5744 -0.1368 -2.2817
  943MOL0     H27245  10.708   3.677   3.078 -0.6472 -2.2484  1.5260
  943MOL0     H27246  10.508   3.840   3.115 -1.3726  1.6528  4.4392
  943MOL0     H27247  10.623   3.962   3.166 -1.3540  2.1747 -3.6926
  943MOL0     H27248  10.568   3.990   2.932 -0.7948 -0.1263  2.6514
  943MOL0     H27249  10.742   3.975   2.955 -0.6612  1.3725  3.3530
  943MOL0     H27250  10.727   3.736   2.844  0.9428  1.9205  0.3869
  943MOL0     H27251  10.563   3.741   2.885  2.2100 -2.5513  0.8338
  943MOL0     H27252  10.630   3.970   2.708  0.2722 -0.8183  0.2188
  943MOL0     H27253  10.697   3.831   2.643 -0.6651  1.2678 -1.2378
  943MOL0     H27254  10.445   3.733   2.669  1.2570 -1.2020 -2.6365
  943MOL0     H27255  10.476   3.861   2.544 -1.1998  0.2051  0.3583
  943MOL0     H27256  10.377   3.833   2.913  0.4403  1.7559  1.0664
  943MOL0     H27257  10.021   4.035   2.959 -0.0640  1.7391 -0.5332
  943MOL0     H27258  10.136   3.945   3.060  2.0310  2.2807  0.2933
  943MOL0     H27259  10.155   4.212   2.915 -2.5414 -2.1335 -2.1164
  943MOL0     H27260  10.267   4.157   3.056 -0.6778  3.0597  1.1264
  943MOL0     H27261  10.057   4.154   3.207  0.3717 -0.3194 -0.8006
  943MOL0     H27262   9.967   4.219   3.069 -0.1714  2.4330 -0.6990
  943MOL0     H27263  10.048   4.411   3.205  1.8881  2.3651 -0.2018
  943MOL0     H27264  10.082   4.419   3.037 -0.0413 -0.7175 -1.0526
  943MOL0     H27265  10.353   4.211   3.331  1.7904  0.3914  1.2236
  943MOL0     H27266  10.546   4.260   3.577  0.2303 -0.7762  0.6612
  943MOL0     H27267  10.400   4.220   3.674  1.4215  1.1612 -0.0691
  943MOL0     H27268  10.437   4.133   3.529 -1.9847 -0.0067  0.9163
  943MOL0     H27269  10.587   4.658   3.845  5.4276  3.1521  2.4502
  943MOL0     H27270  10.733   4.689   4.010 -3.8201  0.3205  0.2623
  943MOL0     H27271  10.816   4.340   4.268 -0.0760 -0.9301 -0.3041
  943MOL0     H27272  10.964   4.320   4.154  2.1969  1.9968 -1.0798
  943MOL0     H27273  10.914   4.515   4.384  1.8661  1.8328 -1.1737
  943MOL0     H27274  11.013   4.379   4.403 -0.8564 -1.0814  0.3059
  943MOL0     H27275  11.062   4.621   4.218 -0.3521 -0.1091 -0.2941
  943MOL0     H27276  11.156   4.480   4.214 -1.7181 -1.3211  2.4283
  943MOL0     H27277  11.105   4.647   4.463 -0.0426  2.3062 -2.8127
  943MOL0     H27278  11.211   4.499   4.454  0.4516 -1.3010 -0.5162
  943MOL0     H27279  11.308   4.727   4.451  0.4430 -2.7075  0.3248
  943MOL0     H27280  11.264   4.770   4.288  7.0040  2.3187 -0.2667
  943MOL0     H27281  11.395   4.628   4.186 -3.2068  0.3908  0.2201
  943MOL0     H27282  11.491   4.694   4.317 -0.4290  0.9373 -0.5131
  943MOL0     H27283  11.499   4.437   4.241 -1.8997 -1.8974  0.6996
  943MOL0     H27284  11.338   4.416   4.310  0.3680 -1.1566 -0.2872
  943MOL0     H27285  11.475   4.534   4.519  1.0466 -0.0888  0.5517
  943MOL0     H27286  11.594   4.413   4.462  0.7303  0.0185  0.4187
  943MOL0     H27287  10.737   4.251   4.076 -1.5599 -0.9676 -3.2270
  943MOL0     H27288  10.574   4.233   3.937  1.6885 -0.9472 -0.3072
  943MOL0     H27289  10.255   4.659   3.507  2.1339  1.2195  0.5005
  943MOL0     H27290  10.215   4.615   3.283  1.0714 -0.9221 -1.6122
  943MOL0     H27291  10.919   3.637   3.680  0.3986 -1.0559  1.0331
  943MOL0     H27292  11.113   3.497   3.772 -1.7986 -1.0092  0.8750
  943MOL0     H27293  11.116   2.998   3.892  0.8842 -0.4845  1.7353
  943MOL0     H27294  11.276   2.845   4.015  1.8440 -0.1722  1.8466
  943MOL0     H27295  11.592   2.727   4.110 -0.1940  1.7549 -0.2638
  943MOL0     H27296  11.426   2.748   4.113  0.7199 -1.0314  0.6693
  943MOL0     H27297  11.411   2.637   3.884 -0.5128 -1.0093  0.2255
  943MOL0     H27298  11.466   2.526   4.003  2.1796 -0.8835 -0.1512
  943MOL0     H27299  11.631   2.659   3.780 -0.0400  0.3442 -0.4253
  943MOL0     H27300  11.611   2.488   3.820  3.8488  0.2176  1.0359
  943MOL0     H27301  11.692   2.513   4.041 -0.5284 -1.9891 -1.6038
  943MOL0     H27302  11.782   2.667   3.991 -0.2985 -0.8624  0.5851
  943MOL0     H27303  11.994   2.342   3.799 -1.6339 -1.0475 -2.3451
  943MOL0     H27304  11.598   3.056   3.844  0.1302  1.6210  2.6323
  943MOL0     H27305  11.447   3.200   3.729 -0.3438  0.2968 -1.3153
  944MOL0     O27306   6.822   1.763   2.946 -0.8762  0.0780 -0.5124
  944MOL0     C27307   6.944   1.782   2.932 -0.1551  0.4316  0.5561
  944MOL0     O27308   7.035   1.686   2.904  0.1246  0.1934  0.1842
  944MOL0     C27309   6.999   1.555   2.899  0.6230 -1.1122 -0.6153
  944MOL0     C27310   7.090   1.470   2.977  0.7064  0.1384  0.1037
  944MOL0     C27311   7.052   1.334   2.999  0.0697 -0.1840 -0.0187
  944MOL0     C27312   6.934   1.283   2.937  0.0528 -0.0267 -1.1990
  944MOL0     O27313   6.891   1.152   2.950  0.5710 -0.1165  0.2952
  944MOL0     C27314   6.941   1.067   3.049  0.5907  0.9230 -0.0697
  944MOL0     C27315   7.064   0.990   3.004  0.2547  0.7600 -0.0512
  944MOL0     C27316   7.019   0.874   2.914 -0.1790 -0.8154 -1.1290
  944MOL0     C27317   7.145   0.797   2.868  0.5450  0.9649 -0.8038
  944MOL0     C27318   7.112   0.677   2.779  0.3573 -0.0539  1.0773
  944MOL0     C27319   7.222   0.568   2.764 -0.6699 -0.5877  0.0858
  944MOL0     C27320   7.360   0.625   2.714 -0.9303  0.1970  0.6447
  944MOL0     C27321   7.344   0.707   2.586 -0.1136 -0.3908 -1.4006
  944MOL0     N27322   7.291   0.620   2.481 -0.3034 -0.7973  0.6934
  944MOL0     C27323   7.370   0.536   2.411  0.3517 -0.0198 -0.0275
  944MOL0     C27324   7.283   0.487   2.321 -0.3521  0.6567  0.5444
  944MOL0     C27325   7.328   0.398   2.216  0.0004  0.1852 -0.7053
  944MOL0     C27326   7.399   0.468   2.104  0.2923 -0.7501  0.1666
  944MOL0     C27327   7.311   0.561   2.030 -0.0007  0.2411  1.2652
  944MOL0     C27328   7.233   0.487   1.931 -0.4461  0.2810  0.7371
  944MOL0     O27329   7.109   0.564   1.910 -0.2996 -0.0665 -0.4180
  944MOL0     C27330   6.990   0.507   1.869  0.3730 -0.1185 -0.3793
  944MOL0     C27331   6.961   0.375   1.810 -0.4748 -0.0432 -0.5411
  944MOL0     C27332   6.830   0.320   1.780 -0.8148 -0.8614 -0.4109
  944MOL0     C27333   6.822   0.174   1.741 -0.2600  0.5969 -0.1104
  944MOL0     C27334   6.715   0.403   1.807 -0.3337 -0.0184 -0.8623
  944MOL0     C27335   6.584   0.361   1.788  0.0710 -0.1601 -0.2033
  944MOL0     O27336   6.474   0.429   1.848  0.3230  0.0245 -0.2501
  944MOL0     C27337   6.352   0.406   1.789 -0.1959  0.9304  0.6685
  944MOL0     C27338   6.276   0.294   1.838 -0.3082  0.5123 -0.1737
  944MOL0     C27339   6.156   0.257   1.767 -0.3270 -0.5957 -0.2290
  944MOL0     C27340   6.115   0.331   1.658 -0.3956 -0.5021  0.9135
  944MOL0     O27341   6.004   0.323   1.584 -0.0633  0.0033 -0.4801
  944MOL0     C27342   5.932   0.202   1.593 -0.1367 -0.6047 -0.3029
  944MOL0     C27343   5.812   0.223   1.500 -0.5143  0.2684 -0.5707
  944MOL0     C27344   5.856   0.218   1.351  0.4301 -0.0807 -0.4889
  944MOL0     C27345   5.938   0.341   1.313 -0.7368  0.9929 -0.5203
  944MOL0     C27346   5.936   0.354   1.159 -0.0000 -0.4638  0.0750
  944MOL0     C27347   6.037   0.261   1.095  0.2585  0.0198 -0.4497
  944MOL0     C27348   6.027   0.299   0.950  0.1647 -0.1337 -0.2325
  944MOL0     C27349   6.096   0.187   0.866  0.4072 -0.5753  0.6900
  944MOL0    Cl27350   6.279   0.202   0.889  0.1804  0.5796  0.3848
  944MOL0     C27351   6.179   0.454   1.631 -0.3716  0.1970  1.1304
  944MOL0     C27352   6.300   0.492   1.697  0.2383  0.2324  1.8084
  944MOL0     O27353   6.573   0.277   1.704  0.1490 -0.0778 -0.2033
  944MOL0     C27354   6.747   0.534   1.859  0.0864  0.0887  0.2406
  944MOL0     C27355   6.875   0.580   1.891 -1.1240  0.9849  0.2646
  944MOL0     N27356   7.155   0.529   2.338  0.3869 -0.2631 -1.2107
  944MOL0     N27357   7.166   0.610   2.432  0.3785  0.8409  0.3308
  944MOL0     C27358   6.856   1.370   2.867  0.4461 -0.2669  0.3910
  944MOL0     C27359   6.885   1.503   2.841  0.2149 -0.0228 -0.5023
  944MOL0     C27360   7.004   1.926   2.951 -1.8074  0.0285  0.1666
  944MOL0     C27361   6.940   2.042   2.904 -0.5163 -0.3571  0.1804
  944MOL0     C27362   7.009   2.169   2.921 -0.6617  0.5409  0.4338
  944MOL0     C27363   7.136   2.181   2.969  1.0576  0.0203 -0.0130
  944MOL0     O27364   7.202   2.297   3.001 -0.6338 -0.5501 -0.1830
  944MOL0     C27365   7.205   2.402   2.901 -0.9722 -0.1636  0.5116
  944MOL0     C27366   7.106   2.516   2.949 -0.7781  0.7298 -0.4979
  944MOL0     C27367   7.137   2.551   3.099  0.4042 -0.8291  0.3939
  944MOL0     C27368   7.069   2.678   3.142  0.4284 -0.0205  0.4994
  944MOL0     C27369   6.917   2.666   3.152 -0.2078  0.7765  0.1747
  944MOL0     C27370   6.808   2.649   3.193 -0.2980 -0.5710  0.2177
  944MOL0     C27371   7.197   2.064   3.010 -0.3599 -0.5835 -1.2477
  944MOL0     C27372   7.136   1.941   2.995 -0.2371  0.0773 -0.4120
  944MOL0     H27373   7.173   1.511   3.034 -2.3046  2.2370  3.3810
  944MOL0     H27374   7.114   1.275   3.065  1.1296  0.5683 -0.3090
  944MOL0     H27375   6.962   1.132   3.135  2.9967 -1.8682  1.6193
  944MOL0     H27376   6.864   0.994   3.075  3.0242 -2.8630 -2.4867
  944MOL0     H27377   7.134   1.054   2.950  1.2005  0.0982  0.3764
  944MOL0     H27378   7.105   0.950   3.097  1.4127  3.5624  0.7393
  944MOL0     H27379   6.953   0.810   2.974  0.0059  1.7252  2.0926
  944MOL0     H27380   6.958   0.913   2.832 -0.6223  2.2632  0.4746
  944MOL0     H27381   7.213   0.865   2.817 -1.4985  3.5146 -0.3169
  944MOL0     H27382   7.193   0.757   2.959 -1.2396  0.2693 -0.1124
  944MOL0     H27383   7.028   0.619   2.818  1.7189 -3.0206 -0.0647
  944MOL0     H27384   7.063   0.714   2.689  0.4193  0.6877  1.3400
  944MOL0     H27385   7.233   0.516   2.859 -1.1609  1.9694  1.6401
  944MOL0     H27386   7.196   0.494   2.687 -2.5594 -0.0943  0.1966
  944MOL0     H27387   7.413   0.687   2.787 -0.6913  2.3489 -1.2245
  944MOL0     H27388   7.427   0.539   2.708  1.2175  1.6235  2.5713
  944MOL0     H27389   7.447   0.732   2.560  1.0483 -1.7115  1.4762
  944MOL0     H27390   7.291   0.802   2.592 -0.0754 -0.4503  0.7293
  944MOL0     H27391   7.477   0.521   2.425  0.8198  3.0657  0.2393
  944MOL0     H27392   7.387   0.317   2.260  1.5891  2.7854  2.4460
  944MOL0     H27393   7.247   0.344   2.167  1.7531 -2.1681 -1.1882
  944MOL0     H27394   7.442   0.394   2.036 -0.0772 -1.5225  0.7578
  944MOL0     H27395   7.488   0.517   2.143 -0.1386  0.7156 -0.6404
  944MOL0     H27396   7.373   0.628   1.969 -0.6264  0.0546  0.4045
  944MOL0     H27397   7.248   0.628   2.089  0.2365  2.9008 -1.2385
  944MOL0     H27398   7.209   0.386   1.965 -0.2136  0.4073  1.2850
  944MOL0     H27399   7.284   0.486   1.834 -2.5400  1.9085 -0.4682
  944MOL0     H27400   7.049   0.315   1.793  0.9323  1.8592 -0.2462
  944MOL0     H27401   6.758   0.145   1.658  0.2769  2.4446 -1.2230
  944MOL0     H27402   6.923   0.140   1.719 -1.1838 -0.7613 -2.5338
  944MOL0     H27403   6.790   0.133   1.837  1.1745  3.0982  1.5541
  944MOL0     H27404   6.315   0.247   1.928 -0.3958  3.1203  1.3334
  944MOL0     H27405   6.088   0.178   1.798  0.6622 -1.9841 -1.4372
  944MOL0     H27406   5.994   0.115   1.568  1.6615  0.4900  0.2076
  944MOL0     H27407   5.888   0.193   1.693 -0.6381 -0.6926 -0.5304
  944MOL0     H27408   5.739   0.148   1.529  3.3550 -2.9570  1.9853
  944MOL0     H27409   5.760   0.318   1.515 -4.5080 -1.7493 -0.5621
  944MOL0     H27410   5.761   0.212   1.298  0.3889 -0.8754 -0.3491
  944MOL0     H27411   5.916   0.130   1.326  0.3348 -0.8000  1.6036
  944MOL0     H27412   5.891   0.433   1.350 -3.3568  0.9206 -3.2599
  944MOL0     H27413   6.044   0.336   1.339 -1.1250 -0.5509  0.9310
  944MOL0     H27414   5.962   0.457   1.133  1.5980 -1.3481 -2.1822
  944MOL0     H27415   5.833   0.335   1.127 -0.2747  1.7718 -0.5850
  944MOL0     H27416   6.135   0.264   1.143  0.5252 -0.6222 -0.9443
  944MOL0     H27417   6.000   0.158   1.102  0.5657  0.0195  2.4999
  944MOL0     H27418   6.065   0.396   0.916  1.9994 -1.3214 -1.8514
  944MOL0     H27419   5.920   0.303   0.928 -0.3926  0.5916  2.2997
  944MOL0     H27420   6.069   0.194   0.760  0.3923  1.6762  0.8071
  944MOL0     H27421   6.067   0.087   0.900 -1.5878 -0.7108 -1.2137
  944MOL0     H27422   6.145   0.514   1.547  0.2705  1.6134  1.8433
  944MOL0     H27423   6.351   0.586   1.684  2.3173 -1.0568 -0.1649
  944MOL0     H27424   6.665   0.603   1.873 -1.8802 -1.6058 -2.0892
  944MOL0     H27425   6.888   0.684   1.919  2.6690  0.9334 -0.7465
  944MOL0     H27426   6.769   1.324   2.822  1.1327 -1.6799  0.4655
  944MOL0     H27427   6.812   1.567   2.791 -0.3774 -1.3487 -1.3834
  944MOL0     H27428   6.837   2.042   2.870 -0.1140 -1.9986 -1.1904
  944MOL0     H27429   6.964   2.260   2.883 -1.3124 -0.0027 -0.1435
  944MOL0     H27430   7.307   2.439   2.894 -1.3793  0.7797 -0.7678
  944MOL0     H27431   7.183   2.363   2.801  2.4061 -1.2823  0.0672
  944MOL0     H27432   7.000   2.487   2.957 -0.2257 -1.3323  0.0125
  944MOL0     H27433   7.114   2.595   2.875 -0.8855  1.3086  0.1005
  944MOL0     H27434   7.245   2.567   3.109  0.3286  1.2847 -1.2842
  944MOL0     H27435   7.097   2.481   3.173 -3.4723  1.8164  1.1584
  944MOL0     H27436   7.111   2.760   3.084  1.1205 -1.0705 -0.5276
  944MOL0     H27437   7.103   2.693   3.245 -0.7665 -1.9015  1.2212
  944MOL0     H27438   6.712   2.626   3.235 -0.5563  0.3154  0.1149
  944MOL0     H27439   7.287   2.090   3.066 -1.1353  0.9785 -0.6815
  944MOL0     H27440   7.182   1.855   3.043 -1.8006 -1.2533 -1.1964
  945MOL0     O27441   6.538   4.905   6.597  0.4822 -0.5912 -0.4734
  945MOL0     C27442   6.476   4.796   6.590  0.7875 -0.7295 -0.1406
  945MOL0     O27443   6.367   4.781   6.492 -0.1016 -0.9435  0.4554
  945MOL0     C27444   6.389   4.859   6.388 -0.0905 -0.4942  0.6141
  945MOL0     C27445   6.483   4.820   6.293  0.8971 -0.5566  1.1807
  945MOL0     C27446   6.505   4.894   6.175  0.5713 -0.4695  0.1795
  945MOL0     C27447   6.427   5.009   6.157  0.3906  0.8875  0.0079
  945MOL0     O27448   6.441   5.070   6.028 -0.0632  0.3733 -0.5885
  945MOL0     C27449   6.511   5.196   6.035 -0.0662  0.4364  0.4820
  945MOL0     C27450   6.514   5.266   5.899 -0.1442 -0.0161 -0.0709
  945MOL0     C27451   6.579   5.405   5.897 -0.4737 -0.2757  0.2443
  945MOL0     C27452   6.712   5.414   5.828  0.3816  0.2604  0.5764
  945MOL0     C27453   6.833   5.358   5.903 -0.0498  0.0110  0.2746
  945MOL0     C27454   6.957   5.343   5.812 -0.3678 -0.3026 -0.1426
  945MOL0     C27455   7.012   5.476   5.751 -1.2832 -0.1533 -1.0219
  945MOL0     C27456   7.166   5.459   5.719  1.3187  0.1856 -0.1573
  945MOL0     N27457   7.233   5.588   5.690  0.3361  0.4956 -0.1147
  945MOL0     C27458   7.197   5.662   5.587 -0.6281 -1.1429  0.3036
  945MOL0     C27459   7.255   5.789   5.609 -0.2692  0.5279  0.2590
  945MOL0     C27460   7.257   5.902   5.515  0.6174 -0.3169  0.2856
  945MOL0     C27461   7.325   5.880   5.381  0.1924  0.2413  0.0816
  945MOL0     C27462   7.324   6.005   5.298  0.1344  0.5368 -0.2358
  945MOL0     C27463   7.409   6.116   5.348 -0.0410  0.7937  0.1036
  945MOL0     O27464   7.396   6.225   5.245 -0.1896 -0.5711  0.1280
  945MOL0     C27465   7.449   6.217   5.125 -0.1374 -0.1606  0.5811
  945MOL0     C27466   7.563   6.143   5.088 -0.1767 -0.6052 -0.4859
  945MOL0     C27467   7.600   6.123   4.952  0.2003 -0.2109  0.4486
  945MOL0     C27468   7.692   6.011   4.913 -0.2868  0.6379 -0.6829
  945MOL0     C27469   7.522   6.191   4.852 -0.5077  0.9000  0.3494
  945MOL0     C27470   7.544   6.165   4.708 -0.0628  0.6217 -0.3044
  945MOL0     O27471   7.682   6.152   4.681 -0.4557  0.1767  0.3996
  945MOL0     C27472   7.703   6.135   4.545 -0.5790 -0.2808  0.0050
  945MOL0     C27473   7.748   6.229   4.458 -0.9389  0.2523  0.0156
  945MOL0     C27474   7.788   6.185   4.331 -0.1211  0.9170 -0.4227
  945MOL0     C27475   7.768   6.059   4.277 -0.4703  0.5885 -0.3932
  945MOL0     O27476   7.803   6.005   4.159  0.3243 -0.8630 -0.3881
  945MOL0     C27477   7.838   6.093   4.057 -0.3025 -0.0374  0.1387
  945MOL0     C27478   7.981   6.161   4.049  0.5366  0.0503 -0.6732
  945MOL0     C27479   8.085   6.056   4.065  0.8917  0.0885 -0.3991
  945MOL0     C27480   8.215   6.130   4.075  0.3249  0.0863 -0.6794
  945MOL0     C27481   8.328   6.035   4.063 -0.9365  1.1405 -0.6125
  945MOL0     C27482   8.339   5.964   3.932 -0.7614 -0.8921 -0.5485
  945MOL0     C27483   8.474   5.886   3.936  0.0567  0.2558 -0.4172
  945MOL0     C27484   8.474   5.737   3.890 -0.1006 -0.1191 -0.2476
  945MOL0    Cl27485   8.406   5.715   3.722  0.1127  0.5399 -0.1061
  945MOL0     C27486   7.724   5.965   4.372  0.8641 -0.2012 -0.5308
  945MOL0     C27487   7.691   6.006   4.499 -0.1094  0.4496 -0.0508
  945MOL0     O27488   7.446   6.149   4.632 -0.3397 -0.1178  0.3032
  945MOL0     C27489   7.414   6.269   4.892 -0.2476 -0.5152  0.0356
  945MOL0     C27490   7.376   6.286   5.022  1.5079 -0.0157 -0.2623
  945MOL0     N27491   7.310   5.797   5.733  0.0819  0.1732 -0.2932
  945MOL0     N27492   7.311   5.668   5.769 -0.4606  0.0563 -0.0126
  945MOL0     C27493   6.326   5.051   6.249 -0.9323 -0.3362  0.1439
  945MOL0     C27494   6.310   4.971   6.370  0.4326 -0.2268  0.9301
  945MOL0     C27495   6.511   4.683   6.687  0.7191 -0.4737 -0.0301
  945MOL0     C27496   6.602   4.715   6.796  0.3385  0.8442  0.1656
  945MOL0     C27497   6.633   4.613   6.898 -0.2121 -0.2248  1.2131
  945MOL0     C27498   6.565   4.489   6.887  0.7599 -0.0521 -0.3662
  945MOL0     O27499   6.572   4.403   6.996 -0.2504  0.1998 -0.9012
  945MOL0     C27500   6.456   4.325   7.020 -0.1188  0.6429 -0.3075
  945MOL0     C27501   6.481   4.258   7.160  0.8223 -0.1061 -0.7310
  945MOL0     C27502   6.604   4.174   7.160 -0.3203 -0.7840 -0.4894
  945MOL0     C27503   6.609   4.092   7.293  0.3674 -0.4663  0.2518
  945MOL0     C27504   6.726   4.013   7.315  0.0552  0.3658 -0.2199
  945MOL0     C27505   6.802   3.925   7.352  0.2116 -0.2355 -0.0001
  945MOL0     C27506   6.472   4.468   6.790 -0.2920 -0.4032  0.3400
  945MOL0     C27507   6.448   4.564   6.688 -0.2487 -0.3068 -0.3797
  945MOL0     H27508   6.541   4.732   6.322 -2.3357 -2.8274  1.3938
  945MOL0     H27509   6.579   4.849   6.110 -0.7648 -0.2742 -1.5567
  945MOL0     H27510   6.456   5.257   6.107  1.1277  0.2366  1.5917
  945MOL0     H27511   6.612   5.178   6.072  0.1780 -1.6204 -1.0125
  945MOL0     H27512   6.559   5.199   5.825  0.0754  1.6620 -1.5291
  945MOL0     H27513   6.406   5.262   5.879 -1.1041 -3.3189  4.2270
  945MOL0     H27514   6.510   5.475   5.851 -1.9735 -2.3621 -0.8497
  945MOL0     H27515   6.603   5.427   6.001  1.0917 -1.0837  0.0917
  945MOL0     H27516   6.714   5.374   5.726 -0.4776  2.6725 -0.4577
  945MOL0     H27517   6.727   5.522   5.822 -1.5335  0.8766  4.1400
  945MOL0     H27518   6.852   5.419   5.992  0.8156  0.5880 -0.2942
  945MOL0     H27519   6.810   5.254   5.929  4.3816 -1.2676 -0.0525
  945MOL0     H27520   7.036   5.300   5.874 -0.2035  2.0815  1.3982
  945MOL0     H27521   6.936   5.279   5.725  0.1725  0.7325 -1.0527
  945MOL0     H27522   6.958   5.483   5.656 -1.8518  2.7105 -0.5963
  945MOL0     H27523   6.991   5.560   5.818  1.9595 -1.5751  2.0721
  945MOL0     H27524   7.176   5.379   5.646 -3.1959 -3.8963  3.0796
  945MOL0     H27525   7.216   5.422   5.809  0.7408 -3.4330 -1.1696
  945MOL0     H27526   7.139   5.627   5.502  2.2751 -5.6655 -0.1956
  945MOL0     H27527   7.155   5.934   5.495 -0.4766 -1.1108  3.8959
  945MOL0     H27528   7.323   5.972   5.566 -0.5055  1.2385 -0.3276
  945MOL0     H27529   7.276   5.802   5.322  1.5887 -1.3810  0.9531
  945MOL0     H27530   7.430   5.851   5.393  0.5203  0.5575 -1.7392
  945MOL0     H27531   7.218   6.030   5.284 -0.6895 -2.1696  0.5052
  945MOL0     H27532   7.365   5.990   5.198  0.1833  5.2002 -1.1123
  945MOL0     H27533   7.512   6.092   5.375 -0.8563 -1.4055  1.5228
  945MOL0     H27534   7.369   6.143   5.447  0.7400 -2.4481  1.4065
  945MOL0     H27535   7.609   6.089   5.170 -0.5295 -0.3027 -0.0807
  945MOL0     H27536   7.663   5.927   4.977  0.9202 -0.7058 -1.8358
  945MOL0     H27537   7.672   5.965   4.816 -0.4589  2.7728 -1.7160
  945MOL0     H27538   7.800   6.021   4.919 -0.1295  0.0886 -2.1886
  945MOL0     H27539   7.770   6.326   4.501  2.3766 -0.6749  0.6548
  945MOL0     H27540   7.832   6.264   4.271 -2.9448  2.0427 -1.1964
  945MOL0     H27541   7.811   6.038   3.966 -3.8044  2.1908 -0.3652
  945MOL0     H27542   7.772   6.179   4.071  0.7341  0.4301  2.8644
  945MOL0     H27543   7.995   6.207   3.951 -0.7257 -0.4893 -1.1211
  945MOL0     H27544   7.984   6.235   4.130  1.4083 -0.0903 -0.5659
  945MOL0     H27545   8.069   5.987   3.982 -2.8155 -2.2971  2.0271
  945MOL0     H27546   8.072   5.994   4.154 -2.2681 -1.2984 -1.6609
  945MOL0     H27547   8.215   6.211   4.002 -3.6883  1.2192  0.3303
  945MOL0     H27548   8.202   6.169   4.177  0.6797  1.2406 -1.0552
  945MOL0     H27549   8.328   5.957   4.140 -2.4388  0.3388 -1.3559
  945MOL0     H27550   8.418   6.093   4.082  0.7202 -1.7212  0.8705
  945MOL0     H27551   8.249   5.904   3.920 -3.9147  2.9599  1.5719
  945MOL0     H27552   8.346   6.038   3.852 -1.1609 -0.3983 -0.1314
  945MOL0     H27553   8.521   5.894   4.034  0.1587 -0.6038 -0.3882
  945MOL0     H27554   8.533   5.937   3.859 -0.1248 -0.3527 -0.9735
  945MOL0     H27555   8.421   5.674   3.962 -2.2332  1.2666 -0.5140
  945MOL0     H27556   8.579   5.708   3.897 -0.3732 -0.7718  2.2380
  945MOL0     H27557   7.716   5.860   4.346  2.0335 -0.8103  1.3496
  945MOL0     H27558   7.653   5.927   4.563  0.5057  0.8882  0.8773
  945MOL0     H27559   7.347   6.309   4.816 -1.3994 -1.9808  0.2173
  945MOL0     H27560   7.282   6.340   5.029  1.6702  1.2810 -4.9492
  945MOL0     H27561   6.278   5.146   6.231 -0.5684 -0.4464 -1.5969
  945MOL0     H27562   6.241   5.007   6.445 -0.5326  0.5456 -0.2865
  945MOL0     H27563   6.637   4.817   6.803 -0.3717  1.2070 -1.2055
  945MOL0     H27564   6.706   4.627   6.978  2.1769  0.6860 -0.9873
  945MOL0     H27565   6.366   4.387   7.024 -0.4773  0.1104  0.1086
  945MOL0     H27566   6.434   4.247   6.947 -0.0234 -2.1127  2.3913
  945MOL0     H27567   6.392   4.198   7.181 -0.6191  2.0872 -0.2983
  945MOL0     H27568   6.490   4.340   7.232 -1.4537 -0.6464  0.2300
  945MOL0     H27569   6.687   4.245   7.154 -0.6082 -0.1573  1.8318
  945MOL0     H27570   6.611   4.108   7.074  0.4042 -2.8540  1.0596
  945MOL0     H27571   6.520   4.031   7.311 -1.4173  1.5999 -1.0879
  945MOL0     H27572   6.612   4.168   7.372 -3.2242  0.3407 -0.2445
  945MOL0     H27573   6.882   3.854   7.355  0.5429  0.0587 -1.1618
  945MOL0     H27574   6.428   4.369   6.778  1.4394 -1.4516  2.0912
  945MOL0     H27575   6.381   4.543   6.605  1.4932 -0.2671 -1.8559
  946MOL0     O27576   4.195   1.700   6.373 -0.3109 -0.4924 -0.2332
  946MOL0     C27577   4.291   1.689   6.302 -0.1811 -0.5501  0.8123
  946MOL0     O27578   4.281   1.651   6.165 -0.0790  0.2897 -0.2359
  946MOL0     C27579   4.176   1.590   6.101  0.1866  0.1997 -0.7122
  946MOL0     C27580   4.150   1.609   5.956  0.3440  0.3930 -0.6553
  946MOL0     C27581   4.039   1.539   5.896 -0.0890  0.1316 -0.1947
  946MOL0     C27582   3.958   1.456   5.972  0.3108 -0.1704 -0.1126
  946MOL0     O27583   3.862   1.386   5.906 -0.4671  0.7428  0.2917
  946MOL0     C27584   3.736   1.359   5.972 -0.2318 -0.2801 -0.5663
  946MOL0     C27585   3.632   1.299   5.877 -0.8013 -0.4621  0.6838
  946MOL0     C27586   3.626   1.380   5.747 -0.8480  0.0881 -0.3122
  946MOL0     C27587   3.538   1.319   5.637 -0.9792  0.1449 -0.1387
  946MOL0     C27588   3.397   1.302   5.688  1.2432 -0.0305  0.3414
  946MOL0     C27589   3.304   1.310   5.565  0.6300 -0.3938  0.6487
  946MOL0     C27590   3.359   1.216   5.442 -0.6836 -0.7629 -0.2430
  946MOL0     C27591   3.244   1.165   5.344 -0.0384  0.1129 -0.5282
  946MOL0     N27592   3.261   1.045   5.265 -1.4406  1.5688 -0.7596
  946MOL0     C27593   3.192   0.928   5.279 -0.3137 -0.4713 -0.0126
  946MOL0     C27594   3.229   0.845   5.175  0.6747 -0.4223  0.5778
  946MOL0     C27595   3.178   0.700   5.162 -0.1335  0.1206 -0.5115
  946MOL0     C27596   3.049   0.706   5.082 -0.2923  0.7284  0.7344
  946MOL0     C27597   3.088   0.745   4.939 -0.3139 -0.6231  0.1063
  946MOL0     C27598   2.986   0.721   4.831  0.0882 -0.0767  0.9075
  946MOL0     O27599   2.941   0.581   4.843  0.4324 -0.4834  0.5104
  946MOL0     C27600   2.961   0.501   4.726  0.5682  0.2687 -0.5121
  946MOL0     C27601   2.956   0.370   4.745 -0.4505  0.1241 -0.0271
  946MOL0     C27602   2.963   0.280   4.642  0.5815  0.3278  0.4854
  946MOL0     C27603   2.962   0.126   4.683  0.0720  0.6133 -0.0620
  946MOL0     C27604   2.961   0.327   4.514  0.3422  0.2221  0.1538
  946MOL0     C27605   2.962   0.243   4.381 -0.7350  0.4379  0.4722
  946MOL0     O27606   2.975   0.296   4.248  0.7109 -0.4632 -0.4920
  946MOL0     C27607   2.931   0.227   4.143  0.6758 -0.5297 -0.1273
  946MOL0     C27608   2.950   0.094   4.109  0.3804  0.4078 -0.0068
  946MOL0     C27609   2.897   0.033   3.996 -0.0611  1.5192  0.0880
  946MOL0     C27610   2.836   0.101   3.896  0.1683 -0.7925 -0.0459
  946MOL0     O27611   2.793   0.057   3.778 -0.2610 -0.1170 -0.1612
  946MOL0     C27612   2.774  -0.076   3.745  0.0770  1.0784  0.7781
  946MOL0     C27613   2.904  -0.140   3.690  0.0235  0.6660  0.6665
  946MOL0     C27614   2.929  -0.078   3.554 -0.1599  0.5228  0.6726
  946MOL0     C27615   3.039  -0.156   3.475 -0.3250 -0.7236 -0.5217
  946MOL0     C27616   3.065  -0.083   3.348  0.4073  0.1811  0.5489
  946MOL0     C27617   2.961  -0.109   3.242  0.0025  0.3131  0.5091
  946MOL0     C27618   3.009  -0.041   3.106 -1.0439  0.2252  0.2566
  946MOL0     C27619   2.915  -0.095   2.990 -0.2895 -0.2102  0.6035
  946MOL0    Cl27620   3.001  -0.241   2.930 -0.5442  0.0492  0.4437
  946MOL0     C27621   2.828   0.245   3.915  0.6049  0.7651  0.3148
  946MOL0     C27622   2.869   0.302   4.036  0.9620  0.8295 -0.3401
  946MOL0     O27623   2.932   0.127   4.406 -0.5655 -0.0481  0.3467
  946MOL0     C27624   2.968   0.465   4.495 -0.6603  1.0270 -0.2395
  946MOL0     C27625   2.969   0.547   4.598  0.7505 -0.7108  0.9651
  946MOL0     N27626   3.320   0.913   5.098 -0.3799  0.0021 -1.0473
  946MOL0     N27627   3.331   1.026   5.146  0.2077 -0.2129  0.6688
  946MOL0     C27628   3.982   1.437   6.109 -1.5651 -1.7395  0.4636
  946MOL0     C27629   4.096   1.500   6.165 -0.5320  0.4167  0.1429
  946MOL0     C27630   4.432   1.704   6.367  0.3022  1.4833 -0.1786
  946MOL0     C27631   4.557   1.676   6.310  0.1376  0.7607  0.3558
  946MOL0     C27632   4.676   1.680   6.387  0.0410 -0.6779  0.6109
  946MOL0     C27633   4.673   1.740   6.510 -1.1159  0.5831  1.0055
  946MOL0     O27634   4.785   1.758   6.592  0.0839 -1.1245 -0.1703
  946MOL0     C27635   4.857   1.632   6.624 -0.4041 -0.6339 -0.3733
  946MOL0     C27636   4.790   1.573   6.749  0.5851  0.5577  0.3339
  946MOL0     C27637   4.836   1.428   6.777  0.0223  0.0691 -0.3032
  946MOL0     C27638   4.744   1.372   6.883  0.3659  0.1630  0.0564
  946MOL0     C27639   4.765   1.419   7.024  0.4185 -0.6265  0.6152
  946MOL0     C27640   4.769   1.476   7.128 -0.8869 -0.6168  1.1646
  946MOL0     C27641   4.556   1.779   6.563 -0.6348 -0.3407 -0.2136
  946MOL0     C27642   4.438   1.753   6.498 -0.3083 -0.4852  0.7846
  946MOL0     H27643   4.206   1.684   5.901  0.3619 -0.1471 -1.3934
  946MOL0     H27644   4.009   1.566   5.796 -1.6280 -0.9934 -0.0607
  946MOL0     H27645   3.754   1.288   6.053 -2.8389 -1.1759 -0.7072
  946MOL0     H27646   3.689   1.450   6.009 -0.6237 -1.7808  3.0821
  946MOL0     H27647   3.660   1.196   5.855  1.2436  0.6147 -2.5850
  946MOL0     H27648   3.538   1.283   5.930  0.3766 -1.7860  2.5291
  946MOL0     H27649   3.588   1.480   5.771  1.3700  1.1870 -1.0112
  946MOL0     H27650   3.721   1.396   5.695 -1.4073 -1.6720 -1.9917
  946MOL0     H27651   3.537   1.395   5.558 -1.0536  1.0541  0.7075
  946MOL0     H27652   3.573   1.220   5.608 -1.9742 -0.4305  0.5405
  946MOL0     H27653   3.386   1.206   5.740  2.2534  0.5055  1.6089
  946MOL0     H27654   3.367   1.382   5.756 -0.7963  1.3657 -2.0174
  946MOL0     H27655   3.199   1.284   5.585  0.8862 -1.5753  0.5272
  946MOL0     H27656   3.298   1.414   5.531  0.2968 -0.9384 -1.0322
  946MOL0     H27657   3.451   1.250   5.395 -2.0403  0.9486 -1.7817
  946MOL0     H27658   3.381   1.124   5.497 -2.1171 -1.7147 -1.1884
  946MOL0     H27659   3.223   1.252   5.280  2.1905  1.6999  0.7635
  946MOL0     H27660   3.162   1.154   5.415  2.1048 -3.4571  1.6886
  946MOL0     H27661   3.111   0.917   5.350  0.3051  0.5235  0.8815
  946MOL0     H27662   3.253   0.632   5.121 -1.2050 -1.4262  0.0013
  946MOL0     H27663   3.176   0.665   5.265  1.5721  1.1713 -0.0681
  946MOL0     H27664   2.981   0.780   5.124  0.7811  3.3525 -1.8711
  946MOL0     H27665   2.999   0.608   5.085  2.9011 -1.0295  2.4728
  946MOL0     H27666   3.179   0.694   4.909 -1.9789 -3.5879 -0.2681
  946MOL0     H27667   3.116   0.851   4.942  0.6445 -0.8104 -1.2803
  946MOL0     H27668   3.026   0.758   4.736 -2.7185  1.9075  0.3566
  946MOL0     H27669   2.896   0.782   4.845 -0.0086 -0.8000  4.4922
  946MOL0     H27670   2.956   0.336   4.849 -0.8039 -0.8654 -0.3342
  946MOL0     H27671   3.045   0.074   4.634 -0.2817  0.8997 -0.9729
  946MOL0     H27672   2.977   0.108   4.790  1.5546 -0.8583 -0.4730
  946MOL0     H27673   2.872   0.079   4.642  2.2939 -2.4762 -1.8706
  946MOL0     H27674   3.006   0.026   4.172 -2.0033 -2.2042 -0.4874
  946MOL0     H27675   2.913  -0.074   3.987  0.8140  1.6319  0.2737
  946MOL0     H27676   2.755  -0.132   3.837  2.5420 -5.9693 -2.3330
  946MOL0     H27677   2.694  -0.083   3.671  1.9721  1.6847 -1.4344
  946MOL0     H27678   2.983  -0.118   3.762 -0.2377  2.2557  0.5078
  946MOL0     H27679   2.893  -0.249   3.683  0.6391  0.6701 -0.6327
  946MOL0     H27680   2.946   0.030   3.551 -1.9330  0.8100 -1.5775
  946MOL0     H27681   2.834  -0.086   3.501  0.3978  0.2901 -0.3180
  946MOL0     H27682   3.120  -0.153   3.548  0.3029  2.5123 -1.1897
  946MOL0     H27683   3.001  -0.257   3.457 -1.9261 -0.0642 -1.0467
  946MOL0     H27684   3.165  -0.117   3.320 -0.3896 -0.4448 -1.7732
  946MOL0     H27685   3.074   0.025   3.363 -1.2373  0.5044 -0.5279
  946MOL0     H27686   2.963  -0.216   3.222  2.1974 -0.2591  3.2265
  946MOL0     H27687   2.862  -0.075   3.274  1.9574  3.9261  3.5157
  946MOL0     H27688   3.113  -0.070   3.087 -1.1508 -1.5890  2.1584
  946MOL0     H27689   2.993   0.068   3.109 -1.7783  0.0929  2.1988
  946MOL0     H27690   2.897  -0.016   2.916 -3.2577 -1.0013  0.3445
  946MOL0     H27691   2.819  -0.136   3.020 -0.3633  1.1534  2.3273
  946MOL0     H27692   2.787   0.309   3.838 -0.9615  1.6248  1.8132
  946MOL0     H27693   2.858   0.409   4.049 -1.2868  0.5072  1.0575
  946MOL0     H27694   2.986   0.506   4.396 -1.6934  1.5466 -0.2258
  946MOL0     H27695   2.955   0.653   4.581  0.5490 -0.7174  1.0949
  946MOL0     H27696   3.920   1.371   6.170 -3.5483 -1.5278 -1.2136
  946MOL0     H27697   4.101   1.477   6.271 -0.8243 -4.4500 -0.7025
  946MOL0     H27698   4.550   1.646   6.205 -1.1484 -2.2667  1.1938
  946MOL0     H27699   4.776   1.670   6.345  1.6085  2.0825  3.2827
  946MOL0     H27700   4.853   1.558   6.543 -3.8120 -2.8029  1.5545
  946MOL0     H27701   4.962   1.659   6.638 -0.3527 -1.6006  1.2647
  946MOL0     H27702   4.683   1.561   6.730  0.6404 -2.4659  1.3296
  946MOL0     H27703   4.797   1.640   6.835  0.5710  2.4467 -1.0818
  946MOL0     H27704   4.935   1.420   6.823 -1.4395 -0.6883  3.0426
  946MOL0     H27705   4.843   1.372   6.684  0.1953  0.2356 -0.3915
  946MOL0     H27706   4.762   1.265   6.894  3.4807  0.7271  1.5259
  946MOL0     H27707   4.641   1.382   6.847 -0.6306  0.0714  2.6747
  946MOL0     H27708   4.786   1.525   7.222 -0.2496  1.0294  0.2432
  946MOL0     H27709   4.557   1.816   6.665  0.8440  0.0740 -0.3611
  946MOL0     H27710   4.354   1.793   6.554  0.5660  0.7699  1.2627
  947MOL0     O27711   1.055   9.618   0.302 -0.5612 -0.1496 -0.3155
  947MOL0     C27712   0.966   9.580   0.388  0.9229  0.2921 -0.8487
  947MOL0     O27713   0.861   9.506   0.364 -0.7571  0.3523  0.2546
  947MOL0     C27714   0.835   9.451   0.234 -1.3314  0.1259 -0.7224
  947MOL0     C27715   0.845   9.529   0.116  0.7286 -0.0743 -0.8710
  947MOL0     C27716   0.823   9.468  -0.007 -1.1593 -0.4555  0.1593
  947MOL0     C27717   0.761   9.344  -0.014 -0.6709  0.8303  0.9935
  947MOL0     O27718   0.729   9.281  -0.141 -0.1204  0.1855 -0.6009
  947MOL0     C27719   0.711   9.364  -0.257  0.0998 -1.1487  0.9309
  947MOL0     C27720   0.602   9.310  -0.352 -0.7718  0.3726 -0.9549
  947MOL0     C27721   0.499   9.240  -0.286 -0.2724  0.1030 -0.2997
  947MOL0     C27722   0.403   9.180  -0.384  0.7937  0.0725 -0.3634
  947MOL0     C27723   0.272   9.118  -0.329  0.3253 -0.6737  0.6255
  947MOL0     C27724   0.172   9.094  -0.434 -0.4458  0.6775  1.0342
  947MOL0     C27725   0.050   8.999  -0.386 -0.6074 -0.5069  1.2027
  947MOL0     C27726  -0.024   9.058  -0.266 -0.4717 -0.5043 -0.2661
  947MOL0     N27727  -0.136   8.973  -0.228  0.9017  0.3206 -0.0160
  947MOL0     C27728  -0.131   8.866  -0.142 -0.0366  0.8128 -0.1256
  947MOL0     C27729  -0.265   8.835  -0.105  0.6913 -0.0911 -0.4438
  947MOL0     C27730  -0.315   8.718  -0.032 -0.1270 -0.5326 -0.4558
  947MOL0     C27731  -0.285   8.594  -0.109 -0.1170  0.5199 -1.1762
  947MOL0     C27732  -0.355   8.481  -0.037  0.4781 -0.3315  0.7944
  947MOL0     C27733  -0.360   8.364  -0.128 -0.6376 -1.2701 -0.7478
  947MOL0     O27734  -0.242   8.336  -0.197 -0.1268 -0.2299  0.6519
  947MOL0     C27735  -0.151   8.250  -0.128 -0.1443 -0.3391 -0.1376
  947MOL0     C27736  -0.185   8.118  -0.095  0.4401 -0.7014  0.0271
  947MOL0     C27737  -0.092   8.021  -0.057 -0.1746 -0.5002  0.2517
  947MOL0     C27738  -0.135   7.878  -0.035 -0.0111  0.0827 -0.6001
  947MOL0     C27739   0.040   8.060  -0.050 -0.1621 -0.3391 -0.4909
  947MOL0     C27740   0.152   7.974  -0.011  0.5219  1.5908  0.0065
  947MOL0     O27741   0.128   7.856   0.059 -0.1178 -1.4678  0.1947
  947MOL0     C27742   0.224   7.761   0.088 -0.1130  0.8138  0.6657
  947MOL0     C27743   0.312   7.779   0.194 -0.0529 -0.0840  0.0115
  947MOL0     C27744   0.397   7.675   0.233  1.4790 -0.6539  0.0825
  947MOL0     C27745   0.407   7.553   0.157 -0.1590  0.1568  0.8129
  947MOL0     O27746   0.499   7.456   0.194  0.1854 -0.6219 -0.3665
  947MOL0     C27747   0.627   7.483   0.140 -0.0564 -0.7326 -0.3508
  947MOL0     C27748   0.707   7.593   0.202 -1.0255  0.9300 -0.1870
  947MOL0     C27749   0.838   7.608   0.126  0.5614  0.1008  0.5390
  947MOL0     C27750   0.963   7.564   0.215 -0.0287  0.0235  0.5481
  947MOL0     C27751   1.076   7.658   0.192  0.1279 -0.7210 -0.3211
  947MOL0     C27752   1.207   7.613   0.257  0.5199 -0.2680 -0.4457
  947MOL0     C27753   1.200   7.618   0.412 -0.2701  0.2779  0.0777
  947MOL0     C27754   1.334   7.576   0.482  0.2134 -0.6347  0.5672
  947MOL0    Cl27755   1.312   7.566   0.652 -0.3224 -0.1930  0.4395
  947MOL0     C27756   0.311   7.532   0.065 -0.6729 -0.3649  0.0722
  947MOL0     C27757   0.226   7.633   0.021  0.3853  0.6269 -0.5642
  947MOL0     O27758   0.260   8.008  -0.051  0.1121 -0.0952  0.8116
  947MOL0     C27759   0.078   8.197  -0.064  0.3211 -0.8704  0.2622
  947MOL0     C27760  -0.022   8.287  -0.107  0.3311  0.6649  0.0376
  947MOL0     N27761  -0.343   8.920  -0.173  0.6346  0.4782  0.1864
  947MOL0     N27762  -0.273   9.009  -0.238  0.4019  0.3788 -0.4878
  947MOL0     C27763   0.745   9.268   0.106  0.5093 -0.1213  0.7949
  947MOL0     C27764   0.774   9.321   0.232 -0.9406  0.3262  0.1153
  947MOL0     C27765   0.965   9.632   0.525 -0.6774 -0.4341  0.5332
  947MOL0     C27766   1.063   9.729   0.560  0.4922  1.0931 -0.4556
  947MOL0     C27767   1.065   9.795   0.679  1.1320  0.0644 -0.6682
  947MOL0     C27768   0.959   9.766   0.774  0.0626  0.5327  0.1752
  947MOL0     O27769   0.945   9.813   0.903  0.1189  0.1400  0.1983
  947MOL0     C27770   1.036   9.912   0.953 -0.3286 -0.0134  0.5781
  947MOL0     C27771   1.016   9.939   1.105 -0.3850 -0.7091  0.7039
  947MOL0     C27772   1.107  10.042   1.171 -0.0039 -1.0133 -0.3321
  947MOL0     C27773   1.074  10.182   1.121  0.1081  0.3849  0.2955
  947MOL0     C27774   0.929  10.225   1.115  0.4345 -0.4050  0.3680
  947MOL0     C27775   0.811  10.257   1.116  0.1010  0.2981 -1.0264
  947MOL0     C27776   0.871   9.664   0.748  0.0111 -0.1105 -0.7065
  947MOL0     C27777   0.870   9.602   0.624  0.0602 -0.0382  0.3924
  947MOL0     H27778   0.880   9.631   0.127 -0.6884  0.4635 -1.1445
  947MOL0     H27779   0.837   9.523  -0.099  1.4572 -2.1089 -0.5334
  947MOL0     H27780   0.671   9.457  -0.216 -0.1662 -0.0352 -1.6165
  947MOL0     H27781   0.801   9.394  -0.311 -1.0060 -0.3959 -0.6021
  947MOL0     H27782   0.543   9.385  -0.405 -1.2333  0.9362  0.3196
  947MOL0     H27783   0.645   9.240  -0.425 -0.3742 -2.0222  1.4202
  947MOL0     H27784   0.529   9.168  -0.209  3.5054 -0.8391 -2.3802
  947MOL0     H27785   0.434   9.307  -0.229  1.0196 -1.4810  3.4143
  947MOL0     H27786   0.361   9.253  -0.454  1.0569 -1.3418 -2.0802
  947MOL0     H27787   0.453   9.103  -0.444  0.5640  0.4784 -1.0873
  947MOL0     H27788   0.304   9.038  -0.262  2.0733 -0.4841  0.0715
  947MOL0     H27789   0.232   9.203  -0.272  2.2949  1.0077 -0.3288
  947MOL0     H27790   0.139   9.191  -0.472  2.7225  1.6623  0.5079
  947MOL0     H27791   0.221   9.057  -0.525  2.0309  1.6405  1.9158
  947MOL0     H27792  -0.019   9.004  -0.470  0.6460  0.0168  0.1797
  947MOL0     H27793   0.083   8.894  -0.380  1.8359  0.2350  1.7844
  947MOL0     H27794  -0.050   9.163  -0.279 -2.1905 -1.0655 -1.7875
  947MOL0     H27795   0.045   9.044  -0.183 -0.9873 -1.9488 -0.0417
  947MOL0     H27796  -0.041   8.824  -0.098 -1.8266 -0.2926  2.7303
  947MOL0     H27797  -0.281   8.721   0.072 -2.7479 -0.4891  0.4652
  947MOL0     H27798  -0.424   8.722  -0.024 -0.1909 -0.6969 -1.1941
  947MOL0     H27799  -0.179   8.569  -0.117 -0.6418 -2.8256  0.6064
  947MOL0     H27800  -0.321   8.603  -0.211 -0.8103  0.4110 -0.9462
  947MOL0     H27801  -0.456   8.494   0.001  0.4732  0.9654  0.3640
  947MOL0     H27802  -0.278   8.464   0.039  0.6164  1.2338  1.0363
  947MOL0     H27803  -0.438   8.384  -0.202 -0.5152  0.1997 -0.5060
  947MOL0     H27804  -0.398   8.283  -0.065 -2.9755 -0.8419 -1.5196
  947MOL0     H27805  -0.289   8.087  -0.106  0.6174 -1.4005  0.2707
  947MOL0     H27806  -0.235   7.862  -0.077 -0.0202  0.8691 -0.9006
  947MOL0     H27807  -0.063   7.814  -0.088  0.0132  2.2671 -3.4862
  947MOL0     H27808  -0.141   7.846   0.069 -3.5737  2.5856  0.1440
  947MOL0     H27809   0.309   7.873   0.248  0.9620  2.4122 -3.8754
  947MOL0     H27810   0.463   7.705   0.314  1.4581  1.1728 -0.5282
  947MOL0     H27811   0.685   7.394   0.163  1.6830  0.9561  2.4336
  947MOL0     H27812   0.618   7.506   0.033  0.2992 -1.8310 -0.6271
  947MOL0     H27813   0.659   7.691   0.205  2.0776  2.5750  1.4027
  947MOL0     H27814   0.722   7.548   0.300 -1.1212 -1.7123 -1.3240
  947MOL0     H27815   0.843   7.717   0.122 -0.9227  0.6044  5.5299
  947MOL0     H27816   0.829   7.560   0.028  1.2875 -0.4112  0.7126
  947MOL0     H27817   0.928   7.549   0.317 -1.2647  0.4292  0.2010
  947MOL0     H27818   1.006   7.470   0.177  1.4318  2.1627 -3.7770
  947MOL0     H27819   1.052   7.761   0.218  0.1892 -0.7810 -0.0273
  947MOL0     H27820   1.086   7.666   0.083 -1.5381 -1.3172 -0.5515
  947MOL0     H27821   1.236   7.515   0.218  3.4840 -0.0607  0.9744
  947MOL0     H27822   1.285   7.673   0.210 -0.6400  1.2665 -0.4821
  947MOL0     H27823   1.134   7.535   0.440 -0.8885  0.6635 -0.2004
  947MOL0     H27824   1.167   7.715   0.451 -0.4982  0.7682 -1.2789
  947MOL0     H27825   1.418   7.643   0.460 -0.1368 -0.3470  0.0769
  947MOL0     H27826   1.368   7.483   0.435  0.0240 -0.7178  0.5939
  947MOL0     H27827   0.308   7.443   0.003 -1.3593  0.5331 -1.2191
  947MOL0     H27828   0.158   7.599  -0.057 -1.1866 -0.2582  1.0889
  947MOL0     H27829   0.179   8.236  -0.065 -0.6705  2.0318 -2.4336
  947MOL0     H27830   0.008   8.389  -0.130  1.3343 -0.3374 -3.8039
  947MOL0     H27831   0.703   9.169   0.092 -1.2865  0.8207 -1.0274
  947MOL0     H27832   0.761   9.270   0.327  0.0996  0.9551  0.6209
  947MOL0     H27833   1.135   9.767   0.488  0.1635  5.2144  1.1452
  947MOL0     H27834   1.147   9.864   0.693 -0.4272  1.6225  1.4958
  947MOL0     H27835   1.138   9.874   0.943  0.8363  3.3348 -2.1838
  947MOL0     H27836   1.039  10.002   0.892 -1.7516  1.5135  2.6190
  947MOL0     H27837   1.019   9.845   1.161 -3.7745 -1.0523  0.5039
  947MOL0     H27838   0.913   9.974   1.118  0.3969  1.4499  1.5759
  947MOL0     H27839   1.215  10.027   1.156 -0.4918 -3.1152 -2.2523
  947MOL0     H27840   1.088  10.050   1.278  1.7250  1.6215 -0.1157
  947MOL0     H27841   1.108  10.182   1.017  0.5959 -0.0971  0.4559
  947MOL0     H27842   1.129  10.262   1.171  0.1000  0.9215 -0.5219
  947MOL0     H27843   0.704  10.255   1.113 -0.3887 -0.1585  4.9933
  947MOL0     H27844   0.804   9.637   0.829  3.3694 -2.9678  1.4006
  947MOL0     H27845   0.803   9.519   0.609 -1.5768  1.5562 -1.7275
  948MOL0     O27846   2.481   1.816   4.907 -0.2412 -0.0166 -0.2698
  948MOL0     C27847   2.572   1.807   4.820  0.7155  0.8968 -0.0283
  948MOL0     O27848   2.565   1.841   4.690  0.8275 -0.4303  0.2946
  948MOL0     C27849   2.453   1.911   4.669  0.5435 -0.6431  0.7749
  948MOL0     C27850   2.348   1.852   4.592 -0.1417  0.0996 -0.5451
  948MOL0     C27851   2.221   1.916   4.576 -0.9706  0.4939  0.3511
  948MOL0     C27852   2.213   2.049   4.624  0.2430 -0.4732  1.0592
  948MOL0     O27853   2.098   2.116   4.613  0.5328 -0.4144  0.5534
  948MOL0     C27854   2.085   2.258   4.635 -0.1118 -0.2890  0.3732
  948MOL0     C27855   1.948   2.304   4.643 -0.5927  0.4830  0.3443
  948MOL0     C27856   1.877   2.221   4.746  0.8995  0.3998 -0.0235
  948MOL0     C27857   1.734   2.272   4.767  0.2032 -0.1004  0.4497
  948MOL0     C27858   1.652   2.185   4.856 -0.2832 -1.0992 -0.3939
  948MOL0     C27859   1.711   2.189   5.001 -0.1417 -0.1689  0.5405
  948MOL0     C27860   1.730   2.333   5.057 -0.4702 -0.4236 -0.4285
  948MOL0     C27861   1.760   2.313   5.217  0.1315  0.2884  0.2360
  948MOL0     N27862   1.742   2.443   5.290 -0.0196  0.3701 -0.0974
  948MOL0     C27863   1.622   2.508   5.282 -0.3105  0.8166 -0.0218
  948MOL0     C27864   1.661   2.630   5.334 -0.3001  0.3849 -0.0338
  948MOL0     C27865   1.593   2.760   5.358  0.0412  0.2539 -0.2073
  948MOL0     C27866   1.449   2.764   5.311 -0.0582 -0.0478  0.3914
  948MOL0     C27867   1.391   2.906   5.351 -0.4148 -0.6330 -1.4823
  948MOL0     C27868   1.245   2.916   5.338 -1.1276 -0.2089  0.7411
  948MOL0     O27869   1.193   3.051   5.344  0.2947  0.5155 -0.1839
  948MOL0     C27870   1.084   3.053   5.270 -0.7133  0.8002  0.0685
  948MOL0     C27871   1.092   3.068   5.129 -0.1752 -0.7398 -0.7184
  948MOL0     C27872   0.975   3.061   5.059  0.0201  1.2287 -0.2497
  948MOL0     C27873   0.997   3.097   4.918  0.4601  0.2385  0.3893
  948MOL0     C27874   0.852   3.020   5.120  1.3713  0.1052  0.1627
  948MOL0     C27875   0.717   3.022   5.051 -0.4602  0.1778 -0.6252
  948MOL0     O27876   0.698   3.109   4.951 -0.0171  0.1858  0.0785
  948MOL0     C27877   0.568   3.154   4.923  0.3956 -0.7305  0.3263
  948MOL0     C27878   0.452   3.075   4.922  0.8360  0.1698  0.2477
  948MOL0     C27879   0.325   3.133   4.895 -0.0317 -0.7103 -0.5096
  948MOL0     C27880   0.317   3.271   4.859  0.3875  0.2387 -0.8443
  948MOL0     O27881   0.192   3.323   4.836  0.2308  0.6391 -0.5298
  948MOL0     C27882   0.168   3.444   4.762 -0.6093 -0.3210  0.2511
  948MOL0     C27883   0.126   3.392   4.626  0.1632 -0.4252  0.1253
  948MOL0     C27884   0.081   3.512   4.543 -0.7877 -0.2493  0.1994
  948MOL0     C27885   0.009   3.456   4.420 -0.0546 -0.0425 -0.0874
  948MOL0     C27886  -0.069   3.567   4.346  0.4279  0.6691  0.9776
  948MOL0     C27887  -0.161   3.504   4.238  0.6000 -0.2744  1.0019
  948MOL0     C27888  -0.095   3.522   4.098 -0.4818 -0.1353  0.2736
  948MOL0     C27889  -0.194   3.502   3.987 -1.0263 -0.1454 -0.0195
  948MOL0    Cl27890  -0.308   3.636   3.989  0.4761  0.2761 -0.0674
  948MOL0     C27891   0.430   3.347   4.868 -0.8189 -0.6940 -0.2855
  948MOL0     C27892   0.556   3.287   4.896  0.0503 -0.8938  0.4685
  948MOL0     O27893   0.640   2.930   5.090 -0.3597 -0.1988  0.2522
  948MOL0     C27894   0.852   2.993   5.262 -0.4304  0.7382  0.6436
  948MOL0     C27895   0.964   3.010   5.331  0.0858  0.0514 -0.8225
  948MOL0     N27896   1.801   2.628   5.364 -0.2834 -0.0875 -0.0384
  948MOL0     N27897   1.842   2.514   5.339 -0.0101  1.0148 -0.2015
  948MOL0     C27898   2.324   2.107   4.677  0.1384 -0.3972 -0.7824
  948MOL0     C27899   2.448   2.049   4.704  0.4547  1.0518  0.0020
  948MOL0     C27900   2.696   1.743   4.864  0.1996 -0.6379 -1.1476
  948MOL0     C27901   2.702   1.667   4.988  0.6550 -1.2459  0.9189
  948MOL0     C27902   2.821   1.618   5.016  0.1443 -0.5657  0.1252
  948MOL0     C27903   2.941   1.626   4.935 -0.7373  0.7085  0.0909
  948MOL0     O27904   3.044   1.543   4.969  0.4956 -0.5226 -0.1170
  948MOL0     C27905   3.058   1.487   5.097  0.2283  0.4879 -0.2860
  948MOL0     C27906   3.207   1.498   5.125 -0.3884 -0.3356 -0.1270
  948MOL0     C27907   3.261   1.653   5.107  0.4808 -0.0169 -0.0030
  948MOL0     C27908   3.407   1.648   5.070 -0.3767 -0.5456  0.7318
  948MOL0     C27909   3.488   1.573   5.175 -0.2647  0.0608  1.2163
  948MOL0     C27910   3.580   1.518   5.242  0.3767 -1.0113  0.4491
  948MOL0     C27911   2.935   1.708   4.823  0.2874  0.3154 -0.0922
  948MOL0     C27912   2.810   1.764   4.787  0.1014  0.7126  0.1311
  948MOL0     H27913   2.358   1.751   4.554  2.6449  0.1572 -0.1836
  948MOL0     H27914   2.137   1.877   4.519  1.3320 -2.3792 -1.3494
  948MOL0     H27915   2.135   2.281   4.729  0.5026 -0.7421  0.1640
  948MOL0     H27916   2.137   2.319   4.560 -0.4488 -1.2062 -0.6281
  948MOL0     H27917   1.945   2.413   4.660  0.2434  0.7766 -1.2053
  948MOL0     H27918   1.897   2.284   4.548 -1.4180 -2.6702  1.3541
  948MOL0     H27919   1.856   2.120   4.709 -2.2100 -0.0930  2.6413
  948MOL0     H27920   1.929   2.213   4.841 -0.2217 -0.5885  0.5347
  948MOL0     H27921   1.734   2.376   4.801  0.1019  0.4905 -1.2182
  948MOL0     H27922   1.687   2.271   4.668 -0.3164  1.5793  0.6493
  948MOL0     H27923   1.548   2.220   4.860  1.2966  4.3032  1.6627
  948MOL0     H27924   1.653   2.079   4.827 -0.3860 -1.4495  0.8304
  948MOL0     H27925   1.643   2.133   5.066 -1.6239  1.5498  0.5451
  948MOL0     H27926   1.803   2.129   5.007 -0.7979 -1.1929  0.6288
  948MOL0     H27927   1.811   2.388   5.009  1.5072 -2.1861  0.6992
  948MOL0     H27928   1.632   2.378   5.043  1.1368  3.6492  0.1951
  948MOL0     H27929   1.853   2.258   5.234 -1.4684 -1.8057  3.2032
  948MOL0     H27930   1.682   2.249   5.259  1.4913 -1.0011  0.8745
  948MOL0     H27931   1.523   2.479   5.249 -0.7385 -3.8630  4.1198
  948MOL0     H27932   1.589   2.769   5.467  1.4100 -0.4897 -0.0734
  948MOL0     H27933   1.639   2.840   5.300  0.8939 -0.0013  0.1056
  948MOL0     H27934   1.400   2.682   5.365  3.4826 -1.8757  1.1183
  948MOL0     H27935   1.441   2.761   5.202 -3.6855  1.3126  0.4693
  948MOL0     H27936   1.440   2.990   5.301 -0.0701 -0.0166 -0.1590
  948MOL0     H27937   1.419   2.931   5.454  0.6769 -2.1666 -1.3704
  948MOL0     H27938   1.216   2.863   5.429  0.1227  2.6043  2.9422
  948MOL0     H27939   1.226   2.862   5.245 -0.9318 -2.7469  2.0977
  948MOL0     H27940   1.176   3.091   5.065 -1.1093  1.0634 -1.3655
  948MOL0     H27941   1.040   3.198   4.912  4.1121 -1.2139 -2.6792
  948MOL0     H27942   1.081   3.037   4.880  0.7934  0.2238  1.1303
  948MOL0     H27943   0.911   3.085   4.853  1.0475 -1.0993 -0.1896
  948MOL0     H27944   0.444   2.974   4.960  0.0885  0.7156  1.6363
  948MOL0     H27945   0.240   3.066   4.887  0.0281 -0.7732 -0.6194
  948MOL0     H27946   0.083   3.502   4.800 -1.2851  0.6962 -2.5500
  948MOL0     H27947   0.250   3.514   4.747  1.0132 -2.1277  0.2762
  948MOL0     H27948   0.200   3.335   4.571  1.7470 -0.3827  2.0781
  948MOL0     H27949   0.049   3.318   4.650 -0.6078  1.4657  4.6458
  948MOL0     H27950   0.170   3.564   4.508 -0.3178 -1.7285 -0.8795
  948MOL0     H27951   0.033   3.597   4.593  0.0001  1.6004 -2.0113
  948MOL0     H27952   0.078   3.399   4.357 -1.9127 -2.4176 -0.1034
  948MOL0     H27953  -0.062   3.383   4.458 -3.7645  1.9597 -2.5459
  948MOL0     H27954   0.002   3.636   4.300  1.1444 -1.6509 -1.6157
  948MOL0     H27955  -0.141   3.620   4.410  0.6119  0.4537  1.3669
  948MOL0     H27956  -0.179   3.400   4.266 -3.0268 -0.0044  0.2122
  948MOL0     H27957  -0.256   3.558   4.243 -0.1308 -1.3735 -0.3222
  948MOL0     H27958  -0.019   3.446   4.078 -1.0143 -0.9006  1.1183
  948MOL0     H27959  -0.043   3.618   4.084 -2.0957  1.1113  2.2774
  948MOL0     H27960  -0.244   3.406   3.998  1.9532 -1.8978 -0.6899
  948MOL0     H27961  -0.154   3.489   3.887  1.8563 -2.4802  1.2991
  948MOL0     H27962   0.418   3.452   4.843 -3.1355 -1.6003 -3.6909
  948MOL0     H27963   0.648   3.343   4.909  0.4749 -1.9527  2.4470
  948MOL0     H27964   0.771   2.950   5.318 -0.2038  1.6920  1.7430
  948MOL0     H27965   0.961   2.984   5.437 -2.7364  1.7030 -0.3892
  948MOL0     H27966   2.339   2.213   4.691  1.0519 -0.4884 -1.0192
  948MOL0     H27967   2.528   2.106   4.750 -0.3823  1.3301  1.1594
  948MOL0     H27968   2.612   1.641   5.043 -0.8802  0.2461 -0.7403
  948MOL0     H27969   2.830   1.562   5.109  0.1723  1.2224  1.2300
  948MOL0     H27970   2.993   1.509   5.183 -1.7806 -1.9722 -1.0581
  948MOL0     H27971   3.024   1.383   5.092 -1.5087  0.9168  1.2489
  948MOL0     H27972   3.269   1.442   5.055 -0.2137  1.4394 -1.4471
  948MOL0     H27973   3.214   1.469   5.231  0.4463 -0.2930 -0.1618
  948MOL0     H27974   3.247   1.709   5.200  1.2048  0.3099 -0.0840
  948MOL0     H27975   3.200   1.693   5.026 -0.0072 -5.3128 -2.6973
  948MOL0     H27976   3.437   1.753   5.059 -0.4337 -0.7497 -2.0841
  948MOL0     H27977   3.432   1.601   4.975  0.1182 -1.5794  1.3462
  948MOL0     H27978   3.655   1.483   5.310 -0.9404  1.2115  3.2229
  948MOL0     H27979   3.028   1.729   4.770 -0.4289 -2.2655 -2.6001
  948MOL0     H27980   2.809   1.840   4.710  3.4298  0.2709 -0.4803
  949MOL0     O27981   8.183   2.756   1.406  0.1900 -1.2826 -0.5533
  949MOL0     C27982   8.094   2.758   1.497 -1.2802  0.0743 -1.0100
  949MOL0     O27983   8.097   2.834   1.616 -0.4185 -0.8106  0.1739
  949MOL0     C27984   8.215   2.857   1.690  0.3744 -0.7261 -1.0417
  949MOL0     C27985   8.219   2.966   1.773  0.3969  0.3143 -0.6536
  949MOL0     C27986   8.330   2.997   1.855 -0.2658 -0.1148 -0.1708
  949MOL0     C27987   8.441   2.910   1.856 -0.7790  0.0152  0.1364
  949MOL0     O27988   8.553   2.929   1.933 -0.0710  0.3176 -0.3540
  949MOL0     C27989   8.562   3.023   2.038 -0.3101 -0.2205  0.0369
  949MOL0     C27990   8.606   3.160   1.987 -0.0371  0.4381 -0.3252
  949MOL0     C27991   8.600   3.269   2.093  0.1067 -0.0236 -0.1979
  949MOL0     C27992   8.688   3.248   2.214 -0.9211  0.1589  0.2419
  949MOL0     C27993   8.724   3.377   2.296 -0.5619 -0.0508  0.3275
  949MOL0     C27994   8.601   3.478   2.311 -0.8641  0.6046  0.1469
  949MOL0     C27995   8.658   3.615   2.337 -0.0962  0.1688 -0.8659
  949MOL0     C27996   8.726   3.621   2.478 -0.1137  0.0760 -0.7299
  949MOL0     N27997   8.624   3.628   2.585  0.0733 -0.1638 -0.1797
  949MOL0     C27998   8.650   3.607   2.711  0.6810 -0.0124 -0.7216
  949MOL0     C27999   8.542   3.648   2.780  0.2711 -0.5804 -0.5176
  949MOL0     C28000   8.520   3.636   2.924  0.1545  0.6947 -0.1327
  949MOL0     C28001   8.480   3.772   2.990 -0.4144 -0.2530 -0.1296
  949MOL0     C28002   8.601   3.869   3.003  0.0993  0.1666  0.4293
  949MOL0     C28003   8.725   3.807   3.069  0.0285 -0.8940 -0.5473
  949MOL0     O28004   8.695   3.770   3.198  0.2228  0.3594 -0.2091
  949MOL0     C28005   8.796   3.781   3.294 -0.1737  0.5296 -1.2185
  949MOL0     C28006   8.771   3.869   3.404  0.1612  0.4389 -0.5356
  949MOL0     C28007   8.871   3.885   3.510 -0.0153  0.9079 -0.1131
  949MOL0     C28008   8.827   3.989   3.609 -0.2578  0.1363 -0.8270
  949MOL0     C28009   8.987   3.796   3.514 -0.5583 -0.7675 -0.2762
  949MOL0     C28010   9.088   3.791   3.621 -0.0661 -0.3530  0.3855
  949MOL0     O28011   9.209   3.734   3.594 -0.2761  0.3037 -0.0562
  949MOL0     C28012   9.314   3.737   3.687  0.5186 -0.3618  0.3030
  949MOL0     C28013   9.342   3.841   3.773  0.1543 -1.3126 -0.1684
  949MOL0     C28014   9.466   3.851   3.834  0.4869  0.5168  0.2624
  949MOL0     C28015   9.562   3.756   3.804 -0.1120 -1.2112  0.9255
  949MOL0     O28016   9.697   3.764   3.854  0.2546 -0.2296  1.0269
  949MOL0     C28017   9.707   3.806   3.992 -0.3752  0.0212 -0.8049
  949MOL0     C28018   9.849   3.797   4.034 -0.1079  0.0102  0.0508
  949MOL0     C28019   9.940   3.901   3.963  0.2417  0.1330  0.0332
  949MOL0     C28020  10.033   3.977   4.048 -0.4127  0.2492  0.4726
  949MOL0     C28021  10.115   4.087   3.972  0.7184  0.6135  0.2344
  949MOL0     C28022  10.023   4.214   3.957 -0.3150  0.1974 -0.0061
  949MOL0     C28023  10.104   4.315   3.880 -0.3123 -0.2215  0.2519
  949MOL0     C28024  10.025   4.446   3.845  0.1765  0.9736 -0.8587
  949MOL0    Cl28025   9.943   4.518   3.987  0.6776  0.0703  0.3637
  949MOL0     C28026   9.530   3.658   3.714  0.4741 -0.2808 -0.3793
  949MOL0     C28027   9.405   3.643   3.665  0.3182 -0.2761  0.5693
  949MOL0     O28028   9.052   3.848   3.729 -0.6373 -0.1529 -1.1258
  949MOL0     C28029   9.006   3.719   3.403  0.5886  0.0173  0.2315
  949MOL0     C28030   8.910   3.704   3.295 -0.5501 -0.1134  0.5682
  949MOL0     N28031   8.450   3.692   2.691  0.1376  0.3799 -0.7882
  949MOL0     N28032   8.498   3.673   2.576 -0.1468 -0.1835 -0.4391
  949MOL0     C28033   8.429   2.801   1.774 -0.2133  0.7913 -0.1670
  949MOL0     C28034   8.318   2.772   1.698  0.4127  0.4399 -0.6805
  949MOL0     C28035   7.962   2.697   1.472  0.1171  0.2219  0.1308
  949MOL0     C28036   7.930   2.626   1.355 -0.6668  0.5907 -0.4257
  949MOL0     C28037   7.809   2.563   1.329  0.8932 -0.4202 -0.7506
  949MOL0     C28038   7.729   2.541   1.442 -0.6404  0.2071 -0.4566
  949MOL0     O28039   7.610   2.464   1.425 -0.1315  0.7468 -0.9769
  949MOL0     C28040   7.509   2.462   1.530 -0.5115  0.3411  0.0618
  949MOL0     C28041   7.436   2.602   1.533  0.8759  0.8616 -0.0368
  949MOL0     C28042   7.326   2.599   1.649  0.8576 -0.1074 -0.1288
  949MOL0     C28043   7.229   2.716   1.649 -0.4678 -0.3861  0.5574
  949MOL0     C28044   7.147   2.723   1.525  0.0388 -0.0216  0.2027
  949MOL0     C28045   7.064   2.725   1.432  0.1983  0.0873 -0.8117
  949MOL0     C28046   7.756   2.608   1.560  0.4437 -0.7959 -0.1028
  949MOL0     C28047   7.869   2.682   1.575  0.5792  1.0097 -1.1964
  949MOL0     H28048   8.128   3.022   1.790  1.2951  1.8827 -0.8443
  949MOL0     H28049   8.322   3.086   1.917  1.1754  0.0121 -0.1260
  949MOL0     H28050   8.474   3.041   2.099 -2.6119  1.8174 -3.5277
  949MOL0     H28051   8.651   2.986   2.090 -0.1686 -1.6160 -1.1226
  949MOL0     H28052   8.702   3.145   1.936  1.7749  1.0005  2.6458
  949MOL0     H28053   8.530   3.192   1.916 -1.3806 -2.0923 -0.1288
  949MOL0     H28054   8.638   3.361   2.046 -1.2850  0.6815 -0.0089
  949MOL0     H28055   8.500   3.286   2.134  0.1740  0.2086 -0.1253
  949MOL0     H28056   8.648   3.165   2.273 -1.6920  1.2171  1.2550
  949MOL0     H28057   8.790   3.215   2.190 -1.0786 -0.6226  0.6392
  949MOL0     H28058   8.762   3.350   2.395  0.6627 -1.2286 -0.4263
  949MOL0     H28059   8.813   3.420   2.249 -0.6191 -1.4593 -1.1657
  949MOL0     H28060   8.539   3.490   2.221  3.1768 -1.7960 -3.2795
  949MOL0     H28061   8.541   3.443   2.395 -0.6007  0.6987  0.3727
  949MOL0     H28062   8.720   3.646   2.253 -0.5330  0.7811 -0.9761
  949MOL0     H28063   8.572   3.684   2.338 -0.9731 -0.8688 -2.0835
  949MOL0     H28064   8.771   3.721   2.477 -1.1052  0.5809  1.3371
  949MOL0     H28065   8.796   3.539   2.493 -1.3638 -0.5304  2.6717
  949MOL0     H28066   8.727   3.545   2.756  0.4968  0.3415  0.1032
  949MOL0     H28067   8.437   3.565   2.924  0.1126  0.6572 -2.7593
  949MOL0     H28068   8.597   3.576   2.974 -2.0272 -1.9368  0.2950
  949MOL0     H28069   8.443   3.765   3.093 -2.3025  1.0617 -0.6608
  949MOL0     H28070   8.397   3.813   2.932 -0.6262  2.0496  1.6446
  949MOL0     H28071   8.557   3.943   3.071  2.4569  1.4998  0.6076
  949MOL0     H28072   8.627   3.918   2.908  1.7066  0.9767  1.2445
  949MOL0     H28073   8.808   3.877   3.056 -2.5270  2.7462  0.9628
  949MOL0     H28074   8.760   3.725   3.006 -0.7508  0.3229 -2.6492
  949MOL0     H28075   8.684   3.932   3.418  0.5407  0.7979  0.2741
  949MOL0     H28076   8.913   4.042   3.650 -2.0391  1.9814  0.7290
  949MOL0     H28077   8.769   4.062   3.550  0.1981  2.8082  1.7757
  949MOL0     H28078   8.769   3.947   3.691  1.3916  0.1255  0.3698
  949MOL0     H28079   9.263   3.914   3.786 -0.0123 -0.9448 -2.6894
  949MOL0     H28080   9.493   3.934   3.898 -0.2778  2.1368 -1.4408
  949MOL0     H28081   9.672   3.909   4.002 -0.0180 -0.0439  2.1381
  949MOL0     H28082   9.646   3.738   4.053  1.6563  0.4979  1.9565
  949MOL0     H28083   9.859   3.814   4.142  0.2507 -2.7314  0.5223
  949MOL0     H28084   9.890   3.700   4.007  2.2921  0.4895  1.6466
  949MOL0     H28085   9.876   3.960   3.897  0.3630  2.0438  1.5137
  949MOL0     H28086  10.001   3.832   3.905 -0.2181 -0.7445  0.5608
  949MOL0     H28087   9.986   4.022   4.136  1.2212  0.1962  1.4003
  949MOL0     H28088  10.110   3.908   4.085 -1.3399  0.5316  3.0822
  949MOL0     H28089  10.148   4.045   3.877 -3.3247 -2.2855 -0.1743
  949MOL0     H28090  10.199   4.117   4.035  1.7125 -0.3008 -0.6285
  949MOL0     H28091   9.943   4.187   3.888 -1.8440  1.3000  1.2634
  949MOL0     H28092   9.972   4.247   4.048 -2.3568 -2.4075 -0.0875
  949MOL0     H28093  10.153   4.279   3.789 -0.6846  0.3144 -0.1677
  949MOL0     H28094  10.175   4.350   3.956 -0.2610  2.0424 -0.7567
  949MOL0     H28095   9.954   4.422   3.765 -1.3341  2.5764 -0.0576
  949MOL0     H28096  10.088   4.524   3.803  1.8807  0.0592 -0.1096
  949MOL0     H28097   9.602   3.581   3.686 -1.5271 -1.8348 -1.5258
  949MOL0     H28098   9.385   3.552   3.608 -3.0809  1.4265 -1.2650
  949MOL0     H28099   9.095   3.658   3.389  0.1475  0.1354 -5.0561
  949MOL0     H28100   8.917   3.646   3.204 -0.2041  1.2434 -0.3007
  949MOL0     H28101   8.503   2.722   1.783 -1.8982 -0.6660  1.9344
  949MOL0     H28102   8.317   2.690   1.627  1.6899  1.4303 -1.8816
  949MOL0     H28103   8.002   2.631   1.274  0.3994  1.3868  0.5457
  949MOL0     H28104   7.773   2.512   1.240 -1.9191 -1.6424  0.9641
  949MOL0     H28105   7.436   2.389   1.492  0.9146 -0.4055 -1.3416
  949MOL0     H28106   7.541   2.423   1.627 -3.6643  1.3780  1.6400
  949MOL0     H28107   7.383   2.615   1.439 -0.3242  1.3811  0.6886
  949MOL0     H28108   7.493   2.693   1.556 -1.6430  2.8454 -1.0996
  949MOL0     H28109   7.376   2.603   1.746  0.6208  1.4280 -0.0375
  949MOL0     H28110   7.266   2.508   1.648  2.0091 -1.1696  4.3752
  949MOL0     H28111   7.280   2.813   1.650 -1.6146  0.2464  1.6962
  949MOL0     H28112   7.159   2.717   1.733 -1.1455  1.9006  0.0434
  949MOL0     H28113   6.986   2.732   1.359  0.4018 -0.8197 -1.1368
  949MOL0     H28114   7.687   2.600   1.643  1.2105  0.1649  0.6573
  949MOL0     H28115   7.881   2.736   1.668 -1.3634 -1.8391  0.8596
  950MOL0     O28116   1.473  11.185   4.021 -0.4055 -0.3754 -0.3394
  950MOL0     C28117   1.548  11.232   3.937 -1.4354  0.8995 -0.6389
  950MOL0     O28118   1.683  11.218   3.952  0.0766 -0.2380  0.2310
  950MOL0     C28119   1.737  11.177   4.073  0.6318 -0.2921  0.3457
  950MOL0     C28120   1.830  11.070   4.089 -0.9725  0.4609 -0.4890
  950MOL0     C28121   1.874  11.033   4.221  0.8424  0.1373  0.5432
  950MOL0     C28122   1.834  11.101   4.339 -0.3630 -0.4283 -0.3656
  950MOL0     O28123   1.885  11.074   4.469 -0.5407  0.5016 -0.3809
  950MOL0     C28124   1.998  10.979   4.474 -0.0453  0.2330 -0.1336
  950MOL0     C28125   2.040  10.985   4.622 -0.4897  0.3382  0.8098
  950MOL0     C28126   2.158  10.897   4.661  0.2461 -0.1240  0.8371
  950MOL0     C28127   2.182  10.902   4.813 -0.0632  0.2008 -0.2510
  950MOL0     C28128   2.286  10.794   4.862  0.3314 -0.0844  0.8839
  950MOL0     C28129   2.274  10.760   5.008  1.3142 -0.2930 -0.4768
  950MOL0     C28130   2.390  10.676   5.056  0.8896  0.4034 -0.4858
  950MOL0     C28131   2.346  10.648   5.200 -0.6687 -0.5762  0.4501
  950MOL0     N28132   2.426  10.544   5.265  0.7337 -0.6002  0.6933
  950MOL0     C28133   2.531  10.566   5.346  0.4541 -0.0590  0.2835
  950MOL0     C28134   2.587  10.449   5.349  0.3264  0.8429  0.2883
  950MOL0     C28135   2.719  10.425   5.426 -0.4375 -0.2204  0.2566
  950MOL0     C28136   2.849  10.426   5.340  0.7101  0.3206  1.0236
  950MOL0     C28137   2.971  10.370   5.413 -0.8633 -0.4549 -0.7126
  950MOL0     C28138   3.090  10.404   5.325  0.1382  0.6201  0.2121
  950MOL0     O28139   3.090  10.333   5.197 -0.4521 -0.0073  1.0029
  950MOL0     C28140   3.189  10.353   5.105  0.3045  0.4931  0.3528
  950MOL0     C28141   3.202  10.266   4.996 -0.0100  0.2247  0.4201
  950MOL0     C28142   3.315  10.251   4.914  0.1895 -0.0564  0.6249
  950MOL0     C28143   3.307  10.138   4.813  0.2212 -0.2205 -0.3040
  950MOL0     C28144   3.420  10.341   4.936  0.0185 -0.0009 -0.5438
  950MOL0     C28145   3.547  10.344   4.868 -0.2224  0.5852  0.2277
  950MOL0     O28146   3.619  10.466   4.872 -0.5765 -0.0557 -0.4945
  950MOL0     C28147   3.735  10.465   4.803 -0.2834 -0.5267  0.5621
  950MOL0     C28148   3.850  10.417   4.860 -0.5104 -0.2424  0.6839
  950MOL0     C28149   3.959  10.399   4.781 -0.4263 -0.1520  0.1244
  950MOL0     C28150   3.960  10.432   4.644  0.5044 -0.0677 -1.0301
  950MOL0     O28151   4.079  10.393   4.586  0.5029 -1.4686  0.5027
  950MOL0     C28152   4.080  10.370   4.449  0.1807 -0.0608 -0.4743
  950MOL0     C28153   4.219  10.305   4.420  0.1085  0.3334 -0.2299
  950MOL0     C28154   4.216  10.279   4.265 -0.4595  0.3966 -0.1234
  950MOL0     C28155   4.337  10.180   4.232  0.0130  0.0972 -0.5922
  950MOL0     C28156   4.331  10.135   4.083 -0.4967  0.4063 -0.8166
  950MOL0     C28157   4.420  10.013   4.046  0.0938 -0.3874 -0.6588
  950MOL0     C28158   4.564  10.056   4.045  0.0859  0.4540 -0.3774
  950MOL0     C28159   4.669   9.964   4.110 -0.5129 -0.0475 -0.7921
  950MOL0    Cl28160   4.677   9.813   4.012 -0.3740 -0.7283  0.1299
  950MOL0     C28161   3.844  10.489   4.591 -0.3598 -0.8092 -0.2045
  950MOL0     C28162   3.734  10.507   4.670 -1.1142 -0.1789  0.9268
  950MOL0     O28163   3.568  10.245   4.796  0.1729 -0.4622  0.0280
  950MOL0     C28164   3.394  10.439   5.040 -0.7869  0.4308  0.5130
  950MOL0     C28165   3.292  10.446   5.125  0.4419 -0.1557  0.0044
  950MOL0     N28166   2.508  10.358   5.282 -0.0483 -0.4843  1.2143
  950MOL0     N28167   2.404  10.420   5.235 -0.8804  0.2962 -0.6271
  950MOL0     C28168   1.741  11.204   4.320  0.1293  0.3410  0.1134
  950MOL0     C28169   1.696  11.240   4.192  0.2853 -0.0673 -0.8368
  950MOL0     C28170   1.494  11.276   3.814  0.1082  0.1841 -0.1812
  950MOL0     C28171   1.564  11.364   3.729 -0.2511  0.2284 -0.4760
  950MOL0     C28172   1.520  11.391   3.597 -0.0359  0.4203  0.4573
  950MOL0     C28173   1.390  11.367   3.559  0.3217  0.1032 -0.1569
  950MOL0     O28174   1.354  11.410   3.433  1.1940 -0.4738 -0.7481
  950MOL0     C28175   1.214  11.388   3.413  0.3303  0.3511  0.8572
  950MOL0     C28176   1.180  11.446   3.273  0.3503 -0.1993  0.4163
  950MOL0     C28177   1.238  11.349   3.160  0.0647 -0.3755  0.3863
  950MOL0     C28178   1.179  11.398   3.027 -0.9657 -0.8943 -0.1649
  950MOL0     C28179   1.036  11.364   3.024 -0.7727  0.4172  0.4267
  950MOL0     C28180   0.922  11.341   3.035  0.1407  0.1515  0.2087
  950MOL0     C28181   1.318  11.289   3.643 -1.1718  0.9318  0.3206
  950MOL0     C28182   1.363  11.241   3.760 -0.2315  1.3546  0.3216
  950MOL0     H28183   1.857  11.018   3.997 -1.5120 -0.5148 -0.1170
  950MOL0     H28184   1.927  10.938   4.227  0.4434 -0.4543 -2.8646
  950MOL0     H28185   1.970  10.876   4.452  1.6951 -0.6837  1.6558
  950MOL0     H28186   2.073  11.004   4.398  0.9566 -0.3491  0.6396
  950MOL0     H28187   2.063  11.087   4.653 -0.4384 -0.1449  2.4809
  950MOL0     H28188   1.955  10.960   4.685  2.0265 -0.4991  4.1753
  950MOL0     H28189   2.135  10.794   4.631  2.3536 -0.4898  0.3127
  950MOL0     H28190   2.248  10.926   4.606 -1.7733 -1.4504 -3.6421
  950MOL0     H28191   2.219  11.005   4.824  2.3560 -0.1530 -3.5661
  950MOL0     H28192   2.091  10.903   4.874  0.3945  2.7518  0.5195
  950MOL0     H28193   2.280  10.709   4.793 -0.6530  1.2265 -0.7139
  950MOL0     H28194   2.390  10.825   4.853  0.1537  0.9136  2.0790
  950MOL0     H28195   2.277  10.856   5.060  0.5383 -0.6875  0.3329
  950MOL0     H28196   2.183  10.702   5.026  0.5229  0.7318 -1.0636
  950MOL0     H28197   2.394  10.587   4.994 -3.2661  0.1468 -0.6138
  950MOL0     H28198   2.491  10.717   5.067  2.8810 -4.1082  0.0466
  950MOL0     H28199   2.240  10.625   5.209 -1.7570  2.4649 -2.4177
  950MOL0     H28200   2.361  10.740   5.257  2.6969 -1.3868  1.1286
  950MOL0     H28201   2.590  10.646   5.390  2.1772 -1.3356  0.4048
  950MOL0     H28202   2.730  10.506   5.499 -1.1099 -1.2751  1.5840
  950MOL0     H28203   2.710  10.328   5.477  0.1404  0.8413  2.5407
  950MOL0     H28204   2.864  10.529   5.306  0.4337  1.0333  2.9010
  950MOL0     H28205   2.826  10.362   5.255 -1.0966  2.9736 -0.6559
  950MOL0     H28206   2.973  10.264   5.438  2.1086 -0.4606 -0.6736
  950MOL0     H28207   2.985  10.429   5.505  1.4250 -0.8082 -0.7752
  950MOL0     H28208   3.182  10.391   5.382 -0.0454  1.3606  0.6915
  950MOL0     H28209   3.086  10.513   5.318 -0.1842  0.7488  1.9331
  950MOL0     H28210   3.117  10.199   4.985 -1.0327  1.2475  1.7160
  950MOL0     H28211   3.226  10.065   4.821  0.3307 -0.3200 -0.0785
  950MOL0     H28212   3.295  10.174   4.710  0.3760 -3.7990 -1.7148
  950MOL0     H28213   3.397  10.077   4.825  3.1747  3.9866  1.5970
  950MOL0     H28214   3.850  10.394   4.966 -0.8919 -0.6753  0.5920
  950MOL0     H28215   4.052  10.362   4.824  1.8353  1.6838 -2.7632
  950MOL0     H28216   4.008  10.293   4.418 -1.2637  1.5424 -1.3171
  950MOL0     H28217   4.059  10.465   4.400  0.8020  1.2146  1.5879
  950MOL0     H28218   4.299  10.373   4.449 -0.0928  0.4527  0.0510
  950MOL0     H28219   4.224  10.213   4.479  2.1818  1.1391  0.9639
  950MOL0     H28220   4.224  10.373   4.210  1.9638  1.2934  1.5680
  950MOL0     H28221   4.116  10.243   4.237 -0.7928  0.1796  1.2631
  950MOL0     H28222   4.432  10.221   4.268 -1.2363  2.8903 -0.1611
  950MOL0     H28223   4.319  10.096   4.299 -0.3496  1.4308  1.0541
  950MOL0     H28224   4.360  10.207   4.006  1.1769 -3.8076 -4.5772
  950MOL0     H28225   4.225  10.107   4.077 -0.0263 -1.4947 -0.9142
  950MOL0     H28226   4.399   9.936   4.122 -2.6572  0.3134 -0.6021
  950MOL0     H28227   4.392   9.966   3.952  2.8393 -2.8718 -0.3855
  950MOL0     H28228   4.565  10.152   4.099 -1.7763 -0.0215  0.5951
  950MOL0     H28229   4.602  10.083   3.946  3.2866  2.1144  1.1416
  950MOL0     H28230   4.651   9.940   4.215  2.4281 -0.6894 -0.3634
  950MOL0     H28231   4.766  10.013   4.111 -0.6057  0.3419  3.4384
  950MOL0     H28232   3.835  10.527   4.489  1.7675  1.0979  0.2456
  950MOL0     H28233   3.643  10.549   4.627 -0.2663  0.8837  0.0876
  950MOL0     H28234   3.457  10.527   5.053  0.1267 -0.3051  1.2243
  950MOL0     H28235   3.284  10.526   5.199 -0.4738 -0.0625 -0.1847
  950MOL0     H28236   1.703  11.274   4.393 -0.7835 -0.5460  0.5071
  950MOL0     H28237   1.628  11.325   4.192 -1.2224 -1.1433  1.9446
  950MOL0     H28238   1.656  11.408   3.766 -1.0705 -1.4438  4.2882
  950MOL0     H28239   1.596  11.448   3.544  2.3872  0.9489  4.1518
  950MOL0     H28240   1.193  11.281   3.403 -0.9973  0.5257  1.5378
  950MOL0     H28241   1.148  11.439   3.483 -0.8817  1.5838 -1.0944
  950MOL0     H28242   1.227  11.544   3.263  0.2903 -0.3674 -2.5664
  950MOL0     H28243   1.072  11.459   3.281  0.6179  2.2114  0.8192
  950MOL0     H28244   1.221  11.244   3.186  2.0082 -0.0607  3.4338
  950MOL0     H28245   1.346  11.365   3.158  0.1405 -0.3589  2.5970
  950MOL0     H28246   1.252  11.375   2.948 -0.6937 -3.0881  0.6582
  950MOL0     H28247   1.172  11.506   3.041 -0.2491 -0.9657  0.7999
  950MOL0     H28248   0.817  11.322   3.022  0.7312 -3.5323 -0.2958
  950MOL0     H28249   1.216  11.264   3.616 -0.5553 -1.0752 -0.3525
  950MOL0     H28250   1.296  11.182   3.822  1.5978 -0.3184  0.8252
  951MOL0     O28251   6.275  10.648   4.600  0.2686 -0.1951 -0.6185
  951MOL0     C28252   6.344  10.584   4.689 -0.1749 -1.0435  0.7269
  951MOL0     O28253   6.420  10.478   4.679  0.4538  0.7125  0.0703
  951MOL0     C28254   6.412  10.422   4.556 -0.3353 -0.1608 -0.1065
  951MOL0     C28255   6.525  10.449   4.477 -0.3849 -0.0902 -0.4010
  951MOL0     C28256   6.535  10.396   4.351 -0.1934 -0.7923 -0.3728
  951MOL0     C28257   6.440  10.323   4.295  0.0957  0.5404 -0.6384
  951MOL0     O28258   6.438  10.298   4.157  0.0372 -0.4779 -0.6417
  951MOL0     C28259   6.555  10.229   4.109 -0.7547 -0.0167 -0.4261
  951MOL0     C28260   6.555  10.218   3.960  0.4025 -0.1825 -0.6884
  951MOL0     C28261   6.644  10.117   3.905  0.1303  0.0758 -0.0575
  951MOL0     C28262   6.682  10.139   3.753 -0.1022 -0.5519  0.1574
  951MOL0     C28263   6.562  10.116   3.654  0.0608  0.4088  1.0402
  951MOL0     C28264   6.535   9.967   3.641  0.3798 -0.8885  0.2835
  951MOL0     C28265   6.437   9.928   3.535  0.2241  0.5862  0.1177
  951MOL0     C28266   6.330  10.031   3.513 -0.2640 -0.0969  0.6478
  951MOL0     N28267   6.196   9.978   3.471  0.1303  0.9405  1.2982
  951MOL0     C28268   6.180   9.867   3.389  0.3510 -0.1859  0.4576
  951MOL0     C28269   6.049   9.832   3.392 -0.4188  0.6723 -0.4223
  951MOL0     C28270   5.988   9.721   3.318 -0.7800  0.2259 -0.2274
  951MOL0     C28271   6.037   9.585   3.368 -0.8129  0.2903  0.1220
  951MOL0     C28272   5.987   9.480   3.269  0.4018  0.5285  0.4311
  951MOL0     C28273   6.059   9.345   3.299  0.0359  0.5590 -0.4296
  951MOL0     O28274   6.089   9.260   3.186 -0.5780 -0.4418 -0.9716
  951MOL0     C28275   6.126   9.129   3.207 -1.4700  0.8080  0.3073
  951MOL0     C28276   6.148   9.054   3.091  0.8695  0.2832 -0.8081
  951MOL0     C28277   6.183   8.916   3.101  0.1779  0.7268  1.4901
  951MOL0     C28278   6.197   8.842   2.967 -0.2296  0.4704  0.2021
  951MOL0     C28279   6.202   8.849   3.226 -0.0062 -0.4545  0.8949
  951MOL0     C28280   6.239   8.708   3.234 -0.7745  0.1501  0.0751
  951MOL0     O28281   6.158   8.627   3.311  0.9623 -0.1351 -0.7597
  951MOL0     C28282   6.187   8.501   3.349 -0.0386  0.8370 -0.6134
  951MOL0     C28283   6.309   8.446   3.379  0.8341  0.2062 -0.2901
  951MOL0     C28284   6.312   8.319   3.420  0.0245 -0.7799 -0.4121
  951MOL0     C28285   6.197   8.233   3.429 -0.7002 -0.2322 -0.2806
  951MOL0     O28286   6.222   8.094   3.447  0.3009  0.4163 -0.2286
  951MOL0     C28287   6.104   8.008   3.456 -0.4699  1.0313  0.4123
  951MOL0     C28288   6.151   7.873   3.518  1.0315 -0.3932  0.2716
  951MOL0     C28289   6.261   7.802   3.444 -0.2157  0.9603 -0.3733
  951MOL0     C28290   6.264   7.662   3.503  0.1915  0.1475  0.5055
  951MOL0     C28291   6.379   7.571   3.449 -0.5659 -0.3708 -0.7174
  951MOL0     C28292   6.371   7.423   3.506 -0.8774  0.0671  0.1031
  951MOL0     C28293   6.407   7.406   3.662 -0.7112 -0.1088  0.0559
  951MOL0     C28294   6.430   7.262   3.709  0.3729  0.9188  0.2985
  951MOL0    Cl28295   6.509   7.280   3.876  0.9035 -0.2794 -0.2249
  951MOL0     C28296   6.075   8.292   3.402  0.6332  0.1198  0.1349
  951MOL0     C28297   6.064   8.428   3.360  0.7523 -0.1556 -0.7922
  951MOL0     O28298   6.344   8.676   3.178 -0.3427 -0.3715  0.2854
  951MOL0     C28299   6.167   8.927   3.333 -0.3102  0.5561 -0.7892
  951MOL0     C28300   6.151   9.061   3.331 -0.1668 -0.0217  0.2586
  951MOL0     N28301   5.988   9.903   3.488 -0.6636 -0.4935 -2.1685
  951MOL0     N28302   6.074   9.993   3.534 -0.4349 -0.2414 -0.9819
  951MOL0     C28303   6.329  10.279   4.376 -0.1507 -0.3609  0.1276
  951MOL0     C28304   6.319  10.338   4.509 -0.3232  0.6232  0.8775
  951MOL0     C28305   6.381  10.670   4.804 -0.0003  0.5965  0.0797
  951MOL0     C28306   6.479  10.634   4.893  0.2695 -0.5005 -0.6607
  951MOL0     C28307   6.519  10.719   4.992  0.2356 -0.3189 -0.2599
  951MOL0     C28308   6.462  10.846   5.011 -0.1761 -0.4625  1.1521
  951MOL0     O28309   6.512  10.929   5.114  0.0583  0.1161 -0.3496
  951MOL0     C28310   6.473  10.885   5.247  0.0183 -0.6388  0.5008
  951MOL0     C28311   6.558  10.968   5.352  0.4591  0.4978 -0.4945
  951MOL0     C28312   6.709  10.964   5.345 -0.3489  0.0955  0.5202
  951MOL0     C28313   6.762  10.826   5.362  0.4654 -0.7274  0.4509
  951MOL0     C28314   6.763  10.807   5.507 -0.7233 -0.4207  1.1364
  951MOL0     C28315   6.757  10.765   5.621 -0.1609  0.1592  0.0416
  951MOL0     C28316   6.346  10.874   4.939 -0.4457  0.5557  0.5752
  951MOL0     C28317   6.320  10.796   4.824  0.4983 -0.2472 -0.2217
  951MOL0     H28318   6.591  10.520   4.525  0.2532 -0.1886 -1.1190
  951MOL0     H28319   6.627  10.416   4.296 -0.6125 -2.4730 -1.7963
  951MOL0     H28320   6.634  10.284   4.161 -1.6396 -2.2556  3.6922
  951MOL0     H28321   6.564  10.129   4.151 -1.1665 -0.5519 -1.5831
  951MOL0     H28322   6.454  10.180   3.941 -0.0500  1.4646 -1.8534
  951MOL0     H28323   6.581  10.320   3.930  0.5024  1.0417  3.1345
  951MOL0     H28324   6.737  10.111   3.963  0.3098  0.9821 -0.2379
  951MOL0     H28325   6.591  10.023   3.920 -1.7743  1.0294 -0.5448
  951MOL0     H28326   6.718  10.242   3.747 -1.8510  0.1360  0.9382
  951MOL0     H28327   6.770  10.083   3.718 -0.3107 -1.1812  0.6290
  951MOL0     H28328   6.469  10.163   3.686 -0.3245  1.6393 -1.6247
  951MOL0     H28329   6.585  10.153   3.554 -1.6223 -1.6815 -0.2145
  951MOL0     H28330   6.628   9.911   3.628 -1.5471 -4.0813 -1.1150
  951MOL0     H28331   6.498   9.940   3.740 -1.0257  1.2004  0.3891
  951MOL0     H28332   6.489   9.926   3.439  0.5194  3.6219  0.1247
  951MOL0     H28333   6.400   9.830   3.568  1.9103  0.6664  2.4495
  951MOL0     H28334   6.377  10.094   3.437  0.7032 -0.2332  1.1178
  951MOL0     H28335   6.313  10.093   3.602 -3.2073 -0.8505  0.7411
  951MOL0     H28336   6.262   9.816   3.339  0.7091  1.5249 -0.7534
  951MOL0     H28337   5.879   9.730   3.323 -0.8479  0.1735 -1.4072
  951MOL0     H28338   6.006   9.728   3.210  1.1653 -3.6022 -0.3094
  951MOL0     H28339   6.013   9.576   3.474 -0.1172 -3.3985  0.1082
  951MOL0     H28340   6.146   9.580   3.360 -0.7203  2.0834 -0.0207
  951MOL0     H28341   5.998   9.514   3.165  1.1500 -2.1255 -0.4366
  951MOL0     H28342   5.880   9.461   3.280  0.2168  1.8368  1.1157
  951MOL0     H28343   6.000   9.280   3.363  1.1614 -0.3814 -0.3177
  951MOL0     H28344   6.158   9.368   3.338 -0.1800  1.6154 -0.4721
  951MOL0     H28345   6.122   9.105   2.999  0.4021 -1.3387 -1.6212
  951MOL0     H28346   6.302   8.844   2.935 -0.6713  0.6752 -1.3566
  951MOL0     H28347   6.160   8.739   2.973 -0.2366  0.4342 -0.3685
  951MOL0     H28348   6.140   8.894   2.890  1.8211 -1.4892 -2.9084
  951MOL0     H28349   6.398   8.507   3.372  0.8116  0.1461 -1.2913
  951MOL0     H28350   6.408   8.271   3.436 -0.2885 -0.5778  2.7174
  951MOL0     H28351   6.034   8.057   3.524 -2.5262 -1.7649  0.4659
  951MOL0     H28352   6.049   7.991   3.364 -2.4732 -0.7332  1.8294
  951MOL0     H28353   6.194   7.896   3.616  2.6367 -1.2920 -0.1928
  951MOL0     H28354   6.066   7.806   3.529 -0.4866  1.4845  0.5577
  951MOL0     H28355   6.357   7.855   3.446  0.0931  0.5157 -1.8849
  951MOL0     H28356   6.229   7.809   3.339  1.5088  1.3255 -0.9181
  951MOL0     H28357   6.278   7.670   3.611  2.3810 -2.1219  0.4995
  951MOL0     H28358   6.166   7.616   3.490 -0.7485  1.7031  1.8057
  951MOL0     H28359   6.471   7.617   3.486  0.0913 -1.9058 -0.3832
  951MOL0     H28360   6.385   7.566   3.340  1.1501 -1.5496 -0.6081
  951MOL0     H28361   6.271   7.384   3.481 -1.4334 -1.2162  3.8174
  951MOL0     H28362   6.449   7.381   3.442  0.2766  4.0565 -1.4068
  951MOL0     H28363   6.322   7.435   3.724 -0.2774 -1.5763  1.4050
  951MOL0     H28364   6.489   7.472   3.692 -0.5621 -2.0780  5.0439
  951MOL0     H28365   6.503   7.218   3.641 -2.5256 -0.5124 -2.0988
  951MOL0     H28366   6.344   7.195   3.703  1.2087 -0.3321  1.5448
  951MOL0     H28367   5.990   8.225   3.405 -0.4345  1.4649  2.1860
  951MOL0     H28368   5.966   8.472   3.346  0.9096  1.1548  1.7833
  951MOL0     H28369   6.162   8.880   3.431  1.2042 -0.9770 -1.3852
  951MOL0     H28370   6.159   9.107   3.429  1.6422  0.5571 -0.1145
  951MOL0     H28371   6.249  10.225   4.326  0.0741 -0.0778 -0.5412
  951MOL0     H28372   6.228  10.318   4.564 -0.8221 -3.8876 -1.1105
  951MOL0     H28373   6.538  10.543   4.881 -1.3876 -1.4839 -1.6921
  951MOL0     H28374   6.602  10.686   5.054  0.2651  1.2530  0.5908
  951MOL0     H28375   6.370  10.922   5.256  0.6335  1.5017 -0.8279
  951MOL0     H28376   6.482  10.776   5.248 -0.7510 -0.7049  1.0722
  951MOL0     H28377   6.527  10.917   5.444 -1.6765  0.2929 -1.2690
  951MOL0     H28378   6.535  11.074   5.344 -1.7156  0.1370  0.3111
  951MOL0     H28379   6.757  11.031   5.417  0.2402 -0.5600  0.7428
  951MOL0     H28380   6.750  10.990   5.247 -0.9563  0.6827  0.4150
  951MOL0     H28381   6.868  10.842   5.338  0.8326 -1.8763  1.2249
  951MOL0     H28382   6.712  10.754   5.297  1.6734 -0.7996 -0.4422
  951MOL0     H28383   6.757  10.719   5.717  0.9408 -0.7057 -0.3464
  951MOL0     H28384   6.283  10.953   4.979 -3.2300 -1.2524 -0.0340
  951MOL0     H28385   6.245  10.830   4.753  0.1854  1.5899  0.9140
  952MOL0     O28386   1.429   6.207   2.169 -0.0227  0.0759 -0.4329
  952MOL0     C28387   1.384   6.122   2.089  0.0503  0.5253  0.6314
  952MOL0     O28388   1.268   6.057   2.107 -0.0258 -0.1683 -0.5788
  952MOL0     C28389   1.202   6.064   2.223  0.4716 -0.3969  0.4979
  952MOL0     C28390   1.089   6.148   2.229  0.0803 -0.0561 -0.8515
  952MOL0     C28391   0.997   6.134   2.336  0.0454 -0.0649  0.1061
  952MOL0     C28392   1.019   6.046   2.441  0.8132 -0.1666 -0.3848
  952MOL0     O28393   0.916   6.021   2.534  0.1055 -0.3037  0.2795
  952MOL0     C28394   0.793   5.970   2.489 -0.6898  1.5154 -0.2013
  952MOL0     C28395   0.690   6.014   2.587  0.0194 -0.0765 -0.1630
  952MOL0     C28396   0.574   5.912   2.556  0.0368  0.3039 -0.0577
  952MOL0     C28397   0.441   5.946   2.636  0.2702  0.9383  0.6197
  952MOL0     C28398   0.328   5.842   2.603 -0.5496 -0.2559  0.3034
  952MOL0     C28399   0.256   5.864   2.468  0.5258 -0.3147  0.3923
  952MOL0     C28400   0.135   5.788   2.438 -0.4119  0.2006 -0.3439
  952MOL0     C28401   0.069   5.827   2.305  0.6672 -1.0338  0.5389
  952MOL0     N28402   0.038   5.968   2.283 -0.1900  0.1948 -0.2048
  952MOL0     C28403   0.109   6.036   2.184 -0.7184  0.1748 -0.0542
  952MOL0     C28404   0.024   6.144   2.164 -0.1431  0.8967  0.3919
  952MOL0     C28405   0.061   6.269   2.083 -0.1988  0.2038  0.4988
  952MOL0     C28406  -0.015   6.399   2.126  1.1123  0.9475  0.2685
  952MOL0     C28407   0.044   6.518   2.064  0.3957 -0.4419  0.5104
  952MOL0     C28408  -0.049   6.639   2.085 -0.7236  0.0663 -1.1775
  952MOL0     O28409   0.021   6.757   2.107 -0.4899  0.3014  0.2331
  952MOL0     C28410   0.087   6.805   1.992  0.4929 -0.1698 -0.1391
  952MOL0     C28411   0.217   6.834   2.011 -0.2604  0.9671 -0.0663
  952MOL0     C28412   0.305   6.886   1.909 -0.3255 -0.0423 -0.2898
  952MOL0     C28413   0.451   6.908   1.935  0.5171  0.2871 -0.0593
  952MOL0     C28414   0.247   6.919   1.784  0.7895 -0.2567  0.3926
  952MOL0     C28415   0.317   7.004   1.680 -0.0876 -0.0107 -0.2630
  952MOL0     O28416   0.253   6.996   1.561  0.3015 -0.3038  0.3778
  952MOL0     C28417   0.255   7.098   1.471 -0.1083 -0.6098  0.4031
  952MOL0     C28418   0.130   7.169   1.454  0.0418  0.6339 -0.1729
  952MOL0     C28419   0.109   7.269   1.359 -0.2707  0.3562  0.2137
  952MOL0     C28420   0.213   7.312   1.286  0.3267 -0.6050 -0.1733
  952MOL0     O28421   0.197   7.412   1.192 -0.3811  0.6002  0.2595
  952MOL0     C28422   0.180   7.543   1.240 -0.6052 -0.2694 -0.5784
  952MOL0     C28423   0.179   7.643   1.129 -0.3375 -0.0476 -0.3398
  952MOL0     C28424   0.140   7.786   1.182 -0.0991  0.3495  0.2937
  952MOL0     C28425   0.067   7.869   1.084  0.2087  1.0245 -0.1993
  952MOL0     C28426   0.132   7.895   0.955 -0.4504  0.7880  0.5780
  952MOL0     C28427   0.234   8.013   0.936 -0.1014 -0.1495 -0.7428
  952MOL0     C28428   0.193   8.151   0.971  0.4942 -0.1797 -0.1134
  952MOL0     C28429   0.290   8.251   0.901 -1.1676  0.1856 -0.0789
  952MOL0    Cl28430   0.477   8.217   0.939  0.4069  0.0475 -0.7827
  952MOL0     C28431   0.340   7.262   1.308 -0.3608 -0.8896 -0.8456
  952MOL0     C28432   0.363   7.148   1.384 -0.7666 -0.0168  0.4237
  952MOL0     O28433   0.417   7.073   1.710 -0.2520 -0.2461  1.1145
  952MOL0     C28434   0.114   6.902   1.769  0.4124  0.6606 -0.5193
  952MOL0     C28435   0.032   6.867   1.877 -0.2838 -0.3456  0.1765
  952MOL0     N28436  -0.084   6.134   2.250 -0.2771 -0.1434  0.2894
  952MOL0     N28437  -0.076   6.025   2.324 -0.1646 -0.6700 -0.1786
  952MOL0     C28438   1.136   5.968   2.439  0.8133 -1.3769  0.0129
  952MOL0     C28439   1.223   5.984   2.334 -0.2037  0.7501 -0.5384
  952MOL0     C28440   1.450   6.107   1.955  0.0300 -0.1281 -0.1978
  952MOL0     C28441   1.400   6.017   1.864  0.0718  0.3486 -0.0498
  952MOL0     C28442   1.435   6.013   1.727  0.2607 -0.8404 -0.4142
  952MOL0     C28443   1.539   6.099   1.680 -0.7082  0.1782  0.4484
  952MOL0     O28444   1.596   6.097   1.560  0.7567  0.7451  0.1580
  952MOL0     C28445   1.539   6.011   1.461  0.4783 -0.3944  0.0962
  952MOL0     C28446   1.601   6.010   1.321  0.2906  0.2023  0.2976
  952MOL0     C28447   1.539   5.903   1.227 -0.8368 -0.9350 -0.1864
  952MOL0     C28448   1.385   5.905   1.210 -0.6007 -0.5375  0.2361
  952MOL0     C28449   1.339   6.036   1.176 -0.1315  0.3329 -0.1230
  952MOL0     C28450   1.285   6.147   1.174  0.0854  0.2533  0.5976
  952MOL0     C28451   1.599   6.187   1.770 -0.1923  0.0578 -0.5574
  952MOL0     C28452   1.551   6.194   1.903 -0.8465  0.3211 -0.0352
  952MOL0     H28453   1.083   6.230   2.159  1.3579  1.0834  0.2979
  952MOL0     H28454   0.915   6.201   2.361 -1.5124 -2.0991  0.7287
  952MOL0     H28455   0.767   6.001   2.387 -1.3236 -2.5248 -1.4536
  952MOL0     H28456   0.793   5.861   2.488  2.0473  1.3747  2.4361
  952MOL0     H28457   0.706   5.995   2.693  3.9314  5.4295  0.6465
  952MOL0     H28458   0.662   6.118   2.570  0.9642  0.0664 -0.9442
  952MOL0     H28459   0.544   5.923   2.451 -0.6580  0.5971  0.1675
  952MOL0     H28460   0.616   5.815   2.583  0.7325  0.2154 -1.3684
  952MOL0     H28461   0.458   5.932   2.743 -2.3420  0.9177  1.1009
  952MOL0     H28462   0.410   6.050   2.627  1.4745  1.1267 -3.4883
  952MOL0     H28463   0.363   5.739   2.596  2.8109  0.7568  0.4136
  952MOL0     H28464   0.252   5.845   2.682 -0.2138 -0.8933  0.6499
  952MOL0     H28465   0.235   5.972   2.465  2.3543  0.0781  0.3098
  952MOL0     H28466   0.327   5.845   2.387 -1.9474  3.0133 -2.9304
  952MOL0     H28467   0.159   5.682   2.431 -3.9613 -0.7867  0.1148
  952MOL0     H28468   0.067   5.810   2.521 -0.7147  1.9528 -1.0209
  952MOL0     H28469  -0.028   5.776   2.298 -0.1283  0.6457 -1.5056
  952MOL0     H28470   0.128   5.791   2.221 -0.0258  0.4522 -0.6323
  952MOL0     H28471   0.205   6.025   2.134  0.4047  2.3691  1.4146
  952MOL0     H28472   0.167   6.287   2.100  0.0014 -0.0419 -0.4665
  952MOL0     H28473   0.057   6.252   1.975 -1.0012  3.0387  0.0060
  952MOL0     H28474  -0.006   6.418   2.233  1.3522 -1.4183  0.7154
  952MOL0     H28475  -0.120   6.403   2.095  1.3294  3.8401 -0.3807
  952MOL0     H28476   0.068   6.499   1.959  1.2069  1.8204  0.2146
  952MOL0     H28477   0.139   6.543   2.113 -0.0657  4.8445 -0.7061
  952MOL0     H28478  -0.108   6.629   2.177  1.2775  1.6534  0.3776
  952MOL0     H28479  -0.118   6.643   2.001 -2.0556 -2.7868 -0.3512
  952MOL0     H28480   0.265   6.792   2.099  1.1313  0.7330 -0.9142
  952MOL0     H28481   0.508   6.903   1.842 -2.1474 -0.4842 -1.7620
  952MOL0     H28482   0.476   7.006   1.976  0.6332 -0.2943  1.3121
  952MOL0     H28483   0.490   6.838   2.010 -0.1899 -2.3979 -2.0525
  952MOL0     H28484   0.046   7.131   1.510  0.0073 -3.1446 -2.4487
  952MOL0     H28485   0.013   7.306   1.325 -0.3467  0.2908  0.3573
  952MOL0     H28486   0.094   7.550   1.306  1.0475  0.6519  1.5954
  952MOL0     H28487   0.255   7.577   1.312 -3.0522  0.9405  1.5358
  952MOL0     H28488   0.256   7.635   1.052  0.3048 -3.7863  0.4970
  952MOL0     H28489   0.087   7.610   1.080 -0.9447  0.6714  0.2874
  952MOL0     H28490   0.233   7.839   1.206 -0.5441  0.7720  1.1385
  952MOL0     H28491   0.085   7.776   1.276  1.5244  1.5779  1.4399
  952MOL0     H28492  -0.033   7.837   1.055  1.0232  1.0905 -3.5119
  952MOL0     H28493   0.061   7.968   1.131 -0.8087  1.0974 -0.4555
  952MOL0     H28494   0.046   7.920   0.892 -2.4341 -6.0210 -0.1731
  952MOL0     H28495   0.165   7.795   0.925 -1.4916  0.4249  0.6058
  952MOL0     H28496   0.304   7.977   1.013  0.6526 -0.3120 -1.4926
  952MOL0     H28497   0.276   8.011   0.835 -1.9736 -0.1735 -1.5598
  952MOL0     H28498   0.187   8.168   1.079  0.4840  0.5306 -0.2227
  952MOL0     H28499   0.093   8.173   0.931  1.0699 -0.8427 -2.0287
  952MOL0     H28500   0.272   8.346   0.952  1.7566 -0.1230  1.7285
  952MOL0     H28501   0.277   8.265   0.793  0.6454 -0.8612 -0.4713
  952MOL0     H28502   0.422   7.309   1.254  2.1284 -1.8764  1.7980
  952MOL0     H28503   0.458   7.096   1.391 -0.3494  0.7951  0.7922
  952MOL0     H28504   0.059   6.932   1.680  0.8459  0.3475 -0.8960
  952MOL0     H28505  -0.075   6.864   1.859 -0.3113 -0.7788  0.3887
  952MOL0     H28506   1.151   5.892   2.515  1.7802 -1.1672  0.0419
  952MOL0     H28507   1.299   5.907   2.322 -1.4978 -0.7139  0.2071
  952MOL0     H28508   1.311   5.960   1.886  0.0781 -0.3807 -1.7379
  952MOL0     H28509   1.389   5.941   1.660 -1.1671  1.0261 -1.5616
  952MOL0     H28510   1.562   5.916   1.510 -3.0192 -0.0432  2.7884
  952MOL0     H28511   1.431   6.030   1.460  0.4644 -0.2940  1.3897
  952MOL0     H28512   1.704   5.980   1.341 -0.6986 -1.3052  3.9222
  952MOL0     H28513   1.591   6.105   1.269 -0.7662  1.2093  2.2535
  952MOL0     H28514   1.555   5.803   1.270 -0.1443  0.0017  1.8152
  952MOL0     H28515   1.590   5.916   1.131  0.1688 -2.0954  0.1591
  952MOL0     H28516   1.344   5.867   1.304  1.3864 -0.9586  0.9807
  952MOL0     H28517   1.351   5.834   1.134  0.8554 -1.6904  0.5974
  952MOL0     H28518   1.245   6.245   1.181 -2.7170 -0.7863  0.2084
  952MOL0     H28519   1.683   6.249   1.742  2.3791 -1.8554  2.2597
  952MOL0     H28520   1.588   6.254   1.985 -2.1740 -0.3485  1.1020
  953MOL0     O28521   8.329   3.867   4.564 -0.3608 -0.0463 -0.6082
  953MOL0     C28522   8.417   3.806   4.512  0.0107  0.1438 -1.2819
  953MOL0     O28523   8.546   3.819   4.537  0.2098 -0.5225 -0.1443
  953MOL0     C28524   8.579   3.910   4.637  1.0494 -0.2535  0.9513
  953MOL0     C28525   8.666   3.869   4.733  0.1033  0.4287 -0.9331
  953MOL0     C28526   8.723   3.969   4.821  0.7143 -0.5332  0.3729
  953MOL0     C28527   8.698   4.104   4.802  0.2784 -0.2641  0.1265
  953MOL0     O28528   8.747   4.207   4.885 -0.7134 -0.2613 -0.3809
  953MOL0     C28529   8.798   4.323   4.807  0.2090  0.3982 -0.8799
  953MOL0     C28530   8.902   4.396   4.899  1.0475  0.0579  0.9139
  953MOL0     C28531   8.983   4.499   4.826 -0.4963  0.6945  0.7580
  953MOL0     C28532   9.024   4.629   4.909  0.2059  0.4176 -0.1054
  953MOL0     C28533   9.089   4.741   4.813 -0.2918  0.6170  0.3957
  953MOL0     C28534   9.187   4.678   4.714 -0.1433 -0.5940 -0.1885
  953MOL0     C28535   9.259   4.799   4.648 -0.2732  1.1385  0.1660
  953MOL0     C28536   9.179   4.894   4.570 -0.3434 -0.0078  1.2989
  953MOL0     N28537   9.248   5.004   4.505 -0.0772 -0.4895  0.9192
  953MOL0     C28538   9.197   5.096   4.410  1.2630  0.3256  0.1594
  953MOL0     C28539   9.274   5.199   4.384  0.3824  0.5407  0.0947
  953MOL0     C28540   9.278   5.311   4.277  0.0963 -0.1905 -0.6052
  953MOL0     C28541   9.175   5.267   4.168 -1.1814 -0.2037  0.8593
  953MOL0     C28542   9.171   5.384   4.065  0.0457 -0.1817  0.8612
  953MOL0     C28543   9.044   5.379   3.986 -0.6642  0.7251 -0.1031
  953MOL0     O28544   8.929   5.426   4.063  0.0995 -0.3176  1.0236
  953MOL0     C28545   8.808   5.379   4.024 -0.7023  0.0997 -0.5270
  953MOL0     C28546   8.765   5.247   4.049 -0.5795 -0.3838 -1.0702
  953MOL0     C28547   8.635   5.215   4.016  0.8453  1.0136  0.2670
  953MOL0     C28548   8.600   5.069   4.045  0.6958  0.1386  0.2004
  953MOL0     C28549   8.558   5.303   3.931 -0.6234  0.2081 -0.3666
  953MOL0     C28550   8.438   5.252   3.878 -0.0586 -0.4878  0.1809
  953MOL0     O28551   8.424   5.253   3.741  0.0507  0.4632 -0.2491
  953MOL0     C28552   8.312   5.202   3.677  0.0014 -0.2891 -0.9058
  953MOL0     C28553   8.311   5.252   3.551 -0.8318  0.4694  0.1861
  953MOL0     C28554   8.225   5.203   3.452  0.8824 -0.8905 -0.8271
  953MOL0     C28555   8.126   5.109   3.481 -0.0059  0.3301  0.1351
  953MOL0     O28556   8.038   5.066   3.394  0.2071 -0.1209 -0.3329
  953MOL0     C28557   8.061   5.071   3.253 -0.2857 -1.2864  0.6178
  953MOL0     C28558   8.179   4.972   3.238  0.3841  0.3600  0.3848
  953MOL0     C28559   8.173   4.823   3.289  0.0557 -0.0901 -0.1236
  953MOL0     C28560   8.294   4.797   3.385  0.2634 -0.1860  0.0979
  953MOL0     C28561   8.317   4.647   3.431 -0.4748 -0.8697 -0.1877
  953MOL0     C28562   8.464   4.617   3.465  0.4578  0.5761  0.5002
  953MOL0     C28563   8.494   4.482   3.543 -0.7805  1.0283  0.1685
  953MOL0     C28564   8.646   4.471   3.593  0.4322 -0.2386  0.0624
  953MOL0    Cl28565   8.699   4.336   3.684  0.1856 -0.3360  0.5042
  953MOL0     C28566   8.123   5.065   3.618 -0.1501 -0.7157  0.7791
  953MOL0     C28567   8.217   5.111   3.712  0.3580  0.8159  0.2204
  953MOL0     O28568   8.348   5.218   3.956  0.4972 -0.4987  0.5563
  953MOL0     C28569   8.611   5.424   3.887 -0.2436  0.3461 -0.3400
  953MOL0     C28570   8.734   5.460   3.937 -0.0150 -0.2895  1.1183
  953MOL0     N28571   9.387   5.162   4.450  1.0810  0.7251  0.1242
  953MOL0     N28572   9.372   5.061   4.529  0.3313 -0.6638  0.1506
  953MOL0     C28573   8.608   4.143   4.695  0.5178 -0.0549 -0.9993
  953MOL0     C28574   8.554   4.047   4.611 -0.2143  0.8212  0.3969
  953MOL0     C28575   8.379   3.721   4.403 -0.0984 -0.2151 -0.1476
  953MOL0     C28576   8.245   3.699   4.379  0.2496 -0.3696 -0.2139
  953MOL0     C28577   8.203   3.620   4.270  0.9380  1.5001 -0.1930
  953MOL0     C28578   8.300   3.558   4.188  0.2996  0.0910 -0.7782
  953MOL0     O28579   8.274   3.484   4.076  0.2689 -0.0364  0.3060
  953MOL0     C28580   8.129   3.468   4.035 -0.5552  0.2127  0.6979
  953MOL0     C28581   8.120   3.393   3.897  0.1035  0.0387 -0.5792
  953MOL0     C28582   7.985   3.414   3.829  0.3066 -0.2077 -0.0719
  953MOL0     C28583   7.980   3.557   3.785  0.3783  0.1116  0.8397
  953MOL0     C28584   7.912   3.547   3.649 -0.0236  0.1897  0.3268
  953MOL0     C28585   7.867   3.531   3.538 -0.7720 -0.4807 -0.2605
  953MOL0     C28586   8.433   3.578   4.216  0.2595  0.7181  0.5786
  953MOL0     C28587   8.475   3.657   4.323  0.0318  0.2265  0.0441
  953MOL0     H28588   8.701   3.767   4.739  0.5507  0.5092 -1.9775
  953MOL0     H28589   8.790   3.930   4.898  0.8899 -1.0242 -0.0209
  953MOL0     H28590   8.847   4.283   4.718  0.2506 -0.9956 -0.2591
  953MOL0     H28591   8.725   4.401   4.782 -0.5071  0.2741  0.7330
  953MOL0     H28592   8.853   4.444   4.984  0.0296  1.5879 -0.4877
  953MOL0     H28593   8.960   4.315   4.947  0.1609 -0.9315  0.3537
  953MOL0     H28594   9.081   4.454   4.805 -0.8738 -1.1709  2.6476
  953MOL0     H28595   8.934   4.533   4.734  1.1647 -2.5622 -1.5547
  953MOL0     H28596   8.933   4.676   4.947 -0.3736 -0.8803  0.1742
  953MOL0     H28597   9.089   4.602   4.993  0.5341  2.8695  0.4824
  953MOL0     H28598   9.010   4.783   4.751  1.3720  3.4519  0.0150
  953MOL0     H28599   9.143   4.808   4.880 -0.3725 -1.2693  2.4972
  953MOL0     H28600   9.246   4.613   4.779 -0.4133 -0.6242  0.0263
  953MOL0     H28601   9.136   4.617   4.639  1.3453 -0.9727 -0.9445
  953MOL0     H28602   9.302   4.867   4.723 -0.9541  2.4023 -0.5616
  953MOL0     H28603   9.339   4.762   4.584 -3.1295 -1.0285 -2.4008
  953MOL0     H28604   9.101   4.942   4.630 -1.5426  3.1987 -2.4014
  953MOL0     H28605   9.120   4.844   4.493  2.6532  0.7014 -1.6843
  953MOL0     H28606   9.103   5.078   4.360  2.0582  0.9896 -1.6741
  953MOL0     H28607   9.252   5.407   4.322 -1.4413  0.3292 -2.4595
  953MOL0     H28608   9.381   5.313   4.242  1.0410 -2.8199  1.6557
  953MOL0     H28609   9.076   5.276   4.213 -0.6759  1.3371  1.7464
  953MOL0     H28610   9.197   5.172   4.119 -1.1680 -0.9058  2.1761
  953MOL0     H28611   9.255   5.382   3.995 -1.7178 -0.0886 -1.3727
  953MOL0     H28612   9.168   5.487   4.101  1.9762 -0.1065  0.9279
  953MOL0     H28613   9.017   5.276   3.959 -0.4606  1.3380 -3.0079
  953MOL0     H28614   9.065   5.426   3.890  0.2265 -1.3470 -0.9743
  953MOL0     H28615   8.837   5.176   4.089  2.1611  0.9658 -3.2241
  953MOL0     H28616   8.548   5.026   3.959 -0.9062  0.4351  0.9867
  953MOL0     H28617   8.678   4.995   4.063  1.2317  0.0586 -2.0952
  953MOL0     H28618   8.541   5.056   4.136  0.3847 -1.3438 -0.1837
  953MOL0     H28619   8.386   5.323   3.519 -0.6570 -0.1194 -0.7746
  953MOL0     H28620   8.237   5.244   3.353  1.2412  0.9968 -0.0347
  953MOL0     H28621   7.966   5.041   3.208 -0.7111  2.6931 -1.5766
  953MOL0     H28622   8.089   5.170   3.218 -0.6702 -0.6699  1.9647
  953MOL0     H28623   8.165   4.962   3.131  0.3650  0.1574  0.4067
  953MOL0     H28624   8.272   5.023   3.266  0.7839  1.8927 -3.2074
  953MOL0     H28625   8.167   4.754   3.205 -3.2220  0.6711 -0.6362
  953MOL0     H28626   8.084   4.822   3.351  0.1993 -1.2981  0.0712
  953MOL0     H28627   8.388   4.827   3.337  0.1351 -0.9449 -0.6608
  953MOL0     H28628   8.277   4.854   3.476 -1.0536 -0.6569  0.1589
  953MOL0     H28629   8.273   4.565   3.373  3.1099 -1.2698 -2.6754
  953MOL0     H28630   8.264   4.639   3.527  0.9255  0.5886  0.7613
  953MOL0     H28631   8.525   4.628   3.375  0.8255 -3.0484  0.1593
  953MOL0     H28632   8.500   4.695   3.532  0.5414  0.5398  0.4971
  953MOL0     H28633   8.463   4.395   3.485  1.5600 -1.2496  2.1039
  953MOL0     H28634   8.443   4.488   3.640 -2.7129 -0.6488 -0.6759
  953MOL0     H28635   8.662   4.562   3.652 -0.9485  0.0103  0.0675
  953MOL0     H28636   8.713   4.481   3.506  1.3632  3.3428  0.9945
  953MOL0     H28637   8.040   5.001   3.647 -0.7095 -0.8982 -1.1024
  953MOL0     H28638   8.220   5.073   3.813 -0.3775 -1.0274 -0.4037
  953MOL0     H28639   8.564   5.492   3.817 -0.0183  1.2971  0.4179
  953MOL0     H28640   8.793   5.545   3.903 -0.9768 -1.4312 -4.1864
  953MOL0     H28641   8.596   4.250   4.681  2.8294  0.2767 -0.8879
  953MOL0     H28642   8.506   4.090   4.524 -3.2420 -0.1948  1.4316
  953MOL0     H28643   8.171   3.756   4.434  1.5866  0.0946  1.1746
  953MOL0     H28644   8.097   3.620   4.247  0.4342 -1.3998  1.6812
  953MOL0     H28645   8.085   3.406   4.114  2.3547 -1.7331  0.9345
  953MOL0     H28646   8.083   3.567   4.033 -0.2597  0.3927 -2.6238
  953MOL0     H28647   8.118   3.287   3.924 -1.5763 -0.2481 -1.6316
  953MOL0     H28648   8.205   3.417   3.834 -0.3531  0.9762 -0.8600
  953MOL0     H28649   7.899   3.401   3.896  0.0883  0.6592 -0.1740
  953MOL0     H28650   7.982   3.339   3.749  2.1370 -3.1092  2.3473
  953MOL0     H28651   8.080   3.600   3.771  0.1198  1.3387  2.5504
  953MOL0     H28652   7.929   3.615   3.863  1.7031 -0.9933  2.5997
  953MOL0     H28653   7.842   3.527   3.434 -2.5496 -2.4738  0.1780
  953MOL0     H28654   8.503   3.527   4.150 -0.6650 -0.9618  0.8525
  953MOL0     H28655   8.580   3.682   4.337  0.3559  0.6759 -2.5926
  954MOL0     O28656   8.121   3.351   6.986  0.1058 -0.9512  0.3821
  954MOL0     C28657   8.081   3.466   6.952 -0.3579  0.0691  0.3244
  954MOL0     O28658   7.984   3.481   6.862 -0.6735 -0.4754  0.7108
  954MOL0     C28659   7.923   3.373   6.790 -0.4108 -0.4742 -0.7978
  954MOL0     C28660   7.785   3.380   6.779  0.3150  0.6980 -0.6567
  954MOL0     C28661   7.710   3.268   6.727 -0.7325  0.5810  0.2420
  954MOL0     C28662   7.778   3.155   6.667  0.1337 -1.3630  0.1962
  954MOL0     O28663   7.702   3.051   6.609  0.4136 -0.4517 -1.0428
  954MOL0     C28664   7.766   2.944   6.552  1.0603 -0.3120  0.3394
  954MOL0     C28665   7.659   2.839   6.543 -1.3396 -0.4883 -0.5044
  954MOL0     C28666   7.544   2.893   6.449 -0.3342 -0.5390 -0.0021
  954MOL0     C28667   7.434   2.791   6.425 -0.5135 -0.0425  0.3908
  954MOL0     C28668   7.328   2.846   6.321  0.3715 -0.6916  0.0080
  954MOL0     C28669   7.214   2.754   6.287 -0.4740 -0.7663 -0.0845
  954MOL0     C28670   7.128   2.716   6.404 -0.0238  0.0956  0.0668
  954MOL0     C28671   7.013   2.815   6.433 -1.0445  0.5019 -0.5223
  954MOL0     N28672   7.047   2.944   6.502  0.0089  0.4977 -0.3063
  954MOL0     C28673   6.992   3.061   6.473 -0.8343  0.0640 -0.5956
  954MOL0     C28674   7.062   3.148   6.546  0.5432  0.1085 -0.3757
  954MOL0     C28675   7.038   3.300   6.530 -0.7787 -0.0545 -0.3785
  954MOL0     C28676   6.928   3.334   6.638 -0.8297  0.1605 -0.2542
  954MOL0     C28677   6.873   3.468   6.633 -0.6700  1.2129 -0.5357
  954MOL0     C28678   6.971   3.571   6.680  0.7648 -0.1142 -0.1392
  954MOL0     O28679   7.016   3.531   6.807 -0.2050  0.4928  0.1790
  954MOL0     C28680   7.070   3.614   6.903  0.1003 -0.4597  0.8507
  954MOL0     C28681   7.083   3.564   7.029 -0.0849  0.3179  0.4501
  954MOL0     C28682   7.136   3.652   7.125 -0.5296  0.9238  0.2493
  954MOL0     C28683   7.135   3.597   7.265  0.5649 -0.7342 -0.2226
  954MOL0     C28684   7.166   3.798   7.097  0.4747 -0.4605 -0.2233
  954MOL0     C28685   7.220   3.892   7.191 -0.5187  1.4209  0.7377
  954MOL0     O28686   7.343   3.852   7.242  0.4773 -0.3484 -0.2823
  954MOL0     C28687   7.401   3.916   7.359  0.1836 -0.4579  0.3041
  954MOL0     C28688   7.528   3.873   7.406  0.1959 -0.0020  1.6477
  954MOL0     C28689   7.597   3.922   7.518  0.4258 -0.5577  0.8150
  954MOL0     C28690   7.529   4.018   7.599 -0.5827 -0.5523 -0.5593
  954MOL0     O28691   7.578   4.067   7.716 -0.7648 -0.5627 -0.1535
  954MOL0     C28692   7.589   4.211   7.712  0.1788  0.8191 -0.2989
  954MOL0     C28693   7.739   4.252   7.691 -0.1076  0.3183  0.8597
  954MOL0     C28694   7.771   4.396   7.678  0.7056 -0.5657 -0.8224
  954MOL0     C28695   7.920   4.438   7.698 -0.1437  0.2268  0.4471
  954MOL0     C28696   8.017   4.372   7.600  0.0068  0.8921  0.1688
  954MOL0     C28697   7.961   4.370   7.450  0.1155  1.0818 -0.1911
  954MOL0     C28698   7.975   4.500   7.363  0.7180  0.8031 -0.9303
  954MOL0     C28699   8.125   4.536   7.353  1.0254  0.3062 -0.8073
  954MOL0    Cl28700   8.192   4.642   7.488  0.3888 -0.3204 -0.0816
  954MOL0     C28701   7.406   4.066   7.555 -0.0031 -0.1443 -0.9974
  954MOL0     C28702   7.343   4.017   7.440 -1.1969 -0.6283 -0.3180
  954MOL0     O28703   7.165   4.001   7.195  0.6422  0.0206 -0.4513
  954MOL0     C28704   7.133   3.841   6.971  1.2838 -0.1222 -0.4848
  954MOL0     C28705   7.092   3.751   6.875 -0.1873  0.6232  0.9002
  954MOL0     N28706   7.156   3.085   6.619  0.2315 -0.2309 -0.7277
  954MOL0     N28707   7.156   2.959   6.586  0.0667 -0.2285  0.3486
  954MOL0     C28708   7.919   3.148   6.685 -0.0859  0.2718 -0.1037
  954MOL0     C28709   7.992   3.259   6.737  0.0377 -0.7953 -0.6142
  954MOL0     C28710   8.134   3.577   7.026 -0.0487  0.8091  0.6138
  954MOL0     C28711   8.242   3.570   7.103  0.9166  0.4254  0.2948
  954MOL0     C28712   8.288   3.674   7.173 -0.7824  0.3311  0.1857
  954MOL0     C28713   8.219   3.794   7.171 -0.0095  0.3268  0.6825
  954MOL0     O28714   8.243   3.914   7.243  0.7176  0.1675 -0.1680
  954MOL0     C28715   8.268   3.910   7.386 -0.0960 -0.5483  0.3155
  954MOL0     C28716   8.151   3.849   7.452 -0.1142  0.4096 -0.2695
  954MOL0     C28717   8.179   3.859   7.606 -0.1566  0.9755  0.5875
  954MOL0     C28718   8.056   3.859   7.686  0.9529  0.2179 -0.4373
  954MOL0     C28719   7.974   3.745   7.646  0.5813  0.4193 -0.5617
  954MOL0     C28720   7.896   3.657   7.620  0.5537 -0.3278  0.0548
  954MOL0     C28721   8.112   3.812   7.076 -0.0390 -0.0932  0.3780
  954MOL0     C28722   8.072   3.700   7.007 -0.0574 -0.3120 -0.7810
  954MOL0     H28723   7.734   3.472   6.808  1.3796  1.1804 -0.2313
  954MOL0     H28724   7.604   3.280   6.744 -0.8049  3.0088 -1.4242
  954MOL0     H28725   7.815   2.971   6.458 -0.2845 -2.8268 -1.2116
  954MOL0     H28726   7.838   2.902   6.623  1.8134 -2.0717 -1.3844
  954MOL0     H28727   7.711   2.751   6.504 -0.5827 -1.0557  1.6604
  954MOL0     H28728   7.615   2.808   6.638  1.3895  0.1689  1.0617
  954MOL0     H28729   7.506   2.984   6.496 -2.5248 -0.4426 -1.7859
  954MOL0     H28730   7.590   2.922   6.354  2.6909  2.3523  2.1396
  954MOL0     H28731   7.479   2.697   6.393  0.2017  0.2557  0.4824
  954MOL0     H28732   7.392   2.775   6.525 -0.3387  2.6721  0.9729
  954MOL0     H28733   7.291   2.942   6.360 -0.4805 -0.6382 -0.9039
  954MOL0     H28734   7.381   2.858   6.226 -3.2536  0.9689 -2.0015
  954MOL0     H28735   7.152   2.810   6.217 -1.0718 -2.4799 -0.9851
  954MOL0     H28736   7.265   2.679   6.226  2.8035 -0.1118  1.6058
  954MOL0     H28737   7.070   2.628   6.376 -2.3257  1.0752  1.5298
  954MOL0     H28738   7.184   2.700   6.497  0.1724  0.2005 -0.0321
  954MOL0     H28739   6.950   2.768   6.509  0.1779 -2.1524 -1.0257
  954MOL0     H28740   6.956   2.833   6.341 -1.2525  0.0379 -0.4898
  954MOL0     H28741   6.909   3.082   6.406 -2.1179  1.7097  1.3702
  954MOL0     H28742   7.125   3.361   6.557 -1.6821  1.8605 -1.5658
  954MOL0     H28743   7.003   3.327   6.430 -1.4728 -0.5215 -0.2666
  954MOL0     H28744   6.951   3.299   6.739  1.8325  1.6904 -0.2229
  954MOL0     H28745   6.845   3.273   6.603  0.4562 -1.6989 -0.1945
  954MOL0     H28746   6.795   3.465   6.709  0.0718 -1.3429  0.2170
  954MOL0     H28747   6.845   3.485   6.528  1.8036 -0.7905 -1.6266
  954MOL0     H28748   6.924   3.669   6.676  0.3124 -0.3332 -0.2777
  954MOL0     H28749   7.050   3.580   6.605  0.9350 -1.1916 -0.1062
  954MOL0     H28750   7.080   3.456   7.036 -1.2091  0.3529  0.7310
  954MOL0     H28751   7.228   3.544   7.288 -0.4323 -1.6649  1.9000
  954MOL0     H28752   7.132   3.682   7.333  1.1097  1.0964 -2.3633
  954MOL0     H28753   7.047   3.536   7.286 -0.5698  0.5676 -1.0446
  954MOL0     H28754   7.568   3.794   7.343  0.7356  0.1371  1.8116
  954MOL0     H28755   7.695   3.890   7.551  0.2205  0.4147  2.5307
  954MOL0     H28756   7.538   4.262   7.630  0.8852 -1.8266 -2.5418
  954MOL0     H28757   7.551   4.244   7.809  4.0514  0.2512  1.5901
  954MOL0     H28758   7.796   4.213   7.776  1.5319 -0.7131 -0.6364
  954MOL0     H28759   7.772   4.197   7.602 -1.9466 -0.3171  0.5244
  954MOL0     H28760   7.712   4.450   7.753 -0.2366 -1.3715 -0.9613
  954MOL0     H28761   7.736   4.446   7.587 -0.0111  3.2164  1.3182
  954MOL0     H28762   7.931   4.542   7.666 -1.0202 -0.0087 -0.6631
  954MOL0     H28763   7.960   4.432   7.800  1.9959  0.7348 -0.3136
  954MOL0     H28764   8.032   4.272   7.643  2.2956  0.8397 -0.6367
  954MOL0     H28765   8.122   4.402   7.612  1.2562 -3.1906  0.9928
  954MOL0     H28766   8.021   4.293   7.401 -2.2590  0.1359 -1.8193
  954MOL0     H28767   7.859   4.332   7.440  0.3629  0.3563 -0.0149
  954MOL0     H28768   7.919   4.585   7.402  1.9621  1.4555 -0.5178
  954MOL0     H28769   7.943   4.470   7.263  1.5615  2.3976 -1.7006
  954MOL0     H28770   8.128   4.583   7.255  0.0107  0.6476 -0.6846
  954MOL0     H28771   8.175   4.438   7.356 -1.2766 -0.9157 -0.2628
  954MOL0     H28772   7.347   4.124   7.625  1.8116 -1.7322  2.1002
  954MOL0     H28773   7.243   4.055   7.424  0.2545  3.2652 -1.0604
  954MOL0     H28774   7.136   3.947   6.951  0.4822  0.0873  0.4275
  954MOL0     H28775   7.086   3.809   6.783 -1.4418  0.2718  0.7435
  954MOL0     H28776   7.969   3.060   6.645  2.1263  0.1586  2.6202
  954MOL0     H28777   8.099   3.243   6.736 -0.1119 -1.8265 -1.1647
  954MOL0     H28778   8.300   3.479   7.113  0.1303 -0.0040  1.1763
  954MOL0     H28779   8.373   3.653   7.237 -0.6154 -1.6098 -0.6355
  954MOL0     H28780   8.360   3.856   7.413  0.1132 -0.8082 -0.8525
  954MOL0     H28781   8.286   4.014   7.414 -1.2291  0.5026 -2.4907
  954MOL0     H28782   8.141   3.748   7.410 -1.5482  1.1895 -1.9334
  954MOL0     H28783   8.064   3.911   7.428 -0.1960  0.0238 -1.0205
  954MOL0     H28784   8.237   3.949   7.628  0.7461  0.2351  1.3687
  954MOL0     H28785   8.239   3.771   7.633 -1.9868 -0.2473  0.8270
  954MOL0     H28786   7.987   3.943   7.669  0.2759  0.0729  1.4097
  954MOL0     H28787   8.086   3.854   7.791  0.2953  0.5227 -0.2284
  954MOL0     H28788   7.831   3.572   7.608 -0.0733  0.1598 -0.0712
  954MOL0     H28789   8.068   3.911   7.070 -1.5618 -0.8353 -1.6620
  954MOL0     H28790   7.991   3.715   6.936 -0.5978  1.0606  0.0726
  955MOL0     O28791  10.228   3.837   9.135  0.0268  0.0279 -0.4034
  955MOL0     C28792  10.249   3.790   9.025 -0.3081 -0.1575  0.3590
  955MOL0     O28793  10.176   3.706   8.953  0.2012 -0.4871  0.2090
  955MOL0     C28794  10.046   3.664   8.989  1.1619 -0.7022 -0.2075
  955MOL0     C28795   9.937   3.677   8.907  0.6222  0.7503 -0.0846
  955MOL0     C28796   9.812   3.653   8.949 -0.3251  0.2122 -0.0428
  955MOL0     C28797   9.784   3.594   9.074 -0.9441 -0.6665 -0.0616
  955MOL0     O28798   9.660   3.561   9.119 -0.0466  0.0768  0.6438
  955MOL0     C28799   9.548   3.548   9.031 -0.7977 -0.0646  0.6470
  955MOL0     C28800   9.410   3.526   9.085 -0.2845  0.3498  0.0034
  955MOL0     C28801   9.341   3.653   9.131 -0.1308  0.5016 -0.6283
  955MOL0     C28802   9.243   3.617   9.239 -0.9392 -0.2049  0.3833
  955MOL0     C28803   9.144   3.726   9.257  0.1636  0.2030 -0.1631
  955MOL0     C28804   9.041   3.680   9.355 -0.0247  0.2836 -0.0317
  955MOL0     C28805   8.940   3.796   9.359 -0.0679  0.2239 -0.5700
  955MOL0     C28806   8.853   3.822   9.230 -0.7286  0.1385 -0.0118
  955MOL0     N28807   8.738   3.895   9.273 -1.1149 -0.5533  0.0892
  955MOL0     C28808   8.739   4.001   9.366 -1.4278  0.1973  0.4309
  955MOL0     C28809   8.614   3.998   9.417  0.3769  0.8328  0.0367
  955MOL0     C28810   8.571   4.102   9.515  0.2612 -0.0259 -0.7801
  955MOL0     C28811   8.668   4.109   9.632  0.6660 -0.2610 -2.5626
  955MOL0     C28812   8.594   4.204   9.727 -0.3561 -1.8244 -0.4821
  955MOL0     C28813   8.680   4.251   9.847  0.8009 -0.0587 -0.2470
  955MOL0     O28814   8.728   4.136   9.921 -0.6649  0.0928  0.3466
  955MOL0     C28815   8.744   4.163  10.056 -0.3704 -1.0157 -1.1789
  955MOL0     C28816   8.661   4.102  10.146  0.1214 -0.0590  0.8671
  955MOL0     C28817   8.653   4.117  10.279 -0.2251 -0.1813  0.0753
  955MOL0     C28818   8.544   4.050  10.363  0.8365 -0.0409  0.2272
  955MOL0     C28819   8.747   4.211  10.334  0.7037  0.3788  0.4719
  955MOL0     C28820   8.743   4.246  10.477 -0.5987 -0.2285  0.3127
  955MOL0     O28821   8.778   4.381  10.508  0.0406  0.5736  0.6867
  955MOL0     C28822   8.810   4.432  10.631 -0.7980 -0.3501 -0.0902
  955MOL0     C28823   8.925   4.425  10.693  1.0765  0.4676  0.2539
  955MOL0     C28824   8.953   4.507  10.806 -0.8019  0.4311  0.1935
  955MOL0     C28825   8.853   4.601  10.850 -0.4792 -0.8377 -0.1407
  955MOL0     O28826   8.879   4.675  10.972 -0.5457  0.5057  0.1120
  955MOL0     C28827   8.811   4.800  10.982 -0.1956 -0.2016  0.4018
  955MOL0     C28828   8.882   4.884  11.094 -0.3667  0.9822 -0.2024
  955MOL0     C28829   8.827   4.881  11.236 -0.0027 -0.8542 -0.5954
  955MOL0     C28830   8.859   5.013  11.313  0.5501 -0.3583 -0.5780
  955MOL0     C28831   8.845   5.003  11.471  0.5153  0.8946  0.4382
  955MOL0     C28832   8.937   4.907  11.541 -0.3335 -0.8218  0.1161
  955MOL0     C28833   9.076   4.971  11.550 -0.3336 -0.6883 -0.7306
  955MOL0     C28834   9.160   4.894  11.643  0.6178  0.2463  0.8877
  955MOL0    Cl28835   9.328   4.955  11.651 -0.4611 -0.3660  0.4715
  955MOL0     C28836   8.734   4.609  10.775 -0.5341  0.9220 -0.7269
  955MOL0     C28837   8.711   4.525  10.671  0.4509  0.1133  0.4115
  955MOL0     O28838   8.708   4.166  10.562  0.3402 -0.3392 -0.5990
  955MOL0     C28839   8.852   4.265  10.250  0.2137  1.1328  0.4513
  955MOL0     C28840   8.846   4.246  10.113 -0.8698  0.3183  0.4689
  955MOL0     N28841   8.533   3.906   9.366  0.1290  0.1804 -0.3348
  955MOL0     N28842   8.613   3.836   9.283 -1.2052 -0.2100 -0.6114
  955MOL0     C28843   9.895   3.561   9.152 -0.3766 -0.3598  0.5309
  955MOL0     C28844  10.024   3.594   9.109  0.6555 -0.1625  0.6380
  955MOL0     C28845  10.374   3.833   8.963  0.3353 -0.1699  0.3751
  955MOL0     C28846  10.433   3.955   9.008  0.2675 -0.3459  0.0516
  955MOL0     C28847  10.554   3.997   8.957 -0.4875 -0.0858  0.3666
  955MOL0     C28848  10.616   3.919   8.851  0.2113  0.6763 -0.5436
  955MOL0     O28849  10.731   3.958   8.791 -0.0227 -0.3497 -0.0861
  955MOL0     C28850  10.792   4.093   8.823 -1.2519  0.3068  0.0510
  955MOL0     C28851  10.924   4.099   8.756  0.2974  0.3437  0.9234
  955MOL0     C28852  11.013   4.207   8.838 -0.2652  0.1879 -0.2561
  955MOL0     C28853  11.129   4.255   8.757  0.1317 -0.1984 -0.4562
  955MOL0     C28854  11.191   4.369   8.821 -0.0612 -0.2906  0.5644
  955MOL0     C28855  11.242   4.473   8.854 -0.9531  0.7139  0.4693
  955MOL0     C28856  10.555   3.794   8.813 -0.0179 -0.2146  1.1454
  955MOL0     C28857  10.437   3.755   8.869  0.7263  1.1592 -0.1184
  955MOL0     H28858   9.971   3.713   8.810  3.5739  2.6539  1.4938
  955MOL0     H28859   9.727   3.675   8.884 -2.2310 -0.7818  1.9976
  955MOL0     H28860   9.546   3.632   8.961 -3.5539  1.5861  2.5010
  955MOL0     H28861   9.582   3.464   8.970  4.3908  0.8373  1.8444
  955MOL0     H28862   9.338   3.485   9.014 -0.3893 -3.2459  1.9819
  955MOL0     H28863   9.406   3.453   9.166  2.9582 -0.1884 -0.1900
  955MOL0     H28864   9.414   3.724   9.171  0.1680  2.1948 -3.8690
  955MOL0     H28865   9.294   3.707   9.049 -0.5281  0.1399 -0.6478
  955MOL0     H28866   9.206   3.518   9.213 -0.5170 -0.1585 -0.4234
  955MOL0     H28867   9.305   3.599   9.327 -2.8365 -0.8932  1.6453
  955MOL0     H28868   9.207   3.808   9.292  2.0184 -1.9862  1.9400
  955MOL0     H28869   9.101   3.747   9.159  2.9690 -0.8012 -1.6983
  955MOL0     H28870   8.998   3.584   9.323 -1.5807  1.4637 -1.7325
  955MOL0     H28871   9.085   3.666   9.454  1.1695 -0.2583 -0.6100
  955MOL0     H28872   8.873   3.786   9.446  0.7576 -2.2617 -0.1267
  955MOL0     H28873   8.995   3.890   9.368  2.5024 -0.9027 -3.2773
  955MOL0     H28874   8.821   3.724   9.193  3.3212 -1.2392 -0.2803
  955MOL0     H28875   8.906   3.870   9.147 -0.0324 -1.7114 -0.6893
  955MOL0     H28876   8.822   4.068   9.388  2.0553 -3.1330 -1.3659
  955MOL0     H28877   8.563   4.195   9.458  0.2009 -1.3713 -3.0736
  955MOL0     H28878   8.469   4.084   9.551  0.9424  0.3078  1.4592
  955MOL0     H28879   8.764   4.146   9.594  1.9856 -1.4696 -0.5608
  955MOL0     H28880   8.685   4.014   9.682  1.6040  1.4442  0.5907
  955MOL0     H28881   8.506   4.155   9.768  2.1051 -2.4943  4.9229
  955MOL0     H28882   8.562   4.297   9.678  1.1733 -0.9385  0.1199
  955MOL0     H28883   8.607   4.303   9.910  2.5629 -1.1066  2.8948
  955MOL0     H28884   8.760   4.324   9.827 -1.2241  1.8246 -2.0783
  955MOL0     H28885   8.589   4.028  10.112 -0.8270  1.6946 -1.2210
  955MOL0     H28886   8.587   3.981  10.435 -1.5553 -0.0222  1.7708
  955MOL0     H28887   8.490   4.128  10.418  1.3525 -0.7997  1.8482
  955MOL0     H28888   8.467   4.002  10.302  0.4816 -0.8484  1.2802
  955MOL0     H28889   8.994   4.348  10.661 -1.2929 -1.6316 -0.1126
  955MOL0     H28890   9.041   4.514  10.870 -1.7083  0.4848  1.4687
  955MOL0     H28891   8.834   4.857  10.891  0.2758 -1.7776 -0.5008
  955MOL0     H28892   8.705   4.775  10.996  0.1369 -2.0334 -0.1483
  955MOL0     H28893   8.985   4.849  11.105 -0.6050  0.6964  1.3261
  955MOL0     H28894   8.885   4.987  11.059  4.1347  1.4105  0.8608
  955MOL0     H28895   8.879   4.797  11.282 -2.7940 -2.0856  0.5197
  955MOL0     H28896   8.719   4.868  11.242  0.3022 -3.2505  0.5611
  955MOL0     H28897   8.961   5.041  11.287 -0.5805  2.8303 -2.0540
  955MOL0     H28898   8.798   5.096  11.276 -1.0639  0.0160  2.5290
  955MOL0     H28899   8.742   4.971  11.491  1.3451 -1.8165  0.7318
  955MOL0     H28900   8.855   5.100  11.521  0.1927 -0.3291  3.0867
  955MOL0     H28901   8.894   4.890  11.639 -2.5052 -0.2350 -0.6727
  955MOL0     H28902   8.947   4.814  11.485 -1.1406 -2.2410  2.2358
  955MOL0     H28903   9.062   5.075  11.581 -0.6987 -0.2786 -2.1586
  955MOL0     H28904   9.128   4.983  11.454  0.4457 -0.6484 -0.3087
  955MOL0     H28905   9.155   4.791  11.606 -6.0241  0.7777 -1.0397
  955MOL0     H28906   9.108   4.886  11.739  0.7735 -0.9733  0.8927
  955MOL0     H28907   8.654   4.674  10.810 -1.2588 -0.1653 -0.3078
  955MOL0     H28908   8.615   4.525  10.621  0.2539 -2.4073  0.6288
  955MOL0     H28909   8.927   4.326  10.300  1.8479  2.5648 -3.3456
  955MOL0     H28910   8.922   4.294  10.053 -0.7178 -1.9911 -1.3684
  955MOL0     H28911   9.873   3.496   9.236 -1.9670 -1.7003 -0.8822
  955MOL0     H28912  10.116   3.575   9.163  1.4874 -1.0175 -1.0046
  955MOL0     H28913  10.374   4.015   9.076  2.0032 -1.0420  2.2802
  955MOL0     H28914  10.590   4.095   8.988 -0.3210 -0.1162  0.2736
  955MOL0     H28915  10.734   4.184   8.807  4.3543  4.0653 -2.0143
  955MOL0     H28916  10.809   4.110   8.930 -1.6079 -4.3476  1.0702
  955MOL0     H28917  10.902   4.133   8.654  1.4045  1.0348  0.8878
  955MOL0     H28918  10.968   3.999   8.751  0.8553  0.6145  0.3006
  955MOL0     H28919  11.057   4.151   8.921  0.6496 -1.6254 -1.8782
  955MOL0     H28920  10.941   4.286   8.862  1.3586  1.6378  0.0707
  955MOL0     H28921  11.094   4.285   8.658  0.1843 -1.2153 -0.7996
  955MOL0     H28922  11.204   4.176   8.745  0.7367  0.5997 -2.2232
  955MOL0     H28923  11.297   4.560   8.886  1.6870 -0.7942  0.3562
  955MOL0     H28924  10.606   3.724   8.747  2.4491  3.0595 -0.7682
  955MOL0     H28925  10.398   3.654   8.862  1.3742  0.9858 -1.4352
  956MOL0     O28926   9.945   0.152   8.456  0.1323 -0.2519 -0.8097
  956MOL0     C28927   9.898   0.253   8.508 -0.1823  0.5026 -0.2086
  956MOL0     O28928   9.774   0.265   8.565  0.8456  0.0152 -0.5909
  956MOL0     C28929   9.701   0.154   8.579 -0.3279  0.7366  0.6574
  956MOL0     C28930   9.654   0.080   8.470 -1.5725  0.4590 -0.4721
  956MOL0     C28931   9.553  -0.015   8.488  0.7670 -0.7670  0.1452
  956MOL0     C28932   9.487  -0.015   8.617  0.2523  0.1272  0.1289
  956MOL0     O28933   9.380  -0.102   8.641 -0.0042 -0.0002 -0.7996
  956MOL0     C28934   9.398  -0.242   8.613  1.1914 -0.4367  0.0384
  956MOL0     C28935   9.263  -0.316   8.642 -0.3067 -0.2290  0.8056
  956MOL0     C28936   9.254  -0.445   8.565 -0.0341  0.3173 -0.1835
  956MOL0     C28937   9.323  -0.556   8.653  0.6145 -0.5668  0.0537
  956MOL0     C28938   9.354  -0.678   8.577  0.3088 -0.4650 -0.1688
  956MOL0     C28939   9.396  -0.806   8.655  0.5199  0.8751  0.1903
  956MOL0     C28940   9.551  -0.818   8.656 -0.2655 -0.1035  0.2388
  956MOL0     C28941   9.603  -0.929   8.748 -0.0506 -0.2766  0.2878
  956MOL0     N28942   9.749  -0.908   8.765  0.3553  0.3758  0.2659
  956MOL0     C28943   9.853  -0.987   8.717  0.4078 -0.1316  0.7469
  956MOL0     C28944   9.967  -0.924   8.736  0.6092 -0.2238  0.4567
  956MOL0     C28945  10.111  -0.970   8.670 -0.4347  0.5675 -0.0323
  956MOL0     C28946  10.096  -1.086   8.571 -0.2259  0.0099 -0.0335
  956MOL0     C28947  10.231  -1.111   8.494  0.7844  0.2474  0.6792
  956MOL0     C28948  10.217  -1.232   8.406  0.0957 -0.2963  0.1830
  956MOL0     O28949  10.339  -1.291   8.378  0.0666  0.2483  0.2348
  956MOL0     C28950  10.355  -1.381   8.274  0.2794 -0.0892  0.7444
  956MOL0     C28951  10.258  -1.446   8.205  0.4413  0.0868 -0.3718
  956MOL0     C28952  10.282  -1.525   8.092  0.9420 -0.0248  0.2998
  956MOL0     C28953  10.151  -1.571   8.015  0.2169  0.9405 -0.2228
  956MOL0     C28954  10.413  -1.535   8.042 -0.3395 -0.0362 -0.8510
  956MOL0     C28955  10.456  -1.587   7.911  0.5211 -0.5013 -0.6579
  956MOL0     O28956  10.369  -1.627   7.822 -0.4503  0.5562 -0.1779
  956MOL0     C28957  10.410  -1.670   7.701  0.8550 -0.0995 -0.3163
  956MOL0     C28958  10.413  -1.561   7.608  1.3648  1.0674 -0.3911
  956MOL0     C28959  10.454  -1.590   7.477  0.0014 -0.1241 -0.2707
  956MOL0     C28960  10.492  -1.720   7.438  0.6453  0.0037  0.3600
  956MOL0     O28961  10.546  -1.737   7.311  0.2431 -0.3160 -0.6853
  956MOL0     C28962  10.530  -1.866   7.237 -0.0692 -0.4998  0.6747
  956MOL0     C28963  10.579  -1.833   7.095  0.6728  0.5242 -0.3968
  956MOL0     C28964  10.721  -1.790   7.087  0.8309  0.8603 -0.4374
  956MOL0     C28965  10.763  -1.773   6.940 -0.0415 -0.5462 -0.1555
  956MOL0     C28966  10.904  -1.711   6.915  0.1871 -0.2048 -0.8721
  956MOL0     C28967  11.008  -1.744   7.021 -0.3605  0.8831  0.3855
  956MOL0     C28968  11.142  -1.679   6.975 -0.3719  0.2635 -0.2769
  956MOL0     C28969  11.215  -1.771   6.884 -0.1163  0.0791  0.1123
  956MOL0    Cl28970  11.391  -1.746   6.893 -0.4215 -0.0598 -0.2908
  956MOL0     C28971  10.472  -1.827   7.535 -0.3257 -1.0586 -0.4234
  956MOL0     C28972  10.437  -1.796   7.669 -0.7820  0.4553  0.1225
  956MOL0     O28973  10.576  -1.572   7.890 -1.2920  0.7133  0.8816
  956MOL0     C28974  10.514  -1.487   8.138  0.0979  0.8824 -0.1757
  956MOL0     C28975  10.488  -1.406   8.245  1.3399  0.0879  0.1646
  956MOL0     N28976   9.935  -0.806   8.800  0.6728  0.0055  0.2094
  956MOL0     N28977   9.810  -0.800   8.827  0.9148  0.3487  1.0508
  956MOL0     C28978   9.529   0.057   8.718 -0.0533 -0.6591  0.4151
  956MOL0     C28979   9.641   0.143   8.697  0.2756 -0.6088 -0.3481
  956MOL0     C28980   9.974   0.370   8.508 -0.6632 -0.4905 -0.1581
  956MOL0     C28981   9.950   0.467   8.612 -0.3305  0.2810  0.3289
  956MOL0     C28982  10.041   0.575   8.615  0.3009 -0.3978 -1.7443
  956MOL0     C28983  10.140   0.600   8.523 -0.3050 -1.3021  0.5694
  956MOL0     O28984  10.238   0.697   8.531  0.5974  0.4203  1.2656
  956MOL0     C28985  10.224   0.801   8.620  0.2984 -0.3724  0.6863
  956MOL0     C28986  10.309   0.924   8.596 -1.2898 -0.4424 -0.7960
  956MOL0     C28987  10.457   0.893   8.639  0.1581 -0.8312 -0.3055
  956MOL0     C28988  10.536   1.021   8.657 -0.1457 -0.6372  0.7852
  956MOL0     C28989  10.677   0.983   8.698  0.1690 -0.2135 -0.3925
  956MOL0     C28990  10.791   0.957   8.736 -0.6226 -0.6154  0.4737
  956MOL0     C28991  10.167   0.497   8.426  0.1934 -0.2987  0.0331
  956MOL0     C28992  10.086   0.384   8.420  0.9793 -0.0259  0.1473
  956MOL0     H28993   9.690   0.085   8.368  2.2378 -1.8023  0.5780
  956MOL0     H28994   9.519  -0.081   8.408  2.8758 -1.4439 -0.2350
  956MOL0     H28995   9.429  -0.264   8.511  1.3473 -0.8607  0.1747
  956MOL0     H28996   9.481  -0.289   8.666  3.9149  3.3339 -0.4895
  956MOL0     H28997   9.253  -0.329   8.750 -0.1856 -1.3348  0.6965
  956MOL0     H28998   9.188  -0.241   8.614  1.8343  1.5300 -0.5485
  956MOL0     H28999   9.147  -0.459   8.547  0.0934  0.6449 -1.2340
  956MOL0     H29000   9.307  -0.445   8.469 -2.2510  0.9886 -1.4643
  956MOL0     H29001   9.406  -0.513   8.709  1.8868 -2.4640 -0.2931
  956MOL0     H29002   9.255  -0.579   8.737 -0.8265  2.1770 -0.2618
  956MOL0     H29003   9.265  -0.703   8.518 -1.3584 -0.2741  2.1059
  956MOL0     H29004   9.438  -0.644   8.515 -0.6933  0.5925 -0.9950
  956MOL0     H29005   9.347  -0.806   8.753  0.1420 -0.4129  0.0210
  956MOL0     H29006   9.362  -0.889   8.592 -0.0942  0.4512  1.0567
  956MOL0     H29007   9.588  -0.839   8.555  0.0139 -1.2683  0.5707
  956MOL0     H29008   9.601  -0.726   8.688  2.7552 -1.2519 -0.7764
  956MOL0     H29009   9.585  -1.026   8.699  1.7316  0.9074 -3.0574
  956MOL0     H29010   9.558  -0.914   8.846  1.5496  0.0206  1.0068
  956MOL0     H29011   9.851  -1.082   8.664  2.0914 -0.5640  1.3752
  956MOL0     H29012  10.131  -0.875   8.620 -1.7980 -0.1967 -2.1505
  956MOL0     H29013  10.175  -0.993   8.756  0.8468 -0.1461 -1.1298
  956MOL0     H29014  10.017  -1.071   8.497 -0.4216  1.3497  0.4289
  956MOL0     H29015  10.072  -1.172   8.635  0.4570  1.1694  1.8735
  956MOL0     H29016  10.311  -1.133   8.565  0.7014  0.3788  0.8144
  956MOL0     H29017  10.255  -1.025   8.431 -1.6631 -0.3773 -1.2638
  956MOL0     H29018  10.174  -1.187   8.316  2.2072  1.5038 -0.0096
  956MOL0     H29019  10.143  -1.301   8.447 -1.4100  1.0294 -0.1898
  956MOL0     H29020  10.157  -1.447   8.246  1.6543  0.2661  2.9393
  956MOL0     H29021  10.093  -1.633   8.084  0.7428 -1.6440 -1.9725
  956MOL0     H29022  10.096  -1.480   7.988 -0.4003 -0.0192 -2.3954
  956MOL0     H29023  10.158  -1.637   7.929  0.0411 -1.4133  1.4816
  956MOL0     H29024  10.382  -1.460   7.632 -2.9799 -0.4446  1.2379
  956MOL0     H29025  10.461  -1.506   7.408 -3.0288 -0.3344 -0.9809
  956MOL0     H29026  10.583  -1.952   7.279  2.6081 -0.3997 -2.1239
  956MOL0     H29027  10.421  -1.873   7.232  0.0170 -1.4216 -0.8487
  956MOL0     H29028  10.565  -1.918   7.028 -3.1242  0.2039  0.6178
  956MOL0     H29029  10.517  -1.754   7.053  1.4078  1.3140 -0.0321
  956MOL0     H29030  10.778  -1.862   7.146 -0.1471 -2.1358 -2.8859
  956MOL0     H29031  10.726  -1.698   7.147 -0.6458 -0.2485  1.4944
  956MOL0     H29032  10.754  -1.871   6.893  1.5658 -1.0719  0.5460
  956MOL0     H29033  10.694  -1.704   6.891 -1.3373 -1.1664  0.7376
  956MOL0     H29034  10.906  -1.602   6.912 -0.6816  0.3062  5.2083
  956MOL0     H29035  10.936  -1.753   6.819  2.8355 -1.8137  0.5860
  956MOL0     H29036  10.994  -1.697   7.119 -2.3409  2.6528 -0.6902
  956MOL0     H29037  11.017  -1.849   7.050 -0.2127  0.4702 -1.0680
  956MOL0     H29038  11.199  -1.655   7.065 -3.0479 -0.0711  1.6532
  956MOL0     H29039  11.132  -1.581   6.927 -2.4829 -1.1561 -3.0441
  956MOL0     H29040  11.195  -1.762   6.776  3.7396 -1.4693 -0.9136
  956MOL0     H29041  11.197  -1.875   6.914 -1.8725 -0.5168 -2.5762
  956MOL0     H29042  10.486  -1.932   7.512  1.0640 -1.5155  2.2133
  956MOL0     H29043  10.413  -1.876   7.739  1.2451  0.6534  1.1165
  956MOL0     H29044  10.621  -1.507   8.137  0.3882  0.5965  5.3804
  956MOL0     H29045  10.564  -1.379   8.318  3.0023  1.1866 -1.8697
  956MOL0     H29046   9.477   0.070   8.812  2.4338 -1.1090  1.9533
  956MOL0     H29047   9.665   0.216   8.773 -2.2419 -0.4237  0.3575
  956MOL0     H29048   9.871   0.455   8.685  2.7701 -0.1287  3.9019
  956MOL0     H29049  10.034   0.645   8.698 -1.1966 -1.3177 -1.0461
  956MOL0     H29050  10.125   0.848   8.619  0.1374 -0.6994 -0.9184
  956MOL0     H29051  10.248   0.771   8.722  2.0023 -0.0721  0.3955
  956MOL0     H29052  10.271   1.007   8.655  0.4689 -0.4786  0.4743
  956MOL0     H29053  10.321   0.955   8.491  6.4954  1.5547  0.0307
  956MOL0     H29054  10.508   0.830   8.566 -1.7487  0.4258 -2.8789
  956MOL0     H29055  10.443   0.848   8.738  1.0188 -0.3648  0.0438
  956MOL0     H29056  10.491   1.089   8.730 -1.2455  2.2786 -2.3771
  956MOL0     H29057  10.549   1.077   8.565 -0.9495  1.5680  1.9427
  956MOL0     H29058  10.893   0.944   8.768  0.6682  0.2106 -2.8407
  956MOL0     H29059  10.253   0.514   8.362 -1.0881 -2.3881 -2.4139
  956MOL0     H29060  10.112   0.317   8.340 -2.0039  1.6774 -2.4927
  957MOL0     O29061   5.025   0.954   6.130  0.6613  0.0713  0.1221
  957MOL0     C29062   5.141   0.968   6.174 -0.1975  0.3024 -0.7449
  957MOL0     O29063   5.255   0.933   6.107  0.0419  1.1458  0.2857
  957MOL0     C29064   5.253   0.881   5.980  0.1045 -1.0322 -0.1866
  957MOL0     C29065   5.357   0.912   5.897 -0.4561 -0.5808  0.3583
  957MOL0     C29066   5.355   0.856   5.766  0.5317 -0.3238 -0.8772
  957MOL0     C29067   5.264   0.764   5.722  0.2297 -0.6135  1.1069
  957MOL0     O29068   5.267   0.704   5.599  0.2385 -0.0140 -0.1284
  957MOL0     C29069   5.369   0.735   5.511  0.1342 -0.0745  0.8748
  957MOL0     C29070   5.391   0.626   5.414  0.0339  0.1615  1.1393
  957MOL0     C29071   5.314   0.632   5.290 -0.6465 -0.1297 -0.4321
  957MOL0     C29072   5.349   0.751   5.196 -0.5786 -0.0844 -0.4022
  957MOL0     C29073   5.249   0.810   5.101  0.9949 -0.5696 -0.5994
  957MOL0     C29074   5.213   0.718   4.993 -0.4626 -0.4051 -0.0037
  957MOL0     C29075   5.087   0.780   4.919 -0.7630  0.2449 -1.3987
  957MOL0     C29076   5.027   0.686   4.813 -0.3581  0.3413  0.4692
  957MOL0     N29077   4.905   0.738   4.751  0.4982  0.0376 -0.6015
  957MOL0     C29078   4.879   0.872   4.720 -0.0387  0.4234 -0.8730
  957MOL0     C29079   4.758   0.869   4.665 -1.2044 -0.7299  0.0010
  957MOL0     C29080   4.695   0.979   4.582 -0.2521  0.6288  0.5656
  957MOL0     C29081   4.751   0.983   4.437 -0.1383  0.5493  0.4180
  957MOL0     C29082   4.652   1.060   4.347 -0.6926  1.2379  0.4544
  957MOL0     C29083   4.695   1.074   4.195 -0.7643 -0.6603  0.3329
  957MOL0     O29084   4.774   1.192   4.195  0.1645 -0.3484  0.1988
  957MOL0     C29085   4.887   1.207   4.267 -0.5033  0.0427 -0.6848
  957MOL0     C29086   4.881   1.273   4.400 -0.4254 -0.5647  0.3893
  957MOL0     C29087   4.991   1.286   4.488  0.0267 -0.5994 -0.0178
  957MOL0     C29088   4.961   1.360   4.621 -0.3709  0.4462 -0.1362
  957MOL0     C29089   5.117   1.233   4.443  0.4720  1.0241 -0.7829
  957MOL0     C29090   5.247   1.252   4.517  0.5182  0.0163 -1.2755
  957MOL0     O29091   5.250   1.348   4.612 -0.0356 -0.2308  0.0909
  957MOL0     C29092   5.367   1.372   4.681  0.3256 -0.4659  0.0249
  957MOL0     C29093   5.351   1.396   4.818  0.3596 -0.0893  0.0217
  957MOL0     C29094   5.462   1.412   4.900  0.3843  0.2388  1.5636
  957MOL0     C29095   5.583   1.432   4.849 -0.7197 -0.1542 -0.6773
  957MOL0     O29096   5.675   1.466   4.940  0.3831 -0.2969  0.0446
  957MOL0     C29097   5.810   1.470   4.893 -0.1635  0.2324  0.1073
  957MOL0     C29098   5.890   1.530   5.000  0.3285  0.8698  0.5964
  957MOL0     C29099   5.879   1.435   5.115  0.1128 -0.7755 -0.0979
  957MOL0     C29100   5.998   1.452   5.207 -0.0767 -0.0599  0.4650
  957MOL0     C29101   6.039   1.592   5.265  1.0058  0.8828  0.4357
  957MOL0     C29102   5.924   1.664   5.323 -0.5372  0.0796 -0.6245
  957MOL0     C29103   5.905   1.608   5.470  0.3988 -0.0114  0.8177
  957MOL0     C29104   5.785   1.664   5.546  0.0035 -0.3948 -0.0478
  957MOL0    Cl29105   5.741   1.564   5.689 -0.5072 -0.3216  0.1678
  957MOL0     C29106   5.606   1.409   4.716  0.2159  0.0929  0.0319
  957MOL0     C29107   5.494   1.380   4.627  0.3045 -0.1508 -0.5053
  957MOL0     O29108   5.342   1.173   4.489  0.0235 -0.3505 -0.2674
  957MOL0     C29109   5.124   1.158   4.326 -0.0139  0.4168 -0.3236
  957MOL0     C29110   5.006   1.142   4.244 -0.4521  0.7007 -0.5383
  957MOL0     N29111   4.700   0.745   4.671 -0.4494 -0.0106  1.2529
  957MOL0     N29112   4.799   0.666   4.703 -0.2566 -0.0408 -0.3811
  957MOL0     C29113   5.162   0.727   5.807 -0.3984 -0.7947 -0.4458
  957MOL0     C29114   5.161   0.783   5.937 -0.5086  0.5452  0.6829
  957MOL0     C29115   5.154   1.029   6.313 -0.0526 -0.2377  0.3578
  957MOL0     C29116   5.053   1.069   6.405 -0.1734  0.4445 -0.0403
  957MOL0     C29117   5.089   1.132   6.524 -0.0547  0.1091 -1.0278
  957MOL0     C29118   5.220   1.167   6.561  0.0849  0.2636  0.1057
  957MOL0     O29119   5.245   1.217   6.687  0.0884 -0.8453 -0.1779
  957MOL0     C29120   5.348   1.315   6.687 -0.0154  0.1573 -0.3762
  957MOL0     C29121   5.382   1.357   6.826 -0.0335  0.0714 -0.6131
  957MOL0     C29122   5.255   1.387   6.902  0.2845 -1.4785 -0.5338
  957MOL0     C29123   5.285   1.414   7.056  0.2564 -0.1663 -0.3128
  957MOL0     C29124   5.364   1.541   7.082 -0.1894  0.6386  0.1628
  957MOL0     C29125   5.439   1.637   7.104 -0.2266 -0.0888 -1.3100
  957MOL0     C29126   5.328   1.127   6.474 -0.0593 -0.2986  0.2821
  957MOL0     C29127   5.293   1.060   6.357  0.1784 -0.7579 -0.5105
  957MOL0     H29128   5.431   0.984   5.932  0.8728 -1.2459 -0.9788
  957MOL0     H29129   5.429   0.894   5.696  1.1509  0.0403 -0.0344
  957MOL0     H29130   5.351   0.825   5.451  2.5690 -0.1281 -0.0307
  957MOL0     H29131   5.469   0.745   5.554  3.0288 -0.9040 -4.8391
  957MOL0     H29132   5.494   0.610   5.379 -1.7906 -2.7595 -3.9949
  957MOL0     H29133   5.371   0.528   5.459  0.8934 -2.0700 -2.8379
  957MOL0     H29134   5.332   0.540   5.234 -2.0934 -0.1383 -0.9304
  957MOL0     H29135   5.208   0.633   5.317 -0.2150  0.7349  1.3744
  957MOL0     H29136   5.349   0.840   5.260 -3.4678 -0.4776  0.2839
  957MOL0     H29137   5.445   0.739   5.145 -0.1737  0.2783  0.2619
  957MOL0     H29138   5.156   0.836   5.154 -0.2822 -4.5185 -0.5946
  957MOL0     H29139   5.273   0.905   5.053 -5.6702  0.1661 -3.5302
  957MOL0     H29140   5.299   0.685   4.933  0.6320 -2.9793  2.7337
  957MOL0     H29141   5.183   0.618   5.027 -1.5801 -0.7642 -1.8489
  957MOL0     H29142   5.005   0.800   4.988 -2.8232 -3.3299 -2.5591
  957MOL0     H29143   5.130   0.878   4.894 -0.6514  1.6627  3.2257
  957MOL0     H29144   5.011   0.584   4.849  1.6966  0.9473  3.4359
  957MOL0     H29145   5.100   0.667   4.733 -2.2598  3.1271 -2.1441
  957MOL0     H29146   4.938   0.959   4.747 -1.0517  0.5511  1.0766
  957MOL0     H29147   4.586   0.985   4.588 -0.5828 -2.5245 -0.4118
  957MOL0     H29148   4.718   1.066   4.645 -0.4996 -0.9912  3.0391
  957MOL0     H29149   4.757   0.882   4.396 -0.3843  0.7685 -0.1718
  957MOL0     H29150   4.851   1.026   4.441 -0.5361  1.4461  1.5424
  957MOL0     H29151   4.636   1.162   4.383 -1.0563  0.9546  1.1212
  957MOL0     H29152   4.562   0.998   4.338  0.1527 -0.2027  1.4143
  957MOL0     H29153   4.606   1.083   4.133 -2.0117  2.4008  2.3341
  957MOL0     H29154   4.753   0.992   4.152 -0.4236  0.2308 -0.9410
  957MOL0     H29155   4.789   1.312   4.442 -0.4198 -1.4567  1.2619
  957MOL0     H29156   5.008   1.310   4.706  1.0204  2.4795  0.3504
  957MOL0     H29157   4.995   1.463   4.622  0.5611  0.2093  3.0857
  957MOL0     H29158   4.853   1.361   4.639 -0.6682 -0.5206 -1.6124
  957MOL0     H29159   5.252   1.386   4.861  0.7411  0.2647  1.0154
  957MOL0     H29160   5.458   1.420   5.008 -0.8726  0.3542  1.5227
  957MOL0     H29161   5.850   1.376   4.855  2.7500  1.3148  0.2497
  957MOL0     H29162   5.816   1.540   4.808  1.3278 -1.2672 -1.0917
  957MOL0     H29163   5.992   1.554   4.970  2.1676 -3.3484  2.6195
  957MOL0     H29164   5.844   1.625   5.031  3.5122  1.6356  3.5335
  957MOL0     H29165   5.880   1.332   5.078  0.4705 -0.0504 -2.2813
  957MOL0     H29166   5.787   1.460   5.169 -0.3078 -0.5775 -0.8860
  957MOL0     H29167   5.975   1.382   5.288 -1.0776 -0.5448 -0.2118
  957MOL0     H29168   6.080   1.407   5.150  0.8676 -0.6768  2.2210
  957MOL0     H29169   6.094   1.655   5.194  0.4949  0.7687 -0.0688
  957MOL0     H29170   6.105   1.568   5.349 -2.4288  1.2822  3.4466
  957MOL0     H29171   5.950   1.769   5.307  0.1699  0.1327  0.7060
  957MOL0     H29172   5.831   1.645   5.269 -1.6340  0.0585  1.1873
  957MOL0     H29173   5.990   1.630   5.536  0.0826  2.9532  0.3764
  957MOL0     H29174   5.884   1.501   5.470 -0.0575  0.0722  0.5406
  957MOL0     H29175   5.696   1.672   5.484  0.2985 -1.0477 -0.5681
  957MOL0     H29176   5.819   1.761   5.583  1.3466 -1.2944  1.2169
  957MOL0     H29177   5.703   1.416   4.669 -0.8099 -0.9258 -2.4305
  957MOL0     H29178   5.503   1.371   4.519  1.6050 -2.6710 -0.2586
  957MOL0     H29179   5.217   1.111   4.297  2.0512  2.1860  2.7943
  957MOL0     H29180   5.024   1.078   4.158  3.4104 -0.3430  0.8383
  957MOL0     H29181   5.082   0.659   5.778 -0.3280 -0.9830 -0.2084
  957MOL0     H29182   5.080   0.754   6.003 -1.0911  0.8525  0.1286
  957MOL0     H29183   4.954   1.025   6.396 -0.3456  0.8474 -0.1557
  957MOL0     H29184   5.010   1.144   6.597  0.3964 -1.0717 -0.3209
  957MOL0     H29185   5.438   1.277   6.637 -1.7335 -1.5046 -2.3994
  957MOL0     H29186   5.325   1.400   6.622  0.8978  0.2741 -0.5638
  957MOL0     H29187   5.444   1.447   6.822 -0.6182  0.4858 -0.5265
  957MOL0     H29188   5.429   1.274   6.879 -5.5460 -1.6401  2.4265
  957MOL0     H29189   5.185   1.303   6.896 -2.3990  0.6133  0.0123
  957MOL0     H29190   5.202   1.473   6.861  0.8830 -0.5762  0.5370
  957MOL0     H29191   5.346   1.339   7.108  1.2976  1.0772  0.3540
  957MOL0     H29192   5.191   1.409   7.111 -1.1865  2.5406 -2.3256
  957MOL0     H29193   5.510   1.715   7.119  0.2082 -0.6313 -0.4648
  957MOL0     H29194   5.434   1.134   6.496  1.1725 -0.3809 -4.4669
  957MOL0     H29195   5.376   1.028   6.294 -0.5681 -3.2046 -0.3626
  958MOL0     O29196   9.735   6.265   9.696  0.5581 -0.4184 -0.1283
  958MOL0     C29197   9.690   6.224   9.589 -0.4171 -0.1305 -0.0084
  958MOL0     O29198   9.707   6.098   9.539 -0.0120 -0.0522  0.4942
  958MOL0     C29199   9.744   5.974   9.590  0.0277  0.2550  0.1998
  958MOL0     C29200   9.751   5.873   9.500 -0.2146  0.5163 -0.3116
  958MOL0     C29201   9.799   5.754   9.552  0.2526  0.1643  0.2108
  958MOL0     C29202   9.817   5.734   9.690 -0.1827 -0.1828 -0.1061
  958MOL0     O29203   9.873   5.613   9.723 -0.1171 -0.0575  0.1431
  958MOL0     C29204   9.943   5.598   9.845 -0.5521 -0.1958 -0.0381
  958MOL0     C29205  10.071   5.695   9.872  1.1181  0.0037 -0.2097
  958MOL0     C29206  10.112   5.654  10.021  0.9475 -0.2177 -0.0321
  958MOL0     C29207  10.153   5.783  10.086 -0.0725 -0.6076 -0.6170
  958MOL0     C29208  10.027   5.871  10.127 -0.7171  0.4915 -0.3503
  958MOL0     C29209  10.039   5.984  10.230  0.2848 -0.3557 -0.4051
  958MOL0     C29210  10.151   6.095  10.188  0.6802 -0.4029  0.3152
  958MOL0     C29211  10.100   6.192  10.077 -0.3806  0.2848 -0.1508
  958MOL0     N29212   9.977   6.279  10.108  0.2458 -0.3165 -0.2357
  958MOL0     C29213   9.876   6.298  10.015  1.0462 -0.3215 -0.0584
  958MOL0     C29214   9.774   6.359  10.083  0.4095 -0.6482  0.4735
  958MOL0     C29215   9.664   6.431  10.015  0.4861 -0.8957 -0.0805
  958MOL0     C29216   9.536   6.438  10.103 -0.6152  0.6471 -0.1698
  958MOL0     C29217   9.428   6.513  10.044 -0.6254 -0.1418 -0.4936
  958MOL0     C29218   9.375   6.429   9.934 -0.7059  0.6361 -0.0350
  958MOL0     O29219   9.257   6.493   9.888 -0.7406 -0.8695  0.1660
  958MOL0     C29220   9.213   6.462   9.761  0.3251 -0.3201 -0.1909
  958MOL0     C29221   9.118   6.557   9.718 -0.1405  0.2675 -0.6613
  958MOL0     C29222   9.038   6.532   9.606 -1.2269  0.3416 -0.7376
  958MOL0     C29223   8.913   6.596   9.579  0.4439 -0.7343 -0.6909
  958MOL0     C29224   9.073   6.424   9.523 -0.4163  0.9312  0.2630
  958MOL0     C29225   9.017   6.403   9.387 -0.0926 -1.0403  0.8553
  958MOL0     O29226   9.031   6.280   9.347 -0.4533 -0.1061  0.0105
  958MOL0     C29227   8.994   6.221   9.227  0.3867 -0.2662 -1.1424
  958MOL0     C29228   9.065   6.111   9.186 -0.4310 -0.3678 -0.2078
  958MOL0     C29229   9.038   6.040   9.066 -0.0991 -0.2183 -0.3047
  958MOL0     C29230   8.926   6.089   8.981  0.0396 -0.2096  0.0690
  958MOL0     O29231   8.875   6.031   8.865 -1.1303  0.3646 -0.0031
  958MOL0     C29232   8.948   5.913   8.821  0.7574  0.0671  1.0472
  958MOL0     C29233   8.900   5.879   8.671 -0.1836  0.9509 -0.6962
  958MOL0     C29234   8.973   5.774   8.588 -0.6442 -0.3004  0.5977
  958MOL0     C29235   8.934   5.792   8.446  0.0552  0.0546  0.8566
  958MOL0     C29236   9.010   5.705   8.345 -0.4654  0.0136 -0.4639
  958MOL0     C29237   8.993   5.755   8.204  0.2471  0.4134 -0.2061
  958MOL0     C29238   9.063   5.658   8.111  0.4147 -0.4046  0.5088
  958MOL0     C29239   9.035   5.694   7.967  0.5637 -0.3721  0.0160
  958MOL0    Cl29240   9.093   5.853   7.922  0.2861 -0.1955  0.0431
  958MOL0     C29241   8.850   6.195   9.030 -0.3270 -0.2127  0.1529
  958MOL0     C29242   8.887   6.262   9.150 -0.7975  0.2820  0.5479
  958MOL0     O29243   8.964   6.494   9.321  0.3460 -0.4022  0.7481
  958MOL0     C29244   9.182   6.336   9.564 -0.1688  0.7478  0.4213
  958MOL0     C29245   9.244   6.352   9.677  0.9767  0.1477 -0.6958
  958MOL0     N29246   9.811   6.380  10.211  0.8400  0.3792 -0.2728
  958MOL0     N29247   9.930   6.331  10.223  0.4040  0.1929 -0.1687
  958MOL0     C29248   9.788   5.829   9.780  0.4160  0.1971  0.0508
  958MOL0     C29249   9.762   5.953   9.730 -0.5296  0.7007 -0.3110
  958MOL0     C29250   9.598   6.309   9.512 -1.3188  1.1177  0.1078
  958MOL0     C29251   9.543   6.268   9.387  0.9045 -0.1152 -0.2370
  958MOL0     C29252   9.444   6.346   9.322 -0.1704  0.5013 -0.4325
  958MOL0     C29253   9.408   6.472   9.376 -0.2810 -0.2106 -0.2513
  958MOL0     O29254   9.324   6.554   9.292 -0.1555  0.2351 -0.4705
  958MOL0     C29255   9.278   6.685   9.341  0.2796  0.4044  0.1238
  958MOL0     C29256   9.183   6.759   9.238 -0.1345  0.2072  0.0082
  958MOL0     C29257   9.110   6.883   9.308  0.7888 -0.3562  0.0600
  958MOL0     C29258   9.021   6.962   9.201  0.4077  0.4554 -0.5162
  958MOL0     C29259   8.981   7.088   9.270 -0.4433 -0.6347  0.1768
  958MOL0     C29260   8.954   7.193   9.320 -0.8290 -0.4147 -0.2405
  958MOL0     C29261   9.456   6.508   9.499  0.3679  0.3571  0.0167
  958MOL0     C29262   9.543   6.423   9.575  0.0365  0.2002  0.4424
  958MOL0     H29263   9.739   5.885   9.393 -2.4544  1.7155 -0.0057
  958MOL0     H29264   9.818   5.668   9.489  0.4372 -2.1103  3.1827
  958MOL0     H29265   9.869   5.624   9.922  1.3670 -0.7329  2.1066
  958MOL0     H29266   9.960   5.491   9.861  0.5909  0.1732  1.4726
  958MOL0     H29267  10.151   5.679   9.800  0.1837 -3.1449 -0.7027
  958MOL0     H29268  10.052   5.803   9.866  3.1941  0.3085 -3.5751
  958MOL0     H29269  10.044   5.599  10.087 -1.2178  1.1191 -1.0192
  958MOL0     H29270  10.208   5.601  10.018 -0.2998 -2.5885 -0.2638
  958MOL0     H29271  10.207   5.754  10.177 -1.9258  0.4342  0.8914
  958MOL0     H29272  10.217   5.840  10.018 -0.3993  0.3447 -0.1458
  958MOL0     H29273   9.989   5.922  10.037 -2.3720 -1.1372 -0.6179
  958MOL0     H29274   9.951   5.804  10.165  0.1772 -1.1567 -1.3556
  958MOL0     H29275   9.936   6.018  10.247  0.5243 -0.2265  0.8598
  958MOL0     H29276  10.065   5.932  10.322 -0.1277 -1.1446 -0.7238
  958MOL0     H29277  10.182   6.153  10.275  1.8816 -1.9151  0.9389
  958MOL0     H29278  10.244   6.049  10.156  1.1932 -0.6873  2.0976
  958MOL0     H29279  10.080   6.136   9.984  4.3888 -0.6128 -0.9122
  958MOL0     H29280  10.189   6.253  10.059  2.2497 -0.2370  7.4788
  958MOL0     H29281   9.884   6.285   9.907 -2.8958  3.4374 -1.1228
  958MOL0     H29282   9.704   6.527   9.983 -1.8924 -0.1238 -0.9671
  958MOL0     H29283   9.646   6.374   9.923 -0.9346  0.2575 -0.5659
  958MOL0     H29284   9.561   6.470  10.205 -2.8119 -1.4268  1.1240
  958MOL0     H29285   9.496   6.337  10.115  1.1969 -0.3260 -1.7672
  958MOL0     H29286   9.470   6.606  10.003  1.7307 -2.7275 -4.7050
  958MOL0     H29287   9.352   6.540  10.117 -0.6196 -2.9606  0.6825
  958MOL0     H29288   9.363   6.322   9.955  0.4639  0.2637 -1.1530
  958MOL0     H29289   9.448   6.437   9.853  1.3512 -4.1299  1.0056
  958MOL0     H29290   9.088   6.641   9.780  3.4706  1.1571  0.1071
  958MOL0     H29291   8.839   6.516   9.568  0.5592 -0.8624 -0.5328
  958MOL0     H29292   8.880   6.664   9.658  1.8574 -0.4572 -0.3161
  958MOL0     H29293   8.933   6.673   9.504 -2.2088  1.5627  0.7595
  958MOL0     H29294   9.150   6.095   9.251 -0.2525  0.1130 -0.3205
  958MOL0     H29295   9.104   5.956   9.050  0.4615  0.6107 -2.6671
  958MOL0     H29296   9.052   5.946   8.823  0.0452  2.4869  1.3255
  958MOL0     H29297   8.923   5.832   8.889 -2.8202  0.5493  0.4800
  958MOL0     H29298   8.799   5.842   8.691  1.8286 -3.7988  2.8219
  958MOL0     H29299   8.904   5.974   8.617 -0.3554  2.7692  2.2404
  958MOL0     H29300   8.957   5.670   8.617  0.2628 -0.5678  0.1447
  958MOL0     H29301   9.081   5.793   8.590 -0.8848  1.2377  2.4189
  958MOL0     H29302   8.829   5.762   8.432 -0.8314  3.0966  0.2634
  958MOL0     H29303   8.946   5.895   8.412 -0.5605 -0.1791 -0.1119
  958MOL0     H29304   8.973   5.603   8.356 -0.2475 -0.0139  0.1012
  958MOL0     H29305   9.116   5.702   8.373 -0.3291  0.3069 -0.9514
  958MOL0     H29306   8.888   5.776   8.182  0.5784  0.9177 -1.3530
  958MOL0     H29307   9.048   5.849   8.191  0.1352  0.1725 -2.9518
  958MOL0     H29308   9.008   5.567   8.135 -0.6717  0.0690 -0.1137
  958MOL0     H29309   9.170   5.655   8.134 -0.1857  1.9552  4.3712
  958MOL0     H29310   8.926   5.682   7.962  0.0138  3.2077  0.2405
  958MOL0     H29311   9.068   5.617   7.897 -1.0467  0.3716 -1.6546
  958MOL0     H29312   8.772   6.232   8.964 -1.6479 -2.2844  0.4553
  958MOL0     H29313   8.831   6.353   9.167 -2.2497 -0.3145 -0.7413
  958MOL0     H29314   9.216   6.250   9.506  1.9839  1.6273  0.2989
  958MOL0     H29315   9.323   6.282   9.703  0.2464 -1.0458 -1.6062
  958MOL0     H29316   9.776   5.809   9.886 -2.6341 -1.5534 -0.5082
  958MOL0     H29317   9.747   6.043   9.789  0.3099  0.2175  0.6669
  958MOL0     H29318   9.598   6.188   9.339  0.5374 -1.3190  1.2466
  958MOL0     H29319   9.413   6.313   9.224  2.1250 -2.4943 -0.2698
  958MOL0     H29320   9.219   6.662   9.430 -1.4308 -1.5017 -1.3991
  958MOL0     H29321   9.366   6.744   9.369  1.5197 -1.1867 -0.2469
  958MOL0     H29322   9.114   6.700   9.177 -0.6580  1.4979 -0.6791
  958MOL0     H29323   9.250   6.809   9.167  0.8502 -0.8364  0.1639
  958MOL0     H29324   9.187   6.953   9.340 -0.8323  0.9412  1.3622
  958MOL0     H29325   9.056   6.837   9.392 -1.1441 -3.0784 -2.4624
  958MOL0     H29326   8.938   6.893   9.182  2.4360 -1.4596 -3.5055
  958MOL0     H29327   9.086   6.980   9.115  2.2912  1.2409  0.9934
  958MOL0     H29328   8.934   7.279   9.380 -0.0870  0.1418 -0.7883
  958MOL0     H29329   9.418   6.597   9.547  2.8635  1.5791 -0.0818
  958MOL0     H29330   9.585   6.465   9.665 -2.2168 -0.2743  1.7991
  959MOL0     O29331   9.949   2.882   0.836  0.2140  0.9268 -0.8437
  959MOL0     C29332   9.992   2.773   0.786 -0.0655 -0.4113  1.1515
  959MOL0     O29333   9.921   2.672   0.721  0.9580  0.1340  0.6338
  959MOL0     C29334   9.785   2.699   0.708  0.8399 -1.0328  0.0721
  959MOL0     C29335   9.734   2.800   0.624  0.0600 -0.3051 -0.4955
  959MOL0     C29336   9.595   2.809   0.600  0.0014 -0.2242  0.5202
  959MOL0     C29337   9.502   2.734   0.668  0.8771  0.3500  0.0609
  959MOL0     O29338   9.367   2.740   0.636 -0.3217  0.1199  0.4416
  959MOL0     C29339   9.308   2.839   0.547  0.4259  0.1271 -0.9647
  959MOL0     C29340   9.160   2.847   0.580  0.2115  0.0226 -0.1932
  959MOL0     C29341   9.087   2.953   0.510  0.1708  0.1587  0.6554
  959MOL0     C29342   8.941   2.934   0.560  1.1803  0.1167  0.2377
  959MOL0     C29343   8.852   3.044   0.514 -0.0173  0.1193 -0.4408
  959MOL0     C29344   8.831   3.056   0.365 -0.6956 -0.3058 -0.8223
  959MOL0     C29345   8.734   3.173   0.330 -0.2662  0.1590 -0.3957
  959MOL0     C29346   8.720   3.191   0.176  1.1274  1.1264 -0.3019
  959MOL0     N29347   8.632   3.291   0.126  0.2191 -0.4980  0.2973
  959MOL0     C29348   8.490   3.293   0.111 -1.1158  0.2243 -0.2668
  959MOL0     C29349   8.463   3.428   0.082  0.4909 -0.1229 -0.3790
  959MOL0     C29350   8.331   3.478   0.043 -0.2490 -0.3175  0.4094
  959MOL0     C29351   8.265   3.548   0.166 -0.5215  1.0156 -0.7176
  959MOL0     C29352   8.131   3.609   0.128 -0.3763 -0.4391 -0.3821
  959MOL0     C29353   8.028   3.637   0.247  0.6768 -0.8727  0.2205
  959MOL0     O29354   8.097   3.709   0.351 -0.5847  0.3139  0.5342
  959MOL0     C29355   8.061   3.840   0.367 -0.2291  0.2969  0.0930
  959MOL0     C29356   8.168   3.938   0.374  0.8239  0.5337  0.4680
  959MOL0     C29357   8.148   4.072   0.383  0.3451  1.2898  0.5186
  959MOL0     C29358   8.273   4.155   0.398  0.6734 -0.7330  0.6520
  959MOL0     C29359   8.012   4.119   0.396  0.8454 -0.6134  0.1460
  959MOL0     C29360   7.973   4.266   0.422 -0.7527  0.7336  0.7785
  959MOL0     O29361   7.862   4.298   0.501 -0.5575  0.4494  0.2722
  959MOL0     C29362   7.834   4.424   0.510  0.2904  0.2108 -1.0926
  959MOL0     C29363   7.905   4.502   0.603 -0.5875  0.7163 -1.9737
  959MOL0     C29364   7.880   4.640   0.610 -0.9171  0.4917  0.6703
  959MOL0     C29365   7.774   4.699   0.531  1.1010 -0.1938  1.2631
  959MOL0     O29366   7.756   4.834   0.554  0.3298  1.0275 -0.3468
  959MOL0     C29367   7.632   4.874   0.501 -0.0921 -0.6369 -1.0135
  959MOL0     C29368   7.585   4.994   0.586  0.2514 -0.3176 -0.0950
  959MOL0     C29369   7.683   5.111   0.560 -0.1696 -0.4571 -0.2580
  959MOL0     C29370   7.658   5.234   0.627  0.4947  0.4476  0.8079
  959MOL0     C29371   7.763   5.346   0.611  0.9430 -0.7240 -0.1944
  959MOL0     C29372   7.738   5.479   0.690 -0.1681 -0.4994  0.4822
  959MOL0     C29373   7.595   5.536   0.669  0.3639  0.5848  0.8873
  959MOL0     C29374   7.582   5.676   0.721 -0.1993  0.3566  0.1632
  959MOL0    Cl29375   7.411   5.710   0.737 -0.0711 -0.1144  0.2845
  959MOL0     C29376   7.699   4.612   0.440 -0.1388  0.1786 -0.2215
  959MOL0     C29377   7.732   4.476   0.435  0.5935  0.0848  0.1280
  959MOL0     O29378   8.056   4.343   0.362  0.0297 -0.6047 -0.0301
  959MOL0     C29379   7.905   4.027   0.393 -1.0055 -0.4893 -0.3229
  959MOL0     C29380   7.929   3.885   0.385  0.8918 -0.8088 -0.0369
  959MOL0     N29381   8.585   3.493   0.078  0.1166  0.5637 -0.8234
  959MOL0     N29382   8.679   3.412   0.100 -0.5378 -0.7223 -0.6450
  959MOL0     C29383   9.552   2.637   0.752  0.0106  0.0437 -1.0293
  959MOL0     C29384   9.688   2.616   0.770 -0.2735 -1.1569 -0.7126
  959MOL0     C29385  10.133   2.749   0.796 -0.6378  0.0186 -0.2415
  959MOL0     C29386  10.203   2.801   0.909 -0.0774 -0.2171  0.8674
  959MOL0     C29387  10.343   2.786   0.920  0.0359 -0.1877 -0.1992
  959MOL0     C29388  10.418   2.709   0.834 -0.3323  0.2209 -0.0031
  959MOL0     O29389  10.546   2.694   0.863 -0.3805  0.3967 -0.2297
  959MOL0     C29390  10.598   2.562   0.890  0.6933 -0.4307 -0.0795
  959MOL0     C29391  10.663   2.497   0.772 -0.0255 -0.0749 -0.2118
  959MOL0     C29392  10.763   2.577   0.692  0.4878 -0.3072  0.3949
  959MOL0     C29393  10.830   2.493   0.583  0.1948  0.2820 -0.4257
  959MOL0     C29394  10.728   2.452   0.479  1.2310 -0.7510 -0.3688
  959MOL0     C29395  10.625   2.428   0.402 -0.2595  0.4328 -0.4173
  959MOL0     C29396  10.350   2.655   0.727  0.3368  0.8510 -0.1180
  959MOL0     C29397  10.210   2.679   0.698 -0.2523 -0.3566  0.0431
  959MOL0     H29398   9.794   2.880   0.582 -0.4611 -0.0508 -0.7694
  959MOL0     H29399   9.573   2.886   0.526 -0.4233  0.0713  0.9499
  959MOL0     H29400   9.352   2.939   0.555 -0.0564  0.2872 -0.2239
  959MOL0     H29401   9.310   2.816   0.440  2.3462  4.8081 -2.2055
  959MOL0     H29402   9.112   2.759   0.536  1.1665 -1.3933  1.4732
  959MOL0     H29403   9.152   2.840   0.689  0.4966  3.1320  0.1099
  959MOL0     H29404   9.133   3.049   0.539  2.1637 -0.9737  1.4500
  959MOL0     H29405   9.100   2.933   0.404 -0.7329  1.5909  0.2478
  959MOL0     H29406   8.908   2.834   0.528 -0.1082  0.6223 -0.0802
  959MOL0     H29407   8.931   2.921   0.668  1.9637 -3.4270  0.0214
  959MOL0     H29408   8.753   3.041   0.560  0.2262 -1.0428  0.0292
  959MOL0     H29409   8.888   3.142   0.547  1.7258 -1.2176  1.9452
  959MOL0     H29410   8.927   3.089   0.323  0.3936 -1.1371  0.8894
  959MOL0     H29411   8.809   2.967   0.307  1.0045  1.7536 -5.0300
  959MOL0     H29412   8.637   3.157   0.379 -0.2569  3.5215  1.0191
  959MOL0     H29413   8.776   3.261   0.380  2.2122 -0.1823 -1.7266
  959MOL0     H29414   8.706   3.097   0.121 -2.3133  1.4282 -0.1658
  959MOL0     H29415   8.822   3.223   0.153  2.0031  1.0910  3.0444
  959MOL0     H29416   8.425   3.207   0.116  0.4374 -1.1476 -2.2223
  959MOL0     H29417   8.347   3.545  -0.041 -1.5594  0.0538  0.4340
  959MOL0     H29418   8.264   3.396   0.013  0.3977  0.8493 -5.1498
  959MOL0     H29419   8.338   3.620   0.204  1.2660  0.1358 -2.3035
  959MOL0     H29420   8.246   3.472   0.242  2.0522  0.1688 -0.8373
  959MOL0     H29421   8.079   3.549   0.053  0.1699 -0.5105 -0.7071
  959MOL0     H29422   8.156   3.701   0.073  1.1097  0.1354  1.1869
  959MOL0     H29423   7.986   3.552   0.302  0.8826 -0.1285  1.5569
  959MOL0     H29424   7.944   3.693   0.206  0.6196  0.6854  2.3068
  959MOL0     H29425   8.268   3.898   0.360  0.5219 -0.0115 -0.1920
  959MOL0     H29426   8.262   4.226   0.481 -0.7220  0.4973 -0.5282
  959MOL0     H29427   8.363   4.094   0.410  1.9190  0.9635  0.3089
  959MOL0     H29428   8.283   4.217   0.309 -1.7122  1.7696  1.9821
  959MOL0     H29429   7.978   4.458   0.670  0.3529  0.4095 -3.1711
  959MOL0     H29430   7.936   4.705   0.677  1.7774 -1.3157  0.3129
  959MOL0     H29431   7.630   4.907   0.397 -5.2735  2.3010 -0.3663
  959MOL0     H29432   7.553   4.798   0.506  0.9548 -1.7637 -1.3544
  959MOL0     H29433   7.483   5.017   0.554  0.4398  0.7050  0.0016
  959MOL0     H29434   7.580   4.959   0.689  1.2348 -0.1278  0.0224
  959MOL0     H29435   7.678   5.135   0.453  0.2968  3.3804  0.4304
  959MOL0     H29436   7.783   5.073   0.586 -1.1032 -2.0299  1.2522
  959MOL0     H29437   7.580   5.284   0.569  2.5960 -0.4278 -3.1092
  959MOL0     H29438   7.626   5.225   0.732  2.0798  2.9063  1.5927
  959MOL0     H29439   7.767   5.370   0.504  0.1987  0.6391  0.0520
  959MOL0     H29440   7.867   5.313   0.618  1.0769 -1.1505 -2.9679
  959MOL0     H29441   7.762   5.455   0.794 -3.1751 -1.6733  1.0105
  959MOL0     H29442   7.818   5.549   0.663 -1.4531  1.3013  1.2031
  959MOL0     H29443   7.530   5.472   0.729  1.2579 -1.1233  0.1327
  959MOL0     H29444   7.567   5.529   0.564  2.1321 -1.5519  0.4870
  959MOL0     H29445   7.627   5.750   0.654 -1.9722 -1.1523 -2.9064
  959MOL0     H29446   7.631   5.672   0.819 -3.6014 -1.5714  1.9797
  959MOL0     H29447   7.615   4.632   0.375 -2.4217 -0.8748  2.2272
  959MOL0     H29448   7.677   4.401   0.380 -1.1726  0.8049  0.8614
  959MOL0     H29449   7.806   4.071   0.389  0.2842  2.5022 -2.3326
  959MOL0     H29450   7.842   3.821   0.387  1.8955 -2.2618 -0.9666
  959MOL0     H29451   9.482   2.579   0.810  2.0216  0.7984  2.4220
  959MOL0     H29452   9.721   2.530   0.828 -2.8067 -2.3253 -0.8718
  959MOL0     H29453  10.159   2.878   0.972  0.2812  2.1327 -1.5799
  959MOL0     H29454  10.391   2.824   1.009  0.2414 -0.1123 -0.3426
  959MOL0     H29455  10.684   2.562   0.958 -0.7022  0.6098  1.7662
  959MOL0     H29456  10.525   2.505   0.948  0.2379 -0.2324 -0.4559
  959MOL0     H29457  10.577   2.460   0.714  1.2491 -1.8330 -1.0898
  959MOL0     H29458  10.712   2.411   0.819  0.5274  0.0180 -0.6067
  959MOL0     H29459  10.845   2.618   0.752 -0.1430  3.2097 -0.9426
  959MOL0     H29460  10.712   2.656   0.637 -0.4761 -3.0012 -2.9538
  959MOL0     H29461  10.873   2.408   0.637  0.2713 -0.4197 -1.5707
  959MOL0     H29462  10.909   2.554   0.539 -1.3615  1.1031 -2.2052
  959MOL0     H29463  10.533   2.410   0.351 -1.6948  0.9441  1.8132
  959MOL0     H29464  10.418   2.606   0.658  0.6359  2.5541 -1.0837
  959MOL0     H29465  10.162   2.630   0.614 -0.8870  0.6358 -0.1900
  960MOL0     O29466   8.201   8.982   5.813  0.1954  0.3591 -0.3703
  960MOL0     C29467   8.103   8.930   5.874  0.8802  0.3549  0.8889
  960MOL0     O29468   8.092   8.797   5.918  0.3161 -0.5602  0.4982
  960MOL0     C29469   8.178   8.709   5.856 -0.7487 -0.8095  0.5368
  960MOL0     C29470   8.157   8.675   5.725 -0.5301 -0.0737 -0.1653
  960MOL0     C29471   8.240   8.584   5.660  0.2422  0.9784 -0.4264
  960MOL0     C29472   8.369   8.539   5.719 -0.5596 -0.2946 -0.2801
  960MOL0     O29473   8.461   8.454   5.660 -1.3051 -0.1396  0.0987
  960MOL0     C29474   8.468   8.443   5.513  0.2888  0.0583 -0.2263
  960MOL0     C29475   8.585   8.357   5.466 -0.2655 -0.8066  0.7549
  960MOL0     C29476   8.729   8.420   5.459 -0.1637 -0.2058  0.0429
  960MOL0     C29477   8.843   8.322   5.423  0.1150  0.0299 -0.0492
  960MOL0     C29478   8.976   8.385   5.394 -0.1241 -0.2876  0.1524
  960MOL0     C29479   9.082   8.283   5.361  0.0614  0.1721 -0.0935
  960MOL0     C29480   9.212   8.350   5.299  0.4744 -0.4476 -0.1261
  960MOL0     C29481   9.315   8.414   5.401  0.5192  0.1892  0.1547
  960MOL0     N29482   9.447   8.422   5.331 -0.3597  0.2928  0.1902
  960MOL0     C29483   9.565   8.386   5.391 -0.4342  0.2381 -0.1439
  960MOL0     C29484   9.663   8.444   5.322  0.0672 -0.6161  0.0615
  960MOL0     C29485   9.817   8.450   5.359  0.4499 -0.0734 -0.2493
  960MOL0     C29486   9.854   8.416   5.498  0.1053 -0.3243  0.0025
  960MOL0     C29487   9.835   8.273   5.528  0.2572  0.4368 -0.6407
  960MOL0     C29488   9.953   8.188   5.569 -0.2517  0.2580  0.4485
  960MOL0     O29489  10.003   8.224   5.701  0.4823 -0.4196  0.3172
  960MOL0     C29490  10.106   8.140   5.746 -0.1867  1.1581 -0.2394
  960MOL0     C29491  10.239   8.167   5.717  0.0608 -0.1826 -0.5762
  960MOL0     C29492  10.340   8.083   5.766 -0.1264  0.3346  0.4273
  960MOL0     C29493  10.486   8.130   5.738 -0.2007 -0.4346 -1.1719
  960MOL0     C29494  10.306   7.958   5.834  1.1061 -0.5186  0.1422
  960MOL0     C29495  10.403   7.863   5.894  0.1103 -0.3089  0.8031
  960MOL0     O29496  10.352   7.793   5.998  0.4195  0.0105  0.2599
  960MOL0     C29497  10.413   7.703   6.067  0.2620  0.0718 -0.1737
  960MOL0     C29498  10.333   7.643   6.162  1.2045  0.9131  0.7486
  960MOL0     C29499  10.373   7.538   6.242 -0.0597  0.6894 -0.4935
  960MOL0     C29500  10.495   7.472   6.205  0.1382  0.0426 -0.9518
  960MOL0     O29501  10.534   7.346   6.257  0.3368 -0.0776  0.7411
  960MOL0     C29502  10.432   7.254   6.266 -0.3620 -0.7358 -0.3728
  960MOL0     C29503  10.479   7.110   6.273  0.6701  0.7363  0.5845
  960MOL0     C29504  10.551   7.066   6.139 -0.2668 -0.2834  0.3783
  960MOL0     C29505  10.613   6.926   6.161  0.9730  0.3127 -0.2799
  960MOL0     C29506  10.503   6.817   6.169 -0.2788  0.0282 -0.7750
  960MOL0     C29507  10.571   6.681   6.138  0.7610  0.0053  0.8186
  960MOL0     C29508  10.659   6.631   6.252 -0.8600 -0.4970 -0.8722
  960MOL0     C29509  10.703   6.482   6.240  0.0651  0.3054  0.3285
  960MOL0    Cl29510  10.562   6.380   6.204  0.4188  0.6742 -0.0204
  960MOL0     C29511  10.580   7.533   6.117  0.3605 -0.1347  1.0181
  960MOL0     C29512  10.545   7.654   6.056  0.5337 -0.1087 -0.6402
  960MOL0     O29513  10.528   7.868   5.867  0.0082  0.2284 -0.0145
  960MOL0     C29514  10.166   7.939   5.858  0.8169  0.2424  0.5864
  960MOL0     C29515  10.073   8.032   5.826 -0.1449 -0.4587 -0.4268
  960MOL0     N29516   9.608   8.506   5.215  0.2322 -0.7245 -0.6088
  960MOL0     N29517   9.480   8.484   5.214  0.1094  1.0083  0.0554
  960MOL0     C29518   8.383   8.578   5.854  0.1708  0.4866  0.1431
  960MOL0     C29519   8.290   8.661   5.916  1.2938  0.1702  0.4156
  960MOL0     C29520   7.990   9.017   5.913  0.9040 -0.0127  1.0247
  960MOL0     C29521   7.999   9.157   5.921 -0.2133 -0.8043 -0.4458
  960MOL0     C29522   7.899   9.236   5.980  0.7960 -0.2485  0.9012
  960MOL0     C29523   7.775   9.172   6.024  0.0114  1.3588 -0.4699
  960MOL0     O29524   7.681   9.252   6.083 -0.6421  0.2252 -0.2042
  960MOL0     C29525   7.559   9.191   6.126  0.1295 -0.0093  0.2136
  960MOL0     C29526   7.471   9.307   6.200 -0.2670 -0.1193 -0.0700
  960MOL0     C29527   7.526   9.371   6.320 -0.4291 -0.5114 -0.6587
  960MOL0     C29528   7.599   9.281   6.429  0.4630 -0.9844 -0.4022
  960MOL0     C29529   7.519   9.178   6.497  0.0404 -0.7695  0.0007
  960MOL0     C29530   7.439   9.114   6.569 -0.0861 -1.3866 -0.0893
  960MOL0     C29531   7.774   9.029   6.005  0.6452  0.3645  0.0442
  960MOL0     C29532   7.869   8.951   5.945  0.8731  0.1582  0.1534
  960MOL0     H29533   8.076   8.705   5.658 -2.2293 -1.9807  0.9246
  960MOL0     H29534   8.212   8.552   5.560 -0.2873  0.2202 -0.0504
  960MOL0     H29535   8.374   8.396   5.480  1.0872 -3.0017  1.5055
  960MOL0     H29536   8.465   8.543   5.469  1.1960 -0.8499 -2.5301
  960MOL0     H29537   8.598   8.261   5.518  0.5711 -0.7039  0.7545
  960MOL0     H29538   8.559   8.331   5.363 -2.9564  3.7780  0.0395
  960MOL0     H29539   8.733   8.489   5.374  0.3064 -1.7733 -1.2673
  960MOL0     H29540   8.755   8.470   5.552 -0.5861  0.6580 -0.2895
  960MOL0     H29541   8.853   8.251   5.506 -0.3430  2.4357  2.1813
  960MOL0     H29542   8.823   8.257   5.338 -1.4516  1.9360 -1.2071
  960MOL0     H29543   8.968   8.448   5.305  0.0202 -0.9133 -0.3099
  960MOL0     H29544   8.999   8.453   5.478 -0.4950  3.5575 -2.5867
  960MOL0     H29545   9.108   8.218   5.445 -0.3604 -0.8370 -0.7183
  960MOL0     H29546   9.040   8.229   5.276 -0.0388  0.4855 -0.2467
  960MOL0     H29547   9.252   8.263   5.246 -0.3720 -1.0562  0.2000
  960MOL0     H29548   9.184   8.431   5.231 -2.9764  0.5603  2.2189
  960MOL0     H29549   9.320   8.348   5.488 -2.8733 -0.7332 -0.2048
  960MOL0     H29550   9.262   8.508   5.423 -2.6885 -0.7395 -2.6290
  960MOL0     H29551   9.583   8.327   5.481  0.6029 -0.6489 -0.9097
  960MOL0     H29552   9.873   8.384   5.292  2.3583  0.3225  0.8647
  960MOL0     H29553   9.841   8.553   5.329  1.6538 -0.7349 -1.6980
  960MOL0     H29554   9.790   8.468   5.569  0.2078  1.3085 -1.0427
  960MOL0     H29555   9.954   8.450   5.527 -0.6307  0.8990  1.1834
  960MOL0     H29556   9.783   8.227   5.443 -2.1581 -1.7572  1.8156
  960MOL0     H29557   9.765   8.245   5.606  1.5211 -1.6879 -0.1827
  960MOL0     H29558  10.034   8.218   5.501  2.5408 -1.1715  2.9520
  960MOL0     H29559   9.947   8.080   5.581  3.0669  0.0188  0.8210
  960MOL0     H29560  10.257   8.247   5.646 -2.6938  0.2981 -0.8318
  960MOL0     H29561  10.470   8.216   5.673 -2.2709  0.1242 -0.0080
  960MOL0     H29562  10.525   8.164   5.834 -1.2282  2.5966 -1.7302
  960MOL0     H29563  10.563   8.062   5.700  0.1431 -1.1623  0.7197
  960MOL0     H29564  10.236   7.688   6.177  0.9712  0.5855  0.2570
  960MOL0     H29565  10.316   7.504   6.327  1.4337 -2.1339 -0.5155
  960MOL0     H29566  10.368   7.273   6.352 -1.0033  0.8732 -1.1687
  960MOL0     H29567  10.360   7.267   6.184 -1.8619  0.0061  1.0159
  960MOL0     H29568  10.553   7.093   6.351  3.0430 -0.4488 -1.7330
  960MOL0     H29569  10.391   7.050   6.297  2.6161 -2.1989  1.0392
  960MOL0     H29570  10.617   7.151   6.119 -4.4637  3.8938  2.3307
  960MOL0     H29571  10.488   7.065   6.049  2.1363 -0.0775 -1.3999
  960MOL0     H29572  10.685   6.910   6.080  2.4293  1.4447  0.7474
  960MOL0     H29573  10.666   6.930   6.257 -0.5332  1.5679  0.5336
  960MOL0     H29574  10.438   6.833   6.082  0.2186 -2.6267 -1.7242
  960MOL0     H29575  10.453   6.809   6.266 -2.7048  1.3025 -1.8362
  960MOL0     H29576  10.495   6.607   6.114  2.6668 -1.4683 -0.9696
  960MOL0     H29577  10.621   6.694   6.042 -0.0815 -3.5599 -0.2497
  960MOL0     H29578  10.593   6.641   6.338  0.5792  3.3116 -0.0059
  960MOL0     H29579  10.738   6.703   6.272 -2.1963  0.7074  0.2211
  960MOL0     H29580  10.727   6.441   6.339 -3.3146 -2.8176  0.0761
  960MOL0     H29581  10.779   6.466   6.163 -0.1181  0.0620  0.1993
  960MOL0     H29582  10.669   7.482   6.081  0.1366 -0.4635  0.9270
  960MOL0     H29583  10.618   7.691   5.985  2.1590 -2.4585 -0.3180
  960MOL0     H29584  10.121   7.852   5.906 -0.9777  0.6244 -0.2850
  960MOL0     H29585   9.967   8.019   5.847 -0.3564  2.9092  1.2832
  960MOL0     H29586   8.463   8.534   5.913 -1.9083 -0.6234  2.3045
  960MOL0     H29587   8.316   8.693   6.016 -1.9062  0.7830  1.1386
  960MOL0     H29588   8.093   9.194   5.882  0.3976 -1.0968  0.6740
  960MOL0     H29589   7.900   9.344   5.992  0.4678  0.0456 -1.3294
  960MOL0     H29590   7.493   9.163   6.044  0.8819 -2.3679  0.3534
  960MOL0     H29591   7.579   9.103   6.188  0.2416 -0.1484 -0.0197
  960MOL0     H29592   7.370   9.267   6.216 -0.9166 -0.4277 -3.9532
  960MOL0     H29593   7.457   9.389   6.130  1.7170 -0.3833 -0.8554
  960MOL0     H29594   7.453   9.436   6.369 -0.6081 -1.3544  0.2323
  960MOL0     H29595   7.601   9.449   6.300 -1.6543  1.5330  2.0732
  960MOL0     H29596   7.640   9.348   6.505  1.2952 -1.4255 -0.4559
  960MOL0     H29597   7.693   9.242   6.388  1.2276  0.4588 -0.0678
  960MOL0     H29598   7.381   9.050   6.633 -1.0171 -0.5365 -0.0532
  960MOL0     H29599   7.683   8.975   6.027 -1.1790  2.3179 -2.1030
  960MOL0     H29600   7.849   8.844   5.951 -0.2883  0.3153 -0.6311
  961MOL0     O29601   6.906   1.488   3.714 -0.4205 -0.5393 -0.3989
  961MOL0     C29602   6.786   1.490   3.684  0.1534 -0.3926 -0.1842
  961MOL0     O29603   6.707   1.387   3.672  0.7287  1.1938 -0.4190
  961MOL0     C29604   6.769   1.264   3.637  0.4162  0.2223  0.0778
  961MOL0     C29605   6.796   1.163   3.727 -0.5559  0.7720  0.3113
  961MOL0     C29606   6.852   1.045   3.681 -0.4077 -0.4763  0.4032
  961MOL0     C29607   6.878   1.027   3.542 -0.6758  0.3603 -0.7272
  961MOL0     O29608   6.930   0.912   3.477  0.4876 -0.5241 -0.0344
  961MOL0     C29609   6.958   0.794   3.554 -0.9019 -0.0033 -1.3483
  961MOL0     C29610   6.967   0.675   3.456 -0.4194 -0.7005  0.6743
  961MOL0     C29611   7.034   0.548   3.508  1.2448 -0.7631  0.7154
  961MOL0     C29612   7.020   0.525   3.658  0.8108 -0.1854  0.4132
  961MOL0     C29613   6.872   0.466   3.678  0.2938 -0.0349 -0.4697
  961MOL0     C29614   6.875   0.315   3.644 -0.1459  0.0948  0.3698
  961MOL0     C29615   6.727   0.257   3.642  1.2621  0.0857  0.1748
  961MOL0     C29616   6.710   0.118   3.586 -0.8711  1.1694 -0.1863
  961MOL0     N29617   6.799   0.016   3.645 -0.2053  0.5677  0.2700
  961MOL0     C29618   6.846   0.001   3.770 -0.9097 -0.0174 -0.0114
  961MOL0     C29619   6.964  -0.071   3.760  0.1345 -0.0043 -0.4974
  961MOL0     C29620   7.070  -0.073   3.864 -0.9224 -0.4429 -0.1912
  961MOL0     C29621   7.066  -0.187   3.960 -0.2450  0.4632 -0.2629
  961MOL0     C29622   6.931  -0.229   4.020 -0.5537 -0.8886  1.4112
  961MOL0     C29623   6.863  -0.128   4.105  0.6222  0.3623 -0.0108
  961MOL0     O29624   6.953  -0.080   4.214 -0.2989  0.1617  0.6270
  961MOL0     C29625   6.936   0.042   4.262  0.8864 -0.5729  0.7495
  961MOL0     C29626   6.813   0.077   4.319  0.6408 -0.5532 -0.5752
  961MOL0     C29627   6.787   0.206   4.376  0.5876 -0.6161  0.4926
  961MOL0     C29628   6.639   0.238   4.399 -0.3439  0.0923  1.3872
  961MOL0     C29629   6.897   0.292   4.393  0.1041 -0.2118 -0.1731
  961MOL0     C29630   6.889   0.417   4.473 -0.3458 -0.9860  0.0589
  961MOL0     O29631   6.975   0.524   4.430  0.6431  0.3909 -0.7453
  961MOL0     C29632   6.951   0.649   4.485  0.1970  0.5746 -0.8763
  961MOL0     C29633   7.035   0.694   4.579  0.3494 -0.3552  0.1607
  961MOL0     C29634   7.020   0.828   4.628 -0.5096 -0.4885 -0.0505
  961MOL0     C29635   6.914   0.909   4.584 -0.1902  1.8697 -0.4221
  961MOL0     O29636   6.878   1.029   4.639 -0.5947 -0.5091  0.0297
  961MOL0     C29637   6.969   1.105   4.716  0.1141 -0.4066 -0.2324
  961MOL0     C29638   7.068   1.191   4.637 -0.2211 -0.0205  0.3337
  961MOL0     C29639   7.177   1.258   4.724  0.5751 -0.0989  0.1549
  961MOL0     C29640   7.315   1.186   4.718  0.5666  0.1941 -0.1494
  961MOL0     C29641   7.423   1.287   4.755  1.2106 -0.2698  0.2487
  961MOL0     C29642   7.550   1.200   4.741 -0.3327 -0.7422 -0.1217
  961MOL0     C29643   7.654   1.288   4.804 -0.2053  0.5954  0.1041
  961MOL0     C29644   7.789   1.219   4.811 -0.7011  0.2400  0.8191
  961MOL0    Cl29645   7.807   1.116   4.952 -0.1480  0.1785 -0.5947
  961MOL0     C29646   6.825   0.849   4.496 -0.9579  0.3414 -0.0357
  961MOL0     C29647   6.835   0.716   4.445 -1.0345  0.2849  0.2220
  961MOL0     O29648   6.802   0.430   4.561  0.6559  0.5001 -0.8430
  961MOL0     C29649   7.023   0.264   4.328  0.1717  0.3256 -1.0513
  961MOL0     C29650   7.035   0.141   4.264 -0.0704  0.0141  0.4399
  961MOL0     N29651   6.973  -0.106   3.627  0.6379 -0.4945 -0.6330
  961MOL0     N29652   6.871  -0.064   3.564 -0.5444  0.5087 -0.7889
  961MOL0     C29653   6.848   1.133   3.452 -0.1694  0.5062 -0.1281
  961MOL0     C29654   6.801   1.247   3.498  0.3129 -0.3484 -0.2267
  961MOL0     C29655   6.715   1.619   3.672 -0.1319  0.2509 -0.1814
  961MOL0     C29656   6.578   1.618   3.643 -0.2322  0.2259  0.5199
  961MOL0     C29657   6.502   1.746   3.635 -1.1604  1.6684 -0.9993
  961MOL0     C29658   6.576   1.859   3.663 -0.0539  1.1447  1.2102
  961MOL0     O29659   6.504   1.973   3.623 -1.5030  0.0172 -0.6816
  961MOL0     C29660   6.524   2.095   3.711 -0.1602 -0.0601  0.2395
  961MOL0     C29661   6.408   2.101   3.817  1.0108  0.4288 -0.3841
  961MOL0     C29662   6.386   2.226   3.885  0.4642 -0.2041 -0.2828
  961MOL0     C29663   6.309   2.311   3.804  0.6035  0.2539 -0.0372
  961MOL0     C29664   6.269   2.446   3.851 -0.7184  0.3460  0.8187
  961MOL0     C29665   6.234   2.557   3.878 -0.6354  0.3059  0.5728
  961MOL0     C29666   6.715   1.859   3.693  0.0850 -0.5531 -0.7829
  961MOL0     C29667   6.782   1.737   3.697 -0.3195  0.4640  0.6384
  961MOL0     H29668   6.784   1.193   3.830 -4.2790  2.5401 -0.4709
  961MOL0     H29669   6.877   0.976   3.761 -1.9624  1.1878  2.4516
  961MOL0     H29670   7.052   0.798   3.609 -1.8458 -0.6612  0.4024
  961MOL0     H29671   6.871   0.762   3.613  0.0728 -2.8625 -1.3197
  961MOL0     H29672   6.863   0.661   3.428 -0.8735  3.7705 -0.5626
  961MOL0     H29673   7.024   0.718   3.372  2.2046  0.0375  2.6897
  961MOL0     H29674   6.986   0.465   3.456 -0.3676 -0.0026  0.9099
  961MOL0     H29675   7.142   0.549   3.488  1.3265  0.8125  1.1130
  961MOL0     H29676   7.080   0.444   3.701 -0.8419 -1.2155  0.8816
  961MOL0     H29677   7.034   0.616   3.716  0.7195 -0.6319  1.1450
  961MOL0     H29678   6.835   0.472   3.781  0.1474 -1.7836 -0.3838
  961MOL0     H29679   6.796   0.519   3.620 -0.9398  0.8629  1.8206
  961MOL0     H29680   6.900   0.300   3.539 -2.5011  0.9491 -0.3786
  961MOL0     H29681   6.945   0.265   3.711  1.6155  2.7174  0.5892
  961MOL0     H29682   6.683   0.263   3.742  0.8401 -0.9533  0.0751
  961MOL0     H29683   6.673   0.322   3.572  0.0855 -1.9346 -0.9147
  961MOL0     H29684   6.720   0.114   3.478  1.0145 -0.7036 -0.0254
  961MOL0     H29685   6.610   0.082   3.611  0.0856  0.2098  2.8199
  961MOL0     H29686   6.801   0.039   3.861  0.8458 -2.4283  2.0122
  961MOL0     H29687   7.168  -0.049   3.821 -1.4994  2.4929 -0.0692
  961MOL0     H29688   7.056   0.018   3.923  1.2715  1.6207 -2.6445
  961MOL0     H29689   7.126  -0.179   4.051  0.1297  1.4685 -0.5866
  961MOL0     H29690   7.094  -0.274   3.900  0.0942  1.0310 -0.9354
  961MOL0     H29691   6.955  -0.314   4.085  0.1812  0.0778  2.4478
  961MOL0     H29692   6.875  -0.255   3.930  1.9850 -0.7753 -0.3007
  961MOL0     H29693   6.776  -0.183   4.142 -1.0053  2.1169 -1.0401
  961MOL0     H29694   6.821  -0.045   4.048  0.0641  0.3741  0.4128
  961MOL0     H29695   6.721   0.019   4.312 -1.2856  2.3349 -0.9372
  961MOL0     H29696   6.612   0.233   4.505 -0.9054  1.0268  1.3035
  961MOL0     H29697   6.632   0.344   4.374  0.0914  0.2807  2.0278
  961MOL0     H29698   6.563   0.182   4.344  0.6128 -0.9759  1.1190
  961MOL0     H29699   7.121   0.643   4.622  0.9444 -0.1203 -0.7191
  961MOL0     H29700   7.091   0.869   4.698  1.0256  0.5841 -2.1093
  961MOL0     H29701   6.914   1.178   4.776 -1.0520 -2.1095  0.8354
  961MOL0     H29702   7.039   1.046   4.775 -0.0713 -0.2671  0.1308
  961MOL0     H29703   7.120   1.128   4.564  0.2345  0.8562 -0.1227
  961MOL0     H29704   7.026   1.267   4.570  0.9021 -0.0190 -0.4001
  961MOL0     H29705   7.137   1.271   4.825 -1.8436  0.1403 -0.7568
  961MOL0     H29706   7.187   1.357   4.677 -4.2190  1.9655  2.7340
  961MOL0     H29707   7.320   1.109   4.796  0.3435  1.1793  0.8682
  961MOL0     H29708   7.321   1.141   4.619 -0.1664 -0.3463  0.0456
  961MOL0     H29709   7.399   1.309   4.859 -2.5470 -1.2202 -0.2569
  961MOL0     H29710   7.422   1.375   4.689 -0.3293  0.0787  0.6878
  961MOL0     H29711   7.537   1.112   4.804 -1.5989 -0.3910  0.1436
  961MOL0     H29712   7.567   1.171   4.637 -0.3707  2.1687 -1.0174
  961MOL0     H29713   7.623   1.311   4.906 -0.4454  0.6671  0.0180
  961MOL0     H29714   7.668   1.383   4.752  2.5243 -0.5785 -1.5459
  961MOL0     H29715   7.855   1.304   4.831 -0.0305  0.0248 -0.3687
  961MOL0     H29716   7.822   1.169   4.719 -1.4759 -2.2909  1.8198
  961MOL0     H29717   6.744   0.909   4.455  0.0090  2.0255  0.3962
  961MOL0     H29718   6.775   0.668   4.369  1.3763 -1.7944 -0.4912
  961MOL0     H29719   7.112   0.326   4.336  1.8275 -2.0140 -0.2223
  961MOL0     H29720   7.130   0.108   4.221 -0.6147 -1.1238  0.0787
  961MOL0     H29721   6.848   1.133   3.343 -0.8394 -0.6584 -0.1473
  961MOL0     H29722   6.777   1.324   3.425  0.4957 -0.4833 -0.4322
  961MOL0     H29723   6.521   1.534   3.606  0.8431  0.2859 -1.3984
  961MOL0     H29724   6.399   1.753   3.604 -1.4830  2.2887  0.1691
  961MOL0     H29725   6.619   2.102   3.765 -2.4539  0.0559  4.6493
  961MOL0     H29726   6.527   2.185   3.649 -0.2721  0.1094  0.4811
  961MOL0     H29727   6.439   2.020   3.885  1.4871  1.9722  1.3439
  961MOL0     H29728   6.312   2.061   3.785  1.9765 -2.5844  0.0912
  961MOL0     H29729   6.487   2.261   3.910  1.3656 -2.8467  0.0605
  961MOL0     H29730   6.332   2.203   3.978 -1.7420 -1.1052 -1.7134
  961MOL0     H29731   6.222   2.249   3.781  0.7768  0.3647 -1.0487
  961MOL0     H29732   6.353   2.331   3.706 -2.3144  0.9482 -1.3028
  961MOL0     H29733   6.224   2.659   3.906  3.0180  1.3365 -1.1275
  961MOL0     H29734   6.774   1.949   3.703  0.0205 -0.5174 -0.7275
  961MOL0     H29735   6.887   1.728   3.722 -0.4920 -4.1122  0.5582
  962MOL0     O29736   4.583   3.208   6.731  0.5978 -0.4109 -0.4045
  962MOL0     C29737   4.518   3.279   6.806  0.5154 -0.0038  0.1938
  962MOL0     O29738   4.429   3.373   6.767  0.5319  0.7509 -1.1941
  962MOL0     C29739   4.388   3.402   6.639  0.1671 -0.4569 -0.4488
  962MOL0     C29740   4.483   3.395   6.537  0.0160  0.3613  0.0465
  962MOL0     C29741   4.451   3.428   6.404  0.2720 -0.0383  0.1915
  962MOL0     C29742   4.316   3.463   6.371  0.4250 -0.9917  0.2227
  962MOL0     O29743   4.266   3.503   6.239  0.2696 -0.3649  0.4882
  962MOL0     C29744   4.264   3.383   6.150  0.6812 -0.3507 -0.6781
  962MOL0     C29745   4.131   3.378   6.065  1.4223  0.2217 -0.0759
  962MOL0     C29746   4.102   3.512   5.995 -0.1053 -0.0686 -0.9544
  962MOL0     C29747   4.118   3.521   5.843 -0.1169 -0.0898  0.4663
  962MOL0     C29748   4.142   3.667   5.795  0.0244  0.6629 -0.6889
  962MOL0     C29749   4.022   3.751   5.842  0.0982 -1.0204  0.2649
  962MOL0     C29750   4.005   3.879   5.766 -0.4420 -0.4470  0.0939
  962MOL0     C29751   3.891   3.950   5.837  0.2221  0.7566 -0.6186
  962MOL0     N29752   3.766   3.885   5.791 -0.3048  0.1025 -0.2361
  962MOL0     C29753   3.696   3.948   5.700  0.5112 -0.0208  0.3964
  962MOL0     C29754   3.568   3.899   5.713 -0.5741  0.2669  0.3288
  962MOL0     C29755   3.456   3.921   5.622  0.4215  0.0302 -0.1342
  962MOL0     C29756   3.400   4.065   5.597  0.4982  0.4444  0.0955
  962MOL0     C29757   3.311   4.117   5.714  0.1268 -0.3409 -1.3486
  962MOL0     C29758   3.397   4.143   5.847 -0.1103  0.2552  0.0208
  962MOL0     O29759   3.511   4.216   5.814  0.0296  0.7172  0.7666
  962MOL0     C29760   3.533   4.340   5.867  0.6845  0.1113 -0.5538
  962MOL0     C29761   3.668   4.384   5.866  0.2174  0.3879  0.6075
  962MOL0     C29762   3.711   4.510   5.912  0.1751 -1.0036 -0.5760
  962MOL0     C29763   3.869   4.536   5.891  0.8590 -0.0738  0.3028
  962MOL0     C29764   3.615   4.599   5.965 -0.9851  0.8948  0.5511
  962MOL0     C29765   3.644   4.740   5.994 -0.6901 -0.5428  0.2242
  962MOL0     O29766   3.576   4.826   5.922 -0.6851  0.6283 -0.9238
  962MOL0     C29767   3.617   4.954   5.897  0.2384  0.6858  0.3079
  962MOL0     C29768   3.750   4.992   5.864  0.2316 -0.8298 -0.1276
  962MOL0     C29769   3.784   5.131   5.831 -0.7004  1.1166  0.3283
  962MOL0     C29770   3.683   5.229   5.848  0.0881  0.7767  0.2317
  962MOL0     O29771   3.702   5.360   5.822  0.2049 -0.1151 -0.3119
  962MOL0     C29772   3.832   5.415   5.823 -0.6614 -0.7476  0.2773
  962MOL0     C29773   3.817   5.547   5.743 -1.1214 -0.6862 -0.3660
  962MOL0     C29774   3.955   5.627   5.729 -0.0237  1.4350  0.4791
  962MOL0     C29775   3.925   5.767   5.675 -0.1074  0.4946 -0.3527
  962MOL0     C29776   4.068   5.834   5.668  0.7103 -0.2639  0.3330
  962MOL0     C29777   4.052   5.984   5.610 -1.0535  0.6029 -0.3546
  962MOL0     C29778   4.124   5.984   5.473 -0.1647 -0.4248  0.2979
  962MOL0     C29779   4.137   6.121   5.416  0.3403 -0.5410 -0.2315
  962MOL0    Cl29780   3.998   6.219   5.398 -0.5038 -0.1614 -0.2087
  962MOL0     C29781   3.552   5.181   5.878 -1.5436 -0.6724  0.1597
  962MOL0     C29782   3.520   5.049   5.896  0.4521  0.1205  0.4477
  962MOL0     O29783   3.747   4.769   6.057 -0.0612 -0.7015 -0.9065
  962MOL0     C29784   3.473   4.554   5.962 -0.4752 -0.6304  0.5837
  962MOL0     C29785   3.434   4.432   5.915 -0.0991  0.2836 -0.4355
  962MOL0     N29786   3.580   3.799   5.806  0.4253 -0.0964  0.0360
  962MOL0     N29787   3.699   3.787   5.855  0.0911 -0.3118  0.8111
  962MOL0     C29788   4.218   3.462   6.484  0.4495 -0.0888  1.0521
  962MOL0     C29789   4.252   3.422   6.613 -0.0701 -1.5529  0.3535
  962MOL0     C29790   4.531   3.255   6.953  0.0701 -0.4146 -0.2718
  962MOL0     C29791   4.478   3.347   7.045 -0.6229  0.0879 -0.6500
  962MOL0     C29792   4.482   3.318   7.182 -0.5519  0.1340  0.1638
  962MOL0     C29793   4.535   3.203   7.237  0.7126  0.0991 -0.3057
  962MOL0     O29794   4.533   3.189   7.376 -0.6891  1.4210  0.1168
  962MOL0     C29795   4.633   3.100   7.440 -0.3482 -0.5905  0.3880
  962MOL0     C29796   4.694   3.190   7.553  0.1260  0.8171  0.4044
  962MOL0     C29797   4.786   3.309   7.494  0.5816  0.7796 -0.1052
  962MOL0     C29798   4.848   3.411   7.586 -0.4622 -0.7853  0.1085
  962MOL0     C29799   4.935   3.347   7.677  0.1283 -0.2735 -0.3953
  962MOL0     C29800   4.993   3.318   7.774  0.0366  0.1282 -0.4292
  962MOL0     C29801   4.592   3.118   7.138 -0.6843  0.2678 -0.3271
  962MOL0     C29802   4.589   3.139   7.009 -0.0875  0.0328 -0.0465
  962MOL0     H29803   4.585   3.362   6.552 -0.6313 -0.6750  2.6994
  962MOL0     H29804   4.524   3.423   6.323  0.8243 -1.0178  0.7253
  962MOL0     H29805   4.349   3.373   6.082  1.0854 -2.3007  0.0434
  962MOL0     H29806   4.281   3.298   6.217 -0.7721 -0.4823 -0.4544
  962MOL0     H29807   4.141   3.309   5.980 -1.6782  3.7277 -3.7675
  962MOL0     H29808   4.038   3.359   6.120  1.5790 -0.4219 -0.0260
  962MOL0     H29809   3.999   3.539   6.019  0.2549  0.6862 -0.2104
  962MOL0     H29810   4.167   3.590   6.037 -1.8786  0.4175  1.0245
  962MOL0     H29811   4.198   3.456   5.806  1.8831  3.2168 -1.5744
  962MOL0     H29812   4.025   3.488   5.796 -1.6400  2.6880  1.2718
  962MOL0     H29813   4.238   3.707   5.827  0.2181  0.7682 -1.3723
  962MOL0     H29814   4.142   3.663   5.685  1.3042 -1.1025 -0.6665
  962MOL0     H29815   3.926   3.701   5.830 -1.1102  1.6080 -2.3827
  962MOL0     H29816   4.025   3.770   5.949 -0.4810 -1.8952  0.4450
  962MOL0     H29817   4.093   3.942   5.785  0.0821 -1.3335  0.7012
  962MOL0     H29818   3.985   3.860   5.660  1.8905  1.5996 -0.8132
  962MOL0     H29819   3.893   4.058   5.817  1.5110  0.1174 -4.7797
  962MOL0     H29820   3.886   3.953   5.947  0.6026  0.7228 -0.6011
  962MOL0     H29821   3.725   4.023   5.627 -0.0832 -0.3991 -0.2347
  962MOL0     H29822   3.487   3.892   5.521  0.2900  3.1092 -1.1526
  962MOL0     H29823   3.372   3.860   5.657  0.2665  2.4355  4.5841
  962MOL0     H29824   3.346   4.056   5.502  1.1438 -4.4192 -0.0501
  962MOL0     H29825   3.491   4.121   5.575  2.0434 -1.3372  1.5540
  962MOL0     H29826   3.231   4.047   5.737 -1.3907  2.2520  2.2950
  962MOL0     H29827   3.263   4.214   5.694 -0.9003  0.6036  4.0826
  962MOL0     H29828   3.423   4.046   5.890 -1.6287  0.6840  2.0506
  962MOL0     H29829   3.353   4.193   5.934  0.8757  0.3852  0.4619
  962MOL0     H29830   3.744   4.332   5.808 -3.2142 -0.7017 -3.3543
  962MOL0     H29831   3.893   4.596   5.802  1.5296 -0.2394  0.3685
  962MOL0     H29832   3.903   4.579   5.986  0.0711  0.2770  0.4326
  962MOL0     H29833   3.912   4.436   5.881 -0.7241 -0.8741  1.0779
  962MOL0     H29834   3.828   4.916   5.863 -0.8868 -2.0284 -2.1995
  962MOL0     H29835   3.887   5.149   5.801 -0.2808  1.8072  2.0894
  962MOL0     H29836   3.862   5.438   5.926 -0.2163  0.9870 -0.1995
  962MOL0     H29837   3.897   5.356   5.758 -1.4504  0.5693 -1.8479
  962MOL0     H29838   3.777   5.524   5.644 -3.2885 -0.7451  0.4807
  962MOL0     H29839   3.747   5.614   5.793  0.4705  0.6271  0.2206
  962MOL0     H29840   4.008   5.567   5.655 -1.1068  1.8972 -0.7142
  962MOL0     H29841   4.019   5.631   5.817  0.9286 -1.4476  0.0086
  962MOL0     H29842   3.886   5.765   5.573  2.8462 -0.2166 -1.5681
  962MOL0     H29843   3.862   5.833   5.735  0.1388  0.2485  0.1854
  962MOL0     H29844   4.129   5.773   5.601 -2.1281 -1.5493 -1.2979
  962MOL0     H29845   4.119   5.831   5.764  0.8636 -2.7849  0.2352
  962MOL0     H29846   3.947   6.006   5.594 -1.4628 -1.0811 -0.2194
  962MOL0     H29847   4.106   6.052   5.677  2.1003  0.3794 -2.4236
  962MOL0     H29848   4.065   5.919   5.408  0.8445 -3.3039  2.0836
  962MOL0     H29849   4.223   5.938   5.477 -0.0994 -0.8480 -3.2012
  962MOL0     H29850   4.196   6.110   5.325 -1.9172 -0.3376 -1.7987
  962MOL0     H29851   4.197   6.176   5.489 -0.7001  1.1728 -0.6181
  962MOL0     H29852   3.480   5.258   5.906  2.1136  2.5969  1.5480
  962MOL0     H29853   3.424   5.018   5.934  0.1536  0.1460 -0.2687
  962MOL0     H29854   3.399   4.623   6.001  2.2019  2.1008  1.1659
  962MOL0     H29855   3.330   4.403   5.899 -0.7979  1.8592  0.9042
  962MOL0     H29856   4.114   3.468   6.452  1.3830 -4.5144 -4.4510
  962MOL0     H29857   4.179   3.419   6.694 -2.9100  1.5682 -1.8157
  962MOL0     H29858   4.431   3.442   7.022  0.4548  0.7083 -0.3581
  962MOL0     H29859   4.434   3.386   7.251  1.2891  2.3147 -0.5650
  962MOL0     H29860   4.595   3.005   7.478  0.6105 -0.4350  1.8141
  962MOL0     H29861   4.713   3.072   7.371 -2.4334  0.1165 -2.5101
  962MOL0     H29862   4.745   3.120   7.620 -1.5891  0.9509  1.9276
  962MOL0     H29863   4.613   3.233   7.612 -1.0607 -0.9109  0.0855
  962MOL0     H29864   4.718   3.359   7.424  0.9873 -0.1947 -1.2412
  962MOL0     H29865   4.867   3.262   7.437  1.3071  0.8817  0.8181
  962MOL0     H29866   4.764   3.462   7.635 -1.3512 -1.6414 -0.4868
  962MOL0     H29867   4.905   3.479   7.522 -3.0133  0.0586 -1.4135
  962MOL0     H29868   5.054   3.324   7.862  0.6706 -0.2190 -0.8370
  962MOL0     H29869   4.629   3.024   7.177  0.8906  0.6928 -0.7269
  962MOL0     H29870   4.621   3.053   6.950  0.1930 -0.9598  1.4925
  963MOL0     O29871   3.689   1.414   0.668  0.8612  0.2807  0.2421
  963MOL0     C29872   3.729   1.517   0.727  0.0643 -0.2675 -0.4575
  963MOL0     O29873   3.665   1.641   0.744  0.2302  0.4879 -1.0478
  963MOL0     C29874   3.556   1.676   0.666 -0.0519  0.3123 -0.0874
  963MOL0     C29875   3.459   1.748   0.736 -0.2478 -0.1275 -0.2225
  963MOL0     C29876   3.348   1.778   0.665 -0.0253 -0.5924 -0.4762
  963MOL0     C29877   3.327   1.755   0.532  0.1117  0.5808  1.0335
  963MOL0     O29878   3.225   1.820   0.473  0.4106 -0.3434 -0.4326
  963MOL0     C29879   3.187   1.789   0.338 -1.0176 -0.5688 -0.4967
  963MOL0     C29880   3.134   1.912   0.258  0.0809 -0.4424  0.7727
  963MOL0     C29881   3.247   2.026   0.225  0.8293 -0.7711 -0.8788
  963MOL0     C29882   3.177   2.140   0.161  0.7122  0.2150 -0.2786
  963MOL0     C29883   3.265   2.271   0.160 -0.3423 -0.3704  0.4412
  963MOL0     C29884   3.219   2.354   0.027 -0.1199  0.7858  0.2595
  963MOL0     C29885   3.059   2.372   0.037 -0.8444  0.2131 -0.4025
  963MOL0     C29886   3.014   2.517  -0.012 -0.1399  0.2073 -0.7205
  963MOL0     N29887   2.891   2.512  -0.079  0.3910 -0.5733  0.6494
  963MOL0     C29888   2.872   2.519  -0.216 -0.1678  0.6618  0.1291
  963MOL0     C29889   2.739   2.535  -0.231  1.1024  0.4157  0.0775
  963MOL0     C29890   2.663   2.559  -0.366 -0.1719 -0.3506  0.7579
  963MOL0     C29891   2.504   2.571  -0.361  0.1177 -0.1448 -0.3376
  963MOL0     C29892   2.454   2.625  -0.501 -0.5246 -0.4512  0.2133
  963MOL0     C29893   2.310   2.674  -0.497 -0.3970  0.7948 -0.2603
  963MOL0     O29894   2.264   2.708  -0.368  0.0747 -0.3904 -0.1427
  963MOL0     C29895   2.141   2.683  -0.314  0.6512  0.4423  0.6007
  963MOL0     C29896   2.093   2.555  -0.306  0.0220  0.3414  0.7889
  963MOL0     C29897   1.967   2.520  -0.255 -0.2938  0.0772 -0.5773
  963MOL0     C29898   1.936   2.379  -0.283 -0.7962 -0.0936  0.6161
  963MOL0     C29899   1.891   2.621  -0.195  0.1354 -0.2504  1.1702
  963MOL0     C29900   1.753   2.585  -0.138 -0.0993  0.4081  0.9727
  963MOL0     O29901   1.667   2.691  -0.113 -0.2086  0.0255 -0.0374
  963MOL0     C29902   1.546   2.662  -0.056 -0.6619  1.3744 -1.3346
  963MOL0     C29903   1.444   2.592  -0.128  0.8214  0.2424 -0.2138
  963MOL0     C29904   1.321   2.579  -0.075  0.4294 -0.7485  0.1153
  963MOL0     C29905   1.281   2.637   0.050  0.0509  0.2473 -0.0607
  963MOL0     O29906   1.151   2.627   0.099  0.7639  0.2889  1.1206
  963MOL0     C29907   1.122   2.489   0.129 -0.2983 -0.1209 -0.5153
  963MOL0     C29908   0.974   2.453   0.127 -0.0427 -0.3928  0.3073
  963MOL0     C29909   0.912   2.515   0.006 -0.3006  0.5331  0.1478
  963MOL0     C29910   0.771   2.462  -0.001  0.6497  0.0440  0.0983
  963MOL0     C29911   0.756   2.335  -0.084  0.0270 -0.2700  0.3051
  963MOL0     C29912   0.623   2.266  -0.059 -0.1319  0.1767 -0.6656
  963MOL0     C29913   0.497   2.347  -0.052  0.9043  1.5338 -0.5793
  963MOL0     C29914   0.380   2.258  -0.022 -0.0087 -0.4575  0.0663
  963MOL0    Cl29915   0.344   2.141  -0.154  0.0170 -0.3432 -0.1955
  963MOL0     C29916   1.384   2.701   0.122 -0.8222  0.4075 -0.1597
  963MOL0     C29917   1.512   2.723   0.062  0.4790  1.0872  0.1736
  963MOL0     O29918   1.729   2.464  -0.111 -0.3068 -1.2999  0.1072
  963MOL0     C29919   1.941   2.754  -0.202 -0.2606  0.0818 -0.1637
  963MOL0     C29920   2.071   2.784  -0.262 -0.6948  0.6254 -0.7712
  963MOL0     N29921   2.674   2.531  -0.107 -0.6737  0.2469  1.3899
  963MOL0     N29922   2.765   2.516  -0.025 -0.7599  0.6109 -0.6089
  963MOL0     C29923   3.421   1.678   0.468 -0.1617  0.1440 -0.0175
  963MOL0     C29924   3.532   1.633   0.539 -0.3447 -0.1649 -0.0801
  963MOL0     C29925   3.872   1.509   0.779  0.7949  0.6262 -0.2604
  963MOL0     C29926   3.956   1.606   0.744 -0.4700  0.5378 -1.1562
  963MOL0     C29927   4.091   1.593   0.777  0.6456  0.9768  0.5088
  963MOL0     C29928   4.138   1.486   0.853 -0.6703 -0.8580 -0.2363
  963MOL0     O29929   4.267   1.456   0.886 -0.0785 -0.2474  0.0252
  963MOL0     C29930   4.377   1.518   0.818 -0.5811  1.2276  0.9748
  963MOL0     C29931   4.505   1.503   0.907  0.1365  0.2965 -0.1452
  963MOL0     C29932   4.473   1.569   1.045  0.3137  0.1801  0.3626
  963MOL0     C29933   4.597   1.587   1.129  1.2430 -0.4134  0.0646
  963MOL0     C29934   4.715   1.650   1.061  0.6160  0.2516 -0.6919
  963MOL0     C29935   4.816   1.694   1.006 -0.5904  1.0777 -0.7016
  963MOL0     C29936   4.048   1.394   0.900  0.1762 -0.0828  0.1349
  963MOL0     C29937   3.915   1.400   0.851  0.7408  0.5447 -0.2711
  963MOL0     H29938   3.465   1.797   0.832 -2.8703 -0.2550  0.0880
  963MOL0     H29939   3.288   1.846   0.723  1.8095  0.5322  0.1776
  963MOL0     H29940   3.268   1.749   0.277 -0.3796 -0.5652  0.3213
  963MOL0     H29941   3.108   1.713   0.331 -0.9843 -0.7208  0.5275
  963MOL0     H29942   3.096   1.857   0.172 -0.4461  1.4043 -0.2439
  963MOL0     H29943   3.049   1.959   0.309 -1.9048 -1.5074 -1.3862
  963MOL0     H29944   3.300   2.053   0.317 -2.6722 -2.1670  1.7695
  963MOL0     H29945   3.321   1.993   0.152  0.8174 -0.7397 -0.9047
  963MOL0     H29946   3.155   2.116   0.057  1.6536  0.4140 -0.5343
  963MOL0     H29947   3.081   2.159   0.210 -0.6385 -0.1821 -2.6031
  963MOL0     H29948   3.236   2.336   0.243  0.0092  0.2614  0.0818
  963MOL0     H29949   3.374   2.265   0.174 -0.3988  2.0255  2.5932
  963MOL0     H29950   3.269   2.450   0.044  2.4038 -0.8640  3.4196
  963MOL0     H29951   3.247   2.307  -0.068 -1.4876  0.5286 -0.0416
  963MOL0     H29952   2.995   2.296  -0.007 -1.2078 -0.8650  1.8730
  963MOL0     H29953   3.044   2.379   0.145 -2.4924 -0.8726 -0.5293
  963MOL0     H29954   3.082   2.564  -0.084  0.5846 -0.5726 -0.5546
  963MOL0     H29955   3.011   2.590   0.070  0.0736  0.1678 -0.6777
  963MOL0     H29956   2.950   2.533  -0.290 -0.0331  1.9850  0.5005
  963MOL0     H29957   2.708   2.648  -0.412  0.6679  0.0393  2.2760
  963MOL0     H29958   2.679   2.473  -0.431 -1.1618 -0.1043  0.1664
  963MOL0     H29959   2.468   2.632  -0.277 -1.6360 -3.4738  1.5489
  963MOL0     H29960   2.475   2.467  -0.342 -1.1128  0.2516  0.0430
  963MOL0     H29961   2.475   2.552  -0.580  0.4443  0.1675 -0.1209
  963MOL0     H29962   2.499   2.721  -0.526 -1.2656 -0.0631  0.3371
  963MOL0     H29963   2.255   2.581  -0.518  0.3762 -0.0474  1.2838
  963MOL0     H29964   2.290   2.755  -0.568 -2.5379  0.0574 -0.5709
  963MOL0     H29965   2.158   2.471  -0.329  0.1884  0.7638 -0.3906
  963MOL0     H29966   1.835   2.364  -0.323 -1.2819  1.7329  1.0790
  963MOL0     H29967   2.006   2.325  -0.348  0.5828  1.1094  1.0581
  963MOL0     H29968   1.945   2.328  -0.187 -0.0101 -0.9738  0.0914
  963MOL0     H29969   1.454   2.561  -0.232  0.8778  0.7208 -0.3535
  963MOL0     H29970   1.244   2.532  -0.136  0.7626 -1.2886  0.0975
  963MOL0     H29971   1.171   2.428   0.053  0.6795  0.6833 -0.5465
  963MOL0     H29972   1.158   2.467   0.230  3.2173  2.6616 -0.9524
  963MOL0     H29973   0.968   2.344   0.123  1.7673 -0.8051  4.1659
  963MOL0     H29974   0.912   2.485   0.212  0.5562 -0.6791  0.8610
  963MOL0     H29975   0.953   2.484  -0.091 -1.7454 -0.6452 -0.1159
  963MOL0     H29976   0.919   2.623   0.015 -0.7136  0.6516 -0.8600
  963MOL0     H29977   0.723   2.465   0.097 -0.6750  2.0736 -0.5361
  963MOL0     H29978   0.724   2.547  -0.052  0.3557 -1.1008 -1.6487
  963MOL0     H29979   0.842   2.277  -0.051 -0.4409 -0.3461  1.4642
  963MOL0     H29980   0.761   2.363  -0.189 -0.1873  0.5155  0.4919
  963MOL0     H29981   0.609   2.206  -0.150  0.7260  3.5688 -3.2488
  963MOL0     H29982   0.627   2.215   0.038 -3.9487  0.9994  0.0838
  963MOL0     H29983   0.475   2.405  -0.142  2.9986 -0.6862 -2.6702
  963MOL0     H29984   0.523   2.413   0.032  5.5535  0.7827 -1.1707
  963MOL0     H29985   0.293   2.324  -0.007 -0.2581 -0.9052  0.6426
  963MOL0     H29986   0.389   2.206   0.074  3.0729  0.9201  0.6197
  963MOL0     H29987   1.349   2.740   0.217 -0.0183 -2.8585  1.6264
  963MOL0     H29988   1.577   2.796   0.108  0.2623  3.1118 -2.4938
  963MOL0     H29989   1.887   2.836  -0.155 -0.0127 -0.6409  1.4099
  963MOL0     H29990   2.115   2.883  -0.256  1.9446 -0.3907 -1.7747
  963MOL0     H29991   3.409   1.634   0.370  0.5164 -0.4473  0.1514
  963MOL0     H29992   3.603   1.584   0.473  0.1755 -0.2314  0.5209
  963MOL0     H29993   3.928   1.704   0.705  0.6929  1.9293  1.2395
  963MOL0     H29994   4.148   1.679   0.742  1.4642  0.0454 -0.5023
  963MOL0     H29995   4.389   1.468   0.721 -1.7714 -2.3340  2.4658
  963MOL0     H29996   4.368   1.624   0.795 -0.0788  0.7136 -2.0433
  963MOL0     H29997   4.583   1.563   0.858  0.6912  0.6689  1.1298
  963MOL0     H29998   4.536   1.398   0.906 -0.5851  0.0825 -0.2223
  963MOL0     H29999   4.409   1.505   1.107 -0.3363  1.1451  0.7195
  963MOL0     H30000   4.431   1.669   1.032  1.7071  0.5779 -1.4665
  963MOL0     H30001   4.633   1.496   1.180 -0.5728  0.2822  2.8300
  963MOL0     H30002   4.572   1.658   1.208  1.0945  0.2604 -0.5767
  963MOL0     H30003   4.903   1.745   0.970 -0.5873  2.8756  1.6023
  963MOL0     H30004   4.063   1.301   0.955  0.3409  1.2285  2.4325
  963MOL0     H30005   3.851   1.322   0.892  1.5925  0.9284  1.9762
  964MOL0     O30006   3.075   4.665   3.135  0.6464  0.5539  0.5313
  964MOL0     C30007   3.039   4.719   3.030  0.0121  0.1075  0.2938
  964MOL0     O30008   3.056   4.851   2.997 -0.3614  0.2821  0.1455
  964MOL0     C30009   3.101   4.946   3.085  0.3163 -0.5168  0.0292
  964MOL0     C30010   3.022   5.056   3.105  0.1476 -0.1673 -0.6598
  964MOL0     C30011   3.044   5.135   3.210  0.7333 -0.6377  0.3100
  964MOL0     C30012   3.161   5.125   3.280 -0.5760 -0.2166 -0.5223
  964MOL0     O30013   3.191   5.233   3.363  0.2789  0.7527 -0.2120
  964MOL0     C30014   3.323   5.225   3.421  0.0204 -0.3132 -0.2760
  964MOL0     C30015   3.341   5.360   3.496  0.6624 -0.4170 -0.2016
  964MOL0     C30016   3.342   5.472   3.402 -0.1313 -0.5745  0.6412
  964MOL0     C30017   3.314   5.612   3.465  0.4289  0.1638 -0.5489
  964MOL0     C30018   3.436   5.668   3.532  0.6260  1.0233  0.4215
  964MOL0     C30019   3.420   5.665   3.684 -0.5382  0.2460  0.1156
  964MOL0     C30020   3.549   5.716   3.732 -0.9848 -0.1952 -0.0978
  964MOL0     C30021   3.541   5.737   3.887  0.1099  0.6323 -0.8334
  964MOL0     N30022   3.612   5.635   3.959  0.1453  0.3826  0.0578
  964MOL0     C30023   3.568   5.504   4.004 -0.8160 -0.1563  0.0023
  964MOL0     C30024   3.664   5.466   4.093  0.9665  0.0099  0.5475
  964MOL0     C30025   3.661   5.329   4.159  0.1280  0.2289 -0.8417
  964MOL0     C30026   3.628   5.336   4.304  0.0910 -0.6091 -0.2602
  964MOL0     C30027   3.670   5.201   4.364 -0.5447 -0.8012 -0.6093
  964MOL0     C30028   3.638   5.233   4.511  0.1008 -0.7108  1.1239
  964MOL0     O30029   3.669   5.113   4.586 -0.1384 -0.2859 -0.0593
  964MOL0     C30030   3.569   5.019   4.605  1.4349 -0.4130  0.6555
  964MOL0     C30031   3.430   5.041   4.582 -0.5674 -0.5679 -0.3177
  964MOL0     C30032   3.336   4.933   4.582 -0.0225 -0.7900  0.1265
  964MOL0     C30033   3.189   4.960   4.563  0.6737 -0.3944  1.2946
  964MOL0     C30034   3.379   4.803   4.601 -0.6193  0.1233 -0.2815
  964MOL0     C30035   3.301   4.681   4.583  0.2164 -0.5477 -0.5425
  964MOL0     O30036   3.329   4.569   4.664 -0.2186  0.3357  0.4933
  964MOL0     C30037   3.264   4.444   4.636 -0.4571  0.0955 -0.5944
  964MOL0     C30038   3.224   4.373   4.755 -0.0543 -0.4661  0.2575
  964MOL0     C30039   3.169   4.250   4.738  0.7788 -0.9680 -0.6822
  964MOL0     C30040   3.136   4.187   4.610  0.5476 -0.0853 -0.7118
  964MOL0     O30041   3.058   4.077   4.610 -0.0323 -0.2214 -0.4223
  964MOL0     C30042   3.055   3.980   4.505 -0.1251  0.1315  0.3204
  964MOL0     C30043   3.136   3.877   4.574  0.3820  1.0713 -0.2386
  964MOL0     C30044   3.154   3.760   4.480  0.3509  0.4413 -0.2794
  964MOL0     C30045   3.228   3.642   4.550 -0.4035  0.4307  0.4220
  964MOL0     C30046   3.274   3.516   4.465  0.9822  0.9453  0.0216
  964MOL0     C30047   3.177   3.402   4.481 -0.9077  0.0734 -0.0778
  964MOL0     C30048   3.038   3.449   4.424  0.3828 -0.2657  0.5032
  964MOL0     C30049   2.958   3.345   4.354  0.3219  0.1029 -0.3262
  964MOL0    Cl30050   2.925   3.214   4.471  0.1852  0.1297 -0.1686
  964MOL0     C30051   3.172   4.269   4.494 -0.0332  0.0578 -0.4647
  964MOL0     C30052   3.247   4.385   4.509  0.4566 -0.2515  0.1623
  964MOL0     O30053   3.215   4.685   4.494  1.3006  0.6719 -0.7202
  964MOL0     C30054   3.515   4.781   4.632 -0.3051  0.2057 -0.7797
  964MOL0     C30055   3.611   4.887   4.628 -0.0606 -0.6580 -0.6949
  964MOL0     N30056   3.745   5.572   4.111 -0.1617 -0.7400 -0.4643
  964MOL0     N30057   3.719   5.670   4.035 -0.4224 -0.2928 -0.4655
  964MOL0     C30058   3.250   5.016   3.253 -0.4091 -0.9814  0.5391
  964MOL0     C30059   3.221   4.927   3.154  0.2526  0.4942  0.1438
  964MOL0     C30060   2.957   4.642   2.925  0.0028  0.1058  0.4505
  964MOL0     C30061   2.898   4.708   2.813  0.1079  0.3536 -0.0699
  964MOL0     C30062   2.846   4.627   2.719  0.8761  1.2475 -0.3504
  964MOL0     C30063   2.824   4.489   2.735  0.4139 -0.1203 -0.2860
  964MOL0     O30064   2.766   4.422   2.629 -0.0319  0.5438 -0.4365
  964MOL0     C30065   2.779   4.277   2.613 -0.3261 -0.1903  0.1569
  964MOL0     C30066   2.680   4.233   2.502 -0.3017  0.2139 -0.2909
  964MOL0     C30067   2.534   4.271   2.529 -0.8002 -0.2837 -0.9152
  964MOL0     C30068   2.440   4.146   2.555  1.0565 -0.2676  2.0374
  964MOL0     C30069   2.490   4.073   2.675  0.7627  0.7085  0.8773
  964MOL0     C30070   2.519   4.007   2.766  0.4098 -0.2558  0.0123
  964MOL0     C30071   2.867   4.424   2.847  0.5985 -0.1730  0.9122
  964MOL0     C30072   2.942   4.498   2.937  0.0854 -0.4486 -0.0909
  964MOL0     H30073   2.930   5.065   3.050 -2.3799  4.4653  3.4608
  964MOL0     H30074   2.988   5.222   3.239 -2.1890 -2.9046  2.0469
  964MOL0     H30075   3.334   5.149   3.499  2.1673  0.0974 -0.1240
  964MOL0     H30076   3.399   5.215   3.343  2.6019 -0.6079  2.1166
  964MOL0     H30077   3.274   5.365   3.583  2.0871 -2.0001  1.0458
  964MOL0     H30078   3.434   5.355   3.552 -0.4600  0.1266  1.8300
  964MOL0     H30079   3.441   5.461   3.357 -0.5480 -1.4058 -0.1206
  964MOL0     H30080   3.272   5.462   3.319 -0.3760  1.7082  0.5174
  964MOL0     H30081   3.293   5.670   3.375 -0.6422 -1.8251 -1.6647
  964MOL0     H30082   3.230   5.611   3.536 -1.7682  3.2039 -2.8873
  964MOL0     H30083   3.527   5.618   3.496 -1.3108 -2.6512  0.1707
  964MOL0     H30084   3.455   5.764   3.483  1.2189  0.3762 -0.6689
  964MOL0     H30085   3.345   5.737   3.719 -0.6429  0.9656 -1.5351
  964MOL0     H30086   3.389   5.570   3.729  1.1410 -0.4934 -0.2169
  964MOL0     H30087   3.618   5.635   3.709 -1.6969 -0.0122 -3.4837
  964MOL0     H30088   3.585   5.811   3.690  2.1345  0.1949  3.0172
  964MOL0     H30089   3.439   5.715   3.918  0.0503  2.1266  0.1438
  964MOL0     H30090   3.559   5.840   3.919 -3.0852  0.1467  3.3934
  964MOL0     H30091   3.503   5.429   3.961 -0.1040 -0.1603 -1.1213
  964MOL0     H30092   3.581   5.274   4.108 -2.8676  0.7270  2.8870
  964MOL0     H30093   3.762   5.298   4.131  0.7477  1.7567 -0.4345
  964MOL0     H30094   3.522   5.355   4.321  0.2277 -1.6242  1.9564
  964MOL0     H30095   3.692   5.416   4.344 -1.2560 -1.2672  3.5795
  964MOL0     H30096   3.774   5.171   4.353  0.2634  1.6453 -0.3726
  964MOL0     H30097   3.610   5.126   4.312 -2.0292  2.7297 -4.5461
  964MOL0     H30098   3.543   5.283   4.530  0.3434 -0.1058  0.7798
  964MOL0     H30099   3.722   5.298   4.541 -0.9248  0.7413  0.9597
  964MOL0     H30100   3.384   5.139   4.576  0.2395 -0.0878  0.9149
  964MOL0     H30101   3.148   5.058   4.588  0.9151  0.4318 -1.2941
  964MOL0     H30102   3.182   4.948   4.455  2.8877 -3.1104  1.3397
  964MOL0     H30103   3.125   4.881   4.603  0.0869 -0.5865  0.0089
  964MOL0     H30104   3.223   4.415   4.855  0.8436 -0.1770  0.1485
  964MOL0     H30105   3.124   4.214   4.830  1.4460  0.2788  0.1534
  964MOL0     H30106   2.950   3.962   4.484 -0.3773  1.3455  0.4766
  964MOL0     H30107   3.095   4.015   4.409 -2.2238 -0.8061 -0.9667
  964MOL0     H30108   3.231   3.914   4.613  0.8330 -1.1385  0.9262
  964MOL0     H30109   3.081   3.848   4.664 -0.2173  2.7538 -0.0300
  964MOL0     H30110   3.194   3.790   4.383  1.3923  0.3113  0.1007
  964MOL0     H30111   3.048   3.734   4.473  0.3407  0.7966 -1.9056
  964MOL0     H30112   3.324   3.678   4.588 -0.8400 -1.4404  3.6322
  964MOL0     H30113   3.175   3.616   4.642 -1.7321 -0.6528 -0.6115
  964MOL0     H30114   3.365   3.469   4.504 -0.1152  0.6976  2.4527
  964MOL0     H30115   3.274   3.531   4.357 -3.0311 -2.1947 -0.6620
  964MOL0     H30116   3.217   3.311   4.436 -1.5906 -1.0647  1.5428
  964MOL0     H30117   3.170   3.379   4.587  2.5162 -0.1612  0.1863
  964MOL0     H30118   3.057   3.532   4.355 -3.2755  0.7021  0.4411
  964MOL0     H30119   2.970   3.487   4.502 -3.0507  0.9160 -2.7689
  964MOL0     H30120   3.013   3.287   4.279 -0.4766 -2.4645  0.9631
  964MOL0     H30121   2.867   3.377   4.303  1.6450 -0.5757 -3.3299
  964MOL0     H30122   3.165   4.218   4.399  1.6312  0.1774 -0.6849
  964MOL0     H30123   3.304   4.419   4.424  1.2690  1.5132  1.3409
  964MOL0     H30124   3.556   4.681   4.637 -1.8513 -0.7360 -4.3641
  964MOL0     H30125   3.715   4.862   4.645  0.2684 -0.7262 -2.6044
  964MOL0     H30126   3.346   5.009   3.304  0.7281  0.9680 -1.1470
  964MOL0     H30127   3.291   4.845   3.155  0.2502  0.4943  1.2012
  964MOL0     H30128   2.911   4.812   2.782 -0.5860  1.2300  2.3538
  964MOL0     H30129   2.832   4.656   2.615  2.4559  2.8587 -0.1746
  964MOL0     H30130   2.876   4.242   2.574 -0.4839 -0.0302 -0.3918
  964MOL0     H30131   2.742   4.223   2.701 -0.5696 -1.0516 -0.4540
  964MOL0     H30132   2.689   4.126   2.485 -1.3396  0.2882 -1.4560
  964MOL0     H30133   2.706   4.283   2.408 -1.8442  1.6529 -0.0138
  964MOL0     H30134   2.495   4.330   2.445 -0.6554 -2.2260 -2.4034
  964MOL0     H30135   2.544   4.327   2.623  1.0043 -2.9063  0.5541
  964MOL0     H30136   2.437   4.087   2.463  1.0408  1.3806  0.9409
  964MOL0     H30137   2.342   4.187   2.583  1.5823  1.6887  1.1592
  964MOL0     H30138   2.538   3.955   2.858 -1.9708 -0.3557  0.5051
  964MOL0     H30139   2.849   4.317   2.849  0.4794 -0.2646 -1.9243
  964MOL0     H30140   2.984   4.440   3.019 -0.5725  0.9102  1.2604
  965MOL0     O30141   8.353   2.024   7.393 -0.2588 -0.1156  0.5698
  965MOL0     C30142   8.442   2.113   7.389  0.5647  0.5068 -0.2287
  965MOL0     O30143   8.439   2.237   7.446  0.0648  0.0641 -0.4608
  965MOL0     C30144   8.360   2.258   7.553 -0.6256  0.9103 -0.7641
  965MOL0     C30145   8.304   2.384   7.572 -0.4954  0.5002  0.3192
  965MOL0     C30146   8.207   2.404   7.670 -0.6727 -0.3575  0.3290
  965MOL0     C30147   8.186   2.308   7.772  0.7633 -0.1841 -0.9437
  965MOL0     O30148   8.092   2.334   7.872  0.0652  0.2664 -0.1002
  965MOL0     C30149   8.026   2.459   7.882 -0.1799  0.0562  0.3597
  965MOL0     C30150   7.918   2.439   7.987 -0.9559  0.1716 -0.5113
  965MOL0     C30151   7.783   2.404   7.921  1.0365  0.1472  0.8472
  965MOL0     C30152   7.673   2.344   8.006  0.4448  0.1853 -0.2270
  965MOL0     C30153   7.561   2.276   7.928 -0.2214  0.1131  0.1937
  965MOL0     C30154   7.500   2.382   7.836 -0.5778  0.5027 -1.0863
  965MOL0     C30155   7.391   2.323   7.750  0.0412 -0.1925 -0.4600
  965MOL0     C30156   7.271   2.266   7.840 -1.2810 -0.9055 -0.1986
  965MOL0     N30157   7.247   2.338   7.971 -1.0024  0.2931  0.3349
  965MOL0     C30158   7.183   2.463   7.981 -1.6619  0.2294  0.1417
  965MOL0     C30159   7.153   2.469   8.116  0.3166  1.3719 -0.6393
  965MOL0     C30160   7.076   2.590   8.167  0.0298  0.2937 -0.4549
  965MOL0     C30161   6.926   2.561   8.188  0.3853  0.2949  0.0331
  965MOL0     C30162   6.869   2.491   8.069  0.7968  0.0425  0.5440
  965MOL0     C30163   6.720   2.467   8.066  0.3430 -0.7840 -0.4597
  965MOL0     O30164   6.691   2.349   8.144  0.4127  0.1104 -0.2679
  965MOL0     C30165   6.555   2.316   8.140  0.2968  0.3730 -1.4727
  965MOL0     C30166   6.525   2.220   8.236 -0.0485 -0.3414 -0.4105
  965MOL0     C30167   6.406   2.158   8.257  0.8545 -0.2420  0.2903
  965MOL0     C30168   6.374   2.065   8.377 -0.1603  0.7591 -0.4719
  965MOL0     C30169   6.302   2.191   8.162 -0.2331  0.0643 -0.4232
  965MOL0     C30170   6.176   2.128   8.142  0.3684  0.5713  0.8802
  965MOL0     O30171   6.085   2.205   8.082 -0.6519 -0.1789  0.4471
  965MOL0     C30172   5.970   2.149   8.058  0.1995  0.2135  0.1286
  965MOL0     C30173   5.865   2.184   8.147 -0.0802  0.7755 -0.0785
  965MOL0     C30174   5.734   2.137   8.118  0.3111 -1.0019  0.7374
  965MOL0     C30175   5.704   2.052   8.007  0.3060 -0.2971 -0.2396
  965MOL0     O30176   5.572   2.022   7.988  0.2650 -0.6751  0.1870
  965MOL0     C30177   5.538   1.911   7.901  0.5120  0.4119  0.0843
  965MOL0     C30178   5.422   1.826   7.940  0.2915  0.2827  0.3572
  965MOL0     C30179   5.465   1.694   8.001  0.3683 -0.7909 -0.1593
  965MOL0     C30180   5.344   1.601   8.043 -1.1576  0.4249 -0.6645
  965MOL0     C30181   5.260   1.548   7.923 -0.6192 -0.5854  0.0032
  965MOL0     C30182   5.144   1.453   7.962 -0.4297 -0.4501  0.5475
  965MOL0     C30183   5.041   1.510   8.067  0.7419  0.5345  0.2517
  965MOL0     C30184   4.944   1.391   8.091 -0.3897 -0.3274 -0.0297
  965MOL0    Cl30185   4.861   1.335   7.943 -0.2455  0.1166  0.1341
  965MOL0     C30186   5.814   2.012   7.932  0.5641  0.2136 -0.6019
  965MOL0     C30187   5.936   2.071   7.946 -0.6064  0.2888 -0.6563
  965MOL0     O30188   6.167   2.013   8.173  0.3299 -0.3509 -0.2199
  965MOL0     C30189   6.319   2.310   8.083 -0.6595 -0.9076  0.3930
  965MOL0     C30190   6.448   2.370   8.072  1.1383  0.1042 -0.3216
  965MOL0     N30191   7.186   2.351   8.175 -0.4855 -0.0475  0.4314
  965MOL0     N30192   7.248   2.273   8.092  0.1267  0.3330  0.4760
  965MOL0     C30193   8.253   2.188   7.763 -0.1133  0.2151 -0.2653
  965MOL0     C30194   8.342   2.165   7.652  0.8252 -0.1306 -0.6083
  965MOL0     C30195   8.546   2.079   7.288 -0.3248  0.2014 -0.5872
  965MOL0     C30196   8.668   2.140   7.312  1.5151  0.2785  0.3311
  965MOL0     C30197   8.768   2.139   7.214  0.5530  0.1147  0.6542
  965MOL0     C30198   8.754   2.067   7.094 -0.9981 -0.5321  0.0993
  965MOL0     O30199   8.852   2.079   7.001  0.5445  0.9586  0.2923
  965MOL0     C30200   8.980   2.002   7.003  0.6239  0.1431  0.0324
  965MOL0     C30201   9.017   1.925   7.134  0.7995 -0.6547  0.8203
  965MOL0     C30202   9.165   1.880   7.125 -0.8581 -0.3031  1.1076
  965MOL0     C30203   9.188   1.728   7.109  0.2196 -0.0341 -0.2277
  965MOL0     C30204   9.151   1.691   6.970  0.5689  1.0337 -1.9582
  965MOL0     C30205   9.141   1.635   6.862 -0.4796 -0.7936  0.5993
  965MOL0     C30206   8.636   2.000   7.071  0.9985 -0.6475 -0.5123
  965MOL0     C30207   8.534   2.005   7.174  1.0467 -0.3930  0.0464
  965MOL0     H30208   8.315   2.464   7.499 -1.1538  1.9050  1.7131
  965MOL0     H30209   8.163   2.503   7.663  2.2118  0.9174 -2.0269
  965MOL0     H30210   8.098   2.525   7.930 -0.2637  0.8356 -0.5449
  965MOL0     H30211   7.986   2.500   7.788  1.3513 -0.4327 -0.5467
  965MOL0     H30212   7.935   2.355   8.056 -1.2220  1.0946  0.7199
  965MOL0     H30213   7.910   2.531   8.046  1.2886  1.5979 -2.2709
  965MOL0     H30214   7.731   2.481   7.863  0.4027 -1.6725 -1.1662
  965MOL0     H30215   7.809   2.326   7.849 -0.5432  1.3548 -1.1593
  965MOL0     H30216   7.717   2.259   8.059  0.4272  0.5629  0.4055
  965MOL0     H30217   7.624   2.414   8.074  1.0247  2.0346 -1.6104
  965MOL0     H30218   7.595   2.195   7.863 -0.0148  1.6348 -1.6709
  965MOL0     H30219   7.491   2.234   8.002 -1.3474 -1.0779 -1.4669
  965MOL0     H30220   7.461   2.463   7.898 -1.4509 -0.8408  0.2117
  965MOL0     H30221   7.574   2.417   7.764 -0.4448 -0.7752 -1.5959
  965MOL0     H30222   7.360   2.400   7.679  0.9744 -1.2581 -2.0631
  965MOL0     H30223   7.436   2.247   7.686  1.0025  0.1788 -0.2344
  965MOL0     H30224   7.293   2.166   7.879  4.0074 -0.0450 -0.1471
  965MOL0     H30225   7.178   2.261   7.783 -1.2077 -0.6346 -0.3437
  965MOL0     H30226   7.160   2.542   7.910 -3.0508  0.1223  0.4514
  965MOL0     H30227   7.130   2.629   8.253  0.4190  0.0029 -0.5671
  965MOL0     H30228   7.081   2.672   8.095 -0.5768  2.5261  1.8701
  965MOL0     H30229   6.880   2.661   8.191  0.1507  0.6289 -5.4301
  965MOL0     H30230   6.897   2.492   8.268 -4.2232  1.6502 -0.1514
  965MOL0     H30231   6.914   2.392   8.061  1.8354  0.5984 -0.8614
  965MOL0     H30232   6.887   2.561   7.987  0.6133 -0.7643 -0.1982
  965MOL0     H30233   6.679   2.459   7.965 -0.9492  3.4026 -0.4588
  965MOL0     H30234   6.664   2.556   8.096 -0.1269 -0.8937 -1.0097
  965MOL0     H30235   6.601   2.183   8.304 -1.8153  0.4163  2.1432
  965MOL0     H30236   6.357   1.964   8.338 -0.6676 -0.2242  2.1201
  965MOL0     H30237   6.463   2.073   8.440  0.9039  0.1012 -1.8247
  965MOL0     H30238   6.287   2.090   8.438  1.0481 -1.0115  2.1670
  965MOL0     H30239   5.885   2.253   8.228 -4.6588  1.1172  1.0442
  965MOL0     H30240   5.655   2.150   8.192  0.2209 -2.3393  0.9060
  965MOL0     H30241   5.518   1.949   7.801  2.9742  0.4697 -0.4492
  965MOL0     H30242   5.622   1.841   7.896 -0.6215 -1.0426  0.4990
  965MOL0     H30243   5.367   1.885   8.013 -1.0343  2.5909 -2.3109
  965MOL0     H30244   5.347   1.808   7.861 -0.7426  1.6081  1.0031
  965MOL0     H30245   5.525   1.727   8.086  1.6585 -1.3086 -0.8350
  965MOL0     H30246   5.537   1.637   7.941  2.9325  1.6100  0.4230
  965MOL0     H30247   5.398   1.522   8.095  1.9500  1.3071 -2.3042
  965MOL0     H30248   5.279   1.661   8.107 -1.4824  1.0800 -1.5760
  965MOL0     H30249   5.333   1.487   7.869  0.0958 -0.9457  1.3181
  965MOL0     H30250   5.223   1.631   7.861  1.5885  0.8494  0.4992
  965MOL0     H30251   5.103   1.407   7.871  3.8110 -2.5584 -0.5292
  965MOL0     H30252   5.190   1.367   8.012  0.7055  0.7106  1.5656
  965MOL0     H30253   4.985   1.593   8.024  1.6331 -0.5742 -3.4043
  965MOL0     H30254   5.084   1.542   8.163 -0.9274 -1.4824  1.7563
  965MOL0     H30255   4.859   1.423   8.151 -2.3172  1.0169 -3.1708
  965MOL0     H30256   4.987   1.305   8.142  0.1312 -1.2551 -1.9249
  965MOL0     H30257   5.803   1.951   7.843 -1.6992 -1.6055  0.8140
  965MOL0     H30258   6.021   2.056   7.880 -0.4859  0.7009 -0.5985
  965MOL0     H30259   6.241   2.360   8.026  3.3687  4.1790 -1.4205
  965MOL0     H30260   6.470   2.461   8.017  4.5378  0.0973  0.7572
  965MOL0     H30261   8.215   2.108   7.827 -1.7500  0.3628 -1.0078
  965MOL0     H30262   8.383   2.065   7.654 -0.2213 -0.6009  2.4672
  965MOL0     H30263   8.686   2.202   7.399  4.4466 -1.3346  1.0056
  965MOL0     H30264   8.865   2.185   7.229  1.4011 -1.6679  0.8409
  965MOL0     H30265   8.969   1.937   6.916 -2.8344 -0.0485  0.4598
  965MOL0     H30266   9.060   2.072   6.980 -0.1970  0.8474 -0.7523
  965MOL0     H30267   8.946   1.841   7.133 -0.8463  0.6757 -1.1204
  965MOL0     H30268   9.001   1.983   7.226  2.6457  0.8436  0.2606
  965MOL0     H30269   9.216   1.896   7.220  4.0723 -2.5477 -0.8112
  965MOL0     H30270   9.217   1.932   7.044  0.0262  0.0167  1.8602
  965MOL0     H30271   9.132   1.668   7.182 -0.3368  0.4263 -0.2637
  965MOL0     H30272   9.289   1.690   7.125 -0.8705 -2.6661  1.0134
  965MOL0     H30273   9.135   1.598   6.762 -0.6787  2.1419 -0.5809
  965MOL0     H30274   8.638   1.935   6.984 -0.3189  0.2299 -1.2480
  965MOL0     H30275   8.432   1.971   7.159 -0.3810  0.4780  5.6874
  966MOL0     O30276   8.643   5.744  10.768  0.1708  0.3590 -0.5489
  966MOL0     C30277   8.733   5.709  10.842  0.0723  0.2354 -0.3892
  966MOL0     O30278   8.767   5.752  10.968  0.3017  0.2512  0.5639
  966MOL0     C30279   8.681   5.840  11.033 -0.0429  0.2959 -0.0633
  966MOL0     C30280   8.730   5.916  11.140  0.1963 -0.5754 -1.6210
  966MOL0     C30281   8.651   5.988  11.234 -0.0498 -0.2749 -0.4789
  966MOL0     C30282   8.516   5.994  11.206 -0.2024  0.1921 -0.1238
  966MOL0     O30283   8.450   6.064  11.293  0.6142 -0.0385 -0.2161
  966MOL0     C30284   8.318   6.015  11.321 -0.7188 -0.3967 -0.7504
  966MOL0     C30285   8.248   6.093  11.431 -0.5431 -0.4940 -0.8908
  966MOL0     C30286   8.208   6.240  11.413  0.8915  0.1946 -0.9099
  966MOL0     C30287   8.129   6.276  11.540 -0.5954 -0.4244 -0.0932
  966MOL0     C30288   8.068   6.420  11.530  0.0538  0.1402 -1.3595
  966MOL0     C30289   8.013   6.461  11.671  1.2039 -0.3083 -0.7505
  966MOL0     C30290   7.981   6.612  11.671 -0.1216  0.1556 -0.5594
  966MOL0     C30291   7.943   6.688  11.806 -0.2149  0.8411 -0.5138
  966MOL0     N30292   7.848   6.624  11.901 -1.1775 -0.3151  0.1231
  966MOL0     C30293   7.715   6.630  11.915  0.6140 -0.5120  0.7189
  966MOL0     C30294   7.679   6.548  12.023  1.2031 -0.3134  0.4377
  966MOL0     C30295   7.536   6.523  12.062 -0.0815  0.7540 -0.2682
  966MOL0     C30296   7.480   6.656  12.109  0.0687 -1.2814  0.3518
  966MOL0     C30297   7.345   6.637  12.171 -0.7144 -0.1542 -0.0659
  966MOL0     C30298   7.251   6.763  12.169  0.2860  1.0050 -0.4334
  966MOL0     O30299   7.296   6.853  12.268 -0.8028 -0.1741  0.2245
  966MOL0     C30300   7.208   6.945  12.323 -0.3627 -0.5266 -0.1365
  966MOL0     C30301   7.085   6.972  12.274  0.7954  0.4567  0.6796
  966MOL0     C30302   6.988   7.035  12.341  0.1610 -0.0287 -0.3989
  966MOL0     C30303   6.850   7.056  12.284  0.7566 -0.0181 -0.5069
  966MOL0     C30304   7.027   7.088  12.467 -0.1066  0.9225  0.2680
  966MOL0     C30305   6.946   7.156  12.554  0.2967  0.1619 -0.6122
  966MOL0     O30306   6.883   7.270  12.498 -0.2859 -0.6555  0.1196
  966MOL0     C30307   6.820   7.363  12.582  0.1613  0.3467 -0.2379
  966MOL0     C30308   6.882   7.429  12.689  0.3048  0.5227  0.7643
  966MOL0     C30309   6.806   7.514  12.767  0.5813 -0.4757 -0.0816
  966MOL0     C30310   6.670   7.534  12.751 -0.0563 -0.9753  0.3567
  966MOL0     O30311   6.602   7.635  12.834  0.2510  0.4070 -0.4372
  966MOL0     C30312   6.511   7.725  12.783  0.0584  0.4793 -0.2337
  966MOL0     C30313   6.471   7.805  12.903  0.2232 -0.4063  0.3427
  966MOL0     C30314   6.381   7.720  12.997 -0.3180 -0.2851 -0.4706
  966MOL0     C30315   6.433   7.622  13.098 -0.5040  0.1906 -0.3758
  966MOL0     C30316   6.332   7.549  13.203  0.4895  0.4998 -0.2707
  966MOL0     C30317   6.409   7.439  13.281 -0.9296  0.1936  0.0994
  966MOL0     C30318   6.335   7.314  13.330  0.1729 -0.7299  0.5373
  966MOL0     C30319   6.431   7.196  13.357  0.4633 -0.5805 -0.5234
  966MOL0    Cl30320   6.542   7.233  13.492  0.1453  0.5724 -0.3091
  966MOL0     C30321   6.601   7.459  12.641  0.0927 -0.5568 -0.0190
  966MOL0     C30322   6.684   7.386  12.559  0.5245 -0.3405  0.4904
  966MOL0     O30323   6.936   7.121  12.668 -0.1074 -0.7410  0.5035
  966MOL0     C30324   7.154   7.069  12.522 -0.1790  1.1420 -0.5968
  966MOL0     C30325   7.250   7.004  12.446  0.5671 -0.4046  0.0982
  966MOL0     N30326   7.787   6.496  12.078 -0.3843 -0.4137 -0.4097
  966MOL0     N30327   7.892   6.547  12.005  0.5339  0.4063  0.1262
  966MOL0     C30328   8.466   5.926  11.096  1.0979  0.1017 -0.3791
  966MOL0     C30329   8.544   5.848  11.008  0.1685 -0.3697  0.5101
  966MOL0     C30330   8.842   5.635  10.772 -0.1400  1.3711 -1.0281
  966MOL0     C30331   8.968   5.611  10.828  0.7821  0.3746 -0.6423
  966MOL0     C30332   9.075   5.557  10.761  0.7802  0.3379 -0.7106
  966MOL0     C30333   9.058   5.508  10.632 -0.8172  0.4894  0.6322
  966MOL0     O30334   9.160   5.429  10.566 -0.1431 -0.8020 -0.2914
  966MOL0     C30335   9.204   5.495  10.446  0.4316 -0.6529  0.3244
  966MOL0     C30336   9.313   5.413  10.375  0.8451 -0.0406  0.3496
  966MOL0     C30337   9.274   5.261  10.351 -0.5408  0.2983  0.8627
  966MOL0     C30338   9.285   5.220  10.196  0.3695  0.4735 -0.1726
  966MOL0     C30339   9.235   5.081  10.180 -1.1688  0.4480  0.2739
  966MOL0     C30340   9.218   4.964  10.163 -0.5106  0.8057  0.0816
  966MOL0     C30341   8.928   5.531  10.567 -0.7176 -0.7394  0.4984
  966MOL0     C30342   8.834   5.608  10.635  0.6642  0.3318 -0.3182
  966MOL0     H30343   8.833   5.910  11.173 -0.6285  0.0116  1.3357
  966MOL0     H30344   8.688   6.032  11.326  0.0316  1.5971 -1.3574
  966MOL0     H30345   8.250   6.031  11.238 -2.7909 -3.4464  0.1663
  966MOL0     H30346   8.328   5.909  11.350 -0.4818 -0.0491  0.5116
  966MOL0     H30347   8.155   6.038  11.449  0.3526 -2.4379 -1.9254
  966MOL0     H30348   8.318   6.074  11.513 -1.2571 -1.4607 -0.4768
  966MOL0     H30349   8.285   6.317  11.408  0.9625  0.3493  1.4592
  966MOL0     H30350   8.147   6.246  11.322  1.3523 -3.9119 -1.6816
  966MOL0     H30351   8.047   6.210  11.570 -1.7573  0.4388 -1.2263
  966MOL0     H30352   8.208   6.281  11.615 -0.7786  0.7803  0.0473
  966MOL0     H30353   8.144   6.490  11.495 -0.8418  0.4639 -2.6969
  966MOL0     H30354   7.985   6.418  11.459 -0.3239  2.1129 -1.0184
  966MOL0     H30355   7.926   6.400  11.697  0.7230 -0.1723 -1.9541
  966MOL0     H30356   8.092   6.428  11.739 -1.6677 -3.1405  1.5438
  966MOL0     H30357   8.066   6.671  11.635  1.1242 -0.8016  0.7108
  966MOL0     H30358   7.893   6.631  11.609 -0.2542  0.8041 -0.1828
  966MOL0     H30359   7.912   6.790  11.781  1.3451  0.6661 -3.6290
  966MOL0     H30360   8.038   6.709  11.855 -0.7173  3.1673 -0.4231
  966MOL0     H30361   7.648   6.677  11.844  0.6544 -1.1502  0.2454
  966MOL0     H30362   7.474   6.495  11.976 -1.7050  0.1508  1.0621
  966MOL0     H30363   7.533   6.444  12.137  3.8036  0.2635 -0.4411
  966MOL0     H30364   7.467   6.728  12.027  1.3693  2.7338  3.3645
  966MOL0     H30365   7.552   6.697  12.180 -0.2032 -1.3081  0.6430
  966MOL0     H30366   7.360   6.608  12.275  1.2598 -0.7704 -0.4721
  966MOL0     H30367   7.295   6.550  12.128 -0.6278 -0.2674  0.0604
  966MOL0     H30368   7.149   6.725  12.180  1.2364 -2.2286 -1.5490
  966MOL0     H30369   7.247   6.812  12.071 -1.8607  0.1810 -0.8177
  966MOL0     H30370   7.052   6.928  12.181  0.3299  0.1703  0.9764
  966MOL0     H30371   6.829   7.002  12.192 -1.7241  0.2987 -0.2121
  966MOL0     H30372   6.780   7.021  12.360 -2.2197  2.1927 -2.0354
  966MOL0     H30373   6.845   7.162  12.258 -0.6095  0.3439  1.0154
  966MOL0     H30374   6.987   7.415  12.714 -0.1950 -1.2829  2.0004
  966MOL0     H30375   6.856   7.560  12.853  2.3553 -1.9430 -0.2637
  966MOL0     H30376   6.547   7.787  12.699 -1.6396 -2.1054 -3.0755
  966MOL0     H30377   6.416   7.680  12.755 -0.5811  1.0847  0.9056
  966MOL0     H30378   6.554   7.839  12.966  0.5085 -1.8031  0.7506
  966MOL0     H30379   6.418   7.897  12.874  1.8231  0.0025 -1.5730
  966MOL0     H30380   6.297   7.679  12.941 -2.3169  4.9916 -1.9967
  966MOL0     H30381   6.336   7.796  13.062 -0.4025  0.5283 -1.4455
  966MOL0     H30382   6.479   7.535  13.050 -0.9916 -0.9939  1.2276
  966MOL0     H30383   6.511   7.667  13.161 -1.7471 -0.3130  1.6057
  966MOL0     H30384   6.254   7.506  13.140  2.5238  1.2517 -3.5649
  966MOL0     H30385   6.282   7.627  13.260  1.2531  1.0474 -0.3257
  966MOL0     H30386   6.485   7.397  13.215  0.9060 -0.6343  2.6071
  966MOL0     H30387   6.479   7.479  13.354  0.4834 -1.9139 -0.0336
  966MOL0     H30388   6.268   7.275  13.252  0.7369 -1.8898  0.6178
  966MOL0     H30389   6.293   7.343  13.427  3.6805 -0.9456  2.2871
  966MOL0     H30390   6.487   7.168  13.267  0.0976 -1.6332 -0.4374
  966MOL0     H30391   6.370   7.112  13.390  2.0607 -0.3401  3.7658
  966MOL0     H30392   6.496   7.461  12.612  0.4364 -0.0346 -1.2695
  966MOL0     H30393   6.634   7.345  12.472 -0.1973  2.1452 -0.3481
  966MOL0     H30394   7.173   7.097  12.625 -0.9868  1.8135 -0.6158
  966MOL0     H30395   7.342   6.975  12.494 -1.1373 -1.8477  2.7535
  966MOL0     H30396   8.358   5.920  11.087  1.0749 -0.3259  0.1629
  966MOL0     H30397   8.491   5.810  10.921  0.1656  1.7785 -0.4994
  966MOL0     H30398   8.990   5.623  10.933 -0.8039 -1.2840 -0.0561
  966MOL0     H30399   9.170   5.557  10.814  0.5070  1.1347 -0.2101
  966MOL0     H30400   9.129   5.518  10.369  0.9136 -3.6931 -1.2071
  966MOL0     H30401   9.243   5.595  10.467 -0.1336 -0.4482  0.4337
  966MOL0     H30402   9.393   5.399  10.449  0.8132  1.7710  0.7600
  966MOL0     H30403   9.344   5.458  10.280 -0.0369  3.1429  1.4426
  966MOL0     H30404   9.169   5.238  10.374 -0.0709 -1.6965  1.2068
  966MOL0     H30405   9.340   5.194  10.408  1.5222 -2.0506 -3.7491
  966MOL0     H30406   9.386   5.236  10.157 -0.5697  2.0480 -2.1535
  966MOL0     H30407   9.211   5.277  10.140 -0.1284 -0.0400 -0.0469
  966MOL0     H30408   9.185   4.862  10.153  1.0733 -0.0208  2.4364
  966MOL0     H30409   8.914   5.501  10.464  0.8538  1.6811 -0.5270
  966MOL0     H30410   8.735   5.629  10.597 -0.8943  2.4089  4.1316
  967MOL0     O30411   0.136   8.709   5.826  0.0932  0.0579  0.2474
  967MOL0     C30412   0.121   8.645   5.718  0.8463 -0.0187 -0.1711
  967MOL0     O30413   0.013   8.559   5.693 -0.3208  0.0493 -0.8350
  967MOL0     C30414  -0.041   8.496   5.799  0.8514  0.0064  0.2393
  967MOL0     C30415  -0.172   8.469   5.786  0.1086 -0.6519  0.2636
  967MOL0     C30416  -0.250   8.387   5.865  0.1332 -0.1070 -0.2687
  967MOL0     C30417  -0.189   8.324   5.967  0.0599 -0.8903 -0.8394
  967MOL0     O30418  -0.262   8.242   6.047  0.0826  0.8687  0.1201
  967MOL0     C30419  -0.195   8.128   6.115  0.1355  0.7578  0.0197
  967MOL0     C30420  -0.284   8.006   6.139 -0.2374  0.3289  0.3193
  967MOL0     C30421  -0.361   8.028   6.279  0.6361 -0.3700  0.3505
  967MOL0     C30422  -0.491   8.121   6.279 -0.4256 -0.7707 -0.4691
  967MOL0     C30423  -0.553   8.107   6.420  0.8478 -0.0344  0.1440
  967MOL0     C30424  -0.624   8.231   6.476  0.1441 -0.1944 -0.6338
  967MOL0     C30425  -0.749   8.272   6.405  0.1371  0.8888 -0.2140
  967MOL0     C30426  -0.873   8.196   6.470  0.6324  0.9444 -1.4654
  967MOL0     N30427  -0.927   8.250   6.594 -0.1856 -0.3583  0.5238
  967MOL0     C30428  -1.040   8.208   6.654 -1.0542  1.2222 -0.3073
  967MOL0     C30429  -1.077   8.306   6.736  0.4094 -0.4639 -0.3671
  967MOL0     C30430  -1.211   8.303   6.808 -0.3857  0.0339 -0.0798
  967MOL0     C30431  -1.202   8.251   6.953 -0.2899  0.0007 -0.3664
  967MOL0     C30432  -1.121   8.345   7.049 -0.3590  0.1367  0.5026
  967MOL0     C30433  -1.004   8.271   7.109  0.2789  0.4722 -0.3257
  967MOL0     O30434  -1.078   8.191   7.206 -0.4571 -0.3314  0.1093
  967MOL0     C30435  -0.992   8.099   7.267  0.7892 -0.1633  0.2748
  967MOL0     C30436  -0.851   8.126   7.284  0.6665  0.3193  0.3421
  967MOL0     C30437  -0.778   8.030   7.348 -0.9912  0.0098  0.3360
  967MOL0     C30438  -0.625   8.067   7.370 -0.2526  0.4120  0.1145
  967MOL0     C30439  -0.831   7.907   7.388 -0.0514  0.4881  0.0127
  967MOL0     C30440  -0.750   7.788   7.454  0.4047 -0.4701 -0.1811
  967MOL0     O30441  -0.818   7.669   7.483 -0.3543  0.1251  0.0579
  967MOL0     C30442  -0.726   7.576   7.536  0.4980  1.4719 -1.1353
  967MOL0     C30443  -0.735   7.570   7.678 -0.3213  0.4563  0.1456
  967MOL0     C30444  -0.650   7.507   7.767 -0.5501  0.7466  0.3358
  967MOL0     C30445  -0.538   7.437   7.717 -0.3543  0.1166  0.6324
  967MOL0     O30446  -0.475   7.357   7.811 -0.2711  0.6292  0.5103
  967MOL0     C30447  -0.354   7.291   7.778 -0.2748  0.7178  0.6015
  967MOL0     C30448  -0.276   7.281   7.909  0.1759 -0.1278  0.8147
  967MOL0     C30449  -0.140   7.227   7.882 -0.4235  0.1218  0.3668
  967MOL0     C30450  -0.040   7.309   7.975 -0.6971  0.2687  0.0693
  967MOL0     C30451   0.102   7.245   7.953  0.0071 -0.1288 -0.5585
  967MOL0     C30452   0.206   7.320   8.028  0.1052  0.1370 -0.2093
  967MOL0     C30453   0.341   7.245   8.008 -0.3273 -0.8686 -0.6037
  967MOL0     C30454   0.462   7.326   8.039 -0.4328  0.5269  0.2591
  967MOL0    Cl30455   0.505   7.449   7.922 -0.6014  0.3417  0.0936
  967MOL0     C30456  -0.518   7.441   7.572  0.0021 -0.4479  0.2448
  967MOL0     C30457  -0.608   7.516   7.489 -0.3427  0.1803  0.2165
  967MOL0     O30458  -0.638   7.825   7.491  0.0367 -0.7159 -0.2810
  967MOL0     C30459  -0.973   7.887   7.369  0.2627  1.2446  0.0045
  967MOL0     C30460  -1.051   7.981   7.315 -0.1470 -0.5901 -0.2043
  967MOL0     N30461  -0.987   8.412   6.727 -0.5422 -0.1062 -0.1765
  967MOL0     N30462  -0.898   8.373   6.638  0.6008  0.0293  0.5343
  967MOL0     C30463  -0.046   8.352   5.986 -0.9398  0.0075 -1.0255
  967MOL0     C30464   0.028   8.425   5.897  0.1754 -0.8046  0.7666
  967MOL0     C30465   0.224   8.671   5.613 -0.9315 -0.3968  0.2013
  967MOL0     C30466   0.234   8.600   5.497 -0.1559 -0.0128  0.0572
  967MOL0     C30467   0.326   8.634   5.398  0.2899  0.9923  0.2512
  967MOL0     C30468   0.422   8.731   5.418 -0.0543 -0.9065 -0.3511
  967MOL0     O30469   0.521   8.755   5.323 -0.2067 -0.1534  0.0961
  967MOL0     C30470   0.658   8.741   5.350 -0.2523 -0.5607 -0.0531
  967MOL0     C30471   0.683   8.613   5.428 -0.1836  0.5024 -0.2440
  967MOL0     C30472   0.650   8.495   5.333  0.0072  0.0448  0.4775
  967MOL0     C30473   0.676   8.356   5.409 -0.1049  0.2308  1.0528
  967MOL0     C30474   0.561   8.345   5.508 -0.2163  0.0920  1.4907
  967MOL0     C30475   0.480   8.340   5.605 -0.2046 -0.6742 -0.5807
  967MOL0     C30476   0.419   8.812   5.541 -0.2129 -0.4347  0.5313
  967MOL0     C30477   0.321   8.779   5.633  0.6530 -0.5327  0.1202
  967MOL0     H30478  -0.225   8.490   5.693  0.0106 -3.1987 -0.3392
  967MOL0     H30479  -0.356   8.369   5.846  0.3032 -0.5928 -0.7939
  967MOL0     H30480  -0.105   8.104   6.057  1.9451  2.9529  1.7117
  967MOL0     H30481  -0.159   8.167   6.211 -1.8204  0.5053  0.9004
  967MOL0     H30482  -0.358   7.996   6.060 -2.2105  1.8316  1.8438
  967MOL0     H30483  -0.206   7.929   6.141  0.1292  0.6094  3.8396
  967MOL0     H30484  -0.396   7.935   6.326  1.7906 -0.8935  0.2020
  967MOL0     H30485  -0.287   8.069   6.349 -0.0779  2.2628 -0.3141
  967MOL0     H30486  -0.456   8.223   6.262 -1.2901 -0.3651  0.1151
  967MOL0     H30487  -0.553   8.095   6.192  1.4423  2.5049 -3.0050
  967MOL0     H30488  -0.622   8.024   6.402  1.8124 -0.5486 -1.3824
  967MOL0     H30489  -0.483   8.076   6.498  2.2435  0.2572 -0.9400
  967MOL0     H30490  -0.642   8.224   6.583 -1.7557  3.0875 -0.6190
  967MOL0     H30491  -0.560   8.319   6.469 -0.5106  0.1884 -2.7627
  967MOL0     H30492  -0.749   8.381   6.401  1.0196  0.8939 -0.3730
  967MOL0     H30493  -0.745   8.241   6.300  0.6988 -0.8855  0.3033
  967MOL0     H30494  -0.845   8.094   6.496 -1.2578  0.6910 -0.1843
  967MOL0     H30495  -0.957   8.200   6.400  0.6682  5.0706 -1.5241
  967MOL0     H30496  -1.102   8.127   6.617 -2.0829  1.1067  1.5817
  967MOL0     H30497  -1.253   8.404   6.813  2.2394  1.1353  1.9995
  967MOL0     H30498  -1.272   8.222   6.766 -1.2059 -0.2758  1.5908
  967MOL0     H30499  -1.157   8.152   6.955 -1.8626 -0.7486 -0.8490
  967MOL0     H30500  -1.305   8.238   6.987  0.2035 -0.2243  1.1420
  967MOL0     H30501  -1.172   8.395   7.132  1.9927  1.4959  1.2184
  967MOL0     H30502  -1.091   8.427   6.982  0.9423 -0.8670 -0.1826
  967MOL0     H30503  -0.943   8.349   7.157  3.8527 -1.9255 -0.5700
  967MOL0     H30504  -0.946   8.215   7.035 -0.8925 -0.3531 -0.6374
  967MOL0     H30505  -0.796   8.210   7.243  1.3923 -0.7275 -0.9149
  967MOL0     H30506  -0.610   8.167   7.327 -1.0427  0.5222  0.0839
  967MOL0     H30507  -0.593   8.092   7.471  2.7091  0.1823 -0.6758
  967MOL0     H30508  -0.561   8.002   7.309 -0.3910 -0.3807  0.7994
  967MOL0     H30509  -0.817   7.618   7.731  0.7098  4.5232 -1.5132
  967MOL0     H30510  -0.673   7.491   7.871  2.8807 -0.3270  1.0465
  967MOL0     H30511  -0.370   7.202   7.716  0.3960  1.7922 -1.1779
  967MOL0     H30512  -0.294   7.352   7.711  1.8078 -0.6486  1.1407
  967MOL0     H30513  -0.278   7.377   7.962 -4.0872 -1.1778  2.9620
  967MOL0     H30514  -0.326   7.211   7.977  0.4164 -1.7326 -0.6089
  967MOL0     H30515  -0.113   7.231   7.776 -1.1024  0.3922  0.1949
  967MOL0     H30516  -0.151   7.122   7.909 -3.7422  0.1101 -0.5472
  967MOL0     H30517  -0.032   7.416   7.954  3.0595  0.0677 -0.2798
  967MOL0     H30518  -0.074   7.290   8.077 -0.6893  2.9667  0.6351
  967MOL0     H30519   0.130   7.242   7.847 -4.3958  3.1870 -2.1139
  967MOL0     H30520   0.094   7.141   7.986  2.1539 -0.5034 -1.0473
  967MOL0     H30521   0.204   7.428   8.008  0.7093 -0.0177 -1.1722
  967MOL0     H30522   0.175   7.323   8.133 -2.6468  1.1575 -0.9420
  967MOL0     H30523   0.356   7.206   7.907 -0.3192  1.1456 -1.4175
  967MOL0     H30524   0.344   7.157   8.073  1.3949  0.1392  0.7505
  967MOL0     H30525   0.548   7.262   8.060  0.2018  1.4645  0.5520
  967MOL0     H30526   0.454   7.364   8.141  0.2005 -0.5283  0.7141
  967MOL0     H30527  -0.445   7.384   7.514 -1.1234 -0.7491 -0.9112
  967MOL0     H30528  -0.595   7.508   7.381  1.2197  0.0596  0.3903
  967MOL0     H30529  -1.026   7.803   7.415  0.5308  1.8778  1.5302
  967MOL0     H30530  -1.158   7.974   7.298 -0.6606  2.5386  1.1326
  967MOL0     H30531   0.006   8.310   6.072 -0.6357  4.4059  1.2105
  967MOL0     H30532   0.135   8.416   5.906  1.3508  3.0047 -4.5214
  967MOL0     H30533   0.163   8.518   5.488  2.3414 -2.5605  1.6516
  967MOL0     H30534   0.329   8.581   5.303 -1.1380  0.5735  0.4195
  967MOL0     H30535   0.720   8.737   5.259 -1.2478  0.8533 -0.8323
  967MOL0     H30536   0.685   8.826   5.413 -5.1122  0.1932  1.4109
  967MOL0     H30537   0.619   8.623   5.517  0.3663  1.7229  0.0306
  967MOL0     H30538   0.786   8.607   5.463 -0.0992  0.7857 -0.4404
  967MOL0     H30539   0.711   8.501   5.243  0.3621  0.9733  0.7800
  967MOL0     H30540   0.545   8.504   5.304 -0.4764  0.4034  2.1991
  967MOL0     H30541   0.770   8.359   5.465 -0.3851  1.2011  1.4874
  967MOL0     H30542   0.681   8.279   5.331 -0.5456  1.0233  0.2292
  967MOL0     H30543   0.417   8.351   5.691  1.8521 -0.9881  1.0593
  967MOL0     H30544   0.481   8.900   5.552  1.3112 -1.1532 -1.5580
  967MOL0     H30545   0.317   8.835   5.726  1.7087  0.6521 -0.5083
  968MOL0     O30546   2.457   3.622   0.410 -0.6371 -0.5124  0.1147
  968MOL0     C30547   2.472   3.561   0.303 -0.0168 -0.3146 -0.5367
  968MOL0     O30548   2.391   3.561   0.194  0.3591  0.5176 -0.1449
  968MOL0     C30549   2.281   3.642   0.175  0.7278 -0.0078  0.2289
  968MOL0     C30550   2.213   3.634   0.051 -0.2669  0.8425  0.2991
  968MOL0     C30551   2.094   3.709   0.019  0.7269 -0.0286  0.6017
  968MOL0     C30552   2.040   3.802   0.109  0.1887 -0.0112 -0.9452
  968MOL0     O30553   1.925   3.875   0.077 -0.7035  0.1611 -0.3443
  968MOL0     C30554   1.853   3.955   0.169 -0.0570 -0.3283  0.3232
  968MOL0     C30555   1.899   4.092   0.220 -0.0126  0.0279 -0.9660
  968MOL0     C30556   1.940   4.211   0.126 -0.3710  0.0009  1.0953
  968MOL0     C30557   1.847   4.339   0.161  0.6604 -0.5555  0.8399
  968MOL0     C30558   1.699   4.303   0.126 -0.6347 -0.9173 -0.5662
  968MOL0     C30559   1.660   4.305  -0.022 -0.5070  0.5920 -0.6271
  968MOL0     C30560   1.532   4.227  -0.056 -1.0422 -0.2043  0.4732
  968MOL0     C30561   1.493   4.227  -0.201 -0.8009 -0.7270 -0.3903
  968MOL0     N30562   1.552   4.116  -0.275  0.2031  0.3553  0.8706
  968MOL0     C30563   1.474   4.017  -0.330  0.1420  0.7502 -1.3543
  968MOL0     C30564   1.538   3.965  -0.437 -0.5882  0.7135  1.2464
  968MOL0     C30565   1.512   3.839  -0.512 -0.1652  0.8591 -0.6165
  968MOL0     C30566   1.592   3.729  -0.443  0.5520  0.2869 -0.5249
  968MOL0     C30567   1.749   3.744  -0.462  0.1428  0.0318 -0.2906
  968MOL0     C30568   1.817   3.668  -0.347 -0.6337 -0.3453  0.5292
  968MOL0     O30569   1.952   3.631  -0.372 -0.2067  0.0075  0.2595
  968MOL0     C30570   2.054   3.727  -0.372 -0.2092  0.8834 -0.0748
  968MOL0     C30571   2.026   3.859  -0.341  0.2419  0.6428 -0.1483
  968MOL0     C30572   2.127   3.953  -0.346 -0.2538 -0.5480  0.2791
  968MOL0     C30573   2.106   4.087  -0.279 -0.0316  0.7002  0.2200
  968MOL0     C30574   2.256   3.922  -0.398 -0.7912 -0.7774 -0.1039
  968MOL0     C30575   2.367   4.024  -0.421 -0.3764 -0.0993 -0.7537
  968MOL0     O30576   2.325   4.155  -0.458 -0.2340  0.1638 -0.2505
  968MOL0     C30577   2.395   4.262  -0.406 -1.0347  0.9295 -0.0503
  968MOL0     C30578   2.344   4.382  -0.455 -0.7846  0.7615  0.0336
  968MOL0     C30579   2.397   4.497  -0.394  1.0201 -0.6526 -0.3413
  968MOL0     C30580   2.497   4.490  -0.299 -0.6186 -0.2245  0.0884
  968MOL0     O30581   2.542   4.613  -0.254  0.3104  0.3279  0.9683
  968MOL0     C30582   2.657   4.608  -0.166 -1.2045  0.0179  0.3318
  968MOL0     C30583   2.720   4.737  -0.192  0.5375  0.5621 -1.4101
  968MOL0     C30584   2.867   4.749  -0.149  1.2449 -0.1830  0.0126
  968MOL0     C30585   2.888   4.757   0.001 -0.4753  0.4169  0.9929
  968MOL0     C30586   2.821   4.872   0.065 -0.6704  1.1838 -1.0662
  968MOL0     C30587   2.883   4.882   0.202  1.2650 -0.0474 -1.0239
  968MOL0     C30588   2.800   4.966   0.292  0.0195  0.1037 -0.8480
  968MOL0     C30589   2.828   5.117   0.255  0.0037  0.6029 -0.9801
  968MOL0    Cl30590   2.666   5.202   0.283  0.1194  0.5432  0.1113
  968MOL0     C30591   2.535   4.367  -0.243 -0.2712  0.8749  0.2876
  968MOL0     C30592   2.487   4.249  -0.303  0.3210  0.0125 -0.2105
  968MOL0     O30593   2.481   3.991  -0.423  1.2807 -0.2591 -0.2756
  968MOL0     C30594   2.277   3.795  -0.438 -0.1840 -0.2772  0.1767
  968MOL0     C30595   2.183   3.699  -0.415  1.0485 -0.0333  0.5824
  968MOL0     N30596   1.654   4.051  -0.458  0.8375  1.1101 -1.0368
  968MOL0     N30597   1.655   4.129  -0.355 -0.4605 -0.3224 -0.2095
  968MOL0     C30598   2.112   3.814   0.227  0.6635 -0.3640  0.5627
  968MOL0     C30599   2.227   3.739   0.259  0.0679  0.1551  0.1406
  968MOL0     C30600   2.604   3.489   0.297  0.9966  0.2325  0.0242
  968MOL0     C30601   2.625   3.393   0.200 -0.5713 -0.7622 -0.3890
  968MOL0     C30602   2.742   3.321   0.192 -0.6086 -1.1039  0.3082
  968MOL0     C30603   2.845   3.326   0.293 -0.0749 -1.2142  0.5894
  968MOL0     O30604   2.946   3.234   0.291  0.3378 -0.1492 -0.3123
  968MOL0     C30605   3.037   3.220   0.403 -0.4617 -0.6023 -0.5413
  968MOL0     C30606   3.162   3.140   0.344  1.3233 -0.1749 -0.8600
  968MOL0     C30607   3.216   3.175   0.209  0.7866 -0.4083 -0.1266
  968MOL0     C30608   3.312   3.074   0.174  0.8477 -0.0941  0.8299
  968MOL0     C30609   3.374   3.087   0.042  0.5326  1.0580  0.3313
  968MOL0     C30610   3.434   3.096  -0.061 -0.2500 -0.0834 -0.1072
  968MOL0     C30611   2.813   3.418   0.396  0.9978 -0.0678 -0.3816
  968MOL0     C30612   2.696   3.502   0.405 -0.1452  0.2489 -0.2568
  968MOL0     H30613   2.244   3.567  -0.029 -2.4611  0.3125 -0.1905
  968MOL0     H30614   2.041   3.676  -0.070  0.0862  1.7207  0.2802
  968MOL0     H30615   1.767   3.979   0.107  3.2486 -1.5071 -5.5070
  968MOL0     H30616   1.819   3.890   0.250  2.1264 -0.5545  1.1376
  968MOL0     H30617   1.820   4.120   0.290 -2.7504 -6.7925 -0.5667
  968MOL0     H30618   1.989   4.074   0.280  1.0160 -0.4805 -2.5847
  968MOL0     H30619   2.047   4.234   0.136 -0.2186  0.1177 -0.5360
  968MOL0     H30620   1.927   4.197   0.018  1.1141 -3.1759  1.2134
  968MOL0     H30621   1.857   4.366   0.267  2.9976  1.2258  0.2363
  968MOL0     H30622   1.869   4.428   0.101 -0.6114  0.6868  2.1154
  968MOL0     H30623   1.669   4.204   0.163  0.1034 -0.4276  1.4703
  968MOL0     H30624   1.627   4.369   0.176 -0.8105 -1.4714 -0.0624
  968MOL0     H30625   1.650   4.411  -0.049  3.5173  0.1881 -5.2276
  968MOL0     H30626   1.744   4.267  -0.081 -2.0315 -5.4391  0.4186
  968MOL0     H30627   1.557   4.123  -0.033  1.2290  0.2326  0.1866
  968MOL0     H30628   1.439   4.262  -0.009 -0.2517  4.3859 -0.9697
  968MOL0     H30629   1.527   4.320  -0.247 -0.3478  0.6957  2.6262
  968MOL0     H30630   1.385   4.216  -0.210 -0.9886  0.7894 -0.1361
  968MOL0     H30631   1.383   3.979  -0.285  1.5486 -0.3033  0.7620
  968MOL0     H30632   1.407   3.808  -0.516 -0.2011  0.9076 -0.1296
  968MOL0     H30633   1.552   3.858  -0.612 -0.0506 -2.6744 -1.3484
  968MOL0     H30634   1.557   3.635  -0.489 -0.4354  0.8615 -0.9797
  968MOL0     H30635   1.568   3.729  -0.337 -2.7256 -2.7221 -1.0454
  968MOL0     H30636   1.773   3.849  -0.445  0.4248 -0.3416  1.9896
  968MOL0     H30637   1.787   3.714  -0.560  1.4116  1.5031 -0.2853
  968MOL0     H30638   1.774   3.573  -0.313 -1.6066 -0.3734 -0.7136
  968MOL0     H30639   1.814   3.727  -0.255  0.0243 -0.6876  0.7764
  968MOL0     H30640   1.931   3.892  -0.302  0.3150 -0.1793  0.7440
  968MOL0     H30641   2.185   4.115  -0.210 -0.0690  2.5266 -0.4196
  968MOL0     H30642   2.104   4.165  -0.356 -0.6542  0.5449  0.0707
  968MOL0     H30643   2.015   4.098  -0.220 -0.4953  0.2143 -0.3844
  968MOL0     H30644   2.286   4.382  -0.547 -0.1987 -0.4076 -0.3520
  968MOL0     H30645   2.369   4.595  -0.432  2.4367 -1.0732 -2.6130
  968MOL0     H30646   2.630   4.585  -0.062  0.0845  2.6773  1.3278
  968MOL0     H30647   2.739   4.540  -0.191  2.3828  3.6356  1.3417
  968MOL0     H30648   2.726   4.758  -0.299  1.4214  2.8286 -0.9808
  968MOL0     H30649   2.660   4.816  -0.146  1.5987  0.6500 -0.1182
  968MOL0     H30650   2.899   4.846  -0.187 -3.3541  1.5398 -0.1696
  968MOL0     H30651   2.924   4.669  -0.196  3.6961  0.5007  1.6301
  968MOL0     H30652   2.865   4.657   0.038  4.1239 -2.0186 -1.6921
  968MOL0     H30653   2.997   4.764   0.012 -0.4037 -0.8959  1.2991
  968MOL0     H30654   2.716   4.841   0.074 -0.2682  0.3734  1.7926
  968MOL0     H30655   2.843   4.941  -0.017  0.3129 -1.1942 -2.9002
  968MOL0     H30656   2.881   4.779   0.241  0.2074  0.5360  0.5555
  968MOL0     H30657   2.988   4.914   0.200  0.6484  2.0437 -1.9083
  968MOL0     H30658   2.828   4.947   0.396 -2.9706  2.2511  0.4920
  968MOL0     H30659   2.696   4.935   0.279 -0.5065  0.3087  2.1136
  968MOL0     H30660   2.857   5.146   0.153 -0.7063  1.4620 -0.9540
  968MOL0     H30661   2.907   5.170   0.310  0.1200 -0.7280  0.1891
  968MOL0     H30662   2.615   4.352  -0.172  3.3483  2.8481 -2.9675
  968MOL0     H30663   2.520   4.157  -0.257 -1.3330  0.1373  1.3598
  968MOL0     H30664   2.374   3.760  -0.473 -0.1887  0.5832 -0.7506
  968MOL0     H30665   2.191   3.594  -0.442 -3.8567 -1.0136  1.9889
  968MOL0     H30666   2.085   3.878   0.311 -3.7704 -1.3674  0.1839
  968MOL0     H30667   2.268   3.749   0.359  3.4687 -1.0735 -0.9998
  968MOL0     H30668   2.555   3.379   0.118  1.0863 -3.3385 -1.4905
  968MOL0     H30669   2.740   3.254   0.106 -1.2516  0.7841 -1.2251
  968MOL0     H30670   3.085   3.316   0.428  0.7466 -1.7841  2.0885
  968MOL0     H30671   2.999   3.164   0.489  0.0482 -0.0782  0.0321
  968MOL0     H30672   3.132   3.035   0.355 -1.1032  0.6341  1.4953
  968MOL0     H30673   3.244   3.156   0.414  0.2033  0.3218  0.3751
  968MOL0     H30674   3.249   3.278   0.225  3.2629 -1.0550 -0.7595
  968MOL0     H30675   3.140   3.181   0.131 -0.1249  1.6252  0.8322
  968MOL0     H30676   3.273   2.971   0.179  0.6198 -0.0250  0.5548
  968MOL0     H30677   3.393   3.077   0.247 -0.2619  1.6141  2.0594
  968MOL0     H30678   3.497   3.106  -0.147  1.9605 -0.7379  1.3395
  968MOL0     H30679   2.885   3.434   0.476  3.3995 -2.2714 -1.9226
  968MOL0     H30680   2.680   3.571   0.487 -0.2442 -0.8957  0.7309
  969MOL0     O30681   4.656   4.553   9.487 -1.3151  0.1967 -0.7193
  969MOL0     C30682   4.728   4.468   9.550  0.4464  0.5040  0.2466
  969MOL0     O30683   4.858   4.475   9.582 -0.2571  0.1584  0.0087
  969MOL0     C30684   4.932   4.584   9.533  0.3591 -0.1615 -0.7189
  969MOL0     C30685   5.048   4.563   9.471  1.3084  0.7216 -0.0831
  969MOL0     C30686   5.123   4.675   9.432  0.2314 -0.3068  0.6408
  969MOL0     C30687   5.079   4.808   9.446  0.1862 -0.1430 -0.3291
  969MOL0     O30688   5.162   4.906   9.388  0.7165  0.2141 -0.0918
  969MOL0     C30689   5.121   5.045   9.427  0.1307 -0.9426 -0.0001
  969MOL0     C30690   5.226   5.133   9.354 -0.1469 -0.5063  0.1189
  969MOL0     C30691   5.369   5.121   9.399 -0.1453  0.0351  0.1423
  969MOL0     C30692   5.440   5.215   9.310 -0.4778  0.6043 -0.0710
  969MOL0     C30693   5.587   5.202   9.332  0.4836  0.6389 -0.3416
  969MOL0     C30694   5.653   5.309   9.250  0.3246  0.5765 -0.0857
  969MOL0     C30695   5.802   5.287   9.228 -0.5840 -0.8284  1.4668
  969MOL0     C30696   5.876   5.303   9.366 -0.6797  0.5281  0.6317
  969MOL0     N30697   6.004   5.245   9.379  0.0403 -0.6098 -1.1181
  969MOL0     C30698   6.110   5.270   9.298 -0.0514  0.5664  0.1774
  969MOL0     C30699   6.199   5.175   9.331  0.7055 -0.6499 -0.5285
  969MOL0     C30700   6.329   5.171   9.258 -0.3296  0.0507 -0.1648
  969MOL0     C30701   6.443   5.228   9.333  0.2637 -0.9206  0.5221
  969MOL0     C30702   6.411   5.373   9.371  0.3410 -0.1407  0.3571
  969MOL0     C30703   6.532   5.456   9.416  0.4254 -0.5509  1.0976
  969MOL0     O30704   6.483   5.579   9.460 -0.5387 -0.7589 -0.0887
  969MOL0     C30705   6.532   5.688   9.391  0.4763  0.3021  0.7197
  969MOL0     C30706   6.666   5.711   9.358 -0.8087 -0.4258  0.1388
  969MOL0     C30707   6.701   5.827   9.299 -1.0878  0.0121 -0.6967
  969MOL0     C30708   6.842   5.835   9.247  0.2633 -0.5225 -0.1702
  969MOL0     C30709   6.609   5.927   9.280 -0.1003 -0.2441  0.0783
  969MOL0     C30710   6.643   6.059   9.230  0.6016  0.4134  0.5158
  969MOL0     O30711   6.540   6.117   9.160  0.1749  0.1609 -0.0763
  969MOL0     C30712   6.560   6.248   9.127  1.4302  0.7824  0.6255
  969MOL0     C30713   6.649   6.279   9.023  0.7645  0.0131  0.4338
  969MOL0     C30714   6.657   6.410   8.973  0.4991 -0.3508  0.0422
  969MOL0     C30715   6.584   6.512   9.041  1.8500 -0.1217  0.6362
  969MOL0     O30716   6.593   6.643   8.997 -0.1811 -0.2132 -0.0409
  969MOL0     C30717   6.544   6.759   9.081 -0.1663  0.4666 -0.1589
  969MOL0     C30718   6.528   6.886   9.002  0.7586  0.3388  0.5947
  969MOL0     C30719   6.488   7.016   9.066 -0.1338 -0.5202 -0.2983
  969MOL0     C30720   6.344   6.994   9.118 -0.4111  1.0035 -0.4152
  969MOL0     C30721   6.276   7.114   9.174  0.7625  0.2278  0.0341
  969MOL0     C30722   6.162   7.082   9.278  0.1209 -0.1217  0.5585
  969MOL0     C30723   6.066   6.970   9.228 -0.0114  0.0246  0.1965
  969MOL0     C30724   5.976   6.929   9.343 -1.1494 -0.0751 -0.7040
  969MOL0    Cl30725   5.889   7.071   9.419 -0.5680  0.0853 -0.0120
  969MOL0     C30726   6.504   6.473   9.157  0.4718 -0.0807 -0.0770
  969MOL0     C30727   6.493   6.338   9.204  0.3219 -0.4286  0.2739
  969MOL0     O30728   6.752   6.109   9.243 -0.0349  0.1799  0.2145
  969MOL0     C30729   6.479   5.906   9.321  1.1059  0.6895 -0.7313
  969MOL0     C30730   6.440   5.795   9.385  0.0836 -0.2074 -0.4167
  969MOL0     N30731   6.159   5.108   9.443 -0.5858 -0.0307 -0.2944
  969MOL0     N30732   6.041   5.150   9.464  0.0812 -0.1555  0.5043
  969MOL0     C30733   4.963   4.829   9.521  0.1399 -0.2261  1.1822
  969MOL0     C30734   4.885   4.715   9.562  0.0253  0.1412  0.3081
  969MOL0     C30735   4.661   4.349   9.602  0.1109  0.0716 -0.4035
  969MOL0     C30736   4.709   4.280   9.717 -0.5654  0.5136 -0.4566
  969MOL0     C30737   4.662   4.154   9.759  0.5414  0.8300 -0.1544
  969MOL0     C30738   4.561   4.096   9.681  1.0579  0.9751  0.5118
  969MOL0     O30739   4.527   3.968   9.686  0.6279  0.3667 -0.3956
  969MOL0     C30740   4.575   3.878   9.787 -0.6093 -0.1159  0.0464
  969MOL0     C30741   4.476   3.874   9.914 -0.5559 -0.2176  0.0555
  969MOL0     C30742   4.486   3.982  10.016 -0.3619 -0.0957 -0.7237
  969MOL0     C30743   4.378   3.985  10.129  0.4810 -0.7998  0.3942
  969MOL0     C30744   4.395   4.104  10.213 -0.0277 -0.9257  0.7794
  969MOL0     C30745   4.417   4.204  10.278  0.3401  0.4770 -0.0873
  969MOL0     C30746   4.508   4.173   9.582 -0.5774 -0.9617  0.4281
  969MOL0     C30747   4.560   4.292   9.544  0.4823  0.4863  0.8041
  969MOL0     H30748   5.068   4.457   9.459 -3.1008 -0.1934 -1.1282
  969MOL0     H30749   5.222   4.657   9.391 -0.8117  0.1925 -2.3503
  969MOL0     H30750   5.025   5.077   9.385 -0.2423  1.1639  2.1939
  969MOL0     H30751   5.122   5.063   9.535 -1.5119 -1.4323  0.1229
  969MOL0     H30752   5.219   5.112   9.247  0.4206 -2.2399  0.3893
  969MOL0     H30753   5.199   5.239   9.361  5.2794  1.0595  2.7126
  969MOL0     H30754   5.400   5.140   9.503  2.7443 -1.8516 -0.2466
  969MOL0     H30755   5.396   5.018   9.374 -2.5709 -0.4880 -0.5724
  969MOL0     H30756   5.422   5.199   9.204  0.8888 -0.5512 -0.1573
  969MOL0     H30757   5.408   5.318   9.330 -0.8846  1.2427 -3.4072
  969MOL0     H30758   5.606   5.208   9.440  1.4092 -0.7044 -0.4009
  969MOL0     H30759   5.625   5.106   9.295  0.9566  0.9943 -0.7939
  969MOL0     H30760   5.600   5.323   9.155 -2.9671 -3.1806  0.9082
  969MOL0     H30761   5.626   5.401   9.303  0.2829  0.5344 -0.0340
  969MOL0     H30762   5.819   5.191   9.178 -1.5436  0.1685 -0.9000
  969MOL0     H30763   5.843   5.373   9.176  0.6985 -2.5075 -0.4725
  969MOL0     H30764   5.816   5.272   9.452 -0.1229 -2.0832  0.1615
  969MOL0     H30765   5.877   5.410   9.388 -2.3534  0.4598  1.1394
  969MOL0     H30766   6.113   5.341   9.216  1.2285  0.9827  0.5709
  969MOL0     H30767   6.346   5.064   9.238 -0.1266 -0.1817  1.1498
  969MOL0     H30768   6.317   5.229   9.166 -2.4790  1.1276  0.7374
  969MOL0     H30769   6.528   5.236   9.264 -0.7587 -1.7214 -0.8524
  969MOL0     H30770   6.475   5.172   9.421  1.2675 -1.2402 -0.0268
  969MOL0     H30771   6.328   5.377   9.442 -0.9403 -2.5698 -0.8541
  969MOL0     H30772   6.388   5.436   9.284  1.8941 -0.0818 -0.0373
  969MOL0     H30773   6.606   5.472   9.337 -0.8970 -0.0991 -0.0963
  969MOL0     H30774   6.584   5.404   9.497  2.3867  1.5374  1.2643
  969MOL0     H30775   6.745   5.637   9.371 -0.7498 -0.1743  1.3455
  969MOL0     H30776   6.916   5.887   9.308 -0.6679 -0.2297  0.7391
  969MOL0     H30777   6.892   5.739   9.232 -0.1119 -0.5408 -1.4580
  969MOL0     H30778   6.839   5.880   9.147 -0.1905 -0.5293 -0.1608
  969MOL0     H30779   6.699   6.207   8.958 -0.4536 -0.5755  0.1303
  969MOL0     H30780   6.709   6.439   8.882  0.7352  1.4145  0.7019
  969MOL0     H30781   6.450   6.727   9.127  1.2105 -1.6530  1.3741
  969MOL0     H30782   6.611   6.763   9.168 -1.2593 -2.7647  0.9967
  969MOL0     H30783   6.625   6.908   8.955  1.8076  3.3031  3.7404
  969MOL0     H30784   6.450   6.861   8.930  3.0788 -2.2806 -1.2132
  969MOL0     H30785   6.500   7.101   8.998 -2.6004 -0.8132 -1.1837
  969MOL0     H30786   6.557   7.048   9.145  0.2139  0.7541 -1.0961
  969MOL0     H30787   6.273   6.946   9.050 -0.7835  2.0763 -0.8009
  969MOL0     H30788   6.360   6.919   9.196 -3.3951  1.9509  1.2847
  969MOL0     H30789   6.245   7.174   9.087  0.3446 -1.6057 -1.1362
  969MOL0     H30790   6.348   7.177   9.227 -1.9840  2.7630  1.0861
  969MOL0     H30791   6.212   7.046   9.368 -0.3352 -1.8753  0.1427
  969MOL0     H30792   6.102   7.173   9.274 -0.7182 -0.7192 -2.5527
  969MOL0     H30793   6.118   6.885   9.183  1.2738  0.7516  0.2475
  969MOL0     H30794   5.999   7.012   9.152 -0.7747 -1.5113 -0.0260
  969MOL0     H30795   6.036   6.870   9.412  0.4374  2.2510  0.0007
  969MOL0     H30796   5.901   6.861   9.301  0.8087 -3.0960  0.3867
  969MOL0     H30797   6.442   6.551   9.202  0.5243  0.8640 -1.5959
  969MOL0     H30798   6.435   6.311   9.291 -1.7150  0.1475 -0.8302
  969MOL0     H30799   6.394   5.973   9.313 -1.9090 -2.2786  2.7258
  969MOL0     H30800   6.339   5.779   9.420  0.5511  0.8190  1.5353
  969MOL0     H30801   4.912   4.923   9.541 -0.5333 -0.1820 -0.5609
  969MOL0     H30802   4.796   4.722   9.623 -0.3443 -0.9123 -0.0999
  969MOL0     H30803   4.793   4.321   9.773 -1.5768  0.9780  0.7736
  969MOL0     H30804   4.697   4.115   9.854  0.1882  0.3666 -0.2131
  969MOL0     H30805   4.569   3.777   9.746  2.4378 -0.0403 -0.8058
  969MOL0     H30806   4.683   3.892   9.798 -0.4577  0.6676 -1.9329
  969MOL0     H30807   4.478   3.779   9.968 -0.3321 -1.2195 -1.6339
  969MOL0     H30808   4.373   3.894   9.881 -0.6385  1.6046  1.2787
  969MOL0     H30809   4.488   4.077   9.961 -0.2852  1.2495  1.4810
  969MOL0     H30810   4.574   3.985  10.081 -3.1779  0.7198  3.4920
  969MOL0     H30811   4.385   3.893  10.187 -1.2656 -2.4238 -1.7544
  969MOL0     H30812   4.276   3.992  10.089 -0.9157 -3.1619  3.1886
  969MOL0     H30813   4.441   4.287  10.341  2.8019  1.6715 -2.3646
  969MOL0     H30814   4.423   4.122   9.539 -0.7717 -0.2178 -0.0811
  969MOL0     H30815   4.508   4.345   9.465  4.2738  1.2201 -1.4606
  970MOL0     O30816   5.820   8.070   3.208  0.8121  0.3732  0.9692
  970MOL0     C30817   5.825   7.953   3.178  0.9256  0.7791 -0.1442
  970MOL0     O30818   5.856   7.894   3.057 -0.0824  0.3128  0.4930
  970MOL0     C30819   5.880   7.978   2.942  0.1905 -0.5613 -0.1121
  970MOL0     C30820   5.774   8.051   2.890  0.3117  0.6813 -0.2294
  970MOL0     C30821   5.776   8.103   2.757  0.6606  0.2743  0.4308
  970MOL0     C30822   5.904   8.106   2.686  0.2061  0.2789 -0.2546
  970MOL0     O30823   5.905   8.168   2.563 -0.1411 -0.0376 -0.0654
  970MOL0     C30824   6.031   8.193   2.498  0.7850  0.8234  0.6744
  970MOL0     C30825   6.039   8.346   2.474  0.1833 -0.1471  0.0172
  970MOL0     C30826   6.065   8.430   2.602 -0.6947  0.0117  0.1112
  970MOL0     C30827   5.962   8.537   2.636 -1.0063  0.2169  0.3317
  970MOL0     C30828   5.991   8.599   2.772 -0.1922 -1.2318 -0.5330
  970MOL0     C30829   5.944   8.515   2.895  0.5807 -1.2740  0.4639
  970MOL0     C30830   5.790   8.497   2.899 -0.2820  0.0338 -0.2278
  970MOL0     C30831   5.740   8.416   3.018  1.1945 -0.2794  0.3886
  970MOL0     N30832   5.599   8.379   3.001 -0.0764 -1.5954  0.4177
  970MOL0     C30833   5.510   8.382   3.103 -0.3332  0.0251 -0.5826
  970MOL0     C30834   5.414   8.288   3.072  0.0162  1.0262  0.0891
  970MOL0     C30835   5.297   8.248   3.152 -0.2418 -0.5008  0.1019
  970MOL0     C30836   5.344   8.130   3.253 -0.4013  0.6082  0.5167
  970MOL0     C30837   5.418   8.010   3.186  1.0592  0.6742 -0.7568
  970MOL0     C30838   5.473   7.928   3.305  0.6796  0.9039 -0.8535
  970MOL0     O30839   5.371   7.895   3.411 -0.5872 -0.4313 -0.1255
  970MOL0     C30840   5.373   7.760   3.425  0.9059 -0.9826  0.2512
  970MOL0     C30841   5.413   7.713   3.546 -0.0792 -0.4654  0.0802
  970MOL0     C30842   5.427   7.575   3.573  0.5978  0.0656  0.2840
  970MOL0     C30843   5.469   7.539   3.718  1.4175 -0.1232  0.4328
  970MOL0     C30844   5.379   7.484   3.476 -0.4036  0.1384 -0.8783
  970MOL0     C30845   5.365   7.348   3.505  0.4666  0.0919 -1.1856
  970MOL0     O30846   5.366   7.268   3.392  0.5725 -0.0168 -0.0955
  970MOL0     C30847   5.272   7.161   3.369 -0.6505 -0.3353 -0.1527
  970MOL0     C30848   5.149   7.155   3.434 -0.3039  0.2254 -0.4450
  970MOL0     C30849   5.051   7.065   3.393  0.5308 -0.1423 -0.5901
  970MOL0     C30850   5.068   6.970   3.292  0.8900 -0.0686  1.1027
  970MOL0     O30851   4.970   6.880   3.258 -0.8324 -0.1924 -0.0719
  970MOL0     C30852   4.937   6.879   3.124  0.5256  0.0593 -1.5187
  970MOL0     C30853   4.816   6.782   3.110 -0.2394 -0.9075 -0.7712
  970MOL0     C30854   4.776   6.767   2.957 -0.2846  0.6353 -1.0926
  970MOL0     C30855   4.845   6.648   2.882 -0.1911 -0.6350 -0.1000
  970MOL0     C30856   4.813   6.665   2.733  0.5722  0.0604 -0.1532
  970MOL0     C30857   4.926   6.620   2.643 -0.1833  0.6482  1.3382
  970MOL0     C30858   4.907   6.661   2.494 -0.2017 -0.8780  0.4126
  970MOL0     C30859   5.009   6.616   2.387  0.1197  0.1014 -0.0675
  970MOL0    Cl30860   4.947   6.660   2.225  0.1628 -0.0326  0.3085
  970MOL0     C30861   5.195   6.981   3.227  0.0098 -0.2996  0.0550
  970MOL0     C30862   5.292   7.076   3.258  0.6263  0.4943  0.6331
  970MOL0     O30863   5.349   7.313   3.625  0.6707  0.0038  0.5488
  970MOL0     C30864   5.331   7.543   3.356  0.6818  0.4047  0.7612
  970MOL0     C30865   5.332   7.676   3.323  0.6567  0.4753 -0.1174
  970MOL0     N30866   5.451   8.232   2.951  0.9128  0.1292  0.0301
  970MOL0     N30867   5.555   8.292   2.912 -0.3453  0.0459 -0.2513
  970MOL0     C30868   6.012   8.042   2.743 -0.4006  0.4428 -0.0283
  970MOL0     C30869   6.002   7.988   2.868  0.0182  1.2724 -0.5224
  970MOL0     C30870   5.810   7.863   3.300 -0.8992  0.5369 -1.2410
  970MOL0     C30871   5.815   7.915   3.436  1.0826  1.0353  0.5959
  970MOL0     C30872   5.814   7.819   3.538 -0.0118  0.6111 -0.8675
  970MOL0     C30873   5.811   7.679   3.512  0.5244 -0.1019 -0.2886
  970MOL0     O30874   5.791   7.572   3.595 -0.1464 -0.5280 -0.2487
  970MOL0     C30875   5.850   7.587   3.730  0.1820  0.1057  0.2716
  970MOL0     C30876   5.828   7.470   3.816  0.3998 -0.6657 -0.8225
  970MOL0     C30877   5.895   7.351   3.756  0.2347 -1.0016 -0.0820
  970MOL0     C30878   5.935   7.248   3.859  0.1558  0.6631  0.4285
  970MOL0     C30879   6.016   7.140   3.799  0.8198 -0.6715  0.5570
  970MOL0     C30880   6.081   7.051   3.761 -0.2794 -0.1560  0.1810
  970MOL0     C30881   5.810   7.638   3.378 -0.1731 -0.5763  0.2836
  970MOL0     C30882   5.815   7.729   3.277 -0.1653 -0.8978  0.3887
  970MOL0     H30883   5.682   8.053   2.947 -0.1705 -2.6173 -0.6856
  970MOL0     H30884   5.699   8.171   2.722  2.2299  2.7366  1.5074
  970MOL0     H30885   6.122   8.162   2.550  1.3319  1.4768  0.1402
  970MOL0     H30886   6.035   8.143   2.400  1.8130 -2.7611  2.3961
  970MOL0     H30887   6.127   8.351   2.409  0.4183  1.2298  0.4073
  970MOL0     H30888   5.949   8.386   2.427 -0.1068 -1.2126 -0.3681
  970MOL0     H30889   6.077   8.355   2.681  3.7737 -0.5877 -0.8491
  970MOL0     H30890   6.161   8.481   2.590 -0.5227 -0.5317 -1.0484
  970MOL0     H30891   5.977   8.623   2.569  1.5569 -0.1083  0.3566
  970MOL0     H30892   5.859   8.509   2.617 -0.9530  0.5871 -0.5699
  970MOL0     H30893   6.099   8.614   2.787  1.0053 -2.7567 -5.7323
  970MOL0     H30894   5.949   8.700   2.773 -0.0460 -1.1591  0.8228
  970MOL0     H30895   5.990   8.417   2.905  2.2044 -0.6222 -0.2280
  970MOL0     H30896   5.969   8.563   2.990 -1.7725 -3.2463  2.2155
  970MOL0     H30897   5.734   8.589   2.883 -4.1058 -1.5236  2.6608
  970MOL0     H30898   5.766   8.422   2.823 -1.6705  0.4696 -0.2391
  970MOL0     H30899   5.753   8.462   3.116 -3.4973  0.3926  0.9265
  970MOL0     H30900   5.787   8.318   3.026 -2.5685 -2.1804  1.1240
  970MOL0     H30901   5.522   8.452   3.185  0.7689  0.5922 -1.1960
  970MOL0     H30902   5.252   8.333   3.203  2.0631  3.1922 -3.4398
  970MOL0     H30903   5.223   8.205   3.084  0.3779  1.2548 -1.7658
  970MOL0     H30904   5.247   8.100   3.293 -0.0747 -1.5296 -0.1640
  970MOL0     H30905   5.414   8.165   3.331 -0.5712  0.0818  0.9117
  970MOL0     H30906   5.503   8.044   3.126  3.0826 -0.7925  1.1329
  970MOL0     H30907   5.346   7.946   3.133  0.6499 -3.1239  3.7041
  970MOL0     H30908   5.559   7.980   3.347 -0.7117  1.5186  1.3760
  970MOL0     H30909   5.525   7.839   3.267  0.1926 -1.6289  3.7676
  970MOL0     H30910   5.437   7.777   3.630  2.7790  0.6830 -1.4739
  970MOL0     H30911   5.382   7.517   3.781 -1.4946 -0.7586 -3.4007
  970MOL0     H30912   5.541   7.457   3.715  0.8052 -0.6801  0.5985
  970MOL0     H30913   5.512   7.633   3.753  0.3508  0.4411  0.2887
  970MOL0     H30914   5.113   7.217   3.516 -1.7640 -0.8796 -0.2003
  970MOL0     H30915   4.963   7.072   3.457 -0.6181  1.1498 -2.2227
  970MOL0     H30916   4.903   6.979   3.095  3.0113  1.7031  0.7865
  970MOL0     H30917   5.021   6.842   3.065  3.5135  0.9797  1.8672
  970MOL0     H30918   4.838   6.683   3.149  3.2499  0.2641  0.5914
  970MOL0     H30919   4.728   6.820   3.163 -1.5239 -2.8970 -1.3367
  970MOL0     H30920   4.794   6.860   2.903  0.1137  0.2448 -1.6530
  970MOL0     H30921   4.667   6.756   2.957 -0.5901  2.9124  1.2809
  970MOL0     H30922   4.951   6.665   2.903 -0.0262 -0.1426 -1.2215
  970MOL0     H30923   4.816   6.550   2.919 -0.8662 -1.0868 -1.7469
  970MOL0     H30924   4.786   6.768   2.709 -4.4814 -0.9514 -0.0327
  970MOL0     H30925   4.722   6.608   2.712  2.4607 -2.9279 -0.9153
  970MOL0     H30926   5.016   6.656   2.693 -0.9143  2.3243  1.5009
  970MOL0     H30927   4.928   6.510   2.647 -2.0595  0.4654 -0.6022
  970MOL0     H30928   4.909   6.770   2.492  0.8491 -0.8341 -3.0542
  970MOL0     H30929   4.806   6.631   2.466 -1.3525  0.7646  2.5478
  970MOL0     H30930   5.007   6.508   2.405  2.0936  0.5519  4.0961
  970MOL0     H30931   5.112   6.649   2.405  1.2012 -3.9015  2.5790
  970MOL0     H30932   5.215   6.917   3.142  1.2473 -2.4520  1.8827
  970MOL0     H30933   5.379   7.091   3.194  0.8185  2.9415  1.3603
  970MOL0     H30934   5.308   7.470   3.279  0.6437  1.3256 -0.1098
  970MOL0     H30935   5.300   7.710   3.225 -2.8050 -1.0237  0.3694
  970MOL0     H30936   6.096   8.025   2.677  0.8199  0.9303  1.3589
  970MOL0     H30937   6.082   7.932   2.915 -1.8641  0.2323  1.6422
  970MOL0     H30938   5.813   8.021   3.459  1.4762  1.5794 -1.6669
  970MOL0     H30939   5.790   7.845   3.640 -0.3681 -0.0188 -0.7861
  970MOL0     H30940   5.957   7.603   3.716  0.5731 -2.2696  0.2524
  970MOL0     H30941   5.797   7.670   3.779  0.1041 -1.2512  2.6280
  970MOL0     H30942   5.719   7.460   3.818  0.2268  1.0478 -0.0598
  970MOL0     H30943   5.868   7.491   3.915  2.3061 -3.1782 -0.9526
  970MOL0     H30944   5.975   7.399   3.699  0.5439 -0.0957  1.0762
  970MOL0     H30945   5.831   7.297   3.685  1.3884 -1.6872 -0.6239
  970MOL0     H30946   5.848   7.220   3.918 -0.9997  0.5340 -1.2538
  970MOL0     H30947   6.003   7.305   3.923 -1.7112 -0.3375  3.5019
  970MOL0     H30948   6.130   6.961   3.730 -0.4289  0.3374 -1.5433
  970MOL0     H30949   5.809   7.534   3.345  0.8180 -1.2001  2.1224
  970MOL0     H30950   5.815   7.683   3.179  4.9151 -0.9329  0.1144
  971MOL0     O30951   8.004   4.382   1.694 -0.5128 -0.5379  0.3008
  971MOL0     C30952   8.016   4.290   1.771 -0.2530 -0.2768 -0.0079
  971MOL0     O30953   8.065   4.174   1.740 -0.4687 -0.4798  0.3745
  971MOL0     C30954   8.135   4.149   1.626  0.8610  0.4260 -0.2100
  971MOL0     C30955   8.200   4.022   1.634 -0.1982 -0.3717 -1.0807
  971MOL0     C30956   8.285   3.982   1.532 -0.4846  0.2591  0.0719
  971MOL0     C30957   8.322   4.064   1.424 -0.2440 -0.2430 -1.0799
  971MOL0     O30958   8.425   4.013   1.345  0.2265  0.2797 -0.1036
  971MOL0     C30959   8.417   4.040   1.201 -0.8857  0.1548  0.8664
  971MOL0     C30960   8.549   4.007   1.132 -0.4918  0.1209 -0.1076
  971MOL0     C30961   8.542   4.026   0.974 -0.3481 -0.4987 -0.1882
  971MOL0     C30962   8.678   4.068   0.923  0.4636  0.0792  0.4997
  971MOL0     C30963   8.685   4.077   0.772  0.5002  0.5972 -0.0782
  971MOL0     C30964   8.824   4.117   0.730 -0.3450  0.7432  0.5350
  971MOL0     C30965   8.823   4.109   0.575  0.4247  0.5792 -0.3897
  971MOL0     C30966   8.957   4.146   0.509 -0.3453  0.0058  0.6997
  971MOL0     N30967   9.065   4.062   0.552 -0.0266 -0.2312  0.1058
  971MOL0     C30968   9.077   3.925   0.529 -0.1225 -1.0263 -0.9677
  971MOL0     C30969   9.213   3.899   0.556 -0.3588 -0.4035  0.2289
  971MOL0     C30970   9.283   3.762   0.559 -0.6353 -0.0541  0.3069
  971MOL0     C30971   9.441   3.780   0.525  0.5235 -0.0192 -0.4680
  971MOL0     C30972   9.497   3.658   0.465  0.6766  0.1729 -0.6096
  971MOL0     C30973   9.598   3.576   0.549 -0.3731 -0.7688  0.4074
  971MOL0     O30974   9.514   3.508   0.643 -0.5011  0.3484  0.4242
  971MOL0     C30975   9.555   3.493   0.766  0.8531 -0.2615 -0.1957
  971MOL0     C30976   9.681   3.497   0.810  0.5862 -0.2023  0.1518
  971MOL0     C30977   9.720   3.461   0.946  0.1107 -0.5049  0.2143
  971MOL0     C30978   9.861   3.468   0.979 -0.0444  0.0747  0.4413
  971MOL0     C30979   9.618   3.447   1.043 -0.2266 -0.4701  0.1453
  971MOL0     C30980   9.649   3.416   1.186 -0.1944 -0.4608 -0.0210
  971MOL0     O30981   9.558   3.445   1.281  0.2995 -0.2564  0.1051
  971MOL0     C30982   9.593   3.436   1.413 -0.1226 -0.1730  0.7573
  971MOL0     C30983   9.495   3.382   1.492 -0.4851 -0.0197  0.3347
  971MOL0     C30984   9.513   3.372   1.632  0.6172 -0.3826  0.3121
  971MOL0     C30985   9.629   3.430   1.688  1.1962  0.5420 -0.7549
  971MOL0     O30986   9.641   3.412   1.828  0.3098 -0.1207 -0.4969
  971MOL0     C30987   9.778   3.402   1.877 -0.3455 -0.2369 -0.5501
  971MOL0     C30988   9.788   3.353   2.020  0.2015 -1.2160  0.1244
  971MOL0     C30989   9.921   3.399   2.089  0.5648 -0.5296 -0.5859
  971MOL0     C30990   9.917   3.404   2.242 -0.0109  0.5028  0.1260
  971MOL0     C30991  10.062   3.396   2.302  0.3472 -0.3780 -0.2822
  971MOL0     C30992  10.066   3.419   2.458 -0.7031 -0.2675  0.6927
  971MOL0     C30993  10.205   3.481   2.493  0.1296  0.0297 -0.3615
  971MOL0     C30994  10.234   3.487   2.638  0.4773  1.5419 -1.2454
  971MOL0    Cl30995  10.202   3.321   2.708 -0.3470  0.2690  0.0023
  971MOL0     C30996   9.729   3.494   1.608  1.1933 -1.0569  0.1675
  971MOL0     C30997   9.706   3.493   1.463 -0.5901 -0.1269  0.2409
  971MOL0     O30998   9.751   3.352   1.205  0.5425 -0.1815  0.2283
  971MOL0     C30999   9.490   3.451   1.000  0.5737  1.0500  0.0636
  971MOL0     C31000   9.456   3.468   0.868 -0.2430 -0.3881  0.7649
  971MOL0     N31001   9.267   4.017   0.592  0.0148 -0.6501 -0.5133
  971MOL0     N31002   9.182   4.115   0.591  0.1472  0.4586 -0.3426
  971MOL0     C31003   8.247   4.184   1.412  0.2644 -0.3380 -0.2709
  971MOL0     C31004   8.152   4.223   1.509  0.4367 -0.3210  0.3449
  971MOL0     C31005   7.976   4.324   1.911 -0.6640 -0.9727 -0.2861
  971MOL0     C31006   7.893   4.436   1.932 -0.7348 -0.0419 -0.3424
  971MOL0     C31007   7.835   4.457   2.056  0.0101  0.0150 -0.6134
  971MOL0     C31008   7.878   4.376   2.166  0.3195 -0.2501 -0.0519
  971MOL0     O31009   7.848   4.423   2.296 -0.2366  0.3527  0.9806
  971MOL0     C31010   7.883   4.353   2.414  1.6136 -0.6354 -0.2784
  971MOL0     C31011   7.849   4.446   2.538  0.0444  0.0078  0.0591
  971MOL0     C31012   7.701   4.491   2.546 -0.7706 -0.5857 -0.2331
  971MOL0     C31013   7.675   4.586   2.662 -0.4741  0.7414 -1.4862
  971MOL0     C31014   7.748   4.701   2.633 -0.3561 -0.6168  0.1980
  971MOL0     C31015   7.800   4.811   2.632 -0.9570  0.5031  1.0697
  971MOL0     C31016   7.962   4.268   2.144  0.2308  0.1446 -0.2194
  971MOL0     C31017   8.009   4.235   2.013 -0.7063 -0.0324 -0.9369
  971MOL0     H31018   8.176   3.960   1.720 -1.9481  2.6213  0.7657
  971MOL0     H31019   8.335   3.888   1.554  1.9989  1.0252 -1.8206
  971MOL0     H31020   8.348   3.962   1.168  1.6194 -1.8250 -0.1147
  971MOL0     H31021   8.375   4.137   1.172 -0.3485  0.6174  1.6154
  971MOL0     H31022   8.625   4.074   1.172 -0.5140  0.2742 -0.3216
  971MOL0     H31023   8.580   3.906   1.157 -1.8560  0.2566  2.4163
  971MOL0     H31024   8.507   3.931   0.935 -0.3198 -1.7226  2.5501
  971MOL0     H31025   8.468   4.104   0.955  0.5160  0.7122  1.2223
  971MOL0     H31026   8.696   4.162   0.977 -0.7211  1.3924 -1.2676
  971MOL0     H31027   8.749   3.994   0.962  2.5807  2.7612  2.1160
  971MOL0     H31028   8.655   3.978   0.734  0.8838  0.3065  0.3692
  971MOL0     H31029   8.613   4.151   0.737  0.2076  1.7982  2.8259
  971MOL0     H31030   8.829   4.222   0.760 -0.9801  2.4753 -4.4452
  971MOL0     H31031   8.904   4.056   0.773 -0.3264 -1.8217 -2.7147
  971MOL0     H31032   8.796   4.005   0.553 -0.2468  0.7332 -0.3226
  971MOL0     H31033   8.751   4.188   0.551  1.2433  1.6864  0.6889
  971MOL0     H31034   8.979   4.249   0.537 -1.2128 -0.1226  1.9545
  971MOL0     H31035   8.944   4.128   0.402  2.3930 -0.9752  0.4650
  971MOL0     H31036   8.999   3.861   0.490 -0.0920 -1.6147 -0.0972
  971MOL0     H31037   9.262   3.716   0.657  3.1242 -0.6701  0.9831
  971MOL0     H31038   9.234   3.696   0.487 -1.1725  0.0097  0.6149
  971MOL0     H31039   9.498   3.803   0.615  0.0909  1.8685 -0.6314
  971MOL0     H31040   9.452   3.865   0.457  2.9593  0.9031  0.9592
  971MOL0     H31041   9.559   3.672   0.376 -0.6085  3.3178 -1.1424
  971MOL0     H31042   9.411   3.597   0.433 -0.0040 -0.5006  2.2449
  971MOL0     H31043   9.668   3.650   0.588  0.3087 -1.3446  0.2926
  971MOL0     H31044   9.662   3.511   0.488 -1.0373  0.6408 -1.9474
  971MOL0     H31045   9.762   3.512   0.740 -1.9630  3.7054 -2.3682
  971MOL0     H31046   9.869   3.530   1.069  0.1510  1.0584 -0.2373
  971MOL0     H31047   9.905   3.371   1.004  0.2576  0.6065  2.1511
  971MOL0     H31048   9.923   3.503   0.896  0.3462 -0.9455  0.2866
  971MOL0     H31049   9.418   3.329   1.436  0.6984  0.4977 -1.9188
  971MOL0     H31050   9.434   3.322   1.687  0.2324  0.0815  0.1843
  971MOL0     H31051   9.837   3.346   1.805  1.5487 -0.8842  1.4024
  971MOL0     H31052   9.818   3.503   1.882 -0.9397  0.1957 -3.0509
  971MOL0     H31053   9.705   3.402   2.073  0.0313  2.4187 -3.0251
  971MOL0     H31054   9.787   3.245   2.009  1.1516 -1.3141  0.8982
  971MOL0     H31055   9.940   3.503   2.061 -0.1968  0.0500  0.9110
  971MOL0     H31056  10.004   3.337   2.055  0.0569 -0.9054 -1.1679
  971MOL0     H31057   9.845   3.477   2.281 -3.7375 -2.6800 -0.1632
  971MOL0     H31058   9.871   3.309   2.272  1.6899 -2.4079 -5.2022
  971MOL0     H31059  10.123   3.476   2.260  1.3377  0.7798  3.0509
  971MOL0     H31060  10.111   3.300   2.280  0.0105 -0.1791 -2.0590
  971MOL0     H31061   9.984   3.486   2.488 -0.3505  1.1875 -1.3133
  971MOL0     H31062  10.051   3.320   2.501 -0.9897 -0.4070  0.2849
  971MOL0     H31063  10.198   3.584   2.457  0.5951  0.1189 -0.2060
  971MOL0     H31064  10.284   3.432   2.436 -1.4478 -1.9128 -0.9806
  971MOL0     H31065  10.155   3.550   2.677  0.2636  0.0048  0.9799
  971MOL0     H31066  10.329   3.532   2.668 -0.6395  3.2927 -0.1319
  971MOL0     H31067   9.810   3.547   1.657 -1.9365  2.1721  2.3789
  971MOL0     H31068   9.784   3.541   1.406 -1.8359 -0.3138 -1.6943
  971MOL0     H31069   9.407   3.441   1.070 -0.9715 -2.3047 -1.9664
  971MOL0     H31070   9.351   3.468   0.841  0.3268 -0.1107 -1.6426
  971MOL0     H31071   8.257   4.255   1.330  2.2624  1.7280  1.6162
  971MOL0     H31072   8.109   4.317   1.476  1.7433 -0.5131 -2.0681
  971MOL0     H31073   7.866   4.500   1.848 -2.2534 -1.7415 -1.2056
  971MOL0     H31074   7.780   4.549   2.075 -1.3729 -0.1489 -3.3818
  971MOL0     H31075   7.825   4.260   2.421  0.0577  0.3658  0.8856
  971MOL0     H31076   7.991   4.339   2.417  2.2661  3.2849 -1.1292
  971MOL0     H31077   7.910   4.537   2.540 -1.7281  1.2506 -0.6597
  971MOL0     H31078   7.877   4.387   2.626  1.8633 -1.2911 -1.2882
  971MOL0     H31079   7.651   4.397   2.567  4.9941 -4.2533 -0.5762
  971MOL0     H31080   7.669   4.536   2.451  1.1973 -0.5534 -0.9296
  971MOL0     H31081   7.710   4.544   2.756  0.7040  2.0627 -1.3065
  971MOL0     H31082   7.574   4.623   2.683  0.4299  3.7601 -1.9466
  971MOL0     H31083   7.864   4.897   2.628 -3.0243  2.0624  0.4266
  971MOL0     H31084   8.002   4.208   2.225  0.8322 -0.0400 -0.6406
  971MOL0     H31085   8.087   4.159   2.009 -0.6119 -0.0589  0.6266
  972MOL0     O31086   0.001   6.427   9.242 -0.5577 -0.5362 -0.4926
  972MOL0     C31087   0.024   6.545   9.212 -0.6644 -0.7418 -0.4361
  972MOL0     O31088   0.024   6.652   9.303 -0.1411  0.7955  0.4090
  972MOL0     C31089   0.028   6.632   9.439 -0.7703 -0.2873 -0.5244
  972MOL0     C31090  -0.013   6.743   9.510  0.0664  0.6222 -0.1584
  972MOL0     C31091  -0.009   6.739   9.647  0.6085  0.5038 -0.3408
  972MOL0     C31092   0.040   6.634   9.719  0.1526 -0.1210  0.4044
  972MOL0     O31093   0.033   6.622   9.858  0.2195 -0.1305  0.8700
  972MOL0     C31094   0.018   6.738   9.939  0.4534  0.7783  0.3562
  972MOL0     C31095   0.006   6.675  10.082 -0.7397 -0.1547 -0.2627
  972MOL0     C31096   0.143   6.659  10.140 -0.4278 -0.1862 -0.4762
  972MOL0     C31097   0.143   6.620  10.289  0.8809 -0.6154 -0.9470
  972MOL0     C31098   0.262   6.548  10.327  0.1847  0.2210  0.5298
  972MOL0     C31099   0.389   6.631  10.322  0.1253 -0.3228  0.0609
  972MOL0     C31100   0.507   6.537  10.329  0.1659  0.2078 -0.0424
  972MOL0     C31101   0.639   6.627  10.324  0.2112 -0.3165  0.9731
  972MOL0     N31102   0.746   6.538  10.339  0.0894  0.6685 -0.4560
  972MOL0     C31103   0.786   6.454  10.240 -1.5551  0.2245 -0.5351
  972MOL0     C31104   0.877   6.384  10.300  0.7931 -0.2739 -0.3082
  972MOL0     C31105   0.923   6.240  10.257  0.0767  0.0259  0.3042
  972MOL0     C31106   1.071   6.225  10.216  0.2251 -0.0800  0.4551
  972MOL0     C31107   1.159   6.322  10.297  0.5044  0.3404  0.3687
  972MOL0     C31108   1.307   6.313  10.244 -0.4525  0.3906  1.0782
  972MOL0     O31109   1.371   6.180  10.270 -0.0078 -0.1302  0.5564
  972MOL0     C31110   1.505   6.205  10.276  0.4857 -0.0098  0.5082
  972MOL0     C31111   1.565   6.235  10.392 -0.1449  0.3202 -0.3750
  972MOL0     C31112   1.705   6.258  10.402 -0.4113 -0.0768  0.3920
  972MOL0     C31113   1.755   6.338  10.526  0.6817 -0.4865  0.1431
  972MOL0     C31114   1.776   6.234  10.288 -0.3474  0.4572 -0.9511
  972MOL0     C31115   1.925   6.237  10.297  0.0389  1.0071  0.8758
  972MOL0     O31116   1.983   6.318  10.212  0.1460 -0.0213  1.1666
  972MOL0     C31117   2.120   6.315  10.190  0.2597  0.4316 -1.8978
  972MOL0     C31118   2.190   6.436  10.218  0.1249 -0.3122  0.3425
  972MOL0     C31119   2.326   6.434  10.211  0.2502 -0.3649 -0.2160
  972MOL0     C31120   2.397   6.316  10.168 -0.3853 -1.2830 -0.0774
  972MOL0     O31121   2.534   6.329  10.166  0.1819  0.5719 -0.1005
  972MOL0     C31122   2.608   6.226  10.219 -0.2968  0.3129 -0.1231
  972MOL0     C31123   2.732   6.276  10.278 -0.0737  0.0390 -0.7326
  972MOL0     C31124   2.793   6.178  10.380 -0.0343  0.5119  0.5193
  972MOL0     C31125   2.824   6.026  10.316  1.0479  0.1810  0.1823
  972MOL0     C31126   2.904   5.952  10.414  0.0742 -0.4536 -0.0686
  972MOL0     C31127   3.044   5.997  10.416 -0.9044  0.0440  0.7025
  972MOL0     C31128   3.128   5.908  10.511  0.0814  0.1983  0.0843
  972MOL0     C31129   3.276   5.953  10.513  0.6291  0.5482 -0.0110
  972MOL0    Cl31130   3.296   6.110  10.608  0.4269 -0.5158  0.1606
  972MOL0     C31131   2.333   6.202  10.121 -0.0299  0.0084  0.6250
  972MOL0     C31132   2.190   6.206  10.126 -0.0644  0.6517  0.2658
  972MOL0     O31133   1.975   6.179  10.389 -0.6714 -0.3949  0.1294
  972MOL0     C31134   1.719   6.210  10.169 -0.3029  0.0037  0.4377
  972MOL0     C31135   1.583   6.196  10.167  0.2609  0.0957  0.5216
  972MOL0     N31136   0.910   6.430  10.427  0.7236 -0.9852  0.0968
  972MOL0     N31137   0.826   6.524  10.453 -0.2162 -0.4167  0.1940
  972MOL0     C31138   0.097   6.530   9.645  0.6432  1.2807 -0.4412
  972MOL0     C31139   0.096   6.530   9.505  0.0491 -0.4311 -1.0476
  972MOL0     C31140   0.052   6.594   9.072 -0.0345  0.1351 -1.3100
  972MOL0     C31141   0.077   6.500   8.977 -0.4505 -0.6314 -0.1359
  972MOL0     C31142   0.074   6.533   8.836 -1.0936 -0.0078  0.5376
  972MOL0     C31143   0.044   6.660   8.794  0.3376  0.0065 -0.1070
  972MOL0     O31144   0.030   6.696   8.664 -0.2815  0.0596 -0.4681
  972MOL0     C31145   0.135   6.780   8.615  0.5952  0.4477 -0.3385
  972MOL0     C31146   0.047   6.893   8.562  0.4178 -0.2458  0.0191
  972MOL0     C31147   0.130   7.011   8.510  0.8689  0.2972  0.0482
  972MOL0     C31148   0.038   7.122   8.458  0.8627 -0.9210 -0.1681
  972MOL0     C31149  -0.028   7.077   8.337  0.2564 -0.2761  0.3078
  972MOL0     C31150  -0.078   7.055   8.235 -0.9370 -0.3369 -0.1040
  972MOL0     C31151   0.018   6.762   8.890 -0.1513  0.1995  0.2956
  972MOL0     C31152   0.038   6.729   9.024 -0.1953  0.5227 -0.1450
  972MOL0     H31153  -0.067   6.818   9.453  2.7827  1.2437 -2.1413
  972MOL0     H31154  -0.052   6.825   9.697  0.5560  2.0051 -2.7892
  972MOL0     H31155   0.103   6.807   9.936  1.8598 -0.9038 -1.2813
  972MOL0     H31156  -0.078   6.779   9.909 -0.0441 -0.6087 -0.0568
  972MOL0     H31157  -0.055   6.750  10.133 -1.5853 -0.3990 -0.8909
  972MOL0     H31158  -0.042   6.577  10.085  1.8821 -1.5228 -0.1712
  972MOL0     H31159   0.188   6.582  10.077  1.8151 -0.4925  1.3679
  972MOL0     H31160   0.205   6.749  10.137  2.2342 -1.9129  0.0400
  972MOL0     H31161   0.125   6.703  10.358 -0.5250 -0.4780 -1.4535
  972MOL0     H31162   0.059   6.553  10.309 -1.7291  3.2380  2.6022
  972MOL0     H31163   0.248   6.526  10.433 -2.9476  1.5220  0.4827
  972MOL0     H31164   0.277   6.449  10.283  0.0540 -0.3027  1.6411
  972MOL0     H31165   0.385   6.698  10.235 -2.2368  1.0311  1.0935
  972MOL0     H31166   0.393   6.691  10.413 -1.5815  0.1861 -0.1640
  972MOL0     H31167   0.512   6.478  10.421  1.4237 -1.1857 -0.9498
  972MOL0     H31168   0.496   6.464  10.248 -0.4819  1.0733 -0.7483
  972MOL0     H31169   0.631   6.702  10.403 -0.0848 -2.5196  3.1657
  972MOL0     H31170   0.646   6.686  10.233  3.3473  1.1945  2.0344
  972MOL0     H31171   0.742   6.441  10.142  0.3410 -0.2209 -1.3753
  972MOL0     H31172   0.920   6.170  10.341  0.5820 -3.1957 -2.1990
  972MOL0     H31173   0.860   6.218  10.171 -1.3932 -0.4708  1.4603
  972MOL0     H31174   1.069   6.265  10.115 -0.3005 -0.4416  0.3166
  972MOL0     H31175   1.109   6.122  10.224  1.7249  0.3519 -0.6082
  972MOL0     H31176   1.155   6.308  10.405  1.0632  2.6883  0.7385
  972MOL0     H31177   1.124   6.425  10.288 -2.5114 -0.7104 -1.7927
  972MOL0     H31178   1.367   6.382  10.305  1.6381 -0.0065 -0.4316
  972MOL0     H31179   1.318   6.337  10.138 -0.8789 -0.0850  0.9245
  972MOL0     H31180   1.501   6.250  10.478  2.0732  0.9016  1.2644
  972MOL0     H31181   1.798   6.434  10.497  2.4272 -1.3180 -0.1208
  972MOL0     H31182   1.673   6.357  10.596 -0.3461 -3.1534 -0.2194
  972MOL0     H31183   1.826   6.290  10.595  0.6955  0.1522  0.5868
  972MOL0     H31184   2.138   6.522  10.258 -1.4755  0.8651 -3.7360
  972MOL0     H31185   2.386   6.519  10.242 -2.3175  2.0945 -1.5243
  972MOL0     H31186   2.546   6.186  10.300  0.8010  0.3389  0.7527
  972MOL0     H31187   2.617   6.152  10.139 -3.0281 -0.3667  0.0842
  972MOL0     H31188   2.815   6.285  10.207  0.4909 -1.5979 -0.3072
  972MOL0     H31189   2.720   6.374  10.326  0.6255  0.2245 -0.9189
  972MOL0     H31190   2.726   6.162  10.465 -1.7929 -2.5268 -1.2753
  972MOL0     H31191   2.882   6.227  10.420  1.5247 -1.8292  0.1548
  972MOL0     H31192   2.737   5.969  10.284  0.6634 -0.7976  2.7965
  972MOL0     H31193   2.885   6.047  10.227  0.5527 -1.2600 -0.5251
  972MOL0     H31194   2.908   5.846  10.388  1.1251 -0.4020 -0.1549
  972MOL0     H31195   2.852   5.956  10.510 -0.0231 -3.0162  0.0345
  972MOL0     H31196   3.091   6.005  10.317  0.8964 -3.6713  1.0806
  972MOL0     H31197   3.043   6.098  10.456  0.0247  0.3801 -0.0585
  972MOL0     H31198   3.123   5.802  10.486 -1.8210 -0.5775  3.2706
  972MOL0     H31199   3.083   5.921  10.610  1.4539  0.1805  0.7336
  972MOL0     H31200   3.330   5.962  10.418  0.5992 -1.3934 -0.2549
  972MOL0     H31201   3.333   5.879  10.571  0.0194 -0.2857 -0.4638
  972MOL0     H31202   2.391   6.117  10.088 -1.3929 -0.2081 -1.3635
  972MOL0     H31203   2.131   6.121  10.094 -3.5009  2.8134  0.4484
  972MOL0     H31204   1.782   6.213  10.082 -2.3789  2.1750 -1.1334
  972MOL0     H31205   1.527   6.188  10.074 -1.7673  2.4517  1.4262
  972MOL0     H31206   0.157   6.453   9.693  2.4561  1.6144 -2.0515
  972MOL0     H31207   0.138   6.444   9.455 -1.1393 -1.2680 -0.6706
  972MOL0     H31208   0.086   6.393   8.995 -4.2130 -0.8969  0.9320
  972MOL0     H31209   0.095   6.459   8.760  2.3199  1.6055 -0.3108
  972MOL0     H31210   0.215   6.798   8.688  1.1227 -2.2476 -0.1338
  972MOL0     H31211   0.176   6.732   8.525 -1.9223 -1.7690 -0.4078
  972MOL0     H31212  -0.012   6.937   8.643  1.5340 -0.7019  1.1141
  972MOL0     H31213  -0.022   6.858   8.484 -0.8719  0.1404  0.9473
  972MOL0     H31214   0.189   6.975   8.425 -0.1181  1.2055 -1.0581
  972MOL0     H31215   0.192   7.052   8.590  0.4427 -0.6907  0.9086
  972MOL0     H31216   0.098   7.209   8.431  0.3331 -0.2650  0.7416
  972MOL0     H31217  -0.029   7.144   8.541  4.2446 -0.6118  2.7027
  972MOL0     H31218  -0.110   7.030   8.136 -2.3900 -2.8958  0.9112
  972MOL0     H31219   0.015   6.867   8.860  4.2935 -0.1777 -2.4903
  972MOL0     H31220   0.037   6.811   9.095 -2.5079  0.1175  0.3616
  973MOL0     O31221   1.694   2.726   7.243 -1.2334  0.0424 -0.8578
  973MOL0     C31222   1.602   2.793   7.278  0.1397 -0.2933 -0.3037
  973MOL0     O31223   1.605   2.925   7.316 -0.5105 -0.3509 -0.2044
  973MOL0     C31224   1.721   2.997   7.316 -0.5592  0.3965 -0.6944
  973MOL0     C31225   1.749   3.077   7.211 -0.2354  0.4401  0.4571
  973MOL0     C31226   1.874   3.141   7.200  0.7544  0.3394  1.0751
  973MOL0     C31227   1.963   3.135   7.294 -0.0954  0.0527 -0.1177
  973MOL0     O31228   2.080   3.193   7.258 -0.4350  1.1065  0.0700
  973MOL0     C31229   2.163   3.222   7.372 -0.7868  0.3743  0.2597
  973MOL0     C31230   2.297   3.289   7.327  0.2335 -0.3180 -0.9036
  973MOL0     C31231   2.383   3.354   7.433  0.0986 -0.2123  0.4922
  973MOL0     C31232   2.399   3.267   7.553  0.8190  0.1851  0.2111
  973MOL0     C31233   2.498   3.311   7.664 -0.4814  0.5709  0.2754
  973MOL0     C31234   2.457   3.434   7.750 -0.3418 -0.4902 -0.9223
  973MOL0     C31235   2.584   3.487   7.824 -0.2251  0.8739  1.4892
  973MOL0     C31236   2.684   3.562   7.745 -0.9435 -0.0792  0.3762
  973MOL0     N31237   2.634   3.654   7.640  0.3296 -0.0448 -0.0705
  973MOL0     C31238   2.529   3.747   7.661  0.9033 -0.3906  0.3818
  973MOL0     C31239   2.502   3.798   7.536 -0.2912  0.4510 -1.0086
  973MOL0     C31240   2.408   3.912   7.501 -0.2451  0.5056  0.3718
  973MOL0     C31241   2.455   4.050   7.554 -0.2949 -0.3826  0.2285
  973MOL0     C31242   2.385   4.123   7.670  0.7912  0.8393 -0.9762
  973MOL0     C31243   2.364   4.037   7.796  0.7118 -1.0941 -0.5477
  973MOL0     O31244   2.497   3.991   7.838  0.3329 -0.0646 -0.2635
  973MOL0     C31245   2.512   3.938   7.966 -0.5457 -0.4160 -0.6771
  973MOL0     C31246   2.640   3.887   7.995 -0.3158  0.2121 -0.1247
  973MOL0     C31247   2.671   3.844   8.120  0.0987  0.5843  0.6051
  973MOL0     C31248   2.799   3.782   8.129  0.1950 -0.2939 -0.4468
  973MOL0     C31249   2.576   3.837   8.222  0.1866  0.4259 -0.3054
  973MOL0     C31250   2.601   3.770   8.361 -0.3737 -1.0058  0.4280
  973MOL0     O31251   2.482   3.750   8.428  0.2922 -0.5064 -0.3404
  973MOL0     C31252   2.498   3.745   8.566  0.7700  0.2421  1.2027
  973MOL0     C31253   2.467   3.848   8.658  0.4723  0.3287 -0.1047
  973MOL0     C31254   2.490   3.833   8.793 -0.6228 -0.8944  0.2671
  973MOL0     C31255   2.540   3.713   8.844  0.1248  0.5151  0.1241
  973MOL0     O31256   2.558   3.710   8.980 -0.1584  0.4508  1.0529
  973MOL0     C31257   2.604   3.590   9.044 -0.0399 -0.2087  0.2354
  973MOL0     C31258   2.760   3.586   9.018  0.6450  0.0707  0.6021
  973MOL0     C31259   2.840   3.705   9.076 -0.6754 -0.7455  0.1548
  973MOL0     C31260   2.974   3.704   9.003 -1.7487  0.0253  1.0773
  973MOL0     C31261   2.969   3.776   8.862 -0.0805 -0.6491  0.0249
  973MOL0     C31262   3.100   3.804   8.799  0.0417  0.4464  0.2169
  973MOL0     C31263   3.136   3.679   8.710 -0.2405 -0.3543  0.3450
  973MOL0     C31264   3.251   3.710   8.620  0.5414  0.6528 -0.3406
  973MOL0    Cl31265   3.288   3.583   8.496 -0.5064  0.2235 -0.6196
  973MOL0     C31266   2.577   3.610   8.755  0.8327 -0.6463  0.0276
  973MOL0     C31267   2.546   3.627   8.626  0.2405  0.1728  0.3618
  973MOL0     O31268   2.714   3.745   8.405 -0.4891 -0.0062  0.0333
  973MOL0     C31269   2.449   3.897   8.194 -0.5470 -0.6766 -0.0060
  973MOL0     C31270   2.420   3.953   8.075 -0.3690  0.0387 -0.0677
  973MOL0     N31271   2.574   3.725   7.446 -0.6574 -0.2127 -0.1914
  973MOL0     N31272   2.664   3.647   7.508 -0.2882 -0.0597  0.3160
  973MOL0     C31273   1.937   3.057   7.408 -0.6219 -0.1473 -0.2215
  973MOL0     C31274   1.820   2.989   7.420 -0.0804  0.9334  0.1119
  973MOL0     C31275   1.465   2.742   7.285  0.5120 -0.6364  0.7161
  973MOL0     C31276   1.407   2.649   7.198  0.1753  0.2450  0.2321
  973MOL0     C31277   1.281   2.592   7.232  0.5700 -0.8899 -0.1015
  973MOL0     C31278   1.210   2.654   7.338  0.1633  0.0402 -0.1406
  973MOL0     O31279   1.088   2.599   7.368  0.5034  0.0318 -0.0622
  973MOL0     C31280   0.978   2.655   7.295  0.6674  0.3363 -0.4639
  973MOL0     C31281   0.844   2.627   7.371 -0.1586 -0.5060  1.3809
  973MOL0     C31282   0.843   2.676   7.514 -0.8611 -0.3209  0.5722
  973MOL0     C31283   0.720   2.627   7.581 -0.1786 -0.3469 -0.1200
  973MOL0     C31284   0.605   2.697   7.533  0.5945  1.0577  0.7399
  973MOL0     C31285   0.510   2.761   7.489 -0.3760  0.4879 -0.2081
  973MOL0     C31286   1.263   2.744   7.420 -0.0916 -0.1364  0.0921
  973MOL0     C31287   1.387   2.800   7.391  0.4720  0.6202 -1.0015
  973MOL0     H31288   1.683   3.086   7.125 -0.9571  0.4703  1.0045
  973MOL0     H31289   1.880   3.195   7.106  0.8605  2.5364  2.2792
  973MOL0     H31290   2.116   3.282   7.450 -0.1196  1.3240 -0.0481
  973MOL0     H31291   2.186   3.131   7.429  0.7023  0.4144 -0.2328
  973MOL0     H31292   2.346   3.216   7.261  1.6325 -2.1803  1.9966
  973MOL0     H31293   2.270   3.375   7.265  0.8988  0.2130 -0.4633
  973MOL0     H31294   2.478   3.386   7.389  0.0236 -1.5011 -0.6401
  973MOL0     H31295   2.336   3.447   7.467 -1.2508 -0.9792  0.7839
  973MOL0     H31296   2.302   3.247   7.601  1.5135 -2.2894  0.7060
  973MOL0     H31297   2.427   3.171   7.511 -1.9686 -0.9842  0.7830
  973MOL0     H31298   2.494   3.223   7.729 -0.4018 -0.0801 -0.5842
  973MOL0     H31299   2.601   3.310   7.626 -0.9520  2.9033 -1.2688
  973MOL0     H31300   2.434   3.512   7.677  0.5075  0.5285 -0.1383
  973MOL0     H31301   2.374   3.409   7.817  0.2595  1.2271  0.5536
  973MOL0     H31302   2.544   3.546   7.908 -2.0331  0.6807  0.8145
  973MOL0     H31303   2.630   3.398   7.868 -0.1298  0.7017  1.0360
  973MOL0     H31304   2.736   3.496   7.675  0.6155  2.0560 -0.6032
  973MOL0     H31305   2.761   3.604   7.811  1.6743 -2.0064 -1.2620
  973MOL0     H31306   2.475   3.773   7.752  2.0213  4.1712 -0.0014
  973MOL0     H31307   2.397   3.903   7.392  1.5952 -2.1141  0.2955
  973MOL0     H31308   2.310   3.889   7.543 -1.3028 -0.5343 -2.4364
  973MOL0     H31309   2.427   4.111   7.468 -0.8685 -0.3929  0.4029
  973MOL0     H31310   2.563   4.056   7.566 -0.3684  0.2081  0.6268
  973MOL0     H31311   2.289   4.151   7.628  2.2288  3.7322 -2.6099
  973MOL0     H31312   2.457   4.204   7.685  3.2875 -0.6135 -3.9153
  973MOL0     H31313   2.300   3.948   7.792  1.8311 -2.1620  2.6079
  973MOL0     H31314   2.312   4.099   7.869  0.1514  0.4202 -2.1586
  973MOL0     H31315   2.707   3.900   7.910 -0.4291  0.8070 -0.1254
  973MOL0     H31316   2.786   3.675   8.149  0.9046  0.3175  4.6606
  973MOL0     H31317   2.850   3.801   8.034 -1.1431 -2.0777 -1.5839
  973MOL0     H31318   2.865   3.829   8.203  0.7056 -1.9469  0.2140
  973MOL0     H31319   2.411   3.935   8.625  0.2393  0.7700  1.3513
  973MOL0     H31320   2.484   3.918   8.861  3.0008 -0.0904 -0.2219
  973MOL0     H31321   2.581   3.595   9.150  2.0112  1.1837  0.6853
  973MOL0     H31322   2.548   3.509   8.996  0.9576 -2.1848  2.2411
  973MOL0     H31323   2.807   3.501   9.067 -0.3665 -0.8966 -0.0526
  973MOL0     H31324   2.777   3.573   8.910 -2.4188 -0.3040  0.0640
  973MOL0     H31325   2.851   3.698   9.184 -4.3618 -0.6866  0.6901
  973MOL0     H31326   2.791   3.801   9.056  0.2671 -0.4935 -1.0494
  973MOL0     H31327   3.054   3.755   9.057 -2.6804  0.0761  2.4609
  973MOL0     H31328   3.007   3.601   8.987  0.7116  0.8253  0.5642
  973MOL0     H31329   2.938   3.880   8.877 -2.8808 -1.2404 -1.1502
  973MOL0     H31330   2.893   3.724   8.804  0.4131 -4.3245  2.3436
  973MOL0     H31331   3.101   3.899   8.746 -1.0187  0.4527  0.1821
  973MOL0     H31332   3.178   3.814   8.875  0.6892 -1.8834 -0.0641
  973MOL0     H31333   3.054   3.666   8.639  0.8887 -2.2809 -0.7018
  973MOL0     H31334   3.159   3.589   8.768  0.3202 -0.8569 -0.6316
  973MOL0     H31335   3.341   3.733   8.678  2.2270 -1.5729 -1.9207
  973MOL0     H31336   3.232   3.801   8.562  2.5592  1.5437  0.2962
  973MOL0     H31337   2.613   3.511   8.784  1.1387 -0.5814 -0.1299
  973MOL0     H31338   2.563   3.538   8.566  2.0025  1.1602 -0.6525
  973MOL0     H31339   2.376   3.901   8.274  0.0483  2.0088  0.4991
  973MOL0     H31340   2.329   4.006   8.052  0.4284  0.8061 -1.6332
  973MOL0     H31341   2.020   3.044   7.476  2.0272  3.1656 -2.4843
  973MOL0     H31342   1.803   2.915   7.498 -2.3029  1.3170  0.0506
  973MOL0     H31343   1.461   2.599   7.119  0.3969 -0.2914  0.7127
  973MOL0     H31344   1.243   2.508   7.176  2.1710 -0.6068 -1.7135
  973MOL0     H31345   0.994   2.763   7.297  3.9051  0.0002  2.3280
  973MOL0     H31346   0.979   2.604   7.198  1.1893 -2.0656  0.7041
  973MOL0     H31347   0.831   2.519   7.361  0.7953 -0.4202 -2.3401
  973MOL0     H31348   0.763   2.679   7.319 -0.1930 -0.8487  1.0846
  973MOL0     H31349   0.845   2.785   7.509  1.7140 -0.2999  0.9559
  973MOL0     H31350   0.934   2.648   7.567  1.6059 -0.3950 -3.3591
  973MOL0     H31351   0.722   2.657   7.687 -3.0306  1.1016 -0.3704
  973MOL0     H31352   0.707   2.519   7.583  1.6835 -0.6105 -0.0470
  973MOL0     H31353   0.428   2.813   7.443  2.4694  2.5999 -3.3692
  973MOL0     H31354   1.220   2.764   7.518  1.0913 -0.2194  0.6443
  973MOL0     H31355   1.423   2.874   7.462  1.8674 -0.3052 -0.7003
  974MOL0     O31356   4.994   1.919   6.026 -0.1920 -0.3460  0.0298
  974MOL0     C31357   4.982   1.870   5.914  1.2516 -0.0020 -0.1677
  974MOL0     O31358   5.095   1.853   5.834 -0.2871  0.2530 -0.8250
  974MOL0     C31359   5.215   1.888   5.884  0.1150  0.1617  0.0082
  974MOL0     C31360   5.300   1.783   5.925  0.9142  0.1820  1.3440
  974MOL0     C31361   5.432   1.813   5.967 -0.2351  0.3036  0.2904
  974MOL0     C31362   5.484   1.945   5.954  0.2826  0.9012  0.4068
  974MOL0     O31363   5.603   1.984   5.989 -0.4498  0.2899  0.0239
  974MOL0     C31364   5.714   1.912   5.934 -0.1775 -0.1000 -0.5269
  974MOL0     C31365   5.807   1.844   6.039  0.1075 -0.1349  0.6678
  974MOL0     C31366   5.928   1.764   5.987 -0.2914  0.1842 -0.1187
  974MOL0     C31367   6.020   1.863   5.904  0.7322 -0.1538 -0.8050
  974MOL0     C31368   6.156   1.797   5.908  1.3264 -0.6015  0.3791
  974MOL0     C31369   6.246   1.886   5.821 -0.4397  0.4330 -0.4150
  974MOL0     C31370   6.195   1.916   5.678  0.5808 -0.5508  0.1390
  974MOL0     C31371   6.299   1.953   5.573 -0.0568 -0.2484 -0.6147
  974MOL0     N31372   6.346   2.092   5.578  0.2152 -0.6842  0.9664
  974MOL0     C31373   6.441   2.139   5.659 -0.8966  0.0547  0.4702
  974MOL0     C31374   6.438   2.273   5.638 -0.2033  0.3989  0.0973
  974MOL0     C31375   6.523   2.371   5.705  0.1040 -0.1583 -0.5538
  974MOL0     C31376   6.442   2.459   5.805  0.2676 -0.6370  0.6232
  974MOL0     C31377   6.515   2.524   5.926 -0.7298 -0.0470  0.4165
  974MOL0     C31378   6.598   2.424   6.014  0.4164  0.6434 -0.3553
  974MOL0     O31379   6.526   2.302   6.045 -0.4937  0.3885  0.5823
  974MOL0     C31380   6.589   2.191   6.083  0.2904  0.5652  0.2846
  974MOL0     C31381   6.523   2.067   6.074  1.6640  0.3328  0.4758
  974MOL0     C31382   6.581   1.940   6.116  0.5720  0.7003 -0.9133
  974MOL0     C31383   6.502   1.807   6.097 -0.5223 -0.4796 -0.7266
  974MOL0     C31384   6.712   1.940   6.177 -0.8119  1.0332  0.5642
  974MOL0     C31385   6.778   1.825   6.228  0.5176  0.1107  0.2141
  974MOL0     O31386   6.850   1.853   6.328  0.7810  0.6600 -0.2088
  974MOL0     C31387   6.897   1.750   6.407 -0.2002 -0.5088  0.1105
  974MOL0     C31388   7.001   1.787   6.490 -0.9693 -0.0405  0.2870
  974MOL0     C31389   7.052   1.698   6.583  0.3938  0.9105 -1.1168
  974MOL0     C31390   7.001   1.564   6.602  0.2199 -0.1121 -0.3023
  974MOL0     O31391   7.052   1.488   6.706 -0.1146 -0.1937 -0.1998
  974MOL0     C31392   6.980   1.386   6.766 -0.9217  0.4622  0.0531
  974MOL0     C31393   7.002   1.373   6.921  0.3965 -0.1335  0.6806
  974MOL0     C31394   6.898   1.444   7.009  0.0629  0.1435  0.4267
  974MOL0     C31395   6.911   1.425   7.160 -0.6894 -1.0783 -0.7042
  974MOL0     C31396   6.834   1.533   7.241  0.2089 -0.6805  0.4263
  974MOL0     C31397   6.864   1.531   7.390 -0.7202  0.3374 -0.1757
  974MOL0     C31398   6.771   1.632   7.467 -0.8863  1.0446  0.1784
  974MOL0     C31399   6.735   1.591   7.613 -0.2782  0.0300  0.5287
  974MOL0    Cl31400   6.636   1.448   7.646 -0.1331  0.1487  0.1586
  974MOL0     C31401   6.906   1.528   6.512 -0.2597  0.6525 -0.5499
  974MOL0     C31402   6.856   1.611   6.410  0.4348 -0.5313 -0.0933
  974MOL0     O31403   6.775   1.717   6.167  0.0084  0.2642  0.2436
  974MOL0     C31404   6.770   2.065   6.188 -0.6521 -0.5401  0.3855
  974MOL0     C31405   6.706   2.187   6.148 -0.3714  0.2887 -0.0821
  974MOL0     N31406   6.344   2.304   5.540  0.3136  0.6688  0.5718
  974MOL0     N31407   6.286   2.193   5.504  0.0401  0.1690 -0.3246
  974MOL0     C31408   5.399   2.047   5.911  0.1462  0.2807 -0.8127
  974MOL0     C31409   5.264   2.012   5.874  0.3392  0.5946  0.0806
  974MOL0     C31410   4.846   1.843   5.859 -2.0098 -0.1838 -1.1832
  974MOL0     C31411   4.837   1.771   5.736  0.2765 -0.3589 -0.9001
  974MOL0     C31412   4.710   1.726   5.689  0.7243 -0.7378 -0.7519
  974MOL0     C31413   4.590   1.750   5.772 -0.4275 -0.1796  0.3704
  974MOL0     O31414   4.467   1.712   5.739  0.0365  0.3983  0.0776
  974MOL0     C31415   4.433   1.656   5.609 -0.8535 -0.2758 -0.5339
  974MOL0     C31416   4.317   1.559   5.617  0.4081  0.0905  0.7070
  974MOL0     C31417   4.224   1.547   5.490 -0.1775 -1.0262 -0.1703
  974MOL0     C31418   4.156   1.679   5.453  0.6088  0.2186 -0.3419
  974MOL0     C31419   4.031   1.669   5.389 -0.6580  0.4417 -0.3424
  974MOL0     C31420   3.929   1.663   5.332 -0.5785 -0.3579 -1.2455
  974MOL0     C31421   4.601   1.807   5.901  0.2224  0.3092  0.0861
  974MOL0     C31422   4.729   1.857   5.937 -0.4772 -0.2131 -0.2725
  974MOL0     H31423   5.252   1.686   5.917 -0.6346  1.0426 -3.0185
  974MOL0     H31424   5.499   1.733   5.995  0.2835 -0.3733 -2.5247
  974MOL0     H31425   5.688   1.824   5.876 -1.6435 -0.6365  0.8612
  974MOL0     H31426   5.770   1.978   5.867  2.0451  2.3871  3.3581
  974MOL0     H31427   5.831   1.925   6.108 -1.7267  0.2429  0.9093
  974MOL0     H31428   5.733   1.774   6.079 -2.4268  1.7276 -0.4233
  974MOL0     H31429   5.984   1.718   6.069  1.8097  0.0776 -1.5401
  974MOL0     H31430   5.892   1.679   5.930  0.0642  0.7886 -1.2728
  974MOL0     H31431   5.979   1.885   5.805 -0.5046 -2.3909 -0.8474
  974MOL0     H31432   6.020   1.956   5.962 -0.9064 -0.2458 -0.6235
  974MOL0     H31433   6.186   1.770   6.010  0.5542 -0.6259  0.6099
  974MOL0     H31434   6.147   1.701   5.857 -0.6312 -0.8187  1.0631
  974MOL0     H31435   6.253   1.985   5.867  0.2934  0.1640  0.0658
  974MOL0     H31436   6.348   1.847   5.819 -0.5667 -0.2347  2.2613
  974MOL0     H31437   6.139   1.826   5.649  2.0281 -0.6462 -2.8124
  974MOL0     H31438   6.124   1.999   5.672  0.9057 -0.3541 -1.5431
  974MOL0     H31439   6.245   1.941   5.479  0.1077  2.8337 -1.1925
  974MOL0     H31440   6.384   1.884   5.578  0.4150  0.3971  2.1022
  974MOL0     H31441   6.501   2.092   5.737  0.2603  3.2237  1.6786
  974MOL0     H31442   6.604   2.317   5.756 -0.5830 -0.0903  0.6685
  974MOL0     H31443   6.570   2.437   5.632  0.2619  1.0366  0.5790
  974MOL0     H31444   6.370   2.387   5.847 -2.0234 -1.0186 -3.4544
  974MOL0     H31445   6.387   2.543   5.761 -1.9600 -2.5254 -0.4485
  974MOL0     H31446   6.440   2.584   5.979 -1.7334 -0.4490 -0.5012
  974MOL0     H31447   6.588   2.596   5.889  1.0965 -1.6496  0.7986
  974MOL0     H31448   6.630   2.471   6.108 -0.2933  1.8902 -0.7186
  974MOL0     H31449   6.694   2.404   5.967  1.5556  1.5745  1.4750
  974MOL0     H31450   6.424   2.069   6.029  0.5096  2.0213  2.8670
  974MOL0     H31451   6.469   1.765   6.192 -1.0736  0.2624 -0.5793
  974MOL0     H31452   6.418   1.830   6.030 -1.7375  0.5170  1.0628
  974MOL0     H31453   6.570   1.744   6.038 -1.0319  1.4698 -3.6422
  974MOL0     H31454   7.037   1.889   6.478 -1.7456  0.5492  2.5125
  974MOL0     H31455   7.137   1.724   6.645  1.3588 -3.1619 -0.4704
  974MOL0     H31456   6.876   1.388   6.732 -0.9516  2.7358  0.1415
  974MOL0     H31457   7.014   1.291   6.723 -0.4131  1.4159 -1.7897
  974MOL0     H31458   6.974   1.268   6.936 -2.4765  0.7263  2.0841
  974MOL0     H31459   7.104   1.398   6.950  0.8829 -1.2009 -0.0419
  974MOL0     H31460   6.792   1.417   7.001 -0.8480  2.8960  1.8529
  974MOL0     H31461   6.893   1.553   7.002 -3.7948  0.1246  0.4954
  974MOL0     H31462   6.878   1.326   7.194 -0.6806 -0.8520 -0.0199
  974MOL0     H31463   7.015   1.436   7.192 -0.6112  1.0167 -1.4959
  974MOL0     H31464   6.726   1.522   7.228 -0.1863  0.2709  2.4994
  974MOL0     H31465   6.863   1.635   7.215 -2.0002 -0.4372 -1.3478
  974MOL0     H31466   6.847   1.429   7.424  1.2006  0.0984  0.1910
  974MOL0     H31467   6.971   1.543   7.411 -0.0343 -0.7017 -2.6859
  974MOL0     H31468   6.681   1.632   7.404  0.1402  2.3440 -1.3742
  974MOL0     H31469   6.817   1.731   7.470  3.4136 -0.6476 -1.7254
  974MOL0     H31470   6.672   1.675   7.644 -0.1176  0.6120 -0.6411
  974MOL0     H31471   6.831   1.582   7.666  1.9448 -0.4438 -3.1717
  974MOL0     H31472   6.854   1.433   6.519  2.7087 -0.9589  2.1502
  974MOL0     H31473   6.781   1.562   6.349  0.8335  1.1708 -2.0660
  974MOL0     H31474   6.866   2.086   6.234 -1.0187  2.2136  0.0242
  974MOL0     H31475   6.764   2.276   6.171  2.4894 -1.2796 -0.7051
  974MOL0     H31476   5.439   2.146   5.895  1.6558 -0.5149 -2.2523
  974MOL0     H31477   5.185   2.084   5.855 -1.8015 -1.5555  0.3583
  974MOL0     H31478   4.925   1.750   5.676 -0.2748 -1.8336 -1.2131
  974MOL0     H31479   4.707   1.670   5.596  1.2143 -0.9695 -0.6292
  974MOL0     H31480   4.387   1.745   5.564 -0.9025 -0.2416 -0.4173
  974MOL0     H31481   4.511   1.626   5.538 -0.2331  2.0479 -0.9277
  974MOL0     H31482   4.246   1.576   5.698 -3.9301 -4.6560 -1.4719
  974MOL0     H31483   4.358   1.459   5.636  3.8857  1.1116 -0.7268
  974MOL0     H31484   4.148   1.479   5.529  0.7858 -1.2352  1.4482
  974MOL0     H31485   4.273   1.504   5.402  0.5137 -2.2590  0.7866
  974MOL0     H31486   4.200   1.741   5.373 -1.5714  1.0777 -0.9561
  974MOL0     H31487   4.154   1.745   5.540 -2.8893  1.4587 -1.2078
  974MOL0     H31488   3.841   1.646   5.274 -1.2647  1.1701 -0.7047
  974MOL0     H31489   4.515   1.813   5.966  0.1027  2.8757 -0.1743
  974MOL0     H31490   4.743   1.897   6.037  1.8465  3.4472 -1.8498
  975MOL0     O31491   5.006   5.685   4.232 -0.5355 -0.2354  0.4604
  975MOL0     C31492   5.088   5.674   4.323 -0.5490 -0.7968  0.0351
  975MOL0     O31493   5.068   5.602   4.437  0.2330 -0.7171 -0.3888
  975MOL0     C31494   4.939   5.559   4.458  0.6807 -0.0139  0.2245
  975MOL0     C31495   4.859   5.629   4.543  0.6868 -0.5293  0.2505
  975MOL0     C31496   4.728   5.600   4.585  1.8796 -0.2870 -0.4140
  975MOL0     C31497   4.671   5.486   4.538  0.7559 -0.2464 -0.0535
  975MOL0     O31498   4.555   5.448   4.587  0.0539 -0.7262 -0.3169
  975MOL0     C31499   4.512   5.315   4.580 -0.3354  0.2862 -0.2089
  975MOL0     C31500   4.504   5.264   4.725 -0.4602 -0.5994 -1.4361
  975MOL0     C31501   4.391   5.170   4.731  0.3771  0.5120  0.4173
  975MOL0     C31502   4.362   5.133   4.874  0.1965 -0.3026 -0.8335
  975MOL0     C31503   4.434   5.014   4.929  0.6127  0.9702  0.3390
  975MOL0     C31504   4.372   4.872   4.883  0.0681 -1.1206  0.1995
  975MOL0     C31505   4.250   4.835   4.964 -0.0824 -0.4369 -0.3414
  975MOL0     C31506   4.170   4.707   4.916  0.3601  1.0366  0.6846
  975MOL0     N31507   4.115   4.695   4.784 -0.2113  0.0774 -0.2223
  975MOL0     C31508   4.135   4.586   4.698 -0.5401 -0.3754 -0.4465
  975MOL0     C31509   4.062   4.611   4.588  0.8238 -0.3126  0.0016
  975MOL0     C31510   4.072   4.533   4.465  1.1669 -0.0126 -0.1649
  975MOL0     C31511   4.186   4.584   4.372  0.4812  0.7884 -0.8653
  975MOL0     C31512   4.197   4.503   4.244 -1.0360 -0.4587 -0.2096
  975MOL0     C31513   4.121   4.568   4.132  0.0940  0.1940 -0.2143
  975MOL0     O31514   4.136   4.483   4.018  0.0682 -0.6852 -1.1036
  975MOL0     C31515   4.143   4.535   3.893 -0.0407 -0.2519  0.9870
  975MOL0     C31516   4.055   4.635   3.846  0.1187  0.2026 -0.6935
  975MOL0     C31517   4.070   4.696   3.715  1.1536 -0.0795 -0.2262
  975MOL0     C31518   3.970   4.812   3.671 -0.3718  1.2915 -0.5139
  975MOL0     C31519   4.175   4.650   3.629  0.0271 -0.7816 -1.2678
  975MOL0     C31520   4.204   4.709   3.498 -1.0852  0.5107  0.5111
  975MOL0     O31521   4.095   4.744   3.421 -0.6010 -0.6630 -0.0357
  975MOL0     C31522   4.099   4.802   3.297 -0.1546 -0.0165 -0.5512
  975MOL0     C31523   4.212   4.853   3.236  0.0521 -0.0322  0.0729
  975MOL0     C31524   4.192   4.919   3.113 -0.1963  0.0827 -0.3165
  975MOL0     C31525   4.063   4.923   3.055 -0.3079  0.4825 -0.3169
  975MOL0     O31526   4.062   4.990   2.934 -0.2825  0.2941 -0.1435
  975MOL0     C31527   3.948   5.068   2.905  0.1003 -0.5638  0.2031
  975MOL0     C31528   4.010   5.192   2.847 -0.2864  0.1975 -0.0338
  975MOL0     C31529   3.899   5.295   2.803  0.3979  1.0551  0.4238
  975MOL0     C31530   3.822   5.258   2.667 -0.1307  0.5129 -0.6775
  975MOL0     C31531   3.746   5.380   2.619  0.3275  0.4600 -0.3153
  975MOL0     C31532   3.635   5.349   2.513  0.8930 -0.4843  0.4448
  975MOL0     C31533   3.693   5.298   2.377  0.5695  0.4841 -0.5539
  975MOL0     C31534   3.594   5.271   2.270  0.3404 -0.5903 -0.7855
  975MOL0    Cl31535   3.465   5.408   2.249 -0.0915  0.2112 -0.2854
  975MOL0     C31536   3.950   4.869   3.118  0.0747 -0.7296  0.7312
  975MOL0     C31537   3.970   4.814   3.244  0.0027  0.6277  0.0221
  975MOL0     O31538   4.318   4.742   3.482  0.2316 -0.0545  0.9815
  975MOL0     C31539   4.253   4.545   3.673  0.2913  0.4751  0.3929
  975MOL0     C31540   4.247   4.495   3.805  0.9938  0.2482  0.0092
  975MOL0     N31541   4.009   4.730   4.597 -1.2495  0.0810 -0.8506
  975MOL0     N31542   4.039   4.788   4.715  0.6642 -0.2485  0.6095
  975MOL0     C31543   4.757   5.409   4.463 -0.2834  0.4434  0.7638
  975MOL0     C31544   4.882   5.438   4.420 -0.6274 -0.2811 -0.1119
  975MOL0     C31545   5.203   5.753   4.328  0.2117 -0.9653 -0.0888
  975MOL0     C31546   5.240   5.834   4.216  0.1995  0.6033 -0.3532
  975MOL0     C31547   5.367   5.896   4.210 -0.6341  0.6711 -0.0531
  975MOL0     C31548   5.456   5.881   4.320  0.0047 -0.2133  1.1617
  975MOL0     O31549   5.589   5.925   4.309 -0.9801  0.5772 -0.5839
  975MOL0     C31550   5.611   6.068   4.296  0.0648 -0.6318 -0.3896
  975MOL0     C31551   5.589   6.131   4.439 -0.5307  0.2691 -0.7090
  975MOL0     C31552   5.590   6.281   4.449  1.5078 -0.3677  0.3513
  975MOL0     C31553   5.591   6.314   4.592 -0.3030 -0.6765  1.0045
  975MOL0     C31554   5.567   6.454   4.609  0.8086 -1.7788 -0.6435
  975MOL0     C31555   5.545   6.572   4.636  0.3676 -0.7026 -0.2855
  975MOL0     C31556   5.416   5.817   4.433 -0.7992 -1.4909 -0.0353
  975MOL0     C31557   5.289   5.753   4.436 -0.8893  0.1244 -0.1941
  975MOL0     H31558   4.877   5.725   4.590 -1.4090 -1.5326  3.3777
  975MOL0     H31559   4.684   5.666   4.659  0.7133 -0.0834 -1.2568
  975MOL0     H31560   4.411   5.321   4.539 -0.5251  1.3431  0.3940
  975MOL0     H31561   4.559   5.236   4.520  1.3605 -0.9835  2.6083
  975MOL0     H31562   4.597   5.242   4.780 -0.4990  3.1821  0.4828
  975MOL0     H31563   4.479   5.355   4.781  0.7292  0.9337 -3.2833
  975MOL0     H31564   4.292   5.203   4.698 -1.3114 -2.7120  1.7580
  975MOL0     H31565   4.423   5.079   4.679  1.9920  0.0219  2.1632
  975MOL0     H31566   4.386   5.216   4.940  3.4199 -1.1103 -0.8062
  975MOL0     H31567   4.258   5.107   4.893 -1.1725  4.7057 -0.1154
  975MOL0     H31568   4.535   5.017   4.888 -0.4216  0.9380 -2.4511
  975MOL0     H31569   4.428   5.015   5.038 -0.9353  4.1001  0.3228
  975MOL0     H31570   4.363   4.862   4.774  1.5393 -2.9054  0.1917
  975MOL0     H31571   4.437   4.795   4.925  1.5246  1.3035  2.7311
  975MOL0     H31572   4.267   4.835   5.072 -1.0382  1.4311 -0.1456
  975MOL0     H31573   4.181   4.920   4.953 -1.1725 -1.4512 -1.6771
  975MOL0     H31574   4.076   4.706   4.971 -0.8120  1.5366 -1.2250
  975MOL0     H31575   4.229   4.620   4.946 -0.3565 -0.5317 -2.1674
  975MOL0     H31576   4.184   4.489   4.700 -0.1244 -0.1561  0.4811
  975MOL0     H31577   4.094   4.431   4.499 -2.9401  0.0590  3.5832
  975MOL0     H31578   3.973   4.545   4.420  2.1541  1.1526 -2.1526
  975MOL0     H31579   4.280   4.579   4.428 -1.1686 -1.3968  2.0597
  975MOL0     H31580   4.170   4.685   4.334 -0.7896  0.2407 -1.8428
  975MOL0     H31581   4.168   4.398   4.256 -1.6081 -0.5879 -2.3172
  975MOL0     H31582   4.302   4.499   4.212 -1.1636 -0.8769 -0.6031
  975MOL0     H31583   4.158   4.669   4.111 -2.3331  0.9843 -1.0139
  975MOL0     H31584   4.018   4.588   4.162  0.4787 -0.0066  1.3355
  975MOL0     H31585   3.985   4.683   3.913  1.1021 -0.5489  0.9377
  975MOL0     H31586   3.974   4.890   3.748  1.2868  2.6964 -1.9535
  975MOL0     H31587   4.004   4.869   3.584 -0.9232  2.7342  0.1824
  975MOL0     H31588   3.868   4.776   3.658  1.1229 -2.6071 -3.0554
  975MOL0     H31589   4.307   4.846   3.288  1.1688 -0.8677 -1.9415
  975MOL0     H31590   4.277   4.974   3.073 -0.4516 -1.2788 -2.9354
  975MOL0     H31591   3.886   5.014   2.832  0.3335  1.0548 -1.2440
  975MOL0     H31592   3.882   5.086   2.990  1.3290  0.8522  0.8987
  975MOL0     H31593   4.075   5.233   2.925  0.9684 -0.3887 -0.7305
  975MOL0     H31594   4.072   5.177   2.757 -0.0921  0.7496  0.0073
  975MOL0     H31595   3.951   5.391   2.801 -0.8288  1.7243 -0.8863
  975MOL0     H31596   3.827   5.311   2.884 -0.8650 -1.8236  0.0017
  975MOL0     H31597   3.891   5.231   2.586 -1.0248 -0.1347 -1.2434
  975MOL0     H31598   3.765   5.167   2.688 -2.7985  2.1672 -0.2787
  975MOL0     H31599   3.812   5.458   2.578 -0.7846  1.4046 -0.3484
  975MOL0     H31600   3.700   5.432   2.704  4.3469  0.7885  1.9690
  975MOL0     H31601   3.561   5.276   2.545  0.1726 -1.7967 -3.5603
  975MOL0     H31602   3.595   5.448   2.488 -2.1568 -1.7551 -0.1723
  975MOL0     H31603   3.737   5.200   2.399 -1.8986 -0.7959 -0.9247
  975MOL0     H31604   3.769   5.366   2.337  3.2532 -1.8312  0.2095
  975MOL0     H31605   3.539   5.177   2.282 -2.2680  0.7086 -1.7948
  975MOL0     H31606   3.663   5.260   2.187 -2.0217 -1.2469 -2.7653
  975MOL0     H31607   3.845   4.874   3.092  0.2075 -1.1150  0.1149
  975MOL0     H31608   3.882   4.781   3.299 -1.0054  2.0310 -0.6825
  975MOL0     H31609   4.336   4.505   3.616 -0.7300  0.6945 -1.3085
  975MOL0     H31610   4.321   4.421   3.833  0.9815  0.4887  0.6935
  975MOL0     H31611   4.728   5.308   4.436  2.9625 -0.7537  1.3038
  975MOL0     H31612   4.948   5.364   4.376 -0.9679 -2.7224  3.1011
  975MOL0     H31613   5.184   5.810   4.126  0.8604 -1.4253 -0.2806
  975MOL0     H31614   5.407   5.970   4.141  2.0775  1.1959  1.9300
  975MOL0     H31615   5.710   6.090   4.256  0.2247 -0.9118 -0.1546
  975MOL0     H31616   5.544   6.120   4.227  0.6228  1.6146  0.6614
  975MOL0     H31617   5.683   6.105   4.487 -0.7018  1.1369  0.1232
  975MOL0     H31618   5.508   6.080   4.491 -1.1433 -0.7461 -2.5599
  975MOL0     H31619   5.503   6.314   4.393  2.9638 -1.6132 -2.9506
  975MOL0     H31620   5.674   6.322   4.391 -0.4999  1.5914 -1.3468
  975MOL0     H31621   5.691   6.283   4.623  0.3776  1.0490  0.6368
  975MOL0     H31622   5.514   6.254   4.643 -2.1167 -0.0189 -0.8006
  975MOL0     H31623   5.551   6.677   4.657  0.9058 -0.6100 -0.8731
  975MOL0     H31624   5.492   5.808   4.510 -0.1737 -0.9667 -0.5797
  975MOL0     H31625   5.285   5.665   4.500 -0.7649 -0.7542 -1.3654
  976MOL0     O31626   8.656   3.363   6.322  0.2920 -0.0719 -0.3479
  976MOL0     C31627   8.534   3.334   6.360  0.2746  0.4533 -0.4548
  976MOL0     O31628   8.460   3.237   6.306  0.8553  0.1216 -0.5849
  976MOL0     C31629   8.514   3.158   6.222 -0.2530 -0.1276  1.1287
  976MOL0     C31630   8.602   3.046   6.239  0.3303  0.9345  0.5501
  976MOL0     C31631   8.660   2.982   6.128  0.2831 -0.5483 -0.5786
  976MOL0     C31632   8.633   3.029   5.998 -0.1811  1.0034  0.6345
  976MOL0     O31633   8.689   2.953   5.897  0.3090  0.3878  0.2913
  976MOL0     C31634   8.740   3.028   5.787 -0.4172  0.4440  0.3368
  976MOL0     C31635   8.816   2.935   5.697 -0.6694  0.3226  0.3022
  976MOL0     C31636   8.871   3.020   5.587 -1.1593  0.5685  0.2505
  976MOL0     C31637   9.006   2.959   5.549 -0.0519  0.5486  0.1437
  976MOL0     C31638   9.086   3.045   5.455  0.3703 -0.2297  0.3433
  976MOL0     C31639   9.163   3.167   5.516  0.3143 -0.6504 -0.2008
  976MOL0     C31640   9.266   3.220   5.401  0.5715 -0.4569 -0.6538
  976MOL0     C31641   9.355   3.336   5.453 -0.6016 -0.0827 -0.3454
  976MOL0     N31642   9.273   3.450   5.500 -0.5193 -0.1132 -0.5408
  976MOL0     C31643   9.234   3.464   5.631  0.0420  0.5633 -0.9756
  976MOL0     C31644   9.166   3.587   5.644 -0.8034 -0.2983  0.4809
  976MOL0     C31645   9.106   3.637   5.776 -0.7570 -0.3366  0.3433
  976MOL0     C31646   9.117   3.790   5.776  0.2143 -0.2426 -0.3549
  976MOL0     C31647   9.045   3.839   5.900 -0.7531 -0.0752  0.5399
  976MOL0     C31648   9.060   3.983   5.934 -0.0196 -0.4008  0.4406
  976MOL0     O31649   9.014   4.064   5.826 -0.4403  0.6764 -0.5058
  976MOL0     C31650   9.032   4.200   5.842  0.2069  0.3356 -0.3924
  976MOL0     C31651   9.050   4.265   5.723  0.3449  0.2010 -0.0311
  976MOL0     C31652   9.076   4.405   5.716  0.5735  0.2787  0.5457
  976MOL0     C31653   9.133   4.465   5.593  0.1805 -0.2689 -0.4016
  976MOL0     C31654   9.073   4.471   5.836  0.1448  0.0452 -0.0952
  976MOL0     C31655   9.110   4.614   5.845 -0.2881 -0.2821 -0.1665
  976MOL0     O31656   9.023   4.695   5.790  0.1249 -0.1162  0.8031
  976MOL0     C31657   9.070   4.825   5.764 -0.4605 -0.2159  0.3434
  976MOL0     C31658   9.138   4.872   5.650  1.0373  1.0140  0.1445
  976MOL0     C31659   9.173   5.008   5.637 -0.5627  0.9325  0.8863
  976MOL0     C31660   9.128   5.101   5.722  0.0704 -0.2673  0.2533
  976MOL0     O31661   9.159   5.229   5.728  0.3090 -0.5072 -0.2214
  976MOL0     C31662   9.202   5.300   5.610 -0.0383  0.3498 -0.6947
  976MOL0     C31663   9.239   5.446   5.654 -0.3860 -0.3986  0.0525
  976MOL0     C31664   9.308   5.527   5.524 -0.0995  0.2267 -1.1032
  976MOL0     C31665   9.358   5.671   5.581  0.5127  0.7156 -0.3135
  976MOL0     C31666   9.498   5.660   5.632  0.2651  0.1442 -0.0318
  976MOL0     C31667   9.556   5.795   5.677  0.0544 -0.3868 -0.0688
  976MOL0     C31668   9.712   5.803   5.671 -0.3329 -0.5498  0.4828
  976MOL0     C31669   9.763   5.951   5.668 -0.8336  0.2805 -0.7916
  976MOL0    Cl31670   9.697   6.054   5.788 -0.2149  0.0623 -0.1689
  976MOL0     C31671   9.062   5.057   5.833  0.3844 -0.2227 -0.0879
  976MOL0     C31672   9.033   4.926   5.856  0.7624  0.6292 -0.3229
  976MOL0     O31673   9.213   4.643   5.906  0.1054 -0.7019  0.4288
  976MOL0     C31674   9.059   4.405   5.961  0.3660 -0.0969  0.1256
  976MOL0     C31675   9.029   4.269   5.961  0.9569 -0.4085 -0.2866
  976MOL0     N31676   9.181   3.647   5.521  0.2174  0.4937 -0.1731
  976MOL0     N31677   9.234   3.566   5.433  0.1624  0.5545 -0.4956
  976MOL0     C31678   8.547   3.140   5.985 -0.0708  0.0092  0.9056
  976MOL0     C31679   8.498   3.203   6.092 -0.1392  1.1340 -0.6764
  976MOL0     C31680   8.477   3.432   6.455  0.4542 -0.4716  0.0878
  976MOL0     C31681   8.362   3.394   6.520  0.1878 -0.3051 -0.0712
  976MOL0     C31682   8.300   3.483   6.607 -0.2154  0.3098 -0.5250
  976MOL0     C31683   8.355   3.606   6.630 -0.0585 -0.1025  0.2939
  976MOL0     O31684   8.293   3.676   6.735  0.3625  0.7565  0.2149
  976MOL0     C31685   8.212   3.787   6.687 -0.7059  0.9156 -0.1957
  976MOL0     C31686   8.267   3.912   6.752 -0.0069  0.7037  0.2573
  976MOL0     C31687   8.175   4.029   6.726  0.3489  0.1826 -0.0681
  976MOL0     C31688   8.239   4.157   6.764 -0.2604 -0.1698  1.2241
  976MOL0     C31689   8.280   4.169   6.900 -0.5218 -1.2305 -0.6150
  976MOL0     C31690   8.302   4.178   7.020  1.0566  0.2220 -0.2227
  976MOL0     C31691   8.477   3.646   6.570  0.6436  0.1551 -0.8930
  976MOL0     C31692   8.532   3.558   6.481 -0.3976  0.7119  0.1047
  976MOL0     H31693   8.619   3.012   6.341  0.8577  0.5400  0.3307
  976MOL0     H31694   8.728   2.898   6.139  0.3555 -0.7850 -2.5303
  976MOL0     H31695   8.648   3.058   5.735 -1.3855 -1.0831  1.1165
  976MOL0     H31696   8.798   3.115   5.820 -1.6262  0.9905  1.0868
  976MOL0     H31697   8.901   2.892   5.750  0.9179  2.3870 -0.4658
  976MOL0     H31698   8.755   2.848   5.672  0.1345 -0.4440  0.9287
  976MOL0     H31699   8.805   3.029   5.500 -3.4748  1.1024  1.9847
  976MOL0     H31700   8.886   3.121   5.625 -1.4016  0.6354  0.1726
  976MOL0     H31701   9.067   2.937   5.636 -2.7783 -3.3948  1.3204
  976MOL0     H31702   8.995   2.861   5.503 -0.1268  1.5089 -2.0377
  976MOL0     H31703   9.157   2.970   5.418 -0.7650 -0.4477 -1.5013
  976MOL0     H31704   9.024   3.074   5.370  0.4174 -1.7367 -0.2360
  976MOL0     H31705   9.092   3.243   5.550 -0.0213 -0.5534 -1.0751
  976MOL0     H31706   9.225   3.137   5.600  0.8658  2.7299  0.7200
  976MOL0     H31707   9.334   3.137   5.378  0.2126 -0.6546 -1.0102
  976MOL0     H31708   9.210   3.243   5.310  1.5169 -0.0820 -1.1581
  976MOL0     H31709   9.420   3.370   5.372  0.9878 -0.2187  0.8365
  976MOL0     H31710   9.422   3.307   5.534 -1.3008  0.3586  0.4190
  976MOL0     H31711   9.260   3.389   5.705  0.5262  0.5004 -1.2108
  976MOL0     H31712   9.002   3.605   5.782 -1.4456  1.8447  0.7915
  976MOL0     H31713   9.165   3.585   5.853  0.9036 -0.0787 -0.6922
  976MOL0     H31714   9.063   3.829   5.689 -2.2615 -0.1875  1.1026
  976MOL0     H31715   9.221   3.822   5.787 -0.3572  1.5918  0.0794
  976MOL0     H31716   9.088   3.783   5.984 -0.4086 -2.7350 -1.2629
  976MOL0     H31717   8.939   3.811   5.903 -0.3069 -1.8009  1.6097
  976MOL0     H31718   9.162   4.016   5.954  0.1863 -2.2319  2.7392
  976MOL0     H31719   8.998   4.003   6.021  0.0894  1.1907  0.1825
  976MOL0     H31720   9.054   4.210   5.630  0.6071  2.1605 -1.2430
  976MOL0     H31721   9.124   4.573   5.576 -1.3915 -0.4639 -0.9979
  976MOL0     H31722   9.241   4.448   5.604  0.8742  2.3785 -2.1606
  976MOL0     H31723   9.095   4.414   5.504  0.0146 -0.5451 -0.1723
  976MOL0     H31724   9.162   4.810   5.564  2.3731 -0.5094  1.5498
  976MOL0     H31725   9.223   5.026   5.542 -1.7004 -0.6325 -0.0719
  976MOL0     H31726   9.300   5.265   5.576  0.7251  0.6122  1.1241
  976MOL0     H31727   9.129   5.292   5.529 -0.7806 -1.8668  0.1148
  976MOL0     H31728   9.150   5.500   5.688 -1.7044  0.2654 -3.9306
  976MOL0     H31729   9.315   5.447   5.733 -0.4858 -1.8876  0.1949
  976MOL0     H31730   9.239   5.551   5.443  2.1731  2.0674 -2.6494
  976MOL0     H31731   9.383   5.464   5.474  0.0714  0.3442 -0.9977
  976MOL0     H31732   9.351   5.740   5.496 -3.7201 -0.7470 -1.4295
  976MOL0     H31733   9.285   5.715   5.650 -2.2900 -1.6577 -1.5084
  976MOL0     H31734   9.556   5.612   5.553 -1.6258 -3.8844  0.7908
  976MOL0     H31735   9.507   5.587   5.713  2.0634  1.3073  0.8943
  976MOL0     H31736   9.517   5.875   5.614  1.3247  1.1170  0.9924
  976MOL0     H31737   9.519   5.824   5.776 -0.7653 -1.9573  0.1132
  976MOL0     H31738   9.752   5.754   5.582 -1.9257 -0.6778 -0.1994
  976MOL0     H31739   9.751   5.740   5.751 -1.4463 -1.1289  0.5940
  976MOL0     H31740   9.735   5.990   5.570  2.7118  3.9128 -0.6106
  976MOL0     H31741   9.872   5.951   5.672 -0.8353  1.3020  2.5906
  976MOL0     H31742   9.029   5.135   5.902 -0.3277 -1.2293  0.7361
  976MOL0     H31743   8.978   4.885   5.940  1.6796 -0.3007 -0.1534
  976MOL0     H31744   9.057   4.470   6.047 -2.3193  1.1111 -0.7683
  976MOL0     H31745   9.013   4.228   6.060  0.0898  0.4982 -0.0444
  976MOL0     H31746   8.512   3.181   5.891 -0.1715  0.2172  1.0340
  976MOL0     H31747   8.448   3.298   6.076  2.7377  2.6018 -1.8046
  976MOL0     H31748   8.314   3.297   6.511 -0.8155  0.0608  1.0874
  976MOL0     H31749   8.209   3.454   6.659 -0.0847  0.0552 -0.4376
  976MOL0     H31750   8.200   3.790   6.578  0.1142 -0.1074 -0.3253
  976MOL0     H31751   8.110   3.767   6.721 -1.1830  1.7053 -1.0762
  976MOL0     H31752   8.364   3.931   6.704  0.1730  1.1829  0.8001
  976MOL0     H31753   8.274   3.892   6.860 -0.3680 -3.5289 -0.3267
  976MOL0     H31754   8.081   4.015   6.779  0.2793  0.4239 -0.1263
  976MOL0     H31755   8.146   4.042   6.622  1.5215 -0.3479 -0.4832
  976MOL0     H31756   8.157   4.227   6.747 -1.0245 -1.4512 -0.7481
  976MOL0     H31757   8.332   4.183   6.713  0.1246 -1.3989  1.2648
  976MOL0     H31758   8.310   4.180   7.127 -0.6567 -0.6201 -0.0573
  976MOL0     H31759   8.508   3.746   6.597  0.2072 -0.4630  2.1883
  976MOL0     H31760   8.620   3.595   6.430 -0.9856  2.1202  0.0666
  977MOL0     O31761   0.097   1.669   0.202 -0.3028 -1.2841  0.1845
  977MOL0     C31762   0.064   1.749   0.116  0.2044  0.2542 -0.1524
  977MOL0     O31763   0.052   1.733  -0.019 -0.5663  0.2453 -0.8563
  977MOL0     C31764   0.120   1.637  -0.082 -0.8864  0.4648 -1.0716
  977MOL0     C31765   0.241   1.583  -0.030 -0.5650 -1.0926  0.5010
  977MOL0     C31766   0.333   1.514  -0.107  0.7457 -0.6880 -0.1098
  977MOL0     C31767   0.295   1.484  -0.242 -0.0425  0.3235 -0.7776
  977MOL0     O31768   0.386   1.417  -0.324  0.8293  0.4734  0.0827
  977MOL0     C31769   0.523   1.392  -0.293  0.1766 -1.1227 -0.0469
  977MOL0     C31770   0.605   1.318  -0.397  0.0874  0.5153 -0.4484
  977MOL0     C31771   0.655   1.388  -0.530  0.9192  0.3848  0.2647
  977MOL0     C31772   0.724   1.288  -0.624 -0.3927 -0.2671 -0.2983
  977MOL0     C31773   0.761   1.351  -0.757  0.4047 -0.1335 -0.2786
  977MOL0     C31774   0.900   1.409  -0.752 -0.7257  0.2448  0.0087
  977MOL0     C31775   0.931   1.443  -0.906  0.0709  0.1535 -0.8569
  977MOL0     C31776   1.081   1.514  -0.906 -0.1386  0.5419  0.8054
  977MOL0     N31777   1.097   1.656  -0.862  0.7105  0.8844 -0.1288
  977MOL0     C31778   1.147   1.680  -0.736 -0.6428  0.5211 -0.3934
  977MOL0     C31779   1.137   1.815  -0.718  0.1335 -0.5853  0.2421
  977MOL0     C31780   1.164   1.873  -0.583 -1.0249  0.3042  0.0876
  977MOL0     C31781   1.228   2.018  -0.594  0.6593  1.2627  0.5356
  977MOL0     C31782   1.311   2.059  -0.466  0.7850 -0.5459 -0.5210
  977MOL0     C31783   1.357   2.206  -0.480 -0.0760  0.7743 -0.4506
  977MOL0     O31784   1.429   2.251  -0.589  0.0616  0.4060  0.7974
  977MOL0     C31785   1.570   2.217  -0.609  1.4933 -0.8934 -0.0422
  977MOL0     C31786   1.615   2.239  -0.745 -1.0405  0.9058 -0.1104
  977MOL0     C31787   1.743   2.220  -0.775  0.3705 -1.2726 -0.9886
  977MOL0     C31788   1.802   2.262  -0.911  1.4562 -0.8528 -0.7460
  977MOL0     C31789   1.835   2.162  -0.679  0.1124  0.1833 -0.0392
  977MOL0     C31790   1.986   2.123  -0.693  0.9010 -0.1686  0.2848
  977MOL0     O31791   2.051   2.069  -0.586 -0.1445  0.2704 -0.3755
  977MOL0     C31792   2.180   2.028  -0.602  0.9467 -0.3174 -0.4760
  977MOL0     C31793   2.209   1.909  -0.650 -0.8162 -0.0902 -0.0501
  977MOL0     C31794   2.340   1.855  -0.652 -0.4703 -0.4077  1.0810
  977MOL0     C31795   2.440   1.952  -0.624  0.8536 -0.6173  0.1558
  977MOL0     O31796   2.570   1.912  -0.655  0.2330 -0.2223 -0.4141
  977MOL0     C31797   2.671   2.011  -0.662 -0.1122 -0.0040  0.1780
  977MOL0     C31798   2.799   1.947  -0.696  0.4293 -0.1069  0.6846
  977MOL0     C31799   2.831   1.818  -0.623 -0.0743  0.1379  0.4330
  977MOL0     C31800   2.966   1.756  -0.648 -0.3001 -1.1485 -0.2866
  977MOL0     C31801   2.993   1.630  -0.581 -0.4715 -0.2149  0.0990
  977MOL0     C31802   3.131   1.560  -0.585  0.3198  0.7784 -0.3805
  977MOL0     C31803   3.158   1.480  -0.459  0.6194 -0.5166 -0.2431
  977MOL0     C31804   3.284   1.402  -0.464  0.5934  0.0492  0.5248
  977MOL0    Cl31805   3.244   1.235  -0.488  0.0504 -0.2891 -0.2152
  977MOL0     C31806   2.405   2.085  -0.585 -0.3922  0.9674 -0.2190
  977MOL0     C31807   2.276   2.118  -0.561 -0.0801  0.0522  0.4849
  977MOL0     O31808   2.037   2.144  -0.805  0.6137  0.3653 -0.7452
  977MOL0     C31809   1.789   2.146  -0.549  0.0797 -0.4182  0.9127
  977MOL0     C31810   1.652   2.155  -0.521 -0.3202  0.3353  0.5666
  977MOL0     N31811   1.093   1.865  -0.843  0.8312 -0.0299 -0.6319
  977MOL0     N31812   1.078   1.771  -0.932  0.2682  0.0483 -0.4216
  977MOL0     C31813   0.178   1.534  -0.288  0.7863  0.4741 -0.1762
  977MOL0     C31814   0.091   1.617  -0.215 -0.1979  0.4049 -0.0637
  977MOL0     C31815   0.033   1.879   0.167 -1.4513 -0.8379 -0.2564
  977MOL0     C31816   0.140   1.973   0.148  0.2385 -0.2052 -0.4013
  977MOL0     C31817   0.127   2.099   0.198 -0.1955 -0.1926 -0.8916
  977MOL0     C31818   0.009   2.135   0.265 -0.5587 -0.1632  0.6573
  977MOL0     O31819  -0.027   2.262   0.304 -0.1772  0.6959 -0.3010
  977MOL0     C31820   0.083   2.348   0.297 -0.4884  0.1925  0.2466
  977MOL0     C31821   0.038   2.494   0.328 -0.8881  0.4074 -0.0723
  977MOL0     C31822  -0.068   2.526   0.215 -0.0100 -0.4529 -0.3488
  977MOL0     C31823  -0.119   2.669   0.218 -0.7742  0.2068 -0.1292
  977MOL0     C31824  -0.216   2.679   0.113 -0.1930  0.2270  0.1539
  977MOL0     C31825  -0.307   2.668   0.023 -0.4952 -0.1720 -1.0382
  977MOL0     C31826  -0.091   2.045   0.280  0.6418 -0.4805  0.2359
  977MOL0     C31827  -0.085   1.915   0.214  0.0281 -0.6332 -0.5481
  977MOL0     H31828   0.266   1.596   0.075 -0.3678 -3.4677  0.7964
  977MOL0     H31829   0.418   1.460  -0.067  0.1654 -1.1530  0.5234
  977MOL0     H31830   0.574   1.489  -0.279  0.3729 -1.0741 -1.0083
  977MOL0     H31831   0.533   1.343  -0.196 -0.3401 -0.4239  0.3716
  977MOL0     H31832   0.693   1.276  -0.347 -0.2503 -0.4991 -0.6864
  977MOL0     H31833   0.546   1.231  -0.424  2.3402 -0.8633 -1.2129
  977MOL0     H31834   0.570   1.430  -0.585 -0.2600 -1.4293  0.6473
  977MOL0     H31835   0.727   1.468  -0.507  3.1964 -2.4232  4.0449
  977MOL0     H31836   0.816   1.268  -0.569 -2.1105  1.3207  3.5050
  977MOL0     H31837   0.668   1.196  -0.644  1.5126 -1.1008 -2.2143
  977MOL0     H31838   0.764   1.271  -0.831 -1.9199 -1.2210  0.6955
  977MOL0     H31839   0.691   1.426  -0.794  2.4502  0.9695 -2.1170
  977MOL0     H31840   0.904   1.498  -0.688  1.8667  0.6055 -0.5378
  977MOL0     H31841   0.969   1.331  -0.718 -1.6292  0.4222  2.4132
  977MOL0     H31842   0.932   1.349  -0.962 -3.1536  1.3816 -3.3193
  977MOL0     H31843   0.853   1.510  -0.944 -2.0224 -0.8228  1.4129
  977MOL0     H31844   1.105   1.505  -1.012  1.4298  1.2808  1.0726
  977MOL0     H31845   1.138   1.450  -0.839  1.2452  1.7583  0.8281
  977MOL0     H31846   1.173   1.606  -0.661 -1.6968  0.2193 -0.3060
  977MOL0     H31847   1.073   1.880  -0.523 -1.3707  1.3028 -0.5514
  977MOL0     H31848   1.237   1.812  -0.527 -1.1811 -0.7188 -0.7840
  977MOL0     H31849   1.159   2.095  -0.628  0.7465  1.2850  0.4094
  977MOL0     H31850   1.301   2.001  -0.673  1.0107  2.3241  0.6208
  977MOL0     H31851   1.398   1.992  -0.466  2.8927  1.8021  3.7896
  977MOL0     H31852   1.245   2.050  -0.380 -0.1690  2.2170 -0.8429
  977MOL0     H31853   1.412   2.242  -0.393 -3.8695  2.7663  1.3301
  977MOL0     H31854   1.261   2.258  -0.481 -1.1356 -0.9679  1.4734
  977MOL0     H31855   1.548   2.288  -0.816 -1.5225  0.5679  0.1070
  977MOL0     H31856   1.836   2.183  -0.978  2.1164 -0.5056 -0.8310
  977MOL0     H31857   1.723   2.315  -0.964 -0.6045 -0.8113  2.1144
  977MOL0     H31858   1.887   2.328  -0.890  0.0853  0.7660  0.0404
  977MOL0     H31859   2.123   1.844  -0.664  0.4238 -1.6061 -0.8669
  977MOL0     H31860   2.375   1.756  -0.677 -1.9481 -0.7971  0.4909
  977MOL0     H31861   2.635   2.090  -0.729 -1.0522 -1.1953 -0.7608
  977MOL0     H31862   2.685   2.065  -0.568  0.1188  0.6820 -0.2397
  977MOL0     H31863   2.795   1.913  -0.800  2.9592 -1.2521  0.8932
  977MOL0     H31864   2.882   2.019  -0.691  0.5104 -0.1683  0.2943
  977MOL0     H31865   2.763   1.735  -0.645  1.2824 -1.4750  1.9399
  977MOL0     H31866   2.826   1.853  -0.519 -0.2250  1.3952  0.0145
  977MOL0     H31867   2.971   1.741  -0.757 -0.9690 -0.3353 -0.4422
  977MOL0     H31868   3.037   1.825  -0.604 -0.3896 -1.5960  0.5739
  977MOL0     H31869   2.936   1.551  -0.629  0.2161 -1.2778  0.9926
  977MOL0     H31870   2.961   1.639  -0.477 -1.8797  0.0095 -0.3369
  977MOL0     H31871   3.142   1.499  -0.676  0.8273  0.1197  0.1161
  977MOL0     H31872   3.212   1.634  -0.577  0.2923  1.3380 -3.7703
  977MOL0     H31873   3.078   1.412  -0.429 -1.2417  1.7226  0.2047
  977MOL0     H31874   3.179   1.551  -0.379 -0.6224  0.3955 -0.6932
  977MOL0     H31875   3.339   1.402  -0.370  1.5065 -0.2030  0.0013
  977MOL0     H31876   3.343   1.442  -0.547  1.1011 -0.4889  0.6173
  977MOL0     H31877   2.492   2.147  -0.562  0.7963 -0.7542  0.0882
  977MOL0     H31878   2.246   2.212  -0.515  0.1193  0.1512  0.4129
  977MOL0     H31879   1.850   2.109  -0.468 -1.0424 -0.4917  1.7458
  977MOL0     H31880   1.613   2.120  -0.426  3.0219 -0.3454  1.8163
  977MOL0     H31881   0.153   1.518  -0.392 -0.5091  0.6832  0.0955
  977MOL0     H31882   0.006   1.661  -0.266 -0.3137  1.3568  0.9150
  977MOL0     H31883   0.221   1.931   0.088  0.5229  2.6915 -2.2266
  977MOL0     H31884   0.212   2.162   0.175  1.1168 -1.5611 -0.0029
  977MOL0     H31885   0.156   2.329   0.377  0.7744  0.5641 -0.7918
  977MOL0     H31886   0.137   2.343   0.202  2.9586 -0.5977  2.0723
  977MOL0     H31887   0.127   2.556   0.310  0.5856 -0.5016  3.2358
  977MOL0     H31888  -0.001   2.500   0.430 -3.5122 -3.8893 -0.5489
  977MOL0     H31889  -0.154   2.458   0.221 -1.4213  1.3501  2.0487
  977MOL0     H31890  -0.008   2.515   0.125  4.7458  3.7308  1.8489
  977MOL0     H31891  -0.027   2.727   0.210  0.7034 -2.1381 -1.4722
  977MOL0     H31892  -0.163   2.672   0.317  1.0775  0.6099  0.7227
  977MOL0     H31893  -0.388   2.655  -0.046 -0.0755  1.7819 -1.9943
  977MOL0     H31894  -0.181   2.087   0.325 -1.1118  0.2669 -3.5774
  977MOL0     H31895  -0.166   1.844   0.215  0.4135 -1.0920  0.5636
  978MOL0     O31896   8.342   2.460  11.498  0.4027  0.6839 -0.4152
  978MOL0     C31897   8.362   2.343  11.466 -0.0624 -0.6313 -0.1677
  978MOL0     O31898   8.475   2.303  11.405  0.4285  0.0819 -0.0085
  978MOL0     C31899   8.582   2.381  11.374 -0.3727 -0.5694 -0.5328
  978MOL0     C31900   8.590   2.517  11.346 -0.9549 -0.7919 -0.0180
  978MOL0     C31901   8.709   2.584  11.325  0.4593 -0.5177  0.4643
  978MOL0     C31902   8.825   2.508  11.312 -0.2093 -0.6747  0.5364
  978MOL0     O31903   8.945   2.564  11.268  0.6021 -0.3076 -0.8580
  978MOL0     C31904   8.958   2.542  11.121  0.3085 -0.1967 -0.0480
  978MOL0     C31905   9.083   2.621  11.095  0.0159  1.0320  0.3209
  978MOL0     C31906   9.052   2.755  11.027 -0.0043 -0.1292  0.0542
  978MOL0     C31907   9.168   2.852  11.021  0.5321  0.6044 -0.1992
  978MOL0     C31908   9.208   2.869  10.873 -0.6770 -0.2556  0.1643
  978MOL0     C31909   9.328   2.778  10.843  0.8358 -0.0577  0.4714
  978MOL0     C31910   9.462   2.808  10.913  0.5444  0.4652  0.2788
  978MOL0     C31911   9.510   2.678  10.982  0.1029  0.2752  0.4426
  978MOL0     N31912   9.522   2.544  10.914 -0.3283  0.0663 -0.0509
  978MOL0     C31913   9.598   2.533  10.794  1.1153  0.9049  0.9075
  978MOL0     C31914   9.585   2.402  10.766  0.1180  0.0215  0.1515
  978MOL0     C31915   9.664   2.315  10.679 -0.4193  1.8163  0.6548
  978MOL0     C31916   9.572   2.193  10.622 -0.0089 -0.1279 -0.1597
  978MOL0     C31917   9.629   2.098  10.530  0.3805  0.0252 -0.1157
  978MOL0     C31918   9.747   2.015  10.576  0.7309  0.2088  0.2570
  978MOL0     O31919   9.718   1.931  10.695  0.7260 -0.1664  0.9277
  978MOL0     C31920   9.808   1.839  10.733  0.0254  1.0369  0.0217
  978MOL0     C31921   9.763   1.724  10.800  0.2197  0.2124  0.8702
  978MOL0     C31922   9.860   1.631  10.841  0.1736  0.7198  0.2668
  978MOL0     C31923   9.809   1.508  10.921 -0.2031  0.3867  0.1524
  978MOL0     C31924  10.000   1.655  10.836  0.8467 -0.2104  0.0202
  978MOL0     C31925  10.102   1.556  10.865  0.5275 -0.3091  0.0211
  978MOL0     O31926  10.228   1.605  10.896 -0.5468 -0.0655  0.2786
  978MOL0     C31927  10.329   1.519  10.946  0.0635 -0.6412  0.1247
  978MOL0     C31928  10.306   1.429  11.052 -0.4168 -0.4346  0.2118
  978MOL0     C31929  10.402   1.333  11.087  0.1514  0.6399  0.2319
  978MOL0     C31930  10.533   1.351  11.043  1.1384 -0.0900 -0.0611
  978MOL0     O31931  10.629   1.275  11.095 -0.3018 -1.0001 -0.4553
  978MOL0     C31932  10.708   1.209  10.989 -0.9108  0.2594 -0.6628
  978MOL0     C31933  10.805   1.096  11.032  0.2820 -0.5254  0.3810
  978MOL0     C31934  10.722   0.966  11.071  0.4559 -0.9843 -0.5842
  978MOL0     C31935  10.817   0.865  11.131  0.7824 -0.2472 -0.1403
  978MOL0     C31936  10.757   0.720  11.148  0.1380  0.0402  0.7256
  978MOL0     C31937  10.624   0.709  11.226 -0.3843  0.4666 -0.3096
  978MOL0     C31938  10.592   0.568  11.259 -0.5108  0.6569 -0.5729
  978MOL0     C31939  10.454   0.555  11.310 -0.6610 -0.4223 -0.2652
  978MOL0    Cl31940  10.416   0.377  11.324  0.1622 -0.2654  0.0170
  978MOL0     C31941  10.560   1.453  10.952  0.0211 -0.0634  0.3949
  978MOL0     C31942  10.459   1.531  10.898 -0.2919  0.0989 -0.6936
  978MOL0     O31943  10.073   1.440  10.839  0.9575 -0.2298  0.6457
  978MOL0     C31944  10.046   1.781  10.791  0.0750 -0.3073  0.9895
  978MOL0     C31945   9.951   1.870  10.722 -0.4215  1.3625  0.6378
  978MOL0     N31946   9.486   2.346  10.850 -0.2276  1.0074 -0.7000
  978MOL0     N31947   9.451   2.428  10.936  0.5533 -0.2654  0.4586
  978MOL0     C31948   8.827   2.376  11.354  0.0008 -0.3201  0.1490
  978MOL0     C31949   8.707   2.312  11.374  0.5598 -0.6774  0.4683
  978MOL0     C31950   8.245   2.256  11.425 -0.0531 -0.1150  0.6046
  978MOL0     C31951   8.113   2.315  11.426 -0.3063  0.3443  0.2298
  978MOL0     C31952   8.000   2.239  11.394  1.3549 -0.6429 -0.3182
  978MOL0     C31953   8.017   2.109  11.344 -0.4370 -0.1287 -0.4699
  978MOL0     O31954   7.898   2.043  11.303  1.2450  0.1543  0.0763
  978MOL0     C31955   7.909   1.902  11.272  0.0685  0.2672  0.1460
  978MOL0     C31956   7.773   1.847  11.240 -0.1615 -0.1013  0.2521
  978MOL0     C31957   7.713   1.896  11.102 -0.2208  0.3305 -0.2951
  978MOL0     C31958   7.807   1.892  10.976  0.0253  0.5385 -0.2383
  978MOL0     C31959   7.713   1.903  10.867 -0.4253 -0.1401  0.7565
  978MOL0     C31960   7.635   1.902  10.779  0.4403  0.2057 -0.4967
  978MOL0     C31961   8.145   2.051  11.353 -1.0224 -0.1352  1.3854
  978MOL0     C31962   8.256   2.129  11.379 -0.6730  0.3401  0.0241
  978MOL0     H31963   8.500   2.577  11.333 -0.7772 -0.3543  0.6782
  978MOL0     H31964   8.700   2.687  11.292 -3.7453 -0.6698  0.6127
  978MOL0     H31965   8.963   2.436  11.097  0.9904  0.0100 -0.8877
  978MOL0     H31966   8.867   2.586  11.081 -0.4293 -0.2915  1.4493
  978MOL0     H31967   9.145   2.627  11.185 -1.1220  1.4694  1.0939
  978MOL0     H31968   9.147   2.558  11.033 -0.4785 -1.6144  2.2969
  978MOL0     H31969   9.006   2.721  10.934  0.1352  1.7881 -0.7696
  978MOL0     H31970   8.977   2.806  11.089  1.5157  1.4548  0.7111
  978MOL0     H31971   9.145   2.947  11.070  2.1186 -0.4973  2.9934
  978MOL0     H31972   9.249   2.811  11.083 -2.1325 -1.0434  2.4864
  978MOL0     H31973   9.131   2.859  10.796 -1.4077  1.6766  0.5907
  978MOL0     H31974   9.252   2.969  10.872 -1.6326  0.2951  3.1285
  978MOL0     H31975   9.284   2.686  10.882 -0.7896  0.8324  0.8681
  978MOL0     H31976   9.352   2.771  10.737  0.0919 -2.5068  0.4021
  978MOL0     H31977   9.535   2.841  10.838  1.3265 -2.3782 -0.3388
  978MOL0     H31978   9.447   2.890  10.984 -2.3052 -0.0450  0.3838
  978MOL0     H31979   9.445   2.651  11.067 -1.8173  0.6321 -0.8409
  978MOL0     H31980   9.605   2.713  11.023 -0.2122  1.2943  0.3077
  978MOL0     H31981   9.653   2.612  10.743 -2.8996  2.2459 -1.8634
  978MOL0     H31982   9.700   2.377  10.597  0.2246  1.9918  1.0674
  978MOL0     H31983   9.743   2.281  10.746 -1.2588  0.2828  0.9363
  978MOL0     H31984   9.486   2.248  10.582  0.8569  1.2398 -0.2059
  978MOL0     H31985   9.529   2.144  10.710 -2.4207  3.1834  0.7057
  978MOL0     H31986   9.647   2.149  10.435 -2.5234  3.4404  0.9621
  978MOL0     H31987   9.557   2.026  10.491 -2.1844  3.2986 -1.9568
  978MOL0     H31988   9.827   2.085  10.600 -1.1786  1.4377  3.6767
  978MOL0     H31989   9.780   1.949  10.494  3.3278 -1.2483  2.3222
  978MOL0     H31990   9.657   1.705  10.814  0.8963 -3.3490  2.3703
  978MOL0     H31991   9.799   1.424  10.853 -2.2042 -0.7838  1.7768
  978MOL0     H31992   9.875   1.492  11.007 -0.4241  5.0732  1.4754
  978MOL0     H31993   9.705   1.531  10.947 -1.2541 -1.1294 -2.3650
  978MOL0     H31994  10.206   1.428  11.096 -0.5950  3.2845  0.2062
  978MOL0     H31995  10.376   1.252  11.155 -1.9653  1.8287  0.9262
  978MOL0     H31996  10.643   1.163  10.914 -1.9431 -1.2485  1.0836
  978MOL0     H31997  10.765   1.284  10.933  0.8238 -0.1015  0.5391
  978MOL0     H31998  10.877   1.067  10.955  1.6907  1.6462  0.7947
  978MOL0     H31999  10.871   1.139  11.108  1.9087  1.5720 -2.0441
  978MOL0     H32000  10.683   0.926  10.977 -1.0831  0.6451 -0.7018
  978MOL0     H32001  10.638   0.982  11.139 -0.1385 -3.1232 -0.7163
  978MOL0     H32002  10.897   0.855  11.057  1.2908  2.9402 -0.1338
  978MOL0     H32003  10.841   0.905  11.230 -0.5040  2.5642 -0.8686
  978MOL0     H32004  10.823   0.651  11.202 -0.4312  0.6120  2.2011
  978MOL0     H32005  10.744   0.687  11.044 -0.2407 -0.6269  0.9751
  978MOL0     H32006  10.634   0.786  11.302 -1.3380  0.9580 -0.6726
  978MOL0     H32007  10.537   0.753  11.176 -1.6402  0.9934  2.1695
  978MOL0     H32008  10.669   0.527  11.326 -1.3523 -0.8691 -0.4952
  978MOL0     H32009  10.601   0.504  11.170 -1.7530 -2.2196  1.2237
  978MOL0     H32010  10.376   0.594  11.244  1.6352  2.7802 -1.3029
  978MOL0     H32011  10.455   0.596  11.411  1.7928 -0.4847 -0.1956
  978MOL0     H32012  10.663   1.475  10.925  0.4344 -2.6904 -0.4942
  978MOL0     H32013  10.475   1.623  10.842 -1.2584  1.0127  0.4767
  978MOL0     H32014  10.151   1.806  10.788  0.3748 -1.5817 -0.9686
  978MOL0     H32015   9.991   1.966  10.691  3.0646  1.0671  3.6015
  978MOL0     H32016   8.925   2.328  11.355  1.0569  1.6867 -0.0186
  978MOL0     H32017   8.713   2.206  11.392  0.6053 -0.4868  1.6666
  978MOL0     H32018   8.081   2.414  11.457 -0.2683  0.5025 -0.2339
  978MOL0     H32019   7.899   2.270  11.416  2.4823  0.8973  3.5189
  978MOL0     H32020   7.974   1.873  11.189 -0.5007 -4.9021  1.1587
  978MOL0     H32021   7.938   1.852  11.365 -0.0246  3.5306  2.0981
  978MOL0     H32022   7.710   1.878  11.324 -0.2392 -0.9256  0.5058
  978MOL0     H32023   7.785   1.738  11.233 -2.7500 -0.3745 -1.8790
  978MOL0     H32024   7.685   2.000  11.120 -2.6912  0.0308 -1.8796
  978MOL0     H32025   7.620   1.845  11.076 -1.3794  2.6767 -1.0494
  978MOL0     H32026   7.864   1.799  10.974  0.9806  1.1102 -0.3379
  978MOL0     H32027   7.872   1.979  10.990  0.6048 -0.2825  2.9722
  978MOL0     H32028   7.587   1.917  10.685 -0.8711  1.5315  0.3436
  978MOL0     H32029   8.169   1.947  11.331 -0.1297  0.0596  1.3741
  978MOL0     H32030   8.354   2.083  11.374 -0.1360  1.3934  0.4509
  979MOL0     O32031   4.130   5.196   9.404  0.0475 -0.9972  0.5683
  979MOL0     C32032   4.233   5.130   9.407 -0.0440  0.1668  0.8749
  979MOL0     O32033   4.344   5.157   9.331 -0.0134  1.0518 -0.5949
  979MOL0     C32034   4.351   5.268   9.250 -0.1811 -0.2231  1.0222
  979MOL0     C32035   4.270   5.292   9.130 -0.3652 -0.5961 -0.0684
  979MOL0     C32036   4.281   5.410   9.058  0.4545  0.0609  0.1188
  979MOL0     C32037   4.368   5.511   9.106  1.2729 -0.3428  0.7262
  979MOL0     O32038   4.376   5.637   9.049 -1.7179  0.0187  0.0172
  979MOL0     C32039   4.400   5.629   8.911 -0.5202 -0.4157  1.4602
  979MOL0     C32040   4.500   5.736   8.859  0.0229  0.1930  0.4077
  979MOL0     C32041   4.639   5.743   8.938 -0.0582  0.0137  0.3202
  979MOL0     C32042   4.640   5.856   9.053  0.2193 -0.6457  1.2884
  979MOL0     C32043   4.776   5.892   9.106  1.2113 -0.3698  0.5000
  979MOL0     C32044   4.815   5.796   9.218  0.3687  1.2953  0.6946
  979MOL0     C32045   4.967   5.818   9.237 -0.4748  0.0258 -0.3529
  979MOL0     C32046   5.022   5.730   9.362  0.2658  0.5163  0.5547
  979MOL0     N32047   4.951   5.760   9.483  0.2724 -0.3199 -0.2514
  979MOL0     C32048   4.852   5.684   9.541  0.1602  1.0108 -0.3928
  979MOL0     C32049   4.811   5.747   9.652 -0.2643  0.4251  0.7373
  979MOL0     C32050   4.692   5.693   9.719 -1.1792  0.5632 -0.8089
  979MOL0     C32051   4.702   5.703   9.866 -0.5998  0.9417 -0.4622
  979MOL0     C32052   4.560   5.717   9.928  1.0178  0.5564  0.3130
  979MOL0     C32053   4.538   5.861   9.974 -0.6508  0.7140 -0.1944
  979MOL0     O32054   4.605   5.886  10.098 -0.7518  0.6973  0.1846
  979MOL0     C32055   4.558   5.968  10.193 -0.6639 -0.7422  0.6599
  979MOL0     C32056   4.422   5.993  10.218  0.2229  0.1184  0.5850
  979MOL0     C32057   4.371   6.063  10.325  0.9051 -0.2469  0.4075
  979MOL0     C32058   4.220   6.051  10.350 -0.2977 -0.5771  1.1663
  979MOL0     C32059   4.463   6.111  10.417 -0.5481  0.5551  0.2171
  979MOL0     C32060   4.423   6.189  10.540  0.6339  1.0590 -0.2725
  979MOL0     O32061   4.301   6.244  10.536 -0.9047 -0.1529 -0.3985
  979MOL0     C32062   4.235   6.296  10.643  0.4561 -0.5284 -0.8574
  979MOL0     C32063   4.283   6.368  10.755 -0.7907 -0.0775 -0.2350
  979MOL0     C32064   4.199   6.435  10.850 -0.0911  0.2152 -0.5117
  979MOL0     C32065   4.057   6.426  10.836 -0.5725  0.9274  0.0568
  979MOL0     O32066   3.974   6.479  10.918  0.8969 -0.2034  0.6180
  979MOL0     C32067   4.004   6.596  10.998 -0.2034  0.2573  0.2719
  979MOL0     C32068   4.009   6.733  10.926  0.5283 -0.2989 -0.6823
  979MOL0     C32069   3.879   6.800  10.937  0.1011 -0.2429  0.2067
  979MOL0     C32070   3.846   6.866  11.077 -0.3908 -0.1945  0.3650
  979MOL0     C32071   3.701   6.906  11.106 -0.0935 -0.5122  0.3221
  979MOL0     C32072   3.665   6.964  11.238  0.2023 -0.0962  0.0295
  979MOL0     C32073   3.717   6.879  11.351 -0.3735  0.2428  0.1198
  979MOL0     C32074   3.705   6.936  11.488 -0.0891 -0.6690 -0.2081
  979MOL0    Cl32075   3.657   6.798  11.592  0.5414  0.0297  0.4231
  979MOL0     C32076   4.009   6.353  10.726  0.4910  0.3259 -0.3870
  979MOL0     C32077   4.090   6.285  10.637  0.3022 -0.2268 -0.0001
  979MOL0     O32078   4.494   6.186  10.641 -1.1067 -0.1340 -0.1830
  979MOL0     C32079   4.604   6.081  10.400  0.1685  0.4181 -0.2481
  979MOL0     C32080   4.648   6.014  10.286  0.3024  0.0465 -0.5822
  979MOL0     N32081   4.891   5.862   9.658 -0.6374 -1.2613 -0.1948
  979MOL0     N32082   4.980   5.869   9.564  0.0480  0.0246 -0.4482
  979MOL0     C32083   4.442   5.490   9.214 -0.2213  0.3072 -0.0987
  979MOL0     C32084   4.438   5.368   9.286  0.8545 -0.6625 -0.0879
  979MOL0     C32085   4.251   5.019   9.496  0.4807 -0.0741 -0.0323
  979MOL0     C32086   4.343   4.913   9.481  1.0638  0.0324 -0.0351
  979MOL0     C32087   4.343   4.802   9.568 -0.5664 -0.9516 -0.0770
  979MOL0     C32088   4.236   4.766   9.655  0.6272  0.3679  0.2249
  979MOL0     O32089   4.217   4.649   9.730 -0.4550  0.1871 -0.2120
  979MOL0     C32090   4.338   4.567   9.720  0.6867 -0.9018 -0.3945
  979MOL0     C32091   4.333   4.446   9.808 -1.2640  0.2845  0.0852
  979MOL0     C32092   4.214   4.357   9.763  0.0310 -0.1025 -1.3090
  979MOL0     C32093   4.194   4.232   9.860 -0.2544  0.1697  0.3718
  979MOL0     C32094   4.112   4.260   9.979 -0.4540 -0.3544  0.5340
  979MOL0     C32095   4.041   4.285  10.075  1.3360  0.1835 -0.1726
  979MOL0     C32096   4.142   4.870   9.663  0.2287  0.1550 -0.5506
  979MOL0     C32097   4.149   4.984   9.586 -0.5087  0.4550  0.3822
  979MOL0     H32098   4.205   5.212   9.096 -0.5763  0.4492 -2.2978
  979MOL0     H32099   4.222   5.432   8.969  0.1363  2.8811  0.9161
  979MOL0     H32100   4.434   5.534   8.869  2.9965  0.7176  1.4543
  979MOL0     H32101   4.300   5.636   8.865 -0.3180 -0.5708  0.9912
  979MOL0     H32102   4.536   5.707   8.760  2.9839  2.8846  0.4973
  979MOL0     H32103   4.454   5.836   8.851  2.4324  1.7421  3.6759
  979MOL0     H32104   4.666   5.647   8.983 -1.9189 -0.3871  0.6768
  979MOL0     H32105   4.721   5.769   8.870 -1.0407  2.8035  0.0642
  979MOL0     H32106   4.584   5.945   9.024 -0.9479 -1.2879  1.5157
  979MOL0     H32107   4.572   5.809   9.124 -1.2448 -0.0559  0.3181
  979MOL0     H32108   4.850   5.885   9.025  0.5531 -0.6772 -0.0879
  979MOL0     H32109   4.780   5.995   9.144  0.7277 -0.5829  1.1408
  979MOL0     H32110   4.763   5.825   9.310  0.2613  1.3795  0.6064
  979MOL0     H32111   4.790   5.692   9.196 -0.5456  2.0407 -2.1862
  979MOL0     H32112   5.023   5.796   9.146  1.6647 -0.1362  0.9126
  979MOL0     H32113   4.989   5.923   9.260  1.6929 -0.3168 -0.6179
  979MOL0     H32114   5.126   5.765   9.363  0.3300  0.7378 -2.5046
  979MOL0     H32115   5.025   5.623   9.343  3.9792  1.0557 -3.7973
  979MOL0     H32116   4.797   5.597   9.507 -1.9893  2.6680 -1.4331
  979MOL0     H32117   4.602   5.743   9.682 -1.3491 -0.3831 -1.7311
  979MOL0     H32118   4.686   5.587   9.692 -0.5589  0.8466 -2.1458
  979MOL0     H32119   4.763   5.784   9.908  1.8186 -1.9210  1.8946
  979MOL0     H32120   4.733   5.603   9.894  0.8297  1.3614 -0.4817
  979MOL0     H32121   4.546   5.649  10.013 -1.6815  1.5412  0.7603
  979MOL0     H32122   4.484   5.697   9.853  0.9256 -0.9473  0.7784
  979MOL0     H32123   4.435   5.896   9.966 -0.4730  0.7676 -3.1791
  979MOL0     H32124   4.591   5.931   9.908  0.4935  1.4663  1.4449
  979MOL0     H32125   4.348   5.951  10.151 -1.3104  1.5013  1.3212
  979MOL0     H32126   4.170   6.013  10.260  2.3651 -1.4489 -0.0487
  979MOL0     H32127   4.203   5.959  10.408 -0.2892 -2.3174 -1.4114
  979MOL0     H32128   4.165   6.136  10.391 -0.2541  0.7656 -1.3484
  979MOL0     H32129   4.388   6.368  10.783 -0.3161  1.6967 -1.7519
  979MOL0     H32130   4.243   6.473  10.941 -0.0109  1.0826 -0.9002
  979MOL0     H32131   3.925   6.597  11.073 -2.2482  3.0396 -1.7224
  979MOL0     H32132   4.097   6.578  11.054  0.5459  1.9243 -0.3677
  979MOL0     H32133   4.095   6.796  10.949 -0.5864  1.1350 -0.2470
  979MOL0     H32134   4.016   6.705  10.821  0.2312 -2.9315 -0.0750
  979MOL0     H32135   3.794   6.733  10.920 -1.6691  0.1106  5.7375
  979MOL0     H32136   3.891   6.882  10.866  0.3797  0.0492  0.5863
  979MOL0     H32137   3.874   6.797  11.158 -1.3032 -3.6521 -2.0410
  979MOL0     H32138   3.908   6.955  11.090  0.9740 -0.7577 -1.8799
  979MOL0     H32139   3.641   6.818  11.081 -1.9190  0.5610  0.7047
  979MOL0     H32140   3.669   6.976  11.028 -0.9140  0.6731  1.6678
  979MOL0     H32141   3.708   7.065  11.240  1.6606 -0.5437 -3.0300
  979MOL0     H32142   3.555   6.964  11.241  0.1700 -2.8345  1.9408
  979MOL0     H32143   3.824   6.856  11.345 -0.7351 -1.6257  0.2067
  979MOL0     H32144   3.667   6.783  11.338 -0.3857  0.6513 -4.6099
  979MOL0     H32145   3.632   7.018  11.485  2.8277  2.0829 -1.9817
  979MOL0     H32146   3.801   6.979  11.518  0.4327 -0.3958 -2.1282
  979MOL0     H32147   3.901   6.352  10.717  0.3483  1.3049  0.8710
  979MOL0     H32148   4.038   6.233  10.557 -1.0392  0.4691  0.4036
  979MOL0     H32149   4.674   6.114  10.476 -0.0308  2.8972 -1.0596
  979MOL0     H32150   4.753   5.990  10.274  1.1011  2.6018  0.5937
  979MOL0     H32151   4.505   5.567   9.256  0.8160 -0.7973  0.4133
  979MOL0     H32152   4.507   5.370   9.369  1.7715  0.0996 -0.8461
  979MOL0     H32153   4.414   4.908   9.399  1.3882 -1.5404  0.3030
  979MOL0     H32154   4.415   4.721   9.555  1.5701  0.7324  0.6174
  979MOL0     H32155   4.348   4.525   9.619  0.5979 -4.5766  0.9566
  979MOL0     H32156   4.423   4.631   9.743 -0.8335  1.4678 -1.0397
  979MOL0     H32157   4.332   4.461   9.916 -0.5480 -3.3142  0.7426
  979MOL0     H32158   4.421   4.386   9.784 -0.6371  0.9949  0.5734
  979MOL0     H32159   4.229   4.325   9.660  2.5478  0.1275 -1.0745
  979MOL0     H32160   4.124   4.419   9.769 -1.0506 -1.7743  1.6844
  979MOL0     H32161   4.292   4.190   9.886 -0.8780 -2.2786 -0.8827
  979MOL0     H32162   4.136   4.156   9.806  0.9184 -1.6637  1.6046
  979MOL0     H32163   3.974   4.309  10.155 -2.6574 -0.8613 -2.9242
  979MOL0     H32164   4.059   4.868   9.732  2.2993  1.3583  2.1850
  979MOL0     H32165   4.057   5.042   9.593 -2.4429 -2.5325  1.5058
  980MOL0     O32166   5.513   1.581   9.173 -0.8269 -0.0066  0.7975
  980MOL0     C32167   5.510   1.475   9.104 -0.0065  0.5103 -0.4077
  980MOL0     O32168   5.460   1.460   8.980  0.3319  0.0335  0.5355
  980MOL0     C32169   5.482   1.575   8.905  0.7530  0.5232 -0.2094
  980MOL0     C32170   5.372   1.659   8.871  0.1541 -0.5936  0.2607
  980MOL0     C32171   5.397   1.772   8.782  0.0965 -0.4196 -0.7904
  980MOL0     C32172   5.526   1.787   8.729 -0.8010  0.2516  0.9057
  980MOL0     O32173   5.523   1.888   8.636 -0.0385 -0.6439  0.0435
  980MOL0     C32174   5.621   1.986   8.666 -0.2655 -0.9371  0.3648
  980MOL0     C32175   5.642   2.087   8.554 -0.2412 -0.0230 -0.2087
  980MOL0     C32176   5.628   2.241   8.587  0.9258  0.3496  0.4932
  980MOL0     C32177   5.483   2.291   8.585 -0.0993  0.6243 -0.9342
  980MOL0     C32178   5.461   2.430   8.635 -0.4837  0.2942 -0.6668
  980MOL0     C32179   5.485   2.446   8.785  0.6575 -0.3407  1.3498
  980MOL0     C32180   5.391   2.558   8.842  1.2456  0.9220  0.5405
  980MOL0     C32181   5.380   2.548   8.992 -0.1882 -0.0931 -0.2755
  980MOL0     N32182   5.302   2.662   9.042  0.7859  0.4567 -0.0813
  980MOL0     C32183   5.164   2.668   9.072  0.4461  0.0740  1.4133
  980MOL0     C32184   5.142   2.786   9.140  0.3872  0.1959  0.6691
  980MOL0     C32185   5.011   2.842   9.181 -1.0058 -0.3052  0.1108
  980MOL0     C32186   4.915   2.732   9.210  0.4282 -0.7612 -0.3085
  980MOL0     C32187   4.944   2.681   9.343 -0.7041 -0.5819 -0.5567
  980MOL0     C32188   4.837   2.584   9.396 -0.0265  0.2840 -0.5061
  980MOL0     O32189   4.799   2.486   9.301 -0.0125  0.1866 -0.3976
  980MOL0     C32190   4.855   2.360   9.323  0.0407  0.1637  0.2476
  980MOL0     C32191   4.790   2.249   9.267  0.5733  0.4852  0.0667
  980MOL0     C32192   4.836   2.121   9.289 -0.6837  0.1964  0.7124
  980MOL0     C32193   4.756   2.004   9.223 -0.5615 -0.2200 -1.3798
  980MOL0     C32194   4.963   2.105   9.349 -0.7524  0.5861 -1.0120
  980MOL0     C32195   5.017   1.978   9.389 -0.2573 -0.2438  0.0746
  980MOL0     O32196   5.133   1.982   9.444  0.6284 -0.2117 -0.3593
  980MOL0     C32197   5.204   1.868   9.474  0.6664  1.3110  0.4536
  980MOL0     C32198   5.336   1.837   9.432  0.2044  0.2771 -0.8438
  980MOL0     C32199   5.404   1.723   9.477 -0.4708  0.2548  1.3553
  980MOL0     C32200   5.351   1.635   9.571  0.0994  0.4216 -0.8080
  980MOL0     O32201   5.424   1.529   9.596 -0.3277  0.5342 -0.5461
  980MOL0     C32202   5.439   1.484   9.731  0.3266  0.6342  0.3748
  980MOL0     C32203   5.572   1.529   9.789 -0.2387  0.6645  0.3106
  980MOL0     C32204   5.692   1.492   9.703 -0.0036  0.3976  0.6847
  980MOL0     C32205   5.816   1.564   9.759 -0.2880  0.7760  0.3862
  980MOL0     C32206   5.955   1.519   9.704 -0.0682  0.7243  0.1979
  980MOL0     C32207   6.068   1.553   9.798 -1.2274  0.1038  0.0552
  980MOL0     C32208   6.095   1.703   9.793  0.4184  0.7039 -0.1513
  980MOL0     C32209   6.216   1.740   9.883 -0.9475  0.7941  0.5769
  980MOL0    Cl32210   6.185   1.709  10.051  0.1794  0.1844  0.3125
  980MOL0     C32211   5.232   1.675   9.631  0.5119 -0.7996  1.0456
  980MOL0     C32212   5.159   1.788   9.580  0.1405  1.0030  0.1895
  980MOL0     O32213   4.941   1.875   9.394  0.0538  0.1621  0.3422
  980MOL0     C32214   5.045   2.217   9.386 -0.3316  1.1611  0.2000
  980MOL0     C32215   4.987   2.342   9.378  0.5165  0.3214  0.6353
  980MOL0     N32216   5.269   2.849   9.154  0.0845 -0.2617  0.2780
  980MOL0     N32217   5.360   2.768   9.103  0.1389 -0.1312  0.5112
  980MOL0     C32218   5.626   1.706   8.762  0.0536  0.5547  0.1334
  980MOL0     C32219   5.610   1.605   8.860  0.0436  0.0790 -0.0920
  980MOL0     C32220   5.551   1.345   9.170 -1.5835  0.0870  0.3070
  980MOL0     C32221   5.563   1.224   9.093  0.4871 -0.7589  0.5845
  980MOL0     C32222   5.597   1.110   9.157  0.3713 -0.1839 -0.2034
  980MOL0     C32223   5.636   1.103   9.286 -0.7462  0.3623  0.4372
  980MOL0     O32224   5.670   0.981   9.332  0.1978 -0.0537 -0.0531
  980MOL0     C32225   5.747   0.996   9.446  0.9910 -0.8124  0.4854
  980MOL0     C32226   5.789   0.856   9.484  0.4494  0.2875  0.0054
  980MOL0     C32227   5.796   0.829   9.635  0.7693 -0.3191 -0.3447
  980MOL0     C32228   5.851   0.690   9.671 -0.8982  0.2382  0.6519
  980MOL0     C32229   5.787   0.578   9.590  0.6639 -0.3259 -0.7606
  980MOL0     C32230   5.733   0.491   9.521  0.6586 -0.3129  0.5375
  980MOL0     C32231   5.609   1.220   9.368  0.4219  0.1404  0.3119
  980MOL0     C32232   5.579   1.338   9.306 -0.1184 -0.1904  1.1538
  980MOL0     H32233   5.275   1.642   8.916 -0.8484 -0.3336 -1.6948
  980MOL0     H32234   5.318   1.843   8.761  1.9900  2.2186  0.4233
  980MOL0     H32235   5.579   2.041   8.751  0.9037  1.7049 -0.6400
  980MOL0     H32236   5.716   1.946   8.702  0.0856  0.0390  0.5695
  980MOL0     H32237   5.744   2.071   8.516 -0.7301 -0.7465 -1.2485
  980MOL0     H32238   5.565   2.073   8.478  0.5746 -0.1883 -1.0343
  980MOL0     H32239   5.674   2.254   8.685  3.2140 -1.4953 -0.2600
  980MOL0     H32240   5.689   2.301   8.519  1.1298  0.6319  0.9169
  980MOL0     H32241   5.442   2.275   8.485  3.6139  0.5684 -2.6115
  980MOL0     H32242   5.425   2.236   8.659  1.4758 -0.3708 -0.3752
  980MOL0     H32243   5.517   2.495   8.568 -1.9848  1.9053 -0.4449
  980MOL0     H32244   5.365   2.479   8.617 -0.0751  1.6504  0.5673
  980MOL0     H32245   5.451   2.350   8.826 -1.7210 -0.0193  0.3363
  980MOL0     H32246   5.589   2.473   8.802  0.2628  1.2053  1.4761
  980MOL0     H32247   5.429   2.654   8.807 -0.2717  1.7558  1.0885
  980MOL0     H32248   5.288   2.551   8.807  1.4420 -4.3170  0.3191
  980MOL0     H32249   5.480   2.546   9.036 -0.5303 -0.0743  0.5148
  980MOL0     H32250   5.329   2.457   9.026  1.4506 -0.6356  0.8185
  980MOL0     H32251   5.082   2.605   9.040  0.3009  0.7452  0.4194
  980MOL0     H32252   5.026   2.907   9.268  1.7431  0.8604 -1.0981
  980MOL0     H32253   4.980   2.895   9.090  2.1392 -1.3445 -1.7448
  980MOL0     H32254   4.932   2.652   9.137  2.0429 -0.7879  0.0667
  980MOL0     H32255   4.814   2.775   9.212  2.0583  3.8374  3.8614
  980MOL0     H32256   4.949   2.770   9.405  2.3584 -0.7661 -0.3648
  980MOL0     H32257   5.040   2.629   9.341 -0.9926 -1.2799  1.7463
  980MOL0     H32258   4.742   2.629   9.427 -1.4887 -1.6186 -1.9309
  980MOL0     H32259   4.887   2.547   9.486  2.2316  2.1449 -0.9189
  980MOL0     H32260   4.693   2.251   9.219 -0.5663 -0.4852  2.2046
  980MOL0     H32261   4.686   2.050   9.153  0.6755  1.5996 -1.4761
  980MOL0     H32262   4.827   1.934   9.176  2.6358 -0.3968  3.0698
  980MOL0     H32263   4.706   1.946   9.301  0.1654  0.3508 -0.4644
  980MOL0     H32264   5.391   1.899   9.362  1.6882  1.1343  0.9941
  980MOL0     H32265   5.499   1.692   9.433  0.4868 -1.8848  4.5914
  980MOL0     H32266   5.367   1.526   9.801  0.2926 -0.5531  1.0605
  980MOL0     H32267   5.419   1.378   9.717  0.9047  0.6375 -0.6125
  980MOL0     H32268   5.572   1.638   9.797  2.1835  0.9182 -1.6599
  980MOL0     H32269   5.590   1.482   9.886 -0.5828 -0.0778  0.0180
  980MOL0     H32270   5.670   1.525   9.601  0.1529 -1.8505 -0.1399
  980MOL0     H32271   5.707   1.383   9.702  0.6230  0.4542 -1.2403
  980MOL0     H32272   5.800   1.672   9.747  1.9762  1.2703  1.1912
  980MOL0     H32273   5.814   1.562   9.868  0.5316  3.7485  0.5375
  980MOL0     H32274   5.978   1.561   9.605 -0.1195 -1.5150 -0.8337
  980MOL0     H32275   5.958   1.412   9.683  3.0273  0.7942 -0.2432
  980MOL0     H32276   6.045   1.520   9.900 -3.4187 -3.0788 -1.3421
  980MOL0     H32277   6.153   1.492   9.767  1.0929  2.2635  1.7023
  980MOL0     H32278   6.005   1.751   9.833 -2.3935 -2.2132 -2.4836
  980MOL0     H32279   6.107   1.740   9.691 -0.0783  1.3987  0.0361
  980MOL0     H32280   6.253   1.841   9.862  1.7179 -0.0798  0.6962
  980MOL0     H32281   6.300   1.678   9.849 -1.4254 -0.3058  1.3378
  980MOL0     H32282   5.194   1.615   9.714  1.0660 -2.5846  0.0528
  980MOL0     H32283   5.068   1.811   9.636  0.4636 -1.2230  1.7504
  980MOL0     H32284   5.140   2.210   9.438 -1.3706  0.9593  2.1315
  980MOL0     H32285   5.051   2.428   9.390 -2.3780  2.8102 -0.4924
  980MOL0     H32286   5.717   1.704   8.702 -1.4296 -0.7518 -2.2378
  980MOL0     H32287   5.694   1.544   8.891  0.4353  0.5224 -0.2840
  980MOL0     H32288   5.540   1.231   8.987 -0.3117 -0.6167  0.7638
  980MOL0     H32289   5.593   1.020   9.098  2.6010 -0.8067  0.4874
  980MOL0     H32290   5.844   1.046   9.433 -0.6196  2.5295  0.3334
  980MOL0     H32291   5.691   1.049   9.522 -2.4506  0.6328 -2.7505
  980MOL0     H32292   5.877   0.833   9.423 -1.0235 -2.2162 -1.3519
  980MOL0     H32293   5.720   0.783   9.440  2.2589 -2.3256  1.2151
  980MOL0     H32294   5.689   0.826   9.661  1.3595 -0.3630  2.4388
  980MOL0     H32295   5.840   0.911   9.692 -2.3938  2.5103 -1.6355
  980MOL0     H32296   5.850   0.676   9.780  2.5459 -1.4548  0.5977
  980MOL0     H32297   5.957   0.683   9.643 -0.8219 -1.5695  1.2712
  980MOL0     H32298   5.670   0.420   9.470 -0.4267  1.4056 -0.6229
  980MOL0     H32299   5.635   1.229   9.473  2.6613  4.1813 -0.3731
  980MOL0     H32300   5.564   1.425   9.370  0.6743  2.6332 -2.1955
  981MOL0     O32301   5.673   4.516   4.730 -0.3500 -0.1111  0.4573
  981MOL0     C32302   5.661   4.618   4.668  0.4675 -0.3898  0.3855
  981MOL0     O32303   5.558   4.706   4.675 -0.3541  0.4712 -0.8113
  981MOL0     C32304   5.436   4.669   4.733 -0.1331 -0.8867  0.1592
  981MOL0     C32305   5.348   4.580   4.678 -1.4716  0.0717  0.2841
  981MOL0     C32306   5.221   4.573   4.726  1.0222  0.5304  0.2144
  981MOL0     C32307   5.178   4.645   4.833  0.5721 -0.7054  0.3012
  981MOL0     O32308   5.045   4.637   4.854 -0.0293  0.2484 -0.5230
  981MOL0     C32309   4.985   4.723   4.959  0.5696 -0.4954 -0.4880
  981MOL0     C32310   4.962   4.871   4.918  0.1283  1.0973 -0.3413
  981MOL0     C32311   4.863   4.881   4.803 -0.7140 -0.5240  0.6879
  981MOL0     C32312   4.874   5.009   4.721 -0.0899 -0.4548 -0.4370
  981MOL0     C32313   4.960   4.994   4.600 -0.9020  0.9976  0.0590
  981MOL0     C32314   5.093   4.919   4.621 -0.5577 -0.5670  0.5888
  981MOL0     C32315   5.165   4.913   4.482  0.5339 -0.1015 -0.6984
  981MOL0     C32316   5.312   4.855   4.485  0.5605  0.5721 -0.1638
  981MOL0     N32317   5.387   4.864   4.360 -0.0830 -0.0025 -0.2655
  981MOL0     C32318   5.425   4.985   4.301 -0.3639  0.5058 -0.0323
  981MOL0     C32319   5.488   4.945   4.185  0.5920 -0.3360  0.5761
  981MOL0     C32320   5.552   5.039   4.078 -0.1519  0.7996 -0.1896
  981MOL0     C32321   5.689   4.993   4.030 -0.4098 -0.2116 -0.3134
  981MOL0     C32322   5.804   5.030   4.123  0.1208 -1.0773  0.3498
  981MOL0     C32323   5.824   5.174   4.161  0.4348  0.2999  0.0448
  981MOL0     O32324   5.911   5.194   4.270  0.1866  0.8693 -0.0016
  981MOL0     C32325   5.895   5.131   4.394  0.4730 -0.7463  0.5745
  981MOL0     C32326   5.762   5.132   4.444 -0.2568  0.1949  0.5929
  981MOL0     C32327   5.729   5.082   4.566  0.2038  0.1574 -0.4233
  981MOL0     C32328   5.579   5.073   4.612 -0.1542  0.0861  0.2879
  981MOL0     C32329   5.835   5.047   4.654  0.7936  0.3207  0.3646
  981MOL0     C32330   5.803   4.991   4.788 -0.0779 -0.8055 -0.4747
  981MOL0     O32331   5.879   4.882   4.817  0.4937  0.2892  0.9717
  981MOL0     C32332   5.857   4.807   4.929 -0.8717 -0.7709 -0.6615
  981MOL0     C32333   5.972   4.742   4.976 -0.3915  0.2470  0.3413
  981MOL0     C32334   5.969   4.654   5.084 -0.0141  0.3632 -0.5173
  981MOL0     C32335   5.844   4.629   5.155  0.6924  0.3967 -0.5057
  981MOL0     O32336   5.822   4.533   5.258 -0.0770  0.7892  0.4856
  981MOL0     C32337   5.929   4.482   5.343  0.4308  0.0689  0.4289
  981MOL0     C32338   5.954   4.571   5.466  0.6181  0.2261 -0.1880
  981MOL0     C32339   5.828   4.652   5.524 -0.6507 -0.1771  0.3648
  981MOL0     C32340   5.705   4.571   5.583  0.5334  0.1916  0.1097
  981MOL0     C32341   5.569   4.643   5.617 -0.7494 -0.1885  0.1672
  981MOL0     C32342   5.475   4.692   5.511  0.3671  0.8841 -1.0282
  981MOL0     C32343   5.408   4.577   5.435 -0.0033 -0.5598  0.6274
  981MOL0     C32344   5.290   4.634   5.352 -0.5586 -0.3896  0.0426
  981MOL0    Cl32345   5.275   4.539   5.203  0.2686 -0.2252 -0.0673
  981MOL0     C32346   5.734   4.704   5.116  0.1649 -0.5998  0.4104
  981MOL0     C32347   5.739   4.791   5.002  0.3720  0.6106 -0.1901
  981MOL0     O32348   5.716   5.042   4.863 -0.0614 -0.3144 -0.0187
  981MOL0     C32349   5.970   5.042   4.606  0.6368 -0.3284  0.1392
  981MOL0     C32350   5.999   5.087   4.476 -0.3225 -0.0373  1.0282
  981MOL0     N32351   5.489   4.808   4.173  0.0027 -0.9819  0.0744
  981MOL0     N32352   5.420   4.762   4.271  0.1237 -1.2574 -0.5947
  981MOL0     C32353   5.266   4.737   4.897 -0.5853 -0.0060  0.7070
  981MOL0     C32354   5.393   4.751   4.844 -1.0414 -0.1284  0.5580
  981MOL0     C32355   5.760   4.651   4.569  0.8989 -0.7275  0.1466
  981MOL0     C32356   5.736   4.710   4.445 -0.1197 -0.8260  0.1696
  981MOL0     C32357   5.842   4.721   4.349  0.4608 -0.0286 -0.5066
  981MOL0     C32358   5.969   4.671   4.367  1.0417 -0.5228 -0.4340
  981MOL0     O32359   6.061   4.694   4.271 -0.0975 -0.1286 -0.1251
  981MOL0     C32360   6.204   4.652   4.292 -0.7699  0.3748 -0.5507
  981MOL0     C32361   6.250   4.520   4.218 -0.5370 -0.2079 -0.7485
  981MOL0     C32362   6.184   4.404   4.314 -0.3824 -1.0910  0.0491
  981MOL0     C32363   6.204   4.260   4.266 -0.4575 -0.0735 -0.1124
  981MOL0     C32364   6.123   4.152   4.324 -0.5282 -0.1330 -0.4534
  981MOL0     C32365   6.036   4.072   4.371 -0.7383 -0.0515  0.4652
  981MOL0     C32366   5.989   4.601   4.492 -0.6221  0.8017 -0.1076
  981MOL0     C32367   5.885   4.595   4.588 -1.2168  0.6547  0.1298
  981MOL0     H32368   5.377   4.511   4.600  0.6461 -1.3789  2.2021
  981MOL0     H32369   5.165   4.501   4.667  0.7427 -0.7503  1.9840
  981MOL0     H32370   4.885   4.684   4.977 -0.2810  0.6154 -2.4663
  981MOL0     H32371   5.043   4.721   5.052  0.3376  1.3962 -0.2652
  981MOL0     H32372   4.916   4.928   5.000  1.9957  0.0844  1.5113
  981MOL0     H32373   5.056   4.921   4.892  1.5091 -1.6766 -1.0382
  981MOL0     H32374   4.868   4.787   4.747  2.7927 -0.3139  0.4294
  981MOL0     H32375   4.766   4.881   4.852 -0.8399  1.2949  0.5161
  981MOL0     H32376   4.778   5.043   4.680  1.4429 -0.0823 -4.1409
  981MOL0     H32377   4.917   5.087   4.784 -3.7651  1.3553  0.1370
  981MOL0     H32378   4.902   4.944   4.522  2.6107  0.7682 -2.6235
  981MOL0     H32379   4.971   5.088   4.545 -0.9238  0.8106 -0.2661
  981MOL0     H32380   5.157   4.958   4.701 -1.4644 -2.2164  2.1771
  981MOL0     H32381   5.062   4.817   4.648  1.4266 -1.6110 -0.7889
  981MOL0     H32382   5.106   4.860   4.407  2.6301 -3.9014  0.0461
  981MOL0     H32383   5.173   5.013   4.439 -1.6484  0.2784 -0.3215
  981MOL0     H32384   5.298   4.747   4.498 -1.7041  0.3923 -2.9727
  981MOL0     H32385   5.359   4.908   4.567  2.1034 -0.1097 -0.5752
  981MOL0     H32386   5.411   5.087   4.337  0.1323  0.2351  0.9329
  981MOL0     H32387   5.488   5.022   3.991 -0.1953 -0.2057  0.0206
  981MOL0     H32388   5.543   5.144   4.105  2.3912  1.1509 -0.4884
  981MOL0     H32389   5.709   5.053   3.941  1.5025  1.2898  1.0676
  981MOL0     H32390   5.690   4.887   4.003 -0.0545 -0.2685 -0.0828
  981MOL0     H32391   5.895   4.992   4.075  0.7762  1.0559 -0.1828
  981MOL0     H32392   5.774   4.977   4.214  0.7616 -0.8460  0.6988
  981MOL0     H32393   5.731   5.230   4.175 -1.2896 -1.7670 -2.2178
  981MOL0     H32394   5.877   5.210   4.073  1.3476 -1.8809 -0.3696
  981MOL0     H32395   5.682   5.161   4.376 -1.4939 -1.3232  1.3311
  981MOL0     H32396   5.552   4.988   4.676  3.5274 -0.8058  0.8857
  981MOL0     H32397   5.553   5.164   4.667  2.3367  2.3109 -1.9115
  981MOL0     H32398   5.520   5.076   4.520  0.0251 -0.6000  0.1425
  981MOL0     H32399   6.071   4.766   4.939 -1.0850  0.9515 -1.1149
  981MOL0     H32400   6.067   4.623   5.119  2.2134  4.1213 -2.7147
  981MOL0     H32401   5.907   4.382   5.381 -1.9656  0.9990  1.8030
  981MOL0     H32402   6.021   4.474   5.286  0.2846 -0.3675  0.2556
  981MOL0     H32403   5.989   4.503   5.545 -0.1756  2.2893  2.0655
  981MOL0     H32404   6.032   4.644   5.442  1.0991 -0.0214  0.5373
  981MOL0     H32405   5.800   4.728   5.450 -2.5070 -2.6411 -1.6276
  981MOL0     H32406   5.863   4.702   5.615 -0.1265 -1.8829  1.1305
  981MOL0     H32407   5.684   4.492   5.509  0.8411  0.4493 -0.2557
  981MOL0     H32408   5.735   4.525   5.677 -2.1144 -1.0072  0.4624
  981MOL0     H32409   5.599   4.726   5.681  3.4692  0.3218 -2.1179
  981MOL0     H32410   5.511   4.566   5.669 -0.6449  0.6878  1.6191
  981MOL0     H32411   5.398   4.758   5.552  1.5292  3.7532 -3.1665
  981MOL0     H32412   5.534   4.751   5.441 -0.4805 -0.6028 -3.0908
  981MOL0     H32413   5.366   4.495   5.494 -2.5365  0.8996  0.9699
  981MOL0     H32414   5.484   4.543   5.364 -2.1310 -0.6492 -1.7299
  981MOL0     H32415   5.292   4.738   5.319  1.1390 -1.0802 -2.2873
  981MOL0     H32416   5.198   4.624   5.410 -0.4258  1.6466  0.6894
  981MOL0     H32417   5.647   4.699   5.180  1.8555  3.3997  3.4892
  981MOL0     H32418   5.653   4.852   4.977 -0.3904 -0.8311 -1.2685
  981MOL0     H32419   6.050   5.015   4.673 -0.2297 -3.7369 -0.0200
  981MOL0     H32420   6.094   5.064   4.429  0.1812  3.4337  0.0670
  981MOL0     H32421   5.246   4.810   4.975  1.8609  2.8327 -1.0724
  981MOL0     H32422   5.452   4.836   4.875 -2.9671  0.7873  1.9490
  981MOL0     H32423   5.639   4.750   4.419  1.0235  1.8928 -0.1464
  981MOL0     H32424   5.824   4.752   4.247  2.2098 -1.8341 -1.4388
  981MOL0     H32425   6.269   4.732   4.254  0.3880  0.8173  2.1231
  981MOL0     H32426   6.236   4.638   4.396 -1.7531  0.0961 -0.2703
  981MOL0     H32427   6.358   4.509   4.232 -0.2907  1.7707 -0.8739
  981MOL0     H32428   6.228   4.517   4.111 -2.0713 -3.9469 -0.4723
  981MOL0     H32429   6.079   4.429   4.333  0.2699  2.7956 -0.5976
  981MOL0     H32430   6.230   4.414   4.413  0.7214  2.5472 -0.6813
  981MOL0     H32431   6.308   4.234   4.286  0.3632  3.6512  1.2034
  981MOL0     H32432   6.202   4.246   4.158  4.7285 -0.3893 -0.4127
  981MOL0     H32433   5.969   4.007   4.423 -0.4995 -0.0268  0.8076
  981MOL0     H32434   6.075   4.537   4.511 -1.1509  0.0962 -0.0344
  981MOL0     H32435   5.908   4.540   4.679 -1.7977  2.8178  1.6720
  982MOL0     O32436   0.103   1.557   4.093  0.1472 -0.8725  0.0501
  982MOL0     C32437   0.095   1.626   4.198 -1.3635  0.5453  1.1336
  982MOL0     O32438   0.053   1.574   4.318 -0.3558  0.1285  0.2085
  982MOL0     C32439  -0.048   1.479   4.310 -0.5590 -0.5885 -0.1472
  982MOL0     C32440  -0.013   1.342   4.320 -0.1571  0.0792  1.4086
  982MOL0     C32441  -0.106   1.241   4.303 -0.9138 -0.1252  0.8045
  982MOL0     C32442  -0.240   1.273   4.294 -0.3099  0.9063 -0.3040
  982MOL0     O32443  -0.330   1.169   4.271 -0.1760  0.0280  0.1350
  982MOL0     C32444  -0.457   1.206   4.208 -0.8294 -0.2090  0.6097
  982MOL0     C32445  -0.515   1.080   4.153  1.1080  0.0823  0.3257
  982MOL0     C32446  -0.573   0.996   4.266 -0.0965  0.3191 -0.0382
  982MOL0     C32447  -0.609   0.858   4.210  0.4983 -0.0590 -0.1668
  982MOL0     C32448  -0.597   0.748   4.317  0.0042  0.2232  0.8924
  982MOL0     C32449  -0.607   0.606   4.279  0.3573  0.0990  0.6167
  982MOL0     C32450  -0.744   0.572   4.208 -0.2797  0.3597  0.2268
  982MOL0     C32451  -0.755   0.417   4.211  0.9692  0.3827  0.0559
  982MOL0     N32452  -0.831   0.363   4.098  0.9543  0.3926 -0.1040
  982MOL0     C32453  -0.963   0.383   4.068 -0.6275  0.4676 -0.8467
  982MOL0     C32454  -0.985   0.328   3.953  0.4404 -0.0230 -0.7718
  982MOL0     C32455  -1.125   0.287   3.903 -0.3129 -0.0370  0.1186
  982MOL0     C32456  -1.119   0.326   3.752  0.3552 -0.1023 -0.7598
  982MOL0     C32457  -1.243   0.294   3.671  1.0905 -0.0574 -0.2760
  982MOL0     C32458  -1.239   0.344   3.529 -0.3794  0.9073 -0.3961
  982MOL0     O32459  -1.124   0.268   3.481  0.4947  0.7272  0.2410
  982MOL0     C32460  -1.122   0.255   3.343  0.0701 -0.6675  0.7952
  982MOL0     C32461  -1.204   0.325   3.251  0.5352 -0.0797 -0.0550
  982MOL0     C32462  -1.223   0.286   3.123 -0.1068 -0.4829  0.6473
  982MOL0     C32463  -1.300   0.372   3.024  1.4930 -0.0885 -0.2104
  982MOL0     C32464  -1.169   0.161   3.080 -0.0987  0.6911 -0.0559
  982MOL0     C32465  -1.178   0.115   2.937 -0.4945  0.4789 -0.5976
  982MOL0     O32466  -1.095   0.010   2.905  0.3456 -0.2407  0.1198
  982MOL0     C32467  -1.083  -0.019   2.772 -0.8512 -0.5097  0.4940
  982MOL0     C32468  -0.963  -0.000   2.700 -0.1156  0.3329 -1.7909
  982MOL0     C32469  -0.948  -0.037   2.565  0.0500  0.3911  0.1478
  982MOL0     C32470  -1.059  -0.089   2.488 -0.5037 -0.7826 -0.7672
  982MOL0     O32471  -1.031  -0.119   2.364 -0.0647  0.9801  0.3447
  982MOL0     C32472  -1.127  -0.122   2.263 -0.0727 -0.1250  0.4569
  982MOL0     C32473  -1.077  -0.203   2.131  0.5092 -0.0060  0.2502
  982MOL0     C32474  -0.996  -0.336   2.165  0.6051 -1.0594  1.0214
  982MOL0     C32475  -1.104  -0.426   2.234  0.1887 -0.4896  0.8329
  982MOL0     C32476  -1.038  -0.567   2.266 -0.3716 -0.3569 -0.8460
  982MOL0     C32477  -1.025  -0.647   2.139  1.2480  1.2260  0.5385
  982MOL0     C32478  -0.961  -0.790   2.169 -0.1081 -0.2852  0.4273
  982MOL0     C32479  -0.810  -0.785   2.136  0.4224 -0.1731  0.1403
  982MOL0    Cl32480  -0.803  -0.745   1.962 -0.1300  0.3312 -0.4782
  982MOL0     C32481  -1.180  -0.104   2.562 -0.2896  0.7232  0.9347
  982MOL0     C32482  -1.190  -0.069   2.699 -0.1910  0.2023  0.0009
  982MOL0     O32483  -1.266   0.149   2.858 -0.1402 -0.1030  0.2674
  982MOL0     C32484  -1.079   0.096   3.166  0.6381  0.1743 -0.0147
  982MOL0     C32485  -1.067   0.134   3.296 -0.6608  0.4152  0.6904
  982MOL0     N32486  -0.861   0.267   3.915 -0.4016 -1.1533 -0.4971
  982MOL0     N32487  -0.770   0.281   4.012 -0.3406 -1.0106  0.7352
  982MOL0     C32488  -0.279   1.416   4.294 -0.4432 -0.0126 -0.2209
  982MOL0     C32489  -0.185   1.516   4.306  0.2055  0.4201  0.4260
  982MOL0     C32490   0.152   1.759   4.200  0.6062  0.0223 -0.9335
  982MOL0     C32491   0.140   1.830   4.321 -0.1513 -0.7979 -0.2044
  982MOL0     C32492   0.197   1.959   4.333  0.4622 -0.0336 -0.2201
  982MOL0     C32493   0.269   2.009   4.228  0.0547 -0.2987 -0.6912
  982MOL0     O32494   0.328   2.129   4.238  0.0031 -0.2874  0.1877
  982MOL0     C32495   0.232   2.235   4.199  0.1788 -0.7664  0.0289
  982MOL0     C32496   0.186   2.322   4.316 -0.3768  0.2666 -0.0567
  982MOL0     C32497   0.050   2.399   4.286 -0.3043  0.0205 -0.5307
  982MOL0     C32498   0.051   2.534   4.350 -0.7679 -0.2297  0.4377
  982MOL0     C32499  -0.084   2.590   4.371  0.3053  0.2709  0.5009
  982MOL0     C32500  -0.190   2.638   4.396  0.2977  0.5046  0.8107
  982MOL0     C32501   0.285   1.931   4.109 -0.1935 -0.4136  0.1218
  982MOL0     C32502   0.228   1.806   4.098  0.1882  0.6187 -0.5514
  982MOL0     H32503   0.090   1.309   4.326 -0.1786 -0.4747 -0.5471
  982MOL0     H32504  -0.077   1.136   4.302 -1.3539 -0.3606  3.7875
  982MOL0     H32505  -0.523   1.267   4.270 -2.5208  2.0958 -3.1129
  982MOL0     H32506  -0.447   1.274   4.123 -5.0532  2.7524  2.1319
  982MOL0     H32507  -0.598   1.102   4.085  0.2486 -1.7644  0.7214
  982MOL0     H32508  -0.440   1.027   4.093 -0.1155  1.4474 -2.6017
  982MOL0     H32509  -0.502   0.991   4.349  2.1312 -0.4672 -1.8867
  982MOL0     H32510  -0.667   1.044   4.295 -0.5981 -1.7226  1.9954
  982MOL0     H32511  -0.708   0.850   4.164  0.8375 -1.9481 -0.6737
  982MOL0     H32512  -0.530   0.831   4.139 -0.8095 -0.2449 -1.6066
  982MOL0     H32513  -0.502   0.777   4.362 -0.1534  0.2798  1.1940
  982MOL0     H32514  -0.679   0.765   4.388  0.0622  0.8171  0.8210
  982MOL0     H32515  -0.520   0.587   4.216 -2.0604 -0.7759 -2.7734
  982MOL0     H32516  -0.592   0.537   4.363  3.1056  0.1073  0.2082
  982MOL0     H32517  -0.830   0.608   4.265  1.6955  0.6900  3.2357
  982MOL0     H32518  -0.745   0.597   4.102  0.7301 -0.9105 -0.1081
  982MOL0     H32519  -0.800   0.384   4.305 -1.2231  1.2142 -0.6515
  982MOL0     H32520  -0.655   0.375   4.193  1.8631  3.3610 -2.9223
  982MOL0     H32521  -1.038   0.433   4.129 -0.6493  1.6634 -1.8117
  982MOL0     H32522  -1.140   0.180   3.922 -0.8259  0.5145  3.2293
  982MOL0     H32523  -1.198   0.343   3.961 -0.1226 -0.1094  0.4287
  982MOL0     H32524  -1.034   0.276   3.703  0.0486 -0.5113 -0.8786
  982MOL0     H32525  -1.103   0.434   3.743  2.1155 -0.2276  0.2853
  982MOL0     H32526  -1.320   0.352   3.722  2.0252  2.8649 -1.9706
  982MOL0     H32527  -1.263   0.187   3.660  0.6075  0.1456 -1.5178
  982MOL0     H32528  -1.236   0.453   3.527 -1.3746  0.9425 -0.4436
  982MOL0     H32529  -1.329   0.312   3.474 -0.1246  0.1888 -0.4131
  982MOL0     H32530  -1.256   0.415   3.281  1.8343  0.4371  0.6694
  982MOL0     H32531  -1.249   0.383   2.928  0.5540  0.0698 -0.7005
  982MOL0     H32532  -1.398   0.326   3.007  1.0824  0.4714  0.5944
  982MOL0     H32533  -1.311   0.467   3.077 -0.1849  0.2458 -1.0741
  982MOL0     H32534  -0.872   0.030   2.750  0.6489 -1.9153 -1.7229
  982MOL0     H32535  -0.844  -0.027   2.537  1.4506 -4.0245  2.9107
  982MOL0     H32536  -1.208  -0.184   2.303 -0.6364 -0.2321 -0.8128
  982MOL0     H32537  -1.154  -0.020   2.234  2.1930  0.2506 -0.6383
  982MOL0     H32538  -1.173  -0.227   2.085 -1.2183  1.6043  2.7522
  982MOL0     H32539  -1.032  -0.131   2.063 -1.9876  0.2442 -1.2747
  982MOL0     H32540  -0.913  -0.316   2.234  3.0568 -2.1361 -1.4427
  982MOL0     H32541  -0.965  -0.380   2.070  0.0516  0.1645  0.2541
  982MOL0     H32542  -1.134  -0.388   2.332 -1.1511 -1.1090  0.6763
  982MOL0     H32543  -1.190  -0.426   2.168  1.9696  0.2871 -1.6260
  982MOL0     H32544  -1.109  -0.608   2.339 -0.1141  1.5727  0.5558
  982MOL0     H32545  -0.934  -0.571   2.300 -1.2018  1.6981  2.3077
  982MOL0     H32546  -1.127  -0.662   2.104  1.0280  2.2477  0.6979
  982MOL0     H32547  -0.965  -0.578   2.078 -0.6859  3.2714  0.8488
  982MOL0     H32548  -1.007  -0.872   2.113 -2.5531 -1.4960  3.8617
  982MOL0     H32549  -0.980  -0.812   2.275  3.9274 -0.4529  1.2823
  982MOL0     H32550  -0.766  -0.885   2.149 -0.3652 -0.2672  2.7697
  982MOL0     H32551  -0.758  -0.706   2.192 -0.0933 -0.1863  0.6433
  982MOL0     H32552  -1.265  -0.140   2.504  3.2267 -0.4548 -4.1591
  982MOL0     H32553  -1.286  -0.085   2.746  0.0830 -1.9098 -0.0650
  982MOL0     H32554  -1.019   0.014   3.131  0.8493  0.3274 -0.0132
  982MOL0     H32555  -1.008   0.071   3.361 -0.0848  0.2233 -0.0028
  982MOL0     H32556  -0.382   1.436   4.267 -1.0083 -2.4998 -0.2138
  982MOL0     H32557  -0.219   1.619   4.309  1.2384  1.1181 -4.2559
  982MOL0     H32558   0.085   1.795   4.407  1.9993 -2.3374  0.6365
  982MOL0     H32559   0.204   2.000   4.433  0.3076 -1.8871  0.6044
  982MOL0     H32560   0.276   2.298   4.121 -1.6313 -0.5423 -0.8658
  982MOL0     H32561   0.146   2.186   4.152 -1.2029  1.8490 -0.3630
  982MOL0     H32562   0.267   2.391   4.340  0.0645 -0.2318 -0.0862
  982MOL0     H32563   0.160   2.253   4.396  1.4111 -1.2393 -0.6996
  982MOL0     H32564  -0.033   2.344   4.332 -0.8379  3.6689  3.4324
  982MOL0     H32565   0.036   2.412   4.178  2.4876  0.2624 -0.9264
  982MOL0     H32566   0.113   2.597   4.285 -4.3753  2.2291 -0.8853
  982MOL0     H32567   0.107   2.532   4.444 -1.1061 -2.7167  0.6702
  982MOL0     H32568  -0.288   2.679   4.413 -0.9025 -2.1340  0.8248
  982MOL0     H32569   0.355   1.976   4.040 -0.4032 -0.7580 -0.3232
  982MOL0     H32570   0.269   1.748   4.016 -0.1681  1.4829 -1.3594
  983MOL0     O32571   5.290   7.691   0.796  0.7306 -0.3802 -0.0775
  983MOL0     C32572   5.367   7.745   0.718 -0.0654 -0.5862  0.5085
  983MOL0     O32573   5.336   7.858   0.651  0.6438  0.2326  0.6494
  983MOL0     C32574   5.213   7.924   0.656  1.3158 -1.0029 -0.1130
  983MOL0     C32575   5.202   8.038   0.571  0.0690  0.9992 -0.0626
  983MOL0     C32576   5.094   8.129   0.580  0.5420  0.2695 -1.0454
  983MOL0     C32577   4.984   8.109   0.671 -0.1631  0.5052  0.6033
  983MOL0     O32578   4.883   8.199   0.665  0.4284  0.3774  0.6149
  983MOL0     C32579   4.776   8.190   0.755 -0.1185  0.8329  0.3503
  983MOL0     C32580   4.692   8.310   0.750 -0.4299  0.8757  0.1563
  983MOL0     C32581   4.651   8.330   0.606  0.5017 -0.2196 -0.1462
  983MOL0     C32582   4.594   8.477   0.598 -1.0516 -0.4228 -0.1731
  983MOL0     C32583   4.584   8.527   0.447  0.1041  0.2815 -0.5694
  983MOL0     C32584   4.521   8.658   0.424 -0.4078 -0.0937 -0.2227
  983MOL0     C32585   4.369   8.643   0.432  1.4440  0.8563 -0.0832
  983MOL0     C32586   4.280   8.763   0.396 -1.9208  0.7670 -0.8045
  983MOL0     N32587   4.248   8.767   0.248  0.4554  0.1369 -0.5005
  983MOL0     C32588   4.187   8.880   0.185  0.1751 -0.5719  0.3863
  983MOL0     C32589   4.170   8.838   0.057  0.4211  0.2918 -0.9680
  983MOL0     C32590   4.096   8.906  -0.052  0.9991  0.5374  0.9708
  983MOL0     C32591   4.105   9.063  -0.053  0.3502  0.3791 -0.0343
  983MOL0     C32592   3.984   9.133  -0.122 -0.9211  0.2633  0.0922
  983MOL0     C32593   3.978   9.073  -0.272 -0.3439  0.1844 -0.7939
  983MOL0     O32594   3.916   9.167  -0.354  0.1296 -0.5774  0.1000
  983MOL0     C32595   3.925   9.176  -0.487  0.6075 -0.9004  0.1230
  983MOL0     C32596   3.846   9.278  -0.536  0.5501 -0.4250 -0.2871
  983MOL0     C32597   3.838   9.310  -0.672  0.5648 -0.0967 -0.0019
  983MOL0     C32598   3.739   9.423  -0.716  0.2936 -0.0636  0.1141
  983MOL0     C32599   3.929   9.234  -0.765 -0.1337  0.5686  0.0121
  983MOL0     C32600   3.947   9.257  -0.907  0.7481 -0.4164 -0.0777
  983MOL0     O32601   3.950   9.388  -0.953  0.1461  0.1956 -0.1714
  983MOL0     C32602   3.973   9.401  -1.084 -0.3394  0.8006 -0.6461
  983MOL0     C32603   4.087   9.464  -1.140 -0.2733  0.4953 -0.0221
  983MOL0     C32604   4.115   9.475  -1.277 -0.1275  0.0877  0.9407
  983MOL0     C32605   4.024   9.415  -1.371 -0.2057 -0.4913 -0.4154
  983MOL0     O32606   4.062   9.429  -1.500  0.0585  0.4563  0.8376
  983MOL0     C32607   3.958   9.447  -1.587  0.8410  0.0466 -0.0486
  983MOL0     C32608   4.019   9.481  -1.726 -0.2096 -0.3707 -0.4172
  983MOL0     C32609   3.909   9.528  -1.820 -0.1581 -0.4616 -0.3781
  983MOL0     C32610   3.959   9.563  -1.966 -1.1368  0.2267 -0.8837
  983MOL0     C32611   3.845   9.570  -2.059  0.9739  0.1611 -0.9101
  983MOL0     C32612   3.741   9.685  -2.039  0.3648 -0.0562 -0.1418
  983MOL0     C32613   3.803   9.807  -2.100  0.3646  0.0807  0.6374
  983MOL0     C32614   3.699   9.917  -2.095  0.1160 -0.0644 -1.1809
  983MOL0    Cl32615   3.737  10.036  -2.224  0.0740  0.6730  0.8286
  983MOL0     C32616   3.911   9.353  -1.324  0.8041  0.1517  0.1430
  983MOL0     C32617   3.885   9.342  -1.181  0.9998  0.2003  0.0427
  983MOL0     O32618   3.946   9.155  -0.984  0.6898 -0.6367 -1.0048
  983MOL0     C32619   4.012   9.130  -0.709 -0.5870  0.2036  0.4982
  983MOL0     C32620   4.017   9.103  -0.571 -0.5915 -0.5760 -0.6634
  983MOL0     N32621   4.230   8.715   0.044  0.6959 -1.2289 -0.5117
  983MOL0     N32622   4.293   8.687   0.151  0.1013  0.9718 -0.2135
  983MOL0     C32623   4.987   7.996   0.751  0.4950  0.3883 -0.6589
  983MOL0     C32624   5.096   7.911   0.744 -0.0951  0.2657 -0.4043
  983MOL0     C32625   5.503   7.693   0.703  0.2193  0.1075 -0.1460
  983MOL0     C32626   5.602   7.755   0.627  0.1389 -1.4755  0.1531
  983MOL0     C32627   5.729   7.719   0.628 -0.0435  0.4017 -0.6076
  983MOL0     C32628   5.770   7.608   0.705  0.0311 -0.4778 -0.8088
  983MOL0     O32629   5.896   7.561   0.700 -0.6399 -0.2652 -0.4536
  983MOL0     C32630   6.000   7.665   0.683  0.9412 -0.8007  0.1861
  983MOL0     C32631   6.129   7.615   0.741 -0.0829  0.0612  0.5419
  983MOL0     C32632   6.227   7.728   0.779 -0.6746 -0.3454  1.1033
  983MOL0     C32633   6.310   7.691   0.900 -0.7697  0.9081 -0.2650
  983MOL0     C32634   6.406   7.801   0.920  0.3829  0.0193  0.5819
  983MOL0     C32635   6.488   7.891   0.919 -0.6750 -0.3885 -0.3148
  983MOL0     C32636   5.672   7.526   0.756  0.2355 -0.3237 -0.4968
  983MOL0     C32637   5.541   7.573   0.759  0.5702  0.3377  0.8386
  983MOL0     H32638   5.287   8.068   0.510  1.3593  0.5239  1.4506
  983MOL0     H32639   5.096   8.216   0.516  2.0977 -0.7208 -2.4235
  983MOL0     H32640   4.715   8.101   0.740 -0.2345  0.5644  2.1907
  983MOL0     H32641   4.803   8.185   0.861 -1.2852  3.1714  0.8210
  983MOL0     H32642   4.605   8.307   0.815 -2.2698  0.5886 -2.1632
  983MOL0     H32643   4.767   8.387   0.772  3.0260 -0.6893 -4.4167
  983MOL0     H32644   4.728   8.318   0.529  0.0290  2.2300 -1.1022
  983MOL0     H32645   4.563   8.266   0.597 -0.8579  1.5609 -0.1564
  983MOL0     H32646   4.498   8.492   0.648 -0.1935 -0.2251  1.4939
  983MOL0     H32647   4.663   8.541   0.654 -0.4107  0.6699 -2.1011
  983MOL0     H32648   4.689   8.542   0.424  0.1501 -0.0938 -0.6062
  983MOL0     H32649   4.536   8.443   0.396  1.0615 -0.9323  0.4719
  983MOL0     H32650   4.554   8.724   0.505 -1.9439  0.1206  0.2539
  983MOL0     H32651   4.550   8.700   0.327 -2.0662 -0.4216 -0.8940
  983MOL0     H32652   4.333   8.557   0.375 -3.6137  2.0852  0.7778
  983MOL0     H32653   4.336   8.619   0.534  1.5969 -0.5752 -0.3458
  983MOL0     H32654   4.339   8.852   0.420 -3.1143  1.0323  1.4431
  983MOL0     H32655   4.191   8.773   0.458 -1.7824 -1.6135 -0.1387
  983MOL0     H32656   4.158   8.983   0.206 -2.9832 -0.7375 -2.3753
  983MOL0     H32657   4.128   8.862  -0.147  0.1211 -1.5717  1.5852
  983MOL0     H32658   3.989   8.890  -0.042  1.1864 -1.5833  0.1395
  983MOL0     H32659   4.200   9.099  -0.092  0.0441  2.0327  0.6600
  983MOL0     H32660   4.111   9.112   0.045  0.1351  4.3911 -1.8789
  983MOL0     H32661   4.009   9.239  -0.128 -2.3086  0.5568 -0.7833
  983MOL0     H32662   3.894   9.132  -0.059  0.1808 -1.1738  1.7370
  983MOL0     H32663   3.907   8.989  -0.272 -1.5711  1.1421  1.0348
  983MOL0     H32664   4.073   9.032  -0.308  0.1805 -0.7667  1.5291
  983MOL0     H32665   3.770   9.328  -0.476 -1.6944 -2.5689 -1.1734
  983MOL0     H32666   3.784   9.523  -0.717  2.0426 -0.8171 -0.5523
  983MOL0     H32667   3.716   9.407  -0.822 -0.8815  0.7476  0.2279
  983MOL0     H32668   3.657   9.420  -0.644  1.2637  1.8522  1.3771
  983MOL0     H32669   4.165   9.494  -1.071  0.3708 -1.6670  0.2454
  983MOL0     H32670   4.207   9.517  -1.318  0.1134  1.6457  2.9393
  983MOL0     H32671   3.909   9.350  -1.603  5.4676 -2.5681 -0.0901
  983MOL0     H32672   3.887   9.518  -1.543 -1.4236  0.4841 -3.8618
  983MOL0     H32673   4.090   9.562  -1.706 -1.8501  1.2183 -0.6694
  983MOL0     H32674   4.085   9.399  -1.754  3.4211  1.0916  2.8561
  983MOL0     H32675   3.851   9.611  -1.777 -0.6812 -2.0062  2.0573
  983MOL0     H32676   3.829   9.455  -1.833 -5.1466  4.0975  0.9950
  983MOL0     H32677   4.033   9.643  -1.954  1.1231 -1.7930 -0.5099
  983MOL0     H32678   4.024   9.490  -2.015  0.4254  0.7550  0.2797
  983MOL0     H32679   3.780   9.484  -2.044  0.7645  0.8957  6.3862
  983MOL0     H32680   3.881   9.569  -2.162  3.1113 -2.3850 -0.2468
  983MOL0     H32681   3.652   9.658  -2.096 -2.3380 -1.0875  4.1204
  983MOL0     H32682   3.706   9.703  -1.937  0.4068  2.5239 -0.5264
  983MOL0     H32683   3.823   9.789  -2.206 -1.0505  0.3770  0.3056
  983MOL0     H32684   3.897   9.841  -2.056  1.0356  1.0248 -1.3875
  983MOL0     H32685   3.712   9.972  -2.001  1.6574 -0.8973 -0.8730
  983MOL0     H32686   3.595   9.890  -2.112  0.2983 -0.3004 -1.9616
  983MOL0     H32687   3.831   9.310  -1.384 -0.2627 -0.2329  1.7798
  983MOL0     H32688   3.792   9.289  -1.165  1.3560 -0.8426 -1.2019
  983MOL0     H32689   4.076   9.070  -0.772 -2.5840  0.1031 -1.5724
  983MOL0     H32690   4.075   9.015  -0.547 -0.1080 -0.6460 -2.0038
  983MOL0     H32691   4.909   7.981   0.826 -0.5574  2.7694 -1.1984
  983MOL0     H32692   5.089   7.828   0.814  1.1320  0.7447  0.3140
  983MOL0     H32693   5.583   7.847   0.574  0.1380 -0.9720  1.0099
  983MOL0     H32694   5.795   7.780   0.567 -0.2861 -1.2026 -2.6135
  983MOL0     H32695   6.007   7.692   0.577 -1.9727  2.4366  0.6124
  983MOL0     H32696   5.963   7.759   0.726  0.4775 -0.6219 -0.5709
  983MOL0     H32697   6.183   7.546   0.676 -0.9947  1.1448 -1.4491
  983MOL0     H32698   6.101   7.557   0.830  1.6987 -1.3158  0.2760
  983MOL0     H32699   6.179   7.825   0.795 -3.4463 -1.8920  3.1113
  983MOL0     H32700   6.300   7.747   0.700  0.0220  0.9849  2.0124
  983MOL0     H32701   6.359   7.593   0.890 -1.3255  0.4651  1.1484
  983MOL0     H32702   6.246   7.682   0.988 -2.4033  4.5427 -0.9198
  983MOL0     H32703   6.552   7.976   0.912  1.9145 -2.1214  0.6050
  983MOL0     H32704   5.693   7.438   0.816  2.5974  1.2716  1.2095
  983MOL0     H32705   5.468   7.511   0.810  0.3494 -0.4077 -0.3288
  984MOL0     O32706   2.048   7.158  11.510  0.3495  0.2612 -0.5645
  984MOL0     C32707   2.021   7.216  11.623 -0.7133 -0.1755  0.7538
  984MOL0     O32708   2.028   7.353  11.641 -0.0978  0.5140 -0.8355
  984MOL0     C32709   2.073   7.444  11.549  0.0417  0.5519 -0.3523
  984MOL0     C32710   2.162   7.549  11.601  0.0631  0.5061  0.2501
  984MOL0     C32711   2.212   7.646  11.511  0.8640  0.5308 -0.2029
  984MOL0     C32712   2.177   7.633  11.373 -1.0802  0.8603  0.4422
  984MOL0     O32713   2.238   7.716  11.284  0.5634 -0.2107 -0.4033
  984MOL0     C32714   2.153   7.763  11.177 -0.4755 -1.0970 -0.7153
  984MOL0     C32715   2.225   7.869  11.091 -0.6797 -0.6821 -0.0397
  984MOL0     C32716   2.170   8.015  11.121 -0.4622  0.2968 -0.6397
  984MOL0     C32717   2.203   8.119  11.018  0.6777  0.7752  0.0099
  984MOL0     C32718   2.351   8.166  11.012  0.9116  0.4471 -0.3541
  984MOL0     C32719   2.364   8.292  10.922  0.2702 -0.4182 -0.3098
  984MOL0     C32720   2.316   8.277  10.780 -0.2205 -0.0901 -0.4984
  984MOL0     C32721   2.357   8.394  10.686 -0.5373 -1.4908 -0.2285
  984MOL0     N32722   2.504   8.417  10.681  0.5155 -0.2314 -0.1126
  984MOL0     C32723   2.597   8.350  10.607  0.6097 -0.2263 -0.8027
  984MOL0     C32724   2.705   8.416  10.640 -0.1230  0.1234  0.4300
  984MOL0     C32725   2.830   8.375  10.571  0.1810 -0.1473  0.5226
  984MOL0     C32726   2.869   8.224  10.600 -0.6424 -0.4136 -0.3745
  984MOL0     C32727   3.026   8.198  10.592  0.2108 -0.9947  0.2084
  984MOL0     C32728   3.092   8.259  10.457  1.0407 -0.4121 -0.2557
  984MOL0     O32729   3.021   8.220  10.339  0.5375 -0.4183  0.5672
  984MOL0     C32730   2.989   8.317  10.250 -0.1563 -0.2874 -0.9098
  984MOL0     C32731   2.858   8.319  10.215 -0.1660  0.8847  0.5956
  984MOL0     C32732   2.809   8.407  10.119 -0.4279  0.7826 -0.3556
  984MOL0     C32733   2.668   8.377  10.064 -0.4379 -0.1875  0.2858
  984MOL0     C32734   2.900   8.508  10.070  0.1452 -0.1487  0.6249
  984MOL0     C32735   2.861   8.616   9.979 -0.0200 -0.9547 -0.4595
  984MOL0     O32736   2.736   8.644   9.973  0.2355  0.1224  0.6977
  984MOL0     C32737   2.702   8.766   9.923 -1.3794  1.0908 -0.3293
  984MOL0     C32738   2.664   8.779   9.793 -0.8868 -1.3128 -0.1856
  984MOL0     C32739   2.620   8.903   9.745  0.9786  0.0535 -0.6601
  984MOL0     C32740   2.606   9.010   9.834 -0.4727  0.1539 -0.2379
  984MOL0     O32741   2.566   9.130   9.795 -0.4155  0.2184  0.5619
  984MOL0     C32742   2.536   9.242   9.878 -0.4987  0.4415 -0.9393
  984MOL0     C32743   2.437   9.333   9.799  0.0934  0.0162 -1.3387
  984MOL0     C32744   2.305   9.277   9.782 -0.3976  0.6207 -0.2650
  984MOL0     C32745   2.201   9.382   9.745 -0.4669  0.0809 -0.5600
  984MOL0     C32746   2.077   9.321   9.703  0.9852 -0.3516 -0.4917
  984MOL0     C32747   1.960   9.425   9.680 -1.1950 -0.6904  0.5026
  984MOL0     C32748   1.864   9.359   9.581  0.2598  0.7325  0.5883
  984MOL0     C32749   1.726   9.430   9.588 -0.1644 -0.3248  0.4689
  984MOL0    Cl32750   1.646   9.396   9.751 -0.1708  0.1776  0.5712
  984MOL0     C32751   2.653   8.988   9.968  0.1484 -0.2957 -0.2387
  984MOL0     C32752   2.708   8.871  10.014 -0.2496  0.3035 -1.1222
  984MOL0     O32753   2.945   8.685   9.931 -0.5716 -0.2264  0.2150
  984MOL0     C32754   3.039   8.501  10.111 -0.2273  0.9158 -0.6616
  984MOL0     C32755   3.086   8.412  10.210  0.1742 -0.5077  0.6611
  984MOL0     N32756   2.686   8.512  10.730 -0.4403  0.5487  0.5881
  984MOL0     N32757   2.563   8.507  10.760 -0.4070 -0.0806 -0.1784
  984MOL0     C32758   2.092   7.534  11.330 -0.6650  0.2695 -0.4355
  984MOL0     C32759   2.046   7.436  11.418 -0.5264  0.3166  0.6866
  984MOL0     C32760   1.967   7.131  11.733  0.9276 -0.1839 -0.0417
  984MOL0     C32761   1.944   7.186  11.864  0.0333  1.1843  0.0145
  984MOL0     C32762   1.867   7.111  11.955  0.3972 -0.1484 -0.7402
  984MOL0     C32763   1.804   6.986  11.925  0.6895 -1.0703 -0.1521
  984MOL0     O32764   1.729   6.926  12.028  0.8719  0.2765 -0.3249
  984MOL0     C32765   1.697   6.788  12.018 -0.6285 -1.8591  0.6793
  984MOL0     C32766   1.702   6.734  12.157 -0.7565 -0.0687 -0.3467
  984MOL0     C32767   1.628   6.591  12.152  0.6018  0.8997 -0.1683
  984MOL0     C32768   1.675   6.491  12.039  0.2151 -1.2883 -0.4771
  984MOL0     C32769   1.822   6.476  12.052  0.1495  0.3125  0.0889
  984MOL0     C32770   1.941   6.457  12.050 -0.3405  0.0834  0.7184
  984MOL0     C32771   1.831   6.936  11.798 -0.5902 -0.6187  0.5433
  984MOL0     C32772   1.919   7.009  11.705  0.8666  0.7508  0.1149
  984MOL0     H32773   2.173   7.553  11.709  1.8542 -1.7950  0.2363
  984MOL0     H32774   2.270   7.731  11.548 -2.0897  1.9752  1.4289
  984MOL0     H32775   2.126   7.676  11.118 -1.1983 -1.3266 -0.0693
  984MOL0     H32776   2.055   7.801  11.207 -1.6344 -2.2049 -2.9043
  984MOL0     H32777   2.333   7.867  11.104 -0.5920  1.1582 -0.2159
  984MOL0     H32778   2.203   7.835  10.990  0.3973  2.4485 -1.4472
  984MOL0     H32779   2.061   8.008  11.126 -0.6974  1.8910 -2.4121
  984MOL0     H32780   2.192   8.051  11.222 -3.3916  0.4625  0.0431
  984MOL0     H32781   2.184   8.079  10.918 -1.5196 -0.4935  0.8607
  984MOL0     H32782   2.134   8.203  11.031 -1.1964 -0.4034 -1.6988
  984MOL0     H32783   2.391   8.184  11.112  0.4859 -2.6423  0.4570
  984MOL0     H32784   2.414   8.083  10.978 -0.6858 -1.2508  0.6363
  984MOL0     H32785   2.330   8.383  10.972  3.7021  0.3211  0.9468
  984MOL0     H32786   2.471   8.310  10.910 -0.4069  3.4683 -1.9873
  984MOL0     H32787   2.341   8.176  10.745 -2.7272 -0.9878  0.0707
  984MOL0     H32788   2.207   8.276  10.781 -0.2280 -1.8277  0.3092
  984MOL0     H32789   2.307   8.488  10.711  1.0375 -0.0119 -2.2810
  984MOL0     H32790   2.327   8.374  10.583 -1.6265 -0.9419 -0.0321
  984MOL0     H32791   2.592   8.254  10.556  0.2469 -0.7120  0.1305
  984MOL0     H32792   2.810   8.376  10.463  0.2086 -0.0334  0.5184
  984MOL0     H32793   2.916   8.436  10.601  0.2698  0.6133 -1.1255
  984MOL0     H32794   2.813   8.169  10.524  0.7507  2.7226 -3.9970
  984MOL0     H32795   2.826   8.196  10.698 -1.8607  5.1693  1.0283
  984MOL0     H32796   3.045   8.090  10.589 -1.3568 -1.2673 -1.9486
  984MOL0     H32797   3.078   8.240  10.679  0.7592 -0.9380 -0.1411
  984MOL0     H32798   3.191   8.212  10.460  1.1900 -0.0912 -0.0227
  984MOL0     H32799   3.103   8.368  10.467 -0.4213 -0.4179  2.0447
  984MOL0     H32800   2.786   8.249  10.256  2.4267 -0.3820  3.3901
  984MOL0     H32801   2.646   8.274  10.037 -0.1563  0.4848 -2.9926
  984MOL0     H32802   2.584   8.416  10.123 -0.8100  1.0392 -0.9762
  984MOL0     H32803   2.664   8.422   9.964  6.4386  1.2445  0.2065
  984MOL0     H32804   2.673   8.690   9.732 -1.5119 -4.5040  3.9089
  984MOL0     H32805   2.588   8.912   9.642 -1.1553  1.5605  0.0806
  984MOL0     H32806   2.481   9.203   9.965 -0.1721  0.6032 -0.6580
  984MOL0     H32807   2.625   9.288   9.921 -1.0610  1.2345 -0.6101
  984MOL0     H32808   2.428   9.423   9.860 -0.0285 -0.4427 -0.6701
  984MOL0     H32809   2.492   9.349   9.706  1.4875 -2.5830 -1.0564
  984MOL0     H32810   2.274   9.216   9.868  0.0137  4.1809  2.6677
  984MOL0     H32811   2.304   9.201   9.704 -1.9170 -0.8705  1.1004
  984MOL0     H32812   2.184   9.463   9.817 -1.7072 -1.3283  0.7938
  984MOL0     H32813   2.252   9.426   9.659  1.5895 -1.5480 -0.2746
  984MOL0     H32814   2.043   9.258   9.785 -1.2251 -0.7916 -1.6470
  984MOL0     H32815   2.096   9.253   9.619 -0.6054 -2.7117  0.9388
  984MOL0     H32816   1.913   9.463   9.770 -1.2120 -1.3769  0.7896
  984MOL0     H32817   1.987   9.513   9.620 -2.5361 -0.9151 -0.4747
  984MOL0     H32818   1.846   9.257   9.616 -3.2925  1.0046 -0.0103
  984MOL0     H32819   1.903   9.358   9.479  0.1572  3.0608  0.4736
  984MOL0     H32820   1.669   9.386   9.506  3.9309 -1.2752 -2.1704
  984MOL0     H32821   1.735   9.539   9.579 -0.2734  0.0993  3.9085
  984MOL0     H32822   2.652   9.073  10.036 -0.4744 -0.1075 -0.4717
  984MOL0     H32823   2.748   8.857  10.113  2.0559  1.5045 -1.8228
  984MOL0     H32824   3.105   8.581  10.079  1.0114  1.2388  2.3198
  984MOL0     H32825   3.187   8.413  10.249  0.4528  0.7233 -0.0201
  984MOL0     H32826   2.085   7.513  11.224  0.2259 -2.2441 -0.0737
  984MOL0     H32827   1.986   7.357  11.375  0.2524  0.5828 -0.9743
  984MOL0     H32828   1.991   7.282  11.880  1.7618  0.8376 -2.3685
  984MOL0     H32829   1.831   7.157  12.047  0.7236 -2.4614  0.6305
  984MOL0     H32830   1.596   6.790  11.976 -0.3165  0.3742 -0.0975
  984MOL0     H32831   1.757   6.723  11.954 -2.1390 -2.0439 -0.6239
  984MOL0     H32832   1.641   6.807  12.210  1.7946  3.8142 -2.2146
  984MOL0     H32833   1.804   6.730  12.196 -0.2707 -0.4263 -1.6043
  984MOL0     H32834   1.529   6.613  12.111 -0.2390 -0.7805  0.8569
  984MOL0     H32835   1.621   6.541  12.248  2.1764  1.5392  0.3158
  984MOL0     H32836   1.644   6.514  11.937 -3.3584  0.3815  0.8150
  984MOL0     H32837   1.624   6.397  12.061  0.7139 -1.0091  2.1548
  984MOL0     H32838   2.045   6.442  12.032  0.3888  1.3878  3.3734
  984MOL0     H32839   1.793   6.840  11.764 -0.2449  0.0226 -1.8053
  984MOL0     H32840   1.920   6.971  11.603 -1.9306 -1.0657  0.6453
  985MOL0     O32841   3.765   2.980   7.772  0.4140 -0.4475 -0.0699
  985MOL0     C32842   3.682   2.941   7.854 -0.1247  0.4655 -0.4272
  985MOL0     O32843   3.544   2.973   7.853 -0.2223  0.0808  0.4864
  985MOL0     C32844   3.501   3.059   7.747  0.0151  0.5263  0.1281
  985MOL0     C32845   3.516   3.002   7.622  0.7859 -0.3447 -0.0597
  985MOL0     C32846   3.446   3.035   7.516 -0.4609 -0.1291  0.7763
  985MOL0     C32847   3.362   3.153   7.526  0.6826 -0.3732  0.0825
  985MOL0     O32848   3.287   3.216   7.422  0.8769  0.6237 -0.0723
  985MOL0     C32849   3.315   3.186   7.279  0.0406 -0.8291  0.1382
  985MOL0     C32850   3.207   3.096   7.222  1.4463 -0.7153  0.1401
  985MOL0     C32851   3.071   3.173   7.226 -0.2045  0.2174  0.1593
  985MOL0     C32852   2.943   3.085   7.214 -0.2414  0.2476 -0.1937
  985MOL0     C32853   2.896   3.024   7.349 -1.7303  0.4243  1.1267
  985MOL0     C32854   2.783   3.101   7.418 -1.0162  0.6988 -0.0089
  985MOL0     C32855   2.732   3.013   7.531 -0.5539 -0.2662  0.2421
  985MOL0     C32856   2.650   2.897   7.474  0.0604 -0.4585 -0.4152
  985MOL0     N32857   2.604   2.802   7.568 -1.0356 -0.2135 -0.8157
  985MOL0     C32858   2.685   2.737   7.670 -0.1462  0.4553 -0.0772
  985MOL0     C32859   2.592   2.667   7.743 -0.3089  0.0193  0.5111
  985MOL0     C32860   2.635   2.589   7.865  0.3959 -0.1793  0.3591
  985MOL0     C32861   2.701   2.447   7.817 -0.2734  0.0377  1.2560
  985MOL0     C32862   2.855   2.467   7.782 -0.4047 -0.6458  0.8785
  985MOL0     C32863   2.916   2.334   7.733  0.7312  0.7977  0.0382
  985MOL0     O32864   3.057   2.354   7.712  0.6662 -0.4113  0.3029
  985MOL0     C32865   3.097   2.421   7.592  0.8352  0.2975 -0.9145
  985MOL0     C32866   3.234   2.439   7.569  0.0651 -0.9071  0.1889
  985MOL0     C32867   3.277   2.498   7.451 -0.8074  0.4729 -0.6208
  985MOL0     C32868   3.429   2.528   7.455 -0.1336  0.4211  0.4906
  985MOL0     C32869   3.189   2.551   7.352 -1.2145  0.3766  0.2669
  985MOL0     C32870   3.224   2.609   7.219  0.6755 -0.5836  0.7139
  985MOL0     O32871   3.121   2.635   7.138 -0.3944  0.1233  0.5828
  985MOL0     C32872   3.143   2.635   7.001 -0.0864  0.7006 -0.0156
  985MOL0     C32873   3.056   2.560   6.915 -0.1965  0.2354  0.2906
  985MOL0     C32874   3.051   2.574   6.780  0.6465 -0.4592  0.2120
  985MOL0     C32875   3.139   2.668   6.725  0.1575  0.4833  0.2328
  985MOL0     O32876   3.140   2.695   6.591  0.6517 -0.5365  0.4432
  985MOL0     C32877   3.088   2.595   6.502 -0.5443  0.2236  0.4720
  985MOL0     C32878   3.104   2.643   6.359  0.0542 -0.2339  0.0943
  985MOL0     C32879   3.070   2.532   6.244  0.0095 -0.1801 -1.2328
  985MOL0     C32880   3.144   2.573   6.119 -0.2786 -0.2984  0.0107
  985MOL0     C32881   3.105   2.708   6.057 -0.1132  0.0162  0.2438
  985MOL0     C32882   2.956   2.743   6.038 -0.1083  0.3519  0.3617
  985MOL0     C32883   2.940   2.880   5.970  0.2080  0.9456 -0.1770
  985MOL0     C32884   2.968   2.992   6.072  1.1142  1.3769  0.2023
  985MOL0    Cl32885   2.955   3.149   5.969  0.2649 -0.0438  0.1194
  985MOL0     C32886   3.234   2.740   6.807 -0.3742 -0.0969 -0.7756
  985MOL0     C32887   3.234   2.720   6.940  0.0496  0.2110 -0.3647
  985MOL0     O32888   3.343   2.616   7.191 -0.1726 -0.3377 -0.1955
  985MOL0     C32889   3.053   2.528   7.377  0.2902 -0.1272  0.2163
  985MOL0     C32890   3.009   2.464   7.494  0.6471 -0.1252 -0.1282
  985MOL0     N32891   2.464   2.682   7.688  0.7213 -0.8416 -0.2888
  985MOL0     N32892   2.475   2.763   7.585 -0.1096 -0.1392 -0.2915
  985MOL0     C32893   3.344   3.218   7.654  0.1569 -0.2591  0.2622
  985MOL0     C32894   3.415   3.164   7.767  0.0167 -0.0231 -0.2909
  985MOL0     C32895   3.722   2.854   7.970 -0.6603 -0.5063 -0.4323
  985MOL0     C32896   3.858   2.835   7.999  1.2995 -0.0564  0.2729
  985MOL0     C32897   3.906   2.742   8.087  0.5640 -0.2951  0.5393
  985MOL0     C32898   3.809   2.648   8.144 -0.4154  0.4163 -0.0019
  985MOL0     O32899   3.870   2.566   8.238  0.0780 -0.8449  0.4621
  985MOL0     C32900   3.798   2.513   8.345  0.3224 -0.3021 -0.8295
  985MOL0     C32901   3.846   2.596   8.472 -0.7439 -1.1060 -0.4841
  985MOL0     C32902   3.808   2.751   8.464  0.0836 -0.6151  0.1827
  985MOL0     C32903   3.849   2.817   8.601  0.2710 -0.4240 -0.6040
  985MOL0     C32904   3.735   2.800   8.693  0.0395  0.6789  0.2046
  985MOL0     C32905   3.649   2.764   8.775 -0.2041 -0.6546 -0.7025
  985MOL0     C32906   3.672   2.678   8.124 -0.4705  0.2943 -0.1236
  985MOL0     C32907   3.633   2.788   8.051 -0.4217  0.7932  0.5879
  985MOL0     H32908   3.587   2.920   7.610  1.5192  0.2348  0.1959
  985MOL0     H32909   3.449   2.993   7.416 -1.5911  0.1919  0.5956
  985MOL0     H32910   3.301   3.281   7.226 -0.5314 -0.1125  1.5381
  985MOL0     H32911   3.418   3.153   7.258  1.8970  3.5070  1.1685
  985MOL0     H32912   3.214   3.077   7.115 -5.5881 -2.4415 -0.5240
  985MOL0     H32913   3.193   3.002   7.277 -1.9459 -2.2464 -2.9584
  985MOL0     H32914   3.049   3.225   7.319 -2.6877  1.1990 -0.8978
  985MOL0     H32915   3.068   3.247   7.146 -3.3160  0.7835  0.6781
  985MOL0     H32916   2.862   3.148   7.177  0.2357  2.4135  2.1113
  985MOL0     H32917   2.954   3.014   7.132 -0.8242 -0.9029  0.7012
  985MOL0     H32918   2.877   2.923   7.313 -0.0291  0.3262  0.3717
  985MOL0     H32919   2.978   3.017   7.421  1.0780  1.3667 -1.6980
  985MOL0     H32920   2.827   3.194   7.455 -1.5241  0.4302  1.3625
  985MOL0     H32921   2.698   3.118   7.352 -0.7275 -1.5938 -1.0818
  985MOL0     H32922   2.811   2.978   7.597 -1.2732 -1.3611  0.5486
  985MOL0     H32923   2.665   3.076   7.590 -0.6839  0.4392 -0.6291
  985MOL0     H32924   2.699   2.840   7.395 -2.8772 -1.8761 -1.3771
  985MOL0     H32925   2.561   2.940   7.427 -1.5492 -2.2615  0.8106
  985MOL0     H32926   2.793   2.742   7.681 -0.2483 -0.5685  1.7284
  985MOL0     H32927   2.713   2.638   7.924  1.7150 -2.7674  0.9374
  985MOL0     H32928   2.550   2.569   7.929  0.0838  1.2616  0.4155
  985MOL0     H32929   2.647   2.404   7.733 -0.2014 -2.2220  2.2944
  985MOL0     H32930   2.694   2.373   7.897 -1.3593 -2.6928 -1.1903
  985MOL0     H32931   2.904   2.508   7.871 -0.0528  4.1243 -1.1822
  985MOL0     H32932   2.870   2.533   7.696 -3.5118  1.0004  1.4522
  985MOL0     H32933   2.864   2.300   7.642  1.6407 -0.0790 -0.1658
  985MOL0     H32934   2.887   2.264   7.812 -1.6669  1.3929 -0.2176
  985MOL0     H32935   3.295   2.405   7.652  1.0947  1.6887  0.5729
  985MOL0     H32936   3.470   2.627   7.435  0.0812 -0.4794 -4.9133
  985MOL0     H32937   3.471   2.486   7.548 -0.2333  1.7279  1.1418
  985MOL0     H32938   3.482   2.463   7.385  1.6851  1.0853  1.1814
  985MOL0     H32939   2.996   2.477   6.951  1.3586 -0.6860  0.8581
  985MOL0     H32940   2.975   2.516   6.727  0.0942 -1.2315  1.7805
  985MOL0     H32941   3.151   2.505   6.507  0.4377  0.9163  0.9655
  985MOL0     H32942   2.985   2.577   6.532  0.4363 -2.2686  2.8528
  985MOL0     H32943   3.049   2.733   6.333 -0.6238 -1.1079 -1.6552
  985MOL0     H32944   3.210   2.668   6.353 -0.1336  0.5748  0.0399
  985MOL0     H32945   2.962   2.530   6.232 -0.2888  2.3232  0.4394
  985MOL0     H32946   3.102   2.429   6.266 -1.3105 -0.3446  0.0518
  985MOL0     H32947   3.249   2.565   6.149 -0.7002 -1.1936  1.3291
  985MOL0     H32948   3.113   2.499   6.044  1.0645 -1.4493  0.5362
  985MOL0     H32949   3.153   2.720   5.959 -3.3777  2.1666 -1.2922
  985MOL0     H32950   3.153   2.785   6.117  0.3050 -1.0618  1.3410
  985MOL0     H32951   2.912   2.668   5.970  1.9621  1.0017 -1.8171
  985MOL0     H32952   2.908   2.741   6.137  2.3406 -0.4951  1.6022
  985MOL0     H32953   2.841   2.886   5.924 -0.1703  1.7103  0.7091
  985MOL0     H32954   3.012   2.901   5.891  0.4758  2.6300  0.4835
  985MOL0     H32955   3.068   2.986   6.117  1.0684  0.2117  0.1823
  985MOL0     H32956   2.889   2.993   6.147 -1.2668 -1.3397 -2.0309
  985MOL0     H32957   3.303   2.816   6.770 -2.6816  1.5441 -1.9856
  985MOL0     H32958   3.296   2.789   6.995  2.1558 -1.4259 -0.5330
  985MOL0     H32959   2.978   2.565   7.308 -0.6626 -2.0222  0.1589
  985MOL0     H32960   2.901   2.458   7.505  0.4361  2.0077 -0.5908
  985MOL0     H32961   3.277   3.304   7.655 -0.5420 -0.7243 -1.7677
  985MOL0     H32962   3.396   3.206   7.866  1.0580 -0.5144  0.1295
  985MOL0     H32963   3.921   2.893   7.932  1.2542  1.2287  1.3096
  985MOL0     H32964   4.008   2.712   8.110  1.0205  0.6558 -0.2235
  985MOL0     H32965   3.691   2.520   8.327 -0.1574  0.7064  1.9182
  985MOL0     H32966   3.820   2.409   8.371 -1.6203 -0.7660 -0.9213
  985MOL0     H32967   3.955   2.591   8.481 -0.2539  3.4008 -1.8896
  985MOL0     H32968   3.799   2.539   8.553 -2.0463 -2.2830 -1.9855
  985MOL0     H32969   3.707   2.780   8.433  1.3649  3.9788 -0.4890
  985MOL0     H32970   3.867   2.792   8.382 -0.6560  1.1929  0.5174
  985MOL0     H32971   3.870   2.923   8.579 -0.8489  0.3059  1.5852
  985MOL0     H32972   3.936   2.764   8.640 -0.1461  0.1563  1.1842
  985MOL0     H32973   3.575   2.736   8.848  1.3349 -4.5505 -0.3924
  985MOL0     H32974   3.586   2.627   8.167 -0.2079  0.5458  0.7316
  985MOL0     H32975   3.526   2.789   8.034 -0.7710  1.2767  2.5363
  986MOL0     O32976   2.795   7.191   5.529  1.0037  0.3533  0.3908
  986MOL0     C32977   2.887   7.155   5.597  0.1147 -0.8026  0.4798
  986MOL0     O32978   3.020   7.201   5.583 -0.2506  0.1037 -0.9932
  986MOL0     C32979   3.063   7.288   5.494  0.3045 -0.3837 -0.2634
  986MOL0     C32980   3.185   7.341   5.530 -1.2471 -0.5426  0.0503
  986MOL0     C32981   3.258   7.427   5.441 -0.0506  0.2260 -0.2964
  986MOL0     C32982   3.186   7.493   5.338 -0.0020  0.8806 -0.0869
  986MOL0     O32983   3.258   7.581   5.268  0.2010  0.2669 -0.4789
  986MOL0     C32984   3.200   7.659   5.167 -1.1262 -0.0953  0.8348
  986MOL0     C32985   3.312   7.749   5.099 -0.0664  0.2508  0.2396
  986MOL0     C32986   3.374   7.854   5.192  0.7896  0.2490  1.1704
  986MOL0     C32987   3.292   7.978   5.186  0.0336 -0.5726 -0.2562
  986MOL0     C32988   3.357   8.088   5.276 -0.2689 -0.3043  0.7452
  986MOL0     C32989   3.379   8.223   5.206 -0.5872  0.8031  0.0121
  986MOL0     C32990   3.484   8.237   5.091  0.9562  0.1512  1.0723
  986MOL0     C32991   3.636   8.239   5.124 -0.9990  0.8812 -0.3388
  986MOL0     N32992   3.738   8.219   5.024  0.4210  1.0871  0.0732
  986MOL0     C32993   3.718   8.142   4.913 -0.5704  0.5624 -0.2455
  986MOL0     C32994   3.826   8.165   4.839  0.3718 -0.2264  0.3715
  986MOL0     C32995   3.836   8.123   4.698 -0.1854 -0.6590 -0.8655
  986MOL0     C32996   3.765   8.227   4.609 -0.9599  1.1355 -1.0597
  986MOL0     C32997   3.623   8.264   4.635 -0.4182 -1.2865 -0.5851
  986MOL0     C32998   3.527   8.141   4.627  0.2867  0.8079 -0.7508
  986MOL0     O32999   3.415   8.182   4.706 -0.6625 -0.9018  0.2117
  986MOL0     C33000   3.317   8.089   4.728  0.7197 -0.9382  1.2140
  986MOL0     C33001   3.209   8.132   4.809  0.2894 -0.7444 -0.2713
  986MOL0     C33002   3.093   8.051   4.840 -0.8087 -0.6575  0.2660
  986MOL0     C33003   3.003   8.115   4.943  0.0082 -0.3156  0.3632
  986MOL0     C33004   3.087   7.924   4.785  0.1380 -0.4445 -0.3764
  986MOL0     C33005   2.984   7.830   4.832 -0.3342 -0.5547 -0.2302
  986MOL0     O33006   2.931   7.843   4.956 -0.6675 -0.9143 -0.5597
  986MOL0     C33007   2.816   7.781   4.982  0.6245 -0.0188 -0.1052
  986MOL0     C33008   2.815   7.640   4.991  1.0579 -0.5501  0.9938
  986MOL0     C33009   2.691   7.576   4.994 -0.9092 -0.0414 -0.4241
  986MOL0     C33010   2.569   7.635   4.972 -0.7820  0.4709  0.3290
  986MOL0     O33011   2.454   7.554   4.971  0.1809 -0.3694 -0.2968
  986MOL0     C33012   2.326   7.606   4.940 -1.0201 -0.8031 -0.2150
  986MOL0     C33013   2.264   7.509   4.840 -0.1891  0.1503  0.4564
  986MOL0     C33014   2.115   7.543   4.794  0.2792  0.1261  0.1845
  986MOL0     C33015   2.022   7.600   4.897 -0.2635  0.1643  0.4372
  986MOL0     C33016   1.882   7.653   4.846 -0.2286 -0.5176  0.2790
  986MOL0     C33017   1.789   7.540   4.799 -0.0711 -0.1467  0.4905
  986MOL0     C33018   1.641   7.558   4.844 -0.7445  0.3095  0.3435
  986MOL0     C33019   1.544   7.447   4.804 -0.1430 -0.0572 -0.0159
  986MOL0    Cl33020   1.523   7.426   4.626  0.0402 -0.4504  0.1548
  986MOL0     C33021   2.581   7.779   4.972  0.0972  0.6493 -0.7035
  986MOL0     C33022   2.700   7.852   4.967  0.6323  0.4474  0.1809
  986MOL0     O33023   2.960   7.741   4.748 -0.1477 -0.9121  0.0989
  986MOL0     C33024   3.195   7.878   4.699  0.0851 -0.7739 -0.2412
  986MOL0     C33025   3.309   7.966   4.672  0.6794  0.4688  0.2238
  986MOL0     N33026   3.921   8.239   4.906 -0.3857  0.3071 -0.1492
  986MOL0     N33027   3.863   8.276   5.012 -0.6606  0.8149  0.1439
  986MOL0     C33028   3.052   7.455   5.320 -0.3385 -0.2035  0.5388
  986MOL0     C33029   2.991   7.349   5.390 -0.0806 -0.0849  0.2232
  986MOL0     C33030   2.849   7.096   5.722 -0.2773  0.6997  0.1847
  986MOL0     C33031   2.722   7.028   5.733  0.1832 -0.5620 -0.9431
  986MOL0     C33032   2.675   6.990   5.859 -0.0674 -0.6229 -0.5116
  986MOL0     C33033   2.750   6.991   5.971  0.5722 -0.4873  0.8361
  986MOL0     O33034   2.693   6.943   6.089 -0.1021  0.2703  0.0214
  986MOL0     C33035   2.792   6.903   6.189 -0.4552  0.3950  0.5536
  986MOL0     C33036   2.726   6.800   6.294  0.7825 -0.1225 -0.5833
  986MOL0     C33037   2.678   6.672   6.222 -0.0466  0.6226 -1.1671
  986MOL0     C33038   2.654   6.572   6.331 -0.2208  0.4246 -0.3074
  986MOL0     C33039   2.579   6.462   6.274  0.7071 -0.1471  0.5028
  986MOL0     C33040   2.527   6.374   6.204  0.3615  0.1637  0.5888
  986MOL0     C33041   2.878   7.058   5.963  0.1180 -1.0125 -0.2559
  986MOL0     C33042   2.924   7.106   5.841 -0.3810 -0.5138 -0.8245
  986MOL0     H33043   3.234   7.311   5.623 -0.2803 -0.3293 -0.3749
  986MOL0     H33044   3.363   7.444   5.459 -0.3339  0.8708  0.8062
  986MOL0     H33045   3.157   7.591   5.093  0.9152 -1.9967  1.2744
  986MOL0     H33046   3.132   7.732   5.212  1.2608  0.2021  4.3468
  986MOL0     H33047   3.390   7.683   5.061 -0.3826  0.6653 -1.2173
  986MOL0     H33048   3.268   7.802   5.014 -0.9159  0.0363  0.5365
  986MOL0     H33049   3.387   7.802   5.287  2.5232 -2.0363 -0.2277
  986MOL0     H33050   3.474   7.869   5.150  0.5204  0.6292  0.6484
  986MOL0     H33051   3.276   8.023   5.088 -2.6125  0.6002  0.6320
  986MOL0     H33052   3.190   7.952   5.216  0.9562  0.0579  4.0964
  986MOL0     H33053   3.305   8.100   5.372  0.4859  0.5835  1.0663
  986MOL0     H33054   3.454   8.043   5.299 -0.4697 -0.4829  1.2513
  986MOL0     H33055   3.279   8.245   5.166 -1.0714 -0.9822  0.1766
  986MOL0     H33056   3.403   8.304   5.276 -0.2707  2.4823 -1.9263
  986MOL0     H33057   3.464   8.157   5.019  0.9297  1.5270 -0.5127
  986MOL0     H33058   3.465   8.329   5.034  1.2743 -1.4845 -1.8567
  986MOL0     H33059   3.641   8.153   5.191 -0.8177  1.7801  0.8388
  986MOL0     H33060   3.658   8.330   5.181 -1.2013  0.1405  0.9690
  986MOL0     H33061   3.622   8.103   4.879 -1.3906  2.1322  0.1744
  986MOL0     H33062   3.942   8.123   4.672  0.1512 -0.8214  0.4187
  986MOL0     H33063   3.785   8.031   4.670 -1.1024 -0.8717  1.2999
  986MOL0     H33064   3.787   8.189   4.509  2.9984 -2.8901  0.9670
  986MOL0     H33065   3.821   8.319   4.630 -0.2270  0.4442  0.1411
  986MOL0     H33066   3.614   8.340   4.556  1.4572 -2.8189 -2.3914
  986MOL0     H33067   3.608   8.319   4.728 -2.2841 -0.8686 -1.0987
  986MOL0     H33068   3.564   8.043   4.658 -0.3456 -0.9938 -5.0266
  986MOL0     H33069   3.495   8.137   4.522  1.2082  1.5269 -1.0809
  986MOL0     H33070   3.213   8.229   4.857  1.3034  0.1099 -1.9916
  986MOL0     H33071   3.016   8.222   4.964  0.5913 -0.6951  2.0743
  986MOL0     H33072   2.898   8.100   4.915 -0.2334 -2.1368  2.0446
  986MOL0     H33073   3.007   8.064   5.039 -1.6042 -0.2556  0.5026
  986MOL0     H33074   2.897   7.569   4.998  0.8274 -0.9827 -0.3807
  986MOL0     H33075   2.688   7.468   5.011  0.7410 -0.1641 -0.7223
  986MOL0     H33076   2.266   7.623   5.029 -2.2663 -2.0228 -0.7769
  986MOL0     H33077   2.335   7.695   4.877  0.4577 -1.0864 -0.4530
  986MOL0     H33078   2.326   7.499   4.750 -0.0740 -1.1033  0.6544
  986MOL0     H33079   2.262   7.414   4.894  2.2546  0.0999  0.6013
  986MOL0     H33080   2.058   7.462   4.748 -3.3988  2.2334  0.5815
  986MOL0     H33081   2.140   7.616   4.716  0.5038  1.1376  1.1739
  986MOL0     H33082   2.007   7.529   4.979  0.8196 -1.6123 -0.8196
  986MOL0     H33083   2.071   7.689   4.937 -0.1711 -0.5650  2.0235
  986MOL0     H33084   1.897   7.731   4.771  3.0536  0.3112  1.5995
  986MOL0     H33085   1.842   7.703   4.935  0.2698  1.6369 -0.6455
  986MOL0     H33086   1.793   7.528   4.690  0.8336  1.3429  0.3245
  986MOL0     H33087   1.823   7.453   4.855 -0.5254  0.5486  1.8913
  986MOL0     H33088   1.607   7.655   4.809  1.6690  0.6103 -1.4581
  986MOL0     H33089   1.637   7.568   4.953 -0.2649  2.2010  0.2219
  986MOL0     H33090   1.450   7.472   4.855 -0.9368 -0.9684 -0.9790
  986MOL0     H33091   1.566   7.353   4.856 -3.5852  0.2362  2.3100
  986MOL0     H33092   2.486   7.831   4.965 -1.4389 -1.9667 -0.8739
  986MOL0     H33093   2.704   7.961   4.971  0.3928  0.7068 -3.3653
  986MOL0     H33094   3.193   7.783   4.647  0.4873  0.7024 -3.1194
  986MOL0     H33095   3.391   7.926   4.613  0.6143  1.7376 -0.7692
  986MOL0     H33096   2.982   7.498   5.250 -0.5667 -0.6412  0.4928
  986MOL0     H33097   2.888   7.318   5.375 -0.8470  2.2125  0.2452
  986MOL0     H33098   2.661   7.015   5.645 -0.3639  1.1504 -0.8476
  986MOL0     H33099   2.580   6.938   5.851 -0.3854 -0.1537  0.1018
  986MOL0     H33100   2.876   6.845   6.149  1.2641  2.1102  1.4866
  986MOL0     H33101   2.842   6.992   6.228 -0.2148  1.6214 -2.2669
  986MOL0     H33102   2.639   6.856   6.330  1.4472  0.8035 -0.3987
  986MOL0     H33103   2.802   6.767   6.366  3.7470 -0.2966 -3.5547
  986MOL0     H33104   2.743   6.619   6.152 -2.4072 -2.7842 -1.0554
  986MOL0     H33105   2.582   6.690   6.172 -2.1862 -2.2243  1.5182
  986MOL0     H33106   2.605   6.612   6.420 -0.1839 -1.5387  0.6511
  986MOL0     H33107   2.744   6.532   6.379  0.0031 -1.4779 -2.1844
  986MOL0     H33108   2.477   6.302   6.142 -0.6167  0.3993  1.0690
  986MOL0     H33109   2.935   7.083   6.051  2.0117  0.3050 -1.7820
  986MOL0     H33110   3.009   7.174   5.839  0.0681 -0.8323  2.3973
  987MOL0     O33111   3.403  11.163   5.651 -0.2890  0.0762  0.7547
  987MOL0     C33112   3.422  11.280   5.683  0.1221 -0.3613  0.4966
  987MOL0     O33113   3.324  11.366   5.723  0.2013 -0.4844 -0.1566
  987MOL0     C33114   3.199  11.321   5.759  0.3178  0.0665  0.7863
  987MOL0     C33115   3.135  11.197   5.731 -0.3915  0.0651 -0.2676
  987MOL0     C33116   3.005  11.177   5.788 -0.6846 -0.3263 -0.0634
  987MOL0     C33117   2.951  11.266   5.876  0.5040 -1.7482  0.3333
  987MOL0     O33118   2.840  11.242   5.952  0.3900 -0.4016  0.1395
  987MOL0     C33119   2.746  11.134   5.956  0.5106 -0.5933 -0.2270
  987MOL0     C33120   2.662  11.151   6.077  0.5143 -0.0346  0.2653
  987MOL0     C33121   2.571  11.279   6.050 -0.1450 -0.2201  0.7820
  987MOL0     C33122   2.430  11.265   6.117  0.3361  0.1479  0.2731
  987MOL0     C33123   2.340  11.389   6.091  0.2414  0.4526  0.0407
  987MOL0     C33124   2.356  11.493   6.202  0.5157 -0.2575 -0.1593
  987MOL0     C33125   2.296  11.631   6.167 -0.0264 -0.4756 -0.1513
  987MOL0     C33126   2.325  11.713   6.303 -0.2353 -0.0877  0.4510
  987MOL0     N33127   2.290  11.851   6.272 -0.3015  0.3428 -0.9694
  987MOL0     C33128   2.367  11.937   6.194  0.6233 -1.1272 -0.5654
  987MOL0     C33129   2.284  12.038   6.148  0.9331  0.0181 -0.7426
  987MOL0     C33130   2.315  12.163   6.058 -0.2991 -0.0660 -0.8698
  987MOL0     C33131   2.352  12.289   6.147  0.4936  0.7009  0.1505
  987MOL0     C33132   2.221  12.376   6.158 -0.2878 -0.0063  0.3301
  987MOL0     C33133   2.238  12.484   6.258 -0.6456 -0.7039 -0.6985
  987MOL0     O33134   2.178  12.433   6.374  0.1946  0.3156  0.5093
  987MOL0     C33135   2.156  12.512   6.483 -0.8289  0.4330  0.1159
  987MOL0     C33136   2.070  12.460   6.575 -0.0864  0.7475 -0.6436
  987MOL0     C33137   2.019  12.543   6.681 -0.5464  2.2936 -0.8974
  987MOL0     C33138   1.914  12.489   6.781  0.1704 -0.8318 -0.0155
  987MOL0     C33139   2.067  12.671   6.692  0.3037 -0.2254  0.2676
  987MOL0     C33140   2.014  12.774   6.789 -0.4709 -0.3628 -0.5465
  987MOL0     O33141   2.035  12.911   6.762 -0.6905  0.3385  0.5216
  987MOL0     C33142   1.966  13.008   6.827 -0.2000 -0.2403 -0.1279
  987MOL0     C33143   1.832  12.986   6.862  0.3535 -0.3226 -0.7426
  987MOL0     C33144   1.764  13.099   6.928 -0.0299 -0.3017  0.0400
  987MOL0     C33145   1.824  13.226   6.934 -0.7090 -0.0804 -0.8628
  987MOL0     O33146   1.773  13.339   6.987  0.3807 -0.3451  0.1811
  987MOL0     C33147   1.636  13.345   7.016 -0.0569 -0.1640  1.1071
  987MOL0     C33148   1.594  13.474   7.083 -0.7974 -0.6614 -0.5036
  987MOL0     C33149   1.446  13.500   7.097 -0.6820 -0.3756 -0.0564
  987MOL0     C33150   1.407  13.573   7.232 -0.5672  0.0472 -0.9145
  987MOL0     C33151   1.266  13.617   7.222  0.7321 -0.3500  0.7140
  987MOL0     C33152   1.226  13.699   7.352 -0.1110 -0.2044  0.5069
  987MOL0     C33153   1.073  13.725   7.348  0.4274 -0.3047 -0.2983
  987MOL0     C33154   1.015  13.791   7.472  0.1248  0.3203 -0.4985
  987MOL0    Cl33155   1.050  13.687   7.607  0.4833  0.3664 -0.3845
  987MOL0     C33156   1.956  13.242   6.886  0.6558 -0.2936  0.1092
  987MOL0     C33157   2.026  13.137   6.836  0.3076  0.2451  0.2739
  987MOL0     O33158   1.977  12.744   6.902  0.8621  0.0974  1.2768
  987MOL0     C33159   2.159  12.722   6.594 -0.1087 -0.2568 -1.3148
  987MOL0     C33160   2.209  12.637   6.500 -0.5111  0.2421 -0.4557
  987MOL0     N33161   2.160  12.011   6.207 -0.1289 -1.1683  0.1365
  987MOL0     N33162   2.168  11.902   6.274  0.8248 -0.2145  0.3485
  987MOL0     C33163   3.012  11.391   5.887  0.3816 -0.0978  0.2295
  987MOL0     C33164   3.134  11.413   5.835 -0.2964  0.1517  0.5782
  987MOL0     C33165   3.549  11.350   5.664 -0.2775 -0.2968  0.0934
  987MOL0     C33166   3.559  11.491   5.678  0.5814  1.1765  1.1074
  987MOL0     C33167   3.681  11.543   5.664  0.7560 -0.2124 -0.5701
  987MOL0     C33168   3.792  11.468   5.616  0.3529 -0.0400 -0.1810
  987MOL0     O33169   3.914  11.519   5.585  1.1989 -0.2572  0.5880
  987MOL0     C33170   3.956  11.641   5.648  0.2773 -0.1940  0.3429
  987MOL0     C33171   4.080  11.687   5.576  0.4061  0.4643  1.0527
  987MOL0     C33172   4.217  11.623   5.622  0.3934  0.5189 -0.1198
  987MOL0     C33173   4.333  11.702   5.560 -0.3773  0.5217 -1.1388
  987MOL0     C33174   4.442  11.691   5.652  0.4747 -0.5724 -1.1109
  987MOL0     C33175   4.519  11.701   5.738 -0.3469  0.0086  0.7395
  987MOL0     C33176   3.774  11.336   5.604 -1.3560  0.0578  0.1022
  987MOL0     C33177   3.655  11.274   5.632 -0.6804  0.2393  0.2759
  987MOL0     H33178   3.174  11.111   5.678 -3.4494 -0.9652 -1.0864
  987MOL0     H33179   2.950  11.085   5.769 -5.3328  1.2483  3.6511
  987MOL0     H33180   2.688  11.135   5.863 -0.7487  2.6457  0.4580
  987MOL0     H33181   2.797  11.037   5.950 -1.6804 -1.7744 -4.6322
  987MOL0     H33182   2.592  11.067   6.070  2.4512 -1.7662  0.6843
  987MOL0     H33183   2.729  11.145   6.163 -1.0125 -1.3076  1.4516
  987MOL0     H33184   2.609  11.374   6.088 -0.8061  0.8771 -1.1472
  987MOL0     H33185   2.544  11.299   5.946 -1.5992  1.1668  1.3891
  987MOL0     H33186   2.377  11.192   6.055  0.1421  2.0643 -1.9481
  987MOL0     H33187   2.432  11.241   6.224 -1.0979  0.9353  0.5057
  987MOL0     H33188   2.339  11.427   5.989 -1.3281  1.0541  0.2403
  987MOL0     H33189   2.243  11.337   6.095  0.8080 -0.5871  0.8720
  987MOL0     H33190   2.311  11.445   6.290  1.2402  0.4458  0.6036
  987MOL0     H33191   2.461  11.508   6.227  0.3862  1.0573 -0.3637
  987MOL0     H33192   2.339  11.679   6.079  0.9602  0.2321  0.6998
  987MOL0     H33193   2.188  11.618   6.158 -0.4808  1.6306  1.4535
  987MOL0     H33194   2.428  11.702   6.339 -0.3918 -1.6413  0.5073
  987MOL0     H33195   2.271  11.678   6.391  2.5744 -0.7249  2.0435
  987MOL0     H33196   2.471  11.935   6.162  0.7654 -1.6384 -0.0874
  987MOL0     H33197   2.406  12.145   6.001  1.8429  3.3175  1.1462
  987MOL0     H33198   2.227  12.188   5.998 -0.8911 -0.5214 -0.2104
  987MOL0     H33199   2.437  12.348   6.111  2.0233  1.5139  4.4949
  987MOL0     H33200   2.382  12.251   6.245  0.3932  0.1275 -0.0330
  987MOL0     H33201   2.138  12.313   6.190  0.3685 -2.0745 -1.8224
  987MOL0     H33202   2.196  12.423   6.062  0.3081  0.7472  0.5297
  987MOL0     H33203   2.183  12.572   6.224 -1.8650 -0.7390  1.0469
  987MOL0     H33204   2.342  12.513   6.274 -0.6948  0.7162 -2.6842
  987MOL0     H33205   2.017  12.365   6.572 -0.7109  1.0873 -0.4872
  987MOL0     H33206   1.957  12.483   6.881  0.1357  0.9708  0.1434
  987MOL0     H33207   1.842  12.571   6.789  0.9948 -0.2620  2.4866
  987MOL0     H33208   1.858  12.402   6.746 -4.4928  0.5518  3.0714
  987MOL0     H33209   1.781  12.891   6.855  0.2246 -0.3080 -0.0168
  987MOL0     H33210   1.667  13.071   6.968 -0.7924  0.7137 -1.0446
  987MOL0     H33211   1.580  13.346   6.922 -1.6198  0.4918  2.0067
  987MOL0     H33212   1.603  13.259   7.075  0.9095 -0.4281  1.2671
  987MOL0     H33213   1.634  13.482   7.185  0.5566 -1.0548 -0.9937
  987MOL0     H33214   1.640  13.545   7.015 -0.0980  0.4703  1.0829
  987MOL0     H33215   1.404  13.399   7.097  2.0157 -1.7855  4.5244
  987MOL0     H33216   1.410  13.557   7.011  2.2969 -0.1800 -1.2806
  987MOL0     H33217   1.412  13.499   7.312  0.2510 -0.7546 -1.6640
  987MOL0     H33218   1.485  13.648   7.246 -0.5880  0.0964 -1.0635
  987MOL0     H33219   1.191  13.542   7.193 -0.2802  0.2851  1.5865
  987MOL0     H33220   1.258  13.685   7.137  1.4356 -2.3620 -1.0596
  987MOL0     H33221   1.242  13.634   7.439 -2.7599 -2.1484 -0.3066
  987MOL0     H33222   1.273  13.798   7.357  0.3293 -0.4728  2.3604
  987MOL0     H33223   1.009  13.636   7.337  1.5361 -1.0275 -1.2118
  987MOL0     H33224   1.055  13.789   7.261 -2.2629 -2.6106 -1.6242
  987MOL0     H33225   0.909  13.814   7.481  0.9216  4.0232  1.3308
  987MOL0     H33226   1.055  13.892   7.485  0.2798  0.9705 -4.5884
  987MOL0     H33227   2.003  13.339   6.896 -0.7686  0.4717 -0.3876
  987MOL0     H33228   2.129  13.148   6.803  0.1690  1.8833  0.3069
  987MOL0     H33229   2.214  12.815   6.600 -0.4960 -0.1021  1.0027
  987MOL0     H33230   2.283  12.667   6.426  0.1220 -0.0105  0.0592
  987MOL0     H33231   2.962  11.462   5.953  0.9492 -2.1893  3.1198
  987MOL0     H33232   3.182  11.506   5.863 -1.5829  1.3687 -1.0241
  987MOL0     H33233   3.466  11.547   5.686  0.4153  1.5699 -2.1568
  987MOL0     H33234   3.684  11.648   5.689  1.2481 -0.7293  1.7968
  987MOL0     H33235   3.876  11.715   5.657 -2.0784 -2.4372 -0.7913
  987MOL0     H33236   3.980  11.614   5.751 -0.3615 -1.0569  0.2760
  987MOL0     H33237   4.088  11.796   5.590 -1.4133  0.8404 -0.4065
  987MOL0     H33238   4.066  11.657   5.472 -0.4180  1.3684  0.8852
  987MOL0     H33239   4.219  11.517   5.596  0.9274  0.5671 -0.2824
  987MOL0     H33240   4.217  11.614   5.731 -3.4304 -1.8734 -0.1403
  987MOL0     H33241   4.319  11.810   5.549 -0.7469  0.5701 -0.2749
  987MOL0     H33242   4.357  11.662   5.461 -1.2549  0.9498 -1.5297
  987MOL0     H33243   4.584  11.688   5.823  3.0172  1.3293 -1.4345
  987MOL0     H33244   3.857  11.277   5.569 -1.4468 -0.2345  0.3719
  987MOL0     H33245   3.642  11.167   5.620  3.2196 -0.7242  2.8922
  988MOL0     O33246   2.640   5.159   5.680  0.2477  0.5852 -0.5951
  988MOL0     C33247   2.669   5.195   5.793 -0.6776  0.0316  0.1281
  988MOL0     O33248   2.636   5.125   5.902  0.7904 -0.5333  0.4190
  988MOL0     C33249   2.564   5.007   5.891  0.8828 -0.0808 -0.2432
  988MOL0     C33250   2.633   4.894   5.931  0.6611  0.4731 -0.2334
  988MOL0     C33251   2.566   4.771   5.942  0.3189 -0.0560  0.1937
  988MOL0     C33252   2.440   4.759   5.900  1.0131  0.4215 -0.8920
  988MOL0     O33253   2.389   4.630   5.911 -0.4559  0.2664 -0.8565
  988MOL0     C33254   2.280   4.591   5.826 -0.4470  0.0083 -0.6427
  988MOL0     C33255   2.266   4.439   5.857 -0.1492  0.8530 -0.1928
  988MOL0     C33256   2.155   4.373   5.784  0.4169 -0.4261 -0.9504
  988MOL0     C33257   2.135   4.227   5.823  0.0836  0.4478 -0.3876
  988MOL0     C33258   2.022   4.165   5.746  0.6253  0.3070 -0.3597
  988MOL0     C33259   1.884   4.199   5.812 -0.1896 -0.0224  0.4329
  988MOL0     C33260   1.748   4.169   5.737 -0.6503 -0.1007  0.7713
  988MOL0     C33261   1.759   4.129   5.596  1.1175 -0.2052  0.6006
  988MOL0     N33262   1.627   4.079   5.556  1.0499  1.2697 -1.4321
  988MOL0     C33263   1.569   3.965   5.602  0.5741 -0.9172 -0.1634
  988MOL0     C33264   1.439   3.967   5.558 -0.5538  0.1199 -0.7862
  988MOL0     C33265   1.330   3.866   5.575 -0.1309  0.4705 -0.1044
  988MOL0     C33266   1.292   3.855   5.716  0.0045  0.0541 -1.1353
  988MOL0     C33267   1.243   3.992   5.776 -0.3057 -0.4605 -0.5058
  988MOL0     C33268   1.211   3.992   5.921  0.2738  1.0700 -0.7423
  988MOL0     O33269   1.311   3.938   6.009 -0.3244  0.0636 -0.0515
  988MOL0     C33270   1.425   4.021   6.036 -1.1976  0.3909 -0.0013
  988MOL0     C33271   1.424   4.158   5.991  0.0003 -0.3055 -0.4083
  988MOL0     C33272   1.517   4.260   6.047  1.2304 -0.7681 -0.1244
  988MOL0     C33273   1.492   4.397   5.992 -0.0345 -0.2218  0.2492
  988MOL0     C33274   1.630   4.211   6.125  0.6018 -0.1321 -0.3512
  988MOL0     C33275   1.756   4.299   6.157  0.3435  0.0122 -1.1797
  988MOL0     O33276   1.869   4.231   6.203 -0.5999  0.0044  0.5054
  988MOL0     C33277   1.971   4.318   6.236  1.3590 -0.2675  0.0201
  988MOL0     C33278   2.022   4.400   6.134  0.2627 -1.9573  0.1945
  988MOL0     C33279   2.127   4.487   6.168  0.3900  0.6765  0.4243
  988MOL0     C33280   2.181   4.487   6.303 -0.2768  0.5507 -0.4174
  988MOL0     O33281   2.282   4.577   6.336  0.3613  0.4468 -0.1494
  988MOL0     C33282   2.380   4.619   6.240 -0.5866  0.1616 -0.8200
  988MOL0     C33283   2.497   4.710   6.274 -0.4276  0.0155 -0.3175
  988MOL0     C33284   2.470   4.804   6.378  0.7497  0.0307 -0.4687
  988MOL0     C33285   2.592   4.898   6.411 -0.1767 -0.1201 -0.2105
  988MOL0     C33286   2.605   5.021   6.325  0.3708 -0.5582  0.0407
  988MOL0     C33287   2.495   5.122   6.347 -0.3204 -0.0969  0.4645
  988MOL0     C33288   2.485   5.225   6.237 -0.7245 -0.2775 -0.5856
  988MOL0     C33289   2.375   5.330   6.269 -1.2746 -0.7483 -0.1637
  988MOL0    Cl33290   2.211   5.256   6.231 -0.2508 -0.4655  0.1634
  988MOL0     C33291   2.127   4.415   6.409  0.2045 -0.4838 -0.0644
  988MOL0     C33292   2.009   4.335   6.373 -0.0913 -0.2238  0.5127
  988MOL0     O33293   1.741   4.416   6.154  0.5010  0.0133 -0.3020
  988MOL0     C33294   1.642   4.067   6.135 -0.0195 -0.0857  0.6106
  988MOL0     C33295   1.541   3.979   6.106  0.4346 -0.4416 -0.6370
  988MOL0     N33296   1.424   4.072   5.479  0.0727 -0.7388  0.2138
  988MOL0     N33297   1.535   4.144   5.474 -0.5091  0.0623  0.0900
  988MOL0     C33298   2.367   4.879   5.857  0.2352  0.1690  1.4881
  988MOL0     C33299   2.433   5.003   5.857 -0.4705 -0.0686 -0.0967
  988MOL0     C33300   2.740   5.327   5.810 -0.1943  0.1181  0.1910
  988MOL0     C33301   2.779   5.356   5.939 -0.2784 -0.7363 -0.1952
  988MOL0     C33302   2.834   5.482   5.960 -0.0315  0.2391  0.2866
  988MOL0     C33303   2.823   5.583   5.858 -0.5680 -0.4960 -0.6723
  988MOL0     O33304   2.866   5.712   5.891 -0.0423 -0.4756 -0.4304
  988MOL0     C33305   2.996   5.731   5.935 -0.4960 -0.1830 -0.2736
  988MOL0     C33306   3.107   5.702   5.828  1.0876 -0.1485 -0.6526
  988MOL0     C33307   3.245   5.711   5.897  0.4318 -0.7464 -0.2835
  988MOL0     C33308   3.379   5.690   5.813  1.1609  0.0572 -0.4947
  988MOL0     C33309   3.374   5.557   5.761 -0.2516 -0.2277  0.2564
  988MOL0     C33310   3.365   5.445   5.726  0.3810  0.2596  0.3980
  988MOL0     C33311   2.794   5.551   5.731  0.7141  0.3569  0.0622
  988MOL0     C33312   2.754   5.424   5.706 -1.7426 -0.2264 -1.1205
  988MOL0     H33313   2.738   4.891   5.956  0.1793 -1.7073  1.8779
  988MOL0     H33314   2.626   4.682   5.960 -1.3864 -2.1381 -3.2747
  988MOL0     H33315   2.188   4.650   5.824 -0.2598  0.2844 -1.4846
  988MOL0     H33316   2.321   4.603   5.726  1.3209 -1.4636 -0.1572
  988MOL0     H33317   2.361   4.396   5.824  1.3731  2.5608  1.6945
  988MOL0     H33318   2.262   4.408   5.962  0.7954 -2.0940 -0.9325
  988MOL0     H33319   2.062   4.429   5.799  0.9953 -0.0128  1.6342
  988MOL0     H33320   2.184   4.382   5.679 -0.2008 -1.2395 -1.1961
  988MOL0     H33321   2.227   4.170   5.809 -0.0809  0.6725 -2.6772
  988MOL0     H33322   2.120   4.217   5.931  4.8668  4.7246  1.1028
  988MOL0     H33323   2.023   4.191   5.640  0.2003 -1.7254 -0.9109
  988MOL0     H33324   2.026   4.056   5.755 -2.0262  0.0621 -1.1673
  988MOL0     H33325   1.885   4.156   5.913  2.3683  3.3601  2.0410
  988MOL0     H33326   1.874   4.307   5.828 -2.1269 -0.6178  4.2647
  988MOL0     H33327   1.705   4.089   5.797  2.9270 -1.9891  1.1074
  988MOL0     H33328   1.687   4.259   5.749  0.6694  0.9779 -0.2656
  988MOL0     H33329   1.833   4.051   5.574  1.2693  0.3981 -1.2148
  988MOL0     H33330   1.769   4.212   5.525  0.4773  2.3209  3.3129
  988MOL0     H33331   1.606   3.879   5.657  0.9284 -1.1138 -0.6961
  988MOL0     H33332   1.250   3.903   5.509  2.7446 -1.3144 -5.1176
  988MOL0     H33333   1.363   3.775   5.525 -1.1845  2.3137 -4.6152
  988MOL0     H33334   1.374   3.809   5.772 -2.0410 -0.5938  1.6044
  988MOL0     H33335   1.197   3.800   5.717 -0.7150  1.2341 -1.2661
  988MOL0     H33336   1.155   4.030   5.723 -1.8358 -3.4165 -0.3327
  988MOL0     H33337   1.328   4.060   5.769  1.9026 -3.0002 -0.1656
  988MOL0     H33338   1.130   3.918   5.922  0.8247  0.4080 -2.0494
  988MOL0     H33339   1.159   4.080   5.959  1.4480  0.7762  1.7397
  988MOL0     H33340   1.352   4.203   5.924 -0.6379 -1.1979 -0.3435
  988MOL0     H33341   1.548   4.471   6.048 -1.6752  0.2026  1.4172
  988MOL0     H33342   1.509   4.390   5.884  1.6599 -0.5331  0.5176
  988MOL0     H33343   1.390   4.423   6.024  0.7131  0.4942  2.1987
  988MOL0     H33344   1.978   4.391   6.035 -1.6596  0.1385  0.7783
  988MOL0     H33345   2.166   4.552   6.091 -0.0999 -0.8594 -1.1969
  988MOL0     H33346   2.434   4.541   6.185  1.4834  0.8538  0.1236
  988MOL0     H33347   2.322   4.685   6.175  0.3646  3.7690  1.6640
  988MOL0     H33348   2.586   4.655   6.304 -0.7015 -2.2105 -3.0855
  988MOL0     H33349   2.526   4.764   6.183 -0.1393  0.1432 -0.1472
  988MOL0     H33350   2.443   4.755   6.472 -0.5639 -0.4273 -1.0606
  988MOL0     H33351   2.380   4.860   6.351  1.0556  0.6319 -0.2661
  988MOL0     H33352   2.580   4.930   6.515 -2.2437 -3.0539  0.5587
  988MOL0     H33353   2.688   4.846   6.409 -0.3834 -0.6074 -3.7146
  988MOL0     H33354   2.595   4.973   6.227  3.3523  1.8010 -1.5637
  988MOL0     H33355   2.704   5.064   6.337  1.0192 -1.9609 -0.0338
  988MOL0     H33356   2.401   5.067   6.347  0.8974 -2.2764  0.0327
  988MOL0     H33357   2.503   5.175   6.443 -1.9432 -1.0284  1.1529
  988MOL0     H33358   2.459   5.180   6.141  1.1315  1.3025 -1.9434
  988MOL0     H33359   2.588   5.264   6.233 -0.0440 -1.9105  0.3300
  988MOL0     H33360   2.386   5.417   6.203 -0.3451 -0.2853  0.5690
  988MOL0     H33361   2.393   5.364   6.371  3.7542 -1.3743 -0.6092
  988MOL0     H33362   2.161   4.436   6.510 -2.2504  1.2190  0.5067
  988MOL0     H33363   1.950   4.280   6.445  1.1365  0.1103  1.8290
  988MOL0     H33364   1.731   4.022   6.177  0.1442  0.4727  0.8835
  988MOL0     H33365   1.544   3.873   6.127  0.5926 -0.2682  0.2833
  988MOL0     H33366   2.266   4.886   5.819  0.7950 -3.9108 -1.5184
  988MOL0     H33367   2.390   5.102   5.846  2.0455  1.1628  0.4446
  988MOL0     H33368   2.777   5.290   6.025 -2.5945  2.2441  2.2464
  988MOL0     H33369   2.867   5.511   6.059 -1.8948  0.8865  0.7524
  988MOL0     H33370   3.005   5.839   5.954 -2.7040  0.8931 -4.1764
  988MOL0     H33371   3.017   5.679   6.029 -0.0222 -1.0048 -0.8301
  988MOL0     H33372   3.091   5.779   5.751 -0.7025 -0.7995 -0.9906
  988MOL0     H33373   3.083   5.604   5.786  1.0087 -0.4523  0.0929
  988MOL0     H33374   3.237   5.648   5.986 -0.4263  1.2773  1.1478
  988MOL0     H33375   3.273   5.811   5.932  1.9381 -0.2684 -2.6748
  988MOL0     H33376   3.456   5.706   5.889  0.2398 -0.9349  0.7018
  988MOL0     H33377   3.390   5.759   5.729 -4.2752  1.4424 -0.4297
  988MOL0     H33378   3.354   5.343   5.695  0.3635  0.2600  0.4034
  988MOL0     H33379   2.772   5.621   5.651 -2.3677  0.6108  1.0123
  988MOL0     H33380   2.721   5.405   5.604 -1.4954  2.9890 -1.9380
  989MOL0     O33381   5.176   5.296   9.836  0.1680 -0.0122  0.1823
  989MOL0     C33382   5.163   5.420   9.850 -0.5484 -0.1198 -0.3453
  989MOL0     O33383   5.060   5.481   9.918 -0.0604 -0.1472  0.0846
  989MOL0     C33384   5.011   5.413  10.021  0.6000 -0.7736 -1.0211
  989MOL0     C33385   4.872   5.370  10.012 -0.3352 -0.1997  0.5624
  989MOL0     C33386   4.816   5.292  10.115  0.2737 -0.0510 -0.6386
  989MOL0     C33387   4.891   5.244  10.224 -0.9008  0.5375  1.4384
  989MOL0     O33388   4.831   5.164  10.317 -0.3046 -0.2899  0.4754
  989MOL0     C33389   4.901   5.074  10.397  0.4915 -0.5355 -0.1941
  989MOL0     C33390   4.800   4.998  10.492 -0.4108 -0.9081  0.2255
  989MOL0     C33391   4.747   5.100  10.602  1.0682  0.2336  0.1497
  989MOL0     C33392   4.645   5.041  10.697 -0.5381  1.1086 -0.8360
  989MOL0     C33393   4.526   5.125  10.739 -0.5068 -0.3828 -0.1696
  989MOL0     C33394   4.412   5.135  10.641  0.4740 -0.8045  0.4040
  989MOL0     C33395   4.303   5.244  10.674 -0.1911 -0.0642  0.3136
  989MOL0     C33396   4.248   5.225  10.815 -0.1234  0.1857  1.2363
  989MOL0     N33397   4.173   5.348  10.853 -0.8235 -1.1272  0.1892
  989MOL0     C33398   4.229   5.469  10.903 -0.5684 -0.5000 -0.5893
  989MOL0     C33399   4.136   5.557  10.889  0.6362  0.5208 -0.7411
  989MOL0     C33400   4.139   5.701  10.906  0.0215 -0.6370  0.5522
  989MOL0     C33401   4.260   5.755  10.823 -0.2624  0.3209  0.1297
  989MOL0     C33402   4.238   5.889  10.743 -0.4888  0.2427 -0.4786
  989MOL0     C33403   4.182   5.995  10.824  0.1925 -0.3412 -0.2061
  989MOL0     O33404   4.280   6.022  10.927 -0.2018 -0.1915 -0.6526
  989MOL0     C33405   4.246   6.093  11.044 -0.0167  0.4464  0.6004
  989MOL0     C33406   4.329   6.075  11.158  0.8449 -0.5076  0.1130
  989MOL0     C33407   4.308   6.154  11.277 -0.7998 -0.1865 -0.4912
  989MOL0     C33408   4.418   6.132  11.400  0.5275 -0.1363  0.2706
  989MOL0     C33409   4.206   6.249  11.285  0.7891 -0.1894  1.1483
  989MOL0     C33410   4.175   6.331  11.405  1.6159  0.0289 -0.2490
  989MOL0     O33411   4.061   6.408  11.409 -0.2600  0.1292  0.0430
  989MOL0     C33412   4.027   6.481  11.520  1.0961 -0.8160  0.2641
  989MOL0     C33413   4.012   6.624  11.504  0.5075 -0.0638  0.0830
  989MOL0     C33414   4.007   6.701  11.618  0.4624 -0.2309  0.5733
  989MOL0     C33415   3.999   6.643  11.751 -0.7560 -0.7699 -0.2679
  989MOL0     O33416   4.002   6.729  11.863  0.7148  0.2972  0.1525
  989MOL0     C33417   3.898   6.818  11.888  0.2757 -0.8934  0.2053
  989MOL0     C33418   3.937   6.902  12.003  0.1917  0.8159  0.6251
  989MOL0     C33419   3.982   7.042  11.964 -0.1647 -0.3668 -0.7162
  989MOL0     C33420   4.040   7.127  12.079  0.6450 -0.0438 -0.4898
  989MOL0     C33421   4.045   7.273  12.035 -0.2868  0.5646  0.4594
  989MOL0     C33422   4.103   7.364  12.138  0.9413  0.0947 -0.5638
  989MOL0     C33423   4.119   7.507  12.094  0.0533 -0.2967  1.1337
  989MOL0     C33424   4.193   7.601  12.190  0.4853  0.1245 -0.4001
  989MOL0    Cl33425   4.189   7.763  12.123 -0.5727 -0.2779 -0.0315
  989MOL0     C33426   4.008   6.501  11.761 -0.1200  0.3873 -0.0719
  989MOL0     C33427   4.021   6.419  11.648 -0.2734  0.1259  1.0594
  989MOL0     O33428   4.246   6.320  11.503  0.7566 -0.4515  0.5291
  989MOL0     C33429   4.118   6.259  11.174 -0.0905 -1.7264 -0.1985
  989MOL0     C33430   4.136   6.180  11.057  0.0612  0.3133  0.8828
  989MOL0     N33431   4.027   5.494  10.846  0.1975  0.0816  0.7229
  989MOL0     N33432   4.048   5.370  10.822 -1.1046 -0.7720  0.2579
  989MOL0     C33433   5.027   5.297  10.240  0.3966 -0.4956  0.6358
  989MOL0     C33434   5.083   5.377  10.139  0.4860  0.4425 -0.1149
  989MOL0     C33435   5.241   5.521   9.770  0.5828 -0.5992 -0.4943
  989MOL0     C33436   5.358   5.488   9.712 -1.0180  0.6440 -0.5263
  989MOL0     C33437   5.429   5.569   9.623  0.0530 -0.1985 -0.6732
  989MOL0     C33438   5.401   5.702   9.611  1.0285 -0.1367 -0.1537
  989MOL0     O33439   5.466   5.799   9.546  0.5137  0.7881 -0.8453
  989MOL0     C33440   5.574   5.776   9.447 -0.8996 -0.9299 -0.5165
  989MOL0     C33441   5.532   5.687   9.331  0.0319  0.2696 -0.2223
  989MOL0     C33442   5.454   5.772   9.220  0.6201 -0.8934 -0.2681
  989MOL0     C33443   5.388   5.699   9.102  0.0167  0.5214 -0.6103
  989MOL0     C33444   5.313   5.583   9.141 -0.8174 -0.7261  0.3578
  989MOL0     C33445   5.255   5.494   9.195 -0.7713 -0.5722  0.0606
  989MOL0     C33446   5.285   5.745   9.679 -0.2048 -1.7281 -0.2919
  989MOL0     C33447   5.207   5.655   9.751 -0.8608 -0.5469 -0.3750
  989MOL0     H33448   4.810   5.392   9.926 -1.3858  0.3573  1.4196
  989MOL0     H33449   4.709   5.281  10.126  0.3702  0.8871  1.8842
  989MOL0     H33450   4.960   5.011  10.329 -0.3425 -3.1889  1.4300
  989MOL0     H33451   4.970   5.141  10.450  1.7746 -1.7634 -0.2547
  989MOL0     H33452   4.717   4.967  10.428  0.1985 -0.2393 -0.9290
  989MOL0     H33453   4.846   4.910  10.536 -0.3502 -0.0854  1.8864
  989MOL0     H33454   4.826   5.144  10.663  1.3706 -0.3163  0.1633
  989MOL0     H33455   4.683   5.175  10.555 -1.8452 -2.8833 -1.3468
  989MOL0     H33456   4.607   4.946  10.659  1.0240 -0.1618  0.6162
  989MOL0     H33457   4.708   5.019  10.783 -0.1671 -0.6694 -1.5054
  989MOL0     H33458   4.489   5.088  10.834 -1.1846 -1.6050 -0.8837
  989MOL0     H33459   4.551   5.229  10.762 -4.0657  0.2822  1.2799
  989MOL0     H33460   4.453   5.156  10.542  0.5548 -3.4256 -0.1934
  989MOL0     H33461   4.365   5.037  10.640 -2.6051  0.5531  0.3796
  989MOL0     H33462   4.354   5.341  10.670  2.8367 -1.3943  2.4740
  989MOL0     H33463   4.233   5.241  10.591  1.1163  1.0320 -0.8896
  989MOL0     H33464   4.315   5.222  10.901 -1.4610  5.5769  2.9187
  989MOL0     H33465   4.182   5.138  10.819  0.1188 -0.1499 -0.8794
  989MOL0     H33466   4.328   5.474  10.946 -1.5964  1.8596  1.7482
  989MOL0     H33467   4.052   5.759  10.872 -0.5855 -1.0118  1.4283
  989MOL0     H33468   4.149   5.733  11.010 -0.9045 -1.4281  0.8962
  989MOL0     H33469   4.296   5.676  10.756  1.7659 -0.5561  2.1173
  989MOL0     H33470   4.335   5.778  10.899 -1.7043  1.7262  1.1810
  989MOL0     H33471   4.165   5.877  10.662 -0.2356  1.0747 -0.8341
  989MOL0     H33472   4.333   5.909  10.693 -0.7140  0.8468 -0.6693
  989MOL0     H33473   4.079   5.983  10.857  0.2066  2.0086  0.8648
  989MOL0     H33474   4.181   6.084  10.760  0.3275  0.4059  0.7992
  989MOL0     H33475   4.420   6.017  11.146  0.3735 -1.2788  0.1422
  989MOL0     H33476   4.496   6.060  11.371 -0.7944 -1.6274  0.2615
  989MOL0     H33477   4.457   6.231  11.423 -2.1334  1.4499 -1.5582
  989MOL0     H33478   4.360   6.099  11.487  0.3739 -0.0132  0.2143
  989MOL0     H33479   4.023   6.668  11.405 -1.2004 -1.6924 -0.9137
  989MOL0     H33480   4.011   6.809  11.616  1.9124 -0.2676 -1.0023
  989MOL0     H33481   3.872   6.892  11.812 -2.4842 -0.5128  1.3993
  989MOL0     H33482   3.804   6.763  11.892 -0.0079 -0.7075 -2.3301
  989MOL0     H33483   3.846   6.911  12.063 -0.7050 -0.6182 -0.4444
  989MOL0     H33484   4.021   6.846  12.044 -0.1981 -0.1336  0.1657
  989MOL0     H33485   3.899   7.102  11.927 -0.1408 -0.2825 -0.6339
  989MOL0     H33486   4.062   7.048  11.889  1.1213  1.5149  0.7136
  989MOL0     H33487   3.968   7.115  12.161  0.2487  0.9056 -0.6860
  989MOL0     H33488   4.134   7.083  12.113  0.1510 -3.4716 -3.0601
  989MOL0     H33489   3.945   7.299  12.000 -0.0096  2.0999  0.7253
  989MOL0     H33490   4.105   7.279  11.944 -0.1447  0.5297  0.5504
  989MOL0     H33491   4.030   7.363  12.219  1.3659 -3.7961 -0.0476
  989MOL0     H33492   4.199   7.326  12.174  0.3739 -3.3366 -2.2509
  989MOL0     H33493   4.020   7.544  12.064  0.4395 -2.1470 -3.1265
  989MOL0     H33494   4.168   7.508  11.997 -1.1813 -2.4204  0.4293
  989MOL0     H33495   4.299   7.573  12.193  1.2117  2.2241 -2.6487
  989MOL0     H33496   4.150   7.600  12.290 -2.7120 -3.8935 -1.5767
  989MOL0     H33497   3.999   6.456  11.860  0.4240 -1.0094 -0.6300
  989MOL0     H33498   4.029   6.312  11.663 -3.6818 -0.6049 -1.1798
  989MOL0     H33499   4.045   6.339  11.188  1.0639 -0.3345 -1.7879
  989MOL0     H33500   4.081   6.186  10.964  2.3135 -1.0521 -0.6065
  989MOL0     H33501   5.082   5.271  10.330  0.7399  1.3044  0.9780
  989MOL0     H33502   5.186   5.412  10.140 -0.4401  3.4048 -0.0255
  989MOL0     H33503   5.401   5.389   9.718  0.5853  1.3544  0.5059
  989MOL0     H33504   5.518   5.530   9.575  1.2733  0.6349  0.8165
  989MOL0     H33505   5.610   5.876   9.422  1.3888 -1.5155  0.1802
  989MOL0     H33506   5.664   5.726   9.484 -0.1637  1.6523  1.4233
  989MOL0     H33507   5.462   5.613   9.370 -1.0848  2.2259  1.6854
  989MOL0     H33508   5.626   5.654   9.286  0.5901  2.3532 -0.7040
  989MOL0     H33509   5.519   5.849   9.176 -2.2929  0.5769 -2.3629
  989MOL0     H33510   5.384   5.835   9.275  1.4552  1.2367 -1.4693
  989MOL0     H33511   5.470   5.671   9.035 -0.6879 -1.9291 -0.5764
  989MOL0     H33512   5.323   5.750   9.031 -1.2930  0.9694  0.8580
  989MOL0     H33513   5.207   5.401   9.220  1.7098 -1.4311  2.0164
  989MOL0     H33514   5.264   5.851   9.667  1.9011 -1.5596 -4.0588
  989MOL0     H33515   5.115   5.683   9.802 -0.2544  0.7342  0.0576
  990MOL0     O33516   0.821   0.037   7.110  0.4189 -0.1457  0.4052
  990MOL0     C33517   0.926  -0.012   7.066  0.3913 -0.5667 -0.9715
  990MOL0     O33518   0.942  -0.141   7.022  0.4156  0.4989 -0.5628
  990MOL0     C33519   0.835  -0.229   7.036 -0.3907 -0.5648 -0.2555
  990MOL0     C33520   0.782  -0.290   6.929  0.6275  0.4709  0.2303
  990MOL0     C33521   0.678  -0.392   6.954  0.0290 -1.1740  0.9240
  990MOL0     C33522   0.632  -0.420   7.084  0.0823 -0.5157 -0.5486
  990MOL0     O33523   0.529  -0.513   7.091  0.2671  0.7327 -0.3971
  990MOL0     C33524   0.471  -0.553   7.221 -1.1566 -0.5802 -0.2791
  990MOL0     C33525   0.372  -0.669   7.205 -0.0308 -0.8240 -1.0967
  990MOL0     C33526   0.291  -0.695   7.330  0.1002  0.9474  0.2548
  990MOL0     C33527   0.172  -0.599   7.342  0.7415 -0.1051  0.1728
  990MOL0     C33528   0.096  -0.617   7.481 -0.0883 -0.3504  0.6570
  990MOL0     C33529  -0.042  -0.568   7.451  0.2669  0.1839  1.9358
  990MOL0     C33530  -0.154  -0.587   7.559 -0.1946 -0.0203  0.5916
  990MOL0     C33531  -0.114  -0.598   7.703  0.1945 -0.4799 -1.1360
  990MOL0     N33532  -0.082  -0.473   7.773 -0.3864  0.5230 -0.4660
  990MOL0     C33533  -0.162  -0.369   7.821 -0.3661  0.6935  0.8751
  990MOL0     C33534  -0.072  -0.278   7.869  0.4340  0.6270  0.0046
  990MOL0     C33535  -0.106  -0.136   7.906 -0.8132 -0.7311  0.1947
  990MOL0     C33536  -0.192  -0.124   8.030  0.3383  0.3787  1.0648
  990MOL0     C33537  -0.270   0.003   8.032  0.2896 -0.0299 -0.1623
  990MOL0     C33538  -0.346   0.008   8.172 -0.2959 -1.3665 -1.3885
  990MOL0     O33539  -0.285   0.096   8.264  0.4260  0.9121 -0.3606
  990MOL0     C33540  -0.284   0.231   8.231  0.2450 -0.2502  0.1457
  990MOL0     C33541  -0.184   0.313   8.287 -1.0937 -0.1169 -0.4997
  990MOL0     C33542  -0.167   0.452   8.263 -0.2332  0.3075 -0.3134
  990MOL0     C33543  -0.057   0.531   8.331  0.8922 -0.4455  0.2235
  990MOL0     C33544  -0.240   0.509   8.161 -0.3049  0.0708  0.6386
  990MOL0     C33545  -0.216   0.635   8.094 -0.1569 -0.4868 -1.0863
  990MOL0     O33546  -0.152   0.736   8.167  1.0631  0.8050 -0.0518
  990MOL0     C33547  -0.089   0.824   8.084 -0.4209  1.1127 -0.2682
  990MOL0     C33548   0.040   0.798   8.045  0.1511  0.1198 -0.2716
  990MOL0     C33549   0.111   0.888   7.960  0.5958  0.1517 -0.1342
  990MOL0     C33550   0.058   1.018   7.935  0.7522 -0.2986  0.3642
  990MOL0     O33551   0.126   1.118   7.871  0.0391 -0.0085 -0.1361
  990MOL0     C33552   0.247   1.094   7.806  0.1536  0.3183 -0.5930
  990MOL0     C33553   0.242   1.198   7.689 -0.7633  0.1057  0.2624
  990MOL0     C33554   0.290   1.337   7.743  0.1148 -0.6739 -0.3902
  990MOL0     C33555   0.196   1.404   7.843  0.5117 -0.2989 -0.9017
  990MOL0     C33556   0.260   1.538   7.868 -0.1268 -0.0849  0.2586
  990MOL0     C33557   0.204   1.652   7.779  0.4262 -0.3750 -0.0058
  990MOL0     C33558   0.307   1.742   7.715 -0.4420 -0.8728  0.0331
  990MOL0     C33559   0.249   1.828   7.604 -0.5845  0.0553  0.1266
  990MOL0    Cl33560   0.175   1.725   7.488 -0.1917 -0.3604 -0.1636
  990MOL0     C33561  -0.074   1.042   7.979  0.3248 -0.7595  1.0331
  990MOL0     C33562  -0.147   0.947   8.055 -0.6866 -0.2598  0.6100
  990MOL0     O33563  -0.236   0.635   7.974 -0.9174 -0.3186  0.6994
  990MOL0     C33564  -0.344   0.425   8.113  0.6956  0.2222 -0.1079
  990MOL0     C33565  -0.380   0.303   8.162  0.5095 -0.2035 -1.0313
  990MOL0     N33566   0.048  -0.332   7.874  0.7021  0.2951  0.4696
  990MOL0     N33567   0.040  -0.453   7.826 -0.1990 -0.6643 -0.0986
  990MOL0     C33568   0.692  -0.361   7.197  0.6924 -0.2814 -0.3322
  990MOL0     C33569   0.789  -0.261   7.167 -0.0470  0.5247 -0.1657
  990MOL0     C33570   1.041   0.074   7.040  0.0129  1.2073  0.4985
  990MOL0     C33571   1.043   0.196   7.116 -0.3720 -0.5321  0.6073
  990MOL0     C33572   1.141   0.295   7.084  0.3459  0.2578  0.3187
  990MOL0     C33573   1.238   0.274   6.989 -1.0649  0.6163  0.6868
  990MOL0     O33574   1.337   0.365   6.968  0.5215 -0.3989 -0.3942
  990MOL0     C33575   1.422   0.347   6.853 -0.0241 -0.0406 -0.0714
  990MOL0     C33576   1.551   0.422   6.894 -0.2222 -0.0726 -0.8649
  990MOL0     C33577   1.627   0.367   7.020 -0.4122  0.2875 -0.1892
  990MOL0     C33578   1.641   0.209   7.025  0.0511 -1.1766  0.5998
  990MOL0     C33579   1.700   0.175   7.155 -0.2199  0.5901  0.2701
  990MOL0     C33580   1.767   0.158   7.258 -0.0780 -0.3249 -0.5281
  990MOL0     C33581   1.226   0.159   6.912 -0.7275 -0.2882 -0.9280
  990MOL0     C33582   1.134   0.063   6.933  0.6725 -0.2090  0.1115
  990MOL0     H33583   0.815  -0.263   6.829 -2.0405  1.9386 -0.3354
  990MOL0     H33584   0.647  -0.450   6.868  0.4236 -0.5069  0.3250
  990MOL0     H33585   0.561  -0.580   7.277 -1.0418  0.0946 -0.1341
  990MOL0     H33586   0.430  -0.469   7.277 -2.3952 -1.4240  0.1311
  990MOL0     H33587   0.303  -0.668   7.120  1.4570 -1.2698 -2.3530
  990MOL0     H33588   0.435  -0.754   7.179  1.2162 -0.2308 -0.1309
  990MOL0     H33589   0.272  -0.803   7.331  0.9219  0.7887  1.4078
  990MOL0     H33590   0.353  -0.689   7.420  0.5104 -1.1233  0.1589
  990MOL0     H33591   0.196  -0.493   7.328 -2.1557  0.4792 -1.0963
  990MOL0     H33592   0.107  -0.630   7.260 -1.4827 -1.6080  2.3714
  990MOL0     H33593   0.087  -0.724   7.501 -3.4005 -0.1923  0.5320
  990MOL0     H33594   0.146  -0.563   7.562  1.4881 -1.1977  0.3045
  990MOL0     H33595  -0.044  -0.460   7.434 -2.1047 -0.0138  0.5156
  990MOL0     H33596  -0.082  -0.611   7.358 -0.1466 -2.3979  3.2025
  990MOL0     H33597  -0.213  -0.497   7.541  0.0299 -0.1622 -0.9876
  990MOL0     H33598  -0.225  -0.668   7.539 -0.6717  0.4687  0.2662
  990MOL0     H33599  -0.029  -0.665   7.722  1.0775 -0.0306 -3.2279
  990MOL0     H33600  -0.200  -0.633   7.761 -0.7213 -0.1243 -2.2527
  990MOL0     H33601  -0.262  -0.335   7.798 -0.0378  0.6325 -0.7175
  990MOL0     H33602  -0.020  -0.069   7.915 -0.1659 -1.6085  0.7100
  990MOL0     H33603  -0.160  -0.099   7.819 -0.0932  1.4509  0.6119
  990MOL0     H33604  -0.127  -0.130   8.117  2.1421 -0.1859 -0.2709
  990MOL0     H33605  -0.260  -0.210   8.034  0.1079  0.2387 -2.4227
  990MOL0     H33606  -0.346   0.006   7.953  0.1076  3.9742 -0.0490
  990MOL0     H33607  -0.200   0.088   8.025 -0.1063  0.3198  0.1143
  990MOL0     H33608  -0.360  -0.087   8.223 -0.1972 -1.1786 -1.0043
  990MOL0     H33609  -0.443   0.055   8.154  1.4241  1.8207 -3.1773
  990MOL0     H33610  -0.132   0.268   8.370 -1.4366 -1.9361 -1.2166
  990MOL0     H33611  -0.096   0.627   8.366 -2.3719 -0.6898 -2.3161
  990MOL0     H33612  -0.022   0.485   8.424  0.2391  0.4866  0.9517
  990MOL0     H33613   0.030   0.555   8.271  1.4877  1.0504  1.6171
  990MOL0     H33614   0.087   0.705   8.077 -0.8995  0.3884  2.3713
  990MOL0     H33615   0.214   0.861   7.938  1.1610  1.5691  0.6170
  990MOL0     H33616   0.335   1.099   7.871  0.5061 -0.2437 -1.0182
  990MOL0     H33617   0.246   0.999   7.751  1.2542  0.5713 -1.0808
  990MOL0     H33618   0.299   1.155   7.606  1.0049 -1.3247  2.1162
  990MOL0     H33619   0.139   1.213   7.655 -1.1592  0.4658  1.5829
  990MOL0     H33620   0.306   1.408   7.662  0.6284 -2.3765 -1.8464
  990MOL0     H33621   0.389   1.330   7.789 -0.3944  2.3457  1.4462
  990MOL0     H33622   0.092   1.400   7.808  0.0154  1.2068  0.2864
  990MOL0     H33623   0.198   1.340   7.932  1.0816  0.6687 -0.2057
  990MOL0     H33624   0.367   1.539   7.848  0.7061  0.1760  3.9283
  990MOL0     H33625   0.234   1.561   7.972  0.0228 -2.0808  0.7681
  990MOL0     H33626   0.148   1.600   7.700  0.8368  0.8397 -1.1374
  990MOL0     H33627   0.139   1.713   7.842 -0.1971 -2.7266  1.7787
  990MOL0     H33628   0.394   1.687   7.677  1.5196  1.6916  0.5007
  990MOL0     H33629   0.346   1.819   7.784  3.0452 -1.9538 -0.5212
  990MOL0     H33630   0.317   1.903   7.563  0.5564  0.3709  2.4597
  990MOL0     H33631   0.167   1.887   7.646 -2.9804 -1.9893 -1.3992
  990MOL0     H33632  -0.121   1.132   7.940 -1.0402 -1.3969  1.1546
  990MOL0     H33633  -0.251   0.966   8.081 -1.0310  0.6313 -1.2557
  990MOL0     H33634  -0.402   0.446   8.024 -1.9278  0.3236  1.5023
  990MOL0     H33635  -0.475   0.266   8.124 -1.9871  2.3535  2.1565
  990MOL0     H33636   0.672  -0.374   7.303 -2.2244  1.5705 -0.5273
  990MOL0     H33637   0.839  -0.217   7.253 -0.1018  0.5774 -0.1609
  990MOL0     H33638   0.963   0.224   7.185 -0.3490 -0.0469  0.4405
  990MOL0     H33639   1.156   0.389   7.136 -0.6429  0.6418 -0.0612
  990MOL0     H33640   1.449   0.245   6.823 -0.9581 -0.1105 -0.6972
  990MOL0     H33641   1.373   0.392   6.766 -0.0858  3.6988  1.6895
  990MOL0     H33642   1.529   0.528   6.911 -4.0716 -0.8891  0.3296
  990MOL0     H33643   1.620   0.428   6.809  1.3750  3.3317  0.4834
  990MOL0     H33644   1.557   0.387   7.102  0.9105  1.8945  0.6253
  990MOL0     H33645   1.720   0.423   7.037 -0.5548  0.0084  1.7014
  990MOL0     H33646   1.714   0.185   6.947  0.2370  1.1548 -0.0238
  990MOL0     H33647   1.546   0.159   7.003 -2.3469  1.9260  2.9089
  990MOL0     H33648   1.829   0.159   7.345  2.2711  2.1252 -2.0569
  990MOL0     H33649   1.287   0.152   6.822 -1.8361  0.2045 -1.7413
  990MOL0     H33650   1.144  -0.028   6.876  1.9246  0.7716 -1.2937
  991MOL0     O33651   4.261   3.659   3.152  1.1630 -0.0906 -0.1525
  991MOL0     C33652   4.296   3.560   3.216 -0.4499  0.3959 -0.1742
  991MOL0     O33653   4.405   3.482   3.182  0.1250  0.7972  0.0485
  991MOL0     C33654   4.477   3.496   3.063  0.3827 -1.3141  0.4341
  991MOL0     C33655   4.615   3.514   3.069 -0.2776  0.1718  0.1969
  991MOL0     C33656   4.691   3.552   2.958  0.4840  0.7999  0.5801
  991MOL0     C33657   4.636   3.544   2.837  0.7503 -0.0026  0.4335
  991MOL0     O33658   4.722   3.559   2.737 -0.1813 -0.0099 -0.2724
  991MOL0     C33659   4.743   3.443   2.650  0.8587 -0.8165 -0.8567
  991MOL0     C33660   4.889   3.430   2.627  0.6548 -0.0542  0.0071
  991MOL0     C33661   4.924   3.316   2.539  0.2888  0.3578  1.1383
  991MOL0     C33662   5.071   3.307   2.495 -0.2816  0.0549  0.2772
  991MOL0     C33663   5.121   3.187   2.416 -0.1153  0.4582 -0.2129
  991MOL0     C33664   5.125   3.047   2.490 -0.9483  0.4274 -0.4938
  991MOL0     C33665   5.206   3.067   2.625  0.0650  0.5777  0.1751
  991MOL0     C33666   5.244   2.928   2.685  0.1921  0.6596 -0.3349
  991MOL0     N33667   5.279   2.833   2.580 -0.4169 -0.0395 -0.7391
  991MOL0     C33668   5.410   2.795   2.540  0.6433  0.1658  0.0473
  991MOL0     C33669   5.392   2.674   2.474 -1.1549  0.0070 -0.1570
  991MOL0     C33670   5.507   2.591   2.409 -0.1492 -0.4571 -0.3872
  991MOL0     C33671   5.502   2.432   2.437 -0.0419  0.0803 -0.3124
  991MOL0     C33672   5.523   2.399   2.587  0.9389 -0.3978  0.7347
  991MOL0     C33673   5.547   2.256   2.619  0.8261  1.3284  0.0137
  991MOL0     O33674   5.672   2.208   2.560  0.4242 -0.7332 -0.8252
  991MOL0     C33675   5.789   2.259   2.604 -0.0512 -0.5096 -0.8378
  991MOL0     C33676   5.901   2.238   2.520  0.8569  0.7058 -1.0226
  991MOL0     C33677   6.020   2.307   2.542 -1.0263 -0.7829 -0.4203
  991MOL0     C33678   6.129   2.288   2.435 -0.0687  0.2282  0.9210
  991MOL0     C33679   6.039   2.399   2.661  0.1588  1.1250  0.7115
  991MOL0     C33680   6.161   2.487   2.691 -0.0631  0.4762  0.4047
  991MOL0     O33681   6.138   2.579   2.785 -0.1371 -0.6781  0.0793
  991MOL0     C33682   6.225   2.658   2.857 -0.3088  0.8972 -0.4036
  991MOL0     C33683   6.363   2.662   2.847 -0.7782  0.1808 -0.4365
  991MOL0     C33684   6.445   2.749   2.923 -0.2304 -0.5900 -0.7282
  991MOL0     C33685   6.378   2.836   3.024 -0.4464 -0.0310 -0.4852
  991MOL0     O33686   6.435   2.941   3.095  0.6707 -0.0989 -0.3493
  991MOL0     C33687   6.570   2.961   3.054 -0.0271 -0.6077 -0.3933
  991MOL0     C33688   6.624   3.073   3.144  0.3399  0.6846  0.2313
  991MOL0     C33689   6.781   3.073   3.145  0.2159  0.5183  1.3077
  991MOL0     C33690   6.826   3.066   2.998 -0.1261 -0.2273 -0.3041
  991MOL0     C33691   6.974   3.079   2.969 -0.2601 -0.7880 -0.1221
  991MOL0     C33692   7.002   3.090   2.818  0.2153 -0.2286  0.5229
  991MOL0     C33693   6.990   2.962   2.741  0.6412 -0.6788  0.4359
  991MOL0     C33694   6.937   2.982   2.598  0.0114 -0.3557  0.2028
  991MOL0    Cl33695   7.057   3.080   2.493 -0.6512  0.3515 -0.0701
  991MOL0     C33696   6.238   2.827   3.047 -0.1985  0.3158  0.2284
  991MOL0     C33697   6.171   2.733   2.964 -0.0375 -0.0324 -0.3151
  991MOL0     O33698   6.266   2.473   2.633 -0.0095 -0.3062 -0.5671
  991MOL0     C33699   5.918   2.410   2.748  0.5869  0.3751  0.2638
  991MOL0     C33700   5.802   2.329   2.720 -0.3995  1.4629 -0.8073
  991MOL0     N33701   5.255   2.654   2.461 -0.6412 -1.3197  1.0189
  991MOL0     N33702   5.192   2.744   2.514  0.6919 -0.5394  0.0088
  991MOL0     C33703   4.497   3.531   2.827  0.4235  0.0712 -0.5211
  991MOL0     C33704   4.423   3.493   2.940  0.8847  0.2418  0.4616
  991MOL0     C33705   4.230   3.547   3.350 -0.4062 -0.0323  0.1049
  991MOL0     C33706   4.285   3.463   3.451 -0.1551 -0.5836 -0.3782
  991MOL0     C33707   4.212   3.440   3.573  0.0155 -0.6583  0.3536
  991MOL0     C33708   4.093   3.510   3.590  0.0574  0.5503 -0.4807
  991MOL0     O33709   4.036   3.489   3.715  0.2567  0.3269  0.0044
  991MOL0     C33710   3.896   3.508   3.733  0.2431  0.2220 -0.1217
  991MOL0     C33711   3.801   3.430   3.636 -1.0000  0.2346  0.3941
  991MOL0     C33712   3.702   3.522   3.572 -0.3479 -0.5299  0.0269
  991MOL0     C33713   3.638   3.451   3.450  0.1228 -0.6037 -0.0390
  991MOL0     C33714   3.529   3.361   3.495  1.2249  1.1205  0.8190
  991MOL0     C33715   3.445   3.285   3.531 -0.7285  0.3510 -0.0312
  991MOL0     C33716   4.040   3.598   3.494 -0.1575  0.0713  0.4177
  991MOL0     C33717   4.110   3.599   3.376  0.8194 -1.2744  0.2194
  991MOL0     H33718   4.663   3.513   3.166 -2.9521  0.9700  1.6040
  991MOL0     H33719   4.796   3.577   2.962  0.3959  1.6434 -1.5264
  991MOL0     H33720   4.703   3.365   2.716 -4.6480  2.5998  0.5015
  991MOL0     H33721   4.687   3.462   2.559 -1.3809  3.8396  1.1888
  991MOL0     H33722   4.921   3.520   2.575 -1.9216  0.1381 -1.4387
  991MOL0     H33723   4.938   3.403   2.721  0.2624 -2.6564 -0.4498
  991MOL0     H33724   4.910   3.223   2.595  0.5242 -0.2256  0.2518
  991MOL0     H33725   4.852   3.313   2.457  2.1104  0.9711 -0.5824
  991MOL0     H33726   5.080   3.401   2.440 -1.1220 -0.5683 -0.9659
  991MOL0     H33727   5.127   3.309   2.590 -1.3444  0.2669  0.9171
  991MOL0     H33728   5.043   3.159   2.345 -0.4697 -0.9245  0.6635
  991MOL0     H33729   5.214   3.203   2.361 -0.8993 -2.7897 -2.8062
  991MOL0     H33730   5.020   3.019   2.498 -0.7025 -0.0792  1.5588
  991MOL0     H33731   5.179   2.981   2.423 -2.1036  0.1317 -1.1545
  991MOL0     H33732   5.298   3.123   2.610  0.8258 -0.8788 -0.9053
  991MOL0     H33733   5.151   3.131   2.695  1.3700  0.5022  1.2993
  991MOL0     H33734   5.154   2.890   2.733  2.0039 -0.6970  2.2808
  991MOL0     H33735   5.311   2.936   2.771 -0.8273 -3.4664  1.0822
  991MOL0     H33736   5.503   2.850   2.554 -0.3497  1.5167  1.8781
  991MOL0     H33737   5.508   2.609   2.301  2.1301  1.4101 -0.1408
  991MOL0     H33738   5.604   2.635   2.436 -1.2947  1.5881  0.6138
  991MOL0     H33739   5.569   2.375   2.373  1.5168 -1.0608  2.1802
  991MOL0     H33740   5.400   2.406   2.406 -1.2868  3.6051  0.3255
  991MOL0     H33741   5.435   2.437   2.639  1.4186 -0.5318  1.6745
  991MOL0     H33742   5.610   2.459   2.613  0.4548  0.9450 -0.6101
  991MOL0     H33743   5.471   2.183   2.588  0.1464  0.5875  3.0216
  991MOL0     H33744   5.552   2.234   2.726 -1.2338 -1.8900 -0.3980
  991MOL0     H33745   5.875   2.167   2.442  2.5406  0.5790 -1.4884
  991MOL0     H33746   6.208   2.220   2.467  2.9522  4.6871  4.2500
  991MOL0     H33747   6.086   2.260   2.338  0.7755  1.7533  0.0649
  991MOL0     H33748   6.189   2.379   2.428  2.1999 -0.9806  3.1621
  991MOL0     H33749   6.412   2.591   2.782 -0.0456 -0.8557  1.1722
  991MOL0     H33750   6.548   2.764   2.893 -0.9541 -0.4317 -3.3929
  991MOL0     H33751   6.628   2.872   3.079 -0.1713 -1.9870 -4.2826
  991MOL0     H33752   6.573   2.978   2.946 -0.6674 -1.5397 -0.5711
  991MOL0     H33753   6.581   3.170   3.117 -2.6185 -1.5411 -4.3714
  991MOL0     H33754   6.596   3.043   3.245 -1.3071 -1.4194 -0.7854
  991MOL0     H33755   6.825   2.993   3.206  2.3848  2.1976  2.0970
  991MOL0     H33756   6.834   3.152   3.199  6.6517 -2.4656  0.3764
  991MOL0     H33757   6.789   2.980   2.943 -2.1465  1.4763 -1.7607
  991MOL0     H33758   6.776   3.153   2.954 -0.2723 -0.8044 -1.2998
  991MOL0     H33759   7.031   2.996   3.013  1.3618  0.0074 -0.6196
  991MOL0     H33760   7.008   3.175   3.008 -2.6679  0.2566 -0.4724
  991MOL0     H33761   6.929   3.160   2.776 -0.4251 -1.4043 -0.3632
  991MOL0     H33762   7.102   3.133   2.802  0.8022 -1.1667  1.4703
  991MOL0     H33763   6.927   2.886   2.787  0.3479 -0.5558  0.2378
  991MOL0     H33764   7.089   2.916   2.733 -0.3792 -2.8583 -0.5323
  991MOL0     H33765   6.841   3.034   2.595  0.2465  0.1227 -4.0277
  991MOL0     H33766   6.930   2.878   2.567  1.8398 -1.2594  2.4701
  991MOL0     H33767   6.203   2.895   3.124  0.8424  2.2045 -0.8800
  991MOL0     H33768   6.064   2.718   2.979 -0.5934  1.9914 -1.8117
  991MOL0     H33769   5.931   2.466   2.840 -1.6085  0.8351  0.3366
  991MOL0     H33770   5.729   2.346   2.799 -1.3340 -0.6087 -1.1552
  991MOL0     H33771   4.450   3.528   2.729  1.6822 -0.3389 -1.1384
  991MOL0     H33772   4.317   3.472   2.929  0.4290  2.7773 -0.7875
  991MOL0     H33773   4.377   3.408   3.436 -0.1158 -0.6379  0.0627
  991MOL0     H33774   4.262   3.399   3.660 -0.6036 -0.3726  0.8498
  991MOL0     H33775   3.869   3.468   3.832  1.2225  0.1894  0.1485
  991MOL0     H33776   3.872   3.614   3.725 -1.4572 -0.1920 -0.9880
  991MOL0     H33777   3.757   3.342   3.683  1.4874 -0.7504  1.0656
  991MOL0     H33778   3.863   3.385   3.557 -0.3347  2.4799 -0.4434
  991MOL0     H33779   3.749   3.616   3.544 -0.0187  0.5223  3.6228
  991MOL0     H33780   3.628   3.565   3.640  0.7868  2.2035 -0.3366
  991MOL0     H33781   3.714   3.402   3.389  0.7171 -0.2038  0.3751
  991MOL0     H33782   3.592   3.534   3.395 -0.2015 -0.7153  0.0600
  991MOL0     H33783   3.350   3.247   3.561 -0.9153  0.9892  0.2036
  991MOL0     H33784   3.960   3.669   3.513  0.3500  0.6547  0.4078
  991MOL0     H33785   4.062   3.666   3.305  1.6088 -1.1657 -0.2208
  992MOL0     O33786   5.844   7.607   4.635  0.3169  0.4997 -0.2000
  992MOL0     C33787   5.853   7.720   4.664  0.9620  0.1886 -0.0032
  992MOL0     O33788   5.772   7.788   4.755  0.1636  0.4237 -0.1344
  992MOL0     C33789   5.707   7.709   4.849 -0.3435 -0.4862  0.0390
  992MOL0     C33790   5.723   7.739   4.981 -0.1922 -0.4237 -0.2495
  992MOL0     C33791   5.656   7.666   5.081  0.5287 -0.2351  0.4567
  992MOL0     C33792   5.596   7.548   5.045 -0.4495 -0.5527  0.6368
  992MOL0     O33793   5.530   7.460   5.131 -0.8449 -0.3427  0.1151
  992MOL0     C33794   5.586   7.465   5.264 -0.7320 -0.1148  0.2957
  992MOL0     C33795   5.577   7.333   5.323  1.2739  0.8884 -0.0548
  992MOL0     C33796   5.439   7.302   5.393 -0.3744 -0.3119  0.4268
  992MOL0     C33797   5.345   7.223   5.311  0.4076  1.0096  0.6680
  992MOL0     C33798   5.232   7.160   5.396 -0.4849  0.0632 -0.0363
  992MOL0     C33799   5.123   7.095   5.315  0.2118 -0.2343 -0.4176
  992MOL0     C33800   5.153   6.990   5.200 -1.4100 -0.4035 -0.1081
  992MOL0     C33801   5.226   6.873   5.268 -0.3581  0.0903  0.3475
  992MOL0     N33802   5.241   6.762   5.169  0.0827  0.0665 -0.6213
  992MOL0     C33803   5.363   6.685   5.142  1.1580 -0.5161  0.3572
  992MOL0     C33804   5.333   6.587   5.050  0.2193  0.1508  0.7481
  992MOL0     C33805   5.421   6.474   5.011  0.3057 -0.0145 -0.9701
  992MOL0     C33806   5.349   6.353   5.068  0.0922 -0.4310  0.6422
  992MOL0     C33807   5.408   6.233   5.004 -0.6851  0.5337 -0.1794
  992MOL0     C33808   5.327   6.119   5.066  0.7898 -0.1164  0.1374
  992MOL0     O33809   5.394   6.082   5.186 -0.1031 -0.2367 -0.1372
  992MOL0     C33810   5.346   5.968   5.258  0.4804 -0.5255  0.2147
  992MOL0     C33811   5.380   5.966   5.392 -0.1055  0.4447  0.1416
  992MOL0     C33812   5.324   5.874   5.484  0.2988 -0.5572  0.7464
  992MOL0     C33813   5.353   5.880   5.640  0.5855  0.2269 -0.2559
  992MOL0     C33814   5.252   5.761   5.428  0.4430  1.1704 -0.5173
  992MOL0     C33815   5.187   5.649   5.508 -1.0270 -0.6086 -0.1155
  992MOL0     O33816   5.253   5.534   5.484  0.5441  0.8185 -0.2105
  992MOL0     C33817   5.221   5.416   5.554 -0.0249 -0.1563 -0.4300
  992MOL0     C33818   5.095   5.387   5.608  0.6915  0.6133 -0.3023
  992MOL0     C33819   5.072   5.261   5.671 -0.2060 -0.6031 -0.3460
  992MOL0     C33820   5.188   5.167   5.668  0.7791 -0.0844  1.3693
  992MOL0     O33821   5.171   5.039   5.716 -0.2782  0.2821 -0.2858
  992MOL0     C33822   5.079   5.028   5.825  0.1739  0.8034 -0.3529
  992MOL0     C33823   5.113   4.901   5.907 -0.0596 -0.8098  0.3924
  992MOL0     C33824   5.022   4.867   6.026  0.6944 -0.5381 -0.0828
  992MOL0     C33825   5.067   4.757   6.119  1.1891  1.0012 -0.4326
  992MOL0     C33826   4.974   4.736   6.239 -0.2630 -0.5053  0.7421
  992MOL0     C33827   4.829   4.686   6.206 -0.2552  0.5431 -0.2837
  992MOL0     C33828   4.840   4.538   6.172  0.3318  0.9350 -0.0630
  992MOL0     C33829   4.720   4.517   6.075 -0.5231  0.0277  0.5057
  992MOL0    Cl33830   4.750   4.572   5.904 -0.0706  0.2759 -0.1829
  992MOL0     C33831   5.312   5.200   5.615 -0.5517  0.3264 -1.4046
  992MOL0     C33832   5.332   5.325   5.570 -0.1056 -0.8707 -0.6229
  992MOL0     O33833   5.121   5.674   5.608 -0.9298  0.0650 -0.1228
  992MOL0     C33834   5.218   5.767   5.295 -0.3228  0.6134 -0.7422
  992MOL0     C33835   5.258   5.867   5.209  0.7322 -0.5071  0.3422
  992MOL0     N33836   5.196   6.605   5.013 -0.3233  0.0874  0.4151
  992MOL0     N33837   5.147   6.709   5.085 -0.1265 -0.6729  0.4494
  992MOL0     C33838   5.590   7.508   4.910  0.3842  0.1213 -0.4352
  992MOL0     C33839   5.626   7.593   4.812 -0.0651  0.2342  0.7303
  992MOL0     C33840   5.962   7.785   4.586 -0.8854 -0.6476 -0.5305
  992MOL0     C33841   5.953   7.916   4.556 -0.0460 -0.2088  0.7283
  992MOL0     C33842   6.055   7.984   4.481  0.1334  0.6427 -0.2549
  992MOL0     C33843   6.179   7.922   4.437  1.6399  0.7080  0.3886
  992MOL0     O33844   6.284   7.977   4.378 -0.7394 -0.2551  0.1409
  992MOL0     C33845   6.288   8.120   4.389 -0.5116  0.1721  0.6559
  992MOL0     C33846   6.416   8.190   4.348  0.9062 -0.7456  0.1234
  992MOL0     C33847   6.418   8.246   4.201 -0.4102 -0.0538  0.3967
  992MOL0     C33848   6.388   8.138   4.095 -0.2546  0.5230 -1.0435
  992MOL0     C33849   6.461   8.022   4.077 -0.4877 -0.4971  1.0248
  992MOL0     C33850   6.516   7.919   4.079 -0.1707 -0.0611 -0.1136
  992MOL0     C33851   6.185   7.784   4.478 -0.1073 -0.4034  0.4225
  992MOL0     C33852   6.078   7.721   4.545  0.3460  0.4201  0.5059
  992MOL0     H33853   5.798   7.811   5.013 -2.4139  0.1853  4.4309
  992MOL0     H33854   5.671   7.709   5.180 -1.6833  1.9947 -0.0819
  992MOL0     H33855   5.692   7.484   5.246 -1.0689  1.2721 -0.3599
  992MOL0     H33856   5.549   7.550   5.321 -1.4366  1.3356 -2.1755
  992MOL0     H33857   5.590   7.259   5.244 -0.5041  1.0269 -0.5009
  992MOL0     H33858   5.654   7.336   5.401  2.9636  0.6435 -1.6554
  992MOL0     H33859   5.452   7.243   5.483 -3.3023 -2.5405 -0.4712
  992MOL0     H33860   5.401   7.398   5.430 -0.1120 -1.1278  3.0087
  992MOL0     H33861   5.307   7.294   5.237 -4.6310 -1.7957  0.0732
  992MOL0     H33862   5.390   7.139   5.258 -3.3011 -0.3285 -0.6931
  992MOL0     H33863   5.274   7.081   5.458 -0.5613  0.1608  0.1392
  992MOL0     H33864   5.196   7.241   5.460 -2.5676 -0.5367 -0.3579
  992MOL0     H33865   5.065   7.039   5.389  0.6772  0.5222  0.5408
  992MOL0     H33866   5.073   7.184   5.274  2.6894  1.5500  0.2006
  992MOL0     H33867   5.057   6.957   5.161 -0.4748  0.8305 -3.8170
  992MOL0     H33868   5.204   7.039   5.116 -1.3591  0.6151  0.4942
  992MOL0     H33869   5.182   6.840   5.363 -0.1274 -1.1085  0.0573
  992MOL0     H33870   5.323   6.909   5.303 -0.0079 -1.0465  0.6071
  992MOL0     H33871   5.452   6.683   5.204  0.2829 -0.9721  1.6617
  992MOL0     H33872   5.415   6.474   4.901 -2.8261 -2.2087 -0.9193
  992MOL0     H33873   5.523   6.491   5.048  0.2910  0.4749 -1.1361
  992MOL0     H33874   5.244   6.364   5.039 -0.4557 -1.9661  1.9353
  992MOL0     H33875   5.367   6.347   5.175 -0.4598 -3.3281  0.6394
  992MOL0     H33876   5.516   6.234   5.019 -0.3294 -0.2818 -2.2859
  992MOL0     H33877   5.395   6.244   4.895 -1.5430 -1.4559 -0.3171
  992MOL0     H33878   5.321   6.029   5.003 -1.5873 -0.7047  1.0868
  992MOL0     H33879   5.224   6.153   5.075  0.1868 -1.5233 -1.0117
  992MOL0     H33880   5.444   6.044   5.433 -0.4638  1.7267 -1.6376
  992MOL0     H33881   5.379   5.780   5.675  1.8274  1.0539  1.3304
  992MOL0     H33882   5.438   5.948   5.658  0.1296  0.8892 -0.5516
  992MOL0     H33883   5.267   5.909   5.700  0.1898 -0.2875 -0.5689
  992MOL0     H33884   5.001   5.443   5.603  0.5362  0.3195 -0.7040
  992MOL0     H33885   4.981   5.237   5.723  0.7755 -0.5150  1.4810
  992MOL0     H33886   5.087   5.111   5.896 -0.0777  1.7703 -1.4222
  992MOL0     H33887   4.981   5.022   5.776 -0.1909  0.7791  0.3612
  992MOL0     H33888   5.099   4.823   5.832 -0.7041 -0.1556 -0.1978
  992MOL0     H33889   5.218   4.909   5.933 -0.3113  1.2861  0.9608
  992MOL0     H33890   4.923   4.841   5.986 -0.2051 -0.2163  1.8148
  992MOL0     H33891   5.008   4.959   6.083  0.8997 -0.1869 -0.5920
  992MOL0     H33892   5.080   4.663   6.065 -1.3666 -1.6583  3.0909
  992MOL0     H33893   5.165   4.792   6.152  1.2784  1.7945 -1.4990
  992MOL0     H33894   4.949   4.834   6.281 -1.0468 -1.2212  1.9972
  992MOL0     H33895   5.030   4.668   6.304 -0.7267  2.2297  4.3119
  992MOL0     H33896   4.773   4.701   6.298  0.2240 -0.4756  0.1946
  992MOL0     H33897   4.789   4.751   6.128 -1.1291  2.6982  1.8734
  992MOL0     H33898   4.821   4.480   6.263 -4.2559  2.6686  0.3244
  992MOL0     H33899   4.940   4.512   6.136  1.2363  3.1485  0.6725
  992MOL0     H33900   4.631   4.564   6.117 -0.7168 -2.1027  2.7006
  992MOL0     H33901   4.692   4.411   6.064 -3.6733  0.9849 -2.0160
  992MOL0     H33902   5.387   5.124   5.599  0.5070  1.0640 -0.1405
  992MOL0     H33903   5.430   5.353   5.534  0.5194  1.0208  2.1873
  992MOL0     H33904   5.148   5.692   5.260  0.0175 -0.6791  1.1868
  992MOL0     H33905   5.238   5.868   5.102  0.8045 -1.4510  0.3095
  992MOL0     H33906   5.545   7.411   4.891 -0.6100  0.7561 -1.4571
  992MOL0     H33907   5.616   7.559   4.709  1.2176 -2.0075  1.2850
  992MOL0     H33908   5.859   7.959   4.590 -1.2288 -1.9128 -0.2398
  992MOL0     H33909   6.029   8.083   4.444  1.8141  0.7806 -1.1353
  992MOL0     H33910   6.202   8.161   4.335  2.1719  1.6367 -2.9543
  992MOL0     H33911   6.279   8.132   4.497  2.3862 -4.4766  1.7278
  992MOL0     H33912   6.499   8.120   4.365 -0.7097 -2.2051  2.9594
  992MOL0     H33913   6.419   8.282   4.407 -0.0990 -0.5790 -0.0641
  992MOL0     H33914   6.511   8.298   4.177 -2.1405  1.9537 -2.4072
  992MOL0     H33915   6.355   8.334   4.190  2.0783  1.8253  0.3093
  992MOL0     H33916   6.389   8.200   4.004  2.7502  1.3190 -0.5815
  992MOL0     H33917   6.292   8.087   4.106 -1.2663  2.0091 -2.4045
  992MOL0     H33918   6.573   7.828   4.085 -0.5273 -0.2037  1.8484
  992MOL0     H33919   6.279   7.730   4.467  0.4811  0.8723 -1.3084
  992MOL0     H33920   6.099   7.624   4.589 -0.3478  1.4761  3.3564
  993MOL0     O33921   0.833   8.312   2.148 -0.0402 -0.5792 -0.1958
  993MOL0     C33922   0.915   8.301   2.057  0.8247  0.0436  0.4618
  993MOL0     O33923   0.954   8.178   2.012  0.4455  0.5411 -0.6299
  993MOL0     C33924   0.877   8.067   2.059 -0.5712  0.4067 -0.0460
  993MOL0     C33925   0.747   8.053   2.011 -0.1337 -0.4657 -0.6002
  993MOL0     C33926   0.670   7.943   2.051 -0.0103 -0.0722  0.1762
  993MOL0     C33927   0.721   7.834   2.110 -0.2722  0.7344  0.1468
  993MOL0     O33928   0.647   7.723   2.115  0.5399  0.5146  0.2189
  993MOL0     C33929   0.708   7.599   2.157 -0.2837 -0.1557 -0.3692
  993MOL0     C33930   0.597   7.503   2.158 -0.0407  0.1458 -0.4069
  993MOL0     C33931   0.653   7.374   2.229 -0.5559 -1.1019  0.1032
  993MOL0     C33932   0.549   7.264   2.224  0.4565 -0.9342  0.4333
  993MOL0     C33933   0.575   7.113   2.263  0.4916  0.6682 -0.2510
  993MOL0     C33934   0.610   7.104   2.413  0.4938  0.3611 -0.3495
  993MOL0     C33935   0.670   6.957   2.424 -0.2028 -0.4062  0.3056
  993MOL0     C33936   0.687   6.899   2.568 -0.0494 -0.1002  0.8873
  993MOL0     N33937   0.732   7.004   2.666 -0.3445  0.3657  0.5899
  993MOL0     C33938   0.860   7.056   2.678  0.3146 -0.5339 -0.4865
  993MOL0     C33939   0.852   7.148   2.780  0.4044 -0.7457  0.4865
  993MOL0     C33940   0.976   7.229   2.820  0.4529 -0.7076  0.0903
  993MOL0     C33941   0.999   7.222   2.973  0.4293 -0.4069  0.5002
  993MOL0     C33942   1.146   7.281   2.994  0.2849 -0.1384  0.1625
  993MOL0     C33943   1.209   7.217   3.121  0.3377 -0.2060  0.5459
  993MOL0     O33944   1.356   7.214   3.134 -0.3439  0.1420  0.1392
  993MOL0     C33945   1.413   7.100   3.103  0.2558  0.6533 -0.1067
  993MOL0     C33946   1.533   7.066   3.178  0.7169 -0.6852 -0.1850
  993MOL0     C33947   1.623   6.963   3.139 -0.0806  0.0483  0.9072
  993MOL0     C33948   1.741   6.921   3.226 -0.3312 -0.5759 -0.3181
  993MOL0     C33949   1.576   6.881   3.028 -0.7515 -0.1215 -0.1414
  993MOL0     C33950   1.639   6.745   2.997  0.2551 -0.8570  0.4414
  993MOL0     O33951   1.561   6.648   2.945 -0.0979  0.7145 -0.3961
  993MOL0     C33952   1.605   6.529   2.891  0.2603  0.6965  0.0663
  993MOL0     C33953   1.538   6.406   2.912 -0.3686 -0.5607 -0.3584
  993MOL0     C33954   1.593   6.287   2.868 -0.0415 -0.1524 -1.6584
  993MOL0     C33955   1.706   6.289   2.780 -0.1487  0.6764  0.2183
  993MOL0     O33956   1.757   6.169   2.723  0.5587 -0.4143 -0.8183
  993MOL0     C33957   1.707   6.149   2.595  0.4980 -0.4545 -0.3128
  993MOL0     C33958   1.738   6.006   2.539  0.2355  0.3249 -0.2020
  993MOL0     C33959   1.663   5.879   2.591  0.3205 -0.5516  0.3601
  993MOL0     C33960   1.512   5.894   2.551 -0.5635 -0.4607 -0.0040
  993MOL0     C33961   1.450   5.763   2.594 -0.1859 -1.0626  0.2980
  993MOL0     C33962   1.406   5.749   2.740 -0.4770  0.0246  0.0238
  993MOL0     C33963   1.428   5.606   2.792  0.8646 -0.4490 -1.1896
  993MOL0     C33964   1.451   5.594   2.946  0.1873  0.0742  0.0090
  993MOL0    Cl33965   1.311   5.660   3.038  0.3339 -0.2999  0.5709
  993MOL0     C33966   1.774   6.408   2.751 -0.2234  1.0610 -0.5724
  993MOL0     C33967   1.716   6.527   2.807 -0.7226 -1.0879  0.5919
  993MOL0     O33968   1.756   6.740   3.007  0.1376  0.5793 -0.7164
  993MOL0     C33969   1.461   6.914   2.956 -0.1528  0.8436 -0.2932
  993MOL0     C33970   1.375   7.016   3.003  0.7154  0.6601  0.1978
  993MOL0     N33971   0.727   7.142   2.836 -0.1503 -0.3498  0.4238
  993MOL0     N33972   0.658   7.071   2.765 -0.6418 -0.3711  0.0940
  993MOL0     C33973   0.854   7.846   2.158  1.4112  0.8952 -0.1825
  993MOL0     C33974   0.928   7.965   2.134  0.6545 -0.5616  0.1960
  993MOL0     C33975   0.973   8.414   1.984 -0.7087 -0.5794  0.0752
  993MOL0     C33976   0.958   8.552   2.036 -0.9969  0.3737  0.2096
  993MOL0     C33977   1.024   8.661   1.974  0.8354 -0.5753 -0.7182
  993MOL0     C33978   1.103   8.643   1.861  0.1148 -0.5741  0.0351
  993MOL0     O33979   1.163   8.748   1.800  0.5726  0.2259 -0.1355
  993MOL0     C33980   1.270   8.810   1.882  0.2123  0.1562 -1.2378
  993MOL0     C33981   1.353   8.903   1.793 -1.2987  0.8177  1.0501
  993MOL0     C33982   1.421   8.822   1.672  0.5424  0.6512  1.0762
  993MOL0     C33983   1.503   8.906   1.574  0.5169  0.2410 -0.3894
  993MOL0     C33984   1.634   8.938   1.637  0.7448  0.4041  0.2497
  993MOL0     C33985   1.734   8.971   1.684  0.2530 -1.0222  0.0618
  993MOL0     C33986   1.111   8.514   1.808  0.0678  0.4454  0.2194
  993MOL0     C33987   1.056   8.401   1.873  0.5779 -0.4106  0.1718
  993MOL0     H33988   0.708   8.122   1.937 -2.9493  0.8010  1.8732
  993MOL0     H33989   0.567   7.931   2.019 -0.1841 -3.0701  1.5116
  993MOL0     H33990   0.787   7.567   2.089  0.7157  0.6856  0.3552
  993MOL0     H33991   0.758   7.607   2.254  0.2765  0.2133 -0.6811
  993MOL0     H33992   0.509   7.530   2.216 -1.1054  0.0436 -1.8974
  993MOL0     H33993   0.570   7.491   2.052  3.8408 -1.0051 -1.4376
  993MOL0     H33994   0.753   7.346   2.196  0.4865 -0.7062  2.6768
  993MOL0     H33995   0.661   7.407   2.333 -5.3596 -1.4891  0.8373
  993MOL0     H33996   0.464   7.296   2.285  0.2072 -0.3374 -0.2236
  993MOL0     H33997   0.513   7.269   2.121  2.5089  0.4919 -0.2582
  993MOL0     H33998   0.483   7.060   2.236  1.3552 -1.8155  1.3088
  993MOL0     H33999   0.655   7.077   2.197  1.4430  0.0783  1.1886
  993MOL0     H34000   0.677   7.183   2.449 -1.2178  1.4585  0.5630
  993MOL0     H34001   0.517   7.116   2.468 -0.2002  2.6411 -1.8976
  993MOL0     H34002   0.611   6.889   2.362 -4.5667  4.1904 -1.2421
  993MOL0     H34003   0.775   6.962   2.394  0.3969 -0.7390  2.1962
  993MOL0     H34004   0.767   6.825   2.563  1.1171  0.8768  3.4731
  993MOL0     H34005   0.602   6.842   2.605 -0.1354 -0.5186  0.0833
  993MOL0     H34006   0.947   7.018   2.625  3.4885  2.7396  1.8501
  993MOL0     H34007   1.062   7.193   2.763  1.3462  1.6981 -0.1888
  993MOL0     H34008   0.980   7.332   2.783  1.5644 -0.5157  0.7135
  993MOL0     H34009   1.005   7.117   3.003  2.0970 -0.7505 -0.8506
  993MOL0     H34010   0.917   7.277   3.020 -1.9642 -2.1178 -1.4853
  993MOL0     H34011   1.154   7.387   3.019  1.1840 -0.5142  1.6401
  993MOL0     H34012   1.199   7.256   2.902  0.4805 -1.5935  0.6396
  993MOL0     H34013   1.165   7.116   3.125 -0.0327 -0.1911 -1.8728
  993MOL0     H34014   1.179   7.269   3.212  0.5180  1.8513 -0.5301
  993MOL0     H34015   1.563   7.125   3.264 -3.0016  0.4859  0.4477
  993MOL0     H34016   1.772   7.004   3.291  1.0547 -1.3667  0.0844
  993MOL0     H34017   1.712   6.848   3.302 -1.5135 -0.3037 -0.4984
  993MOL0     H34018   1.835   6.888   3.181  0.9834  0.5059  1.4652
  993MOL0     H34019   1.447   6.402   2.970 -2.4299 -0.0256 -3.3022
  993MOL0     H34020   1.564   6.186   2.895  0.0146 -0.5942 -3.1689
  993MOL0     H34021   1.598   6.159   2.598  0.5790  0.2398  0.5554
  993MOL0     H34022   1.751   6.216   2.521  1.9462  1.7443  2.3522
  993MOL0     H34023   1.731   6.002   2.430  1.4250 -1.0307 -0.2585
  993MOL0     H34024   1.845   5.994   2.556 -0.1698 -1.4129  1.3491
  993MOL0     H34025   1.665   5.882   2.701  2.2678  3.4245  0.3790
  993MOL0     H34026   1.707   5.789   2.547 -0.3483 -1.2166  1.0328
  993MOL0     H34027   1.468   5.986   2.591 -0.8289  0.4503 -2.2751
  993MOL0     H34028   1.501   5.901   2.443 -1.1252  5.1133  0.1245
  993MOL0     H34029   1.527   5.687   2.574  1.5778  1.1138 -1.6581
  993MOL0     H34030   1.375   5.733   2.520 -0.5544 -0.4099  0.4018
  993MOL0     H34031   1.469   5.810   2.806 -0.3993  0.1468 -0.1607
  993MOL0     H34032   1.306   5.792   2.753 -1.6854 -2.2643 -1.2189
  993MOL0     H34033   1.504   5.547   2.740 -0.2891 -2.3177 -0.8977
  993MOL0     H34034   1.328   5.563   2.774 -0.9441  2.6958  0.5213
  993MOL0     H34035   1.538   5.650   2.981  0.6135 -0.2805 -0.4687
  993MOL0     H34036   1.465   5.488   2.968 -2.1390 -0.6296 -1.5292
  993MOL0     H34037   1.865   6.403   2.691 -1.4305 -1.0291 -2.3694
  993MOL0     H34038   1.755   6.622   2.773 -0.1177 -2.3166 -2.4491
  993MOL0     H34039   1.436   6.848   2.873  2.2282 -3.8939  2.3500
  993MOL0     H34040   1.284   7.037   2.948  1.2383  0.2974 -0.8295
  993MOL0     H34041   0.911   7.777   2.219  0.9627  0.0738 -0.6774
  993MOL0     H34042   1.021   7.981   2.188 -0.2284 -1.3665  2.0792
  993MOL0     H34043   0.886   8.569   2.116 -1.0618 -0.7550  0.4175
  993MOL0     H34044   1.004   8.762   2.008  0.7670 -0.1835 -1.8769
  993MOL0     H34045   1.221   8.855   1.969  1.6871 -1.3954  0.4887
  993MOL0     H34046   1.346   8.750   1.932  1.4887  1.7095 -1.2181
  993MOL0     H34047   1.431   8.954   1.850  1.0341 -0.8153 -0.4663
  993MOL0     H34048   1.280   8.970   1.747 -2.2928  0.0999  1.5343
  993MOL0     H34049   1.343   8.766   1.619 -1.6607  0.8919  3.8302
  993MOL0     H34050   1.475   8.737   1.715 -2.6094 -1.4652  1.2368
  993MOL0     H34051   1.452   8.997   1.541 -0.4892  0.0679  0.6585
  993MOL0     H34052   1.523   8.837   1.491  1.2727 -0.4636  0.3579
  993MOL0     H34053   1.825   8.992   1.738 -0.5003 -0.8208  1.3006
  993MOL0     H34054   1.178   8.491   1.726 -0.8670  0.0535 -0.4504
  993MOL0     H34055   1.066   8.305   1.824 -0.3054 -1.2910  1.6478
  994MOL0     O34056   9.522   0.678   3.065 -0.4840  0.1708 -0.3276
  994MOL0     C34057   9.620   0.720   3.006 -0.0216 -0.2842  0.6190
  994MOL0     O34058   9.752   0.691   3.049 -0.2397  0.3524  0.1870
  994MOL0     C34059   9.762   0.617   3.167 -0.6115  0.7164 -0.1350
  994MOL0     C34060   9.834   0.501   3.165  0.6139  0.9754  0.0822
  994MOL0     C34061   9.862   0.420   3.278 -0.3700 -0.5139  0.0320
  994MOL0     C34062   9.823   0.461   3.407 -0.6613 -0.4153 -0.6549
  994MOL0     O34063   9.873   0.384   3.516  1.1160 -0.2807  0.4880
  994MOL0     C34064   9.816   0.404   3.646 -0.3940  0.2826  0.3218
  994MOL0     C34065   9.885   0.516   3.735 -0.2327  0.7215 -0.0486
  994MOL0     C34066   9.812   0.557   3.867  0.3722  0.9783 -1.1720
  994MOL0     C34067   9.848   0.459   3.979  0.6934  0.4266  0.8429
  994MOL0     C34068   9.792   0.508   4.114 -0.9473  0.4354  0.0478
  994MOL0     C34069   9.831   0.421   4.238  0.6175  0.0708  0.3662
  994MOL0     C34070   9.981   0.432   4.286  0.2141 -0.0894  0.3723
  994MOL0     C34071  10.023   0.312   4.367  0.1649  0.6245 -1.0829
  994MOL0     N34072  10.164   0.325   4.408 -0.0036 -0.4090  0.4609
  994MOL0     C34073  10.237   0.220   4.437 -0.4846  0.5807  0.4135
  994MOL0     C34074  10.360   0.271   4.459 -0.7048  0.6947 -0.4686
  994MOL0     C34075  10.477   0.174   4.496  0.3320 -0.9817  0.1521
  994MOL0     C34076  10.549   0.218   4.626  0.0849  0.0071 -0.0131
  994MOL0     C34077  10.692   0.154   4.638 -0.3498  0.7253  0.4554
  994MOL0     C34078  10.803   0.209   4.559  0.4812 -0.7020  0.0263
  994MOL0     O34079  10.937   0.158   4.577 -0.3444 -0.5582 -0.6985
  994MOL0     C34080  10.974   0.137   4.703  0.5169 -0.1267 -1.1407
  994MOL0     C34081  11.026   0.008   4.742  0.8791 -0.2455  0.0610
  994MOL0     C34082  11.075  -0.009   4.882 -0.1791 -0.2926  0.0205
  994MOL0     C34083  11.137  -0.140   4.923  0.0584  0.5519 -0.7423
  994MOL0     C34084  11.061   0.094   4.981 -0.2116 -0.4224 -0.4812
  994MOL0     C34085  11.098   0.076   5.132 -0.4147  0.3137  0.5460
  994MOL0     O34086  11.179  -0.026   5.174 -0.3727  0.2803  0.4467
  994MOL0     C34087  11.222  -0.034   5.303 -0.0274 -0.8320  0.5405
  994MOL0     C34088  11.170  -0.131   5.385  0.3188  0.1613  0.7185
  994MOL0     C34089  11.205  -0.158   5.520  0.1961 -0.5716 -0.3386
  994MOL0     C34090  11.304  -0.078   5.584  1.0120 -0.1842  0.1723
  994MOL0     O34091  11.361  -0.095   5.708 -0.3384 -0.2061  0.7846
  994MOL0     C34092  11.284  -0.157   5.803 -0.5297  0.0566  0.9845
  994MOL0     C34093  11.367  -0.178   5.921  0.4044  0.9411  0.7730
  994MOL0     C34094  11.489  -0.261   5.886  0.7092 -0.1826 -0.0672
  994MOL0     C34095  11.618  -0.186   5.880 -0.1993  0.4278  0.3683
  994MOL0     C34096  11.742  -0.272   5.836  0.9651 -1.3261 -0.3764
  994MOL0     C34097  11.753  -0.386   5.933 -0.8398  0.9886  0.1815
  994MOL0     C34098  11.894  -0.450   5.936  0.7027 -0.2143  1.0836
  994MOL0     C34099  11.891  -0.584   5.993 -0.1650  0.4071 -0.1991
  994MOL0    Cl34100  11.852  -0.579   6.167  0.6959  0.3346 -0.1577
  994MOL0     C34101  11.361   0.017   5.499  0.7412 -0.2818 -0.1624
  994MOL0     C34102  11.320   0.045   5.364 -0.1023 -0.8264  0.1228
  994MOL0     O34103  11.057   0.164   5.208 -0.6441  0.4788  0.1870
  994MOL0     C34104  11.003   0.213   4.934 -0.8762 -0.1632  0.2116
  994MOL0     C34105  10.963   0.230   4.796 -0.5826 -0.0893  0.4057
  994MOL0     N34106  10.356   0.408   4.460  1.1166  0.0886 -0.5889
  994MOL0     N34107  10.242   0.438   4.423  0.2985 -0.1906  0.3262
  994MOL0     C34108   9.746   0.573   3.418 -1.5181  0.2041  0.8684
  994MOL0     C34109   9.713   0.652   3.307  0.0204 -0.5551  1.0451
  994MOL0     C34110   9.606   0.799   2.890 -0.4672  0.3073 -0.3213
  994MOL0     C34111   9.477   0.821   2.840 -0.7576 -0.0332 -0.1821
  994MOL0     C34112   9.452   0.887   2.718 -0.8648  0.0749 -0.0424
  994MOL0     C34113   9.566   0.921   2.638  0.6583 -0.4787 -0.4421
  994MOL0     O34114   9.548   0.970   2.508 -0.9918 -0.2475 -0.3787
  994MOL0     C34115   9.599   0.895   2.397  0.2900  1.3543  0.1901
  994MOL0     C34116   9.648   0.994   2.300 -0.6073 -0.0342 -0.4943
  994MOL0     C34117   9.549   1.101   2.250  1.0449  0.3626 -1.0542
  994MOL0     C34118   9.466   1.039   2.123  0.0936  0.4806  0.2732
  994MOL0     C34119   9.349   0.956   2.159  1.0727 -0.2382 -1.0543
  994MOL0     C34120   9.258   0.880   2.192  0.2160  0.4807 -1.2785
  994MOL0     C34121   9.697   0.896   2.685 -0.4018  0.4241 -0.6215
  994MOL0     C34122   9.723   0.840   2.810  0.1428 -0.0479  0.1259
  994MOL0     H34123   9.882   0.473   3.072  2.1126  0.6762  0.9059
  994MOL0     H34124   9.899   0.319   3.273 -1.0256 -0.9294  2.3865
  994MOL0     H34125   9.711   0.423   3.621  0.5394  0.3667 -4.7291
  994MOL0     H34126   9.828   0.312   3.704  1.6328  0.8320  0.8427
  994MOL0     H34127   9.989   0.489   3.753  0.2205  1.5115 -1.3772
  994MOL0     H34128   9.869   0.602   3.669 -3.7993  0.2014 -0.0456
  994MOL0     H34129   9.846   0.658   3.889  0.0519  1.0533 -1.0031
  994MOL0     H34130   9.704   0.568   3.849 -0.0916 -2.6442 -1.5583
  994MOL0     H34131   9.808   0.360   3.954 -1.6791  1.4647  0.2655
  994MOL0     H34132   9.957   0.453   3.988  0.8604  2.0956  0.1518
  994MOL0     H34133   9.808   0.611   4.144 -1.0514  0.8065 -1.1152
  994MOL0     H34134   9.684   0.506   4.096 -0.6952  0.8185 -1.6963
  994MOL0     H34135   9.759   0.433   4.320 -3.1853 -5.5550 -1.5735
  994MOL0     H34136   9.820   0.320   4.200  0.7824 -0.6338  2.1129
  994MOL0     H34137  10.052   0.439   4.203  1.9188  1.2058  1.8471
  994MOL0     H34138   9.997   0.519   4.350 -2.3196 -0.0499  1.0386
  994MOL0     H34139  10.014   0.218   4.312 -1.9963  0.8816 -1.2530
  994MOL0     H34140   9.956   0.305   4.453  1.3523 -1.5040 -0.2735
  994MOL0     H34141  10.190   0.123   4.445  0.1598  0.3444  1.5855
  994MOL0     H34142  10.450   0.069   4.484 -1.1722 -0.5490 -0.3867
  994MOL0     H34143  10.547   0.187   4.412 -0.1775 -0.9336 -0.2670
  994MOL0     H34144  10.489   0.193   4.714 -0.6206  1.3709 -0.0726
  994MOL0     H34145  10.573   0.323   4.643  0.0770 -0.3378  2.3527
  994MOL0     H34146  10.686   0.049   4.608  1.5650  1.1416 -1.6822
  994MOL0     H34147  10.714   0.154   4.745  0.8672 -2.8249  0.3228
  994MOL0     H34148  10.809   0.316   4.581 -1.3298 -0.3501 -0.9508
  994MOL0     H34149  10.781   0.212   4.452  1.8848 -2.3630 -0.3477
  994MOL0     H34150  11.015  -0.076   4.674  0.4448 -1.4636  1.5854
  994MOL0     H34151  11.157  -0.212   4.842 -0.3860 -0.6145  0.1509
  994MOL0     H34152  11.235  -0.115   4.962  0.4460  0.9081 -1.9015
  994MOL0     H34153  11.077  -0.194   4.997 -0.1039  2.3490  0.4803
  994MOL0     H34154  11.085  -0.188   5.348  2.0842 -2.7244  0.7981
  994MOL0     H34155  11.152  -0.241   5.566 -0.0236 -1.9528 -2.8998
  994MOL0     H34156  11.196  -0.096   5.825 -1.3545 -0.4016 -0.8169
  994MOL0     H34157  11.242  -0.251   5.766  3.3448 -0.7897 -1.9366
  994MOL0     H34158  11.400  -0.079   5.956  2.0786  0.2787  1.1996
  994MOL0     H34159  11.296  -0.212   5.997 -1.0384 -0.6335 -1.2000
  994MOL0     H34160  11.468  -0.311   5.791 -1.4826 -1.4603  1.0049
  994MOL0     H34161  11.495  -0.337   5.965 -3.6433  1.1224  1.8616
  994MOL0     H34162  11.605  -0.112   5.800 -1.6219 -3.0021 -2.8987
  994MOL0     H34163  11.637  -0.135   5.974  0.5173  0.4981  0.1902
  994MOL0     H34164  11.822  -0.199   5.855  1.5810 -2.0773  0.0010
  994MOL0     H34165  11.742  -0.295   5.729  1.9121  2.7153 -1.4160
  994MOL0     H34166  11.726  -0.354   6.034 -1.9985  0.9313 -0.1019
  994MOL0     H34167  11.681  -0.461   5.900 -1.4346  1.5706  0.1309
  994MOL0     H34168  11.971  -0.390   5.985  0.9004 -0.3953  0.9962
  994MOL0     H34169  11.922  -0.454   5.831 -3.4964  2.5306 -0.3841
  994MOL0     H34170  11.980  -0.642   5.967  0.5571  0.0687  2.7324
  994MOL0     H34171  11.810  -0.639   5.944  0.0497 -2.2203  2.1495
  994MOL0     H34172  11.431   0.076   5.556 -0.4331  0.2991  0.7039
  994MOL0     H34173  11.371   0.119   5.303  2.3793 -1.9600  0.6858
  994MOL0     H34174  10.979   0.296   4.998  0.3634  0.8483 -0.5874
  994MOL0     H34175  10.934   0.330   4.766  0.7219 -0.1886 -1.3863
  994MOL0     H34176   9.715   0.607   3.516 -1.7487 -0.3772  1.0023
  994MOL0     H34177   9.651   0.738   3.328  0.8532 -0.0986  1.7003
  994MOL0     H34178   9.390   0.801   2.901  1.2968 -2.7732  2.1295
  994MOL0     H34179   9.351   0.909   2.687 -0.2003  1.6742 -1.2378
  994MOL0     H34180   9.691   0.837   2.409  0.9358  2.3978  0.3281
  994MOL0     H34181   9.529   0.832   2.342 -1.2449  1.4915  1.8713
  994MOL0     H34182   9.682   0.926   2.222  3.1779  0.7895  0.2446
  994MOL0     H34183   9.743   1.039   2.329  0.7381 -1.9783 -1.6360
  994MOL0     H34184   9.616   1.184   2.223  1.5773 -0.1005 -1.1706
  994MOL0     H34185   9.478   1.122   2.330  0.9161 -0.2719 -1.0005
  994MOL0     H34186   9.523   0.978   2.053  0.6404  0.9110  0.3313
  994MOL0     H34187   9.439   1.120   2.054  0.9027 -1.3043 -2.2829
  994MOL0     H34188   9.182   0.811   2.225  1.0286 -0.1342 -0.6469
  994MOL0     H34189   9.778   0.919   2.616 -1.0683  2.0126 -0.9101
  994MOL0     H34190   9.823   0.813   2.840 -0.6910 -1.6227  1.7157
  995MOL0     O34191   4.033   0.984   1.948  0.3216  0.0741 -0.0600
  995MOL0     C34192   4.001   1.097   1.950 -0.1175  0.4467  0.4323
  995MOL0     O34193   4.096   1.195   1.943 -0.0202 -0.1875  0.0528
  995MOL0     C34194   4.232   1.160   1.932  0.0723  0.1327 -0.0203
  995MOL0     C34195   4.305   1.087   2.019  0.2208  0.8313  0.5287
  995MOL0     C34196   4.444   1.082   2.007 -0.5920  0.7060 -0.3067
  995MOL0     C34197   4.524   1.126   1.901 -0.1213  0.7275  0.1716
  995MOL0     O34198   4.666   1.104   1.895  0.6875 -0.8527 -0.4126
  995MOL0     C34199   4.737   1.173   1.800 -0.5045 -0.0524 -0.9595
  995MOL0     C34200   4.882   1.130   1.779  0.6938  0.0966  0.0933
  995MOL0     C34201   4.949   1.201   1.656 -0.9544 -0.2967  0.3787
  995MOL0     C34202   5.073   1.123   1.629 -0.8474  0.0038  0.9660
  995MOL0     C34203   5.147   1.173   1.510 -0.0279 -0.2848  0.6721
  995MOL0     C34204   5.301   1.136   1.515  0.2722 -0.0498  0.5010
  995MOL0     C34205   5.393   1.180   1.395  0.2313 -0.0811  0.3915
  995MOL0     C34206   5.531   1.166   1.437 -0.0346  0.2364 -0.8056
  995MOL0     N34207   5.635   1.212   1.334 -0.2269 -0.2378  0.4086
  995MOL0     C34208   5.765   1.222   1.348 -0.0554 -0.3560 -0.3725
  995MOL0     C34209   5.823   1.253   1.228  1.1850 -0.0183 -0.3624
  995MOL0     C34210   5.963   1.294   1.197 -0.7462 -0.6956 -0.7512
  995MOL0     C34211   6.021   1.258   1.056 -0.3552  0.3646 -1.2420
  995MOL0     C34212   6.049   1.112   1.025 -0.6064 -0.5080 -1.0345
  995MOL0     C34213   6.093   1.102   0.882 -0.1186  0.1893  0.4331
  995MOL0     O34214   6.217   1.175   0.860  0.4554  0.3425 -0.4283
  995MOL0     C34215   6.281   1.140   0.744 -0.2930  0.5383 -0.0148
  995MOL0     C34216   6.204   1.100   0.628 -0.4932 -0.5203 -0.1362
  995MOL0     C34217   6.275   1.085   0.504  0.0122 -0.2722  0.7797
  995MOL0     C34218   6.182   1.052   0.385 -0.9230 -0.0979 -0.6023
  995MOL0     C34219   6.412   1.107   0.494 -0.2984  0.4748  0.1496
  995MOL0     C34220   6.489   1.098   0.373  0.1222  0.4687 -0.0336
  995MOL0     O34221   6.607   1.161   0.375  0.0418 -0.0954 -0.0123
  995MOL0     C34222   6.676   1.178   0.259 -0.7746 -0.7243 -0.3672
  995MOL0     C34223   6.640   1.286   0.177 -0.6572 -0.5110 -0.0903
  995MOL0     C34224   6.727   1.312   0.065 -0.3318  0.1253  0.6347
  995MOL0     C34225   6.826   1.230   0.018  0.7521  0.2408  0.2561
  995MOL0     O34226   6.882   1.224  -0.103 -0.3326 -0.4177  0.0691
  995MOL0     C34227   6.833   1.300  -0.210 -0.5402 -0.1173  0.5457
  995MOL0     C34228   6.853   1.222  -0.342  0.3259  0.1549  0.8585
  995MOL0     C34229   6.866   1.314  -0.468  0.9520 -0.7639 -0.7699
  995MOL0     C34230   6.815   1.235  -0.591 -0.5455  0.0199 -0.7357
  995MOL0     C34231   6.769   1.331  -0.701 -0.0104  0.0875 -0.2590
  995MOL0     C34232   6.760   1.249  -0.831  0.3626  0.1308 -0.5150
  995MOL0     C34233   6.756   1.331  -0.963 -0.5680  0.2847  0.0755
  995MOL0     C34234   6.621   1.406  -1.000 -0.1247 -0.5781 -0.7028
  995MOL0    Cl34235   6.497   1.284  -1.053  0.3235  0.1428  0.3393
  995MOL0     C34236   6.857   1.118   0.099  0.5650 -0.5033 -0.3765
  995MOL0     C34237   6.786   1.092   0.220  1.0835 -0.2137  0.7942
  995MOL0     O34238   6.435   1.049   0.270 -1.0601 -0.0654 -0.1407
  995MOL0     C34239   6.480   1.144   0.617  0.0362 -0.4190 -0.0918
  995MOL0     C34240   6.418   1.165   0.736  0.3619  0.4361 -0.2503
  995MOL0     N34241   5.718   1.247   1.143  0.0938  0.6346  0.1730
  995MOL0     N34242   5.606   1.233   1.205 -0.2627 -0.0247 -0.1049
  995MOL0     C34243   4.454   1.187   1.803  0.3684 -0.3478 -0.1376
  995MOL0     C34244   4.308   1.203   1.816 -0.5890 -0.5584  0.1376
  995MOL0     C34245   3.860   1.139   1.960  1.3914 -0.3879 -0.1123
  995MOL0     C34246   3.759   1.040   1.947 -0.1849 -1.0231 -0.2288
  995MOL0     C34247   3.621   1.082   1.935 -0.8595 -0.2797 -0.4554
  995MOL0     C34248   3.582   1.214   1.951  0.0061 -0.3381 -0.3601
  995MOL0     O34249   3.447   1.223   1.945  0.0778  0.1507 -0.4993
  995MOL0     C34250   3.401   1.316   2.051 -0.2132 -0.5558 -0.4751
  995MOL0     C34251   3.247   1.341   2.071 -0.0384  0.0837  0.2659
  995MOL0     C34252   3.189   1.211   2.109  0.2465 -0.0188 -0.1406
  995MOL0     C34253   3.039   1.199   2.101 -0.1633 -0.5052 -0.0713
  995MOL0     C34254   2.968   1.285   2.205  0.5033 -0.7629  0.8162
  995MOL0     C34255   2.904   1.335   2.294  0.0279 -0.8638 -0.8284
  995MOL0     C34256   3.684   1.317   1.967  1.0119  0.4177  0.2122
  995MOL0     C34257   3.814   1.282   1.972  0.9102 -0.1319  0.2979
  995MOL0     H34258   4.240   1.051   2.098  0.0852  0.9034  0.4504
  995MOL0     H34259   4.491   1.034   2.093 -0.4408 -1.8654 -1.7231
  995MOL0     H34260   4.699   1.161   1.698 -3.4208 -1.7611  0.1937
  995MOL0     H34261   4.732   1.279   1.822 -1.0236 -0.3439  0.4011
  995MOL0     H34262   4.944   1.159   1.865  1.5899 -2.3220  0.3330
  995MOL0     H34263   4.881   1.021   1.772  1.1966  0.1315 -0.5809
  995MOL0     H34264   4.894   1.219   1.563  0.9832  2.7116 -0.3081
  995MOL0     H34265   4.973   1.306   1.677 -1.7049  0.6174 -2.8432
  995MOL0     H34266   5.137   1.124   1.717  1.9549  1.1072 -0.9491
  995MOL0     H34267   5.056   1.016   1.613  2.6638 -0.7432  1.4536
  995MOL0     H34268   5.098   1.134   1.421 -1.4162  1.1995  0.7357
  995MOL0     H34269   5.154   1.282   1.498 -0.1945 -0.0267  2.5276
  995MOL0     H34270   5.350   1.175   1.606  3.3058  0.2051 -1.1085
  995MOL0     H34271   5.313   1.028   1.529 -3.8022 -0.4348  2.2354
  995MOL0     H34272   5.365   1.128   1.303  3.0127  3.6560 -2.9024
  995MOL0     H34273   5.377   1.283   1.361  4.0255  0.6475  0.3698
  995MOL0     H34274   5.555   1.071   1.486  2.0071  1.0128 -0.1970
  995MOL0     H34275   5.550   1.236   1.519 -1.8295  0.1682 -0.2729
  995MOL0     H34276   5.822   1.205   1.439 -0.7982  1.2143  0.4335
  995MOL0     H34277   5.976   1.400   1.222  1.4191 -1.3330  1.1332
  995MOL0     H34278   6.031   1.243   1.266  1.6528  3.6456  0.5060
  995MOL0     H34279   6.118   1.307   1.073 -0.2015  0.0625 -1.2382
  995MOL0     H34280   5.963   1.298   0.972 -0.9235 -0.8247 -1.4303
  995MOL0     H34281   5.953   1.063   1.044 -0.5318 -0.1897  0.2978
  995MOL0     H34282   6.112   1.073   1.106 -0.9128  0.0118 -0.5370
  995MOL0     H34283   6.013   1.149   0.824  0.4871 -0.8438 -1.3386
  995MOL0     H34284   6.087   0.997   0.851 -1.1661  0.1913  0.6092
  995MOL0     H34285   6.096   1.092   0.632 -0.9200  3.2898 -0.2624
  995MOL0     H34286   6.075   1.070   0.401 -0.6543  1.7186 -0.5678
  995MOL0     H34287   6.200   1.123   0.303  0.8603  1.4809  1.0490
  995MOL0     H34288   6.200   0.948   0.360  0.7629 -0.1163  0.5425
  995MOL0     H34289   6.565   1.358   0.211  0.0708 -0.9320  2.5689
  995MOL0     H34290   6.713   1.399   0.001 -2.1778 -1.0088 -0.6100
  995MOL0     H34291   6.726   1.311  -0.188 -0.3771 -0.1370  1.3681
  995MOL0     H34292   6.880   1.398  -0.212 -0.8688  0.0373 -0.7785
  995MOL0     H34293   6.940   1.157  -0.333  0.2594  0.0709  0.8966
  995MOL0     H34294   6.775   1.147  -0.355  1.5993 -0.9650 -0.8324
  995MOL0     H34295   6.969   1.350  -0.465  0.3030  1.4460 -2.3549
  995MOL0     H34296   6.794   1.395  -0.453  1.2884 -0.5927 -0.0049
  995MOL0     H34297   6.890   1.166  -0.630 -0.4821  0.8585 -2.1515
  995MOL0     H34298   6.732   1.168  -0.566  0.6791  0.0369  4.6304
  995MOL0     H34299   6.840   1.414  -0.712  0.7024 -0.4645  0.1407
  995MOL0     H34300   6.674   1.382  -0.680  0.2550  1.2432 -1.6722
  995MOL0     H34301   6.849   1.184  -0.835 -0.6688 -1.2620 -3.1262
  995MOL0     H34302   6.672   1.184  -0.828 -0.0840  0.7131 -0.8299
  995MOL0     H34303   6.771   1.259  -1.044 -1.0656 -1.7987  1.7186
  995MOL0     H34304   6.839   1.401  -0.963  0.7498 -1.2195  0.7242
  995MOL0     H34305   6.628   1.484  -1.076 -1.5720 -0.5455 -0.8413
  995MOL0     H34306   6.585   1.458  -0.911 -0.4641  0.3202 -1.3564
  995MOL0     H34307   6.940   1.060   0.062  1.4598  0.2783  0.3429
  995MOL0     H34308   6.819   1.018   0.292  0.2552 -3.2455 -1.7131
  995MOL0     H34309   6.585   1.170   0.615  0.1463 -0.8871 -1.4065
  995MOL0     H34310   6.479   1.191   0.822  0.5455  1.1427 -0.5854
  995MOL0     H34311   4.499   1.216   1.708  0.9213 -2.8994 -0.7252
  995MOL0     H34312   4.252   1.250   1.736 -0.7025 -1.5721 -0.3994
  995MOL0     H34313   3.794   0.937   1.955  2.8857  0.0396  1.4769
  995MOL0     H34314   3.544   1.005   1.929 -1.9238  0.8423 -2.0117
  995MOL0     H34315   3.434   1.282   2.149  0.5176  1.6523  0.1191
  995MOL0     H34316   3.433   1.416   2.018  0.0510 -0.5574 -0.2212
  995MOL0     H34317   3.198   1.370   1.977 -1.0148 -2.8866 -0.2398
  995MOL0     H34318   3.222   1.414   2.148  2.1459 -0.4502  1.5547
  995MOL0     H34319   3.229   1.178   2.205  0.1123  1.1429  0.3329
  995MOL0     H34320   3.237   1.128   2.056 -0.0962 -3.0513  3.8259
  995MOL0     H34321   3.001   1.096   2.111 -0.7613 -0.6152 -2.8959
  995MOL0     H34322   3.013   1.230   2.000 -1.1672  0.9208  0.5844
  995MOL0     H34323   2.857   1.365   2.385 -0.6961 -4.5362  0.1454
  995MOL0     H34324   3.663   1.423   1.972  0.1548  0.6570 -4.4968
  995MOL0     H34325   3.903   1.344   1.975  0.4676  0.5791 -0.7206
  996MOL0     O34326  10.358   1.766   7.797 -0.4150 -0.4195  0.4782
  996MOL0     C34327  10.435   1.677   7.851  0.3430 -0.2744  0.3935
  996MOL0     O34328  10.399   1.584   7.938 -0.4149 -0.4051  0.6161
  996MOL0     C34329  10.267   1.561   7.945 -1.1499  0.8908 -0.2248
  996MOL0     C34330  10.194   1.593   8.060 -0.4771  0.0928 -0.0820
  996MOL0     C34331  10.057   1.564   8.069 -0.2708 -0.2932  0.5698
  996MOL0     C34332   9.982   1.526   7.955 -0.1718 -0.4050 -0.1174
  996MOL0     O34333   9.848   1.510   7.939  0.6376  0.2859  0.2705
  996MOL0     C34334   9.770   1.580   8.037 -0.3055  0.2932 -0.2326
  996MOL0     C34335   9.619   1.583   8.004 -0.7015 -0.0992  0.5369
  996MOL0     C34336   9.530   1.599   8.134 -0.0412 -0.1305  0.0137
  996MOL0     C34337   9.378   1.596   8.104  0.6477 -1.7515  0.6367
  996MOL0     C34338   9.345   1.716   8.003 -0.9980 -0.3445 -0.7483
  996MOL0     C34339   9.214   1.782   8.044 -0.2579 -0.0307  0.6522
  996MOL0     C34340   9.177   1.871   7.933  0.8574  1.0680 -0.4220
  996MOL0     C34341   9.025   1.894   7.939  1.0388 -0.6404  1.2136
  996MOL0     N34342   8.974   1.936   8.066  0.7418 -0.5309 -0.1785
  996MOL0     C34343   8.871   1.879   8.126 -0.3213 -0.0721 -0.8895
  996MOL0     C34344   8.830   1.965   8.229 -1.0271 -0.1270  0.8870
  996MOL0     C34345   8.733   1.913   8.327 -0.9432 -0.3092 -0.9654
  996MOL0     C34346   8.719   2.010   8.441 -0.6654 -0.7645 -0.0956
  996MOL0     C34347   8.845   2.032   8.533 -0.0851 -0.4000 -0.1465
  996MOL0     C34348   8.848   1.946   8.659  0.8599  1.1576 -0.4751
  996MOL0     O34349   8.752   1.992   8.752 -0.3287  0.1391 -0.5830
  996MOL0     C34350   8.738   1.946   8.886 -0.0785  0.6537  0.4452
  996MOL0     C34351   8.611   1.958   8.943 -0.0821  0.5387 -0.3070
  996MOL0     C34352   8.579   1.899   9.068 -0.7614  0.3882  0.2017
  996MOL0     C34353   8.439   1.920   9.108 -0.4315  0.5694  0.1480
  996MOL0     C34354   8.675   1.832   9.143 -0.7958  1.4053  1.3656
  996MOL0     C34355   8.653   1.778   9.287  0.4754  0.5884 -0.4396
  996MOL0     O34356   8.522   1.730   9.321 -0.2350 -0.4911  0.3957
  996MOL0     C34357   8.493   1.716   9.455  1.2772 -0.1195 -0.5672
  996MOL0     C34358   8.452   1.591   9.498 -0.8898  0.8261  0.3917
  996MOL0     C34359   8.402   1.568   9.622  0.6684 -0.4313  0.0815
  996MOL0     C34360   8.394   1.678   9.710 -0.1356 -0.1436 -0.1451
  996MOL0     O34361   8.344   1.639   9.830 -0.1126 -1.0028 -0.3523
  996MOL0     C34362   8.267   1.745   9.890 -0.5869  0.3528 -0.6113
  996MOL0     C34363   8.181   1.693  10.010 -0.9714  0.5284  1.4426
  996MOL0     C34364   8.065   1.602   9.960 -0.9388  0.5088 -0.0284
  996MOL0     C34365   8.013   1.524  10.081  1.1217 -0.1254 -0.0228
  996MOL0     C34366   7.882   1.439  10.045  0.8485 -0.2945 -0.7750
  996MOL0     C34367   7.808   1.373  10.164  0.9436  0.4410 -0.1691
  996MOL0     C34368   7.748   1.481  10.258  0.0332  0.0669  0.0809
  996MOL0     C34369   7.656   1.415  10.361 -0.1125 -0.2064 -1.0901
  996MOL0    Cl34370   7.556   1.541  10.448  0.2431  0.8234 -0.5118
  996MOL0     C34371   8.439   1.807   9.674  0.7944 -0.6076 -0.1201
  996MOL0     C34372   8.494   1.822   9.544  1.1269 -0.4063  0.2192
  996MOL0     O34373   8.758   1.761   9.354  0.2410  0.3512 -0.5214
  996MOL0     C34374   8.806   1.842   9.090 -0.4068 -0.4822  0.5367
  996MOL0     C34375   8.841   1.905   8.971  0.2230 -0.0661  0.5172
  996MOL0     N34376   8.910   2.081   8.217 -0.5760  0.1130 -0.8096
  996MOL0     N34377   8.981   2.067   8.107 -0.0385  0.2301 -0.7705
  996MOL0     C34378  10.053   1.513   7.839  0.2888  0.1398  0.3176
  996MOL0     C34379  10.188   1.517   7.834  0.1969  0.5652  0.7645
  996MOL0     C34380  10.578   1.685   7.832 -1.0327  0.3438  0.7072
  996MOL0     C34381  10.630   1.793   7.758 -0.4503  0.4882 -0.3207
  996MOL0     C34382  10.770   1.799   7.723 -0.4179 -0.0288  0.3641
  996MOL0     C34383  10.855   1.699   7.767  0.0725  0.4390 -0.0871
  996MOL0     O34384  10.991   1.681   7.736 -0.7672 -0.5475 -0.1763
  996MOL0     C34385  11.023   1.708   7.598  0.0424  0.6277  0.1532
  996MOL0     C34386  11.170   1.669   7.576  0.1042 -0.3362  0.3060
  996MOL0     C34387  11.258   1.702   7.690  0.3029  0.7930 -0.3285
  996MOL0     C34388  11.255   1.853   7.720 -0.0062  0.3738 -0.9560
  996MOL0     C34389  11.366   1.885   7.816 -0.7404  1.0853  0.0433
  996MOL0     C34390  11.453   1.903   7.906  0.2317  0.0222  0.3367
  996MOL0     C34391  10.810   1.592   7.849  0.7901  0.5487 -0.4235
  996MOL0     C34392  10.678   1.590   7.885 -0.9927  0.1554  0.0357
  996MOL0     H34393  10.241   1.632   8.150  0.9678 -1.8810  0.0910
  996MOL0     H34394  10.015   1.565   8.169  2.1480 -1.1339  1.6827
  996MOL0     H34395   9.772   1.529   8.134 -2.1537 -0.6929 -0.6510
  996MOL0     H34396   9.791   1.687   8.049 -1.1515  0.4489 -0.0872
  996MOL0     H34397   9.598   1.664   7.933  0.2736  2.0005  2.5207
  996MOL0     H34398   9.601   1.483   7.964  0.9036  0.3253 -1.3668
  996MOL0     H34399   9.545   1.520   8.209 -2.3314 -0.0228  0.6484
  996MOL0     H34400   9.548   1.693   8.185  0.9174 -1.7090  2.8164
  996MOL0     H34401   9.352   1.502   8.055  4.6365 -2.1052 -1.2190
  996MOL0     H34402   9.314   1.618   8.190 -1.9279  0.5490 -1.6236
  996MOL0     H34403   9.418   1.798   8.005 -1.6902  0.4286  3.9882
  996MOL0     H34404   9.337   1.675   7.902 -0.5904 -0.7028 -0.6339
  996MOL0     H34405   9.137   1.707   8.065 -0.9367  0.2172 -0.7802
  996MOL0     H34406   9.241   1.839   8.133  2.6257  0.4715 -0.4428
  996MOL0     H34407   9.238   1.961   7.940 -0.5068  1.9641  0.4128
  996MOL0     H34408   9.194   1.823   7.836  1.6352 -0.0309  0.2448
  996MOL0     H34409   8.976   1.800   7.911 -0.0137 -0.0560  1.0297
  996MOL0     H34410   8.991   1.967   7.864  3.1375  0.7959  1.5754
  996MOL0     H34411   8.836   1.779   8.103 -0.8201  0.2172 -1.4399
  996MOL0     H34412   8.634   1.903   8.282 -2.1127  2.7154  0.5961
  996MOL0     H34413   8.770   1.815   8.359  1.1928  1.3979  2.4427
  996MOL0     H34414   8.627   1.986   8.495  0.1067 -1.6579  0.8847
  996MOL0     H34415   8.693   2.107   8.399 -2.8372  0.5862  3.7920
  996MOL0     H34416   8.837   2.138   8.560 -0.2471 -0.4894  0.1731
  996MOL0     H34417   8.941   2.022   8.482 -0.4880 -0.3205 -0.9367
  996MOL0     H34418   8.949   1.946   8.702 -0.1286 -3.5097  2.5142
  996MOL0     H34419   8.819   1.844   8.635  0.6965  0.6823  1.5581
  996MOL0     H34420   8.534   1.998   8.878 -1.2605 -0.9819  0.0911
  996MOL0     H34421   8.367   1.844   9.075  1.5717 -0.8097 -1.2285
  996MOL0     H34422   8.448   1.938   9.216  2.4535 -0.2805  0.1356
  996MOL0     H34423   8.399   2.011   9.063 -0.3671  1.7053  2.2528
  996MOL0     H34424   8.469   1.509   9.429 -2.9004  1.6525 -1.1842
  996MOL0     H34425   8.381   1.465   9.648 -0.0121 -0.0023  1.3172
  996MOL0     H34426   8.329   1.823   9.935  1.1421 -2.2832  2.0070
  996MOL0     H34427   8.197   1.792   9.821 -0.4945 -0.3701 -1.2187
  996MOL0     H34428   8.244   1.632  10.076 -0.7201 -1.4770 -0.5342
  996MOL0     H34429   8.131   1.776  10.061 -1.1415  0.1062  1.9715
  996MOL0     H34430   8.090   1.533   9.879 -1.0489  0.9328 -0.4300
  996MOL0     H34431   7.994   1.677   9.923  1.6818  3.2626  0.1342
  996MOL0     H34432   8.077   1.443  10.116 -1.6900 -1.3482  2.7900
  996MOL0     H34433   7.986   1.591  10.164 -2.0317 -0.8176 -0.3552
  996MOL0     H34434   7.923   1.363   9.978  1.3718 -1.0100  0.3166
  996MOL0     H34435   7.814   1.509   9.995  0.2022  0.4807  1.0954
  996MOL0     H34436   7.730   1.308  10.124 -1.8432  2.8254  0.9532
  996MOL0     H34437   7.869   1.317  10.236 -0.5772 -0.2978  0.5886
  996MOL0     H34438   7.687   1.552  10.202  2.9563  2.8635  0.1853
  996MOL0     H34439   7.836   1.525  10.305  0.9964  0.4547 -1.9803
  996MOL0     H34440   7.712   1.351  10.430  0.8664 -0.5195 -2.1342
  996MOL0     H34441   7.586   1.348  10.311 -1.1975  1.3580 -1.7412
  996MOL0     H34442   8.440   1.891   9.742 -3.1179 -0.7495  0.3727
  996MOL0     H34443   8.548   1.915   9.525 -0.7405  0.6800 -0.0142
  996MOL0     H34444   8.893   1.808   9.145  0.1895  3.6857  2.5135
  996MOL0     H34445   8.949   1.909   8.962  0.5167  0.3552  3.1968
  996MOL0     H34446   9.998   1.487   7.749 -1.0867  0.9584  0.8812
  996MOL0     H34447  10.235   1.489   7.739 -0.1447  2.9975 -0.1922
  996MOL0     H34448  10.568   1.872   7.717  1.8912  2.4196 -0.3579
  996MOL0     H34449  10.803   1.873   7.651 -1.8730 -0.1611 -0.4987
  996MOL0     H34450  10.957   1.640   7.543 -2.0261  0.7766  2.2997
  996MOL0     H34451  11.004   1.813   7.576 -0.8253 -0.0139 -2.5599
  996MOL0     H34452  11.203   1.720   7.485 -1.2555 -1.7929 -1.0721
  996MOL0     H34453  11.182   1.563   7.555 -0.6958 -0.3249 -0.2526
  996MOL0     H34454  11.361   1.667   7.680  0.5519  1.4656 -0.1943
  996MOL0     H34455  11.219   1.661   7.783 -1.1410 -0.5763 -1.4782
  996MOL0     H34456  11.160   1.884   7.764 -0.8087 -1.7564 -1.0694
  996MOL0     H34457  11.267   1.912   7.629 -1.6837  1.3117 -0.6284
  996MOL0     H34458  11.546   1.921   7.956 -0.1138  0.9925  0.6512
  996MOL0     H34459  10.879   1.523   7.896  2.4235  2.4749  0.1351
  996MOL0     H34460  10.652   1.518   7.962  3.3331  0.4262  2.0306
  997MOL0     O34461  11.424   2.044   4.880 -0.2038 -0.3671 -0.7565
  997MOL0     C34462  11.521   1.999   4.944  0.0038 -0.3255 -0.5100
  997MOL0     O34463  11.584   2.064   5.043  0.5935 -0.3459 -0.3419
  997MOL0     C34464  11.570   2.198   5.084  0.7078  0.8294 -0.7170
  997MOL0     C34465  11.495   2.300   5.023  1.0744 -0.2258 -1.0098
  997MOL0     C34466  11.514   2.440   5.058  0.4975  0.0957  0.1811
  997MOL0     C34467  11.612   2.476   5.153  0.5043  0.7361  0.3160
  997MOL0     O34468  11.632   2.606   5.191 -0.0447  0.9198 -1.0145
  997MOL0     C34469  11.710   2.691   5.103 -0.0260  0.2806 -0.0929
  997MOL0     C34470  11.855   2.653   5.089 -1.0816  0.5226  0.6593
  997MOL0     C34471  11.942   2.714   5.197 -0.7399 -0.1472  0.1806
  997MOL0     C34472  11.955   2.618   5.317  0.5081  0.1374 -0.5603
  997MOL0     C34473  12.029   2.676   5.443  0.2464  0.1362  0.2260
  997MOL0     C34474  12.042   2.582   5.559 -0.1881  1.0169 -0.2430
  997MOL0     C34475  12.137   2.459   5.544  0.0402 -0.5652 -0.6438
  997MOL0     C34476  12.164   2.386   5.677 -0.2248  0.1876  0.0441
  997MOL0     N34477  12.217   2.475   5.782  0.6226  0.1880  0.1687
  997MOL0     C34478  12.152   2.537   5.882  1.0032  1.3128 -0.1217
  997MOL0     C34479  12.250   2.590   5.954  0.1581 -0.3895  0.0157
  997MOL0     C34480  12.237   2.687   6.074  0.3556  0.2498  0.2723
  997MOL0     C34481  12.350   2.784   6.083  0.0747 -0.7214  0.5882
  997MOL0     C34482  12.322   2.889   6.198  0.4224  0.6008  0.2183
  997MOL0     C34483  12.446   2.934   6.269  0.0251 -0.3693 -0.3408
  997MOL0     O34484  12.518   3.018   6.183  0.2527  0.0437  0.0636
  997MOL0     C34485  12.652   3.021   6.195  1.4888 -0.2754 -0.4579
  997MOL0     C34486  12.719   3.021   6.322  0.6633 -0.0400 -0.2529
  997MOL0     C34487  12.860   3.046   6.336  0.6678  0.3457 -0.0548
  997MOL0     C34488  12.925   3.015   6.472  0.9764 -0.6584  0.1045
  997MOL0     C34489  12.935   3.085   6.219 -0.1099 -0.0407 -0.5661
  997MOL0     C34490  13.084   3.119   6.220  0.3752  0.1957  0.9288
  997MOL0     O34491  13.146   3.117   6.093  0.0664  0.9005 -0.3978
  997MOL0     C34492  13.282   3.148   6.103  0.9075 -0.9182 -0.5647
  997MOL0     C34493  13.365   3.041   6.139 -0.1908 -0.7390  0.3500
  997MOL0     C34494  13.502   3.055   6.153 -0.2750  1.0819  0.1103
  997MOL0     C34495  13.559   3.180   6.108  0.5250 -0.7718  0.1135
  997MOL0     O34496  13.693   3.222   6.100 -0.4708  0.4139 -0.4947
  997MOL0     C34497  13.789   3.121   6.127  1.8300  0.1087 -0.1564
  997MOL0     C34498  13.925   3.180   6.101 -1.1147  0.9724 -0.4569
  997MOL0     C34499  14.063   3.111   6.135  0.6252  0.6431  0.1606
  997MOL0     C34500  14.055   3.075   6.284  0.3320  0.5879  1.1880
  997MOL0     C34501  14.162   2.976   6.324 -0.6714 -0.5271  1.5510
  997MOL0     C34502  14.265   3.057   6.401  0.5889  0.7020 -1.0123
  997MOL0     C34503  14.385   2.977   6.453 -0.3381 -0.3332 -0.4513
  997MOL0     C34504  14.395   2.965   6.606  0.2108  0.7508  0.5262
  997MOL0    Cl34505  14.447   3.115   6.675 -0.2432 -0.1779 -0.1060
  997MOL0     C34506  13.471   3.282   6.057 -0.4726  0.3040 -0.4233
  997MOL0     C34507  13.331   3.266   6.047 -0.6040 -0.3235  0.1523
  997MOL0     O34508  13.143   3.151   6.326 -0.0260  0.4954  0.8134
  997MOL0     C34509  12.866   3.090   6.100  0.0452  0.7423  0.3754
  997MOL0     C34510  12.726   3.058   6.079  0.3492 -0.2526 -0.5474
  997MOL0     N34511  12.366   2.554   5.902  0.5056  0.2073 -0.3826
  997MOL0     N34512  12.345   2.486   5.803  0.2907  0.8180 -0.0671
  997MOL0     C34513  11.673   2.366   5.221  0.4846 -0.6858 -0.0696
  997MOL0     C34514  11.647   2.233   5.189  0.0107  0.9848  1.0138
  997MOL0     C34515  11.566   1.861   4.909 -0.1903 -0.1412  0.4207
  997MOL0     C34516  11.513   1.791   4.793  0.5537 -0.1535  0.2301
  997MOL0     C34517  11.558   1.665   4.759  0.7368  0.6050 -0.4410
  997MOL0     C34518  11.658   1.602   4.845 -0.6990  0.0908  0.5851
  997MOL0     O34519  11.698   1.475   4.814  0.2409 -0.0136  0.2788
  997MOL0     C34520  11.681   1.428   4.682 -0.3817  0.2938  0.8772
  997MOL0     C34521  11.775   1.303   4.672 -1.1449 -0.8237  0.5869
  997MOL0     C34522  11.927   1.332   4.667 -0.0593 -0.1838 -0.1053
  997MOL0     C34523  11.983   1.332   4.816 -0.5167  1.0920 -0.2337
  997MOL0     C34524  12.132   1.360   4.823 -0.0513  0.0539 -0.1278
  997MOL0     C34525  12.257   1.358   4.817  1.6763 -0.2429 -0.2752
  997MOL0     C34526  11.702   1.665   4.967 -0.8150  0.0983  0.0481
  997MOL0     C34527  11.666   1.795   4.990  0.2658 -0.3162 -0.1867
  997MOL0     H34528  11.411   2.269   4.961 -0.6846  2.4186 -0.1316
  997MOL0     H34529  11.442   2.508   5.013 -0.8322 -1.0942  0.4499
  997MOL0     H34530  11.657   2.692   5.007 -1.7705 -0.6095  0.8021
  997MOL0     H34531  11.698   2.786   5.154 -2.5350 -0.9240  1.7672
  997MOL0     H34532  11.877   2.547   5.070 -1.4295  0.7046 -0.8738
  997MOL0     H34533  11.907   2.693   5.002  1.0981 -0.7601  1.2813
  997MOL0     H34534  12.043   2.741   5.165 -0.7065  2.4117  2.1104
  997MOL0     H34535  11.908   2.814   5.226 -0.0792  0.7621 -1.9573
  997MOL0     H34536  11.858   2.578   5.348  0.3799  0.1118 -0.9982
  997MOL0     H34537  12.018   2.536   5.281  0.4029 -0.7392  1.1343
  997MOL0     H34538  12.132   2.703   5.415  0.0008  2.1282  1.0632
  997MOL0     H34539  11.978   2.762   5.485 -1.6012 -0.9433  0.3067
  997MOL0     H34540  12.071   2.640   5.647 -1.3402 -1.2184  1.7358
  997MOL0     H34541  11.940   2.546   5.577  0.0088  0.8234  0.4976
  997MOL0     H34542  12.098   2.387   5.471 -1.4184  0.9565 -1.4527
  997MOL0     H34543  12.231   2.504   5.510 -0.9221  0.4447 -2.0920
  997MOL0     H34544  12.236   2.304   5.663  0.8892  1.4106 -1.8815
  997MOL0     H34545  12.080   2.326   5.713 -0.1314 -0.4437 -0.7700
  997MOL0     H34546  12.046   2.547   5.901  0.9203 -0.9224  0.8165
  997MOL0     H34547  12.137   2.732   6.074 -0.2397 -1.0042 -0.7160
  997MOL0     H34548  12.234   2.617   6.158  0.4768  0.6446  0.6125
  997MOL0     H34549  12.358   2.836   5.987 -0.7540 -0.3215  0.7295
  997MOL0     H34550  12.445   2.730   6.097  0.1252 -0.6104  0.6738
  997MOL0     H34551  12.265   2.849   6.282  1.6063  2.7918  2.1831
  997MOL0     H34552  12.267   2.976   6.162  0.6393  0.0039 -1.6756
  997MOL0     H34553  12.510   2.850   6.298  0.7136 -1.4969 -4.5335
  997MOL0     H34554  12.428   2.988   6.362  0.5676  0.3751 -0.6606
  997MOL0     H34555  12.667   3.006   6.416  2.1957  0.4238  0.7146
  997MOL0     H34556  13.034   3.003   6.474  1.6563  3.8191  0.6018
  997MOL0     H34557  12.889   3.099   6.532  2.4353  0.9861 -1.2127
  997MOL0     H34558  12.893   2.918   6.510  0.3696 -0.3841  0.2918
  997MOL0     H34559  13.310   2.954   6.175  0.7506 -0.2929  3.1030
  997MOL0     H34560  13.573   2.980   6.186 -2.1362  0.4922  3.0964
  997MOL0     H34561  13.770   3.100   6.233 -0.0481  2.5624  0.0911
  997MOL0     H34562  13.767   3.034   6.064  5.7142 -0.6183 -0.7257
  997MOL0     H34563  13.933   3.189   5.992 -1.3617  1.5595 -0.4286
  997MOL0     H34564  13.935   3.275   6.155  4.0316 -0.4805  1.7550
  997MOL0     H34565  14.148   3.178   6.117 -0.5489  2.0912 -0.1686
  997MOL0     H34566  14.063   3.018   6.076  1.1071  0.1911  0.8638
  997MOL0     H34567  14.048   3.165   6.345  1.3862  1.1343  0.5207
  997MOL0     H34568  13.957   3.026   6.290  0.8642 -1.2250 -2.1781
  997MOL0     H34569  14.206   2.941   6.230  0.1717 -0.3155  1.8550
  997MOL0     H34570  14.127   2.893   6.386 -0.5963 -0.0216  2.2877
  997MOL0     H34571  14.293   3.147   6.346 -0.3361  1.8147  0.2580
  997MOL0     H34572  14.221   3.084   6.497  1.6676 -0.3288 -0.2040
  997MOL0     H34573  14.470   3.029   6.407 -1.5057  0.4747 -1.7802
  997MOL0     H34574  14.370   2.877   6.412 -1.5699  0.5150 -2.2179
  997MOL0     H34575  14.474   2.892   6.626 -0.4842 -0.5973 -1.3351
  997MOL0     H34576  14.306   2.927   6.658 -0.8457 -0.3584 -1.9374
  997MOL0     H34577  13.505   3.379   6.024  0.0510  0.8748  1.6797
  997MOL0     H34578  13.264   3.340   6.006  0.7669  2.5718  2.6756
  997MOL0     H34579  12.930   3.116   6.016  1.4345 -1.1537  0.7972
  997MOL0     H34580  12.674   3.070   5.985 -0.5467  2.9979  0.2415
  997MOL0     H34581  11.721   2.385   5.316  0.9604  0.1973 -0.4781
  997MOL0     H34582  11.688   2.157   5.256  1.5114 -0.1687 -1.1030
  997MOL0     H34583  11.434   1.841   4.738  2.2538  3.5500  0.8233
  997MOL0     H34584  11.520   1.622   4.667  0.2146 -3.5926  1.4958
  997MOL0     H34585  11.578   1.394   4.667 -0.0097 -0.1265 -0.9958
  997MOL0     H34586  11.703   1.502   4.603 -2.4833 -0.9673 -1.0338
  997MOL0     H34587  11.763   1.251   4.577  0.0196 -1.6083  0.8447
  997MOL0     H34588  11.762   1.231   4.754  3.2968 -2.4203  0.1552
  997MOL0     H34589  11.946   1.430   4.622  2.9424 -0.6920 -0.1848
  997MOL0     H34590  11.982   1.259   4.606  0.7591 -0.2222  0.6597
  997MOL0     H34591  11.970   1.230   4.853  1.4290  0.0257 -2.1996
  997MOL0     H34592  11.935   1.405   4.881  0.7263  0.3112  1.6546
  997MOL0     H34593  12.362   1.350   4.837  1.3428 -3.8790  0.5796
  997MOL0     H34594  11.777   1.611   5.024  1.4753 -0.3762 -3.1034
  997MOL0     H34595  11.711   1.862   5.063  1.5290 -0.3642 -0.8896
  998MOL0     O34596   4.257   3.780   8.370 -0.3714 -0.3875 -0.0207
  998MOL0     C34597   4.250   3.897   8.421  0.7656 -0.5790  0.0753
  998MOL0     O34598   4.321   3.935   8.526 -0.1144 -0.1518  0.0157
  998MOL0     C34599   4.393   3.844   8.600 -0.6603  1.0793  0.0277
  998MOL0     C34600   4.362   3.704   8.630 -0.4050  0.1235 -0.0642
  998MOL0     C34601   4.466   3.623   8.687  0.0322 -0.0662 -0.9341
  998MOL0     C34602   4.582   3.678   8.734 -0.7656 -0.3264  0.4928
  998MOL0     O34603   4.672   3.587   8.801  1.0359  0.2430 -0.0697
  998MOL0     C34604   4.770   3.638   8.887  0.0524 -0.9322  1.3015
  998MOL0     C34605   4.844   3.538   8.960 -0.4567  0.2085 -0.0331
  998MOL0     C34606   4.933   3.451   8.863  0.5538 -0.1880  0.4202
  998MOL0     C34607   4.954   3.313   8.932  0.4947 -0.1918  0.1730
  998MOL0     C34608   5.014   3.193   8.858 -1.0779 -0.2398  0.1490
  998MOL0     C34609   4.934   3.131   8.741 -1.6693  0.5985  0.8129
  998MOL0     C34610   4.781   3.100   8.779  0.1563  0.2208  0.0378
  998MOL0     C34611   4.690   3.215   8.743  0.1221 -2.1584 -0.3910
  998MOL0     N34612   4.543   3.188   8.758  0.0205 -0.0554  0.2691
  998MOL0     C34613   4.462   3.077   8.745  0.4972  0.1894  0.6929
  998MOL0     C34614   4.333   3.127   8.736  0.0893 -0.4319  0.1675
  998MOL0     C34615   4.202   3.060   8.705  1.3200  0.0208  0.0819
  998MOL0     C34616   4.154   3.084   8.565 -0.7620 -0.1946 -0.3667
  998MOL0     C34617   4.090   3.235   8.561  0.4721 -0.3159  0.1280
  998MOL0     C34618   4.162   3.339   8.477  1.2671  0.2248  0.9392
  998MOL0     O34619   4.157   3.298   8.339 -0.2277  0.1694  0.4582
  998MOL0     C34620   4.251   3.345   8.259  0.2131 -0.9894  0.5077
  998MOL0     C34621   4.285   3.269   8.150 -0.6732 -0.3703  0.4395
  998MOL0     C34622   4.389   3.295   8.063 -0.5921 -0.8252 -0.6984
  998MOL0     C34623   4.423   3.194   7.961 -0.2266 -0.8200  0.3617
  998MOL0     C34624   4.457   3.425   8.084  0.9500 -0.0629  0.8501
  998MOL0     C34625   4.571   3.464   7.992  0.4258 -0.6938 -0.3744
  998MOL0     O34626   4.631   3.582   8.032  0.7604 -0.2230 -0.1680
  998MOL0     C34627   4.753   3.626   7.987 -0.2663  0.3357  0.9244
  998MOL0     C34628   4.753   3.747   7.911  0.1729 -0.0356  0.3394
  998MOL0     C34629   4.872   3.807   7.865  0.4030  0.9161 -0.7103
  998MOL0     C34630   4.994   3.737   7.894  0.3385 -0.1888  0.7271
  998MOL0     O34631   5.120   3.773   7.849 -0.6554 -0.3400 -0.1513
  998MOL0     C34632   5.132   3.827   7.717 -0.2252  0.2722 -0.1785
  998MOL0     C34633   5.277   3.866   7.698  0.2949 -0.5619 -1.4257
  998MOL0     C34634   5.313   3.990   7.791 -0.3420  0.3910 -0.8317
  998MOL0     C34635   5.454   4.058   7.779  0.0700  0.4538  0.2785
  998MOL0     C34636   5.464   4.160   7.899  0.1658 -0.1564 -0.4938
  998MOL0     C34637   5.603   4.200   7.941  0.5776  0.4358 -0.3548
  998MOL0     C34638   5.608   4.299   8.073  0.1253  0.3607 -0.5924
  998MOL0     C34639   5.548   4.428   8.037  0.7946  0.3005 -0.5549
  998MOL0    Cl34640   5.634   4.529   7.918  0.8192  0.9746 -0.3809
  998MOL0     C34641   4.985   3.619   7.967  0.8692 -0.7044 -0.3027
  998MOL0     C34642   4.868   3.564   8.012 -0.1409  0.4698  0.3275
  998MOL0     O34643   4.608   3.398   7.895  0.0857  0.7325 -0.1641
  998MOL0     C34644   4.420   3.508   8.191  0.4145  0.3669 -0.5310
  998MOL0     C34645   4.311   3.473   8.271  0.0638  0.8179 -1.3506
  998MOL0     N34646   4.346   3.267   8.774 -0.6879  0.2462 -0.0550
  998MOL0     N34647   4.465   3.290   8.798  0.0445  1.2308  0.4719
  998MOL0     C34648   4.609   3.820   8.721 -0.0271 -0.3322 -0.6489
  998MOL0     C34649   4.515   3.900   8.650 -0.7971  0.0737 -0.4667
  998MOL0     C34650   4.182   4.015   8.356 -0.9471 -0.0132  0.3881
  998MOL0     C34651   4.196   4.149   8.398 -0.9853  0.0227 -0.6598
  998MOL0     C34652   4.136   4.254   8.329  0.2236  0.2794  1.1968
  998MOL0     C34653   4.053   4.226   8.215  0.1216  0.7549 -0.7665
  998MOL0     O34654   3.976   4.312   8.144  0.1454  0.7555  0.6175
  998MOL0     C34655   3.974   4.452   8.165  0.4429 -0.4715 -0.3282
  998MOL0     C34656   3.823   4.494   8.163 -0.0931 -0.2189  0.4407
  998MOL0     C34657   3.801   4.638   8.155  0.0383 -0.2344 -0.2099
  998MOL0     C34658   3.659   4.683   8.109  0.3541 -0.2709 -0.4736
  998MOL0     C34659   3.662   4.825   8.063 -0.6830 -0.9087 -0.0298
  998MOL0     C34660   3.672   4.945   8.035  0.3038  0.3066  0.7308
  998MOL0     C34661   4.035   4.091   8.184 -1.1600  0.5130  1.0438
  998MOL0     C34662   4.100   3.986   8.249 -0.0930 -0.4412  0.4433
  998MOL0     H34663   4.271   3.653   8.600 -1.0730  0.1583  1.7559
  998MOL0     H34664   4.450   3.515   8.683 -2.6424  0.2108  0.6519
  998MOL0     H34665   4.838   3.708   8.838  0.2155 -0.7772  1.7452
  998MOL0     H34666   4.721   3.703   8.960 -1.8352  0.4257 -0.9967
  998MOL0     H34667   4.910   3.590   9.030 -1.0247 -0.1151  0.7438
  998MOL0     H34668   4.771   3.478   9.014 -2.0376  0.4921 -1.7484
  998MOL0     H34669   4.886   3.445   8.765  0.9084  1.2503  0.1448
  998MOL0     H34670   5.028   3.500   8.842 -0.5278  2.0939  0.4995
  998MOL0     H34671   5.016   3.332   9.020 -0.8141  3.3458  0.4617
  998MOL0     H34672   4.859   3.270   8.965 -0.4943  0.6850 -1.4250
  998MOL0     H34673   5.118   3.212   8.832 -1.6354  0.7446 -1.4914
  998MOL0     H34674   5.021   3.121   8.940 -3.4018 -1.0535 -0.2723
  998MOL0     H34675   4.929   3.197   8.654 -3.1436 -0.7296 -0.1704
  998MOL0     H34676   4.984   3.037   8.716 -0.5589  1.8112 -1.9312
  998MOL0     H34677   4.750   3.007   8.731 -0.0153 -0.2613  1.0537
  998MOL0     H34678   4.767   3.081   8.886 -3.7792  0.7417 -0.2688
  998MOL0     H34679   4.708   3.252   8.642  2.1651 -1.1817  0.2701
  998MOL0     H34680   4.722   3.299   8.806  1.6257 -3.2973  0.4459
  998MOL0     H34681   4.488   2.975   8.720  2.0742  1.2625 -2.6467
  998MOL0     H34682   4.209   2.952   8.721 -1.4203 -0.0358  1.5353
  998MOL0     H34683   4.130   3.090   8.781  0.9201 -2.2476  0.6521
  998MOL0     H34684   4.073   3.015   8.543  0.1420 -1.1090 -0.9263
  998MOL0     H34685   4.226   3.066   8.484 -1.0275 -0.8204 -0.4652
  998MOL0     H34686   4.081   3.268   8.665 -0.8101 -0.7189  0.1617
  998MOL0     H34687   3.993   3.208   8.518  0.6037 -4.4098  1.8926
  998MOL0     H34688   4.263   3.357   8.514  0.3904  1.0477  3.0973
  998MOL0     H34689   4.108   3.434   8.488  0.3203 -0.1669 -0.1137
  998MOL0     H34690   4.226   3.178   8.138  1.6150 -1.9696  0.7547
  998MOL0     H34691   4.526   3.155   7.965 -0.7411 -2.2336  0.3930
  998MOL0     H34692   4.354   3.109   7.967 -1.0587 -0.4140 -2.2771
  998MOL0     H34693   4.421   3.228   7.857 -1.3807 -1.7044  0.0790
  998MOL0     H34694   4.666   3.798   7.873  1.7946  4.2499  1.7920
  998MOL0     H34695   4.887   3.901   7.812  5.2993  0.1074 -1.2151
  998MOL0     H34696   5.121   3.745   7.645  1.5161  0.1552 -0.3431
  998MOL0     H34697   5.061   3.907   7.692 -1.0998 -1.1922 -2.7993
  998MOL0     H34698   5.337   3.776   7.714 -0.8591 -1.2385 -0.7021
  998MOL0     H34699   5.294   3.895   7.594  0.4733 -0.3531 -1.3371
  998MOL0     H34700   5.290   3.964   7.895 -1.5734 -2.7154 -1.7460
  998MOL0     H34701   5.244   4.072   7.773 -0.4226  1.2969  2.7761
  998MOL0     H34702   5.535   3.985   7.774 -1.5235 -1.3959  0.4090
  998MOL0     H34703   5.454   4.108   7.682  3.5149  0.0025 -0.0602
  998MOL0     H34704   5.419   4.102   7.980 -2.1092  1.7060 -0.3421
  998MOL0     H34705   5.415   4.256   7.880 -1.9125 -0.9566  0.5380
  998MOL0     H34706   5.658   4.108   7.965 -0.9495 -0.6061 -0.6831
  998MOL0     H34707   5.664   4.245   7.862 -1.0278 -1.0209 -2.5393
  998MOL0     H34708   5.714   4.315   8.097  0.6641 -0.1658 -2.4085
  998MOL0     H34709   5.549   4.267   8.159 -3.7931  5.2207 -1.0028
  998MOL0     H34710   5.557   4.481   8.132  3.9255 -2.2724  0.7871
  998MOL0     H34711   5.442   4.417   8.012  0.3093 -0.1442  1.4898
  998MOL0     H34712   5.084   3.586   7.998  1.7063  1.7741 -0.1152
  998MOL0     H34713   4.862   3.470   8.064  1.2408 -0.4119 -1.0197
  998MOL0     H34714   4.471   3.600   8.219 -1.1833  0.5134  2.2483
  998MOL0     H34715   4.270   3.537   8.348 -0.2345 -0.1187 -0.7017
  998MOL0     H34716   4.699   3.864   8.763  1.3035 -1.4420 -2.2140
  998MOL0     H34717   4.541   4.005   8.644  2.4345 -0.5327  0.7035
  998MOL0     H34718   4.259   4.168   8.484 -1.8349  0.8534 -0.1952
  998MOL0     H34719   4.161   4.353   8.364 -0.1768  1.8373 -2.4918
  998MOL0     H34720   4.024   4.486   8.256  1.8160 -0.1962 -1.1659
  998MOL0     H34721   4.031   4.496   8.083  1.9663 -0.5626  0.6363
  998MOL0     H34722   3.780   4.463   8.258  0.6355 -1.5289  0.3623
  998MOL0     H34723   3.768   4.441   8.085  0.7701  1.1726 -1.2032
  998MOL0     H34724   3.874   4.679   8.084  1.3669 -2.1222 -0.0222
  998MOL0     H34725   3.822   4.689   8.249 -1.6136 -1.0067  0.6155
  998MOL0     H34726   3.587   4.667   8.190 -0.6958  1.1511 -1.0858
  998MOL0     H34727   3.631   4.627   8.019  2.3049 -0.3566 -1.0726
  998MOL0     H34728   3.674   5.051   8.019 -1.3934  0.5508  1.8362
  998MOL0     H34729   3.978   4.061   8.096  1.9400 -5.3418  0.5110
  998MOL0     H34730   4.089   3.884   8.216  4.0099 -0.1561 -2.6714
  999MOL0     O34731   3.775   7.747   7.159 -0.1197 -0.0776 -0.6812
  999MOL0     C34732   3.766   7.651   7.237 -0.1213 -0.0836 -0.3251
  999MOL0     O34733   3.870   7.572   7.270  0.1874 -0.3876 -0.2820
  999MOL0     C34734   3.998   7.615   7.229  0.7868  0.0705 -0.0738
  999MOL0     C34735   4.082   7.678   7.320 -0.3205  0.6219 -0.1300
  999MOL0     C34736   4.211   7.697   7.287 -0.0261  0.1537  0.1125
  999MOL0     C34737   4.248   7.662   7.150 -0.8635  0.2992  0.4353
  999MOL0     O34738   4.373   7.686   7.093  0.2171  0.1368 -0.7532
  999MOL0     C34739   4.480   7.712   7.187 -0.7333  0.6563  0.7605
  999MOL0     C34740   4.605   7.693   7.091 -0.0347  0.0345 -0.3306
  999MOL0     C34741   4.622   7.808   6.998  0.6876  0.0309 -0.7668
  999MOL0     C34742   4.762   7.866   7.003  0.3000  1.0793  0.2492
  999MOL0     C34743   4.770   8.008   6.934 -0.7604  0.0037  0.3467
  999MOL0     C34744   4.918   8.066   6.942 -0.8579  0.2223  0.7955
  999MOL0     C34745   4.928   8.179   6.836  0.1713  0.3386  0.3612
  999MOL0     C34746   4.964   8.139   6.689  1.1917 -0.4539 -0.6281
  999MOL0     N34747   5.003   8.258   6.607 -0.2733 -0.8461  1.2033
  999MOL0     C34748   5.135   8.300   6.596  0.0327 -0.5987  0.9008
  999MOL0     C34749   5.125   8.435   6.551  1.1197  0.1500  0.7543
  999MOL0     C34750   5.239   8.524   6.514  0.1590  0.4341 -0.2070
  999MOL0     C34751   5.349   8.526   6.624 -0.2393 -0.2134  0.0616
  999MOL0     C34752   5.447   8.639   6.587  0.7346  0.2745  0.7211
  999MOL0     C34753   5.391   8.782   6.607 -0.7129 -0.3792  0.1969
  999MOL0     O34754   5.342   8.831   6.488 -0.2079 -0.0609  0.3237
  999MOL0     C34755   5.270   8.945   6.471  0.4380 -1.0913 -0.9089
  999MOL0     C34756   5.223   9.040   6.566  0.3529 -0.4080 -0.7435
  999MOL0     C34757   5.159   9.159   6.539  0.4675 -0.5179  0.0108
  999MOL0     C34758   5.122   9.241   6.662 -0.5368  0.1397  0.2693
  999MOL0     C34759   5.130   9.190   6.402 -0.2793  0.0326  0.0243
  999MOL0     C34760   5.081   9.315   6.353 -0.5092 -0.2079  0.4154
  999MOL0     O34761   5.024   9.314   6.226  0.5151 -0.5664  0.2491
  999MOL0     C34762   4.955   9.427   6.172 -0.9359  0.0625 -0.3417
  999MOL0     C34763   4.866   9.500   6.238  0.0739  1.3729  0.4881
  999MOL0     C34764   4.793   9.598   6.172 -0.5906  1.6799 -0.4370
  999MOL0     C34765   4.824   9.638   6.039  0.1357 -0.5123 -0.3815
  999MOL0     O34766   4.778   9.741   5.967  0.6388 -0.1426 -0.4287
  999MOL0     C34767   4.705   9.841   6.033 -0.0511 -0.0436  0.3677
  999MOL0     C34768   4.718   9.972   5.969  0.2846 -0.4553  0.2147
  999MOL0     C34769   4.664  10.083   6.058  0.5878  0.2009  0.6738
  999MOL0     C34770   4.688  10.213   5.979  0.1691 -1.0257 -0.1646
  999MOL0     C34771   4.572  10.305   6.009  0.4049 -0.1203 -0.2624
  999MOL0     C34772   4.610  10.452   5.980 -0.6386 -0.2558 -0.5447
  999MOL0     C34773   4.494  10.540   6.014 -0.0015 -0.6675 -0.1220
  999MOL0     C34774   4.535  10.692   5.985  0.8464  0.5145  0.1778
  999MOL0    Cl34775   4.431  10.801   6.096 -0.6910 -0.3623  0.3211
  999MOL0     C34776   4.913   9.549   5.969 -1.0865 -1.6205  0.2280
  999MOL0     C34777   4.974   9.443   6.035  0.0974 -0.4029 -0.5140
  999MOL0     O34778   5.089   9.409   6.429  0.6766 -0.0772  0.2042
  999MOL0     C34779   5.171   9.097   6.307  1.6421  0.9348  0.3106
  999MOL0     C34780   5.238   8.975   6.341  0.4938  0.8915 -0.9608
  999MOL0     N34781   4.996   8.471   6.562  0.1592  0.2182 -0.1010
  999MOL0     N34782   4.920   8.368   6.591  0.0969 -0.5994 -0.1362
  999MOL0     C34783   4.168   7.599   7.066  0.4695 -1.0340  0.4640
  999MOL0     C34784   4.039   7.568   7.107 -1.1877 -0.8082 -0.3185
  999MOL0     C34785   3.645   7.631   7.315 -0.0530  0.0374 -0.3494
  999MOL0     C34786   3.530   7.710   7.296  0.1467 -0.6430 -0.0674
  999MOL0     C34787   3.414   7.690   7.380 -0.0731  0.3257  1.2192
  999MOL0     C34788   3.413   7.594   7.483  0.0144  0.5995 -0.5756
  999MOL0     O34789   3.323   7.581   7.587  0.5470  0.3505  0.5971
  999MOL0     C34790   3.184   7.570   7.555  0.3208  0.2375  0.5674
  999MOL0     C34791   3.149   7.423   7.523 -0.2554  0.1269 -0.7332
  999MOL0     C34792   3.175   7.393   7.376  0.5965  0.5652 -0.6979
  999MOL0     C34793   3.151   7.244   7.335 -0.4494  0.2754  0.8399
  999MOL0     C34794   3.247   7.161   7.406 -0.6078 -0.6686  0.0092
  999MOL0     C34795   3.305   7.093   7.487 -0.1256 -1.2643  0.0464
  999MOL0     C34796   3.535   7.533   7.508  0.1529  0.1624  0.1628
  999MOL0     C34797   3.638   7.539   7.418  0.8274  0.4609 -0.6699
  999MOL0     H34798   4.045   7.689   7.422 -1.1477  0.9127 -0.4567
  999MOL0     H34799   4.263   7.736   7.373 -0.7724 -2.3326  1.8252
  999MOL0     H34800   4.480   7.812   7.232  1.0563  0.4148  1.3988
  999MOL0     H34801   4.480   7.635   7.266  0.8963  0.3408  0.4879
  999MOL0     H34802   4.686   7.694   7.163 -1.2540 -2.0254  1.1717
  999MOL0     H34803   4.608   7.595   7.043 -4.3902 -0.3495 -0.2546
  999MOL0     H34804   4.601   7.781   6.894 -0.7209  2.5447 -1.2039
  999MOL0     H34805   4.546   7.883   7.020 -0.8910 -1.7418  0.0619
  999MOL0     H34806   4.803   7.871   7.104  3.2501 -1.6390 -0.6396
  999MOL0     H34807   4.834   7.801   6.951  3.2985  3.5037  1.0613
  999MOL0     H34808   4.731   8.022   6.833 -2.3339  3.3123  1.2725
  999MOL0     H34809   4.705   8.080   6.985 -0.4128  1.2370 -0.8918
  999MOL0     H34810   4.954   8.101   7.039 -0.8002 -0.2001  0.9279
  999MOL0     H34811   4.980   7.979   6.920 -3.2560 -1.4192  0.1950
  999MOL0     H34812   4.834   8.235   6.851  0.0881 -0.4920  3.5181
  999MOL0     H34813   5.008   8.251   6.856  1.4120 -0.5112 -1.3295
  999MOL0     H34814   4.882   8.079   6.647  0.7003 -1.2836  1.3869
  999MOL0     H34815   5.060   8.088   6.693  1.3820 -0.0550  0.0290
  999MOL0     H34816   5.223   8.237   6.582 -2.6527 -4.1439 -2.2333
  999MOL0     H34817   5.281   8.499   6.416  0.2366 -1.4769  0.2684
  999MOL0     H34818   5.191   8.622   6.505 -6.9116 -2.3391  1.4783
  999MOL0     H34819   5.399   8.429   6.626  1.1493  0.4556 -0.2628
  999MOL0     H34820   5.320   8.551   6.726  3.0916  4.8025  0.1820
  999MOL0     H34821   5.499   8.627   6.491 -0.1863  2.0405 -0.0432
  999MOL0     H34822   5.539   8.637   6.647  1.1886  0.8462  0.0764
  999MOL0     H34823   5.469   8.850   6.642 -0.3698 -1.0855  0.8301
  999MOL0     H34824   5.310   8.785   6.681  0.1694  0.3602  1.1660
  999MOL0     H34825   5.240   9.019   6.671 -0.3299  1.5370 -0.2057
  999MOL0     H34826   5.166   9.198   6.753  0.4305 -0.2775 -0.3837
  999MOL0     H34827   5.162   9.343   6.653  0.2049 -0.1329  0.4093
  999MOL0     H34828   5.014   9.243   6.682 -0.0593  2.2155  3.4399
  999MOL0     H34829   4.838   9.466   6.338  0.0866  0.2847  0.1297
  999MOL0     H34830   4.730   9.661   6.235  1.5905  0.4567  3.3369
  999MOL0     H34831   4.601   9.808   6.046 -0.1585  0.3791  0.6010
  999MOL0     H34832   4.748   9.859   6.132 -0.5746  3.2940  0.0866
  999MOL0     H34833   4.827   9.965   5.963  0.4365 -4.5428  3.4785
  999MOL0     H34834   4.668   9.968   5.872  0.2292  0.9490  0.1624
  999MOL0     H34835   4.700  10.075   6.161  0.8721  2.9088  0.8720
  999MOL0     H34836   4.556  10.070   6.057  0.7060 -1.0608 -1.2949
  999MOL0     H34837   4.785  10.254   6.011  0.4896 -0.3660 -1.9024
  999MOL0     H34838   4.679  10.210   5.870 -0.0875 -1.0530 -0.1412
  999MOL0     H34839   4.540  10.286   6.112  2.0051 -0.0973  0.2606
  999MOL0     H34840   4.486  10.275   5.949  0.5068  0.5285 -0.7311
  999MOL0     H34841   4.697  10.489   6.036 -0.4252  1.8580 -2.1832
  999MOL0     H34842   4.637  10.472   5.876 -1.1816  0.9604 -0.4668
  999MOL0     H34843   4.482  10.531   6.122  1.2639  1.0535  0.1894
  999MOL0     H34844   4.409  10.496   5.960  1.4980 -0.4837 -2.8150
  999MOL0     H34845   4.504  10.709   5.882  0.7807 -1.6851 -0.2141
  999MOL0     H34846   4.641  10.718   5.997  0.8426 -0.1474  1.9238
  999MOL0     H34847   4.945   9.567   5.867  1.9227 -1.9312  1.0264
  999MOL0     H34848   5.050   9.379   5.991  1.2013 -0.6060  1.5700
  999MOL0     H34849   5.148   9.122   6.204  3.9757  0.9758 -0.2550
  999MOL0     H34850   5.254   8.898   6.265 -1.8085  0.5493 -1.1721
  999MOL0     H34851   4.190   7.573   6.963 -1.5400 -1.6323  0.1426
  999MOL0     H34852   3.973   7.507   7.047  0.2776 -2.2939 -0.5003
  999MOL0     H34853   3.533   7.785   7.217 -3.2215 -0.3709 -0.0801
  999MOL0     H34854   3.324   7.750   7.370  1.0296  2.8231  4.5472
  999MOL0     H34855   3.142   7.604   7.650  1.3576  0.1775  1.0686
  999MOL0     H34856   3.139   7.638   7.483 -0.2912 -0.9744 -0.2222
  999MOL0     H34857   3.040   7.413   7.530 -0.8558  4.3087 -1.4033
  999MOL0     H34858   3.200   7.352   7.589  2.2279  0.9163 -1.6771
  999MOL0     H34859   3.279   7.420   7.353  1.6981 -1.8131  1.0421
  999MOL0     H34860   3.114   7.454   7.309  1.1243  3.1299  0.9998
  999MOL0     H34861   3.178   7.233   7.229  0.9606 -2.5622  1.4013
  999MOL0     H34862   3.046   7.216   7.351 -0.7593  1.0476  0.2451
  999MOL0     H34863   3.353   7.017   7.545  0.3280 -0.3675  0.8706
  999MOL0     H34864   3.545   7.462   7.590  3.3048 -2.0885 -1.9256
  999MOL0     H34865   3.722   7.480   7.455 -0.5191 -0.8285  0.4155
 1000MOL0     O34866   1.285   3.175   2.650  0.2669  0.2434 -0.0509
 1000MOL0     C34867   1.302   3.053   2.667  0.0954 -0.4109 -0.8394
 1000MOL0     O34868   1.393   2.996   2.752  0.0081 -0.6323 -0.0550
 1000MOL0     C34869   1.492   3.075   2.819  0.2907  0.1846 -0.1678
 1000MOL0     C34870   1.521   3.047   2.954  0.5310  0.1118  0.2493
 1000MOL0     C34871   1.617   3.113   3.030 -0.2240 -0.7548  0.8762
 1000MOL0     C34872   1.697   3.195   2.958  0.1972  0.6237  0.3052
 1000MOL0     O34873   1.799   3.233   3.028 -0.4424  0.2273  0.2452
 1000MOL0     C34874   1.902   3.324   2.984  0.2576  0.5831 -0.1697
 1000MOL0     C34875   1.848   3.466   2.992  1.0231 -0.3952 -0.6810
 1000MOL0     C34876   1.780   3.496   3.131  0.5789 -0.6647  0.2846
 1000MOL0     C34877   1.644   3.563   3.104 -0.0989  0.2208  0.6758
 1000MOL0     C34878   1.531   3.466   3.082 -0.4962 -0.4361  0.5800
 1000MOL0     C34879   1.420   3.540   3.005  0.3139 -0.0457 -0.4901
 1000MOL0     C34880   1.312   3.437   2.946  0.3845 -0.0571  0.4998
 1000MOL0     C34881   1.200   3.394   3.051  0.1436 -0.1921 -0.2347
 1000MOL0     N34882   1.064   3.362   2.988 -0.5118  0.7814  0.4149
 1000MOL0     C34883   1.051   3.266   2.894  0.3705 -1.3058 -0.3189
 1000MOL0     C34884   0.923   3.271   2.853 -0.1340  0.7105 -0.9073
 1000MOL0     C34885   0.873   3.201   2.738  0.3749  0.6075  0.2660
 1000MOL0     C34886   0.734   3.151   2.750 -1.0035 -0.2239  0.1305
 1000MOL0     C34887   0.718   3.031   2.650  0.4197 -0.8614 -0.0276
 1000MOL0     C34888   0.574   2.970   2.641 -1.1789 -0.4594  0.1770
 1000MOL0     O34889   0.540   2.925   2.777  0.1343  0.1293  0.3012
 1000MOL0     C34890   0.431   2.843   2.800  0.2003 -0.4140  0.8303
 1000MOL0     C34891   0.443   2.756   2.908  0.6339 -0.5065 -0.0129
 1000MOL0     C34892   0.339   2.669   2.948 -0.4917 -0.2952  0.0213
 1000MOL0     C34893   0.363   2.590   3.071 -0.6467 -1.2752 -0.1792
 1000MOL0     C34894   0.218   2.665   2.877 -0.7459 -0.5594  0.3924
 1000MOL0     C34895   0.106   2.570   2.897 -0.3636  0.0134 -0.9274
 1000MOL0     O34896   0.125   2.468   2.993 -0.5043  0.1280 -0.4003
 1000MOL0     C34897   0.050   2.362   3.017 -0.0131  0.6754 -0.1127
 1000MOL0     C34898  -0.054   2.315   2.930  0.4332 -0.7117  0.3234
 1000MOL0     C34899  -0.144   2.217   2.977  0.7456 -0.0480 -1.3027
 1000MOL0     C34900  -0.128   2.152   3.111  0.2361  0.1084  0.2504
 1000MOL0     O34901  -0.223   2.056   3.152 -0.4775  0.1297 -0.3754
 1000MOL0     C34902  -0.172   1.963   3.249 -0.5926  0.3067 -0.5483
 1000MOL0     C34903  -0.289   1.884   3.306  0.3997  0.1101  0.2271
 1000MOL0     C34904  -0.354   1.942   3.435 -0.1077  1.1616  0.2842
 1000MOL0     C34905  -0.428   1.823   3.503 -0.5163 -0.1944  0.1910
 1000MOL0     C34906  -0.468   1.856   3.656 -0.5653  0.6547 -0.6065
 1000MOL0     C34907  -0.547   1.989   3.672  0.0650  0.4176 -0.6702
 1000MOL0     C34908  -0.695   2.001   3.616 -0.3194  0.8741 -0.5146
 1000MOL0     C34909  -0.785   1.880   3.660 -0.1741 -1.0718 -0.1313
 1000MOL0    Cl34910  -0.774   1.732   3.546  0.2361 -0.0592 -0.6723
 1000MOL0     C34911  -0.017   2.200   3.185 -0.5148 -0.1404  0.0164
 1000MOL0     C34912   0.069   2.307   3.145  0.0692  0.3468  0.4236
 1000MOL0     O34913   0.005   2.580   2.827 -0.0005 -0.6579  0.0953
 1000MOL0     C34914   0.209   2.749   2.765  0.3235  0.0375  0.4005
 1000MOL0     C34915   0.309   2.836   2.721  0.1720 -0.6634  0.7545
 1000MOL0     N34916   0.861   3.375   2.924 -0.5410  0.3104  0.9101
 1000MOL0     N34917   0.947   3.435   3.002 -0.8181  1.0892  0.0298
 1000MOL0     C34918   1.681   3.227   2.818 -0.7421  0.3301 -1.0824
 1000MOL0     C34919   1.576   3.162   2.752  0.1473 -0.5702  0.3859
 1000MOL0     C34920   1.211   2.959   2.599  0.9101  1.2648 -0.0781
 1000MOL0     C34921   1.140   2.997   2.477 -0.8604  0.9730 -0.0997
 1000MOL0     C34922   1.034   2.921   2.434 -0.4657  0.6873 -0.5207
 1000MOL0     C34923   0.993   2.802   2.492  0.0990 -0.1225 -0.7603
 1000MOL0     O34924   0.892   2.726   2.450 -0.1952 -0.4916 -1.4770
 1000MOL0     C34925   0.781   2.783   2.380  0.5251  0.6835  0.4556
 1000MOL0     C34926   0.654   2.691   2.364 -0.0585  0.4963 -0.6700
 1000MOL0     C34927   0.673   2.544   2.371  0.2896  1.1608  0.6868
 1000MOL0     C34928   0.727   2.500   2.228 -1.0704 -0.5767 -0.7983
 1000MOL0     C34929   0.755   2.359   2.223  0.1194 -0.0520  0.8832
 1000MOL0     C34930   0.780   2.244   2.222  0.6882  0.5224  0.1704
 1000MOL0     C34931   1.071   2.757   2.593 -0.0455  0.1620 -0.8741
 1000MOL0     C34932   1.165   2.841   2.659  0.4005 -0.8758 -0.3626
 1000MOL0     H34933   1.458   2.970   2.996  1.2553  0.1191  1.3747
 1000MOL0     H34934   1.644   3.086   3.132 -1.3396 -1.2243  1.0553
 1000MOL0     H34935   1.982   3.297   3.053  0.9958  1.2835 -0.7290
 1000MOL0     H34936   1.933   3.310   2.880  1.6921 -0.2955  0.3464
 1000MOL0     H34937   1.935   3.531   2.976 -1.0632  2.4878 -1.1132
 1000MOL0     H34938   1.780   3.474   2.906  3.3719 -1.1605 -2.7227
 1000MOL0     H34939   1.768   3.408   3.195  1.5052 -1.7581 -0.9858
 1000MOL0     H34940   1.846   3.563   3.188 -0.8499  2.0690 -1.0799
 1000MOL0     H34941   1.627   3.634   3.185  1.2209  1.1028  0.2053
 1000MOL0     H34942   1.655   3.631   3.019 -0.1697 -0.3958  0.1575
 1000MOL0     H34943   1.563   3.388   3.013  0.9016  1.7017 -1.3590
 1000MOL0     H34944   1.501   3.434   3.183 -1.9537  4.9848  2.2092
 1000MOL0     H34945   1.369   3.602   3.079  0.8301 -0.5901  0.3362
 1000MOL0     H34946   1.471   3.589   2.922  1.1657 -1.2463 -0.7111
 1000MOL0     H34947   1.254   3.482   2.865 -2.5185  1.1187  3.0117
 1000MOL0     H34948   1.369   3.354   2.904  0.2621  0.6405 -1.1469
 1000MOL0     H34949   1.194   3.481   3.117  1.0420  1.2000 -1.8850
 1000MOL0     H34950   1.245   3.307   3.101  1.0261 -0.7853 -1.9810
 1000MOL0     H34951   1.123   3.202   2.845  0.5720 -2.1395  1.0024
 1000MOL0     H34952   0.894   3.273   2.659 -1.5219  3.4616  2.1542
 1000MOL0     H34953   0.946   3.120   2.735  1.1925  1.3406 -0.0588
 1000MOL0     H34954   0.662   3.230   2.726 -0.9179  0.3712  1.7008
 1000MOL0     H34955   0.710   3.113   2.850 -0.8649 -4.0391 -1.1151
 1000MOL0     H34956   0.778   2.942   2.673  1.8580  0.6327  2.4209
 1000MOL0     H34957   0.748   3.076   2.555  2.4968  0.7854  1.3227
 1000MOL0     H34958   0.559   2.881   2.579 -0.0785 -1.4792  1.3229
 1000MOL0     H34959   0.498   3.043   2.610 -1.3773 -1.0965 -0.9033
 1000MOL0     H34960   0.542   2.758   2.951  0.6263  1.7817 -0.0003
 1000MOL0     H34961   0.459   2.625   3.110  0.3322 -1.6508 -2.1590
 1000MOL0     H34962   0.284   2.597   3.147 -1.2596 -0.0843 -0.8958
 1000MOL0     H34963   0.384   2.485   3.052 -3.0674 -1.4041 -2.7106
 1000MOL0     H34964  -0.053   2.353   2.829 -0.9659  0.0510  0.5793
 1000MOL0     H34965  -0.224   2.181   2.914 -0.4571  1.3203 -0.6274
 1000MOL0     H34966  -0.105   1.892   3.198  1.2818  0.6234  1.3087
 1000MOL0     H34967  -0.117   2.014   3.328 -2.0297  1.9802 -0.5761
 1000MOL0     H34968  -0.360   1.874   3.224  0.8665  4.0000 -0.8573
 1000MOL0     H34969  -0.247   1.785   3.325  1.3829  0.1832 -1.3253
 1000MOL0     H34970  -0.426   2.020   3.410 -0.6800 -0.0010 -1.9497
 1000MOL0     H34971  -0.280   1.982   3.505 -1.6566  3.5030  0.7053
 1000MOL0     H34972  -0.506   1.793   3.433  1.1771  0.6580 -2.1835
 1000MOL0     H34973  -0.351   1.745   3.511  1.8667  1.9368 -0.5226
 1000MOL0     H34974  -0.373   1.850   3.710 -2.0014  1.1506  2.1432
 1000MOL0     H34975  -0.521   1.767   3.693  0.7694  0.3890  0.7719
 1000MOL0     H34976  -0.554   1.995   3.781 -0.3340 -0.6171 -0.6301
 1000MOL0     H34977  -0.486   2.074   3.640  2.8263  1.2111  5.2327
 1000MOL0     H34978  -0.701   2.002   3.507 -0.3835 -1.0397 -0.5727
 1000MOL0     H34979  -0.748   2.082   3.666 -1.8420 -0.5185  0.2502
 1000MOL0     H34980  -0.888   1.915   3.662 -0.1709 -1.0646 -0.0778
 1000MOL0     H34981  -0.751   1.854   3.761  1.5150  1.8631  0.1676
 1000MOL0     H34982   0.021   2.168   3.281 -2.1951  1.9117  1.4556
 1000MOL0     H34983   0.146   2.352   3.207  0.4624 -2.1813  1.9182
 1000MOL0     H34984   0.114   2.744   2.712 -1.5695 -0.7779  3.5752
 1000MOL0     H34985   0.307   2.904   2.636  0.8389 -3.2037 -1.4069
 1000MOL0     H34986   1.735   3.304   2.763 -0.8019 -0.2525 -1.9619
 1000MOL0     H34987   1.540   3.204   2.659 -2.2184 -0.4518  1.3094
 1000MOL0     H34988   1.159   3.093   2.430  2.4776 -0.0802 -1.1841
 1000MOL0     H34989   0.996   2.954   2.338  2.7647  2.0697 -1.4667
 1000MOL0     H34990   0.757   2.880   2.426 -1.1983 -0.1886  1.5177
 1000MOL0     H34991   0.809   2.800   2.276  0.6506 -0.1556  0.3432
 1000MOL0     H34992   0.591   2.734   2.286 -3.9466  2.5108  3.1019
 1000MOL0     H34993   0.591   2.711   2.452  0.4715 -0.4111 -0.0659
 1000MOL0     H34994   0.587   2.488   2.408  1.2916  0.1256  1.4993
 1000MOL0     H34995   0.744   2.524   2.451 -0.2126  2.1508  1.3941
 1000MOL0     H34996   0.819   2.551   2.199 -1.0770  1.4120  2.2814
 1000MOL0     H34997   0.655   2.530   2.151 -2.2246 -0.7299  0.1906
 1000MOL0     H34998   0.789   2.141   2.193  0.5310  1.0708 -2.0192
 1000MOL0     H34999   1.058   2.657   2.634  2.0754 -0.1500 -0.8708
 1000MOL0     H35000   1.206   2.800   2.750  0.1472 -2.6731 -1.0211
 1001MOL0     O35001   9.100   1.225   3.702 -0.6386 -0.4185 -0.1137
 1001MOL0     C35002   9.122   1.106   3.736 -0.6024  0.1436  0.9160
 1001MOL0     O35003   9.194   1.008   3.666 -0.4955 -0.3958 -0.0649
 1001MOL0     C35004   9.228   1.016   3.532 -0.0027 -0.8964 -0.6591
 1001MOL0     C35005   9.197   0.926   3.440 -1.2078 -0.3161  0.2010
 1001MOL0     C35006   9.239   0.932   3.302 -0.0786 -0.1573  0.0546
 1001MOL0     C35007   9.300   1.045   3.254 -0.0368 -0.3138 -1.0056
 1001MOL0     O35008   9.327   1.045   3.119 -0.6648 -0.3215  0.5019
 1001MOL0     C35009   9.347   1.170   3.053 -0.3459  0.0785  0.8646
 1001MOL0     C35010   9.389   1.155   2.901 -0.1534 -0.6396  0.5815
 1001MOL0     C35011   9.403   1.299   2.848  0.7447  0.4951 -0.8856
 1001MOL0     C35012   9.466   1.301   2.712  0.8104 -0.9270 -0.4967
 1001MOL0     C35013   9.522   1.433   2.673  0.8368 -0.9517  0.1207
 1001MOL0     C35014   9.555   1.429   2.519 -0.6473 -0.7261 -1.0298
 1001MOL0     C35015   9.598   1.568   2.451  0.4303 -1.2604 -0.8486
 1001MOL0     C35016   9.648   1.550   2.309  0.3326 -1.0210  0.2692
 1001MOL0     N35017   9.559   1.492   2.202 -0.6485 -1.0255  0.4679
 1001MOL0     C35018   9.570   1.546   2.074  0.2506  0.1003 -0.7016
 1001MOL0     C35019   9.457   1.499   2.013  0.3434 -0.2369 -0.3377
 1001MOL0     C35020   9.419   1.499   1.860 -0.2792 -0.6081 -0.0641
 1001MOL0     C35021   9.520   1.425   1.754  0.0075 -0.0049 -0.0590
 1001MOL0     C35022   9.545   1.280   1.781 -0.1738  1.1850  0.5050
 1001MOL0     C35023   9.649   1.267   1.895 -1.2847  0.3160  0.3783
 1001MOL0     O35024   9.699   1.130   1.892 -0.4846 -0.7981  0.6618
 1001MOL0     C35025   9.793   1.090   1.981 -1.2230  0.3441  0.3656
 1001MOL0     C35026   9.821   0.959   1.968  0.0122  0.1952 -0.5483
 1001MOL0     C35027   9.910   0.905   2.057  0.7407 -0.1966 -0.7887
 1001MOL0     C35028   9.944   0.761   2.058  0.0239  0.7751  0.3725
 1001MOL0     C35029   9.977   0.983   2.157  0.5587 -0.2115 -0.4118
 1001MOL0     C35030  10.060   0.937   2.271 -0.1909 -0.2641  0.3275
 1001MOL0     O35031   9.992   0.853   2.366  1.1472 -0.6377  0.2680
 1001MOL0     C35032  10.064   0.809   2.476  0.3608  0.9693 -0.1827
 1001MOL0     C35033  10.093   0.672   2.494  0.0227 -0.4455 -0.0712
 1001MOL0     C35034  10.146   0.633   2.622  0.3457 -0.6279  0.5057
 1001MOL0     C35035  10.176   0.727   2.718  0.5841  0.2429 -0.4530
 1001MOL0     O35036  10.208   0.687   2.850 -0.2521  0.1319 -0.0189
 1001MOL0     C35037  10.110   0.718   2.952 -0.6293 -0.4869  0.0692
 1001MOL0     C35038  10.194   0.775   3.072 -0.4841  0.1605 -0.0424
 1001MOL0     C35039  10.115   0.786   3.209  0.0632  0.2737 -0.1523
 1001MOL0     C35040  10.190   0.842   3.336  0.2203  0.3676 -0.3916
 1001MOL0     C35041  10.147   0.765   3.457  0.8967  0.1823  0.2559
 1001MOL0     C35042  10.197   0.812   3.594  0.3442 -0.1645  0.5976
 1001MOL0     C35043  10.174   0.721   3.722 -0.1671 -0.0562  1.4970
 1001MOL0     C35044  10.304   0.717   3.803  0.4086 -0.1665  0.6532
 1001MOL0    Cl35045  10.260   0.615   3.940 -0.0061  0.2815  0.0873
 1001MOL0     C35046  10.153   0.866   2.700 -0.0502  0.8142 -0.1693
 1001MOL0     C35047  10.091   0.900   2.578  0.0585 -0.5667  0.1259
 1001MOL0     O35048  10.177   0.971   2.265 -0.4297  0.5474  0.4635
 1001MOL0     C35049   9.944   1.118   2.167 -0.7473  0.0398  0.3585
 1001MOL0     C35050   9.850   1.173   2.080  0.1396  0.1172 -0.3648
 1001MOL0     N35051   9.390   1.423   2.104 -0.4884  0.3320  0.7247
 1001MOL0     N35052   9.449   1.423   2.217  0.3054  0.2161  0.6988
 1001MOL0     C35053   9.342   1.136   3.352 -0.3725 -0.9303  0.4021
 1001MOL0     C35054   9.312   1.123   3.487 -0.1537  0.9585  0.5907
 1001MOL0     C35055   9.070   1.048   3.857  0.2316 -0.0415  0.1641
 1001MOL0     C35056   8.939   1.058   3.901 -0.6393  0.0466 -1.2608
 1001MOL0     C35057   8.892   0.991   4.012  0.4918  0.0050 -0.4816
 1001MOL0     C35058   8.979   0.931   4.094 -0.2681 -0.5571 -0.0300
 1001MOL0     O35059   8.937   0.899   4.219 -0.2101  0.1613 -0.0382
 1001MOL0     C35060   8.807   0.854   4.253  0.4051  0.4246 -0.0962
 1001MOL0     C35061   8.807   0.800   4.394 -0.6365 -0.6040  0.7523
 1001MOL0     C35062   8.829   0.912   4.500  0.3474  0.3285 -0.6350
 1001MOL0     C35063   8.696   0.987   4.529  1.0377 -0.3044  0.5725
 1001MOL0     C35064   8.604   0.932   4.627  0.3902 -0.3100 -0.6399
 1001MOL0     C35065   8.549   0.887   4.733  0.2863  0.3619  1.0748
 1001MOL0     C35066   9.116   0.921   4.060  0.2720 -0.0817 -0.6014
 1001MOL0     C35067   9.160   0.975   3.935  0.6048 -0.4260  0.2271
 1001MOL0     H35068   9.131   0.845   3.468 -5.2068  1.3032 -3.2683
 1001MOL0     H35069   9.209   0.863   3.224 -0.3127  1.0637 -0.9704
 1001MOL0     H35070   9.255   1.228   3.051 -0.8452 -0.6686  1.4990
 1001MOL0     H35071   9.427   1.225   3.104  0.0280  0.3014  0.0508
 1001MOL0     H35072   9.477   1.090   2.894 -1.0026 -1.6314 -2.1853
 1001MOL0     H35073   9.303   1.097   2.865 -0.8519 -0.8278  2.3927
 1001MOL0     H35074   9.311   1.358   2.860 -0.2096 -1.4645  3.9498
 1001MOL0     H35075   9.467   1.362   2.910 -0.7556  0.5030  0.7430
 1001MOL0     H35076   9.542   1.224   2.727 -3.0791 -4.7204  2.0778
 1001MOL0     H35077   9.401   1.262   2.634 -0.5959  1.0391 -0.3862
 1001MOL0     H35078   9.456   1.518   2.695  0.9989 -0.7540 -0.1480
 1001MOL0     H35079   9.607   1.443   2.741  0.6648 -1.9776  0.5079
 1001MOL0     H35080   9.637   1.358   2.508  1.1966  0.7829  1.8861
 1001MOL0     H35081   9.464   1.399   2.466 -2.5078 -0.7820  1.9377
 1001MOL0     H35082   9.510   1.634   2.448  3.2351  2.8439 -0.5599
 1001MOL0     H35083   9.675   1.601   2.521 -0.5372  1.9370 -1.1371
 1001MOL0     H35084   9.744   1.496   2.311  0.7941 -0.3027 -0.9622
 1001MOL0     H35085   9.665   1.651   2.272 -2.2321 -1.3297 -2.0666
 1001MOL0     H35086   9.657   1.598   2.036  1.7810 -0.1280  2.2311
 1001MOL0     H35087   9.319   1.454   1.863  0.0901 -1.4098  0.3019
 1001MOL0     H35088   9.410   1.604   1.830 -2.2463 -0.9587 -0.8815
 1001MOL0     H35089   9.611   1.486   1.749  1.0963 -1.4611  0.9400
 1001MOL0     H35090   9.468   1.430   1.658  0.2480 -1.3064 -0.2770
 1001MOL0     H35091   9.559   1.228   1.686 -3.5844 -1.0849  1.0763
 1001MOL0     H35092   9.465   1.219   1.822 -0.1188 -1.1277 -2.5305
 1001MOL0     H35093   9.602   1.276   1.994  1.5537 -2.1337  2.1172
 1001MOL0     H35094   9.730   1.340   1.891  0.0259 -1.1303 -0.5460
 1001MOL0     H35095   9.766   0.901   1.894 -2.0419 -0.2993  1.2313
 1001MOL0     H35096  10.047   0.749   2.094  0.1657  3.0498  0.9164
 1001MOL0     H35097   9.880   0.705   2.127 -0.7831  0.7558 -0.3757
 1001MOL0     H35098   9.936   0.708   1.963 -1.3571 -1.4587  1.6624
 1001MOL0     H35099  10.063   0.605   2.414 -0.4099  0.7431 -0.9408
 1001MOL0     H35100  10.166   0.528   2.642 -0.4161 -1.9911 -4.4180
 1001MOL0     H35101  10.041   0.794   2.913  2.3383  1.7808 -1.1248
 1001MOL0     H35102  10.058   0.622   2.960 -0.5247 -0.5437  0.0580
 1001MOL0     H35103  10.285   0.716   3.089  0.7259  1.9662  0.0940
 1001MOL0     H35104  10.237   0.873   3.051 -0.8788  0.1304 -0.9954
 1001MOL0     H35105  10.087   0.687   3.245 -0.5053  0.2013 -0.7693
 1001MOL0     H35106  10.026   0.843   3.184 -3.0962 -2.4525  3.6836
 1001MOL0     H35107  10.298   0.825   3.325  0.1209 -0.1042 -0.6970
 1001MOL0     H35108  10.169   0.948   3.350 -0.2999 -0.0348  2.8330
 1001MOL0     H35109  10.180   0.661   3.450  5.1680  1.2444  1.3803
 1001MOL0     H35110  10.039   0.783   3.461  1.0849  1.4198  0.4075
 1001MOL0     H35111  10.302   0.812   3.563 -0.3223 -0.7911 -1.8511
 1001MOL0     H35112  10.163   0.910   3.629 -0.2411 -0.5891  1.2500
 1001MOL0     H35113  10.166   0.619   3.684 -1.2656  0.4636  0.2539
 1001MOL0     H35114  10.086   0.762   3.772  0.5397  2.5033  0.7840
 1001MOL0     H35115  10.334   0.818   3.832  1.8080 -0.6937  1.1346
 1001MOL0     H35116  10.373   0.667   3.734 -1.9220  0.4015 -2.2690
 1001MOL0     H35117  10.176   0.926   2.787  0.1879  0.4014  0.0575
 1001MOL0     H35118  10.063   1.002   2.555  0.2244 -1.0758 -2.7423
 1001MOL0     H35119   9.981   1.168   2.256 -0.8329  1.8287 -0.5678
 1001MOL0     H35120   9.823   1.276   2.103 -2.4009 -0.5917  0.1144
 1001MOL0     H35121   9.404   1.223   3.335  1.7507 -2.8022 -2.5169
 1001MOL0     H35122   9.334   1.199   3.561  0.1442  1.3485  0.1071
 1001MOL0     H35123   8.881   1.129   3.844 -0.9047  1.4610  0.6698
 1001MOL0     H35124   8.785   0.989   4.033  0.2702 -0.4170 -1.5974
 1001MOL0     H35125   8.735   0.934   4.234  0.5392 -0.0908 -3.3896
 1001MOL0     H35126   8.775   0.776   4.184  0.3653  1.3571 -1.1573
 1001MOL0     H35127   8.892   0.732   4.405 -1.4824 -1.7927  0.1505
 1001MOL0     H35128   8.715   0.747   4.419 -0.2067 -1.1379  1.2256
 1001MOL0     H35129   8.908   0.981   4.468 -0.9883  1.2990 -1.9142
 1001MOL0     H35130   8.868   0.867   4.593  3.4782  3.3485 -0.2898
 1001MOL0     H35131   8.645   1.004   4.434 -0.6523 -0.5279  1.3926
 1001MOL0     H35132   8.730   1.084   4.565 -0.0179 -0.2224  1.4056
 1001MOL0     H35133   8.505   0.842   4.820 -0.4854 -0.6670  0.1858
 1001MOL0     H35134   9.185   0.875   4.129 -2.1258 -2.9002  0.1075
 1001MOL0     H35135   9.263   0.957   3.905  0.5745 -4.4873  1.9223
 1002MOL0     O35136   6.875   9.075   2.087  0.0197 -0.1429  0.4826
 1002MOL0     C35137   6.902   9.054   1.968 -0.4474 -0.4360 -0.0915
 1002MOL0     O35138   7.018   8.996   1.926 -0.5252 -0.9765  0.0495
 1002MOL0     C35139   7.117   8.990   2.021 -0.1201 -0.5270 -0.2222
 1002MOL0     C35140   7.132   8.894   2.116  0.2878  0.5577  1.3985
 1002MOL0     C35141   7.229   8.901   2.214  0.0145  0.5206 -0.6009
 1002MOL0     C35142   7.317   9.014   2.221  0.2554  0.4653  0.2806
 1002MOL0     O35143   7.421   9.003   2.312  0.4816 -0.8246 -0.2353
 1002MOL0     C35144   7.527   9.101   2.298  0.5409  0.0834 -0.4743
 1002MOL0     C35145   7.641   9.042   2.387  0.5043  0.4120 -0.5952
 1002MOL0     C35146   7.757   9.149   2.368  0.4104  0.1911 -0.6753
 1002MOL0     C35147   7.887   9.058   2.387 -0.3188 -0.1037  0.9362
 1002MOL0     C35148   7.906   9.011   2.531  0.4097 -0.5044 -0.1377
 1002MOL0     C35149   8.018   9.099   2.597 -0.1351 -0.3862 -0.3222
 1002MOL0     C35150   8.158   9.081   2.521 -0.6119  0.7640 -0.0971
 1002MOL0     C35151   8.275   9.042   2.618 -0.5078 -0.8476  0.1823
 1002MOL0     N35152   8.391   9.075   2.531  0.4147  0.0250  0.0113
 1002MOL0     C35153   8.482   9.176   2.543 -0.1586  0.3268  0.1884
 1002MOL0     C35154   8.587   9.128   2.474 -0.0552  0.5199 -1.0219
 1002MOL0     C35155   8.721   9.192   2.479 -0.5047 -0.3550 -0.1842
 1002MOL0     C35156   8.786   9.148   2.611  0.5838 -0.3877  0.8637
 1002MOL0     C35157   8.921   9.089   2.590  0.0521  0.5536 -1.2169
 1002MOL0     C35158   8.957   8.976   2.692  0.0394 -0.2975 -0.0226
 1002MOL0     O35159   8.891   8.851   2.671 -0.4605 -0.1777 -0.6647
 1002MOL0     C35160   8.914   8.744   2.759 -0.2156 -0.2546 -0.2362
 1002MOL0     C35161   9.040   8.726   2.834  0.2787  0.6598 -0.1295
 1002MOL0     C35162   9.057   8.611   2.911  0.5231  0.0343 -0.4755
 1002MOL0     C35163   9.171   8.602   3.006 -0.3630  0.4813 -0.2808
 1002MOL0     C35164   8.957   8.512   2.916 -0.4302 -0.5212  0.0587
 1002MOL0     C35165   8.955   8.388   2.991  0.7850 -0.4653  0.1758
 1002MOL0     O35166   8.895   8.282   2.931  0.5275  0.0278  0.4928
 1002MOL0     C35167   8.856   8.176   3.001 -0.3910  0.7226 -1.0238
 1002MOL0     C35168   8.908   8.057   2.969 -0.5638  0.2737  0.2904
 1002MOL0     C35169   8.868   7.938   3.019  0.0614  0.4144  0.7458
 1002MOL0     C35170   8.774   7.935   3.118 -0.9290 -0.6500  0.4880
 1002MOL0     O35171   8.724   7.822   3.178  0.5542 -0.1260  0.3706
 1002MOL0     C35172   8.796   7.699   3.145  0.1269  0.4843 -0.4504
 1002MOL0     C35173   8.731   7.574   3.203 -0.7641 -1.2787  0.1029
 1002MOL0     C35174   8.720   7.584   3.356  0.8347 -0.2465 -0.5839
 1002MOL0     C35175   8.572   7.542   3.380  0.0284 -0.4716  0.9416
 1002MOL0     C35176   8.521   7.543   3.517 -0.5216 -0.0705 -0.3378
 1002MOL0     C35177   8.366   7.515   3.504 -0.4045  0.1308 -0.2623
 1002MOL0     C35178   8.304   7.475   3.651 -0.3622  0.6190  0.2457
 1002MOL0     C35179   8.158   7.444   3.638 -0.1866  0.7726 -0.3694
 1002MOL0    Cl35180   8.086   7.437   3.802  0.1250  0.1171 -0.3439
 1002MOL0     C35181   8.708   8.057   3.156 -0.3191 -0.3756 -0.0636
 1002MOL0     C35182   8.749   8.178   3.089 -0.3087 -0.3678  0.3371
 1002MOL0     O35183   8.994   8.391   3.106 -0.1434  0.0584  0.0463
 1002MOL0     C35184   8.840   8.532   2.842  0.8710 -0.0049  0.8261
 1002MOL0     C35185   8.809   8.650   2.771  0.6746  1.3022 -0.0485
 1002MOL0     N35186   8.556   9.005   2.412  1.2731 -0.4181  1.3242
 1002MOL0     N35187   8.439   8.978   2.447 -0.2927  0.2170  0.0067
 1002MOL0     C35188   7.291   9.115   2.126 -0.1074 -0.2716 -0.5243
 1002MOL0     C35189   7.204   9.102   2.030  0.3771 -0.0970 -0.3774
 1002MOL0     C35190   6.790   9.061   1.870  0.1639 -1.0009 -0.5317
 1002MOL0     C35191   6.688   9.154   1.885 -0.0555 -0.0668  0.5329
 1002MOL0     C35192   6.587   9.160   1.784 -0.6019  0.2034 -0.6275
 1002MOL0     C35193   6.597   9.085   1.670 -0.4236  0.4742 -0.1105
 1002MOL0     O35194   6.508   9.092   1.569  0.3170 -0.7553  0.4055
 1002MOL0     C35195   6.476   9.220   1.528 -0.7059  1.0989 -0.1358
 1002MOL0     C35196   6.335   9.257   1.560 -1.1107  0.2645  0.0496
 1002MOL0     C35197   6.228   9.148   1.565 -0.7926  0.6346 -0.1455
 1002MOL0     C35198   6.090   9.201   1.596 -0.3250  0.6571  0.1822
 1002MOL0     C35199   6.052   9.311   1.504  0.1772  0.5533 -0.4747
 1002MOL0     C35200   6.015   9.392   1.427 -0.5385  0.4078  0.2008
 1002MOL0     C35201   6.687   8.983   1.672 -0.9343 -1.0143 -0.3540
 1002MOL0     C35202   6.786   8.966   1.766  0.2720  0.3546 -0.0122
 1002MOL0     H35203   7.058   8.815   2.115 -0.5521  1.0962 -3.1886
 1002MOL0     H35204   7.246   8.816   2.279 -1.5551  0.2405 -0.5180
 1002MOL0     H35205   7.545   9.105   2.191  3.6511 -1.6998 -0.1295
 1002MOL0     H35206   7.500   9.203   2.327 -1.5842 -0.4846 -0.2562
 1002MOL0     H35207   7.607   9.051   2.490  1.8136  1.7669 -0.2345
 1002MOL0     H35208   7.655   8.936   2.365 -1.6851 -0.4585  1.7576
 1002MOL0     H35209   7.762   9.186   2.265  0.9268  0.9341 -0.3892
 1002MOL0     H35210   7.749   9.230   2.441  0.3693 -0.7230  0.3702
 1002MOL0     H35211   7.866   8.969   2.327  1.2205  0.0085  0.1825
 1002MOL0     H35212   7.972   9.109   2.342  0.0575  1.9011  3.6428
 1002MOL0     H35213   7.814   9.020   2.589  0.5451 -3.4033  0.6543
 1002MOL0     H35214   7.944   8.908   2.531  0.4797 -0.4780  0.0324
 1002MOL0     H35215   7.995   9.205   2.615  2.7219  0.8960 -3.1732
 1002MOL0     H35216   8.024   9.072   2.703 -2.2446  0.7442  0.1490
 1002MOL0     H35217   8.145   8.997   2.453 -1.5725 -0.5496  1.6093
 1002MOL0     H35218   8.178   9.169   2.460  0.5706 -1.8896 -3.9140
 1002MOL0     H35219   8.281   8.937   2.646 -0.0640 -1.3623 -1.6633
 1002MOL0     H35220   8.276   9.118   2.697  0.3524  2.0165 -2.3824
 1002MOL0     H35221   8.485   9.260   2.612  0.2507  1.2521 -0.9291
 1002MOL0     H35222   8.781   9.163   2.392  1.2218  1.1455  0.4503
 1002MOL0     H35223   8.723   9.301   2.486  1.8459 -0.2584 -1.2924
 1002MOL0     H35224   8.728   9.065   2.652  0.3398  0.7909  3.0908
 1002MOL0     H35225   8.786   9.229   2.685  1.3259 -0.7035  1.2200
 1002MOL0     H35226   8.992   9.170   2.606  0.3826 -0.2591  2.1567
 1002MOL0     H35227   8.927   9.060   2.485  0.8055 -0.5967 -0.8770
 1002MOL0     H35228   8.927   9.012   2.790 -0.4203 -2.9341  0.8847
 1002MOL0     H35229   9.065   8.958   2.685  0.7607  2.4432  2.4597
 1002MOL0     H35230   9.120   8.800   2.839  0.5825  0.3397  4.0830
 1002MOL0     H35231   9.152   8.539   3.093  0.0484 -1.6314 -1.6427
 1002MOL0     H35232   9.257   8.550   2.963  0.2888 -0.2538  1.7675
 1002MOL0     H35233   9.209   8.701   3.032 -1.3524  0.9083 -0.4336
 1002MOL0     H35234   8.985   8.062   2.892 -0.6082  2.9616  0.3401
 1002MOL0     H35235   8.936   7.864   2.978 -0.1449  0.5987  0.0566
 1002MOL0     H35236   8.812   7.676   3.039 -0.5886  1.3464 -0.7610
 1002MOL0     H35237   8.890   7.717   3.197 -1.6845 -0.1131  3.4568
 1002MOL0     H35238   8.635   7.578   3.149 -0.5205  3.7592 -0.4174
 1002MOL0     H35239   8.783   7.485   3.169 -1.9416 -1.2600 -1.9367
 1002MOL0     H35240   8.734   7.682   3.403 -0.7805  1.0430 -2.5743
 1002MOL0     H35241   8.784   7.509   3.404 -3.4856 -4.2932 -0.3364
 1002MOL0     H35242   8.515   7.620   3.329  0.6328  1.7829  3.4531
 1002MOL0     H35243   8.567   7.450   3.322  2.9958 -0.0218 -0.2420
 1002MOL0     H35244   8.532   7.641   3.566  1.4955 -1.2660  1.8092
 1002MOL0     H35245   8.570   7.465   3.576  2.2471  2.0133  0.3634
 1002MOL0     H35246   8.328   7.613   3.476  0.0181 -0.3676 -2.8146
 1002MOL0     H35247   8.348   7.434   3.434 -1.5785 -2.6958  3.0132
 1002MOL0     H35248   8.318   7.550   3.730 -1.1361  1.7563 -0.6638
 1002MOL0     H35249   8.362   7.390   3.689  0.0901  0.5139 -0.6623
 1002MOL0     H35250   8.132   7.356   3.578 -0.5719  0.0561  0.8174
 1002MOL0     H35251   8.114   7.530   3.588 -0.7223 -1.2600 -3.7576
 1002MOL0     H35252   8.614   8.054   3.210 -1.0180  0.6674 -1.1782
 1002MOL0     H35253   8.701   8.276   3.098 -2.3880 -1.1721 -1.2323
 1002MOL0     H35254   8.758   8.462   2.847  0.7728  0.0682  0.2938
 1002MOL0     H35255   8.713   8.655   2.721  0.5770  0.1487 -0.0045
 1002MOL0     H35256   7.342   9.210   2.130  0.4920 -0.4194 -2.8488
 1002MOL0     H35257   7.182   9.194   1.977  1.1086  0.3777  0.1204
 1002MOL0     H35258   6.691   9.217   1.973 -0.8575  0.2356  0.3565
 1002MOL0     H35259   6.510   9.237   1.789  2.3014  3.2850  1.3415
 1002MOL0     H35260   6.551   9.297   1.552  1.6347  0.0635 -3.4166
 1002MOL0     H35261   6.480   9.215   1.419 -0.0329 -2.5616 -0.0957
 1002MOL0     H35262   6.302   9.337   1.494  1.0401 -0.8363 -2.5580
 1002MOL0     H35263   6.339   9.291   1.664  0.8890 -2.3762  0.9761
 1002MOL0     H35264   6.253   9.067   1.634  0.1120 -1.3046 -2.6303
 1002MOL0     H35265   6.218   9.106   1.465 -2.3716 -0.4987  0.4417
 1002MOL0     H35266   6.084   9.233   1.701 -2.0856 -1.1563  0.7030
 1002MOL0     H35267   6.014   9.123   1.596 -0.8227  1.0504  2.5084
 1002MOL0     H35268   5.975   9.473   1.370 -3.0505 -1.5816 -1.0671
 1002MOL0     H35269   6.686   8.899   1.603  0.8058 -0.8500 -0.6213
 1002MOL0     H35270   6.845   8.875   1.771  0.5293  0.4955 -0.4612
 1003MOL0     O35271   0.884   9.240   1.172 -0.1100  0.1199 -0.0024
 1003MOL0     C35272   0.789   9.179   1.128  0.2697  0.2897 -0.8135
 1003MOL0     O35273   0.656   9.213   1.140  1.2347  0.0006 -0.0842
 1003MOL0     C35274   0.626   9.323   1.215  0.1507  0.2407  0.1917
 1003MOL0     C35275   0.582   9.302   1.339 -1.3920  0.2993  0.0599
 1003MOL0     C35276   0.554   9.417   1.422  0.3247  1.7791  0.2283
 1003MOL0     C35277   0.572   9.547   1.378 -0.3809 -0.2091 -0.1093
 1003MOL0     O35278   0.557   9.665   1.461  0.5570  0.6230  0.0666
 1003MOL0     C35279   0.550   9.654   1.595  0.6971 -0.3261 -0.7221
 1003MOL0     C35280   0.400   9.645   1.623  0.1499  0.5799  0.6546
 1003MOL0     C35281   0.362   9.640   1.769 -0.3776  0.6487 -0.6384
 1003MOL0     C35282   0.213   9.677   1.783  0.2449 -0.1590  0.6508
 1003MOL0     C35283   0.157   9.608   1.906 -1.0343 -0.6985 -0.4414
 1003MOL0     C35284   0.015   9.654   1.942  0.0330  0.2460 -0.1203
 1003MOL0     C35285  -0.040   9.567   2.050 -0.7759 -0.6998 -0.0032
 1003MOL0     C35286  -0.167   9.639   2.103 -0.4063 -0.6796  0.6258
 1003MOL0     N35287  -0.218   9.564   2.214  0.5101  0.6401  0.5875
 1003MOL0     C35288  -0.189   9.582   2.346  0.0945  0.7253  0.7707
 1003MOL0     C35289  -0.234   9.475   2.409  0.3823  0.4280  0.1263
 1003MOL0     C35290  -0.216   9.448   2.550  0.1542  0.0814  0.4395
 1003MOL0     C35291  -0.320   9.511   2.655  0.6130 -0.6301  0.4847
 1003MOL0     C35292  -0.339   9.669   2.621 -0.7050  0.8280 -0.3224
 1003MOL0     C35293  -0.434   9.734   2.714  0.3336 -0.0730 -0.1113
 1003MOL0     O35294  -0.459   9.865   2.664 -0.0402 -0.1578  0.0067
 1003MOL0     C35295  -0.542   9.917   2.761  0.7258 -0.6889  0.3276
 1003MOL0     C35296  -0.514   9.978   2.879  0.4127  0.2489  0.1155
 1003MOL0     C35297  -0.615  10.042   2.953  0.1335  0.4652 -0.1748
 1003MOL0     C35298  -0.571  10.094   3.082  0.2919  0.1683  0.6346
 1003MOL0     C35299  -0.748  10.051   2.901  0.1651 -0.2059 -0.0386
 1003MOL0     C35300  -0.865  10.110   2.969 -0.6155 -0.4427  0.1974
 1003MOL0     O35301  -0.977  10.028   2.966 -0.4495 -0.9606 -0.0706
 1003MOL0     C35302  -1.107  10.081   2.970 -1.2789  0.2640  0.5096
 1003MOL0     C35303  -1.135  10.206   2.922  0.3586 -0.4007  0.2126
 1003MOL0     C35304  -1.270  10.247   2.917 -0.1777 -0.4025 -0.0145
 1003MOL0     C35305  -1.368  10.159   2.950  0.2128  0.1804  0.2144
 1003MOL0     O35306  -1.510  10.191   2.937 -0.8851 -0.3425 -0.5478
 1003MOL0     C35307  -1.554  10.317   2.890 -0.1824  0.3933  0.2577
 1003MOL0     C35308  -1.551  10.415   3.001  0.5817 -0.5259 -0.0907
 1003MOL0     C35309  -1.671  10.409   3.099  0.0567 -0.3938  0.1264
 1003MOL0     C35310  -1.628  10.435   3.240  0.0632 -0.0642  0.1544
 1003MOL0     C35311  -1.571  10.313   3.309 -0.5212  0.1824 -0.2027
 1003MOL0     C35312  -1.568  10.329   3.469 -0.5156  0.1263 -0.9035
 1003MOL0     C35313  -1.571  10.186   3.536  0.3143 -0.3642  0.8946
 1003MOL0     C35314  -1.435  10.119   3.533  0.7035 -0.2179 -0.2023
 1003MOL0    Cl35315  -1.302  10.228   3.593  0.3077  0.2316  0.3515
 1003MOL0     C35316  -1.336  10.033   2.987 -0.2771 -0.2774  0.6475
 1003MOL0     C35317  -1.207   9.989   2.999 -0.4052  0.3453  0.1057
 1003MOL0     O35318  -0.849  10.220   3.022  0.2033  0.1221 -0.1739
 1003MOL0     C35319  -0.778   9.997   2.773 -0.5909  0.4625 -0.6010
 1003MOL0     C35320  -0.669   9.923   2.711  0.4006 -0.5983  0.0435
 1003MOL0     N35321  -0.289   9.385   2.314 -0.9324  0.1854  0.0881
 1003MOL0     N35322  -0.274   9.439   2.198  1.1845 -0.3240  1.0400
 1003MOL0     C35323   0.621   9.563   1.251 -0.1617 -1.4091  0.4038
 1003MOL0     C35324   0.642   9.453   1.161 -0.0004 -0.7988 -0.9321
 1003MOL0     C35325   0.825   9.049   1.078  0.8355 -0.1674 -0.2730
 1003MOL0     C35326   0.956   9.006   1.068  0.9327  0.2265 -0.0579
 1003MOL0     C35327   0.988   8.884   1.022 -0.5638  0.6285 -0.6640
 1003MOL0     C35328   0.886   8.788   0.989  0.2820 -0.2509 -0.2220
 1003MOL0     O35329   0.925   8.664   0.943 -0.7730  0.1160  0.0035
 1003MOL0     C35330   0.883   8.622   0.807  0.1216 -0.7735 -0.5580
 1003MOL0     C35331   0.961   8.499   0.753 -0.1369  1.1846 -0.1108
 1003MOL0     C35332   1.117   8.516   0.708  0.7365 -0.6307  0.3183
 1003MOL0     C35333   1.198   8.599   0.803 -0.8899  0.7286 -0.7391
 1003MOL0     C35334   1.189   8.745   0.781 -0.3961  0.2686 -0.5739
 1003MOL0     C35335   1.176   8.863   0.748 -0.4331  0.2536 -0.0761
 1003MOL0     C35336   0.755   8.829   1.002  0.0282 -0.0577 -0.1022
 1003MOL0     C35337   0.720   8.959   1.058 -0.6002  1.0043 -0.1559
 1003MOL0     H35338   0.585   9.204   1.384  2.0784  1.0037  1.7624
 1003MOL0     H35339   0.531   9.389   1.524  3.2491 -0.3379  0.4259
 1003MOL0     H35340   0.603   9.563   1.624 -0.1698  0.0766  2.4778
 1003MOL0     H35341   0.604   9.734   1.647 -0.5659  0.4108 -0.5030
 1003MOL0     H35342   0.353   9.735   1.582 -3.5578 -0.6952  1.6613
 1003MOL0     H35343   0.351   9.561   1.574  1.0519  1.0116 -1.0710
 1003MOL0     H35344   0.378   9.537   1.804 -2.1951  0.2261 -0.9310
 1003MOL0     H35345   0.417   9.705   1.838 -2.5217 -0.3060  2.1689
 1003MOL0     H35346   0.204   9.785   1.791 -0.1563 -0.1575  0.2214
 1003MOL0     H35347   0.153   9.648   1.696  2.2052 -1.1327 -0.4578
 1003MOL0     H35348   0.157   9.500   1.888  2.0701 -0.6547 -1.1990
 1003MOL0     H35349   0.229   9.634   1.984  0.3835 -2.5843 -1.0448
 1003MOL0     H35350   0.011   9.755   1.981 -0.0677  0.3284 -0.3392
 1003MOL0     H35351  -0.044   9.643   1.850 -0.5545 -0.7058  0.3474
 1003MOL0     H35352  -0.077   9.470   2.012 -2.5553 -1.8147  4.0006
 1003MOL0     H35353   0.029   9.560   2.134  0.2338 -1.3580 -0.8625
 1003MOL0     H35354  -0.238   9.662   2.023  1.8109  0.9165 -0.9708
 1003MOL0     H35355  -0.136   9.729   2.156  0.8067 -1.0868  0.6322
 1003MOL0     H35356  -0.150   9.668   2.399  1.7863 -1.4659  3.3853
 1003MOL0     H35357  -0.216   9.339   2.552 -1.8268 -0.0954 -2.7567
 1003MOL0     H35358  -0.120   9.487   2.585  1.6483 -1.2439 -1.8931
 1003MOL0     H35359  -0.287   9.497   2.759  0.6402  0.4468  0.6351
 1003MOL0     H35360  -0.411   9.451   2.648  0.8445 -0.8473 -1.0278
 1003MOL0     H35361  -0.366   9.701   2.520  0.4567 -1.0904 -1.2844
 1003MOL0     H35362  -0.244   9.717   2.648 -0.4867 -1.3069  3.3814
 1003MOL0     H35363  -0.393   9.734   2.815  1.9001  1.2471 -0.7081
 1003MOL0     H35364  -0.527   9.677   2.709  0.9048 -0.9046 -2.7318
 1003MOL0     H35365  -0.412   9.977   2.916  0.3189 -0.7652  0.3693
 1003MOL0     H35366  -0.652  10.096   3.157  1.7296 -0.6946  2.2807
 1003MOL0     H35367  -0.501  10.019   3.120  2.2864  1.3208 -0.5953
 1003MOL0     H35368  -0.517  10.189   3.084 -0.8648  0.9347  4.4521
 1003MOL0     H35369  -1.053  10.277   2.913  0.5643 -0.3102  2.3426
 1003MOL0     H35370  -1.304  10.345   2.886  0.5533  0.8890  2.9233
 1003MOL0     H35371  -1.498  10.344   2.800  0.9617 -0.7838  0.5884
 1003MOL0     H35372  -1.658  10.306   2.858  0.6950 -0.5143 -2.6695
 1003MOL0     H35373  -1.447  10.415   3.035  0.7342 -3.8660 -0.2259
 1003MOL0     H35374  -1.561  10.518   2.965  2.1921  1.0989  3.6276
 1003MOL0     H35375  -1.711  10.307   3.098  0.4463 -0.5820  1.5029
 1003MOL0     H35376  -1.754  10.472   3.066  0.8750  2.1047  2.4772
 1003MOL0     H35377  -1.564  10.524   3.242 -2.2304  1.6681 -0.1394
 1003MOL0     H35378  -1.717  10.469   3.292  0.4283 -1.1842  1.5636
 1003MOL0     H35379  -1.477  10.293   3.258 -0.1683  1.7041 -0.1999
 1003MOL0     H35380  -1.642  10.233   3.286  1.3244 -1.1789 -1.3335
 1003MOL0     H35381  -1.482  10.391   3.495 -1.8242  1.9509 -0.7072
 1003MOL0     H35382  -1.665  10.369   3.499 -1.1507  0.8876 -3.6721
 1003MOL0     H35383  -1.642  10.124   3.480  0.9166  0.6866 -1.0957
 1003MOL0     H35384  -1.613  10.199   3.637 -0.9060 -0.7351  0.4641
 1003MOL0     H35385  -1.414  10.072   3.437  1.2656 -2.3644  0.9262
 1003MOL0     H35386  -1.440  10.036   3.604  1.2581  0.0321  0.1324
 1003MOL0     H35387  -1.416   9.966   3.018 -1.5787  0.6038 -0.7502
 1003MOL0     H35388  -1.185   9.886   3.026  3.7979  0.6216 -1.5550
 1003MOL0     H35389  -0.877  10.007   2.730 -0.0892  3.1092 -1.3111
 1003MOL0     H35390  -0.701   9.874   2.619 -0.9655 -0.4419  0.4296
 1003MOL0     H35391   0.625   9.665   1.214 -1.9173 -0.7096  2.0117
 1003MOL0     H35392   0.666   9.459   1.055  2.0928 -4.6952 -0.8891
 1003MOL0     H35393   1.035   9.077   1.090  2.7903 -0.2656 -4.1693
 1003MOL0     H35394   1.089   8.844   1.028  0.0010  2.1895  1.3698
 1003MOL0     H35395   0.777   8.598   0.806 -1.3202  4.3384 -0.3999
 1003MOL0     H35396   0.885   8.707   0.738  1.0568  0.5000  0.9783
 1003MOL0     H35397   0.901   8.467   0.667 -1.0021  4.4511 -0.8823
 1003MOL0     H35398   0.964   8.412   0.820  1.8776 -1.9629 -3.8630
 1003MOL0     H35399   1.108   8.564   0.610 -1.4547  0.0520  0.8006
 1003MOL0     H35400   1.164   8.418   0.692  1.8993 -0.7436  3.6936
 1003MOL0     H35401   1.301   8.568   0.786 -0.8995  1.4457 -2.3556
 1003MOL0     H35402   1.176   8.594   0.910 -2.8921  1.7369 -1.0564
 1003MOL0     H35403   1.156   8.966   0.725  0.3506  0.4996  0.3334
 1003MOL0     H35404   0.674   8.765   0.969 -0.0661 -0.7773  1.4114
 1003MOL0     H35405   0.619   8.989   1.086 -2.1368 -2.5320 -1.2860
 1004MOL0     O35406   2.306  10.221   7.583 -0.4720  0.2809 -0.5288
 1004MOL0     C35407   2.218  10.295   7.621  1.0227  0.0069  0.0788
 1004MOL0     O35408   2.081  10.282   7.593 -0.6578  0.6287 -0.1271
 1004MOL0     C35409   2.053  10.185   7.507  0.1700  1.1300  0.4122
 1004MOL0     C35410   1.988  10.067   7.549 -0.2155  0.1586 -0.9473
 1004MOL0     C35411   1.935   9.989   7.457 -0.4165  1.2765  0.4039
 1004MOL0     C35412   1.943  10.003   7.315 -0.8152  0.3298 -0.2743
 1004MOL0     O35413   1.885   9.917   7.225  0.1879 -0.2086  0.0778
 1004MOL0     C35414   1.965   9.809   7.185 -0.3644  0.0242  0.2995
 1004MOL0     C35415   1.886   9.700   7.118  0.1721 -0.5720 -0.3061
 1004MOL0     C35416   1.817   9.745   6.987  1.3668  0.0503 -0.5316
 1004MOL0     C35417   1.770   9.630   6.896  0.5521 -0.2474 -0.2209
 1004MOL0     C35418   1.616   9.641   6.863 -0.6962 -0.6023  0.1246
 1004MOL0     C35419   1.559   9.516   6.804  0.9215 -0.1477  0.6082
 1004MOL0     C35420   1.413   9.532   6.798  0.4942 -0.5527  0.1385
 1004MOL0     C35421   1.360   9.409   6.724  0.6587 -0.1436 -0.5486
 1004MOL0     N35422   1.215   9.413   6.710 -0.3263 -0.7780  0.3673
 1004MOL0     C35423   1.131   9.315   6.693  0.6746 -0.1059  0.7133
 1004MOL0     C35424   1.020   9.361   6.644  0.4398  0.0004  0.5494
 1004MOL0     C35425   0.897   9.290   6.592  0.0075  0.4081 -0.9662
 1004MOL0     C35426   0.912   9.210   6.466 -0.5625 -0.2904  0.5021
 1004MOL0     C35427   0.800   9.114   6.436 -0.0459 -0.2697  0.1334
 1004MOL0     C35428   0.790   9.072   6.285  0.1112 -0.6385  0.0847
 1004MOL0     O35429   0.698   9.149   6.207 -0.3557 -0.1057 -0.2508
 1004MOL0     C35430   0.738   9.272   6.169  1.0439 -0.3086  0.6131
 1004MOL0     C35431   0.851   9.314   6.110 -0.0735  0.0356 -0.3319
 1004MOL0     C35432   0.889   9.439   6.074  0.6056 -0.9200 -0.5695
 1004MOL0     C35433   0.996   9.446   5.974  0.2302  0.1645 -0.1039
 1004MOL0     C35434   0.808   9.549   6.126  0.5239  0.2212  1.0433
 1004MOL0     C35435   0.817   9.692   6.076 -0.1944  0.6142  0.3045
 1004MOL0     O35436   0.707   9.767   6.092  0.0216 -0.1095  0.5378
 1004MOL0     C35437   0.705   9.905   6.095 -0.1017 -0.3534  0.5992
 1004MOL0     C35438   0.640   9.956   6.199 -0.4149 -0.1531 -0.5808
 1004MOL0     C35439   0.649  10.098   6.220 -0.2940  0.4301 -0.0825
 1004MOL0     C35440   0.712  10.181   6.125  0.3243  0.6913 -0.5578
 1004MOL0     O35441   0.698  10.314   6.148 -0.4980  0.0077  0.1708
 1004MOL0     C35442   0.788  10.366   6.238 -0.2111 -0.4809  0.2533
 1004MOL0     C35443   0.742  10.506   6.283  0.0763 -0.1648 -0.2022
 1004MOL0     C35444   0.698  10.612   6.176 -0.0079 -0.5814  0.4768
 1004MOL0     C35445   0.806  10.653   6.069  0.4199 -0.1918  0.8427
 1004MOL0     C35446   0.738  10.756   5.967  0.4820 -1.5134  0.5999
 1004MOL0     C35447   0.852  10.799   5.869  0.5270  0.5007  0.0310
 1004MOL0     C35448   0.875  10.707   5.747 -1.1972 -0.8951  0.9616
 1004MOL0     C35449   0.780  10.728   5.635  0.0217 -0.4341  0.5917
 1004MOL0    Cl35450   0.643  10.621   5.637 -0.6070  0.0940 -0.0036
 1004MOL0     C35451   0.789  10.116   6.025  0.3902 -0.8122 -0.2343
 1004MOL0     C35452   0.781   9.986   6.005 -0.1781  0.8301  0.1816
 1004MOL0     O35453   0.924   9.730   6.044  0.1778 -0.1847  0.2749
 1004MOL0     C35454   0.698   9.513   6.202 -0.2919 -0.1232 -0.1927
 1004MOL0     C35455   0.660   9.374   6.219  1.1756 -0.4017 -0.2802
 1004MOL0     N35456   1.038   9.502   6.625 -0.4765 -0.0575  0.5216
 1004MOL0     N35457   1.157   9.532   6.664  0.2008 -0.1312 -0.3061
 1004MOL0     C35458   2.012  10.117   7.272 -0.6092 -0.1364  0.6647
 1004MOL0     C35459   2.069  10.206   7.365  0.2881 -0.2902 -0.2298
 1004MOL0     C35460   2.256  10.398   7.717  0.2071 -0.0734 -0.5862
 1004MOL0     C35461   2.386  10.449   7.727 -0.4591 -1.0192 -0.4031
 1004MOL0     C35462   2.439  10.528   7.831 -0.8598  0.5105 -0.4159
 1004MOL0     C35463   2.347  10.540   7.939 -0.4561 -1.0014 -0.3719
 1004MOL0     O35464   2.402  10.617   8.031  0.0111  0.3338  0.0024
 1004MOL0     C35465   2.307  10.689   8.113 -0.2157  0.1913 -0.3368
 1004MOL0     C35466   2.380  10.821   8.143 -0.6143  0.4040  0.3440
 1004MOL0     C35467   2.521  10.800   8.186 -0.3254 -0.1351  0.4984
 1004MOL0     C35468   2.582  10.925   8.234  0.7068 -0.8583 -0.6454
 1004MOL0     C35469   2.538  10.968   8.370 -0.5049  1.0138  0.2564
 1004MOL0     C35470   2.502  10.997   8.478  0.0073  0.7449 -0.3542
 1004MOL0     C35471   2.222  10.477   7.943  0.2880 -0.6024 -0.8426
 1004MOL0     C35472   2.170  10.423   7.823 -1.2835  0.6638  0.7279
 1004MOL0     H35473   1.971  10.049   7.654  1.9173  1.7842 -0.2491
 1004MOL0     H35474   1.883   9.895   7.476 -1.0132  1.4386 -0.3899
 1004MOL0     H35475   2.053   9.840   7.126 -0.8004  1.2853  0.2826
 1004MOL0     H35476   2.006   9.777   7.281  1.6119  2.6947  0.4735
 1004MOL0     H35477   1.962   9.625   7.092  3.9381  1.9581  2.2964
 1004MOL0     H35478   1.808   9.668   7.188 -0.7097  0.3721 -0.8300
 1004MOL0     H35479   1.735   9.815   7.003  2.3283  1.0913 -0.0150
 1004MOL0     H35480   1.894   9.801   6.933  2.4061  0.0971  0.9432
 1004MOL0     H35481   1.818   9.645   6.799  1.2812  0.0152  0.1733
 1004MOL0     H35482   1.789   9.533   6.944  1.0017  1.0283  2.3549
 1004MOL0     H35483   1.565   9.662   6.958 -2.0193  3.2404 -1.2135
 1004MOL0     H35484   1.611   9.731   6.801 -1.3494  0.3505  1.4898
 1004MOL0     H35485   1.603   9.497   6.705 -0.5520  2.4343 -0.6611
 1004MOL0     H35486   1.589   9.429   6.862 -1.5417 -2.9488 -2.0030
 1004MOL0     H35487   1.369   9.533   6.899  0.6557  1.2514  0.2343
 1004MOL0     H35488   1.390   9.621   6.739  2.7418  0.9665  1.3971
 1004MOL0     H35489   1.392   9.321   6.780 -0.8831  0.4271  1.3493
 1004MOL0     H35490   1.403   9.407   6.623  0.2317  1.4350 -0.8051
 1004MOL0     H35491   1.154   9.209   6.696  1.7940  0.0605 -0.5985
 1004MOL0     H35492   0.884   9.224   6.678 -1.4724  3.5134  1.4403
 1004MOL0     H35493   0.805   9.349   6.599 -1.0567 -1.3664  1.5990
 1004MOL0     H35494   1.010   9.162   6.461  0.5390  1.9425 -1.5493
 1004MOL0     H35495   0.909   9.286   6.387  0.7245 -1.4738 -0.7635
 1004MOL0     H35496   0.710   9.167   6.469  1.7280  1.3219  2.8385
 1004MOL0     H35497   0.824   9.029   6.501 -0.8932 -1.5110 -1.1320
 1004MOL0     H35498   0.756   8.968   6.277  0.3931 -0.9739  2.4857
 1004MOL0     H35499   0.886   9.063   6.233 -1.3076 -1.2896 -2.6308
 1004MOL0     H35500   0.922   9.238   6.079  2.4474  2.8521 -1.9781
 1004MOL0     H35501   1.064   9.375   6.020 -1.9828 -1.2017  1.2622
 1004MOL0     H35502   0.964   9.414   5.874 -2.2585  1.9200  0.0395
 1004MOL0     H35503   1.033   9.547   5.992 -0.8733  0.3265  1.5079
 1004MOL0     H35504   0.578   9.892   6.261 -2.0468 -2.4890 -4.2966
 1004MOL0     H35505   0.585  10.135   6.299 -1.9304 -2.9623  0.3369
 1004MOL0     H35506   0.800  10.303   6.326 -2.7313 -0.5869  0.5853
 1004MOL0     H35507   0.882  10.383   6.183 -2.6297 -1.2444 -4.6877
 1004MOL0     H35508   0.651  10.483   6.340  1.8756 -1.2517  2.4242
 1004MOL0     H35509   0.818  10.553   6.347 -0.4720  3.5762 -2.0607
 1004MOL0     H35510   0.664  10.707   6.217 -1.9080 -0.5859 -0.9732
 1004MOL0     H35511   0.606  10.581   6.126 -0.7998  2.6386 -0.3101
 1004MOL0     H35512   0.889  10.703   6.120  2.6936 -1.6603 -1.2032
 1004MOL0     H35513   0.837  10.560   6.021  2.6788  0.0317  1.7289
 1004MOL0     H35514   0.702  10.844   6.020  1.8039  1.4179 -2.9640
 1004MOL0     H35515   0.647  10.732   5.912 -0.6828 -2.1193  2.6608
 1004MOL0     H35516   0.830  10.900   5.834  0.3993  0.8658  1.1513
 1004MOL0     H35517   0.941  10.819   5.929  0.4753  2.5297 -0.5009
 1004MOL0     H35518   0.875  10.605   5.787 -1.1607 -1.4665 -0.4317
 1004MOL0     H35519   0.978  10.732   5.720 -1.0354 -0.3798  1.9854
 1004MOL0     H35520   0.831  10.700   5.543  2.0950 -1.9653  2.1004
 1004MOL0     H35521   0.753  10.828   5.601  1.5458 -1.7867 -6.0690
 1004MOL0     H35522   0.845  10.174   5.952  2.4031  0.7925  2.4034
 1004MOL0     H35523   0.826   9.944   5.915 -2.1286  0.2795 -0.5981
 1004MOL0     H35524   0.639   9.586   6.257 -2.3110 -4.3798  4.0588
 1004MOL0     H35525   0.573   9.348   6.278  0.3152  1.1604 -0.8148
 1004MOL0     H35526   2.034  10.141   7.168 -2.9896 -0.4484  0.0432
 1004MOL0     H35527   2.110  10.297   7.322  0.2857  0.0176  0.4053
 1004MOL0     H35528   2.461  10.445   7.649 -1.3395  0.7124 -1.3952
 1004MOL0     H35529   2.527  10.591   7.820 -0.0974 -0.3519  0.5145
 1004MOL0     H35530   2.219  10.713   8.053  0.6059  2.3468 -0.8132
 1004MOL0     H35531   2.286  10.643   8.209  0.8717  1.5144  0.5858
 1004MOL0     H35532   2.341  10.878   8.228  2.9373  2.2544  0.8836
 1004MOL0     H35533   2.373  10.886   8.056  0.4942  0.3952  0.2423
 1004MOL0     H35534   2.571  10.753   8.101 -0.7982  1.1760 -0.5334
 1004MOL0     H35535   2.512  10.722   8.262 -4.2325 -0.7045 -0.3469
 1004MOL0     H35536   2.540  11.006   8.173  1.1609 -2.6209 -3.4800
 1004MOL0     H35537   2.691  10.925   8.223  0.7537 -0.2131 -0.3002
 1004MOL0     H35538   2.482  11.020   8.581  0.3869  1.1935 -0.3770
 1004MOL0     H35539   2.174  10.461   8.039 -0.2736  1.2971 -0.7635
 1004MOL0     H35540   2.076  10.370   7.829  0.5185 -3.3492 -1.8316
 1005MOL0     O35541  11.041   4.941   0.374  0.3336  0.4772 -0.0381
 1005MOL0     C35542  10.993   5.055   0.400  0.2117  0.5158  0.6830
 1005MOL0     O35543  10.947   5.144   0.309 -0.6037  0.0490  0.6830
 1005MOL0     C35544  10.951   5.116   0.173  1.2023 -0.1964 -0.5767
 1005MOL0     C35545  10.970   4.993   0.097  0.5438  0.4315  0.7570
 1005MOL0     C35546  10.967   4.983  -0.045  0.3251 -0.6342  0.7074
 1005MOL0     C35547  10.946   5.103  -0.115  0.1257  0.1606  0.5452
 1005MOL0     O35548  10.939   5.120  -0.248  0.0575 -0.1156  0.2419
 1005MOL0     C35549  11.003   5.029  -0.343  0.8538 -0.4299  0.0496
 1005MOL0     C35550  10.961   5.065  -0.495 -0.1746 -0.6712 -0.1427
 1005MOL0     C35551  10.855   4.986  -0.562  0.4374  0.8516  0.4200
 1005MOL0     C35552  10.828   4.999  -0.718 -0.3418  0.1888 -0.8167
 1005MOL0     C35553  10.912   4.901  -0.801 -0.4481 -0.5068 -0.4468
 1005MOL0     C35554  10.884   4.933  -0.949 -1.2542 -0.3612 -0.3651
 1005MOL0     C35555  10.982   4.857  -1.040  0.3229  0.3711  0.2812
 1005MOL0     C35556  11.132   4.891  -1.016 -1.3146 -0.5237  0.0869
 1005MOL0     N35557  11.219   4.862  -1.137  0.3772 -0.4116  0.3915
 1005MOL0     C35558  11.205   4.915  -1.268 -0.0678  0.6549  0.6043
 1005MOL0     C35559  11.322   4.896  -1.330 -0.1451  0.9716  1.0713
 1005MOL0     C35560  11.340   4.937  -1.474 -0.1447  0.4527 -0.1396
 1005MOL0     C35561  11.399   5.079  -1.478  0.1901 -0.1691 -1.2536
 1005MOL0     C35562  11.546   5.078  -1.444 -0.6124  0.0267  0.7945
 1005MOL0     C35563  11.602   5.214  -1.415 -0.1254  1.2625 -0.6046
 1005MOL0     O35564  11.735   5.197  -1.365 -0.8230  0.1592 -0.4553
 1005MOL0     C35565  11.846   5.187  -1.446  0.3953 -0.1132 -0.4479
 1005MOL0     C35566  11.870   5.282  -1.547  1.4258 -0.2053  0.4107
 1005MOL0     C35567  11.988   5.301  -1.622  0.4181 -0.1318 -0.6025
 1005MOL0     C35568  11.991   5.414  -1.722 -0.0102  0.2667 -0.0197
 1005MOL0     C35569  12.088   5.190  -1.610 -0.0126 -0.0418  0.5003
 1005MOL0     C35570  12.220   5.183  -1.692  0.1072 -0.3566 -0.2998
 1005MOL0     O35571  12.307   5.085  -1.663 -0.2804  0.1105  0.4692
 1005MOL0     C35572  12.413   5.071  -1.743  0.1683  0.6724  0.5298
 1005MOL0     C35573  12.431   4.954  -1.830  0.5229 -1.0364  0.2585
 1005MOL0     C35574  12.555   4.946  -1.893 -0.2441 -0.4563 -0.3376
 1005MOL0     C35575  12.663   5.026  -1.850  0.0173  0.9469  0.1436
 1005MOL0     O35576  12.795   5.012  -1.895  0.1208  0.7278  0.1456
 1005MOL0     C35577  12.850   4.878  -1.877  0.4254  0.9968  0.1636
 1005MOL0     C35578  12.970   4.898  -1.800 -0.9443  0.7561 -0.5095
 1005MOL0     C35579  12.923   4.909  -1.657 -0.0703 -0.6803 -0.2544
 1005MOL0     C35580  13.028   4.933  -1.548 -0.6938  1.1048  0.9741
 1005MOL0     C35581  13.129   4.823  -1.519 -0.4502  0.4569  0.0675
 1005MOL0     C35582  13.219   4.865  -1.401  0.2018  0.8655 -0.3610
 1005MOL0     C35583  13.330   4.759  -1.401  0.2788  0.6232 -0.8062
 1005MOL0     C35584  13.455   4.817  -1.333  0.2138  0.5152  0.9272
 1005MOL0    Cl35585  13.598   4.708  -1.351  0.1690  0.0374 -0.4050
 1005MOL0     C35586  12.644   5.144  -1.784  0.4038 -1.0216  0.0748
 1005MOL0     C35587  12.517   5.169  -1.724 -0.2156  0.8337 -0.5637
 1005MOL0     O35588  12.235   5.267  -1.787  0.6282  0.0825 -0.6604
 1005MOL0     C35589  12.062   5.096  -1.508  0.5054  1.0366 -0.6779
 1005MOL0     C35590  11.945   5.095  -1.421 -0.4834 -0.3022 -0.3191
 1005MOL0     N35591  11.407   4.816  -1.248  0.3031  0.0117 -0.8712
 1005MOL0     N35592  11.335   4.785  -1.139 -0.8317 -0.5568 -0.4839
 1005MOL0     C35593  10.925   5.214  -0.046  0.0975  0.5124  0.1148
 1005MOL0     C35594  10.931   5.226   0.096  0.3843  0.1480  0.0905
 1005MOL0     C35595  10.983   5.091   0.543 -1.1926  0.2514 -0.9069
 1005MOL0     C35596  10.960   5.225   0.586 -0.6214 -0.8310 -0.2393
 1005MOL0     C35597  10.972   5.272   0.718  0.4567 -0.6045 -0.1058
 1005MOL0     C35598  10.987   5.180   0.820  0.3843  0.2698 -0.1773
 1005MOL0     O35599  11.006   5.214   0.949 -0.3637  0.1237 -0.7639
 1005MOL0     C35600  11.115   5.159   1.032 -0.7646 -0.6118 -0.6558
 1005MOL0     C35601  11.229   5.259   1.069  0.8004 -0.4078 -0.5620
 1005MOL0     C35602  11.289   5.325   0.946  0.8654  0.1271  0.0153
 1005MOL0     C35603  11.409   5.410   0.971 -0.4713 -0.6366 -0.1716
 1005MOL0     C35604  11.513   5.334   1.036  0.0453 -0.0609  0.0327
 1005MOL0     C35605  11.605   5.291   1.098 -0.1516 -0.4024 -0.5188
 1005MOL0     C35606  11.003   5.048   0.792  0.2359  0.7205 -0.0082
 1005MOL0     C35607  11.015   5.014   0.654 -0.1319  0.8008 -0.0702
 1005MOL0     H35608  11.016   4.908   0.145 -2.3689 -1.0110  1.2351
 1005MOL0     H35609  10.974   4.891  -0.101  1.2940  0.9145 -1.8865
 1005MOL0     H35610  11.113   5.025  -0.349  0.7279 -2.5602 -3.2588
 1005MOL0     H35611  10.971   4.926  -0.323 -0.2359  0.0534  0.8675
 1005MOL0     H35612  10.938   5.172  -0.504 -0.1990 -0.3186  2.8593
 1005MOL0     H35613  11.058   5.038  -0.538  0.5573  1.7067 -0.1365
 1005MOL0     H35614  10.858   4.881  -0.531  0.5562  1.2099  1.6883
 1005MOL0     H35615  10.762   5.025  -0.518 -0.9854 -0.2193 -1.5008
 1005MOL0     H35616  10.721   4.980  -0.733 -0.5805 -1.1677  1.9683
 1005MOL0     H35617  10.852   5.103  -0.742  2.7226  0.2057  1.6672
 1005MOL0     H35618  11.012   4.934  -0.774 -1.2848 -0.2895  2.7819
 1005MOL0     H35619  10.899   4.794  -0.781 -1.1272 -0.2411  0.6338
 1005MOL0     H35620  10.784   4.905  -0.984 -0.2853  0.9981 -4.9280
 1005MOL0     H35621  10.882   5.041  -0.962 -0.3231 -0.3354 -0.3454
 1005MOL0     H35622  10.962   4.750  -1.025 -0.6146  0.1552 -2.1476
 1005MOL0     H35623  10.960   4.872  -1.146 -1.8928  1.3064  0.8177
 1005MOL0     H35624  11.168   4.825  -0.936 -0.5965 -1.0170 -0.6216
 1005MOL0     H35625  11.142   4.998  -0.995 -1.2629 -0.3529 -0.7974
 1005MOL0     H35626  11.133   4.979  -1.317  0.7909 -0.6767 -2.6882
 1005MOL0     H35627  11.414   4.870  -1.518  0.8148  0.9517  0.6749
 1005MOL0     H35628  11.249   4.929  -1.535 -1.9395 -0.6200  2.4838
 1005MOL0     H35629  11.347   5.139  -1.402  2.7286  2.0837 -1.1515
 1005MOL0     H35630  11.384   5.119  -1.578  1.1125  2.0297 -0.5645
 1005MOL0     H35631  11.599   5.044  -1.534 -0.6836  0.4170  0.6043
 1005MOL0     H35632  11.568   5.000  -1.370 -3.0224  0.2729  1.8772
 1005MOL0     H35633  11.536   5.272  -1.349 -1.4345  2.4270 -2.8194
 1005MOL0     H35634  11.609   5.273  -1.507  0.3959  1.1449 -0.6437
 1005MOL0     H35635  11.794   5.359  -1.557  3.9018  2.5565  1.3423
 1005MOL0     H35636  11.973   5.506  -1.665  1.3264  1.0131 -0.7452
 1005MOL0     H35637  12.080   5.429  -1.784 -0.9529  3.0228 -0.8757
 1005MOL0     H35638  11.909   5.402  -1.793 -0.3560  1.9395  0.0454
 1005MOL0     H35639  12.357   4.875  -1.837  1.8813 -2.7071  2.9409
 1005MOL0     H35640  12.585   4.864  -1.957  0.1807 -0.0495 -0.6654
 1005MOL0     H35641  12.772   4.822  -1.824 -3.7839  3.3690 -2.8870
 1005MOL0     H35642  12.876   4.830  -1.972  0.6546  0.9622  0.2460
 1005MOL0     H35643  13.034   4.810  -1.811 -0.9429  1.0370 -3.7136
 1005MOL0     H35644  13.037   4.978  -1.833  0.7565 -0.5001 -0.2585
 1005MOL0     H35645  12.871   4.814  -1.639 -0.8938 -0.8382 -3.0282
 1005MOL0     H35646  12.846   4.987  -1.653  2.3836  2.1535 -2.9869
 1005MOL0     H35647  13.085   5.023  -1.574  2.1941 -0.8593 -0.0759
 1005MOL0     H35648  12.968   4.962  -1.461 -2.5005  2.1223 -0.5410
 1005MOL0     H35649  13.195   4.795  -1.601  0.4777 -1.3473  1.3814
 1005MOL0     H35650  13.086   4.730  -1.482  5.0257 -2.7358 -0.5470
 1005MOL0     H35651  13.256   4.966  -1.423  5.3343 -0.0291  2.4732
 1005MOL0     H35652  13.167   4.872  -1.305  4.0338 -2.7739  2.3527
 1005MOL0     H35653  13.355   4.724  -1.502  2.5136  3.8008 -1.5077
 1005MOL0     H35654  13.304   4.677  -1.334 -0.4717  1.8579  0.4605
 1005MOL0     H35655  13.448   4.835  -1.225  1.1020 -0.5359  1.1696
 1005MOL0     H35656  13.478   4.908  -1.388 -1.0760 -0.3726 -1.1912
 1005MOL0     H35657  12.740   5.192  -1.767  0.9755 -1.8233 -0.7901
 1005MOL0     H35658  12.502   5.243  -1.646 -0.2154  0.2891 -0.0458
 1005MOL0     H35659  12.124   5.009  -1.489 -2.0992 -0.4768  1.7597
 1005MOL0     H35660  11.944   5.030  -1.334 -0.4894 -2.5097 -1.8530
 1005MOL0     H35661  10.908   5.312  -0.092 -3.7665  1.3915  2.8845
 1005MOL0     H35662  10.932   5.326   0.139  0.5552  0.0138  0.4001
 1005MOL0     H35663  10.946   5.303   0.512 -0.3364 -0.6866 -0.1408
 1005MOL0     H35664  10.955   5.378   0.737 -2.5811 -1.3087  1.8672
 1005MOL0     H35665  11.073   5.129   1.128  1.5006  2.4661  1.4831
 1005MOL0     H35666  11.173   5.084   0.977  0.0277  1.7921 -3.3700
 1005MOL0     H35667  11.304   5.213   1.134  3.7481  3.7141 -0.6758
 1005MOL0     H35668  11.178   5.336   1.128  2.0656  0.5911 -0.7457
 1005MOL0     H35669  11.204   5.380   0.903 -0.0725 -3.1510 -2.8601
 1005MOL0     H35670  11.310   5.240   0.880  2.5274  0.5476 -0.0336
 1005MOL0     H35671  11.385   5.497   1.034 -0.6571 -1.7588  1.3557
 1005MOL0     H35672  11.455   5.465   0.888  0.5014  2.5863  2.2908
 1005MOL0     H35673  11.700   5.264   1.139 -0.2252  0.4145  0.2418
 1005MOL0     H35674  11.018   4.968   0.865 -2.6577  2.4867  2.7979
 1005MOL0     H35675  11.038   4.910   0.633 -5.2481 -0.2990 -1.7425
 1006MOL0     O35676   4.162   7.687   6.728 -0.1658 -0.2056  0.5563
 1006MOL0     C35677   4.144   7.790   6.664  0.4171  0.1718 -0.2058
 1006MOL0     O35678   4.014   7.837   6.619 -0.0573 -0.0963 -0.6440
 1006MOL0     C35679   3.887   7.793   6.663  1.1393  0.2725 -0.6369
 1006MOL0     C35680   3.860   7.732   6.788 -0.2704  0.8238 -0.6825
 1006MOL0     C35681   3.731   7.726   6.840 -0.6078 -0.1898 -0.4487
 1006MOL0     C35682   3.622   7.740   6.762  0.2869 -0.4812  0.0826
 1006MOL0     O35683   3.496   7.709   6.781  0.1002 -0.6649  0.6327
 1006MOL0     C35684   3.452   7.648   6.896  0.3175  0.2394 -1.1251
 1006MOL0     C35685   3.448   7.498   6.872 -0.6100 -0.0123  0.1625
 1006MOL0     C35686   3.369   7.431   6.989 -0.2223  0.8374 -0.9866
 1006MOL0     C35687   3.328   7.296   6.932 -0.6124  0.2376  0.5161
 1006MOL0     C35688   3.205   7.296   6.841 -0.4427 -0.6687  0.2010
 1006MOL0     C35689   3.087   7.368   6.894 -0.3600 -0.1369 -0.0629
 1006MOL0     C35690   2.969   7.326   6.808  0.4926 -1.5082 -1.1684
 1006MOL0     C35691   2.849   7.407   6.845  0.5798  0.2347 -0.0528
 1006MOL0     N35692   2.779   7.335   6.952 -0.6185  0.4847 -0.3236
 1006MOL0     C35693   2.798   7.348   7.088  0.1611  1.2537 -0.6295
 1006MOL0     C35694   2.701   7.263   7.138  0.7368 -0.4544 -0.2324
 1006MOL0     C35695   2.678   7.235   7.279  0.0788 -0.3219  0.2162
 1006MOL0     C35696   2.656   7.087   7.300  0.2870  0.2048 -0.3894
 1006MOL0     C35697   2.671   7.050   7.456  0.0209  1.1372  0.5969
 1006MOL0     C35698   2.557   7.087   7.536 -0.2007  0.3977 -0.1772
 1006MOL0     O35699   2.437   7.008   7.502 -0.0791 -0.1597 -0.0115
 1006MOL0     C35700   2.360   6.933   7.592  0.2420 -0.2837 -0.2518
 1006MOL0     C35701   2.354   6.932   7.734 -1.3337 -0.0696  0.9168
 1006MOL0     C35702   2.273   6.844   7.802  0.1313 -0.1645 -0.7083
 1006MOL0     C35703   2.303   6.835   7.944 -0.3366  0.1767  0.3474
 1006MOL0     C35704   2.172   6.764   7.736 -0.1442 -1.3457 -0.2104
 1006MOL0     C35705   2.082   6.666   7.793  0.0886 -0.1920  1.1159
 1006MOL0     O35706   1.999   6.594   7.694  0.0999  0.4788  0.2709
 1006MOL0     C35707   1.917   6.492   7.735 -0.3328 -0.0202 -0.3612
 1006MOL0     C35708   1.798   6.461   7.661  0.1713 -0.3848 -0.3041
 1006MOL0     C35709   1.718   6.345   7.685  0.0457 -0.7261 -0.1214
 1006MOL0     C35710   1.756   6.260   7.791  0.3401 -0.2842  0.4129
 1006MOL0     O35711   1.681   6.152   7.801 -0.4840  0.1735  0.2334
 1006MOL0     C35712   1.720   6.035   7.894  0.4276 -0.0749  0.0908
 1006MOL0     C35713   1.600   5.938   7.926 -0.4359 -0.3805 -0.5819
 1006MOL0     C35714   1.546   5.877   7.801 -0.2949 -0.6148 -0.2713
 1006MOL0     C35715   1.418   5.799   7.819  0.4754  0.0962  0.3003
 1006MOL0     C35716   1.420   5.677   7.908 -0.4774 -0.1884 -1.3393
 1006MOL0     C35717   1.282   5.641   7.961 -0.0304  0.6677 -0.5156
 1006MOL0     C35718   1.207   5.540   7.875 -0.4184  0.8735  0.1920
 1006MOL0     C35719   1.242   5.393   7.894 -0.1312 -0.2050  0.0023
 1006MOL0    Cl35720   1.166   5.295   7.763  0.4861 -0.0417  0.1176
 1006MOL0     C35721   1.874   6.285   7.856  0.1696 -0.0442 -0.3306
 1006MOL0     C35722   1.952   6.394   7.831  0.6007 -1.1852 -0.7384
 1006MOL0     O35723   2.081   6.643   7.911  0.0672  0.2078  0.6904
 1006MOL0     C35724   2.154   6.786   7.589  0.0300  0.6532  0.1797
 1006MOL0     C35725   2.255   6.856   7.528 -0.7390  0.5739 -0.4031
 1006MOL0     N35726   2.623   7.220   7.028 -0.0353  0.3979 -0.4382
 1006MOL0     N35727   2.673   7.255   6.914  0.2003  0.3626 -0.4496
 1006MOL0     C35728   3.641   7.799   6.630 -0.3959  0.7161 -0.9565
 1006MOL0     C35729   3.774   7.832   6.588  0.8246 -0.3554  0.5340
 1006MOL0     C35730   4.259   7.876   6.629 -0.2010  0.1533 -0.4849
 1006MOL0     C35731   4.241   7.989   6.544  0.4685  0.2160 -0.1722
 1006MOL0     C35732   4.353   8.079   6.512  0.6583  0.5823  0.4898
 1006MOL0     C35733   4.479   8.065   6.564 -0.4377 -0.8763 -0.6528
 1006MOL0     O35734   4.582   8.156   6.563  0.1688  0.2543  0.9986
 1006MOL0     C35735   4.592   8.262   6.459 -0.4000 -0.8762 -0.1195
 1006MOL0     C35736   4.506   8.384   6.502  0.1222  0.2408  0.4162
 1006MOL0     C35737   4.557   8.443   6.633 -0.4197 -0.2540 -0.0254
 1006MOL0     C35738   4.483   8.575   6.663 -0.6752  0.1590  1.0539
 1006MOL0     C35739   4.340   8.556   6.663 -0.2111 -0.4504  0.5331
 1006MOL0     C35740   4.211   8.551   6.661 -0.3733  0.1689  0.0229
 1006MOL0     C35741   4.497   7.955   6.653  0.2339 -0.5213 -0.7055
 1006MOL0     C35742   4.386   7.868   6.682 -0.4438 -0.3468  0.0355
 1006MOL0     H35743   3.940   7.699   6.854 -0.5652 -1.7832 -1.4953
 1006MOL0     H35744   3.716   7.671   6.932 -3.9141  0.4608 -0.4726
 1006MOL0     H35745   3.508   7.668   6.988 -1.7138 -3.1186  1.0479
 1006MOL0     H35746   3.351   7.684   6.914 -1.3222 -3.3330 -2.2571
 1006MOL0     H35747   3.398   7.482   6.776 -1.9483  2.3850  0.3768
 1006MOL0     H35748   3.550   7.463   6.857 -1.2236 -1.5626 -0.6294
 1006MOL0     H35749   3.443   7.405   7.066  0.1900  2.0418 -0.9405
 1006MOL0     H35750   3.287   7.484   7.039  0.0563 -1.0773  1.7442
 1006MOL0     H35751   3.410   7.247   6.877 -0.8796 -1.5834  1.6411
 1006MOL0     H35752   3.307   7.232   7.018  2.6430 -1.8413 -0.0342
 1006MOL0     H35753   3.230   7.343   6.745 -0.9182 -1.3274 -0.2466
 1006MOL0     H35754   3.187   7.193   6.810  0.8778 -0.4260 -1.5556
 1006MOL0     H35755   3.075   7.348   7.002  0.5024  1.9588  0.4583
 1006MOL0     H35756   3.094   7.476   6.879 -0.3279 -0.4988 -3.3474
 1006MOL0     H35757   2.983   7.329   6.700  0.5264 -0.5805 -1.1487
 1006MOL0     H35758   2.938   7.222   6.820 -4.1549 -0.3190 -0.9617
 1006MOL0     H35759   2.779   7.418   6.761 -1.7847  0.0309  1.8042
 1006MOL0     H35760   2.872   7.507   6.882 -2.7939  0.0787  2.9682
 1006MOL0     H35761   2.878   7.391   7.147  2.8178 -2.4236 -1.1804
 1006MOL0     H35762   2.776   7.253   7.323  1.2496  0.0045 -2.3584
 1006MOL0     H35763   2.587   7.282   7.318 -0.5854 -0.8039 -0.7119
 1006MOL0     H35764   2.725   7.023   7.244 -0.7906  1.0312 -2.7939
 1006MOL0     H35765   2.557   7.057   7.265 -0.3187  1.3410  0.2912
 1006MOL0     H35766   2.760   7.094   7.502  0.5777  1.5665 -0.8427
 1006MOL0     H35767   2.695   6.945   7.477  0.0525  0.5188 -2.0770
 1006MOL0     H35768   2.535   7.195   7.534  1.2310  0.7011 -0.4354
 1006MOL0     H35769   2.598   7.075   7.636  0.5367  1.0113 -0.3903
 1006MOL0     H35770   2.437   6.979   7.785 -0.5552 -0.5308  0.0946
 1006MOL0     H35771   2.368   6.914   7.982 -0.3862 -0.1161  1.0559
 1006MOL0     H35772   2.211   6.863   7.996  1.2908  1.9711  2.4236
 1006MOL0     H35773   2.349   6.738   7.965 -1.3425 -0.5484 -0.6853
 1006MOL0     H35774   1.764   6.525   7.580 -1.6483 -1.1609 -0.1906
 1006MOL0     H35775   1.624   6.319   7.638 -2.1544 -2.8294  4.6804
 1006MOL0     H35776   1.800   5.971   7.856  0.5607 -0.0656  0.3541
 1006MOL0     H35777   1.761   6.081   7.984  1.7716  0.4327 -0.7450
 1006MOL0     H35778   1.633   5.863   7.999 -1.5524 -0.8975 -0.5872
 1006MOL0     H35779   1.525   5.995   7.981  0.7208 -0.8941  1.6626
 1006MOL0     H35780   1.627   5.811   7.768  0.4811 -0.3875  1.0695
 1006MOL0     H35781   1.539   5.958   7.728  1.8795 -1.0792 -1.0798
 1006MOL0     H35782   1.335   5.863   7.849 -0.0918 -0.9749  1.0839
 1006MOL0     H35783   1.395   5.753   7.723 -1.0554  3.0130 -0.8311
 1006MOL0     H35784   1.486   5.692   7.994 -0.2339  2.7595 -1.9172
 1006MOL0     H35785   1.462   5.590   7.857 -1.0840 -0.7647 -0.8570
 1006MOL0     H35786   1.322   5.613   8.058  0.5382 -0.0811 -0.9558
 1006MOL0     H35787   1.219   5.731   7.959  0.9166  1.4748 -4.8809
 1006MOL0     H35788   1.218   5.570   7.770  0.5292  1.8438  0.5453
 1006MOL0     H35789   1.103   5.547   7.907  0.1655  1.5978  2.1009
 1006MOL0     H35790   1.225   5.354   7.995  0.3105 -1.0272 -0.2239
 1006MOL0     H35791   1.350   5.385   7.884  0.1040 -0.2648  2.1132
 1006MOL0     H35792   1.893   6.216   7.938 -1.7776  0.9571  1.0681
 1006MOL0     H35793   2.040   6.404   7.894  1.1367 -2.7869 -1.1751
 1006MOL0     H35794   2.084   6.735   7.524 -0.0759  1.5441 -0.4129
 1006MOL0     H35795   2.285   6.850   7.423  3.1624 -3.2250  0.6491
 1006MOL0     H35796   3.561   7.794   6.556  1.4223 -1.2451 -2.9717
 1006MOL0     H35797   3.778   7.884   6.493 -2.8934  1.1656  1.0718
 1006MOL0     H35798   4.143   8.012   6.504  0.3661  2.2169  1.0912
 1006MOL0     H35799   4.345   8.160   6.440  2.7644  3.6699  3.3875
 1006MOL0     H35800   4.699   8.282   6.459 -0.6889  0.7788 -0.5731
 1006MOL0     H35801   4.555   8.230   6.361 -0.6511 -1.8000  0.2593
 1006MOL0     H35802   4.406   8.344   6.522 -0.0190  0.4579  0.1589
 1006MOL0     H35803   4.499   8.447   6.413  0.4159  1.7946  1.4461
 1006MOL0     H35804   4.661   8.473   6.615 -0.0427 -2.2449 -1.4747
 1006MOL0     H35805   4.564   8.369   6.714  1.2055  1.1459  1.1806
 1006MOL0     H35806   4.512   8.651   6.589 -0.1638 -0.5937  0.4687
 1006MOL0     H35807   4.527   8.612   6.756  2.5639 -1.6960  0.4380
 1006MOL0     H35808   4.105   8.549   6.671 -0.3112  2.1749  2.2553
 1006MOL0     H35809   4.598   7.947   6.693  0.6309 -0.5362 -1.6817
 1006MOL0     H35810   4.400   7.784   6.750 -2.8341 -1.2726 -0.5187
 1007MOL0     O35811   9.160   7.389   2.118 -0.1297  0.3612  0.2041
 1007MOL0     C35812   9.228   7.483   2.142 -0.4233 -0.7690 -0.2737
 1007MOL0     O35813   9.291   7.561   2.048 -1.5194  0.0689  0.5871
 1007MOL0     C35814   9.298   7.515   1.916 -0.5542  0.9310 -0.6789
 1007MOL0     C35815   9.307   7.390   1.867 -0.1994  0.9521 -0.0387
 1007MOL0     C35816   9.318   7.358   1.731  0.6673  0.2992  0.4290
 1007MOL0     C35817   9.344   7.460   1.639 -0.2866 -0.1388  0.5712
 1007MOL0     O35818   9.357   7.432   1.499 -0.1713  0.8633 -0.1292
 1007MOL0     C35819   9.319   7.296   1.451  0.6798 -0.3636 -0.3380
 1007MOL0     C35820   9.332   7.305   1.302  0.6009  0.2094  0.5456
 1007MOL0     C35821   9.354   7.164   1.247  0.7441 -0.3618 -0.5002
 1007MOL0     C35822   9.495   7.149   1.186  0.7047  0.5377  0.1737
 1007MOL0     C35823   9.500   7.215   1.049  0.2729  0.0544  0.4995
 1007MOL0     C35824   9.625   7.198   0.969 -0.0669 -0.4532  0.8521
 1007MOL0     C35825   9.642   7.307   0.857  0.0395  0.2575 -0.1776
 1007MOL0     C35826   9.779   7.288   0.781 -1.1764  0.3510 -0.0040
 1007MOL0     N35827   9.795   7.149   0.738  0.3829 -0.3807  0.4090
 1007MOL0     C35828   9.885   7.051   0.770 -0.9162 -0.5373 -0.1587
 1007MOL0     C35829   9.855   6.945   0.695  0.0493  0.8293  1.1116
 1007MOL0     C35830   9.923   6.810   0.700  0.7645  0.5554  0.4645
 1007MOL0     C35831   9.820   6.708   0.744 -0.1105  0.0232 -0.0726
 1007MOL0     C35832   9.866   6.565   0.762  0.0059  1.1028 -0.6968
 1007MOL0     C35833   9.958   6.529   0.881  0.3793  0.0238  0.2013
 1007MOL0     O35834  10.090   6.534   0.843  0.3234  0.2585 -0.6571
 1007MOL0     C35835  10.185   6.561   0.937  0.2582 -0.7234 -1.1435
 1007MOL0     C35836  10.319   6.588   0.891  0.2585  0.6900  0.3446
 1007MOL0     C35837  10.433   6.608   0.979 -0.0325 -0.0841  0.5997
 1007MOL0     C35838  10.563   6.648   0.903  1.1694 -0.6940 -0.0754
 1007MOL0     C35839  10.413   6.570   1.119  0.0785 -1.1731 -0.3113
 1007MOL0     C35840  10.523   6.550   1.212  0.2780 -1.1147 -0.8795
 1007MOL0     O35841  10.504   6.579   1.346  0.0035 -0.6110 -0.2301
 1007MOL0     C35842  10.602   6.619   1.428 -0.6784  0.0629  0.3198
 1007MOL0     C35843  10.685   6.737   1.401  0.5251  0.1027 -0.2124
 1007MOL0     C35844  10.797   6.765   1.486  0.5365 -0.2753  0.2706
 1007MOL0     C35845  10.822   6.681   1.592  0.4179 -0.6354  0.0849
 1007MOL0     O35846  10.923   6.705   1.673 -0.2459 -0.0425  0.2913
 1007MOL0     C35847  10.924   6.833   1.748 -0.0144  0.6225  0.3914
 1007MOL0     C35848  10.846   6.819   1.878 -0.3638 -0.6489  0.3158
 1007MOL0     C35849  10.835   6.971   1.930 -0.6278  0.0930  0.4398
 1007MOL0     C35850  10.756   6.954   2.063  0.3243 -0.1770  0.1352
 1007MOL0     C35851  10.741   7.077   2.152 -0.3455 -0.0850  0.3280
 1007MOL0     C35852  10.867   7.135   2.226 -0.7129 -0.4110 -0.4743
 1007MOL0     C35853  10.825   7.251   2.318  0.3889  0.3539  0.2190
 1007MOL0     C35854  10.932   7.310   2.391  0.8232 -0.1337  0.8011
 1007MOL0    Cl35855  11.004   7.212   2.513 -0.1564  0.1883 -0.0882
 1007MOL0     C35856  10.734   6.582   1.620  0.2541  0.0945 -0.3095
 1007MOL0     C35857  10.624   6.550   1.539  0.0638 -0.9286 -0.3744
 1007MOL0     O35858  10.630   6.508   1.167 -0.2633 -0.6595  0.2460
 1007MOL0     C35859  10.284   6.542   1.156  0.5806  0.5752  1.0533
 1007MOL0     C35860  10.174   6.545   1.078 -0.8134  0.0895 -0.4175
 1007MOL0     N35861   9.761   6.985   0.602  0.2139 -0.2902  0.4021
 1007MOL0     N35862   9.728   7.110   0.627 -0.2732  0.7729  1.2063
 1007MOL0     C35863   9.339   7.592   1.685  0.0722 -0.4507 -0.1423
 1007MOL0     C35864   9.319   7.613   1.819 -0.2706  0.3333  1.0049
 1007MOL0     C35865   9.251   7.520   2.282  1.5700  0.8111 -0.3246
 1007MOL0     C35866   9.193   7.449   2.388 -0.2242  0.8453 -0.7178
 1007MOL0     C35867   9.214   7.486   2.519  0.9970 -0.6086  0.1318
 1007MOL0     C35868   9.283   7.609   2.545  0.0795 -0.1728  0.4291
 1007MOL0     O35869   9.316   7.655   2.669  0.5060 -0.1509  0.1750
 1007MOL0     C35870   9.255   7.614   2.793 -0.1093  0.2789  0.7167
 1007MOL0     C35871   9.318   7.694   2.906 -0.4229  0.4681 -1.8066
 1007MOL0     C35872   9.475   7.692   2.899 -0.0903 -0.8363  0.8042
 1007MOL0     C35873   9.555   7.704   3.034  1.3123 -0.2870  0.1638
 1007MOL0     C35874   9.692   7.672   3.009 -0.6774  0.4349 -0.1102
 1007MOL0     C35875   9.802   7.630   2.973 -0.3441 -0.0844 -0.0807
 1007MOL0     C35876   9.320   7.689   2.433 -0.0662 -0.0683 -0.3747
 1007MOL0     C35877   9.317   7.639   2.306 -0.5781 -0.2732 -0.7035
 1007MOL0     H35878   9.305   7.306   1.936  2.5695  1.2433  0.5361
 1007MOL0     H35879   9.317   7.253   1.704  2.0833  0.3993 -0.0816
 1007MOL0     H35880   9.404   7.232   1.479 -0.7710 -2.9952 -1.5914
 1007MOL0     H35881   9.223   7.258   1.488  0.7373 -0.7730 -0.6024
 1007MOL0     H35882   9.236   7.327   1.255 -0.1970 -0.6980  1.6922
 1007MOL0     H35883   9.405   7.380   1.270  1.2205 -0.9867 -0.9491
 1007MOL0     H35884   9.329   7.092   1.327  2.5282 -1.3805 -0.8054
 1007MOL0     H35885   9.276   7.161   1.171  0.5434  6.0744 -1.0309
 1007MOL0     H35886   9.571   7.183   1.258  0.6367 -0.3595  0.6820
 1007MOL0     H35887   9.513   7.042   1.171  2.5196  0.8222  0.0378
 1007MOL0     H35888   9.411   7.193   0.988  0.8680  0.3122 -0.4894
 1007MOL0     H35889   9.491   7.321   1.071 -0.6207  0.6112 -2.1532
 1007MOL0     H35890   9.711   7.202   1.036 -0.1451  2.1409  0.9105
 1007MOL0     H35891   9.617   7.101   0.918  0.2155 -1.7015  3.0551
 1007MOL0     H35892   9.567   7.285   0.781  2.8745  1.4796 -3.6285
 1007MOL0     H35893   9.628   7.410   0.889 -1.0100  0.9320 -2.5636
 1007MOL0     H35894   9.869   7.310   0.840 -0.1829 -0.7314 -1.0364
 1007MOL0     H35895   9.790   7.356   0.696 -0.2532  1.8486  1.2769
 1007MOL0     H35896   9.950   7.065   0.855 -1.0965  3.9458 -0.5204
 1007MOL0     H35897   9.957   6.777   0.601 -0.8696 -0.5832  0.2348
 1007MOL0     H35898  10.015   6.804   0.758  0.7777 -1.5579  0.2881
 1007MOL0     H35899   9.736   6.703   0.673 -1.5474 -0.0721  1.5542
 1007MOL0     H35900   9.777   6.734   0.842 -0.9689  1.3977 -0.7879
 1007MOL0     H35901   9.922   6.527   0.675  1.0785  0.9267  0.0480
 1007MOL0     H35902   9.774   6.507   0.775  1.2607 -0.6680  0.7300
 1007MOL0     H35903   9.931   6.425   0.902  2.8921 -1.0056 -1.1548
 1007MOL0     H35904   9.938   6.590   0.969 -1.1270 -1.7516  1.1575
 1007MOL0     H35905  10.324   6.613   0.785 -0.4290  2.0603  0.6126
 1007MOL0     H35906  10.575   6.756   0.918  4.5184 -0.8451 -0.9575
 1007MOL0     H35907  10.651   6.593   0.937  1.3960 -1.2046 -1.4265
 1007MOL0     H35908  10.559   6.632   0.795 -1.4657  3.1425 -0.7716
 1007MOL0     H35909  10.664   6.789   1.309 -1.0143 -1.3609 -0.7304
 1007MOL0     H35910  10.868   6.839   1.450 -1.7147  0.3840 -3.3624
 1007MOL0     H35911  11.022   6.873   1.775 -0.6149  2.8871 -0.4877
 1007MOL0     H35912  10.882   6.918   1.693 -0.8083  0.6359  0.9966
 1007MOL0     H35913  10.752   6.769   1.852  0.4133 -0.6436 -2.8837
 1007MOL0     H35914  10.896   6.755   1.951 -0.0782 -1.8016 -0.8622
 1007MOL0     H35915  10.787   7.044   1.864 -1.8631  0.7801  2.0265
 1007MOL0     H35916  10.933   7.008   1.961 -1.1526  1.6535  0.3363
 1007MOL0     H35917  10.654   6.925   2.035 -0.4977  0.9285  1.8267
 1007MOL0     H35918  10.799   6.870   2.119 -2.5130 -2.0335 -0.2144
 1007MOL0     H35919  10.671   7.041   2.228  1.3388 -1.6534  1.2271
 1007MOL0     H35920  10.702   7.166   2.102 -1.4749 -0.5716  0.3245
 1007MOL0     H35921  10.911   7.060   2.292 -3.8548 -0.0353  2.3965
 1007MOL0     H35922  10.937   7.167   2.149  0.1284 -3.6177 -1.1652
 1007MOL0     H35923  10.753   7.204   2.385  1.2531 -1.7558 -0.2710
 1007MOL0     H35924  10.776   7.325   2.254 -1.8826 -0.6633  0.7161
 1007MOL0     H35925  10.891   7.401   2.436 -0.7588 -0.0140 -0.7690
 1007MOL0     H35926  11.017   7.332   2.327  0.5808  2.6827  1.3171
 1007MOL0     H35927  10.766   6.520   1.703  3.7354  2.2594  0.1943
 1007MOL0     H35928  10.563   6.462   1.557 -1.0708 -0.0278  0.3784
 1007MOL0     H35929  10.268   6.521   1.261 -0.5389 -0.4433  0.6978
 1007MOL0     H35930  10.078   6.511   1.116 -1.5634  3.2168  0.7289
 1007MOL0     H35931   9.350   7.676   1.617  0.2558 -0.3026  0.0688
 1007MOL0     H35932   9.324   7.717   1.849 -3.4324  1.3985 -1.5650
 1007MOL0     H35933   9.135   7.358   2.376  2.7134 -1.0033 -1.9956
 1007MOL0     H35934   9.192   7.426   2.608 -0.1966 -1.2055 -0.5396
 1007MOL0     H35935   9.147   7.630   2.793  0.0369  1.4017  1.2427
 1007MOL0     H35936   9.283   7.510   2.811 -2.4209 -0.2175  1.8064
 1007MOL0     H35937   9.267   7.658   2.996 -1.5083 -2.5039 -3.4773
 1007MOL0     H35938   9.293   7.797   2.880  1.8861  2.0949  1.5739
 1007MOL0     H35939   9.494   7.783   2.842  0.0180 -0.3067  1.6583
 1007MOL0     H35940   9.507   7.601   2.848  0.1181 -0.1747 -0.2590
 1007MOL0     H35941   9.512   7.646   3.116  3.0488 -2.8898 -0.6629
 1007MOL0     H35942   9.556   7.808   3.069 -0.6177  0.4719 -1.7438
 1007MOL0     H35943   9.907   7.618   2.954  0.3128  1.9549  1.8230
 1007MOL0     H35944   9.380   7.778   2.451 -2.8765  1.4759  2.2284
 1007MOL0     H35945   9.361   7.699   2.227  3.0000 -0.2932  1.0882
 1008MOL0     O35946  11.101   5.223  10.385  0.3846  0.3913 -0.7771
 1008MOL0     C35947  11.204   5.278  10.349  0.1442  0.6464 -0.5025
 1008MOL0     O35948  11.324   5.273  10.416 -0.4278 -0.0864 -0.0228
 1008MOL0     C35949  11.315   5.209  10.532 -0.1943 -1.0160  0.5377
 1008MOL0     C35950  11.399   5.098  10.553 -0.2485  0.4136  0.8185
 1008MOL0     C35951  11.391   5.015  10.660 -0.5215  0.5766 -1.2833
 1008MOL0     C35952  11.309   5.046  10.766  0.4349 -0.4189 -0.0258
 1008MOL0     O35953  11.316   4.977  10.882 -1.1550 -0.1768 -0.1803
 1008MOL0     C35954  11.313   4.832  10.875  0.3823  0.2209 -0.6295
 1008MOL0     C35955  11.339   4.775  11.018 -0.9079 -1.3856 -0.2931
 1008MOL0     C35956  11.366   4.624  11.009 -0.6567 -0.1202  0.3484
 1008MOL0     C35957  11.517   4.575  10.993  0.2347  0.7102  0.5892
 1008MOL0     C35958  11.598   4.605  11.118  0.7175  0.3641  0.5345
 1008MOL0     C35959  11.734   4.530  11.134  0.4326 -0.0756  0.6927
 1008MOL0     C35960  11.841   4.581  11.038  0.7161 -0.4567  0.8470
 1008MOL0     C35961  11.888   4.732  11.062 -0.0136 -0.6513  1.1754
 1008MOL0     N35962  11.992   4.767  10.966  0.3323  0.4230 -0.6301
 1008MOL0     C35963  11.987   4.738  10.835 -0.5943 -0.2722  0.7860
 1008MOL0     C35964  12.092   4.804  10.783 -0.0814 -0.5529  0.4004
 1008MOL0     C35965  12.144   4.812  10.636  0.0150  0.3328 -0.2525
 1008MOL0     C35966  12.236   4.698  10.609 -0.1334  0.3345  0.0775
 1008MOL0     C35967  12.165   4.562  10.635  0.0879 -0.1089 -0.8569
 1008MOL0     C35968  12.239   4.446  10.567 -1.1150 -0.2839  0.7021
 1008MOL0     O35969  12.252   4.454  10.415 -0.6180  1.9034  0.0263
 1008MOL0     C35970  12.156   4.393  10.341 -0.4266  0.0754  0.4968
 1008MOL0     C35971  12.199   4.314  10.236  0.6408 -0.9747 -0.1588
 1008MOL0     C35972  12.103   4.253  10.156 -0.3863  0.4535 -0.0319
 1008MOL0     C35973  12.156   4.158  10.058  0.8945  0.6904  0.7217
 1008MOL0     C35974  11.969   4.272  10.179  0.4138 -0.5701 -0.1450
 1008MOL0     C35975  11.853   4.225  10.084 -1.5014 -0.1003 -0.6004
 1008MOL0     O35976  11.895   4.189   9.954  0.1911 -0.6839 -0.3418
 1008MOL0     C35977  11.811   4.127   9.867  0.7853  0.6684 -0.4604
 1008MOL0     C35978  11.715   4.199   9.813  0.6225 -0.3001  1.0273
 1008MOL0     C35979  11.630   4.145   9.716 -0.4775  0.6009 -0.2483
 1008MOL0     C35980  11.650   4.016   9.672  0.3347 -0.1021 -0.1972
 1008MOL0     O35981  11.568   3.948   9.596  0.1642  0.4163  0.0219
 1008MOL0     C35982  11.440   3.987   9.539 -0.5401 -0.2788 -0.3133
 1008MOL0     C35983  11.316   3.957   9.624 -0.0407 -0.3225  0.0711
 1008MOL0     C35984  11.187   3.979   9.543  0.1912  0.4519  0.2776
 1008MOL0     C35985  11.177   3.850   9.470  0.6828  0.3596 -0.1451
 1008MOL0     C35986  11.039   3.850   9.412 -0.7699  0.0793 -0.3854
 1008MOL0     C35987  11.025   3.719   9.335  0.4150  0.3726  0.7815
 1008MOL0     C35988  10.883   3.710   9.272 -0.5286  1.1777 -1.1589
 1008MOL0     C35989  10.873   3.782   9.137  0.3082 -0.2886 -0.3882
 1008MOL0    Cl35990  10.870   3.955   9.147 -0.3449  0.1023  0.5230
 1008MOL0     C35991  11.747   3.947   9.743 -0.1852  0.0957  0.3031
 1008MOL0     C35992  11.822   3.993   9.844  0.0611 -0.5989 -0.1611
 1008MOL0     O35993  11.742   4.205  10.133  0.2973  0.2240 -0.5211
 1008MOL0     C35994  11.926   4.344  10.291  0.1306 -0.2751 -0.2034
 1008MOL0     C35995  12.019   4.416  10.367  0.1307  0.1773  0.1371
 1008MOL0     N35996  12.161   4.857  10.886 -0.1937  0.4217  0.7798
 1008MOL0     N35997  12.098   4.849  10.994  1.1553  0.1462  0.0936
 1008MOL0     C35998  11.224   5.156  10.756 -0.5897  0.1093 -0.5497
 1008MOL0     C35999  11.219   5.238  10.641  0.0472  0.3169  0.6926
 1008MOL0     C36000  11.189   5.344  10.223 -1.1031  0.2996  0.2472
 1008MOL0     C36001  11.073   5.356  10.151  0.3787 -0.7238 -0.2417
 1008MOL0     C36002  11.069   5.423  10.027 -0.2510  0.7693  0.2568
 1008MOL0     C36003  11.180   5.488   9.978  0.2927 -0.2922  0.0486
 1008MOL0     O36004  11.184   5.574   9.865  0.2660  0.4832 -0.0696
 1008MOL0     C36005  11.060   5.603   9.794  0.8214  0.6199  0.0310
 1008MOL0     C36006  11.102   5.679   9.670 -0.9525  0.6402 -0.4861
 1008MOL0     C36007  11.151   5.816   9.728 -0.3114 -0.1222 -0.0896
 1008MOL0     C36008  11.191   5.912   9.618  0.0394  0.4430 -1.1252
 1008MOL0     C36009  11.318   5.869   9.565 -0.1145  0.2248 -0.5974
 1008MOL0     C36010  11.423   5.843   9.515  0.0300  0.3496  0.1832
 1008MOL0     C36011  11.296   5.472  10.050  0.1914  0.6226  0.7376
 1008MOL0     C36012  11.301   5.406  10.170  0.3347  0.0773 -0.1115
 1008MOL0     H36013  11.484   5.090  10.487 -0.1808  2.4390  0.5988
 1008MOL0     H36014  11.456   4.929  10.668 -0.0317  1.1462  2.2741
 1008MOL0     H36015  11.222   4.787  10.834  1.2113 -3.9158  1.4681
 1008MOL0     H36016  11.395   4.788  10.818 -0.5355  0.2712 -2.0203
 1008MOL0     H36017  11.423   4.833  11.058 -2.4345  2.2759 -2.0002
 1008MOL0     H36018  11.254   4.797  11.083 -1.0402 -2.0800 -0.2207
 1008MOL0     H36019  11.334   4.581  11.104 -0.5578  1.1233  0.9675
 1008MOL0     H36020  11.303   4.592  10.926  0.5450  2.3159 -1.6531
 1008MOL0     H36021  11.494   4.468  10.982 -1.3611  0.8576  2.0987
 1008MOL0     H36022  11.575   4.615  10.909 -2.5480  1.3977 -1.1295
 1008MOL0     H36023  11.624   4.711  11.103 -1.5910  0.5518 -3.6616
 1008MOL0     H36024  11.537   4.598  11.208  1.5052 -0.2246  1.0221
 1008MOL0     H36025  11.772   4.534  11.236  0.3312  1.3840  0.7012
 1008MOL0     H36026  11.702   4.429  11.111 -0.5211  0.6822 -1.5576
 1008MOL0     H36027  11.926   4.515  11.059  1.1396  0.5398  2.4689
 1008MOL0     H36028  11.806   4.562  10.936 -5.6242 -2.4466  2.9275
 1008MOL0     H36029  11.918   4.759  11.163  2.3978  3.3479 -0.3557
 1008MOL0     H36030  11.802   4.796  11.040  1.7598  2.1819  1.9070
 1008MOL0     H36031  11.913   4.678  10.783 -2.0195  1.3312  0.8838
 1008MOL0     H36032  12.061   4.829  10.567  1.3116  0.3225 -1.8879
 1008MOL0     H36033  12.198   4.906  10.622 -0.9250  0.6497 -2.0832
 1008MOL0     H36034  12.325   4.711  10.671 -2.1341  2.2071  2.7671
 1008MOL0     H36035  12.274   4.705  10.506  1.3199 -1.6125  0.4143
 1008MOL0     H36036  12.058   4.559  10.613 -0.5500  1.4820  1.6108
 1008MOL0     H36037  12.172   4.532  10.740  1.3058  1.7626 -0.3579
 1008MOL0     H36038  12.190   4.351  10.587  1.2931 -1.2870  2.3295
 1008MOL0     H36039  12.345   4.435  10.591 -0.6055 -1.9574 -1.8868
 1008MOL0     H36040  12.307   4.302  10.229  0.7484  0.1823 -0.8916
 1008MOL0     H36041  12.265   4.146  10.064  0.6639 -1.4519  1.3526
 1008MOL0     H36042  12.124   4.057  10.081  0.9713  1.1031  2.8518
 1008MOL0     H36043  12.121   4.189   9.959  0.1354  1.2219  1.1439
 1008MOL0     H36044  11.692   4.297   9.853 -0.8497 -0.8258  1.5033
 1008MOL0     H36045  11.544   4.199   9.675 -1.3758  0.4947  1.4086
 1008MOL0     H36046  11.460   4.094   9.531  0.3658 -0.2899  1.3263
 1008MOL0     H36047  11.444   3.933   9.444 -2.1279 -2.1778  0.6394
 1008MOL0     H36048  11.326   3.855   9.661  1.7121  0.1277  0.9151
 1008MOL0     H36049  11.304   4.019   9.714 -1.6325 -3.6349  2.3545
 1008MOL0     H36050  11.187   4.071   9.485 -1.0565 -0.6473 -1.5442
 1008MOL0     H36051  11.116   3.989   9.626  0.1725 -0.2114  0.3478
 1008MOL0     H36052  11.237   3.835   9.380 -1.2377 -1.8052 -1.1916
 1008MOL0     H36053  11.187   3.755   9.523  0.4340 -0.3649 -1.3485
 1008MOL0     H36054  11.034   3.938   9.346 -0.5490 -0.4409 -1.1065
 1008MOL0     H36055  10.975   3.850   9.501  0.8624  0.0919  0.8289
 1008MOL0     H36056  11.096   3.703   9.254 -1.0492  2.9372 -1.1759
 1008MOL0     H36057  11.023   3.638   9.408 -3.2646 -0.6695 -0.2604
 1008MOL0     H36058  10.805   3.749   9.338 -0.8493  2.1442 -2.0885
 1008MOL0     H36059  10.864   3.604   9.253 -0.6621  0.8415  0.6567
 1008MOL0     H36060  10.773   3.757   9.100 -0.9816  2.6156  0.7786
 1008MOL0     H36061  10.944   3.741   9.065  1.1688  2.3386 -1.1772
 1008MOL0     H36062  11.758   3.840   9.727  0.8275 -0.6050  4.4924
 1008MOL0     H36063  11.897   3.933   9.894 -1.2198 -0.1969  2.4194
 1008MOL0     H36064  11.822   4.365  10.316 -0.2227 -0.5757 -1.3338
 1008MOL0     H36065  11.975   4.481  10.442  3.7222  1.9586  0.9277
 1008MOL0     H36066  11.163   5.179  10.843  1.9761  2.7667  0.6792
 1008MOL0     H36067  11.145   5.316  10.625  0.7394  1.2809  1.9614
 1008MOL0     H36068  10.981   5.323  10.198  1.3879 -1.7710  1.0630
 1008MOL0     H36069  10.979   5.428   9.968  0.3512 -3.9908 -1.4169
 1008MOL0     H36070  11.021   5.510   9.750 -0.6712 -0.6597  3.6320
 1008MOL0     H36071  10.980   5.658   9.844  0.7511 -0.1066  0.7404
 1008MOL0     H36072  11.015   5.691   9.605 -1.1290 -2.4832 -0.9920
 1008MOL0     H36073  11.183   5.623   9.622 -2.4052 -0.3624 -1.8854
 1008MOL0     H36074  11.234   5.806   9.799 -1.6979 -1.0700  1.4584
 1008MOL0     H36075  11.073   5.869   9.783  0.5234  2.6697 -1.4246
 1008MOL0     H36076  11.196   6.006   9.673  0.2981 -0.6353  0.7472
 1008MOL0     H36077  11.117   5.905   9.538  0.0619 -0.9438 -1.0384
 1008MOL0     H36078  11.514   5.817   9.465  0.4501  2.4379 -0.2112
 1008MOL0     H36079  11.389   5.511  10.012 -0.4805 -0.3451 -2.1853
 1008MOL0     H36080  11.386   5.418  10.236 -1.7265 -2.2913  3.3148
 1009MOL0     O36081   0.788   4.200   8.843 -1.0367 -0.5301  0.6354
 1009MOL0     C36082   0.718   4.103   8.826 -0.1886  0.1868  0.3042
 1009MOL0     O36083   0.753   3.972   8.819  0.1493 -1.1317  0.2183
 1009MOL0     C36084   0.886   3.944   8.849  0.1505  0.0826 -0.2293
 1009MOL0     C36085   0.954   3.861   8.765 -0.6425 -0.9915 -0.3935
 1009MOL0     C36086   1.076   3.811   8.804 -1.0167  0.9676 -0.9772
 1009MOL0     C36087   1.126   3.820   8.945  0.9208 -0.8198 -0.2130
 1009MOL0     O36088   1.246   3.775   8.999 -0.2328  0.6642 -1.0342
 1009MOL0     C36089   1.333   3.693   8.919  0.3967  0.5101  0.2353
 1009MOL0     C36090   1.450   3.665   9.010  0.4872 -0.0784  0.2627
 1009MOL0     C36091   1.586   3.716   8.944 -0.0239 -0.0093 -0.7878
 1009MOL0     C36092   1.700   3.729   9.043  0.8105 -0.1379  0.4127
 1009MOL0     C36093   1.714   3.874   9.080 -0.4860  0.0021 -0.9830
 1009MOL0     C36094   1.789   3.886   9.216 -0.1685 -0.1652  0.1752
 1009MOL0     C36095   1.939   3.844   9.222  0.0878  0.1140  0.2370
 1009MOL0     C36096   2.037   3.949   9.176 -0.4696  0.1215  0.7931
 1009MOL0     N36097   2.056   3.931   9.027  0.0091 -0.6939  0.5417
 1009MOL0     C36098   2.089   3.810   8.960 -0.8265 -1.3001  0.1497
 1009MOL0     C36099   2.078   3.834   8.826  0.6752  0.2506 -0.2250
 1009MOL0     C36100   2.112   3.736   8.725  0.5160  0.0296 -0.2035
 1009MOL0     C36101   2.010   3.621   8.719 -0.4829  0.6581  0.0458
 1009MOL0     C36102   1.868   3.670   8.704  0.5172  0.3390  0.3192
 1009MOL0     C36103   1.832   3.775   8.592 -0.0298  1.0694 -0.0090
 1009MOL0     O36104   1.897   3.742   8.474  0.2986 -0.6702 -0.0116
 1009MOL0     C36105   1.905   3.837   8.374  0.8524  0.0664 -0.9291
 1009MOL0     C36106   1.816   3.950   8.365 -0.2145  0.2252  0.3474
 1009MOL0     C36107   1.825   4.049   8.266  0.4122 -0.1531  0.3454
 1009MOL0     C36108   1.714   4.154   8.261  0.0559  0.4329 -0.3295
 1009MOL0     C36109   1.944   4.046   8.184  0.3049  0.2157  0.2267
 1009MOL0     C36110   1.998   4.151   8.085  0.3257  0.4106  0.5054
 1009MOL0     O36111   1.908   4.245   8.050  0.7998  0.5942  0.4361
 1009MOL0     C36112   1.937   4.361   7.978 -0.2671 -0.1702 -0.6770
 1009MOL0     C36113   1.836   4.431   7.924  0.1027 -0.6574 -0.4924
 1009MOL0     C36114   1.844   4.567   7.881  0.3228 -0.3473 -0.7720
 1009MOL0     C36115   1.967   4.628   7.877  0.1681 -0.2443 -0.0085
 1009MOL0     O36116   1.976   4.752   7.821 -0.5320 -0.1340 -0.0708
 1009MOL0     C36117   1.954   4.757   7.680 -0.7974  0.3430 -0.4722
 1009MOL0     C36118   2.047   4.684   7.580 -0.0023 -0.4380  0.4836
 1009MOL0     C36119   2.174   4.753   7.538  1.2796 -0.0210 -0.0124
 1009MOL0     C36120   2.258   4.671   7.439 -0.1507  0.7662  0.2258
 1009MOL0     C36121   2.387   4.731   7.384 -0.3604 -0.3881 -0.1689
 1009MOL0     C36122   2.384   4.878   7.333  0.2668 -0.6900  0.0728
 1009MOL0     C36123   2.297   4.907   7.211 -0.3883  1.0458 -0.0779
 1009MOL0     C36124   2.263   5.054   7.197 -0.3000  0.1202 -0.6777
 1009MOL0    Cl36125   2.158   5.095   7.050  0.3325 -0.0014 -0.0448
 1009MOL0     C36126   2.072   4.564   7.935  0.8087  1.2763 -1.2956
 1009MOL0     C36127   2.058   4.428   7.982 -0.1540 -0.3437 -0.3367
 1009MOL0     O36128   2.111   4.140   8.033  0.8023 -0.6225  0.1321
 1009MOL0     C36129   2.015   3.920   8.180 -0.6022 -0.0967  0.3438
 1009MOL0     C36130   2.001   3.818   8.271 -0.2743 -0.2896 -0.3640
 1009MOL0     N36131   2.023   3.961   8.813  0.3202 -0.9965 -0.1154
 1009MOL0     N36132   2.007   4.015   8.928  0.4608 -0.0830  0.2576
 1009MOL0     C36133   1.048   3.892   9.030 -0.1327  0.2010  0.1781
 1009MOL0     C36134   0.934   3.970   8.982  0.0078 -0.0413 -1.0265
 1009MOL0     C36135   0.567   4.114   8.843  0.1969  0.6940 -0.0255
 1009MOL0     C36136   0.474   4.005   8.834 -0.1226  0.3800 -0.1795
 1009MOL0     C36137   0.339   4.034   8.861 -0.6568 -0.7911 -0.2802
 1009MOL0     C36138   0.296   4.163   8.913  0.5232  0.6733 -0.3014
 1009MOL0     O36139   0.167   4.178   8.966 -0.5569 -0.0361  0.1470
 1009MOL0     C36140   0.080   4.077   8.992  0.8047 -0.5901  0.3282
 1009MOL0     C36141  -0.032   4.145   9.085 -0.2181 -0.3341  0.3071
 1009MOL0     C36142  -0.142   4.040   9.111  0.2132  0.1123  0.0723
 1009MOL0     C36143  -0.234   4.085   9.223 -0.1333  0.0985 -0.2158
 1009MOL0     C36144  -0.293   4.215   9.194 -0.1218  0.8644 -0.3364
 1009MOL0     C36145  -0.327   4.329   9.184 -0.6293  0.5091  0.8795
 1009MOL0     C36146   0.393   4.265   8.934 -0.1754  0.0052  1.2855
 1009MOL0     C36147   0.522   4.244   8.891  0.2125  0.4711  0.0702
 1009MOL0     H36148   0.916   3.844   8.664  0.4240  1.3662 -1.2650
 1009MOL0     H36149   1.134   3.751   8.734 -2.1305 -0.4306 -0.7525
 1009MOL0     H36150   1.288   3.597   8.896  2.8602 -0.8094  0.5075
 1009MOL0     H36151   1.364   3.751   8.832 -0.4970  0.8303  0.1296
 1009MOL0     H36152   1.439   3.716   9.107  1.4152 -0.3986  0.5489
 1009MOL0     H36153   1.446   3.557   9.028  0.5443 -0.2354 -0.6254
 1009MOL0     H36154   1.615   3.633   8.879 -0.3489 -0.7959  0.0468
 1009MOL0     H36155   1.562   3.802   8.882  0.3286  0.4453 -0.2995
 1009MOL0     H36156   1.678   3.659   9.125  1.6520  0.8392  1.5155
 1009MOL0     H36157   1.796   3.697   9.002  1.6575  0.0206  2.1669
 1009MOL0     H36158   1.765   3.931   9.002 -2.5286  5.4100  1.1354
 1009MOL0     H36159   1.611   3.907   9.099  0.0621  2.1654 -1.4717
 1009MOL0     H36160   1.780   3.979   9.272 -4.0753 -0.4942  0.3817
 1009MOL0     H36161   1.736   3.824   9.289  0.2380  0.1393  0.7427
 1009MOL0     H36162   1.960   3.829   9.328 -0.3130  1.6492  0.5538
 1009MOL0     H36163   1.959   3.754   9.163  0.3287 -0.8342  1.7111
 1009MOL0     H36164   2.132   3.939   9.229  0.2504  2.6348  0.0855
 1009MOL0     H36165   1.999   4.046   9.211  1.2954  0.8471  0.7821
 1009MOL0     H36166   2.129   3.724   9.014  0.9172  0.3173  1.5561
 1009MOL0     H36167   2.135   3.785   8.630 -0.7017 -1.0131 -1.0806
 1009MOL0     H36168   2.204   3.683   8.751  0.3840 -0.5998 -0.9460
 1009MOL0     H36169   2.022   3.567   8.814  1.0161  0.3702 -0.2783
 1009MOL0     H36170   2.030   3.559   8.631  5.0488 -0.9715  1.9724
 1009MOL0     H36171   1.827   3.704   8.800 -0.5995 -0.8172  0.2880
 1009MOL0     H36172   1.804   3.585   8.679 -1.0263  1.3584  0.6025
 1009MOL0     H36173   1.869   3.875   8.615 -0.2338  0.7401  1.9496
 1009MOL0     H36174   1.723   3.789   8.590 -0.0224  2.2335  2.7141
 1009MOL0     H36175   1.731   3.973   8.428  0.9817  2.0028  1.3926
 1009MOL0     H36176   1.682   4.161   8.156 -0.8231  2.1465  0.0189
 1009MOL0     H36177   1.637   4.126   8.333  0.5740 -0.5212 -0.1344
 1009MOL0     H36178   1.757   4.250   8.292  1.3945 -1.0474  2.8065
 1009MOL0     H36179   1.736   4.390   7.907  0.2319  0.5000 -5.5969
 1009MOL0     H36180   1.755   4.615   7.841 -0.5321 -0.1440  1.2749
 1009MOL0     H36181   1.858   4.711   7.653  0.0392 -2.2683  0.7052
 1009MOL0     H36182   1.942   4.860   7.642  0.2926  0.2834 -1.0187
 1009MOL0     H36183   2.062   4.584   7.621 -1.4983 -0.2315  1.6026
 1009MOL0     H36184   2.002   4.673   7.480  0.7162  3.7896 -0.5336
 1009MOL0     H36185   2.214   4.781   7.636  1.0387 -0.7495  0.3048
 1009MOL0     H36186   2.155   4.845   7.481 -0.0334  1.0408  2.0204
 1009MOL0     H36187   2.296   4.577   7.480 -1.1032  0.3849  0.2790
 1009MOL0     H36188   2.202   4.633   7.352 -3.3391  0.4337  2.2807
 1009MOL0     H36189   2.440   4.664   7.316 -1.6993 -1.5308 -0.1325
 1009MOL0     H36190   2.465   4.734   7.461  0.6882  0.8071 -1.2292
 1009MOL0     H36191   2.346   4.952   7.404  2.4127  1.5533 -0.9761
 1009MOL0     H36192   2.485   4.909   7.307 -0.5446 -0.8442 -3.9241
 1009MOL0     H36193   2.202   4.854   7.223  0.0378  0.0552 -0.9700
 1009MOL0     H36194   2.339   4.884   7.113 -2.4513  3.7066 -1.7239
 1009MOL0     H36195   2.358   5.107   7.197  0.9425 -1.8651  1.7555
 1009MOL0     H36196   2.211   5.090   7.286  0.6686 -2.9336  1.2925
 1009MOL0     H36197   2.167   4.616   7.938  1.6269 -0.1651  1.2516
 1009MOL0     H36198   2.149   4.387   8.024  1.8450 -0.6884 -4.4454
 1009MOL0     H36199   2.098   3.899   8.113  0.0313  0.9904  0.7688
 1009MOL0     H36200   2.080   3.743   8.272  1.2338  1.2315  0.1128
 1009MOL0     H36201   1.063   3.897   9.138 -1.6925  5.7925  0.4625
 1009MOL0     H36202   0.869   4.028   9.047  0.6947  0.1170 -0.4695
 1009MOL0     H36203   0.514   3.908   8.807 -1.9156 -0.9329  1.5314
 1009MOL0     H36204   0.262   3.959   8.848 -0.4244 -1.0660 -0.0753
 1009MOL0     H36205   0.038   4.041   8.898 -4.0873 -1.9655  2.7019
 1009MOL0     H36206   0.124   3.996   9.051  0.6235  0.0289  1.3409
 1009MOL0     H36207  -0.061   4.238   9.035  4.9948  0.0588 -2.6673
 1009MOL0     H36208   0.006   4.175   9.183  0.8938 -3.8873  1.1333
 1009MOL0     H36209  -0.098   3.943   9.133 -2.9488 -0.8372  3.0510
 1009MOL0     H36210  -0.204   4.030   9.021  2.0911  0.9697 -1.3913
 1009MOL0     H36211  -0.173   4.099   9.313  2.8062 -1.8031 -1.7203
 1009MOL0     H36212  -0.304   4.004   9.246 -1.0892 -0.2187 -3.6989
 1009MOL0     H36213  -0.368   4.426   9.165 -7.4056 -1.9906 -0.0828
 1009MOL0     H36214   0.354   4.354   8.982 -2.5891  0.0253 -0.5024
 1009MOL0     H36215   0.596   4.323   8.902  0.7737 -0.4402  4.8176
 1010MOL0     O36216   5.945   1.221   3.398  0.1808  0.1356  1.0510
 1010MOL0     C36217   5.869   1.319   3.392  0.3265  0.9106 -0.4200
 1010MOL0     O36218   5.798   1.363   3.280  0.6945 -0.0723 -0.2554
 1010MOL0     C36219   5.803   1.297   3.160 -1.0182 -0.8107  0.2766
 1010MOL0     C36220   5.693   1.227   3.115  0.9763 -0.3488 -1.4134
 1010MOL0     C36221   5.703   1.165   2.987  0.9355 -1.1304 -0.3373
 1010MOL0     C36222   5.822   1.178   2.918  0.6724 -0.1954  0.2712
 1010MOL0     O36223   5.854   1.103   2.800  0.8767 -0.8226 -0.6820
 1010MOL0     C36224   5.745   1.041   2.731  0.8161 -0.8613  0.9269
 1010MOL0     C36225   5.723   0.898   2.785 -0.2179 -0.0438 -0.5139
 1010MOL0     C36226   5.633   0.801   2.716 -0.1637  1.6355 -0.6030
 1010MOL0     C36227   5.655   0.675   2.800  0.3134  1.1384 -0.5001
 1010MOL0     C36228   5.562   0.561   2.762  0.6845  0.0993  0.0059
 1010MOL0     C36229   5.559   0.468   2.874  0.8865 -0.1201  0.5459
 1010MOL0     C36230   5.422   0.396   2.861  0.3956 -0.3506  0.9585
 1010MOL0     C36231   5.426   0.256   2.922  0.0101  0.1067  0.9814
 1010MOL0     N36232   5.303   0.179   2.889 -1.0161  0.2670 -0.0561
 1010MOL0     C36233   5.185   0.194   2.965 -0.1317  0.4732  0.7281
 1010MOL0     C36234   5.091   0.167   2.880  0.7442 -0.0182  0.3521
 1010MOL0     C36235   4.944   0.175   2.918 -0.4706 -0.1429  0.5191
 1010MOL0     C36236   4.908   0.326   2.901 -0.8220  0.3763 -0.4772
 1010MOL0     C36237   4.749   0.350   2.897  0.6574 -0.5548 -1.1560
 1010MOL0     C36238   4.680   0.262   2.794  0.5334  0.4925  0.1032
 1010MOL0     O36239   4.579   0.336   2.736 -0.6026 -0.0459 -0.0701
 1010MOL0     C36240   4.496   0.260   2.663 -0.5619  0.4569 -0.2736
 1010MOL0     C36241   4.409   0.342   2.583  0.1212  0.0655 -0.6932
 1010MOL0     C36242   4.298   0.298   2.512  0.1021  0.3935  0.8504
 1010MOL0     C36243   4.228   0.408   2.425  1.3017 -0.4888  0.0635
 1010MOL0     C36244   4.278   0.155   2.514  0.5219 -0.2849 -0.8204
 1010MOL0     C36245   4.170   0.089   2.430 -1.0469  1.2378  0.8810
 1010MOL0     O36246   4.169  -0.046   2.424 -0.3066  0.2187 -0.5066
 1010MOL0     C36247   4.044  -0.116   2.422 -0.1286  0.6759 -0.3823
 1010MOL0     C36248   4.023  -0.235   2.328 -0.4328 -0.9212 -0.0010
 1010MOL0     C36249   3.911  -0.319   2.329  0.1908 -0.1303  0.0991
 1010MOL0     C36250   3.805  -0.281   2.407 -0.2474 -0.1987 -0.6622
 1010MOL0     O36251   3.682  -0.341   2.416  0.2163 -0.2396  0.2767
 1010MOL0     C36252   3.675  -0.474   2.368  0.0126  0.8555  0.7436
 1010MOL0     C36253   3.575  -0.560   2.442 -0.8120 -0.6055 -0.0845
 1010MOL0     C36254   3.639  -0.632   2.570  0.0359  0.5849 -0.5591
 1010MOL0     C36255   3.536  -0.677   2.675 -0.1664 -0.2644  0.4482
 1010MOL0     C36256   3.474  -0.810   2.647 -0.8599  0.6083 -0.4535
 1010MOL0     C36257   3.374  -0.844   2.765  0.2539  0.9668 -0.0970
 1010MOL0     C36258   3.342  -0.989   2.753  0.9198 -0.2042 -0.4758
 1010MOL0     C36259   3.226  -1.036   2.852  0.2159 -0.7782  0.2052
 1010MOL0    Cl36260   3.226  -1.214   2.868 -0.0059  0.0554  0.1396
 1010MOL0     C36261   3.816  -0.167   2.498 -0.0556 -0.4870  0.3451
 1010MOL0     C36262   3.927  -0.074   2.496 -0.0132  0.7339 -0.5094
 1010MOL0     O36263   4.081   0.162   2.377  0.8501 -0.1088 -0.4608
 1010MOL0     C36264   4.359   0.079   2.595  0.1206 -0.0259 -0.8958
 1010MOL0     C36265   4.469   0.120   2.664 -0.9162 -0.5540 -0.4079
 1010MOL0     N36266   5.146   0.135   2.761  0.2396  0.1883 -0.6534
 1010MOL0     N36267   5.274   0.149   2.762 -1.4941  0.8672 -0.6566
 1010MOL0     C36268   5.923   1.264   2.953  0.1306 -0.7234  0.2045
 1010MOL0     C36269   5.915   1.311   3.087  0.0268 -0.3525  0.2732
 1010MOL0     C36270   5.835   1.384   3.519  0.3508  0.5408  0.9859
 1010MOL0     C36271   5.789   1.520   3.519 -0.1200  0.3842 -1.2234
 1010MOL0     C36272   5.750   1.587   3.630  0.0507 -0.3472 -0.7741
 1010MOL0     C36273   5.785   1.533   3.757 -1.4328 -0.6201  0.6733
 1010MOL0     O36274   5.754   1.614   3.857  0.0022 -0.9507  0.0066
 1010MOL0     C36275   5.758   1.563   3.992  0.2832 -0.2701 -0.6117
 1010MOL0     C36276   5.656   1.455   4.034  0.8116  0.0434 -0.2943
 1010MOL0     C36277   5.512   1.502   4.013  0.0614  0.5760 -0.5650
 1010MOL0     C36278   5.430   1.376   4.047 -0.1445  0.0539  0.0381
 1010MOL0     C36279   5.287   1.388   4.007 -0.1346 -0.4211 -1.6245
 1010MOL0     C36280   5.168   1.379   4.002  0.5750 -0.4998  0.1730
 1010MOL0     C36281   5.843   1.396   3.767 -0.7615 -0.0167  0.1020
 1010MOL0     C36282   5.860   1.329   3.647  0.2556 -0.2829  1.3758
 1010MOL0     H36283   5.605   1.220   3.179  1.5609 -1.5449 -0.6921
 1010MOL0     H36284   5.606   1.132   2.950 -0.6275 -0.4455  2.8420
 1010MOL0     H36285   5.653   1.098   2.742  0.5033 -0.6733 -2.0332
 1010MOL0     H36286   5.765   1.038   2.624 -3.0953 -0.5187  0.0588
 1010MOL0     H36287   5.820   0.851   2.773  0.2873  1.0551 -0.9212
 1010MOL0     H36288   5.692   0.908   2.890 -3.6049 -1.3313 -1.2582
 1010MOL0     H36289   5.529   0.834   2.707 -2.0073 -2.9568  0.9196
 1010MOL0     H36290   5.674   0.792   2.615 -1.3583 -0.7678 -0.9416
 1010MOL0     H36291   5.753   0.632   2.779 -0.6464 -0.5461 -1.7308
 1010MOL0     H36292   5.649   0.703   2.905  0.5563  2.8519 -0.9129
 1010MOL0     H36293   5.461   0.601   2.748  0.3437 -0.8731 -0.3913
 1010MOL0     H36294   5.589   0.505   2.672 -0.5612 -0.6232  0.0571
 1010MOL0     H36295   5.641   0.397   2.869  0.9063 -0.0156 -1.5075
 1010MOL0     H36296   5.576   0.510   2.974 -1.3624 -0.3199  1.0645
 1010MOL0     H36297   5.359   0.464   2.920 -0.8989 -1.7823  1.2922
 1010MOL0     H36298   5.391   0.402   2.756 -0.3344  1.9203  1.2391
 1010MOL0     H36299   5.431   0.253   3.031 -2.0646 -4.4468  1.1966
 1010MOL0     H36300   5.514   0.200   2.888  0.9349  1.2441  1.4429
 1010MOL0     H36301   5.176   0.229   3.067 -2.9904  2.8648 -0.2214
 1010MOL0     H36302   4.901   0.124   2.832  3.1793  0.1161 -1.6783
 1010MOL0     H36303   4.910   0.133   3.013 -2.2662 -0.6621 -0.3048
 1010MOL0     H36304   4.955   0.360   2.808 -2.0379  1.6676 -0.6476
 1010MOL0     H36305   4.948   0.388   2.982 -0.4379  0.6459 -0.8700
 1010MOL0     H36306   4.718   0.448   2.859 -0.4613 -0.4766 -0.0983
 1010MOL0     H36307   4.710   0.347   2.999  2.0730 -0.3257 -0.5829
 1010MOL0     H36308   4.645   0.171   2.843  2.2277  1.3897  3.2658
 1010MOL0     H36309   4.754   0.244   2.716  1.4474  2.6131  0.3881
 1010MOL0     H36310   4.434   0.448   2.585  0.0068  0.0979 -0.9741
 1010MOL0     H36311   4.249   0.365   2.327 -1.2863 -1.7678 -0.0140
 1010MOL0     H36312   4.120   0.407   2.445  1.6429 -3.3652  2.4819
 1010MOL0     H36313   4.259   0.511   2.443  0.9331 -0.3900  0.1475
 1010MOL0     H36314   4.120  -0.252   2.280 -0.5718 -3.2078  0.3772
 1010MOL0     H36315   3.912  -0.405   2.263  2.2897  1.5834 -2.3118
 1010MOL0     H36316   3.642  -0.468   2.264 -0.3530  0.7699  0.8554
 1010MOL0     H36317   3.767  -0.533   2.371  0.6107  1.6128 -1.1254
 1010MOL0     H36318   3.488  -0.499   2.464  0.5766  1.7296 -0.7437
 1010MOL0     H36319   3.551  -0.642   2.373 -1.1189 -0.6118  0.0305
 1010MOL0     H36320   3.707  -0.564   2.622 -0.3319  0.6601 -0.1684
 1010MOL0     H36321   3.698  -0.721   2.545 -2.0524 -1.8445  2.3740
 1010MOL0     H36322   3.577  -0.685   2.776  0.7396  0.9462  0.2071
 1010MOL0     H36323   3.463  -0.596   2.688  0.1354 -0.0958  1.2047
 1010MOL0     H36324   3.549  -0.886   2.624 -0.6133  0.6000  0.3556
 1010MOL0     H36325   3.413  -0.803   2.557  1.1874  0.6020 -1.9323
 1010MOL0     H36326   3.417  -0.825   2.863 -2.1736  1.8546  0.8819
 1010MOL0     H36327   3.279  -0.789   2.759  2.6614  5.4495 -1.0696
 1010MOL0     H36328   3.428  -1.051   2.781  1.7023  1.0397 -0.0594
 1010MOL0     H36329   3.324  -1.020   2.650 -0.8382 -0.9799  0.0263
 1010MOL0     H36330   3.125  -1.016   2.814 -0.1357 -0.1840  1.4119
 1010MOL0     H36331   3.233  -1.000   2.955 -1.3345  1.8366 -0.5073
 1010MOL0     H36332   3.721  -0.145   2.546 -0.1333  0.1696 -0.0913
 1010MOL0     H36333   3.930   0.020   2.551  0.5429 -1.7530  4.2047
 1010MOL0     H36334   4.333  -0.026   2.603 -1.8352  0.5141  0.6979
 1010MOL0     H36335   4.538   0.054   2.715  0.1633  1.7868  1.3261
 1010MOL0     H36336   5.984   1.291   2.867 -0.8173 -1.7107 -0.8111
 1010MOL0     H36337   5.997   1.370   3.125  0.2903  0.3534 -1.3178
 1010MOL0     H36338   5.771   1.572   3.425 -4.0949  1.5317 -0.0009
 1010MOL0     H36339   5.709   1.686   3.616  2.6286  2.0969  5.2619
 1010MOL0     H36340   5.858   1.523   4.012  0.7125  1.8190  2.0842
 1010MOL0     H36341   5.736   1.645   4.062 -3.1578 -0.0990 -1.7037
 1010MOL0     H36342   5.672   1.433   4.140  2.6875  1.2521 -0.2767
 1010MOL0     H36343   5.677   1.368   3.971 -0.6840  1.4825 -2.9662
 1010MOL0     H36344   5.494   1.546   3.914 -0.9303  1.9306  0.1911
 1010MOL0     H36345   5.505   1.585   4.084 -0.5485  2.1337 -2.3547
 1010MOL0     H36346   5.420   1.360   4.154 -0.9734  0.5206  0.0384
 1010MOL0     H36347   5.474   1.293   3.991  1.1226  0.5144  0.3103
 1010MOL0     H36348   5.063   1.361   3.992 -0.0276  3.1763 -1.5674
 1010MOL0     H36349   5.868   1.342   3.858  3.3235 -0.0925 -0.8810
 1010MOL0     H36350   5.871   1.221   3.655  1.0035 -0.2541  0.8039
 1011MOL0     O36351   3.910   3.121   2.371 -0.8159 -0.0923  0.5007
 1011MOL0     C36352   3.990   3.035   2.330  0.1626 -0.0564  0.5566
 1011MOL0     O36353   4.000   2.910   2.384  0.5078  0.3509  0.3787
 1011MOL0     C36354   3.937   2.878   2.501 -0.3949  0.2334 -0.9330
 1011MOL0     C36355   3.959   2.942   2.622 -0.4236 -0.6783  0.0960
 1011MOL0     C36356   3.903   2.892   2.739  0.2641 -0.0572 -0.9409
 1011MOL0     C36357   3.816   2.790   2.740 -0.5246  0.5398 -0.9427
 1011MOL0     O36358   3.760   2.760   2.864  0.1406 -0.2061 -0.7215
 1011MOL0     C36359   3.627   2.700   2.851 -0.7240  0.5359 -0.2187
 1011MOL0     C36360   3.551   2.731   2.982 -0.1033  0.5126 -0.4842
 1011MOL0     C36361   3.502   2.615   3.074 -1.0140 -0.6364  0.1103
 1011MOL0     C36362   3.427   2.683   3.195  0.7039  0.5326 -0.0586
 1011MOL0     C36363   3.409   2.594   3.307 -0.3082  0.2092 -0.9148
 1011MOL0     C36364   3.369   2.451   3.267 -0.3679 -0.6952 -0.7394
 1011MOL0     C36365   3.379   2.376   3.405  0.4556  0.5059 -0.0539
 1011MOL0     C36366   3.313   2.233   3.382  0.5041  0.3204 -0.3043
 1011MOL0     N36367   3.272   2.166   3.510  0.8628 -0.3023 -0.4630
 1011MOL0     C36368   3.354   2.110   3.598  0.4467  0.2608 -0.4170
 1011MOL0     C36369   3.264   2.055   3.690 -0.5258  0.2824 -0.0071
 1011MOL0     C36370   3.306   1.968   3.810  0.2597 -0.1739  1.4468
 1011MOL0     C36371   3.238   1.831   3.801  0.9522  0.8734 -0.0977
 1011MOL0     C36372   3.165   1.782   3.925 -0.4218  0.5859  0.4389
 1011MOL0     C36373   3.244   1.759   4.046  0.2222  0.7117  0.1598
 1011MOL0     O36374   3.351   1.683   4.014  0.0604 -0.1235 -0.4756
 1011MOL0     C36375   3.426   1.625   4.116  0.7543  0.0461  0.1528
 1011MOL0     C36376   3.536   1.544   4.087 -0.5330 -0.3833  0.1465
 1011MOL0     C36377   3.627   1.499   4.187  0.5882  0.0606  0.2135
 1011MOL0     C36378   3.759   1.450   4.141 -0.0266  0.7848 -0.5598
 1011MOL0     C36379   3.590   1.517   4.324 -0.3249 -0.4980 -0.1067
 1011MOL0     C36380   3.686   1.472   4.429  0.1743 -0.3787  0.6217
 1011MOL0     O36381   3.714   1.573   4.516 -0.0248  0.7880  0.1086
 1011MOL0     C36382   3.809   1.568   4.616  0.1454 -0.3872  0.7323
 1011MOL0     C36383   3.941   1.539   4.576 -0.0479 -0.6962 -0.5383
 1011MOL0     C36384   4.043   1.547   4.670  0.2027  0.1215 -0.6583
 1011MOL0     C36385   4.019   1.587   4.800 -1.1329 -0.1292 -0.9649
 1011MOL0     O36386   4.122   1.572   4.889  0.3380 -0.3622 -0.6214
 1011MOL0     C36387   4.136   1.443   4.946 -0.8508 -0.8076 -0.3644
 1011MOL0     C36388   4.092   1.460   5.082 -0.6665 -0.2797 -0.5637
 1011MOL0     C36389   3.998   1.349   5.130  0.3494  0.0565 -0.5120
 1011MOL0     C36390   3.856   1.349   5.087 -0.7600  0.3901  0.0344
 1011MOL0     C36391   3.797   1.216   5.091  0.7286 -0.6693 -0.6183
 1011MOL0     C36392   3.646   1.213   5.080 -0.3205 -0.1146 -0.0326
 1011MOL0     C36393   3.598   1.292   4.952 -0.9437  0.3852 -0.3078
 1011MOL0     C36394   3.461   1.233   4.900 -0.1563 -0.4882  0.1483
 1011MOL0    Cl36395   3.500   1.093   4.801  0.4103 -0.2065 -0.6853
 1011MOL0     C36396   3.888   1.624   4.841  0.4370 -0.1626  0.3641
 1011MOL0     C36397   3.779   1.609   4.750 -0.5153 -0.8670 -0.1429
 1011MOL0     O36398   3.722   1.358   4.435 -0.4645 -0.0445  0.2735
 1011MOL0     C36399   3.472   1.588   4.352 -1.3308 -0.3371  1.5109
 1011MOL0     C36400   3.400   1.650   4.249  0.5451 -0.4902  0.3869
 1011MOL0     N36401   3.129   2.074   3.641 -0.3033 -0.0314 -0.4422
 1011MOL0     N36402   3.140   2.150   3.536 -0.1543  0.2126 -0.1375
 1011MOL0     C36403   3.791   2.729   2.610 -0.2932  1.3339  0.4937
 1011MOL0     C36404   3.853   2.774   2.498  0.8910  0.3724  0.6631
 1011MOL0     C36405   4.087   3.056   2.212  0.7111  0.4431  0.3638
 1011MOL0     C36406   4.101   3.179   2.147  1.2505 -0.4144 -0.8683
 1011MOL0     C36407   4.180   3.181   2.033  0.0940 -0.0625  0.3698
 1011MOL0     C36408   4.249   3.067   1.987  0.0743  1.0110  0.2719
 1011MOL0     O36409   4.342   3.095   1.887  0.1873  0.5372 -0.2987
 1011MOL0     C36410   4.344   2.999   1.783  0.7493  0.3100  0.0148
 1011MOL0     C36411   4.486   2.951   1.759  0.4643 -0.0666  0.0156
 1011MOL0     C36412   4.480   2.851   1.651 -0.6635  0.2429 -0.0046
 1011MOL0     C36413   4.618   2.770   1.657  0.9597 -0.8217 -0.7152
 1011MOL0     C36414   4.736   2.847   1.630 -0.0140  0.2712  0.3320
 1011MOL0     C36415   4.827   2.924   1.610  0.8722  0.1062  1.1165
 1011MOL0     C36416   4.251   2.945   2.061 -0.1768  0.9961  0.2221
 1011MOL0     C36417   4.158   2.944   2.166 -0.1759 -0.1773  0.0680
 1011MOL0     H36418   4.030   3.022   2.640 -0.5848 -0.2774 -0.9625
 1011MOL0     H36419   3.941   2.910   2.839  0.8441 -0.2191 -1.1303
 1011MOL0     H36420   3.571   2.755   2.776 -3.6461 -0.2582  1.2243
 1011MOL0     H36421   3.632   2.594   2.823 -1.6167  0.3383  0.3143
 1011MOL0     H36422   3.621   2.781   3.049  1.4067 -0.9478 -0.8959
 1011MOL0     H36423   3.473   2.806   2.966  3.2583  4.4174 -0.1998
 1011MOL0     H36424   3.442   2.538   3.024  0.0227 -0.7948 -0.9136
 1011MOL0     H36425   3.593   2.567   3.110 -1.1731 -0.2349  1.0789
 1011MOL0     H36426   3.455   2.788   3.209  2.5486 -0.2028  2.5378
 1011MOL0     H36427   3.321   2.691   3.172  0.7375 -0.9999 -0.8601
 1011MOL0     H36428   3.508   2.583   3.352  0.3139  1.5987 -1.8818
 1011MOL0     H36429   3.341   2.641   3.378  1.4193  2.7575 -0.8240
 1011MOL0     H36430   3.267   2.457   3.227 -0.1598  2.7826 -1.0615
 1011MOL0     H36431   3.441   2.398   3.204  2.1315 -1.7529  2.6843
 1011MOL0     H36432   3.483   2.351   3.429  0.1584  0.5154  1.2882
 1011MOL0     H36433   3.330   2.430   3.487 -1.5040  1.4326 -1.7221
 1011MOL0     H36434   3.379   2.168   3.324 -1.6780 -1.5272 -0.9023
 1011MOL0     H36435   3.224   2.245   3.319  0.1683  1.7925  0.4187
 1011MOL0     H36436   3.462   2.112   3.593  0.4545 -1.9225 -2.1938
 1011MOL0     H36437   3.412   1.962   3.838  0.7301 -0.0792 -0.2406
 1011MOL0     H36438   3.261   2.021   3.895 -2.3110  0.3171 -0.1100
 1011MOL0     H36439   3.312   1.751   3.789 -2.9847 -3.0271 -1.0521
 1011MOL0     H36440   3.175   1.831   3.711  0.7792  2.4272 -0.0072
 1011MOL0     H36441   3.128   1.681   3.903  2.9349 -0.1081 -2.9424
 1011MOL0     H36442   3.088   1.851   3.959 -1.3184 -0.8930  1.5436
 1011MOL0     H36443   3.192   1.694   4.117 -0.2981 -0.5913 -1.3599
 1011MOL0     H36444   3.263   1.857   4.089  1.0620  0.8897 -0.5804
 1011MOL0     H36445   3.560   1.541   3.981 -2.6247  2.7208 -0.5583
 1011MOL0     H36446   3.775   1.437   4.034  1.1546  4.0906 -0.8921
 1011MOL0     H36447   3.834   1.522   4.173 -0.8826  1.3675  0.2110
 1011MOL0     H36448   3.774   1.357   4.197 -2.4650 -0.3425 -1.6296
 1011MOL0     H36449   3.961   1.506   4.475  1.0627  1.1760 -0.9638
 1011MOL0     H36450   4.142   1.512   4.642 -1.0121 -0.1368 -5.5673
 1011MOL0     H36451   4.076   1.370   4.891 -0.4281 -1.8901  0.5797
 1011MOL0     H36452   4.241   1.412   4.943 -0.0920  1.6372 -1.5216
 1011MOL0     H36453   4.187   1.460   5.135 -1.7004 -2.1028  1.4852
 1011MOL0     H36454   4.036   1.553   5.095 -0.9781 -0.5908  0.4285
 1011MOL0     H36455   4.003   1.340   5.239 -0.0999 -1.0918 -0.5738
 1011MOL0     H36456   4.039   1.250   5.109 -0.3770 -0.5191  0.6793
 1011MOL0     H36457   3.808   1.417   5.158 -1.0831 -0.1451  0.3313
 1011MOL0     H36458   3.842   1.396   4.989 -2.5069  0.9275  0.5158
 1011MOL0     H36459   3.827   1.163   5.182 -2.1568 -0.5535  0.5218
 1011MOL0     H36460   3.844   1.155   5.013 -1.3384 -0.2385 -2.3132
 1011MOL0     H36461   3.616   1.107   5.081 -0.3971 -0.1152  2.1704
 1011MOL0     H36462   3.588   1.250   5.165 -2.0925 -1.9540 -0.3600
 1011MOL0     H36463   3.674   1.288   4.873 -1.5725 -2.1194 -0.8718
 1011MOL0     H36464   3.581   1.396   4.980 -1.2347  0.1405  0.4682
 1011MOL0     H36465   3.399   1.310   4.852 -2.4196 -2.3367 -0.0592
 1011MOL0     H36466   3.393   1.201   4.979 -0.5550  0.1364  0.0652
 1011MOL0     H36467   3.876   1.665   4.941 -0.2540  0.9794 -0.1568
 1011MOL0     H36468   3.688   1.651   4.791  0.5378  2.0745 -0.5996
 1011MOL0     H36469   3.449   1.601   4.458  2.8392 -2.0782  2.8157
 1011MOL0     H36470   3.317   1.710   4.286 -0.8416 -0.0392 -3.0347
 1011MOL0     H36471   3.742   2.632   2.607  2.9429 -0.4509 -2.1674
 1011MOL0     H36472   3.836   2.727   2.402  0.7059  0.3707  0.6961
 1011MOL0     H36473   4.046   3.268   2.177 -0.5264 -2.1269  1.2798
 1011MOL0     H36474   4.217   3.274   1.991 -0.0349 -1.7995 -4.0458
 1011MOL0     H36475   4.275   2.915   1.790  0.9793 -0.3027 -3.3706
 1011MOL0     H36476   4.328   3.055   1.691  2.3449  3.4358  1.4743
 1011MOL0     H36477   4.521   2.914   1.856 -1.2784  1.3072  1.2292
 1011MOL0     H36478   4.555   3.035   1.740  1.8680 -0.6550  2.1768
 1011MOL0     H36479   4.488   2.901   1.553  3.2360 -0.8306 -0.3894
 1011MOL0     H36480   4.390   2.789   1.659 -1.2122  0.5236 -2.8090
 1011MOL0     H36481   4.614   2.689   1.583 -0.5154 -1.2588 -0.1869
 1011MOL0     H36482   4.633   2.727   1.756 -2.7829 -0.1545  0.2821
 1011MOL0     H36483   4.905   2.993   1.590  1.3181 -0.1005  2.0866
 1011MOL0     H36484   4.314   2.868   2.018 -2.1475 -0.3457 -0.3668
 1011MOL0     H36485   4.170   2.855   2.228 -1.8864  1.2151  2.5825
 1012MOL0     O36486   2.806  11.187   4.008  0.3415  0.2719 -0.0289
 1012MOL0     C36487   2.865  11.089   4.043 -0.4742 -0.8976 -0.4933
 1012MOL0     O36488   2.884  10.980   3.967 -0.0564  0.4770 -0.3980
 1012MOL0     C36489   2.853  10.997   3.829  0.7133  0.1215 -0.2265
 1012MOL0     C36490   2.712  10.993   3.803 -0.5382  0.3608 -0.1424
 1012MOL0     C36491   2.672  10.964   3.669  0.6516 -0.3484 -0.0017
 1012MOL0     C36492   2.761  10.971   3.563 -0.9531 -0.1599  0.0757
 1012MOL0     O36493   2.706  10.966   3.436  0.5551  0.2043 -0.0891
 1012MOL0     C36494   2.758  11.060   3.336  0.2829 -0.3289 -0.9201
 1012MOL0     C36495   2.682  11.056   3.197  0.1013  0.0790  0.7815
 1012MOL0     C36496   2.652  10.902   3.156  0.8819 -0.8368  0.0261
 1012MOL0     C36497   2.784  10.820   3.144 -0.4320  0.5589  0.8578
 1012MOL0     C36498   2.897  10.862   3.048 -0.0627  0.0913  0.4102
 1012MOL0     C36499   2.848  10.856   2.901 -0.0384 -1.1261 -0.7155
 1012MOL0     C36500   2.963  10.891   2.810 -0.2907 -0.1933  0.4729
 1012MOL0     C36501   2.943  10.848   2.662 -0.2454  0.6420 -0.3820
 1012MOL0     N36502   3.036  10.930   2.591 -0.4131 -0.1147  0.3894
 1012MOL0     C36503   3.027  11.061   2.550 -0.4413  1.0254 -0.4616
 1012MOL0     C36504   3.150  11.099   2.503 -0.2468 -0.1228  0.4003
 1012MOL0     C36505   3.185  11.234   2.459 -0.1301 -0.0624 -0.3891
 1012MOL0     C36506   3.259  11.308   2.570  0.0964 -0.8248  0.3112
 1012MOL0     C36507   3.309  11.447   2.531  0.3538 -0.3005  1.2703
 1012MOL0     C36508   3.405  11.513   2.622  0.2290  0.0898  0.0162
 1012MOL0     O36509   3.350  11.538   2.758  0.6896  0.1137  1.0121
 1012MOL0     C36510   3.426  11.611   2.849 -0.3166 -0.3380  0.2595
 1012MOL0     C36511   3.394  11.617   2.979  0.3606  1.4215  1.1447
 1012MOL0     C36512   3.464  11.680   3.078 -0.3637 -0.1153  0.5364
 1012MOL0     C36513   3.401  11.690   3.215  0.0888 -0.0755 -1.1767
 1012MOL0     C36514   3.582  11.762   3.041 -0.0069  1.4044 -0.7651
 1012MOL0     C36515   3.661  11.851   3.135  0.5917 -0.4155  0.8250
 1012MOL0     O36516   3.747  11.939   3.071  0.6195  0.3889 -0.6156
 1012MOL0     C36517   3.834  12.001   3.156 -0.3035 -0.4510 -0.5664
 1012MOL0     C36518   3.963  11.950   3.164  0.2416 -0.4948 -0.6283
 1012MOL0     C36519   4.060  12.023   3.236  0.1989 -0.6292 -0.4923
 1012MOL0     C36520   4.035  12.146   3.303  0.8451 -0.3226 -0.3706
 1012MOL0     O36521   4.117  12.217   3.385  0.1612 -0.1212  0.4403
 1012MOL0     C36522   4.231  12.147   3.438 -0.2559  0.1587  0.3229
 1012MOL0     C36523   4.302  12.226   3.550 -0.0324  0.4142  0.7268
 1012MOL0     C36524   4.248  12.190   3.692 -0.4038  0.2769  0.4581
 1012MOL0     C36525   4.178  12.297   3.765  0.1544  0.0260 -0.1027
 1012MOL0     C36526   4.041  12.347   3.706 -0.4742 -0.9202 -0.2941
 1012MOL0     C36527   3.972  12.443   3.801  0.1400  0.0439 -0.2528
 1012MOL0     C36528   3.884  12.548   3.726  0.4677 -0.0624 -0.4126
 1012MOL0     C36529   3.787  12.630   3.823 -0.5451  1.3943  0.7661
 1012MOL0    Cl36530   3.890  12.729   3.934 -0.3891  0.0325 -0.0966
 1012MOL0     C36531   3.905  12.189   3.295 -0.0989 -0.4820 -1.7393
 1012MOL0     C36532   3.804  12.123   3.228 -0.2600  0.3457 -0.4164
 1012MOL0     O36533   3.649  11.844   3.259 -0.2787 -0.8244  0.3390
 1012MOL0     C36534   3.621  11.758   2.907  0.7074  1.2122 -1.1024
 1012MOL0     C36535   3.547  11.676   2.822  0.2785  0.1995  0.4153
 1012MOL0     N36536   3.224  10.981   2.496  0.6162  0.2782  1.0884
 1012MOL0     N36537   3.163  10.880   2.553 -0.7677 -0.5226  0.2759
 1012MOL0     C36538   2.895  11.006   3.594  0.8889 -0.0337 -0.4231
 1012MOL0     C36539   2.943  11.011   3.730  0.5940 -0.2838  0.1314
 1012MOL0     C36540   2.925  11.101   4.177 -0.1512  0.2138  0.5935
 1012MOL0     C36541   3.028  11.012   4.203  0.5453 -0.3450 -0.1509
 1012MOL0     C36542   3.107  11.034   4.316 -0.1405  0.6219 -0.6850
 1012MOL0     C36543   3.089  11.151   4.397 -0.1008 -0.2134 -0.1260
 1012MOL0     O36544   3.160  11.185   4.503  0.5133  0.7001 -0.3979
 1012MOL0     C36545   3.099  11.133   4.621  0.0259 -0.4125  0.5344
 1012MOL0     C36546   3.189  11.110   4.741  0.5532  0.1042  0.6332
 1012MOL0     C36547   3.246  11.231   4.819 -0.0414 -1.3702  0.1163
 1012MOL0     C36548   3.316  11.183   4.958  0.1929 -0.0903  0.6896
 1012MOL0     C36549   3.234  11.138   5.070  0.4789 -0.8077 -0.0800
 1012MOL0     C36550   3.164  11.110   5.168 -0.0592  0.3358  1.3394
 1012MOL0     C36551   2.995  11.247   4.354 -0.0010 -0.1823  0.4483
 1012MOL0     C36552   2.909  11.218   4.255 -0.0576  0.8808 -0.4111
 1012MOL0     H36553   2.635  10.991   3.879  0.7313 -1.2063  1.1718
 1012MOL0     H36554   2.568  10.944   3.650  0.1927  2.6740 -1.1936
 1012MOL0     H36555   2.738  11.159   3.380  1.9370  1.2428 -3.4301
 1012MOL0     H36556   2.867  11.055   3.328  0.4356  0.4247  0.3505
 1012MOL0     H36557   2.587  11.110   3.201  0.0903  0.2458 -0.9619
 1012MOL0     H36558   2.747  11.091   3.117 -1.5242  1.0617 -0.1675
 1012MOL0     H36559   2.604  10.850   3.239  1.9744 -2.5596 -0.3720
 1012MOL0     H36560   2.603  10.902   3.058  1.3676  1.9355 -0.2926
 1012MOL0     H36561   2.827  10.803   3.243 -0.4320 -0.5171  0.6858
 1012MOL0     H36562   2.755  10.718   3.114 -1.6635  1.2608 -0.4754
 1012MOL0     H36563   2.947  10.957   3.069  1.5889 -0.7798  0.5982
 1012MOL0     H36564   2.969  10.781   3.066 -0.8203 -0.4020  1.3214
 1012MOL0     H36565   2.796  10.765   2.871 -4.5669  0.8139  0.3869
 1012MOL0     H36566   2.768  10.929   2.884  1.1329 -0.4871 -4.4015
 1012MOL0     H36567   2.979  10.999   2.820 -0.6088 -0.0783 -0.1997
 1012MOL0     H36568   3.047  10.828   2.842 -0.4087 -0.0815  1.0183
 1012MOL0     H36569   2.838  10.859   2.633  0.1651 -0.5058 -2.5190
 1012MOL0     H36570   2.978  10.746   2.646 -1.3527  0.4467 -1.6933
 1012MOL0     H36571   2.941  11.124   2.570 -0.6147  1.2963 -1.9455
 1012MOL0     H36572   3.249  11.249   2.372  1.8678  0.1296  1.0508
 1012MOL0     H36573   3.093  11.289   2.437  0.7601 -0.0896 -5.2693
 1012MOL0     H36574   3.349  11.252   2.599 -0.5795 -2.2681 -0.2638
 1012MOL0     H36575   3.192  11.329   2.653 -0.6124 -2.4381  0.1850
 1012MOL0     H36576   3.214  11.493   2.501  1.5994  0.8834 -1.2182
 1012MOL0     H36577   3.376  11.441   2.445 -0.3526 -2.0649  0.7989
 1012MOL0     H36578   3.444  11.604   2.576 -2.0707  1.6760  1.0546
 1012MOL0     H36579   3.485  11.439   2.633 -0.9618 -1.9331 -3.3560
 1012MOL0     H36580   3.296  11.574   2.998  0.7338 -0.6975 -1.2787
 1012MOL0     H36581   3.371  11.792   3.243 -0.3552 -0.2431 -1.0347
 1012MOL0     H36582   3.320  11.617   3.219 -1.1584  1.1532 -2.7196
 1012MOL0     H36583   3.474  11.672   3.294  0.1024 -0.1054 -1.1961
 1012MOL0     H36584   3.998  11.853   3.129 -1.1886 -0.8973 -1.0123
 1012MOL0     H36585   4.157  11.974   3.231  0.2777 -0.4392 -0.9538
 1012MOL0     H36586   4.206  12.044   3.465 -0.6482 -0.2631 -1.5117
 1012MOL0     H36587   4.298  12.145   3.352  0.1795 -0.4668  0.6741
 1012MOL0     H36588   4.408  12.199   3.549  0.1372  1.0661  0.8636
 1012MOL0     H36589   4.304  12.334   3.535 -2.8957  0.5459  0.8093
 1012MOL0     H36590   4.333  12.150   3.749  0.2383 -3.5568 -2.6956
 1012MOL0     H36591   4.190  12.097   3.693 -0.3601  0.2036 -1.2852
 1012MOL0     H36592   4.165  12.255   3.865 -0.9884 -1.5006 -0.8511
 1012MOL0     H36593   4.246  12.382   3.758  1.5356 -1.1382 -1.7380
 1012MOL0     H36594   3.970  12.265   3.693  0.3537 -1.5704 -0.8053
 1012MOL0     H36595   4.066  12.392   3.610 -0.7750  3.4420  1.4341
 1012MOL0     H36596   3.918  12.372   3.864  1.5645 -1.1798 -0.3631
 1012MOL0     H36597   4.047  12.498   3.859 -1.1497  0.3837  1.1495
 1012MOL0     H36598   3.829  12.491   3.650 -1.8747 -0.0359  1.1445
 1012MOL0     H36599   3.953  12.612   3.671  1.2234 -0.9380 -0.5206
 1012MOL0     H36600   3.731  12.551   3.875 -0.4300  0.9514  0.2356
 1012MOL0     H36601   3.716  12.691   3.767 -0.6568 -0.8266 -1.7289
 1012MOL0     H36602   3.870  12.279   3.345 -2.0712 -1.5571 -1.0987
 1012MOL0     H36603   3.700  12.152   3.230  0.2366  2.1795  0.4591
 1012MOL0     H36604   3.703  11.819   2.868 -1.2131  2.6792 -3.1123
 1012MOL0     H36605   3.584  11.682   2.720  0.2490 -2.1669  0.1907
 1012MOL0     H36606   2.968  11.018   3.516 -0.6333 -1.1303 -2.0785
 1012MOL0     H36607   3.048  11.032   3.744  0.9008 -0.5247 -1.5645
 1012MOL0     H36608   3.066  10.931   4.141 -1.9356 -1.3932 -0.4024
 1012MOL0     H36609   3.177  10.955   4.344 -2.5181 -0.5052  2.8020
 1012MOL0     H36610   3.017  11.198   4.653 -1.7912 -0.6113 -3.1476
 1012MOL0     H36611   3.065  11.034   4.589 -1.2030  0.9821 -2.9757
 1012MOL0     H36612   3.272  11.051   4.701  0.8635  1.7441 -1.2658
 1012MOL0     H36613   3.148  11.038   4.813  0.4612  1.2843  1.7919
 1012MOL0     H36614   3.170  11.306   4.843  1.4600 -0.1905  1.4341
 1012MOL0     H36615   3.315  11.281   4.750 -3.2618  1.5675 -1.2745
 1012MOL0     H36616   3.361  11.277   4.992 -1.2278  0.6889  0.5136
 1012MOL0     H36617   3.392  11.109   4.932 -0.5777 -0.6444 -0.0134
 1012MOL0     H36618   3.099  11.064   5.240 -3.6039  1.3479 -0.9557
 1012MOL0     H36619   2.981  11.346   4.397 -0.6476  0.3988 -1.0267
 1012MOL0     H36620   2.828  11.288   4.245 -1.8602 -1.3251 -2.2593
 1013MOL0     O36621   5.780   5.337   7.836  0.8801 -0.4728 -0.0555
 1013MOL0     C36622   5.662   5.334   7.799 -0.2117  0.6197 -0.7421
 1013MOL0     O36623   5.561   5.310   7.882  0.1688 -0.4717  0.5224
 1013MOL0     C36624   5.581   5.240   7.998  0.1034  0.3044  1.1322
 1013MOL0     C36625   5.500   5.286   8.105 -0.2370  0.2643 -0.7081
 1013MOL0     C36626   5.494   5.217   8.229  0.0391  0.0916  0.3509
 1013MOL0     C36627   5.569   5.098   8.236  0.6536 -0.0787  0.5036
 1013MOL0     O36628   5.579   5.020   8.350  0.7817 -0.0905 -0.0510
 1013MOL0     C36629   5.568   5.077   8.477  0.7327  0.6154 -0.0375
 1013MOL0     C36630   5.704   5.123   8.537 -0.8811  0.4486 -0.2614
 1013MOL0     C36631   5.798   5.010   8.578  0.2005  1.2471  0.1895
 1013MOL0     C36632   5.864   4.951   8.449 -0.1209  0.4594 -0.4164
 1013MOL0     C36633   5.977   4.849   8.487  0.1545 -0.5548  0.8510
 1013MOL0     C36634   6.120   4.915   8.521  0.2577  0.5337  1.1419
 1013MOL0     C36635   6.222   4.809   8.564 -0.2287 -0.2139 -0.6735
 1013MOL0     C36636   6.227   4.677   8.492 -0.0465  0.7232 -0.6758
 1013MOL0     N36637   6.351   4.607   8.525 -1.1692  0.2900 -0.2799
 1013MOL0     C36638   6.389   4.561   8.648 -0.2370  1.2425 -0.2430
 1013MOL0     C36639   6.524   4.551   8.640  1.0631  0.3542 -0.0113
 1013MOL0     C36640   6.621   4.523   8.742 -0.3784  0.4490 -0.1945
 1013MOL0     C36641   6.735   4.617   8.743  0.6819  0.1258 -0.4676
 1013MOL0     C36642   6.834   4.582   8.622 -0.0621 -0.8690 -1.0124
 1013MOL0     C36643   6.950   4.685   8.602  0.0340  0.3958 -0.4929
 1013MOL0     O36644   7.006   4.649   8.481  0.1621 -0.0221  0.2050
 1013MOL0     C36645   7.012   4.752   8.384 -0.9623 -0.3085 -0.1874
 1013MOL0     C36646   6.899   4.771   8.302  0.1957 -0.3278 -0.5751
 1013MOL0     C36647   6.884   4.871   8.207 -0.9041  0.4976 -0.0891
 1013MOL0     C36648   6.756   4.862   8.132 -0.1619 -0.8886 -0.7661
 1013MOL0     C36649   6.987   4.965   8.187  1.1520 -0.5666  0.5382
 1013MOL0     C36650   6.972   5.077   8.096 -0.0986 -0.1996 -0.2821
 1013MOL0     O36651   7.080   5.161   8.093  0.2081 -0.0239  0.5326
 1013MOL0     C36652   7.077   5.253   7.987 -0.4241 -0.2994 -0.1938
 1013MOL0     C36653   7.115   5.235   7.853 -1.1300  0.0920 -0.3913
 1013MOL0     C36654   7.106   5.344   7.766  0.0889  1.2009  0.3558
 1013MOL0     C36655   7.076   5.469   7.807  0.8094  0.1187  0.1444
 1013MOL0     O36656   7.083   5.571   7.718  0.1976  0.1250  0.8219
 1013MOL0     C36657   7.150   5.689   7.767 -0.1716  1.2950 -0.3171
 1013MOL0     C36658   7.252   5.737   7.659  0.1420 -0.2042 -0.7444
 1013MOL0     C36659   7.325   5.859   7.677  0.2197  0.2122  1.5342
 1013MOL0     C36660   7.427   5.883   7.558 -0.2843 -0.6482 -0.6199
 1013MOL0     C36661   7.515   6.011   7.562  0.2055 -0.4681 -0.8718
 1013MOL0     C36662   7.431   6.140   7.520 -0.2557  0.3423 -0.0070
 1013MOL0     C36663   7.479   6.273   7.593 -0.5295 -0.7906  0.2407
 1013MOL0     C36664   7.622   6.323   7.566  0.1614  0.5431 -0.3142
 1013MOL0    Cl36665   7.661   6.390   7.396 -0.3179  0.7158  0.4670
 1013MOL0     C36666   7.040   5.489   7.935  0.0274  0.2934  0.7720
 1013MOL0     C36667   7.039   5.384   8.027  0.4348 -0.1485 -0.1777
 1013MOL0     O36668   6.883   5.078   8.012 -0.1622  0.2004 -0.0455
 1013MOL0     C36669   7.109   4.942   8.264  0.3300  0.0343 -0.3751
 1013MOL0     C36670   7.113   4.840   8.367 -0.0694 -0.0332 -0.1690
 1013MOL0     N36671   6.554   4.547   8.506  0.4373 -0.0069  0.7110
 1013MOL0     N36672   6.455   4.589   8.436  0.4096 -0.1248 -0.0542
 1013MOL0     C36673   5.652   5.060   8.124  0.2048 -0.4668 -0.2345
 1013MOL0     C36674   5.660   5.132   8.005 -0.0202  1.1460  0.2151
 1013MOL0     C36675   5.631   5.384   7.665 -0.0749 -0.2335 -0.8145
 1013MOL0     C36676   5.730   5.411   7.573  0.0283  0.4290 -0.2805
 1013MOL0     C36677   5.713   5.457   7.445 -0.7788  0.0037  0.0532
 1013MOL0     C36678   5.583   5.477   7.396 -0.2976 -0.2077  0.1957
 1013MOL0     O36679   5.548   5.539   7.269  0.1288  0.5737  0.5619
 1013MOL0     C36680   5.634   5.628   7.204  0.1875 -0.0430 -0.8132
 1013MOL0     C36681   5.553   5.709   7.104 -0.4985  0.3275 -0.3437
 1013MOL0     C36682   5.506   5.641   6.975 -0.2177  0.1640 -0.7169
 1013MOL0     C36683   5.602   5.608   6.860  0.1533 -0.2529  0.2361
 1013MOL0     C36684   5.531   5.557   6.748  1.2638 -0.2012  1.0983
 1013MOL0     C36685   5.461   5.540   6.649 -1.4097 -0.2373  1.1226
 1013MOL0     C36686   5.480   5.436   7.487  0.4524  0.0280 -0.5446
 1013MOL0     C36687   5.497   5.388   7.618 -1.2902  0.2003 -0.3140
 1013MOL0     H36688   5.425   5.364   8.105 -0.2353  0.2660 -0.7332
 1013MOL0     H36689   5.424   5.248   8.306 -0.4572  3.1370 -1.1432
 1013MOL0     H36690   5.502   5.164   8.466  1.6876  1.3070 -0.4280
 1013MOL0     H36691   5.520   5.014   8.552  0.9638  1.9084  1.2361
 1013MOL0     H36692   5.765   5.183   8.469  0.7821 -2.6172 -1.6633
 1013MOL0     H36693   5.688   5.178   8.631 -1.3405 -1.4529  0.8168
 1013MOL0     H36694   5.881   5.040   8.644  0.1573  0.0098  0.8243
 1013MOL0     H36695   5.745   4.933   8.635  0.9456  1.8120  1.7179
 1013MOL0     H36696   5.790   4.897   8.389 -1.2342  1.9065 -0.3836
 1013MOL0     H36697   5.903   5.019   8.373 -2.7261  1.4899 -0.9181
 1013MOL0     H36698   5.937   4.788   8.569 -1.7542 -0.3082  0.1491
 1013MOL0     H36699   5.983   4.775   8.407 -1.2714 -1.2908  1.3757
 1013MOL0     H36700   6.160   4.966   8.433  0.0721  0.3137  0.9282
 1013MOL0     H36701   6.109   4.989   8.601  0.9047  0.0739  1.6635
 1013MOL0     H36702   6.322   4.852   8.568 -0.3345  0.6580 -4.0963
 1013MOL0     H36703   6.190   4.791   8.667  2.0902  0.8374  0.2967
 1013MOL0     H36704   6.230   4.694   8.384  0.2824  2.5649 -0.4108
 1013MOL0     H36705   6.138   4.616   8.507  0.0777  0.6272 -0.3238
 1013MOL0     H36706   6.339   4.551   8.743 -0.1654  2.3134 -0.0876
 1013MOL0     H36707   6.573   4.540   8.839 -1.9390  0.1442 -0.8837
 1013MOL0     H36708   6.653   4.419   8.731 -2.4143 -0.2602  0.1652
 1013MOL0     H36709   6.771   4.605   8.846 -0.8939  2.8339  0.5154
 1013MOL0     H36710   6.705   4.721   8.728 -2.3067 -0.6121 -0.1244
 1013MOL0     H36711   6.787   4.593   8.524 -1.0990  1.1102 -0.3482
 1013MOL0     H36712   6.870   4.480   8.635 -0.2784 -0.6152  2.4372
 1013MOL0     H36713   7.020   4.682   8.687 -2.4687 -1.1194  1.6734
 1013MOL0     H36714   6.919   4.790   8.608 -0.9185  0.0483  1.0255
 1013MOL0     H36715   6.815   4.702   8.305 -1.2920  1.2888 -2.3672
 1013MOL0     H36716   6.700   4.954   8.152  1.3993 -0.5320  2.6781
 1013MOL0     H36717   6.791   4.854   8.028 -2.2115  0.8305 -1.6755
 1013MOL0     H36718   6.698   4.774   8.158 -3.7047  2.0208  2.4280
 1013MOL0     H36719   7.145   5.139   7.811 -0.1204  1.1837 -2.3042
 1013MOL0     H36720   7.138   5.316   7.666 -1.9594  0.1901 -0.0759
 1013MOL0     H36721   7.073   5.758   7.800 -0.5760  0.5216  0.3988
 1013MOL0     H36722   7.216   5.663   7.850  2.6916  3.1478 -1.8413
 1013MOL0     H36723   7.330   5.660   7.658  1.4738  1.0689  0.4723
 1013MOL0     H36724   7.202   5.735   7.562 -1.1738  2.3710 -0.2115
 1013MOL0     H36725   7.381   5.837   7.769  1.3361 -0.6278  0.6834
 1013MOL0     H36726   7.258   5.945   7.691  0.0415  0.6125 -1.2713
 1013MOL0     H36727   7.490   5.794   7.558 -1.1151 -1.2596 -1.4592
 1013MOL0     H36728   7.364   5.896   7.470 -1.9863  1.7246  0.8263
 1013MOL0     H36729   7.595   6.004   7.487  0.1251 -1.4071 -0.8817
 1013MOL0     H36730   7.545   6.030   7.665 -1.7336  0.2307 -0.4035
 1013MOL0     H36731   7.437   6.156   7.412  3.7605 -2.3418 -0.4132
 1013MOL0     H36732   7.328   6.129   7.556 -0.3256 -0.2814 -0.3811
 1013MOL0     H36733   7.468   6.264   7.701 -0.6655 -2.3529  0.1276
 1013MOL0     H36734   7.412   6.350   7.555  1.0095 -0.2181 -1.4567
 1013MOL0     H36735   7.682   6.238   7.602 -2.3939 -0.5836  1.5724
 1013MOL0     H36736   7.647   6.407   7.631  0.2303  1.9297 -2.0600
 1013MOL0     H36737   7.010   5.591   7.958 -1.1123  0.0367  0.4961
 1013MOL0     H36738   7.003   5.399   8.129  0.0389 -1.0070 -0.1852
 1013MOL0     H36739   7.194   5.010   8.265 -0.2229  0.7648  1.4558
 1013MOL0     H36740   7.210   4.829   8.413  0.2610  4.9245  0.8673
 1013MOL0     H36741   5.698   4.961   8.125  0.4104 -0.3840  1.5347
 1013MOL0     H36742   5.719   5.106   7.918  0.0046  2.4368 -0.1790
 1013MOL0     H36743   5.827   5.397   7.618  0.9180  2.8158 -1.3034
 1013MOL0     H36744   5.804   5.488   7.394 -1.5766  1.5019 -0.5191
 1013MOL0     H36745   5.679   5.696   7.277 -1.2748 -1.4439  1.5029
 1013MOL0     H36746   5.714   5.572   7.154 -1.4924 -0.7975 -2.7974
 1013MOL0     H36747   5.610   5.796   7.069  1.2758 -0.5512  0.2523
 1013MOL0     H36748   5.466   5.740   7.164  0.2220  2.0716 -0.1192
 1013MOL0     H36749   5.434   5.710   6.931 -2.5273 -2.9166 -2.2039
 1013MOL0     H36750   5.443   5.558   7.008  2.7654 -1.5468  1.1475
 1013MOL0     H36751   5.669   5.529   6.895 -0.3606  0.6869  3.7286
 1013MOL0     H36752   5.654   5.702   6.836  4.2303 -1.5963  2.7338
 1013MOL0     H36753   5.423   5.511   6.553  1.7178  0.7764 -0.5766
 1013MOL0     H36754   5.373   5.448   7.471 -0.5561 -1.7110  3.5972
 1013MOL0     H36755   5.411   5.355   7.675 -0.2623  1.9132  2.4097
 1014MOL0     O36756  10.203   1.792   1.659  0.9868 -0.2388  0.0955
 1014MOL0     C36757  10.123   1.761   1.571  0.4860  0.3456  0.3980
 1014MOL0     O36758  10.046   1.649   1.569 -0.3578  0.1642  0.3137
 1014MOL0     C36759  10.094   1.524   1.617  0.3189 -0.7460 -0.7044
 1014MOL0     C36760  10.227   1.494   1.642  0.1602  0.3572  1.2154
 1014MOL0     C36761  10.263   1.363   1.658 -0.3666  0.2706 -0.1897
 1014MOL0     C36762  10.170   1.264   1.687  1.2499 -0.4629 -1.6572
 1014MOL0     O36763  10.197   1.137   1.714 -0.8103  0.0006  0.3590
 1014MOL0     C36764  10.152   1.069   1.830 -1.3644 -0.3446 -0.1682
 1014MOL0     C36765  10.282   1.041   1.903  0.5017  0.2186 -0.1692
 1014MOL0     C36766  10.325   1.166   1.988 -0.6693 -1.7102  0.6054
 1014MOL0     C36767  10.476   1.177   2.032  0.8996  0.1453  0.2270
 1014MOL0     C36768  10.506   1.256   2.155 -0.6340 -0.6430 -0.3167
 1014MOL0     C36769  10.660   1.239   2.197  0.3997  0.1035  1.4524
 1014MOL0     C36770  10.695   1.322   2.320  0.0339 -0.3154 -0.4250
 1014MOL0     C36771  10.848   1.323   2.348  0.2611 -0.3297 -0.6625
 1014MOL0     N36772  10.897   1.196   2.389  1.1167 -0.4765 -0.4798
 1014MOL0     C36773  10.875   1.139   2.512  0.1665 -0.5142 -0.6041
 1014MOL0     C36774  10.887   0.999   2.496  0.4550 -0.5001  1.0888
 1014MOL0     C36775  10.856   0.900   2.603 -0.4699 -0.1124 -0.2499
 1014MOL0     C36776  10.971   0.801   2.625 -0.2468 -1.4610  0.2345
 1014MOL0     C36777  10.953   0.688   2.724  0.7134  0.5649  0.0151
 1014MOL0     C36778  10.932   0.730   2.862 -0.2824  0.2576 -0.1481
 1014MOL0     O36779  11.043   0.786   2.925  0.0178 -0.4470 -0.3578
 1014MOL0     C36780  11.092   0.727   3.037 -0.8263 -0.2031  0.2404
 1014MOL0     C36781  11.121   0.809   3.140  1.0148  0.2449 -0.1605
 1014MOL0     C36782  11.176   0.747   3.265 -0.2232 -0.3709  0.3001
 1014MOL0     C36783  11.206   0.849   3.364 -0.7062 -0.7870  0.1545
 1014MOL0     C36784  11.177   0.607   3.277  0.5556 -0.3923  0.0734
 1014MOL0     C36785  11.218   0.535   3.407 -0.8989 -0.6349 -0.3185
 1014MOL0     O36786  11.225   0.607   3.529  0.3773 -0.4016  0.2621
 1014MOL0     C36787  11.290   0.547   3.630  0.0479  0.5697 -0.2699
 1014MOL0     C36788  11.223   0.462   3.723  1.0696  0.1932  0.7156
 1014MOL0     C36789  11.291   0.385   3.809  0.0684  0.5337 -0.3915
 1014MOL0     C36790  11.425   0.415   3.826 -0.1967 -0.3611 -0.8965
 1014MOL0     O36791  11.501   0.342   3.910  0.4239  0.4137  0.6356
 1014MOL0     C36792  11.445   0.311   4.047 -0.6418 -1.5573  0.0507
 1014MOL0     C36793  11.562   0.271   4.130 -0.1037  0.0526  0.6844
 1014MOL0     C36794  11.523   0.254   4.279  0.4336 -0.2192 -0.3377
 1014MOL0     C36795  11.515   0.384   4.365  0.8750  0.1685 -0.0410
 1014MOL0     C36796  11.522   0.352   4.512 -0.5149 -0.6067  0.2778
 1014MOL0     C36797  11.422   0.248   4.558  0.1027 -0.4015  0.4244
 1014MOL0     C36798  11.399   0.244   4.710 -0.2480  0.3971  0.9169
 1014MOL0     C36799  11.488   0.150   4.783 -0.5325 -0.3307  0.3921
 1014MOL0    Cl36800  11.452   0.167   4.959 -0.9021 -0.5066  0.2884
 1014MOL0     C36801  11.489   0.497   3.746 -0.3849 -0.9990 -0.4039
 1014MOL0     C36802  11.422   0.575   3.651 -0.0736  0.1433  0.2606
 1014MOL0     O36803  11.234   0.415   3.399  0.1121  0.8742  0.0519
 1014MOL0     C36804  11.151   0.536   3.162 -0.3933  0.4508 -0.9110
 1014MOL0     C36805  11.111   0.592   3.039 -0.6738  0.7577 -0.4281
 1014MOL0     N36806  10.925   0.978   2.369  0.2755 -0.6992  0.4011
 1014MOL0     N36807  10.931   1.095   2.303  0.3147 -0.0394  0.3823
 1014MOL0     C36808  10.038   1.306   1.687 -0.2313 -0.4192 -0.0244
 1014MOL0     C36809   9.996   1.429   1.643 -0.3985 -0.4232 -1.3648
 1014MOL0     C36810  10.117   1.853   1.466 -0.0581  0.1204 -0.2746
 1014MOL0     C36811  10.026   1.835   1.363 -0.2466 -0.2473 -0.1340
 1014MOL0     C36812  10.021   1.924   1.253  0.1169 -0.1009  0.1433
 1014MOL0     C36813  10.110   2.031   1.235  0.0168 -0.8679  0.1746
 1014MOL0     O36814  10.111   2.116   1.133  0.1222  0.6899 -0.5153
 1014MOL0     C36815   9.995   2.110   1.049  0.2845  0.1565 -0.4125
 1014MOL0     C36816  10.003   2.220   0.934 -0.1861  0.4728  0.2721
 1014MOL0     C36817  10.109   2.184   0.827  0.0634  0.5056  0.2509
 1014MOL0     C36818  10.146   2.306   0.747  0.2630  0.8096  0.1760
 1014MOL0     C36819  10.269   2.304   0.662  0.6840 -1.5034  0.0147
 1014MOL0     C36820  10.367   2.289   0.592  0.1690 -0.1465 -0.3240
 1014MOL0     C36821  10.209   2.041   1.325 -0.0198  0.9947 -0.4944
 1014MOL0     C36822  10.210   1.957   1.442 -0.3536  0.3452 -1.8091
 1014MOL0     H36823  10.296   1.574   1.618  1.1746 -0.2039  2.1380
 1014MOL0     H36824  10.364   1.329   1.636 -1.6877 -4.1838 -0.2217
 1014MOL0     H36825  10.075   1.121   1.886  0.5903  0.9742  1.4031
 1014MOL0     H36826  10.107   0.973   1.803  1.7773 -2.0344  0.0519
 1014MOL0     H36827  10.274   0.952   1.966  3.3620 -1.5783 -2.1530
 1014MOL0     H36828  10.356   1.012   1.829  0.4941  1.0848 -0.5353
 1014MOL0     H36829  10.316   1.259   1.932  4.4163 -0.8985  0.5890
 1014MOL0     H36830  10.263   1.173   2.078 -1.2963 -0.3055  0.0938
 1014MOL0     H36831  10.508   1.076   2.058  1.2243  0.4003  0.8395
 1014MOL0     H36832  10.547   1.222   1.962  2.0621 -2.3816 -0.3409
 1014MOL0     H36833  10.478   1.360   2.137  1.1149 -0.1182 -0.2590
 1014MOL0     H36834  10.437   1.218   2.231 -2.9518 -0.9798 -2.4860
 1014MOL0     H36835  10.669   1.137   2.237  2.4000  0.2539  1.4595
 1014MOL0     H36836  10.727   1.252   2.111  0.6099  1.8061  1.8593
 1014MOL0     H36837  10.662   1.426   2.309 -2.6541 -0.9864  0.4956
 1014MOL0     H36838  10.644   1.279   2.407 -0.7774  0.4272 -0.5216
 1014MOL0     H36839  10.880   1.388   2.430  3.0247  0.5398 -2.2824
 1014MOL0     H36840  10.904   1.360   2.261  0.6106 -1.9863 -1.1824
 1014MOL0     H36841  10.843   1.186   2.604  0.6904 -4.6189  1.9127
 1014MOL0     H36842  10.839   0.946   2.702  0.5718 -1.7717  0.7445
 1014MOL0     H36843  10.765   0.841   2.586 -1.3670 -0.6463  4.8069
 1014MOL0     H36844  11.044   0.868   2.672 -0.7967 -0.7926  0.1566
 1014MOL0     H36845  11.006   0.771   2.526  1.7037 -3.1460  1.3619
 1014MOL0     H36846  11.049   0.635   2.715  0.4842 -0.0595  1.0951
 1014MOL0     H36847  10.872   0.622   2.692  1.1276 -0.1218  0.3420
 1014MOL0     H36848  10.892   0.647   2.921 -3.4064  0.2244 -2.0797
 1014MOL0     H36849  10.858   0.811   2.863  1.4264  2.0064 -2.7246
 1014MOL0     H36850  11.116   0.918   3.139  1.3143  0.2655  0.2072
 1014MOL0     H36851  11.313   0.849   3.383 -0.3417  1.3800 -1.5157
 1014MOL0     H36852  11.189   0.951   3.330  0.5707 -0.7496 -0.4109
 1014MOL0     H36853  11.141   0.844   3.453 -0.1683  1.6219  0.7495
 1014MOL0     H36854  11.117   0.444   3.728  1.8158 -5.6025  3.2465
 1014MOL0     H36855  11.239   0.315   3.873  0.0818 -0.0922 -1.0466
 1014MOL0     H36856  11.407   0.404   4.090 -2.2521 -2.3442  0.4255
 1014MOL0     H36857  11.368   0.233   4.045 -1.0914 -1.2045  1.6172
 1014MOL0     H36858  11.577   0.169   4.095  1.3512 -0.0749  1.6048
 1014MOL0     H36859  11.652   0.332   4.113  1.1317 -2.0532 -0.7437
 1014MOL0     H36860  11.600   0.185   4.314  1.2785  0.9738  0.2093
 1014MOL0     H36861  11.424   0.209   4.283 -0.0453  0.8674  3.4084
 1014MOL0     H36862  11.592   0.457   4.338  2.6742 -0.5804  2.6840
 1014MOL0     H36863  11.415   0.428   4.355  0.5054 -0.1497  1.8642
 1014MOL0     H36864  11.511   0.446   4.565  2.4236  0.1802 -0.3059
 1014MOL0     H36865  11.624   0.323   4.540 -0.7416 -2.1893 -0.4024
 1014MOL0     H36866  11.320   0.266   4.522  0.1077 -0.7161  0.2504
 1014MOL0     H36867  11.450   0.153   4.512  0.4247  0.4109 -1.1459
 1014MOL0     H36868  11.296   0.209   4.714 -1.4857  3.6619  0.1964
 1014MOL0     H36869  11.397   0.342   4.759  1.7209  0.3403  1.2187
 1014MOL0     H36870  11.588   0.183   4.755 -1.1847  3.9325  2.1802
 1014MOL0     H36871  11.468   0.048   4.749 -0.3834 -0.6853  1.3356
 1014MOL0     H36872  11.596   0.502   3.766 -0.1524 -1.9302 -1.3404
 1014MOL0     H36873  11.484   0.638   3.589 -1.1905  2.0662  1.0012
 1014MOL0     H36874  11.158   0.428   3.166  2.5297  0.5862  1.9771
 1014MOL0     H36875  11.086   0.534   2.950  1.4818 -1.8918  0.5569
 1014MOL0     H36876   9.960   1.230   1.696  1.4299 -1.9731  2.3820
 1014MOL0     H36877   9.892   1.452   1.625 -0.3393  0.3915 -0.7282
 1014MOL0     H36878   9.950   1.757   1.366  1.3022 -1.7857  2.4360
 1014MOL0     H36879   9.940   1.899   1.185  1.2731  2.6987 -2.4550
 1014MOL0     H36880   9.989   2.007   1.014  1.8415  0.4251 -1.6052
 1014MOL0     H36881   9.913   2.145   1.112  0.0156  2.6485 -2.0078
 1014MOL0     H36882  10.061   2.304   0.974  2.7187 -1.7549  1.0606
 1014MOL0     H36883   9.905   2.258   0.901 -2.5384 -3.9860  1.3233
 1014MOL0     H36884  10.058   2.117   0.757 -2.2774 -0.5619  2.7849
 1014MOL0     H36885  10.194   2.138   0.879  1.1708 -0.4085 -2.2456
 1014MOL0     H36886  10.152   2.394   0.812 -5.5932  2.0405 -0.3361
 1014MOL0     H36887  10.065   2.319   0.675  0.8352 -1.1990 -0.8837
 1014MOL0     H36888  10.456   2.282   0.531  1.7230 -1.6726  1.9800
 1014MOL0     H36889  10.272   2.130   1.326 -0.5238  1.4122 -2.5819
 1014MOL0     H36890  10.279   1.988   1.519 -2.3049  1.8505 -0.5785
 1015MOL0     O36891   8.392   0.518   6.470  0.6684 -0.6426 -0.0907
 1015MOL0     C36892   8.337   0.532   6.361  1.5038  0.4127 -0.2568
 1015MOL0     O36893   8.204   0.511   6.345 -0.1693 -0.0487 -0.1532
 1015MOL0     C36894   8.131   0.486   6.461  0.1692  0.0605 -0.1957
 1015MOL0     C36895   8.129   0.365   6.529  0.2528 -0.1267  0.7796
 1015MOL0     C36896   8.064   0.337   6.652  0.1492 -0.0656 -0.7128
 1015MOL0     C36897   7.982   0.444   6.704 -0.1692 -0.5129  0.2909
 1015MOL0     O36898   7.885   0.418   6.802 -0.3643 -1.0846 -0.4277
 1015MOL0     C36899   7.816   0.289   6.805 -0.6986  0.4391  0.4337
 1015MOL0     C36900   7.677   0.314   6.855  0.4155 -0.2851 -0.6153
 1015MOL0     C36901   7.598   0.185   6.844  0.1850 -0.1205  0.2342
 1015MOL0     C36902   7.674   0.054   6.870 -0.1691  0.2772  0.1961
 1015MOL0     C36903   7.576  -0.061   6.897 -0.2965 -0.1988 -0.6490
 1015MOL0     C36904   7.511  -0.110   6.763 -0.5130  0.2306  0.3552
 1015MOL0     C36905   7.378  -0.190   6.776  0.8891 -1.0953 -0.3768
 1015MOL0     C36906   7.266  -0.082   6.803 -0.4729 -0.0777 -0.2169
 1015MOL0     N36907   7.133  -0.140   6.845  0.8079 -0.4574 -0.1150
 1015MOL0     C36908   7.019  -0.080   6.807  0.0903  0.6208 -0.0021
 1015MOL0     C36909   6.921  -0.167   6.845  0.0252  0.2897  0.3282
 1015MOL0     C36910   6.772  -0.157   6.829  0.3318 -0.0471 -0.4005
 1015MOL0     C36911   6.708  -0.038   6.904 -1.4261 -0.0047 -0.8842
 1015MOL0     C36912   6.747  -0.026   7.059 -0.8721  0.5126 -0.4301
 1015MOL0     C36913   6.680   0.108   7.109  0.8543  0.7336 -0.2810
 1015MOL0     O36914   6.724   0.121   7.247 -0.3701  0.8682 -1.0118
 1015MOL0     C36915   6.743   0.248   7.295  0.1867  0.0874  0.3864
 1015MOL0     C36916   6.810   0.350   7.229  0.0796 -0.0527  0.1938
 1015MOL0     C36917   6.812   0.484   7.274  0.5533  0.6429  0.3340
 1015MOL0     C36918   6.894   0.560   7.180 -0.3160 -0.9185 -0.8932
 1015MOL0     C36919   6.754   0.532   7.393  0.0144  0.6400  0.6842
 1015MOL0     C36920   6.771   0.660   7.455  0.1608 -0.2250  0.5472
 1015MOL0     O36921   6.700   0.680   7.571 -0.7859  0.1229 -0.1665
 1015MOL0     C36922   6.717   0.797   7.639  0.7431  0.5466 -0.9719
 1015MOL0     C36923   6.673   0.917   7.584 -0.2259 -0.2968  0.0588
 1015MOL0     C36924   6.710   1.032   7.660  0.4840  0.7826  0.6904
 1015MOL0     C36925   6.760   1.022   7.789 -0.5331  0.3864  0.6983
 1015MOL0     O36926   6.786   1.134   7.862 -0.0643 -0.8563  0.4208
 1015MOL0     C36927   6.726   1.136   7.984  0.4721 -0.3405  0.0580
 1015MOL0     C36928   6.659   1.270   8.005 -0.1895  0.8059 -0.5099
 1015MOL0     C36929   6.751   1.388   8.000  0.4934 -0.5611  0.0981
 1015MOL0     C36930   6.841   1.378   8.124 -0.5169  0.6759 -0.2512
 1015MOL0     C36931   6.950   1.481   8.142  0.2826 -0.2643 -0.0992
 1015MOL0     C36932   6.896   1.615   8.188  0.5422 -0.1618 -0.6799
 1015MOL0     C36933   7.020   1.708   8.215  0.5212  0.4859  0.0960
 1015MOL0     C36934   6.995   1.850   8.171  0.3964 -0.4405 -0.2629
 1015MOL0    Cl36935   6.886   1.937   8.289 -0.3870 -0.4612  0.1000
 1015MOL0     C36936   6.788   0.900   7.846  0.0058  0.7024  0.6067
 1015MOL0     C36937   6.770   0.785   7.766 -0.0455  0.1667 -0.1984
 1015MOL0     O36938   6.843   0.743   7.403  0.1468  0.5659  0.3205
 1015MOL0     C36939   6.694   0.423   7.465 -0.1406 -0.2673 -0.1831
 1015MOL0     C36940   6.691   0.293   7.411 -0.3618 -0.5205 -0.2489
 1015MOL0     N36941   6.982  -0.272   6.914 -0.0210 -0.1358 -0.0471
 1015MOL0     N36942   7.112  -0.256   6.909  0.6428  1.1858  0.2826
 1015MOL0     C36943   7.990   0.567   6.642 -0.7354  0.6041 -0.2000
 1015MOL0     C36944   8.066   0.581   6.522 -0.0108 -0.1785 -0.4254
 1015MOL0     C36945   8.409   0.548   6.234 -0.2760 -0.3855 -0.0488
 1015MOL0     C36946   8.336   0.575   6.113 -0.3780  0.1137  0.0564
 1015MOL0     C36947   8.412   0.579   5.993  0.4136 -0.2005 -0.3839
 1015MOL0     C36948   8.544   0.565   5.986 -0.2181 -0.6107 -0.6460
 1015MOL0     O36949   8.619   0.573   5.867 -0.3623 -0.0354  0.1324
 1015MOL0     C36950   8.622   0.700   5.806 -0.2017  0.2318 -0.1614
 1015MOL0     C36951   8.743   0.784   5.843  0.3913  0.4926  0.5084
 1015MOL0     C36952   8.865   0.721   5.782 -0.1046  0.1267  0.0861
 1015MOL0     C36953   8.988   0.816   5.811  0.3953 -0.4876  0.0236
 1015MOL0     C36954   9.116   0.744   5.794 -0.4919  0.2048 -0.3209
 1015MOL0     C36955   9.219   0.683   5.770 -0.8502  0.3119  0.3054
 1015MOL0     C36956   8.614   0.549   6.106  0.7822 -1.5448 -0.3243
 1015MOL0     C36957   8.552   0.542   6.225  1.2370 -0.2771 -0.2043
 1015MOL0     H36958   8.190   0.286   6.488 -1.5122 -1.0844 -0.1059
 1015MOL0     H36959   8.085   0.242   6.700 -0.0922  0.9387  1.5126
 1015MOL0     H36960   7.816   0.247   6.705 -1.4205 -0.8139  0.9394
 1015MOL0     H36961   7.870   0.222   6.873  0.3750  0.9591  0.1088
 1015MOL0     H36962   7.679   0.347   6.960  1.6077 -2.6381  0.1830
 1015MOL0     H36963   7.620   0.379   6.789  1.3925  0.4209 -0.7849
 1015MOL0     H36964   7.513   0.193   6.913  0.1748 -2.1917  0.5264
 1015MOL0     H36965   7.559   0.176   6.742  0.6699  1.5116 -0.1182
 1015MOL0     H36966   7.741   0.036   6.786 -0.5578  2.1869 -0.5770
 1015MOL0     H36967   7.729   0.073   6.962 -3.9037  2.7917  2.1513
 1015MOL0     H36968   7.641  -0.147   6.918  2.6848  1.7728 -1.2610
 1015MOL0     H36969   7.508  -0.032   6.977  1.0290  1.2678 -0.0158
 1015MOL0     H36970   7.496  -0.029   6.692 -1.5540  0.0526  0.3661
 1015MOL0     H36971   7.585  -0.180   6.722  0.5987  1.9546 -0.6901
 1015MOL0     H36972   7.354  -0.254   6.691  0.0826 -1.4969  0.1429
 1015MOL0     H36973   7.391  -0.242   6.871  3.6035 -0.6085 -0.4057
 1015MOL0     H36974   7.244  -0.019   6.716  0.6044  2.1003  1.0181
 1015MOL0     H36975   7.304  -0.015   6.880 -0.6472 -0.1961 -0.0262
 1015MOL0     H36976   7.003   0.011   6.749 -1.8562  0.4437  0.2170
 1015MOL0     H36977   6.722  -0.155   6.731  1.0224 -0.3207 -0.7626
 1015MOL0     H36978   6.729  -0.248   6.873 -0.8303  2.7057  4.9843
 1015MOL0     H36979   6.601  -0.050   6.885 -1.1158 -0.2592 -2.5880
 1015MOL0     H36980   6.745   0.059   6.870  0.1643  2.1205  5.5131
 1015MOL0     H36981   6.854  -0.028   7.082 -1.1418  3.4714  1.5723
 1015MOL0     H36982   6.705  -0.114   7.109 -0.2605 -0.5134 -1.6860
 1015MOL0     H36983   6.572   0.114   7.095  0.5001 -2.3995  0.3977
 1015MOL0     H36984   6.743   0.183   7.060  1.9428  0.4603  0.6413
 1015MOL0     H36985   6.860   0.328   7.135 -4.3642  1.3570 -2.8614
 1015MOL0     H36986   6.848   0.649   7.136 -1.9422 -1.8327 -1.1143
 1015MOL0     H36987   6.990   0.589   7.223  0.0144  0.5303 -2.5233
 1015MOL0     H36988   6.932   0.501   7.097  3.8716  0.1519  0.0287
 1015MOL0     H36989   6.620   0.923   7.489 -2.2161  2.6510  1.2051
 1015MOL0     H36990   6.693   1.124   7.606 -1.1056  1.9681  3.0108
 1015MOL0     H36991   6.640   1.073   8.005 -1.8258  1.6271 -2.6543
 1015MOL0     H36992   6.809   1.105   8.048  1.5066  0.2369 -0.9545
 1015MOL0     H36993   6.581   1.286   7.929 -2.6540  0.9209  1.8719
 1015MOL0     H36994   6.599   1.277   8.096  0.1710  1.4928 -0.3141
 1015MOL0     H36995   6.697   1.482   7.993 -0.1240 -1.0444 -2.7929
 1015MOL0     H36996   6.805   1.393   7.905  0.4015 -2.2409 -0.0795
 1015MOL0     H36997   6.775   1.360   8.210  0.3718  0.5116  0.4138
 1015MOL0     H36998   6.894   1.283   8.118 -1.8081 -0.1523  0.8379
 1015MOL0     H36999   7.004   1.484   8.047  0.6906 -2.4210  0.0001
 1015MOL0     H37000   7.017   1.441   8.219 -0.6834  1.0164  1.4590
 1015MOL0     H37001   6.832   1.654   8.109 -0.4522  0.9044  0.6203
 1015MOL0     H37002   6.841   1.615   8.282 -2.0897 -1.5770 -2.1005
 1015MOL0     H37003   7.118   1.672   8.182  0.3365 -2.6152  2.4116
 1015MOL0     H37004   7.039   1.716   8.323  0.5494  1.4769  0.0182
 1015MOL0     H37005   6.942   1.859   8.076  1.5911 -0.3337 -0.9345
 1015MOL0     H37006   7.094   1.896   8.164  0.8686 -1.6610 -2.0506
 1015MOL0     H37007   6.825   0.889   7.947 -0.7547  1.8716  1.0301
 1015MOL0     H37008   6.816   0.698   7.810 -0.9737 -0.7083 -0.9027
 1015MOL0     H37009   6.645   0.434   7.562  0.7444  0.3819  0.2082
 1015MOL0     H37010   6.642   0.225   7.480  1.0224  1.2733  2.7606
 1015MOL0     H37011   7.940   0.655   6.681 -4.9195 -0.3156 -2.7900
 1015MOL0     H37012   8.068   0.682   6.483  0.0558 -0.0253 -0.0346
 1015MOL0     H37013   8.229   0.572   6.102 -0.8851 -0.1548  3.6877
 1015MOL0     H37014   8.356   0.593   5.902 -0.6782  0.4453  0.3625
 1015MOL0     H37015   8.621   0.671   5.701  0.5727 -0.8746  0.1224
 1015MOL0     H37016   8.532   0.758   5.828 -0.2787  1.0005 -2.2749
 1015MOL0     H37017   8.759   0.792   5.950  1.8237  0.9543  0.2780
 1015MOL0     H37018   8.720   0.884   5.805 -3.8221  0.6184  2.8047
 1015MOL0     H37019   8.842   0.711   5.676 -2.7074  1.2729  0.4491
 1015MOL0     H37020   8.891   0.623   5.821  0.0814  0.3229  0.4642
 1015MOL0     H37021   8.983   0.854   5.913  0.1051  0.5343 -0.3600
 1015MOL0     H37022   8.988   0.899   5.740  0.7164 -0.1876  0.3790
 1015MOL0     H37023   9.308   0.642   5.728  0.0381  2.3559  0.0323
 1015MOL0     H37024   8.719   0.523   6.092  0.2862 -3.6606 -0.4606
 1015MOL0     H37025   8.618   0.539   6.311  3.2917 -0.3998 -1.7184
 1016MOL0     O37026   5.699   6.290  10.209 -0.5027  0.5651 -0.5944
 1016MOL0     C37027   5.577   6.296  10.223 -0.3567 -0.5880  0.7762
 1016MOL0     O37028   5.492   6.369  10.150 -0.3026 -0.0060  0.4567
 1016MOL0     C37029   5.531   6.473  10.068  0.6712 -0.4337 -0.2009
 1016MOL0     C37030   5.456   6.507   9.960 -0.3479  0.0566 -0.3666
 1016MOL0     C37031   5.491   6.604   9.876  0.0759 -0.4998 -0.0547
 1016MOL0     C37032   5.610   6.663   9.892  0.5275 -0.0607  0.2544
 1016MOL0     O37033   5.646   6.761   9.802  0.1485  0.2490 -0.9003
 1016MOL0     C37034   5.650   6.899   9.860 -0.2367  1.4105  0.6969
 1016MOL0     C37035   5.626   6.999   9.760  0.3594 -0.1096  0.5448
 1016MOL0     C37036   5.505   6.962   9.673  0.3565 -0.1430 -0.0041
 1016MOL0     C37037   5.380   6.945   9.762 -0.1057  0.5337 -0.1202
 1016MOL0     C37038   5.254   6.907   9.689 -0.0181  0.0327 -0.0136
 1016MOL0     C37039   5.146   6.844   9.779 -0.0207 -0.2081 -0.5690
 1016MOL0     C37040   5.151   6.709   9.847 -0.6655 -0.2458  0.6251
 1016MOL0     C37041   5.028   6.675   9.932 -0.1103 -0.0662 -0.4234
 1016MOL0     N37042   5.055   6.559  10.022 -0.8832 -0.1013 -0.3461
 1016MOL0     C37043   4.981   6.453  10.021  0.3155 -0.2725  0.5588
 1016MOL0     C37044   5.031   6.392  10.135  0.3260  0.7344  1.0977
 1016MOL0     C37045   4.985   6.262  10.181 -0.1316  0.4553 -0.6409
 1016MOL0     C37046   5.061   6.133  10.127 -0.9295  0.8816 -0.1325
 1016MOL0     C37047   5.037   6.113   9.981  0.0318 -0.2916 -1.2907
 1016MOL0     C37048   5.107   5.983   9.933  0.3283  0.5162  1.0618
 1016MOL0     O37049   5.041   5.866   9.999  0.2187 -0.9815 -0.1177
 1016MOL0     C37050   5.086   5.806  10.117 -1.3620 -0.0375 -0.4362
 1016MOL0     C37051   5.207   5.837  10.171  0.2786  0.7517 -0.1974
 1016MOL0     C37052   5.258   5.788  10.290 -0.4441  0.4352 -0.2359
 1016MOL0     C37053   5.403   5.827  10.321 -0.5558  0.3054 -0.2096
 1016MOL0     C37054   5.184   5.677  10.360  1.0279  0.6336 -0.0080
 1016MOL0     C37055   5.221   5.607  10.484 -0.0716  0.7416 -0.9530
 1016MOL0     O37056   5.130   5.513  10.527 -0.7332  0.2161  0.3531
 1016MOL0     C37057   5.162   5.461  10.644 -0.0072  0.2161  0.1242
 1016MOL0     C37058   5.192   5.318  10.643 -0.3657  0.2936  0.0903
 1016MOL0     C37059   5.215   5.256  10.765  0.6040 -0.0402  0.1179
 1016MOL0     C37060   5.196   5.322  10.885 -0.0216  0.7822 -1.3493
 1016MOL0     O37061   5.228   5.265  11.001  0.2014  0.1670 -0.7206
 1016MOL0     C37062   5.271   5.337  11.118 -0.4213 -0.0408 -0.6751
 1016MOL0     C37063   5.166   5.321  11.230 -0.3495  0.3738  0.0820
 1016MOL0     C37064   5.200   5.388  11.365 -0.6141 -0.0219 -0.2135
 1016MOL0     C37065   5.069   5.450  11.419 -0.0651 -1.3202 -0.8939
 1016MOL0     C37066   5.083   5.533  11.553  0.1086  0.0700 -0.0996
 1016MOL0     C37067   4.970   5.501  11.657  0.1349 -1.1598 -0.6934
 1016MOL0     C37068   5.002   5.556  11.799 -0.0538 -0.7012 -0.5500
 1016MOL0     C37069   4.890   5.534  11.899 -0.1220 -1.2148 -0.0159
 1016MOL0    Cl37070   4.946   5.621  12.054  0.5228  0.4371 -0.3221
 1016MOL0     C37071   5.141   5.453  10.893  0.2525  0.5342  0.0043
 1016MOL0     C37072   5.121   5.522  10.765  0.2042 -0.1230  0.1425
 1016MOL0     O37073   5.335   5.621  10.531 -0.0013 -0.0948 -0.2669
 1016MOL0     C37074   5.062   5.639  10.291  0.7676 -0.6958  0.0427
 1016MOL0     C37075   5.016   5.705  10.177  0.6479  0.6514 -0.5592
 1016MOL0     N37076   5.136   6.455  10.187  0.2353  0.3936 -1.4874
 1016MOL0     N37077   5.130   6.570  10.136 -1.0782  0.9134  0.3847
 1016MOL0     C37078   5.700   6.623   9.990 -0.2300  0.3553 -0.1279
 1016MOL0     C37079   5.653   6.545  10.092  0.4190 -0.1934  0.0046
 1016MOL0     C37080   5.510   6.225  10.342  1.3517  0.7627 -0.4592
 1016MOL0     C37081   5.378   6.254  10.378 -0.1715 -0.0683 -0.5904
 1016MOL0     C37082   5.320   6.197  10.488 -0.5858  0.6586 -0.3244
 1016MOL0     C37083   5.387   6.088  10.556  0.1338  0.1398  0.2484
 1016MOL0     O37084   5.323   6.028  10.661 -0.3155  0.6635 -0.9795
 1016MOL0     C37085   5.370   5.912  10.721 -0.4786 -0.1625  0.4106
 1016MOL0     C37086   5.265   5.841  10.803  0.0189  0.2215 -0.7195
 1016MOL0     C37087   5.242   5.908  10.937 -0.0363 -0.4652  0.6380
 1016MOL0     C37088   5.117   5.839  11.005 -0.3610  0.3810  0.3761
 1016MOL0     C37089   5.148   5.780  11.136 -0.0968  0.2010  0.3953
 1016MOL0     C37090   5.198   5.739  11.237  0.3779  0.0452 -0.6424
 1016MOL0     C37091   5.513   6.053  10.510  0.3688  0.0095  0.1240
 1016MOL0     C37092   5.570   6.114  10.402  0.5558  0.1517 -0.5449
 1016MOL0     H37093   5.364   6.454   9.939  0.0830 -2.1205  2.5488
 1016MOL0     H37094   5.424   6.644   9.800  0.8585  2.6674  0.7544
 1016MOL0     H37095   5.581   6.910   9.944  3.2739  2.6074  3.6761
 1016MOL0     H37096   5.745   6.910   9.913  0.1813  0.9659  0.0539
 1016MOL0     H37097   5.611   7.094   9.811  1.6856 -1.3806  3.6047
 1016MOL0     H37098   5.712   7.001   9.692 -2.3474 -2.3601 -3.3235
 1016MOL0     H37099   5.491   7.041   9.599  0.9398 -0.7971 -0.8328
 1016MOL0     H37100   5.521   6.871   9.613 -1.4744  0.2066 -1.0988
 1016MOL0     H37101   5.393   6.864   9.834 -3.7996  1.5883  1.9588
 1016MOL0     H37102   5.376   7.032   9.827  3.3925  0.7820 -0.0670
 1016MOL0     H37103   5.212   7.004   9.660 -1.6072  1.2598  5.2075
 1016MOL0     H37104   5.275   6.838   9.607 -2.1937  0.1042 -0.6802
 1016MOL0     H37105   5.125   6.921   9.854  4.3945  1.3732 -0.6702
 1016MOL0     H37106   5.057   6.845   9.715 -0.3775 -1.4860 -0.1072
 1016MOL0     H37107   5.164   6.633   9.770  1.3835 -2.1820  2.7111
 1016MOL0     H37108   5.230   6.710   9.923 -0.4807  0.1152  0.4294
 1016MOL0     H37109   4.955   6.647   9.855 -0.1557  4.3265 -2.2584
 1016MOL0     H37110   5.001   6.760   9.996 -1.3982 -0.8397  0.1235
 1016MOL0     H37111   4.908   6.425   9.946 -0.2771  5.0274 -1.2401
 1016MOL0     H37112   5.010   6.257  10.288 -0.4066  0.8997 -0.5516
 1016MOL0     H37113   4.876   6.255  10.175 -0.0138 -2.4483 -0.7103
 1016MOL0     H37114   5.030   6.052  10.193  1.0651  1.3400  1.4248
 1016MOL0     H37115   5.165   6.149  10.155 -1.0609  0.7353  0.4567
 1016MOL0     H37116   5.075   6.201   9.928 -2.1747  1.6181  0.1070
 1016MOL0     H37117   4.930   6.105   9.961 -0.1706 -1.4355  0.0603
 1016MOL0     H37118   5.215   5.977   9.948  0.3520 -1.3467  0.4183
 1016MOL0     H37119   5.094   5.982   9.824 -0.7410  0.3463  1.1806
 1016MOL0     H37120   5.270   5.911  10.123  0.3346 -0.0361 -1.3973
 1016MOL0     H37121   5.426   5.841  10.427  1.1912 -1.3851 -0.2971
 1016MOL0     H37122   5.466   5.744  10.288  0.0190  0.3159  0.8245
 1016MOL0     H37123   5.449   5.913  10.273  0.0241 -0.2389 -0.6552
 1016MOL0     H37124   5.221   5.262  10.555  2.2780 -0.4295  1.3422
 1016MOL0     H37125   5.241   5.150  10.773 -1.6299 -1.1015 -3.7180
 1016MOL0     H37126   5.359   5.286  11.159 -0.2616  1.2015  0.5892
 1016MOL0     H37127   5.299   5.441  11.105 -0.6668 -0.0912 -1.6980
 1016MOL0     H37128   5.080   5.371  11.184  0.0753 -1.3699 -2.8784
 1016MOL0     H37129   5.134   5.217  11.241  0.8133  0.0171  0.2390
 1016MOL0     H37130   5.267   5.471  11.340  2.1790 -1.9561  0.3702
 1016MOL0     H37131   5.240   5.325  11.445 -0.1663  2.0853  1.3054
 1016MOL0     H37132   5.044   5.514  11.333  0.6195  0.2430  0.0159
 1016MOL0     H37133   4.997   5.369  11.434  1.5228 -2.4697  0.8636
 1016MOL0     H37134   5.084   5.642  11.543  0.2638  0.1035  0.3104
 1016MOL0     H37135   5.177   5.502  11.599 -0.7756  1.4621  2.8887
 1016MOL0     H37136   4.874   5.543  11.627 -1.9687  0.8368  6.7979
 1016MOL0     H37137   4.964   5.393  11.672 -0.2102 -0.8216  1.9811
 1016MOL0     H37138   5.020   5.664  11.800 -1.6997 -0.3695  1.4518
 1016MOL0     H37139   5.089   5.497  11.830 -0.4441 -1.1791 -0.3472
 1016MOL0     H37140   4.871   5.426  11.896  0.9665 -1.3927 -0.7654
 1016MOL0     H37141   4.801   5.590  11.867  1.9210  3.9865  2.2384
 1016MOL0     H37142   5.122   5.499  10.990 -1.0055  2.0694 -0.9279
 1016MOL0     H37143   5.061   5.612  10.762 -0.6122 -0.6724 -0.5867
 1016MOL0     H37144   5.001   5.558  10.329 -1.4873  1.1831  0.6170
 1016MOL0     H37145   4.931   5.670  10.120  0.2514 -1.3592  1.1467
 1016MOL0     H37146   5.802   6.658  10.001 -0.3046  0.1342  1.4494
 1016MOL0     H37147   5.718   6.535  10.177 -0.0643  0.0919  0.4117
 1016MOL0     H37148   5.324   6.334  10.330 -1.7522 -1.5129 -1.3025
 1016MOL0     H37149   5.223   6.236  10.518 -2.5572 -3.7665 -0.1667
 1016MOL0     H37150   5.405   5.849  10.639 -3.2886 -0.0934 -0.9541
 1016MOL0     H37151   5.462   5.936  10.775  1.6713 -2.7193 -1.8405
 1016MOL0     H37152   5.302   5.741  10.827 -0.1953  0.0568 -1.0604
 1016MOL0     H37153   5.171   5.837  10.748  0.8727 -0.8204 -2.1599
 1016MOL0     H37154   5.214   6.010  10.910  2.6032 -0.0647 -0.9767
 1016MOL0     H37155   5.332   5.913  10.998 -0.0135 -2.3517  0.8194
 1016MOL0     H37156   5.074   5.755  10.951  1.5790 -1.6033  1.7459
 1016MOL0     H37157   5.040   5.916  11.012 -0.3365  0.6545 -1.6629
 1016MOL0     H37158   5.243   5.688  11.320 -1.5982 -1.6982 -0.5394
 1016MOL0     H37159   5.572   5.980  10.565  1.4506 -0.1399 -1.1873
 1016MOL0     H37160   5.675   6.093  10.379  1.3608  2.0291  1.1288
 1017MOL0     O37161   4.102   5.875   6.688 -0.0840 -0.2242  0.0339
 1017MOL0     C37162   4.123   5.795   6.596  0.3074  0.4074  0.2202
 1017MOL0     O37163   4.030   5.755   6.509  0.4728  0.2044  0.3921
 1017MOL0     C37164   3.906   5.810   6.530  0.2935  0.0767 -0.0295
 1017MOL0     C37165   3.887   5.934   6.465  0.9770 -0.9264 -0.0894
 1017MOL0     C37166   3.771   6.000   6.499  0.2526 -0.5248 -0.0024
 1017MOL0     C37167   3.670   5.954   6.588 -0.0560 -0.4577  0.2022
 1017MOL0     O37168   3.558   6.032   6.595 -0.0478  0.7114 -0.3132
 1017MOL0     C37169   3.462   5.981   6.700  0.8188  0.6105 -0.0488
 1017MOL0     C37170   3.341   6.078   6.696  0.2377 -0.5286  0.5835
 1017MOL0     C37171   3.391   6.213   6.738  1.4982  0.8474 -0.1033
 1017MOL0     C37172   3.410   6.221   6.892 -0.1441 -0.4561 -0.3905
 1017MOL0     C37173   3.348   6.336   6.981  0.1317  0.5909  0.6486
 1017MOL0     C37174   3.199   6.320   6.976 -1.2142  0.1711  0.2939
 1017MOL0     C37175   3.141   6.374   7.102  0.9004 -0.1004 -0.7361
 1017MOL0     C37176   3.016   6.291   7.137 -0.4075 -0.2035  0.6905
 1017MOL0     N37177   2.910   6.342   7.051 -1.1014  0.8759 -0.7078
 1017MOL0     C37178   2.793   6.269   7.026  0.3292 -1.2268 -0.5090
 1017MOL0     C37179   2.700   6.367   6.994 -0.6239  0.4945  0.4103
 1017MOL0     C37180   2.561   6.328   6.953 -0.9379 -0.0812  0.2485
 1017MOL0     C37181   2.462   6.409   7.035  0.2473 -1.0514  0.9465
 1017MOL0     C37182   2.318   6.396   6.969  0.4516  0.8603  1.3658
 1017MOL0     C37183   2.257   6.520   6.917  1.0643 -0.2729 -0.5515
 1017MOL0     O37184   2.168   6.498   6.803  0.2941 -0.6060 -0.2084
 1017MOL0     C37185   2.126   6.618   6.743 -0.3750  0.1519 -0.6107
 1017MOL0     C37186   2.016   6.680   6.804  0.0408  0.1467  0.0748
 1017MOL0     C37187   1.976   6.806   6.758 -0.7397 -0.4948 -0.0137
 1017MOL0     C37188   1.856   6.877   6.817  0.4708  0.4655 -0.2549
 1017MOL0     C37189   2.041   6.863   6.646 -0.7550  0.4879  1.5711
 1017MOL0     C37190   2.005   6.987   6.579 -0.3676  0.4806 -0.4589
 1017MOL0     O37191   1.878   7.006   6.550 -0.4906 -0.6685 -0.6793
 1017MOL0     C37192   1.825   7.130   6.563  0.4041  0.5493 -0.4142
 1017MOL0     C37193   1.890   7.221   6.655  0.5346 -0.0309 -0.7924
 1017MOL0     C37194   1.837   7.354   6.669  0.4868 -0.2732 -0.0051
 1017MOL0     C37195   1.720   7.388   6.598 -0.2310  0.0022  0.6738
 1017MOL0     O37196   1.671   7.513   6.611  0.0587 -0.3780  0.9105
 1017MOL0     C37197   1.744   7.619   6.559 -0.1560  0.3000  1.3216
 1017MOL0     C37198   1.654   7.745   6.563 -0.2705 -0.4707  0.8421
 1017MOL0     C37199   1.723   7.875   6.522 -0.0477 -0.4643 -0.8384
 1017MOL0     C37200   1.637   7.994   6.556  0.5715  0.4000 -0.1571
 1017MOL0     C37201   1.690   8.128   6.498  0.4211  0.3114  0.3222
 1017MOL0     C37202   1.647   8.258   6.564 -0.0512 -0.3512  0.1502
 1017MOL0     C37203   1.728   8.379   6.498  1.1291  0.1838 -0.0458
 1017MOL0     C37204   1.663   8.430   6.378  0.5368 -0.2526  0.0234
 1017MOL0    Cl37205   1.543   8.576   6.405  0.0232 -0.3440  0.0291
 1017MOL0     C37206   1.666   7.307   6.495 -0.0974 -0.1745 -1.0215
 1017MOL0     C37207   1.720   7.180   6.482  0.5866  0.4155  0.4762
 1017MOL0     O37208   2.098   7.064   6.556  0.3784  0.4926  0.4225
 1017MOL0     C37209   2.159   6.797   6.593 -0.0676  0.0780  0.5188
 1017MOL0     C37210   2.195   6.674   6.642 -0.0770 -0.1811  0.2634
 1017MOL0     N37211   2.756   6.486   6.993 -0.1034 -0.6864 -0.6864
 1017MOL0     N37212   2.884   6.472   7.032  0.4127 -0.3406  0.5508
 1017MOL0     C37213   3.689   5.824   6.642  0.5807  0.0586 -0.6915
 1017MOL0     C37214   3.807   5.755   6.620 -0.3381  0.8238  0.0590
 1017MOL0     C37215   4.267   5.757   6.571 -0.0213  0.2973 -0.7070
 1017MOL0     C37216   4.365   5.782   6.671  0.0975  0.1021 -0.5621
 1017MOL0     C37217   4.498   5.755   6.646  1.0731  0.1433 -0.0521
 1017MOL0     C37218   4.539   5.690   6.524 -0.4940  0.3231  0.4147
 1017MOL0     O37219   4.676   5.664   6.515  0.2249  0.1981  1.2855
 1017MOL0     C37220   4.723   5.587   6.402 -0.8421  0.5430 -0.2174
 1017MOL0     C37221   4.860   5.524   6.437  0.2244  0.4938 -1.3845
 1017MOL0     C37222   4.851   5.438   6.565  0.8841 -0.3268 -0.0006
 1017MOL0     C37223   4.983   5.389   6.616 -0.1840  0.0137 -0.1840
 1017MOL0     C37224   5.047   5.484   6.713  0.0428  0.4900 -0.5792
 1017MOL0     C37225   5.086   5.565   6.788  0.5560  0.3243 -0.3548
 1017MOL0     C37226   4.447   5.652   6.426  0.8907 -0.3804 -0.6479
 1017MOL0     C37227   4.313   5.697   6.443  0.2039  0.4739 -0.3749
 1017MOL0     H37228   3.958   5.996   6.411  1.4144  2.4504  3.8080
 1017MOL0     H37229   3.750   6.095   6.452  1.0391 -0.7113 -0.7594
 1017MOL0     H37230   3.421   5.882   6.681 -1.1849  1.0277  1.6834
 1017MOL0     H37231   3.498   5.971   6.803 -1.2247  1.0765  0.7659
 1017MOL0     H37232   3.299   6.078   6.595  0.5791 -0.6899  0.4399
 1017MOL0     H37233   3.258   6.048   6.761 -0.5973 -1.4604 -0.8596
 1017MOL0     H37234   3.487   6.243   6.695  1.5568  1.1246  0.2211
 1017MOL0     H37235   3.322   6.295   6.715  1.6077  0.9433 -0.0914
 1017MOL0     H37236   3.379   6.124   6.931 -1.2940 -2.0253 -4.6810
 1017MOL0     H37237   3.520   6.229   6.892 -0.0602 -1.4066 -1.3523
 1017MOL0     H37238   3.389   6.322   7.081 -0.6229 -1.3312  0.7284
 1017MOL0     H37239   3.367   6.432   6.932 -2.6115 -0.4738 -2.9300
 1017MOL0     H37240   3.162   6.368   6.885 -0.6453  0.1882  0.0668
 1017MOL0     H37241   3.176   6.213   6.981  0.4325 -0.1740  3.9231
 1017MOL0     H37242   3.204   6.346   7.187  0.1906  1.2217  0.2625
 1017MOL0     H37243   3.131   6.483   7.099 -1.9032 -0.2452 -0.0029
 1017MOL0     H37244   3.002   6.329   7.239  0.9728 -0.2692  0.9275
 1017MOL0     H37245   3.027   6.183   7.145 -1.0351 -0.3037  0.2695
 1017MOL0     H37246   2.786   6.161   7.018 -1.1058 -1.0499 -2.3247
 1017MOL0     H37247   2.551   6.355   6.847 -2.3455 -1.6062 -0.0516
 1017MOL0     H37248   2.538   6.223   6.933  0.7782 -0.2079 -1.3236
 1017MOL0     H37249   2.495   6.514   7.034 -0.3442 -0.8600 -0.2429
 1017MOL0     H37250   2.446   6.370   7.136 -1.6963 -1.2750  0.5961
 1017MOL0     H37251   2.253   6.378   7.055  2.1616  4.0658  3.5213
 1017MOL0     H37252   2.318   6.308   6.904 -1.2187  1.8825 -0.1105
 1017MOL0     H37253   2.333   6.586   6.875  1.4176  1.5993  2.7049
 1017MOL0     H37254   2.218   6.577   7.002 -2.9142 -0.2848 -2.1321
 1017MOL0     H37255   1.975   6.626   6.889 -2.1089  1.5431 -0.0127
 1017MOL0     H37256   1.769   6.871   6.750  1.0416  2.9179 -1.3363
 1017MOL0     H37257   1.837   6.842   6.919 -0.0567  0.2355 -0.4290
 1017MOL0     H37258   1.877   6.984   6.819 -1.9441  1.0215 -0.8291
 1017MOL0     H37259   1.974   7.192   6.718  3.6491  1.7045 -3.7802
 1017MOL0     H37260   1.887   7.427   6.731 -1.0855  1.0901 -0.2787
 1017MOL0     H37261   1.827   7.634   6.630 -0.6899 -2.0229  2.5057
 1017MOL0     H37262   1.793   7.610   6.462 -0.3779  6.4105  0.2252
 1017MOL0     H37263   1.565   7.716   6.507  1.0135 -1.1170 -0.9962
 1017MOL0     H37264   1.624   7.760   6.667 -0.1367 -3.0259  1.3067
 1017MOL0     H37265   1.747   7.873   6.416 -2.7549  1.4676 -1.6144
 1017MOL0     H37266   1.808   7.874   6.591 -1.4114 -0.6374  0.9414
 1017MOL0     H37267   1.534   7.981   6.522  0.1801  1.6495  0.4736
 1017MOL0     H37268   1.635   8.008   6.665  0.9627 -1.0265  0.0450
 1017MOL0     H37269   1.656   8.132   6.394 -3.5331 -2.6176  1.2788
 1017MOL0     H37270   1.798   8.119   6.513  0.4355  3.1369  2.9607
 1017MOL0     H37271   1.541   8.283   6.558 -0.1479 -0.0580  2.4007
 1017MOL0     H37272   1.681   8.266   6.668  1.3146  2.6526 -0.4231
 1017MOL0     H37273   1.832   8.349   6.481  0.5678 -1.9835  0.0366
 1017MOL0     H37274   1.725   8.461   6.570 -3.3263 -0.3610  0.7035
 1017MOL0     H37275   1.618   8.352   6.316  4.3460 -1.2563 -1.7558
 1017MOL0     H37276   1.733   8.479   6.310 -0.4089 -0.5425 -1.1879
 1017MOL0     H37277   1.581   7.359   6.452 -0.5370  4.4794  4.2954
 1017MOL0     H37278   1.680   7.114   6.406  2.8379  0.2910 -0.6992
 1017MOL0     H37279   2.212   6.833   6.505 -3.6540  0.6406 -1.6037
 1017MOL0     H37280   2.284   6.633   6.597 -1.8028 -2.4379 -1.3278
 1017MOL0     H37281   3.617   5.786   6.714 -0.9835  1.4772 -1.4385
 1017MOL0     H37282   3.820   5.654   6.658 -2.5095  0.8013  0.8751
 1017MOL0     H37283   4.332   5.829   6.763 -1.0060 -0.7219 -0.5197
 1017MOL0     H37284   4.570   5.786   6.721 -1.1133  0.0345  2.2344
 1017MOL0     H37285   4.655   5.509   6.367 -2.1442  1.2119  0.7779
 1017MOL0     H37286   4.738   5.655   6.318  1.1380 -1.5820 -1.7223
 1017MOL0     H37287   4.932   5.601   6.465 -0.0459 -0.2332  1.7302
 1017MOL0     H37288   4.897   5.469   6.350 -0.6819  0.5454 -1.8149
 1017MOL0     H37289   4.799   5.348   6.532  1.7646  0.0077 -2.5325
 1017MOL0     H37290   4.801   5.486   6.649  1.7065  1.1360 -0.3160
 1017MOL0     H37291   5.044   5.368   6.528  1.3840 -0.2228  0.9142
 1017MOL0     H37292   4.966   5.289   6.658 -1.3024  0.1824 -0.1885
 1017MOL0     H37293   5.127   5.638   6.855 -3.0061  3.0710 -0.9328
 1017MOL0     H37294   4.477   5.605   6.334  1.2671  0.3730 -0.9150
 1017MOL0     H37295   4.235   5.672   6.371 -0.1596 -0.4563  0.3147
 1018MOL0     O37296   2.461   1.332   5.176 -0.7002 -0.6150 -0.3260
 1018MOL0     C37297   2.371   1.411   5.140  0.5340  0.6531  0.4178
 1018MOL0     O37298   2.303   1.502   5.206 -0.7402  0.9236  1.3786
 1018MOL0     C37299   2.331   1.507   5.335 -0.2679  0.4481 -0.1377
 1018MOL0     C37300   2.334   1.399   5.422 -0.3000 -0.2278  0.2832
 1018MOL0     C37301   2.328   1.424   5.553  0.1717 -0.4160 -0.0784
 1018MOL0     C37302   2.333   1.549   5.612  0.6540  0.5715  0.0539
 1018MOL0     O37303   2.324   1.544   5.751  0.2342 -0.2475  0.0266
 1018MOL0     C37304   2.322   1.669   5.822 -0.5901 -0.5943  0.0758
 1018MOL0     C37305   2.218   1.670   5.935 -0.1969  0.8737  0.1898
 1018MOL0     C37306   2.082   1.703   5.867  1.5874 -0.9279  0.3633
 1018MOL0     C37307   2.074   1.855   5.849  0.2427  0.6386  0.3775
 1018MOL0     C37308   1.939   1.905   5.785 -0.9804 -0.0671 -0.8626
 1018MOL0     C37309   1.941   1.909   5.625  0.9655  0.1575 -0.6291
 1018MOL0     C37310   1.803   1.924   5.562  1.0901  0.1785 -0.3233
 1018MOL0     C37311   1.733   2.057   5.611  0.3203  0.0719 -0.5062
 1018MOL0     N37312   1.597   2.037   5.656  0.5096  0.5762 -0.1267
 1018MOL0     C37313   1.500   1.965   5.584 -1.2363  0.0817 -0.2527
 1018MOL0     C37314   1.401   1.947   5.679  0.0649  0.9763  0.1962
 1018MOL0     C37315   1.269   1.862   5.652 -1.1630 -0.3000  0.3062
 1018MOL0     C37316   1.293   1.740   5.567  0.4403 -0.5687 -0.1140
 1018MOL0     C37317   1.385   1.652   5.643  0.5773  1.0697 -0.0988
 1018MOL0     C37318   1.425   1.539   5.551 -0.0482 -0.2329 -0.3833
 1018MOL0     O37319   1.525   1.589   5.463  0.2747  0.2883 -0.9206
 1018MOL0     C37320   1.570   1.512   5.360 -0.1704 -0.2904  0.7316
 1018MOL0     C37321   1.575   1.370   5.351  0.5056  0.1889  1.3272
 1018MOL0     C37322   1.603   1.300   5.231  0.2773 -0.9611 -0.0213
 1018MOL0     C37323   1.591   1.150   5.239 -0.0995  0.0589  0.2095
 1018MOL0     C37324   1.659   1.375   5.119  0.6296 -1.6396  0.3229
 1018MOL0     C37325   1.710   1.320   4.994 -0.0149  0.4671 -0.2616
 1018MOL0     O37326   1.757   1.404   4.901  1.1481 -0.8547 -0.9263
 1018MOL0     C37327   1.791   1.352   4.780  0.0467  0.6708  0.3211
 1018MOL0     C37328   1.910   1.278   4.741  0.2112  0.5997  0.3239
 1018MOL0     C37329   1.924   1.240   4.600 -0.8376 -0.3326 -0.4837
 1018MOL0     C37330   1.835   1.288   4.505 -0.1785 -0.1446 -0.0893
 1018MOL0     O37331   1.849   1.284   4.368 -0.2262 -0.4596  0.0708
 1018MOL0     C37332   1.903   1.158   4.315  1.2144  0.1610  0.0294
 1018MOL0     C37333   1.841   1.136   4.177 -0.0901 -0.6523  0.6804
 1018MOL0     C37334   1.892   1.240   4.073  1.1619 -0.2876 -0.4971
 1018MOL0     C37335   1.798   1.284   3.954  0.1316  0.9812 -0.9241
 1018MOL0     C37336   1.749   1.153   3.884  1.3192  0.2430 -0.1921
 1018MOL0     C37337   1.659   1.168   3.766 -0.2603  0.0673 -0.0225
 1018MOL0     C37338   1.569   1.052   3.727 -1.2041  1.2917 -0.5176
 1018MOL0     C37339   1.656   0.924   3.730  0.4942  0.2510 -0.7627
 1018MOL0    Cl37340   1.568   0.786   3.636  0.3621 -0.3439 -0.1123
 1018MOL0     C37341   1.716   1.348   4.543  0.1437 -0.6522  0.5884
 1018MOL0     C37342   1.697   1.384   4.678 -0.6143 -0.4017 -0.2943
 1018MOL0     O37343   1.714   1.196   4.981  1.0671  0.3202 -0.3198
 1018MOL0     C37344   1.655   1.515   5.134  0.0455 -0.8292 -0.8490
 1018MOL0     C37345   1.622   1.582   5.255  0.1356 -0.4330 -0.3000
 1018MOL0     N37346   1.447   1.998   5.803 -0.1014 -0.5568  0.2409
 1018MOL0     N37347   1.570   2.042   5.786  0.0278 -0.5647 -0.6266
 1018MOL0     C37348   2.335   1.658   5.522 -0.7549 -1.3737  1.4809
 1018MOL0     C37349   2.335   1.632   5.385  0.1415 -0.4614  0.3080
 1018MOL0     C37350   2.351   1.422   4.995 -0.2913  0.4534 -0.2575
 1018MOL0     C37351   2.330   1.540   4.932  0.0462 -1.3014 -0.1974
 1018MOL0     C37352   2.293   1.541   4.800 -0.3836  0.2547 -0.2554
 1018MOL0     C37353   2.289   1.426   4.724 -0.6852 -0.4164  0.3154
 1018MOL0     O37354   2.233   1.439   4.598  0.1646  0.3073  0.1546
 1018MOL0     C37355   2.267   1.350   4.492 -0.0572 -0.0117 -1.1016
 1018MOL0     C37356   2.223   1.408   4.347 -0.4896  0.5060 -0.1175
 1018MOL0     C37357   2.316   1.521   4.311  0.5683 -0.4703  0.8624
 1018MOL0     C37358   2.234   1.638   4.316  0.1635  0.1963 -0.2377
 1018MOL0     C37359   2.318   1.752   4.269  1.3324 -0.0468 -1.1130
 1018MOL0     C37360   2.401   1.831   4.237 -0.3975  0.5488  0.6138
 1018MOL0     C37361   2.343   1.309   4.783  0.0371  0.0331 -1.4020
 1018MOL0     C37362   2.365   1.300   4.920 -0.1023 -1.0048 -0.4380
 1018MOL0     H37363   2.323   1.294   5.399  0.3475 -0.4236  0.8530
 1018MOL0     H37364   2.320   1.338   5.620 -1.4399 -0.8138 -0.7226
 1018MOL0     H37365   2.420   1.685   5.868 -1.9360  2.4375  2.2362
 1018MOL0     H37366   2.330   1.757   5.757  2.2509 -0.0864  0.9737
 1018MOL0     H37367   2.207   1.571   5.980  3.2817  0.7586  1.0780
 1018MOL0     H37368   2.238   1.742   6.015  0.8513  1.7607 -0.8385
 1018MOL0     H37369   2.070   1.646   5.774 -1.7102  0.8302 -0.4286
 1018MOL0     H37370   2.000   1.673   5.934 -1.3574  0.5067 -2.3474
 1018MOL0     H37371   2.079   1.911   5.943 -2.4984  0.2697  0.8319
 1018MOL0     H37372   2.156   1.892   5.787 -0.5941  0.1358 -1.0571
 1018MOL0     H37373   1.860   1.843   5.828 -1.4917  1.6260  0.7454
 1018MOL0     H37374   1.928   2.003   5.831  1.4306  0.7346 -1.8215
 1018MOL0     H37375   2.011   1.987   5.594  0.0342  0.8323 -1.1132
 1018MOL0     H37376   1.974   1.808   5.603 -1.9189 -0.8688 -0.7084
 1018MOL0     H37377   1.816   1.935   5.454  0.8396  1.3092 -0.2504
 1018MOL0     H37378   1.738   1.842   5.593  1.0729  0.4573  0.4072
 1018MOL0     H37379   1.725   2.130   5.530 -0.8743 -0.8511 -1.2659
 1018MOL0     H37380   1.783   2.108   5.694 -1.5142  1.8721 -0.4291
 1018MOL0     H37381   1.512   1.926   5.484  3.5506  0.1293  0.0775
 1018MOL0     H37382   1.221   1.827   5.744  1.0466  0.4148  1.8341
 1018MOL0     H37383   1.205   1.929   5.594  3.1089  2.1427 -2.0569
 1018MOL0     H37384   1.321   1.763   5.464 -3.5074 -0.7948 -1.4266
 1018MOL0     H37385   1.197   1.692   5.545  0.0008  0.3294 -0.2252
 1018MOL0     H37386   1.314   1.615   5.718 -2.0776  0.2688 -2.7842
 1018MOL0     H37387   1.468   1.709   5.686  1.1485 -0.0019  0.2637
 1018MOL0     H37388   1.337   1.497   5.501 -1.1465 -1.0482  2.0774
 1018MOL0     H37389   1.463   1.458   5.614 -1.6910  0.3563  1.4690
 1018MOL0     H37390   1.534   1.307   5.430 -2.3985  1.2664  0.8088
 1018MOL0     H37391   1.534   1.124   5.150  1.8083  0.3210 -1.1545
 1018MOL0     H37392   1.684   1.093   5.246 -0.0947  0.0156 -0.1915
 1018MOL0     H37393   1.536   1.134   5.333 -0.9664 -0.9586 -0.4578
 1018MOL0     H37394   1.969   1.234   4.821  0.0981 -0.2419 -0.0440
 1018MOL0     H37395   2.012   1.185   4.569 -0.8399 -0.8659  0.4040
 1018MOL0     H37396   2.013   1.156   4.318  1.2435 -0.5023 -0.8917
 1018MOL0     H37397   1.868   1.074   4.375  0.4425  0.0475 -0.5585
 1018MOL0     H37398   1.874   1.037   4.143  0.9060  0.9263 -3.5650
 1018MOL0     H37399   1.732   1.142   4.168  0.1780  2.0974 -2.5739
 1018MOL0     H37400   1.980   1.206   4.018  1.6696  4.1040 -2.8692
 1018MOL0     H37401   1.928   1.327   4.129 -0.7446 -0.3752  0.9598
 1018MOL0     H37402   1.710   1.342   3.984 -1.1637 -0.4889 -1.7794
 1018MOL0     H37403   1.857   1.351   3.892  1.8692  1.7447  1.4077
 1018MOL0     H37404   1.684   1.104   3.956  2.4700 -1.1607 -0.0778
 1018MOL0     H37405   1.835   1.086   3.876  2.3462  1.3893  0.8794
 1018MOL0     H37406   1.597   1.257   3.773 -0.2161  0.1413 -0.5107
 1018MOL0     H37407   1.708   1.195   3.672 -1.3829  4.0964  0.3510
 1018MOL0     H37408   1.536   1.060   3.623  0.9158 -1.2072 -1.4989
 1018MOL0     H37409   1.490   1.037   3.801 -0.4927  0.4215  0.0880
 1018MOL0     H37410   1.657   0.904   3.838 -2.4690  2.2447 -0.2187
 1018MOL0     H37411   1.759   0.933   3.696  1.8143 -3.1671  1.7402
 1018MOL0     H37412   1.639   1.370   4.469 -0.0382 -1.7019  0.4525
 1018MOL0     H37413   1.605   1.437   4.705 -0.3639  0.6985 -1.5276
 1018MOL0     H37414   1.690   1.577   5.053 -0.4821  1.5891  0.6740
 1018MOL0     H37415   1.636   1.688   5.272  1.1052 -0.3889 -1.2799
 1018MOL0     H37416   2.322   1.765   5.537  3.9321 -0.6049  1.6858
 1018MOL0     H37417   2.330   1.716   5.317  1.5773 -0.2085  0.4679
 1018MOL0     H37418   2.333   1.626   4.999  1.7425 -2.3593  1.1861
 1018MOL0     H37419   2.254   1.631   4.754 -2.2520 -0.6805 -0.5877
 1018MOL0     H37420   2.374   1.333   4.503 -0.1372  0.6587  1.1419
 1018MOL0     H37421   2.207   1.264   4.523  0.1837  0.6223  1.2610
 1018MOL0     H37422   2.116   1.431   4.350 -0.3630  1.1561 -0.3837
 1018MOL0     H37423   2.236   1.328   4.274 -1.1403  0.3908 -0.1190
 1018MOL0     H37424   2.356   1.508   4.210 -1.8794  2.4672 -0.6434
 1018MOL0     H37425   2.402   1.537   4.377  0.8065  2.1162  0.0445
 1018MOL0     H37426   2.185   1.663   4.411  1.9433  2.8608  0.0853
 1018MOL0     H37427   2.158   1.617   4.241  1.1074 -0.4044 -1.0542
 1018MOL0     H37428   2.486   1.888   4.207  0.2960 -0.8373 -0.1660
 1018MOL0     H37429   2.351   1.210   4.741  2.9391 -1.7731  2.7057
 1018MOL0     H37430   2.410   1.211   4.963  0.5772 -0.8779 -0.8658
 1019MOL0     O37431   7.049   6.672   6.894 -0.0827  0.5178  0.0948
 1019MOL0     C37432   7.071   6.632   6.779  0.5626 -0.2943  0.4175
 1019MOL0     O37433   7.184   6.579   6.725 -0.8402  0.7756 -0.4148
 1019MOL0     C37434   7.295   6.600   6.804  0.7650  0.2381  0.7581
 1019MOL0     C37435   7.362   6.483   6.833 -0.0568  0.0590 -0.1283
 1019MOL0     C37436   7.486   6.487   6.896 -0.1402 -0.5049  0.7440
 1019MOL0     C37437   7.542   6.603   6.941 -0.2081  1.3489  0.8637
 1019MOL0     O37438   7.666   6.613   7.004 -0.1066 -0.0641 -0.0400
 1019MOL0     C37439   7.739   6.497   7.038  0.5526  0.3125 -0.6172
 1019MOL0     C37440   7.850   6.548   7.142  0.6646  0.0703  0.2187
 1019MOL0     C37441   7.984   6.582   7.079 -0.4958  0.1266 -1.0699
 1019MOL0     C37442   7.993   6.732   7.035 -1.7629  0.5503  0.3390
 1019MOL0     C37443   8.137   6.772   6.991 -0.4682  0.3380  0.0070
 1019MOL0     C37444   8.145   6.897   6.904 -0.5846  0.0823  0.7813
 1019MOL0     C37445   8.281   6.948   6.880  0.5414 -1.1409  0.7704
 1019MOL0     C37446   8.338   7.033   6.993 -0.0214 -0.3784 -0.3201
 1019MOL0     N37447   8.252   7.152   7.006  0.6669  0.2422  0.5756
 1019MOL0     C37448   8.180   7.175   7.117 -0.4103  0.5701 -0.3578
 1019MOL0     C37449   8.098   7.275   7.082  0.1121  0.4988 -0.4394
 1019MOL0     C37450   7.958   7.298   7.162 -0.0128  0.4469 -0.3196
 1019MOL0     C37451   7.860   7.399   7.109 -0.3321  0.2134  0.6507
 1019MOL0     C37452   7.781   7.359   6.987  0.3105 -0.5964  1.3649
 1019MOL0     C37453   7.715   7.487   6.931  0.0849 -0.2200  0.2856
 1019MOL0     O37454   7.596   7.521   7.011  0.1736  0.0798  0.4063
 1019MOL0     C37455   7.539   7.648   6.996  0.1263 -0.8350  0.3571
 1019MOL0     C37456   7.598   7.753   6.919  0.6733 -0.5381  0.0259
 1019MOL0     C37457   7.528   7.876   6.902  0.2817  0.4578  0.1326
 1019MOL0     C37458   7.612   7.974   6.827 -0.8768  0.5462 -0.1166
 1019MOL0     C37459   7.399   7.892   6.965 -0.1105 -0.2424  0.0534
 1019MOL0     C37460   7.337   8.025   6.954  1.0798 -0.4168 -0.5218
 1019MOL0     O37461   7.264   8.065   7.064 -0.3413 -0.5372 -0.0606
 1019MOL0     C37462   7.227   8.192   7.078 -0.6774  0.5237  0.5610
 1019MOL0     C37463   7.105   8.210   7.125 -0.5393 -0.2860 -1.1618
 1019MOL0     C37464   7.061   8.338   7.154 -0.1619 -0.2595 -0.5057
 1019MOL0     C37465   7.144   8.449   7.129 -0.8577 -0.1290 -0.1071
 1019MOL0     O37466   7.103   8.577   7.165  0.9355 -0.3780  0.3795
 1019MOL0     C37467   7.167   8.696   7.119 -0.2094  0.6063  0.8765
 1019MOL0     C37468   7.088   8.810   7.170 -1.2558  0.0780 -0.1480
 1019MOL0     C37469   7.157   8.940   7.141  0.5181  0.2375  0.3428
 1019MOL0     C37470   7.074   9.064   7.192 -0.5678  0.5285  0.3024
 1019MOL0     C37471   6.934   9.069   7.131 -0.2014  0.3363 -0.1528
 1019MOL0     C37472   6.840   9.175   7.195 -0.5491  0.4589  0.3816
 1019MOL0     C37473   6.907   9.321   7.193 -0.4254  0.2811  1.2920
 1019MOL0     C37474   6.931   9.395   7.056  0.6599  0.1154  0.3213
 1019MOL0    Cl37475   6.780   9.426   6.963  0.0642 -0.0788  0.3342
 1019MOL0     C37476   7.269   8.424   7.078  0.4794 -0.7628  0.2287
 1019MOL0     C37477   7.317   8.301   7.062  0.2306  0.2370  0.2755
 1019MOL0     O37478   7.355   8.098   6.861 -1.1422 -0.8048 -0.6036
 1019MOL0     C37479   7.342   7.783   7.023 -0.1536  0.8152 -0.8942
 1019MOL0     C37480   7.408   7.660   7.033  0.2318  0.8148  0.7296
 1019MOL0     N37481   8.120   7.314   6.953 -0.1081  0.3820 -0.1314
 1019MOL0     N37482   8.216   7.240   6.908  0.4955  0.9968  0.0201
 1019MOL0     C37483   7.475   6.717   6.910 -0.4489 -0.7093 -0.8693
 1019MOL0     C37484   7.353   6.719   6.837  0.1324  0.5651  0.1722
 1019MOL0     C37485   6.961   6.637   6.680  0.0248 -0.7677 -0.1631
 1019MOL0     C37486   6.844   6.725   6.712  0.6773 -0.0276 -0.1726
 1019MOL0     C37487   6.736   6.732   6.634  0.6805  0.3353 -0.6444
 1019MOL0     C37488   6.737   6.676   6.500 -0.2625  0.0328  0.3300
 1019MOL0     O37489   6.640   6.703   6.414  0.1768  1.3126 -0.0130
 1019MOL0     C37490   6.664   6.792   6.304  0.4792 -0.6502 -0.2530
 1019MOL0     C37491   6.571   6.909   6.340  0.2522  0.2924 -0.0029
 1019MOL0     C37492   6.630   7.004   6.438  1.3118 -0.1274 -0.2705
 1019MOL0     C37493   6.516   7.107   6.485  0.6843  0.3218 -0.6933
 1019MOL0     C37494   6.434   7.033   6.576 -0.5649  0.1944  0.5801
 1019MOL0     C37495   6.383   6.969   6.665  0.3742 -0.1346 -0.6213
 1019MOL0     C37496   6.853   6.601   6.460  0.1707  0.0350 -0.0197
 1019MOL0     C37497   6.962   6.583   6.551 -0.4322  0.3826  0.4134
 1019MOL0     H37498   7.319   6.387   6.806 -0.1024  0.1807 -0.4991
 1019MOL0     H37499   7.536   6.394   6.922 -1.1690 -1.2619  0.0915
 1019MOL0     H37500   7.686   6.418   7.092  1.4353  0.7567  0.9670
 1019MOL0     H37501   7.781   6.452   6.947  1.4128 -1.8004  0.7462
 1019MOL0     H37502   7.818   6.632   7.204  0.2420 -0.0691  0.1935
 1019MOL0     H37503   7.867   6.462   7.207  2.4795 -0.4946 -0.9325
 1019MOL0     H37504   8.052   6.569   7.164 -2.2863  0.1543  0.4375
 1019MOL0     H37505   8.004   6.510   7.000 -2.0990 -1.6780  0.0839
 1019MOL0     H37506   7.917   6.746   6.957 -1.2403  0.0238 -0.2729
 1019MOL0     H37507   7.965   6.782   7.128  1.3345  0.8717  1.2194
 1019MOL0     H37508   8.201   6.800   7.076  1.3670 -0.2479 -1.1177
 1019MOL0     H37509   8.191   6.694   6.936 -2.8876  0.0589 -2.1568
 1019MOL0     H37510   8.102   6.869   6.807 -0.0224 -0.3321  0.6433
 1019MOL0     H37511   8.082   6.976   6.945  1.4236  1.0141  2.2359
 1019MOL0     H37512   8.342   6.861   6.852  0.8096 -0.3371 -1.3878
 1019MOL0     H37513   8.271   7.005   6.787  1.3028 -1.6457  0.3709
 1019MOL0     H37514   8.444   7.060   6.983 -0.1397 -0.0281 -0.6145
 1019MOL0     H37515   8.320   6.981   7.088 -2.0565  1.0278  0.1299
 1019MOL0     H37516   8.187   7.119   7.210 -1.6827  1.2127  0.1516
 1019MOL0     H37517   7.917   7.204   7.199  0.2498  0.9734  1.4258
 1019MOL0     H37518   7.985   7.355   7.252 -4.7606 -0.5704  2.0431
 1019MOL0     H37519   7.920   7.485   7.079 -1.0088  0.3894 -0.2393
 1019MOL0     H37520   7.789   7.437   7.183 -2.6241 -3.6269  0.6940
 1019MOL0     H37521   7.710   7.282   7.019  0.7595  0.0665  4.1887
 1019MOL0     H37522   7.843   7.325   6.903  1.0225 -0.9985  2.0391
 1019MOL0     H37523   7.690   7.463   6.828  1.6923  1.6909 -0.6300
 1019MOL0     H37524   7.799   7.557   6.925  0.2630 -0.4034  0.6150
 1019MOL0     H37525   7.679   7.727   6.852  0.2235 -0.5754 -0.5123
 1019MOL0     H37526   7.720   7.955   6.826 -0.9496 -0.7951  3.5497
 1019MOL0     H37527   7.584   7.988   6.722  4.4556 -2.8057 -2.4191
 1019MOL0     H37528   7.609   8.075   6.870  0.7088  1.3910 -1.8515
 1019MOL0     H37529   7.054   8.115   7.141  2.7876 -2.2251 -1.1640
 1019MOL0     H37530   6.959   8.340   7.192 -1.2305 -1.1632 -3.0843
 1019MOL0     H37531   7.274   8.690   7.141  0.9256  0.6463 -3.6746
 1019MOL0     H37532   7.173   8.710   7.011  3.7178  3.7760  1.2666
 1019MOL0     H37533   6.989   8.811   7.122 -1.1261 -0.1301 -0.4207
 1019MOL0     H37534   7.090   8.797   7.278  0.2360 -0.6184 -0.2382
 1019MOL0     H37535   7.190   8.945   7.037 -0.7394 -1.0718 -0.1656
 1019MOL0     H37536   7.251   8.938   7.197  0.3012  0.2651  0.7129
 1019MOL0     H37537   7.078   9.070   7.302 -2.2657  1.6391  0.3321
 1019MOL0     H37538   7.141   9.142   7.154 -1.4052  0.7866 -0.6733
 1019MOL0     H37539   6.879   8.977   7.147  1.0222  0.0485  3.1454
 1019MOL0     H37540   6.936   9.072   7.021 -4.0114 -0.1496 -0.3559
 1019MOL0     H37541   6.744   9.181   7.142  1.2075  2.3862 -2.9098
 1019MOL0     H37542   6.826   9.134   7.295 -0.9415 -1.6303 -0.4852
 1019MOL0     H37543   7.002   9.316   7.246  1.0297 -1.8488 -1.2836
 1019MOL0     H37544   6.842   9.379   7.260 -0.4123  1.4033  0.3619
 1019MOL0     H37545   6.994   9.333   6.991 -1.3979 -2.7428  0.8608
 1019MOL0     H37546   6.987   9.486   7.076 -0.7950  0.9624  0.6426
 1019MOL0     H37547   7.344   8.500   7.058  0.5019 -0.6395  0.7688
 1019MOL0     H37548   7.422   8.288   7.035  0.4995 -0.9539  1.7385
 1019MOL0     H37549   7.246   7.808   7.066 -0.7734  0.9287 -2.2891
 1019MOL0     H37550   7.355   7.574   7.074  0.4615 -0.1437 -0.8994
 1019MOL0     H37551   7.535   6.799   6.947  0.3726 -0.4746 -2.5982
 1019MOL0     H37552   7.303   6.814   6.817 -1.7060 -0.5687 -0.8593
 1019MOL0     H37553   6.854   6.769   6.811 -0.3667 -1.7384  0.7314
 1019MOL0     H37554   6.639   6.770   6.665 -0.1663 -2.0752 -0.0879
 1019MOL0     H37555   6.769   6.817   6.287  0.1913  1.5377  0.8560
 1019MOL0     H37556   6.649   6.725   6.218  4.3890 -0.6278 -1.1220
 1019MOL0     H37557   6.481   6.861   6.382 -2.5348  3.0797 -2.3324
 1019MOL0     H37558   6.533   6.967   6.255  0.4999  1.0383  0.3907
 1019MOL0     H37559   6.709   7.062   6.390  2.3141 -2.3336 -1.3948
 1019MOL0     H37560   6.680   6.959   6.525  1.2007 -0.3655 -0.3303
 1019MOL0     H37561   6.474   7.156   6.397 -1.7540 -1.2754 -0.5147
 1019MOL0     H37562   6.556   7.193   6.540 -1.0969  1.6997 -1.4345
 1019MOL0     H37563   6.350   6.901   6.740  1.7606  0.2502  0.3794
 1019MOL0     H37564   6.850   6.550   6.365 -2.1751 -1.1868  0.6308
 1019MOL0     H37565   7.058   6.540   6.523  0.3247 -0.5011  3.8511
 1020MOL0     O37566   4.612  10.078   8.262  0.1547  0.5992 -0.6989
 1020MOL0     C37567   4.559  10.117   8.367  0.9740 -0.0855 -0.1262
 1020MOL0     O37568   4.519  10.250   8.395 -0.9327  0.1720  0.8337
 1020MOL0     C37569   4.548  10.348   8.301  0.0814 -0.2549 -0.0312
 1020MOL0     C37570   4.515  10.345   8.162 -0.3812  0.0805 -0.1189
 1020MOL0     C37571   4.543  10.465   8.100  0.9331  0.2764 -0.1217
 1020MOL0     C37572   4.598  10.585   8.164 -0.2186  0.3668  0.4019
 1020MOL0     O37573   4.643  10.693   8.093 -0.5221  0.4395  0.8284
 1020MOL0     C37574   4.642  10.696   7.952  0.0354 -0.0452 -0.8240
 1020MOL0     C37575   4.687  10.838   7.900 -0.4310  0.2180  0.3605
 1020MOL0     C37576   4.593  10.952   7.944  0.1608 -0.6692  0.5546
 1020MOL0     C37577   4.643  11.077   7.877  0.2647  0.5353 -0.9088
 1020MOL0     C37578   4.573  11.094   7.739 -0.8106  0.6134 -0.6799
 1020MOL0     C37579   4.636  11.209   7.659 -0.8689 -0.6353 -0.2629
 1020MOL0     C37580   4.582  11.220   7.512 -0.4514  0.2739  0.7631
 1020MOL0     C37581   4.657  11.330   7.431  0.5553 -0.5854 -1.1548
 1020MOL0     N37582   4.625  11.325   7.291  0.2098  0.5324 -0.2469
 1020MOL0     C37583   4.499  11.364   7.245  0.7635 -0.1036 -0.2984
 1020MOL0     C37584   4.520  11.399   7.120  0.4230 -0.7799 -0.2957
 1020MOL0     C37585   4.402  11.438   7.033  0.1420 -0.0432 -0.2739
 1020MOL0     C37586   4.325  11.326   6.955 -0.3023 -0.1677  0.7459
 1020MOL0     C37587   4.256  11.241   7.063 -0.1873  0.4244  0.2330
 1020MOL0     C37588   4.146  11.164   7.004  0.1519 -0.3028  0.1854
 1020MOL0     O37589   4.094  11.076   7.104 -0.6612  0.1997 -0.3538
 1020MOL0     C37590   4.017  10.962   7.076  0.0401 -0.2397 -0.3869
 1020MOL0     C37591   3.998  10.922   6.949 -0.5066 -0.0701  0.4033
 1020MOL0     C37592   3.931  10.807   6.912  0.1249  0.1964 -0.8844
 1020MOL0     C37593   3.908  10.779   6.764  0.8276  1.1624  0.1525
 1020MOL0     C37594   3.897  10.719   7.019  0.6945  1.4083 -0.0422
 1020MOL0     C37595   3.826  10.584   6.999 -0.3854  0.0767 -0.5918
 1020MOL0     O37596   3.827  10.497   7.104  0.4211 -0.6556 -0.3889
 1020MOL0     C37597   3.804  10.361   7.095 -0.8019 -0.1181 -0.6664
 1020MOL0     C37598   3.883  10.289   7.185  0.7504  0.0599 -0.4835
 1020MOL0     C37599   3.875  10.150   7.188  1.0405  0.8989  0.9465
 1020MOL0     C37600   3.781  10.086   7.112 -0.4045 -0.6703  0.7072
 1020MOL0     O37601   3.771   9.950   7.097  0.1911 -0.5180 -0.5075
 1020MOL0     C37602   3.883   9.861   7.113 -0.0243 -0.3416  0.9419
 1020MOL0     C37603   3.851   9.716   7.075 -0.1281  0.3970 -0.2333
 1020MOL0     C37604   3.741   9.643   7.157  0.3246 -0.2656  0.1843
 1020MOL0     C37605   3.713   9.499   7.103 -0.3589  0.5089  0.4312
 1020MOL0     C37606   3.822   9.403   7.152  1.1334 -0.3991  0.6769
 1020MOL0     C37607   3.867   9.286   7.052  0.2947 -0.2821  0.3038
 1020MOL0     C37608   3.769   9.168   7.065 -0.2802  0.8355 -0.0377
 1020MOL0     C37609   3.833   9.076   7.172 -0.4947 -0.7604 -0.7011
 1020MOL0    Cl37610   3.700   8.962   7.208 -0.4319  0.2987  0.0526
 1020MOL0     C37611   3.700  10.159   7.020 -0.5730 -0.0712 -0.1450
 1020MOL0     C37612   3.703  10.298   7.014  0.0817 -0.5846  0.3688
 1020MOL0     O37613   3.763  10.568   6.894  0.0694  0.1438  1.4566
 1020MOL0     C37614   3.911  10.755   7.154 -0.3763 -0.0542 -0.0479
 1020MOL0     C37615   3.971  10.887   7.180 -0.6588  1.2222  0.1456
 1020MOL0     N37616   4.659  11.407   7.092 -0.0500  0.2641 -0.4791
 1020MOL0     N37617   4.722  11.357   7.193  0.3379  0.2425 -0.2949
 1020MOL0     C37618   4.612  10.581   8.289  0.9061  0.5415  0.1851
 1020MOL0     C37619   4.596  10.465   8.362  0.9285 -0.0869  0.0235
 1020MOL0     C37620   4.517  10.017   8.471 -0.4810 -1.0361 -0.6137
 1020MOL0     C37621   4.560   9.888   8.464 -0.1346 -0.2987 -0.2942
 1020MOL0     C37622   4.526   9.795   8.571 -0.0057 -0.0561  0.7530
 1020MOL0     C37623   4.444   9.825   8.673  0.4805  0.1136 -0.6802
 1020MOL0     O37624   4.396   9.726   8.759  0.1095  0.0279 -0.1327
 1020MOL0     C37625   4.270   9.761   8.826  0.4654 -0.0099  0.4625
 1020MOL0     C37626   4.192   9.636   8.876 -0.3541 -0.4759 -0.1604
 1020MOL0     C37627   4.064   9.669   8.967  0.4647  0.4137  0.6560
 1020MOL0     C37628   3.977   9.543   9.005  0.4964  0.1127 -0.0114
 1020MOL0     C37629   4.053   9.476   9.111  0.0581 -0.4210  0.0535
 1020MOL0     C37630   4.122   9.427   9.194 -0.8638 -0.0931 -0.9334
 1020MOL0     C37631   4.391   9.958   8.676  0.2695  0.1676 -0.1132
 1020MOL0     C37632   4.432  10.049   8.577  0.0448  0.1791  0.6005
 1020MOL0     H37633   4.466  10.262   8.111 -1.9951  0.6197  0.4923
 1020MOL0     H37634   4.527  10.471   7.993 -2.2907 -1.7582  0.1054
 1020MOL0     H37635   4.700  10.615   7.906  0.2037 -0.7739  0.6160
 1020MOL0     H37636   4.540  10.679   7.917 -0.6502 -3.3889  2.2293
 1020MOL0     H37637   4.789  10.856   7.934  0.3343 -0.3549 -1.4589
 1020MOL0     H37638   4.687  10.834   7.790 -2.1805 -2.0092  0.3535
 1020MOL0     H37639   4.492  10.932   7.907  0.7044  0.9563 -2.0561
 1020MOL0     H37640   4.603  10.962   8.053  2.9354  0.9214  0.2484
 1020MOL0     H37641   4.602  11.155   7.941 -3.4209 -0.9034 -1.2844
 1020MOL0     H37642   4.750  11.061   7.859  0.4516 -2.7279  2.0336
 1020MOL0     H37643   4.601  11.000   7.690  0.0199  0.5754 -0.1682
 1020MOL0     H37644   4.464  11.097   7.738 -0.8007  1.7517 -2.5619
 1020MOL0     H37645   4.603  11.298   7.714 -1.2851  0.3441 -2.0119
 1020MOL0     H37646   4.745  11.206   7.649 -0.9631 -2.7024 -1.2678
 1020MOL0     H37647   4.574  11.126   7.456 -0.9653  0.8619 -0.1754
 1020MOL0     H37648   4.474  11.239   7.514 -0.8835 -1.7893  0.4602
 1020MOL0     H37649   4.760  11.299   7.452 -0.0166 -0.4391  2.6125
 1020MOL0     H37650   4.637  11.432   7.464  2.9843 -0.1231 -0.9082
 1020MOL0     H37651   4.398  11.361   7.285 -0.7421 -0.2288 -3.7158
 1020MOL0     H37652   4.328  11.505   7.077 -0.7458  1.0933 -3.2489
 1020MOL0     H37653   4.447  11.499   6.954 -1.3543  1.4187 -0.0549
 1020MOL0     H37654   4.394  11.271   6.889 -0.1669  0.8002  0.0620
 1020MOL0     H37655   4.243  11.364   6.893  0.4179 -3.3483 -2.5622
 1020MOL0     H37656   4.214  11.309   7.138  0.4172 -0.0023  0.9756
 1020MOL0     H37657   4.321  11.169   7.113 -0.2107 -0.5377 -1.0602
 1020MOL0     H37658   4.194  11.093   6.935  0.4427  0.3665 -0.3103
 1020MOL0     H37659   4.057  11.211   6.962 -3.2543 -3.0727  3.6207
 1020MOL0     H37660   4.027  10.993   6.872 -3.0680  0.7356  0.0740
 1020MOL0     H37661   3.942  10.864   6.705  2.0196  1.7689  1.6378
 1020MOL0     H37662   3.967  10.692   6.732  2.2153  2.1466 -0.0410
 1020MOL0     H37663   3.800  10.761   6.752  0.0472  2.6162  3.7240
 1020MOL0     H37664   3.936  10.353   7.254  1.3092 -2.5371  1.6543
 1020MOL0     H37665   3.950  10.096   7.245  0.5390 -0.9118 -0.0087
 1020MOL0     H37666   3.959   9.897   7.043 -1.9585  0.1966 -0.9893
 1020MOL0     H37667   3.918   9.865   7.217  0.6643 -0.7060  0.7300
 1020MOL0     H37668   3.839   9.715   6.967  1.1432 -1.9723 -0.4164
 1020MOL0     H37669   3.946   9.662   7.082  0.9951  2.3074  0.3950
 1020MOL0     H37670   3.654   9.705   7.133  1.2895  1.6273  1.3827
 1020MOL0     H37671   3.764   9.645   7.264 -0.1900  1.5415  0.3001
 1020MOL0     H37672   3.620   9.467   7.151 -0.9188 -0.5721 -1.2925
 1020MOL0     H37673   3.695   9.500   6.995  1.0603  1.1977  0.1831
 1020MOL0     H37674   3.789   9.351   7.243 -0.6071 -0.3964  0.0694
 1020MOL0     H37675   3.910   9.462   7.181  1.4875 -0.1246 -0.9021
 1020MOL0     H37676   3.884   9.312   6.947  1.3548 -0.4105  0.4263
 1020MOL0     H37677   3.968   9.247   7.072  1.0534  1.3064 -0.2594
 1020MOL0     H37678   3.766   9.106   6.975 -2.7901  0.2436  0.3952
 1020MOL0     H37679   3.673   9.212   7.091 -0.0241  0.2885  1.9888
 1020MOL0     H37680   3.866   9.122   7.266  1.5854 -1.7540 -0.8911
 1020MOL0     H37681   3.921   9.032   7.124 -0.0014 -0.7727  0.1891
 1020MOL0     H37682   3.634  10.098   6.958 -1.1601 -1.1131  1.4502
 1020MOL0     H37683   3.641  10.350   6.943  0.2831  1.3625  1.5505
 1020MOL0     H37684   3.874  10.686   7.229  0.9354 -1.3364 -0.5391
 1020MOL0     H37685   3.990  10.926   7.280  2.8874 -1.4041  0.7259
 1020MOL0     H37686   4.655  10.669   8.335  0.3543  1.1246 -0.3920
 1020MOL0     H37687   4.609  10.466   8.470 -0.9551 -1.1176  0.2952
 1020MOL0     H37688   4.629   9.855   8.388  1.6655 -0.3826  1.3010
 1020MOL0     H37689   4.567   9.695   8.562  1.0285  0.3056  1.2498
 1020MOL0     H37690   4.287   9.837   8.903 -2.2631 -0.4758  1.6545
 1020MOL0     H37691   4.203   9.800   8.749  1.0095  1.1261  0.5376
 1020MOL0     H37692   4.265   9.580   8.934  1.2154  4.3247  3.2023
 1020MOL0     H37693   4.151   9.567   8.801 -3.5969 -1.7467  2.5148
 1020MOL0     H37694   3.998   9.736   8.911  1.5595 -0.1282 -1.3868
 1020MOL0     H37695   4.093   9.714   9.063 -4.3007  1.6311  1.7958
 1020MOL0     H37696   3.943   9.488   8.917 -1.2798 -0.1262  0.7908
 1020MOL0     H37697   3.887   9.588   9.047  1.6274  2.0072  0.5046
 1020MOL0     H37698   4.190   9.397   9.271  0.7939 -0.6938 -2.5240
 1020MOL0     H37699   4.316   9.994   8.745  0.6398 -1.4499  1.1913
 1020MOL0     H37700   4.367  10.136   8.586 -0.9722 -0.4212 -0.5218
 1021MOL0     O37701   0.676   9.525   9.784  0.0621 -0.0442 -0.1684
 1021MOL0     C37702   0.691   9.595   9.686  0.4665  0.4554  0.6863
 1021MOL0     O37703   0.781   9.698   9.679 -0.0379 -0.0832 -0.8109
 1021MOL0     C37704   0.902   9.681   9.745 -0.1876 -0.3747  0.2118
 1021MOL0     C37705   1.014   9.626   9.681  0.0548  1.3257  0.7376
 1021MOL0     C37706   1.127   9.616   9.756 -0.4578  0.4374  0.8304
 1021MOL0     C37707   1.144   9.666   9.892 -0.4507  1.1118  0.9871
 1021MOL0     O37708   1.270   9.645   9.949  0.2314 -0.2314  0.0745
 1021MOL0     C37709   1.269   9.639  10.096  0.2414 -0.1898  0.1259
 1021MOL0     C37710   1.404   9.575  10.138 -0.7377 -0.0560  0.5312
 1021MOL0     C37711   1.406   9.542  10.297 -0.7931 -0.9469  0.9666
 1021MOL0     C37712   1.550   9.554  10.365 -0.0943 -0.4797 -0.3903
 1021MOL0     C37713   1.540   9.522  10.506 -0.7442  0.3948 -0.5284
 1021MOL0     C37714   1.683   9.495  10.566 -0.5771  0.2395 -0.2110
 1021MOL0     C37715   1.688   9.506  10.727  0.1221  0.3857  0.5720
 1021MOL0     C37716   1.659   9.654  10.772 -0.4703  0.8171 -0.9072
 1021MOL0     N37717   1.732   9.744  10.679 -0.2363  0.3680 -0.2364
 1021MOL0     C37718   1.868   9.762  10.678  0.3793  0.3173  0.6520
 1021MOL0     C37719   1.894   9.828  10.561  0.4708 -0.6475 -0.1810
 1021MOL0     C37720   2.030   9.881  10.532 -0.7614  0.4168 -1.0666
 1021MOL0     C37721   2.049   9.924  10.389  0.5168  0.2661  1.1815
 1021MOL0     C37722   2.192   9.963  10.355 -0.9889 -0.0654 -0.3931
 1021MOL0     C37723   2.291   9.850  10.399 -0.4695  0.2823  0.4925
 1021MOL0     O37724   2.238   9.720  10.377  0.0267  0.6310  0.7016
 1021MOL0     C37725   2.298   9.618  10.453  0.2022 -0.6427 -0.0493
 1021MOL0     C37726   2.221   9.519  10.496 -0.1743  0.2664  0.4182
 1021MOL0     C37727   2.268   9.411  10.571  0.6702  0.5929 -0.3204
 1021MOL0     C37728   2.154   9.315  10.606  0.6191 -0.4219 -0.0024
 1021MOL0     C37729   2.395   9.409  10.616  0.9573  0.0638  0.1573
 1021MOL0     C37730   2.440   9.293  10.689  0.2141 -0.2181  0.1863
 1021MOL0     O37731   2.403   9.175  10.651 -0.0761  0.6152  0.3855
 1021MOL0     C37732   2.422   9.068  10.735  0.4358  0.6486 -0.8373
 1021MOL0     C37733   2.528   8.975  10.719 -0.0609 -0.9941  0.3588
 1021MOL0     C37734   2.544   8.867  10.791 -0.2968  0.5819 -0.5967
 1021MOL0     C37735   2.433   8.825  10.874 -0.5972  0.4411 -0.1830
 1021MOL0     O37736   2.442   8.707  10.937 -0.0969  0.3370 -0.5273
 1021MOL0     C37737   2.562   8.683  11.014 -0.1995 -0.7804  0.3227
 1021MOL0     C37738   2.558   8.549  11.082 -0.4667  0.1321 -0.1911
 1021MOL0     C37739   2.681   8.538  11.181  0.3721  0.2157  0.4351
 1021MOL0     C37740   2.724   8.392  11.207  0.1797  0.2728  0.0585
 1021MOL0     C37741   2.613   8.324  11.284  0.0135  0.0676  0.7404
 1021MOL0     C37742   2.646   8.184  11.342  0.0157 -0.3479 -0.4238
 1021MOL0     C37743   2.535   8.138  11.445 -0.1709 -0.2185  0.5140
 1021MOL0     C37744   2.561   7.991  11.487  0.9503  0.9250  0.2074
 1021MOL0    Cl37745   2.706   7.970  11.586  0.1207 -0.1190 -0.2005
 1021MOL0     C37746   2.325   8.907  10.892  0.2818 -0.5876 -0.5714
 1021MOL0     C37747   2.321   9.032  10.822  0.1893  0.4513  0.3729
 1021MOL0     O37748   2.503   9.312  10.789 -0.6172 -0.8929  0.3002
 1021MOL0     C37749   2.481   9.520  10.587  0.5578  0.0922  0.4700
 1021MOL0     C37750   2.433   9.619  10.496  0.1062  0.7034 -0.1894
 1021MOL0     N37751   1.782   9.866  10.495  0.0439 -0.5462 -0.4630
 1021MOL0     N37752   1.687   9.819  10.571  0.4231  0.6418 -1.3364
 1021MOL0     C37753   1.032   9.739   9.940  0.0211 -0.0572 -0.0595
 1021MOL0     C37754   0.915   9.745   9.865  0.6236  0.3872 -1.3712
 1021MOL0     C37755   0.618   9.558   9.559  0.1105 -0.8447  0.2454
 1021MOL0     C37756   0.517   9.458   9.568 -0.8947 -0.5753  0.8784
 1021MOL0     C37757   0.456   9.424   9.447  0.5049  0.1694  0.0131
 1021MOL0     C37758   0.495   9.482   9.322 -0.0198  0.5954  0.4408
 1021MOL0     O37759   0.444   9.429   9.211 -0.2677 -0.2632 -0.1505
 1021MOL0     C37760   0.295   9.443   9.192 -0.2033 -0.0119 -0.1284
 1021MOL0     C37761   0.263   9.403   9.055  0.0856  0.0640  0.7318
 1021MOL0     C37762   0.357   9.470   8.962  0.5113 -0.4415  1.2794
 1021MOL0     C37763   0.459   9.370   8.906 -1.2217  0.9465  0.3377
 1021MOL0     C37764   0.553   9.425   8.805 -0.6738 -0.2453 -0.0343
 1021MOL0     C37765   0.628   9.460   8.723  0.6942  0.5933  0.4781
 1021MOL0     C37766   0.587   9.580   9.318 -0.8133  0.1704  0.8188
 1021MOL0     C37767   0.645   9.621   9.433  0.3609 -0.0204  0.6911
 1021MOL0     H37768   1.004   9.587   9.580 -3.3684  2.4334  0.5283
 1021MOL0     H37769   1.219   9.582   9.709 -0.1938  2.0298  0.1334
 1021MOL0     H37770   1.258   9.741  10.135  1.4633  1.0070 -2.4097
 1021MOL0     H37771   1.197   9.565  10.130  2.0797 -1.7155  0.8909
 1021MOL0     H37772   1.432   9.488  10.078 -0.0466 -0.0672  0.8515
 1021MOL0     H37773   1.480   9.652  10.119  1.9148 -2.1960  1.6990
 1021MOL0     H37774   1.323   9.594  10.345 -0.7203  2.6506 -2.3273
 1021MOL0     H37775   1.389   9.435  10.308  0.0986 -1.1554  0.4738
 1021MOL0     H37776   1.630   9.492  10.322  0.6230 -1.1457  1.7521
 1021MOL0     H37777   1.588   9.656  10.358 -1.5269  0.0327 -1.0192
 1021MOL0     H37778   1.484   9.591  10.569  0.8267 -0.3814  1.8489
 1021MOL0     H37779   1.486   9.427  10.510 -4.0928  2.1012 -1.5663
 1021MOL0     H37780   1.711   9.394  10.535 -0.9837 -0.0364  0.2853
 1021MOL0     H37781   1.764   9.556  10.524  1.6293 -2.2878  0.0740
 1021MOL0     H37782   1.608   9.438  10.757  2.2453 -2.2902  0.5093
 1021MOL0     H37783   1.783   9.466  10.764  0.8005 -0.2398 -1.6785
 1021MOL0     H37784   1.672   9.661  10.880 -0.4893  0.8989 -0.9105
 1021MOL0     H37785   1.555   9.684  10.763 -0.9053 -0.7786 -1.5115
 1021MOL0     H37786   1.924   9.731  10.765 -0.5381 -1.2437  0.7488
 1021MOL0     H37787   2.047   9.967  10.598  0.0982  2.1087 -3.3288
 1021MOL0     H37788   2.098   9.804  10.569 -0.3946  0.9510 -0.6122
 1021MOL0     H37789   1.982  10.001  10.351  1.0858 -0.0267 -0.5077
 1021MOL0     H37790   2.015   9.837  10.332 -1.7500 -0.2592  3.1986
 1021MOL0     H37791   2.222  10.060  10.395 -0.5524  0.9872 -3.0674
 1021MOL0     H37792   2.208   9.984  10.249 -0.4235  4.2068  0.3733
 1021MOL0     H37793   2.303   9.875  10.505  1.0155  2.7692 -0.1817
 1021MOL0     H37794   2.390   9.854  10.355  0.9605  2.1836  3.5485
 1021MOL0     H37795   2.120   9.529  10.456  0.4580 -0.9272 -1.6709
 1021MOL0     H37796   2.154   9.270  10.706 -1.6023 -3.4291 -1.1917
 1021MOL0     H37797   2.056   9.362  10.594  1.2816  1.0816  0.2680
 1021MOL0     H37798   2.160   9.229  10.538 -1.3479 -1.7350  1.3803
 1021MOL0     H37799   2.606   8.996  10.648 -0.3681  0.9720  0.5630
 1021MOL0     H37800   2.632   8.807  10.771 -1.6532 -2.0993  0.8749
 1021MOL0     H37801   2.655   8.685  10.957  1.0137  1.2180  2.2370
 1021MOL0     H37802   2.562   8.759  11.092 -2.3273  2.2942 -2.4235
 1021MOL0     H37803   2.463   8.531  11.132  0.7452 -1.0375  1.7956
 1021MOL0     H37804   2.565   8.463  11.015 -0.1127 -0.7761  0.9931
 1021MOL0     H37805   2.650   8.589  11.272  1.4648  2.0770 -0.1626
 1021MOL0     H37806   2.766   8.598  11.145 -0.7277  1.8939  0.5250
 1021MOL0     H37807   2.741   8.341  11.111  3.6224  0.5155  0.4213
 1021MOL0     H37808   2.820   8.383  11.259  0.4377  3.0895  0.1916
 1021MOL0     H37809   2.529   8.322  11.215  0.1986 -0.8630  0.5330
 1021MOL0     H37810   2.589   8.402  11.357  0.6278  2.7974 -1.7676
 1021MOL0     H37811   2.664   8.111  11.263 -0.2026 -1.1191  0.2221
 1021MOL0     H37812   2.734   8.201  11.404 -1.1759  0.2059  1.1802
 1021MOL0     H37813   2.439   8.151  11.395 -0.0696  0.6204  0.5137
 1021MOL0     H37814   2.544   8.209  11.528 -2.7955  1.7191 -0.7168
 1021MOL0     H37815   2.551   7.916  11.408  0.8831  0.0521  1.0208
 1021MOL0     H37816   2.483   7.954  11.554  1.6341  1.5642  1.3848
 1021MOL0     H37817   2.250   8.875  10.964  0.9889  1.6254  1.2702
 1021MOL0     H37818   2.234   9.095  10.837  0.5231  1.8624 -2.8078
 1021MOL0     H37819   2.584   9.525  10.621 -0.0485 -0.8284  2.5630
 1021MOL0     H37820   2.489   9.705  10.458  1.4204 -0.7366 -1.6685
 1021MOL0     H37821   1.026   9.782  10.039 -1.6155 -1.1167  0.3427
 1021MOL0     H37822   0.827   9.783   9.915  0.4728 -2.3996  0.7232
 1021MOL0     H37823   0.486   9.410   9.661 -1.0656 -0.8094  0.7047
 1021MOL0     H37824   0.377   9.349   9.446  0.2225  0.4308  1.3071
 1021MOL0     H37825   0.235   9.372   9.249  2.1490 -1.9502  0.1255
 1021MOL0     H37826   0.272   9.546   9.220  1.2468 -0.0495  1.3581
 1021MOL0     H37827   0.160   9.421   9.022  0.3937 -0.7101 -0.6988
 1021MOL0     H37828   0.275   9.296   9.040  0.3590  0.5294 -3.7227
 1021MOL0     H37829   0.405   9.565   8.985  2.2963 -1.3257  1.4397
 1021MOL0     H37830   0.295   9.495   8.875  0.8118 -2.1304  0.5203
 1021MOL0     H37831   0.413   9.282   8.861 -0.2063 -0.1597  1.3831
 1021MOL0     H37832   0.514   9.332   8.993 -1.5733 -1.1852 -0.3136
 1021MOL0     H37833   0.689   9.487   8.638  0.7445 -1.4972 -0.2235
 1021MOL0     H37834   0.618   9.646   9.238 -0.0729  0.1988  1.1233
 1021MOL0     H37835   0.724   9.695   9.432  3.8141 -3.3809  0.4836
 1022MOL0     O37836   2.398  11.309   2.080 -0.1467 -0.1676 -0.0524
 1022MOL0     C37837   2.462  11.278   1.978 -0.2272  0.3725 -0.8628
 1022MOL0     O37838   2.507  11.155   1.949  0.9097  0.7111  0.0084
 1022MOL0     C37839   2.525  11.067   2.053 -0.7274  0.9320  0.1623
 1022MOL0     C37840   2.654  11.046   2.105  0.5021  0.5615 -0.0450
 1022MOL0     C37841   2.680  10.968   2.217 -0.0778  0.2941 -1.0162
 1022MOL0     C37842   2.572  10.897   2.276 -0.5805  0.0076 -1.6378
 1022MOL0     O37843   2.608  10.795   2.364 -0.8850  0.5251 -1.2359
 1022MOL0     C37844   2.496  10.738   2.432 -0.3567 -0.9037 -1.1071
 1022MOL0     C37845   2.542  10.651   2.542 -0.4381  0.1470  0.7663
 1022MOL0     C37846   2.501  10.506   2.512  0.0499 -0.5863 -0.3498
 1022MOL0     C37847   2.509  10.414   2.630 -0.1317  0.1547 -0.0261
 1022MOL0     C37848   2.469  10.273   2.581 -0.7790  0.4055 -0.3882
 1022MOL0     C37849   2.510  10.181   2.692  0.0955 -0.7942 -0.3038
 1022MOL0     C37850   2.430  10.056   2.691  0.4372  0.1684  0.1344
 1022MOL0     C37851   2.291  10.078   2.753 -0.5014  0.4375  0.0332
 1022MOL0     N37852   2.297  10.110   2.897 -0.8857  0.3785  0.4534
 1022MOL0     C37853   2.358  10.035   2.995  0.1893 -0.4178  0.5484
 1022MOL0     C37854   2.330  10.095   3.112 -0.4911  0.6449 -0.2926
 1022MOL0     C37855   2.384  10.054   3.247  0.2574 -0.1563  0.6511
 1022MOL0     C37856   2.486  10.160   3.291  0.7835 -0.3302  0.0544
 1022MOL0     C37857   2.571  10.110   3.402  0.5611  0.3891  0.5238
 1022MOL0     C37858   2.645  10.226   3.468  0.4975  0.3026 -0.3491
 1022MOL0     O37859   2.742  10.172   3.549  0.0365 -0.3556  0.1401
 1022MOL0     C37860   2.801  10.254   3.638 -0.9394  0.2471 -0.7363
 1022MOL0     C37861   2.824  10.391   3.619 -0.2534  0.4313 -0.2350
 1022MOL0     C37862   2.878  10.482   3.722 -0.3838 -0.3427 -0.2673
 1022MOL0     C37863   2.877  10.633   3.695  0.0598 -0.5477  0.6255
 1022MOL0     C37864   2.906  10.411   3.844  0.7580 -0.6136 -0.4457
 1022MOL0     C37865   2.946  10.482   3.963  0.3849  0.1336  0.0605
 1022MOL0     O37866   3.071  10.447   4.000 -0.2999 -0.3397  0.1053
 1022MOL0     C37867   3.144  10.493   4.104 -0.6703  0.5273  0.0126
 1022MOL0     C37868   3.216  10.606   4.103 -0.2815 -0.1638 -0.0755
 1022MOL0     C37869   3.302  10.643   4.203 -0.1517  0.9461 -0.3363
 1022MOL0     C37870   3.314  10.557   4.315  0.0652 -0.1315  0.4565
 1022MOL0     O37871   3.381  10.594   4.430 -0.4559 -0.7411  0.5541
 1022MOL0     C37872   3.339  10.715   4.481 -0.4960 -0.7745  0.0315
 1022MOL0     C37873   3.377  10.740   4.634  0.2062 -0.3272  0.8166
 1022MOL0     C37874   3.300  10.647   4.728  0.3920  0.4015  0.8673
 1022MOL0     C37875   3.173  10.712   4.788  0.6270 -0.5278 -0.0346
 1022MOL0     C37876   3.091  10.619   4.884  0.0657 -0.0780  0.4764
 1022MOL0     C37877   2.946  10.663   4.902 -0.8390  0.6247 -0.8072
 1022MOL0     C37878   2.888  10.561   5.003  0.9371  0.7203 -1.7047
 1022MOL0     C37879   2.739  10.595   5.033 -0.0933  0.1706 -0.7202
 1022MOL0    Cl37880   2.716  10.759   5.116 -0.5390 -0.0266 -0.0099
 1022MOL0     C37881   3.231  10.447   4.327  0.8402  0.5060 -1.0429
 1022MOL0     C37882   3.146  10.412   4.223  0.2939  0.1402 -0.2224
 1022MOL0     O37883   2.875  10.568   4.023 -0.0948  0.0434  0.5128
 1022MOL0     C37884   2.899  10.267   3.859  0.4591 -0.4567  0.6914
 1022MOL0     C37885   2.850  10.188   3.756 -0.0062 -0.0674  0.5341
 1022MOL0     N37886   2.253  10.200   3.091  0.3524  0.1384  0.5560
 1022MOL0     N37887   2.221  10.200   2.965  0.1748 -0.0495  0.0280
 1022MOL0     C37888   2.449  10.924   2.234  0.5407  0.1816  0.5136
 1022MOL0     C37889   2.420  10.995   2.117  0.0054  0.1596  0.4678
 1022MOL0     C37890   2.499  11.392   1.892 -0.4023 -0.2001 -0.1963
 1022MOL0     C37891   2.548  11.370   1.757 -0.3729 -0.1026  0.2992
 1022MOL0     C37892   2.561  11.478   1.677 -0.1932 -0.3529 -0.4463
 1022MOL0     C37893   2.531  11.611   1.718  0.6587 -1.2797 -0.1506
 1022MOL0     O37894   2.514  11.724   1.635  0.4060 -0.5202  0.7131
 1022MOL0     C37895   2.577  11.730   1.508 -0.0654  0.1188  0.2203
 1022MOL0     C37896   2.496  11.683   1.394  0.2177 -0.0073  0.2006
 1022MOL0     C37897   2.410  11.789   1.324 -0.1880 -0.4800 -0.1207
 1022MOL0     C37898   2.329  11.729   1.216 -0.2349  1.1049  0.0842
 1022MOL0     C37899   2.225  11.815   1.155 -0.5963 -0.6912  0.1457
 1022MOL0     C37900   2.136  11.887   1.116 -0.7982  0.3875  0.2978
 1022MOL0     C37901   2.502  11.627   1.855  0.7244 -0.1711  0.2544
 1022MOL0     C37902   2.479  11.522   1.941 -0.2267 -0.4332  0.2285
 1022MOL0     H37903   2.742  11.087   2.057  1.4173  0.8751  1.8071
 1022MOL0     H37904   2.783  10.961   2.250 -0.8851 -0.6147  1.5012
 1022MOL0     H37905   2.433  10.810   2.486  0.5720 -0.4251 -0.6489
 1022MOL0     H37906   2.426  10.698   2.358 -2.2444 -0.7456  0.4943
 1022MOL0     H37907   2.651  10.662   2.553  0.0408  0.7839 -3.0371
 1022MOL0     H37908   2.493  10.681   2.635 -3.3899  0.0076 -0.6232
 1022MOL0     H37909   2.400  10.504   2.472 -0.6906  2.0385  1.0941
 1022MOL0     H37910   2.565  10.472   2.430 -0.5986 -4.9499  0.7516
 1022MOL0     H37911   2.614  10.420   2.662 -0.8840 -0.2929  2.7277
 1022MOL0     H37912   2.438  10.440   2.709 -1.7263 -2.2593 -0.5657
 1022MOL0     H37913   2.365  10.268   2.545 -0.4731  1.5101 -1.4881
 1022MOL0     H37914   2.529  10.250   2.493 -0.1071  2.1565 -0.4192
 1022MOL0     H37915   2.619  10.165   2.688  0.1150 -0.9079  0.5819
 1022MOL0     H37916   2.489  10.224   2.790 -1.9212 -2.1476 -0.0902
 1022MOL0     H37917   2.432  10.008   2.593 -2.6815 -1.6073  0.7834
 1022MOL0     H37918   2.487   9.989   2.757  3.2726  0.9927 -1.3542
 1022MOL0     H37919   2.246   9.979   2.749  0.7161 -0.1960  1.2359
 1022MOL0     H37920   2.232  10.149   2.693 -1.8590 -1.3796 -0.8834
 1022MOL0     H37921   2.425   9.951   2.984 -0.4606 -0.9703  0.7711
 1022MOL0     H37922   2.305  10.056   3.323 -0.1914 -0.1980  0.1838
 1022MOL0     H37923   2.427   9.954   3.259  0.8990 -0.1549 -1.3711
 1022MOL0     H37924   2.434  10.252   3.319  0.7613 -0.8998  2.0217
 1022MOL0     H37925   2.551  10.189   3.207  5.3826  0.5932  3.5092
 1022MOL0     H37926   2.648  10.053   3.350 -0.9111  1.4751 -3.2452
 1022MOL0     H37927   2.513  10.060   3.480 -1.3817 -0.7976 -1.5726
 1022MOL0     H37928   2.572  10.280   3.529 -2.5972 -2.0089 -1.7153
 1022MOL0     H37929   2.689  10.301   3.401 -0.1584  0.8612 -0.1655
 1022MOL0     H37930   2.795  10.431   3.523  2.2283 -1.5555 -1.9783
 1022MOL0     H37931   2.810  10.647   3.610  0.1641 -1.5207  0.3740
 1022MOL0     H37932   2.855  10.697   3.781  2.2182 -3.9777  4.0365
 1022MOL0     H37933   2.977  10.655   3.658 -0.0230 -4.5600 -2.6500
 1022MOL0     H37934   3.195  10.673   4.020 -0.3393  0.3225  0.3247
 1022MOL0     H37935   3.352  10.740   4.196  0.9157  0.3774 -0.7886
 1022MOL0     H37936   3.379  10.801   4.426 -0.2631 -1.2712 -0.5873
 1022MOL0     H37937   3.232  10.734   4.472  0.0962  3.5541 -0.1504
 1022MOL0     H37938   3.485  10.727   4.639  0.3958  1.3914  2.2620
 1022MOL0     H37939   3.361  10.846   4.655 -1.8924 -0.3666 -0.2576
 1022MOL0     H37940   3.380  10.627   4.801  1.6073  1.5166 -0.0987
 1022MOL0     H37941   3.278  10.558   4.668  3.0343 -0.8990  1.6717
 1022MOL0     H37942   3.210  10.800   4.841  0.0248 -1.3751  1.8674
 1022MOL0     H37943   3.102  10.737   4.709 -0.1965 -0.3805  0.7426
 1022MOL0     H37944   3.146  10.625   4.978 -1.7686  0.2273  1.5633
 1022MOL0     H37945   3.093  10.516   4.846 -1.7065 -1.1886  3.0712
 1022MOL0     H37946   2.929  10.753   4.962 -2.1859 -2.1190  3.3723
 1022MOL0     H37947   2.896  10.688   4.808 -3.3639  3.2806  1.0977
 1022MOL0     H37948   2.933  10.572   5.102 -1.9527 -0.8959 -0.0875
 1022MOL0     H37949   2.899  10.456   4.974  2.4081 -0.9968  3.8901
 1022MOL0     H37950   2.687  10.514   5.087  2.3380 -0.0835  1.4234
 1022MOL0     H37951   2.686  10.601   4.938 -1.6167 -0.6353  0.0316
 1022MOL0     H37952   3.228  10.383   4.415 -1.8489 -0.0655 -1.4464
 1022MOL0     H37953   3.093  10.319   4.206  0.6873  0.2179 -2.0001
 1022MOL0     H37954   2.943  10.209   3.939  0.2111  1.5922  2.3974
 1022MOL0     H37955   2.857  10.080   3.753  1.9156  0.0457 -0.2682
 1022MOL0     H37956   2.364  10.872   2.277 -0.2185  2.4109  1.8880
 1022MOL0     H37957   2.320  11.001   2.074  0.8877 -0.3567 -1.7767
 1022MOL0     H37958   2.553  11.268   1.718 -3.9399 -0.7581  1.2303
 1022MOL0     H37959   2.584  11.461   1.572 -2.3138 -0.8092 -0.8707
 1022MOL0     H37960   2.604  11.832   1.478  1.4240 -0.5395 -0.8052
 1022MOL0     H37961   2.667  11.669   1.505  0.8863  1.5066 -1.9777
 1022MOL0     H37962   2.433  11.601   1.431 -3.5862  3.3026  1.7892
 1022MOL0     H37963   2.572  11.654   1.321 -1.6420  1.0786 -2.3160
 1022MOL0     H37964   2.468  11.871   1.280  2.7988 -1.6255  1.4697
 1022MOL0     H37965   2.338  11.828   1.397  0.7325 -0.1176  0.6071
 1022MOL0     H37966   2.266  11.653   1.263  0.4028 -0.1574 -1.0389
 1022MOL0     H37967   2.387  11.670   1.144 -4.0054 -0.6413 -1.7986
 1022MOL0     H37968   2.061  11.943   1.064 -2.6475 -1.8465  0.3995
 1022MOL0     H37969   2.472  11.724   1.892  2.3303  0.0472  1.0594
 1022MOL0     H37970   2.452  11.530   2.045  1.0758 -2.9654  0.8307
 1023MOL0     O37971  11.467   5.232   6.926 -0.0750 -0.2489 -0.1175
 1023MOL0     C37972  11.421   5.213   6.817 -0.9452  1.0531 -0.3267
 1023MOL0     O37973  11.290   5.239   6.780 -0.2872  0.4248 -0.2854
 1023MOL0     C37974  11.200   5.326   6.839  0.9878  0.0900 -0.0870
 1023MOL0     C37975  11.072   5.331   6.779 -0.0418  0.5772 -0.2810
 1023MOL0     C37976  10.972   5.416   6.832 -0.0926 -0.0555  0.3419
 1023MOL0     C37977  10.987   5.482   6.956 -0.3367  0.3931 -0.7854
 1023MOL0     O37978  10.891   5.570   6.999  0.1915 -0.1845 -0.2653
 1023MOL0     C37979  10.882   5.597   7.137 -0.8852 -0.4615 -0.6102
 1023MOL0     C37980  10.787   5.715   7.152  0.6409  0.2134 -0.0059
 1023MOL0     C37981  10.882   5.843   7.139  0.3872 -0.2275 -0.6628
 1023MOL0     C37982  10.797   5.971   7.118 -0.0485 -0.4729  0.3757
 1023MOL0     C37983  10.899   6.089   7.126  0.2036  0.8696  0.2795
 1023MOL0     C37984  10.835   6.224   7.087  0.0720  0.7941  0.4234
 1023MOL0     C37985  10.940   6.341   7.050  0.0824 -0.1210  0.2373
 1023MOL0     C37986  10.870   6.477   7.028 -0.1313 -0.2112  0.3745
 1023MOL0     N37987  10.971   6.580   7.043 -0.2194 -0.0086 -0.0113
 1023MOL0     C37988  11.059   6.615   6.936  0.0358 -0.0007 -0.1220
 1023MOL0     C37989  11.137   6.715   6.995 -0.2987  0.6153 -0.4569
 1023MOL0     C37990  11.255   6.769   6.924 -1.2633  0.4185  0.3147
 1023MOL0     C37991  11.239   6.919   6.898 -0.1465  0.6435 -0.2256
 1023MOL0     C37992  11.257   6.969   6.749 -0.1560 -0.6477 -0.3993
 1023MOL0     C37993  11.226   7.116   6.742  0.1872  0.1603  0.2861
 1023MOL0     O37994  11.341   7.202   6.776  0.6584 -0.7723 -0.6266
 1023MOL0     C37995  11.411   7.270   6.675  0.1341 -0.2741 -0.5368
 1023MOL0     C37996  11.350   7.372   6.596  0.1275  0.1902  0.4465
 1023MOL0     C37997  11.413   7.450   6.498 -0.1294 -0.6307  0.0681
 1023MOL0     C37998  11.332   7.560   6.430 -0.2635 -0.6329 -0.4204
 1023MOL0     C37999  11.558   7.415   6.479 -0.2559 -0.1769  0.2254
 1023MOL0     C38000  11.646   7.475   6.357 -0.2678 -1.4742  0.0299
 1023MOL0     O38001  11.588   7.594   6.298  0.7597 -0.1581  0.7422
 1023MOL0     C38002  11.657   7.681   6.221 -0.9236  0.0874  1.3210
 1023MOL0     C38003  11.628   7.819   6.235  0.7558 -0.2844  0.0687
 1023MOL0     C38004  11.677   7.910   6.134 -0.3517  0.6081 -0.7399
 1023MOL0     C38005  11.772   7.874   6.040 -0.9683 -0.0288 -0.2444
 1023MOL0     O38006  11.811   7.949   5.934 -0.1668  0.2205 -0.7643
 1023MOL0     C38007  11.748   8.077   5.919  0.0202 -0.0350 -0.2301
 1023MOL0     C38008  11.787   8.133   5.784 -0.5869 -0.6952  0.8559
 1023MOL0     C38009  11.718   8.058   5.665 -0.3613 -0.9685  0.5437
 1023MOL0     C38010  11.710   8.152   5.540  0.5061  0.7228  0.1765
 1023MOL0     C38011  11.654   8.078   5.429 -0.6735  1.4201 -0.0433
 1023MOL0     C38012  11.509   8.027   5.451 -0.5657 -0.3753  0.3722
 1023MOL0     C38013  11.459   7.978   5.309 -0.7449  0.0143 -0.7609
 1023MOL0     C38014  11.317   7.939   5.312  0.4188 -0.1984  0.6208
 1023MOL0    Cl38015  11.213   8.076   5.350  0.3968  0.5899  0.0062
 1023MOL0     C38016  11.786   7.737   6.023  0.1735  0.1426  1.2502
 1023MOL0     C38017  11.735   7.640   6.115  0.2895 -0.7079  0.3323
 1023MOL0     O38018  11.758   7.430   6.327  0.2769  0.8377  0.1184
 1023MOL0     C38019  11.619   7.311   6.556 -0.1004  0.8416  0.2064
 1023MOL0     C38020  11.541   7.244   6.650 -0.6131  0.3011 -1.2058
 1023MOL0     N38021  11.099   6.732   7.123 -0.2352  0.4650  0.2071
 1023MOL0     N38022  11.003   6.655   7.151  0.3633 -0.5784 -0.1103
 1023MOL0     C38023  11.117   5.475   7.007 -0.4873 -0.0535 -0.6112
 1023MOL0     C38024  11.217   5.394   6.956  0.1350  0.0201 -0.2145
 1023MOL0     C38025  11.514   5.158   6.715 -0.3083  1.0584  0.5370
 1023MOL0     C38026  11.470   5.149   6.583 -0.5075  0.0838 -0.5244
 1023MOL0     C38027  11.542   5.084   6.483  0.4683  1.0258 -0.3773
 1023MOL0     C38028  11.663   5.037   6.517  0.0943  0.8267  0.9086
 1023MOL0     O38029  11.719   4.979   6.405 -1.4443  0.7696 -1.0595
 1023MOL0     C38030  11.682   4.843   6.384  0.1712 -0.0051  0.5571
 1023MOL0     C38031  11.767   4.755   6.482 -0.3939 -0.6825 -0.0060
 1023MOL0     C38032  11.913   4.729   6.442 -0.1891  0.3058 -0.0752
 1023MOL0     C38033  11.994   4.836   6.515  0.0841  0.1755 -0.2495
 1023MOL0     C38034  12.139   4.812   6.500  0.4136  0.1326 -0.3653
 1023MOL0     C38035  12.253   4.792   6.476 -1.3408  0.1064  0.1498
 1023MOL0     C38036  11.716   5.051   6.646 -0.2864 -0.8482 -0.9805
 1023MOL0     C38037  11.640   5.121   6.745  0.1964  0.7759 -0.7424
 1023MOL0     H38038  11.039   5.278   6.690 -1.7263  1.1003 -0.0108
 1023MOL0     H38039  10.871   5.416   6.794  0.1338  1.0342 -0.2948
 1023MOL0     H38040  10.828   5.512   7.182  0.0606  0.0787  1.7051
 1023MOL0     H38041  10.979   5.607   7.187 -1.8900 -0.5871  1.5036
 1023MOL0     H38042  10.714   5.717   7.070 -1.1912  0.7124  1.5816
 1023MOL0     H38043  10.733   5.693   7.244  2.8864 -1.5942  0.9629
 1023MOL0     H38044  10.939   5.847   7.233  0.5601 -0.7966 -0.7406
 1023MOL0     H38045  10.953   5.841   7.056 -0.6445  0.2211 -1.5805
 1023MOL0     H38046  10.742   5.975   7.024 -2.2118 -0.0254  1.5947
 1023MOL0     H38047  10.729   5.975   7.204  0.6361  0.6878  0.8928
 1023MOL0     H38048  10.935   6.092   7.229 -2.0278 -0.0600  1.1549
 1023MOL0     H38049  10.988   6.064   7.066  0.5671 -0.0450  1.1785
 1023MOL0     H38050  10.778   6.206   6.996 -0.5918  3.7613  0.1541
 1023MOL0     H38051  10.760   6.257   7.160 -2.4510  0.0168 -1.6794
 1023MOL0     H38052  11.003   6.344   7.140 -0.5437 -4.6941  1.0528
 1023MOL0     H38053  11.016   6.318   6.975 -0.8953 -1.1757 -0.4544
 1023MOL0     H38054  10.786   6.483   7.097 -1.0359 -1.7750 -0.5099
 1023MOL0     H38055  10.826   6.474   6.928  1.8941  0.5766 -0.5848
 1023MOL0     H38056  11.067   6.583   6.833  0.8795 -0.2309  0.0040
 1023MOL0     H38057  11.342   6.752   6.988  1.4844 -0.7686 -3.3778
 1023MOL0     H38058  11.256   6.709   6.832 -2.7605  0.5473  0.1795
 1023MOL0     H38059  11.315   6.974   6.955  1.6764 -0.5920 -1.3165
 1023MOL0     H38060  11.135   6.943   6.917  0.0443  2.7054 -1.5444
 1023MOL0     H38061  11.174   6.932   6.687  1.5752 -1.5967 -2.2628
 1023MOL0     H38062  11.341   6.940   6.686 -0.1802 -1.2990 -0.1364
 1023MOL0     H38063  11.155   7.138   6.821  0.0346  1.3351 -0.1635
 1023MOL0     H38064  11.191   7.139   6.641 -0.0692 -1.7053 -0.0816
 1023MOL0     H38065  11.248   7.388   6.629  0.4895  2.1235  0.7418
 1023MOL0     H38066  11.343   7.558   6.321  0.9904 -2.1022 -0.3045
 1023MOL0     H38067  11.228   7.546   6.459 -1.7058  1.8545 -3.7337
 1023MOL0     H38068  11.362   7.660   6.464  0.2666 -0.4963 -1.2694
 1023MOL0     H38069  11.565   7.859   6.314 -0.4803  0.3962 -1.2073
 1023MOL0     H38070  11.648   8.014   6.146 -0.0573  0.4091  2.8006
 1023MOL0     H38071  11.639   8.075   5.932 -0.3326  4.9958 -0.3702
 1023MOL0     H38072  11.791   8.148   5.991  1.6334 -0.8761 -0.3379
 1023MOL0     H38073  11.739   8.231   5.781 -0.7164 -0.7668  0.5421
 1023MOL0     H38074  11.893   8.148   5.759 -0.6833 -1.9878 -0.5325
 1023MOL0     H38075  11.624   8.015   5.700  0.4830 -2.1538  1.4280
 1023MOL0     H38076  11.792   7.979   5.651  0.5111 -0.7542  3.3666
 1023MOL0     H38077  11.652   8.243   5.555  0.8154  1.0518 -0.5804
 1023MOL0     H38078  11.814   8.173   5.515  0.5489  1.4333  0.9046
 1023MOL0     H38079  11.709   7.989   5.398 -2.4477  0.5683 -0.8674
 1023MOL0     H38080  11.650   8.147   5.345  1.5331 -0.5116 -1.8748
 1023MOL0     H38081  11.508   7.941   5.519  0.5661 -1.8475 -1.3904
 1023MOL0     H38082  11.454   8.113   5.491 -0.9570 -0.1185 -0.6849
 1023MOL0     H38083  11.527   7.899   5.274 -1.2912 -0.9943  0.3928
 1023MOL0     H38084  11.472   8.057   5.234 -0.5525  1.2013  0.5019
 1023MOL0     H38085  11.296   7.865   5.389 -0.5149 -3.3246 -2.3776
 1023MOL0     H38086  11.293   7.890   5.217 -0.1807 -1.4829  1.4089
 1023MOL0     H38087  11.840   7.700   5.937 -0.2266 -0.8601  1.4168
 1023MOL0     H38088  11.780   7.541   6.108 -0.7551 -1.4205  2.6544
 1023MOL0     H38089  11.722   7.287   6.533 -0.9834 -0.4112 -3.2003
 1023MOL0     H38090  11.581   7.162   6.709  0.6789  0.7836 -1.3886
 1023MOL0     H38091  11.136   5.543   7.089 -0.4801 -1.9442  1.0241
 1023MOL0     H38092  11.313   5.393   7.007  0.7080 -3.0649 -1.1358
 1023MOL0     H38093  11.371   5.187   6.558 -2.7351 -2.4770  3.2235
 1023MOL0     H38094  11.494   5.068   6.387  2.1490  1.5790 -1.3490
 1023MOL0     H38095  11.577   4.826   6.407  0.9083 -2.4331  2.5845
 1023MOL0     H38096  11.709   4.823   6.279 -0.3754 -3.2714  0.9363
 1023MOL0     H38097  11.714   4.661   6.465  0.7348 -1.5943  1.2737
 1023MOL0     H38098  11.743   4.782   6.585 -1.2227  1.2949 -0.6831
 1023MOL0     H38099  11.935   4.748   6.336 -1.5065  1.3263 -0.1971
 1023MOL0     H38100  11.940   4.629   6.476  0.4730 -0.4909 -2.7374
 1023MOL0     H38101  11.961   4.857   6.618 -1.3762  1.4011 -0.9193
 1023MOL0     H38102  11.969   4.933   6.469 -0.6514  0.3984  0.5911
 1023MOL0     H38103  12.357   4.775   6.457 -1.6257 -0.3735 -1.0511
 1023MOL0     H38104  11.819   5.018   6.649 -1.0487 -3.4695 -0.8850
 1023MOL0     H38105  11.692   5.121   6.840  3.0720 -4.4960 -1.9235
 1024MOL0     O38106  11.342   2.048   1.519 -0.0621 -0.0936 -0.2634
 1024MOL0     C38107  11.268   2.042   1.617 -0.3393 -0.7165 -0.5857
 1024MOL0     O38108  11.278   2.130   1.730 -0.6987 -0.3743  0.0731
 1024MOL0     C38109  11.384   2.218   1.749 -0.6513 -0.4644  0.1804
 1024MOL0     C38110  11.341   2.328   1.810 -0.5722 -1.0938  0.7948
 1024MOL0     C38111  11.430   2.426   1.854  0.8778  0.1360  0.2450
 1024MOL0     C38112  11.567   2.403   1.854 -1.1637 -1.0318  0.2052
 1024MOL0     O38113  11.656   2.498   1.898  0.6866  0.3822 -0.0146
 1024MOL0     C38114  11.698   2.459   2.028 -0.7929  1.3378  0.0206
 1024MOL0     C38115  11.830   2.521   2.063 -0.1372  0.2928 -0.0970
 1024MOL0     C38116  11.950   2.480   1.968 -0.6325  0.0649  0.6485
 1024MOL0     C38117  11.994   2.346   1.971  0.3181  0.0318 -1.1630
 1024MOL0     C38118  12.099   2.329   1.872 -0.2690 -0.6980  0.1734
 1024MOL0     C38119  12.167   2.192   1.873 -0.3026 -0.7192  0.5301
 1024MOL0     C38120  12.248   2.150   1.743  0.6098 -0.0848 -0.7432
 1024MOL0     C38121  12.356   2.242   1.711 -0.6438 -0.7457 -0.7361
 1024MOL0     N38122  12.428   2.209   1.589 -0.3173 -0.1942  0.5503
 1024MOL0     C38123  12.526   2.299   1.555 -0.1821  0.3427  0.7523
 1024MOL0     C38124  12.598   2.222   1.466  0.0525  0.2195  0.5317
 1024MOL0     C38125  12.728   2.274   1.406 -0.8424  0.2385  0.2663
 1024MOL0     C38126  12.745   2.425   1.386  0.1106 -0.7294  0.4892
 1024MOL0     C38127  12.884   2.450   1.313 -0.9127 -0.8083 -0.5522
 1024MOL0     C38128  12.962   2.539   1.412  0.3362 -0.1540  0.3908
 1024MOL0     O38129  13.086   2.559   1.340  0.4338  0.3286 -0.2178
 1024MOL0     C38130  13.154   2.676   1.376  0.6791 -0.7286  0.8420
 1024MOL0     C38131  13.202   2.709   1.499 -0.4727  0.6477  0.5192
 1024MOL0     C38132  13.268   2.828   1.527 -0.1556  1.2333 -0.5122
 1024MOL0     C38133  13.303   2.860   1.673 -0.0135  0.1270  0.4105
 1024MOL0     C38134  13.298   2.922   1.428 -0.1419 -0.5738  0.3228
 1024MOL0     C38135  13.363   3.067   1.443  0.2722 -0.2529  0.2487
 1024MOL0     O38136  13.337   3.144   1.556  0.6064 -0.0168  0.2350
 1024MOL0     C38137  13.395   3.260   1.558  0.5826  0.4622 -0.7400
 1024MOL0     C38138  13.329   3.383   1.574 -0.2598 -0.1169 -0.0101
 1024MOL0     C38139  13.401   3.504   1.601  0.2125 -0.2960  0.1484
 1024MOL0     C38140  13.544   3.497   1.608  0.4258  0.5478  0.2714
 1024MOL0     O38141  13.602   3.619   1.638  0.4754  0.2829  0.4826
 1024MOL0     C38142  13.731   3.636   1.590 -0.2151  0.7034  0.6150
 1024MOL0     C38143  13.752   3.783   1.556  0.6402  0.4376  0.0446
 1024MOL0     C38144  13.877   3.807   1.474  0.7418 -0.1832 -0.0991
 1024MOL0     C38145  13.884   3.957   1.423  0.6823  0.7038 -0.3587
 1024MOL0     C38146  13.759   4.002   1.350  0.1241  0.3892  0.0933
 1024MOL0     C38147  13.755   4.133   1.295 -0.6627  0.0764 -0.0335
 1024MOL0     C38148  13.829   4.157   1.156 -0.0551 -0.1867 -0.5679
 1024MOL0     C38149  13.741   4.206   1.043  0.1426  0.2623 -0.2076
 1024MOL0    Cl38150  13.861   4.248   0.921  0.2096  0.1329  0.5036
 1024MOL0     C38151  13.613   3.379   1.598  0.1151  0.0833 -1.1958
 1024MOL0     C38152  13.537   3.265   1.573  0.0869 -0.2331 -0.6311
 1024MOL0     O38153  13.420   3.108   1.340 -0.0025  0.4047  0.4666
 1024MOL0     C38154  13.263   2.873   1.300 -0.3299 -0.0277  0.3998
 1024MOL0     C38155  13.199   2.753   1.272  0.2010 -0.2674  1.1534
 1024MOL0     N38156  12.543   2.095   1.449  0.4133 -0.3499  0.2584
 1024MOL0     N38157  12.423   2.099   1.513 -0.3120  0.8952 -1.0599
 1024MOL0     C38158  11.616   2.280   1.797  0.1932  0.0287 -0.2044
 1024MOL0     C38159  11.527   2.193   1.752  0.5465  0.6342 -0.9116
 1024MOL0     C38160  11.140   1.966   1.606  0.3431 -0.3083  0.1781
 1024MOL0     C38161  11.040   2.003   1.690  0.7477  0.2754 -0.9231
 1024MOL0     C38162  10.912   1.935   1.687 -0.3799  0.7361 -0.2735
 1024MOL0     C38163  10.899   1.827   1.604 -0.1413  0.2429 -0.5387
 1024MOL0     O38164  10.788   1.758   1.616  0.1281 -0.2188 -0.2767
 1024MOL0     C38165  10.688   1.779   1.515  0.6601 -0.1032 -0.7191
 1024MOL0     C38166  10.624   1.648   1.475  0.9278  0.2625  0.2465
 1024MOL0     C38167  10.726   1.552   1.422  0.5791 -0.2765  0.3663
 1024MOL0     C38168  10.669   1.412   1.411  0.3916 -0.8822 -0.1843
 1024MOL0     C38169  10.600   1.410   1.274 -0.0578 -0.6399 -0.0461
 1024MOL0     C38170  10.558   1.392   1.158 -0.2883 -0.3097  0.1410
 1024MOL0     C38171  10.998   1.784   1.513  0.7375 -1.1840  0.4552
 1024MOL0     C38172  11.117   1.858   1.507  0.1800  0.0433 -0.1859
 1024MOL0     H38173  11.235   2.348   1.819 -1.4452 -3.3698 -2.5008
 1024MOL0     H38174  11.392   2.523   1.885  0.7256 -0.2620  1.3333
 1024MOL0     H38175  11.618   2.496   2.093 -3.7368 -1.6236 -1.5979
 1024MOL0     H38176  11.710   2.351   2.041 -0.5283  1.4341  0.6384
 1024MOL0     H38177  11.817   2.629   2.073 -0.3006  0.2404  0.2832
 1024MOL0     H38178  11.845   2.478   2.162 -1.2697 -1.2250 -0.5436
 1024MOL0     H38179  11.944   2.515   1.865  0.1041  0.3100  0.6819
 1024MOL0     H38180  12.039   2.531   2.006  0.9404 -0.8294 -1.6621
 1024MOL0     H38181  12.031   2.339   2.074 -2.8155  1.1598  0.1492
 1024MOL0     H38182  11.915   2.275   1.946 -2.8072  2.0273  2.1230
 1024MOL0     H38183  12.049   2.335   1.775 -2.2330  0.4726  1.1900
 1024MOL0     H38184  12.165   2.416   1.884  1.1728 -1.2272 -2.9397
 1024MOL0     H38185  12.216   2.155   1.964 -4.2834 -1.6555  2.5689
 1024MOL0     H38186  12.075   2.133   1.868 -1.1604  0.1231  3.9382
 1024MOL0     H38187  12.288   2.050   1.762 -0.4345 -1.3481 -4.3335
 1024MOL0     H38188  12.184   2.151   1.654 -0.5078  1.5879  0.0242
 1024MOL0     H38189  12.431   2.240   1.791  0.8646 -3.5291 -2.0496
 1024MOL0     H38190  12.318   2.343   1.695  3.4489  0.9766 -1.0069
 1024MOL0     H38191  12.537   2.403   1.585 -0.6568  0.0682  1.9192
 1024MOL0     H38192  12.818   2.246   1.461  0.4634  1.1050 -1.3210
 1024MOL0     H38193  12.741   2.240   1.302  1.5108  3.4448 -0.6379
 1024MOL0     H38194  12.753   2.472   1.485  1.5061  0.9782 -0.3789
 1024MOL0     H38195  12.662   2.477   1.337  1.9262  0.6119 -1.3459
 1024MOL0     H38196  12.867   2.516   1.227  0.6041  2.9803  1.7529
 1024MOL0     H38197  12.954   2.368   1.295  2.1897  1.0093  2.1787
 1024MOL0     H38198  12.985   2.480   1.501 -0.7210 -1.1583  0.0219
 1024MOL0     H38199  12.905   2.629   1.437 -0.5729 -0.5177 -0.2874
 1024MOL0     H38200  13.178   2.649   1.586 -3.0917  1.1155  0.2065
 1024MOL0     H38201  13.238   2.947   1.682 -1.5677 -0.4469 -3.4603
 1024MOL0     H38202  13.279   2.777   1.740  1.5553 -0.9710 -0.3292
 1024MOL0     H38203  13.408   2.891   1.686  0.0717 -0.2780  0.7133
 1024MOL0     H38204  13.220   3.383   1.570 -0.3307 -0.5900  1.3201
 1024MOL0     H38205  13.353   3.602   1.604  0.4070 -0.2233  2.3366
 1024MOL0     H38206  13.792   3.591   1.668  2.4296 -0.9759 -2.2244
 1024MOL0     H38207  13.757   3.576   1.502  3.6273  0.8328  1.5092
 1024MOL0     H38208  13.671   3.805   1.485  2.2899 -0.7220 -2.3217
 1024MOL0     H38209  13.752   3.837   1.651 -2.8861 -1.5388  1.3600
 1024MOL0     H38210  13.869   3.735   1.392 -0.4986 -4.5300  3.4254
 1024MOL0     H38211  13.962   3.791   1.541  0.6800 -4.7509 -0.8096
 1024MOL0     H38212  13.902   4.033   1.500 -0.7796  0.2170  0.5137
 1024MOL0     H38213  13.972   3.954   1.358  1.5047 -1.2914  0.7335
 1024MOL0     H38214  13.682   4.009   1.428  2.3508  2.0082  2.3515
 1024MOL0     H38215  13.734   3.934   1.269  4.4158  0.4719 -1.5716
 1024MOL0     H38216  13.652   4.170   1.290 -0.8144 -0.4198 -0.7965
 1024MOL0     H38217  13.791   4.207   1.367  1.5863 -0.4041 -0.6110
 1024MOL0     H38218  13.865   4.056   1.132  3.4496  1.5011 -3.3527
 1024MOL0     H38219  13.906   4.228   1.187 -2.0328  1.1555  1.6391
 1024MOL0     H38220  13.671   4.284   1.075  0.1171 -0.0223  0.4382
 1024MOL0     H38221  13.682   4.119   1.013  2.2369 -1.0709 -0.6924
 1024MOL0     H38222  13.718   3.376   1.624  0.3194  0.0259 -2.0131
 1024MOL0     H38223  13.586   3.169   1.582 -1.0056 -0.9934 -2.3770
 1024MOL0     H38224  13.310   2.920   1.215 -1.2936 -1.3286 -0.9051
 1024MOL0     H38225  13.159   2.724   1.176 -1.5837  0.5291  1.6077
 1024MOL0     H38226  11.723   2.262   1.796  0.8724  3.4049 -0.7960
 1024MOL0     H38227  11.554   2.094   1.717  0.2712  0.1039  0.3136
 1024MOL0     H38228  11.060   2.069   1.774 -0.5081  0.3526 -0.6644
 1024MOL0     H38229  10.833   1.941   1.762 -1.5564 -2.3321 -1.0919
 1024MOL0     H38230  10.605   1.839   1.554  0.3611 -1.5573  0.9982
 1024MOL0     H38231  10.743   1.821   1.430 -0.1701  1.9610 -0.3028
 1024MOL0     H38232  10.540   1.652   1.404 -0.4367 -2.9037  1.4586
 1024MOL0     H38233  10.571   1.611   1.563  0.5129  1.8659  0.7088
 1024MOL0     H38234  10.815   1.552   1.486  0.9933  3.6398  0.0315
 1024MOL0     H38235  10.755   1.590   1.324  1.8140 -1.2943  0.3046
 1024MOL0     H38236  10.593   1.396   1.489  0.0431  2.0500  0.1853
 1024MOL0     H38237  10.753   1.345   1.427  0.5055 -0.2555  2.3028
 1024MOL0     H38238  10.525   1.395   1.056  1.0958  1.4509 -0.2968
 1024MOL0     H38239  10.989   1.699   1.445 -1.7112 -2.1414  1.8479
 1024MOL0     H38240  11.196   1.825   1.440  1.9862 -3.1158  3.0938
  11.52086  11.52086  11.52086
